FOO
138240
    1MOL0     O    1   5.426   6.565   5.956 -0.4715 -0.1342  0.1871
    1MOL0     C    2   5.482   6.488   6.036 -0.4058 -1.6442  0.0375
    1MOL0     O    3   5.464   6.358   6.049  0.1259  0.1664  0.4042
    1MOL0     C    4   5.392   6.286   5.959  1.0078  0.3149 -0.0851
    1MOL0     C    5   5.465   6.191   5.879 -0.4976  0.2599  0.3482
    1MOL0     C    6   5.399   6.104   5.790 -0.1207  0.4435 -0.2154
    1MOL0     C    7   5.261   6.111   5.773  0.2962  0.1335 -0.2040
    1MOL0     O    8   5.188   6.046   5.678 -0.1265  0.7236  0.7488
    1MOL0     C    9   5.202   5.905   5.687  0.0414 -0.3995 -0.0246
    1MOL0     C   10   5.083   5.827   5.638  0.1801  0.5355  0.2331
    1MOL0     C   11   5.079   5.821   5.482  0.4243 -0.0187  0.7161
    1MOL0     C   12   4.961   5.748   5.413 -0.0972  0.0752 -0.2429
    1MOL0     C   13   4.943   5.792   5.263  0.6641 -0.1949  0.2168
    1MOL0     C   14   4.822   5.880   5.246  0.1692  0.5588  0.1004
    1MOL0     C   15   4.820   5.941   5.101 -0.4231 -0.1411 -0.0977
    1MOL0     C   16   4.724   6.059   5.093 -0.8614  0.1334 -0.0524
    1MOL0     N   17   4.753   6.145   4.984  0.7947 -0.5674  0.0931
    1MOL0     C   18   4.708   6.101   4.858 -0.0032  0.2085  0.0845
    1MOL0     C   19   4.709   6.217   4.783  0.4365 -0.4906  0.5201
    1MOL0     C   20   4.693   6.217   4.632 -0.4333 -0.0071  0.5108
    1MOL0     C   21   4.555   6.256   4.575 -0.2442 -0.8204 -0.0367
    1MOL0     C   22   4.556   6.372   4.474 -0.1092 -0.0716 -0.9168
    1MOL0     C   23   4.415   6.390   4.410  0.1116  0.2308  0.3369
    1MOL0     O   24   4.421   6.324   4.283  0.3079  0.2180 -0.3304
    1MOL0     C   25   4.311   6.250   4.252  0.2996  0.0185  0.5821
    1MOL0     C   26   4.323   6.111   4.252  0.0831  0.2133 -0.1445
    1MOL0     C   27   4.213   6.035   4.220  0.6155  0.7634 -0.2730
    1MOL0     C   28   4.239   5.894   4.183 -0.6544 -0.1530  0.1580
    1MOL0     C   29   4.076   6.093   4.203 -0.2309  0.9518  0.3008
    1MOL0     C   30   3.944   6.022   4.165 -0.3747 -1.3910  0.1282
    1MOL0     O   31   3.837   6.109   4.149  0.2523 -0.9079 -0.4349
    1MOL0     C   32   3.713   6.075   4.198 -0.1906 -0.0047 -0.1555
    1MOL0     C   33   3.679   5.970   4.294 -0.2242  0.6376 -0.9150
    1MOL0     C   34   3.544   5.971   4.341  0.7775 -0.6606  1.0257
    1MOL0     C   35   3.450   6.056   4.284  0.2049  0.2655  0.4619
    1MOL0     O   36   3.314   6.058   4.314 -0.2597  1.1491  0.6599
    1MOL0     C   37   3.259   5.966   4.414 -0.3531  0.1220  0.0532
    1MOL0     C   38   3.115   6.015   4.443 -0.5194  0.1470  0.2898
    1MOL0     C   39   3.039   5.922   4.531  0.1000  1.1480 -0.4360
    1MOL0     C   40   2.896   5.984   4.560 -0.6480 -0.0883  0.4089
    1MOL0     C   41   2.797   5.870   4.585  0.0198 -0.3855  0.0172
    1MOL0     C   42   2.684   5.906   4.681 -0.0322  0.2357  0.3293
    1MOL0     C   43   2.579   5.802   4.696  0.6213 -0.5084  0.8066
    1MOL0     C   44   2.498   5.814   4.822  0.5756  0.2999 -0.4359
    1MOL0    Cl   45   2.346   5.718   4.814 -0.0766 -0.1602 -0.0353
    1MOL0     C   46   3.490   6.150   4.197  0.1877 -0.1536 -0.3747
    1MOL0     C   47   3.619   6.167   4.154 -0.0303 -0.1062 -0.9506
    1MOL0     O   48   3.943   5.906   4.146 -0.0041  0.8278  0.8202
    1MOL0     C   49   4.074   6.233   4.209 -0.1420 -0.9770  0.2191
    1MOL0     C   50   4.191   6.310   4.237 -0.0773  0.5787 -0.4501
    1MOL0     N   51   4.757   6.329   4.862  0.4226 -0.1615  0.5562
    1MOL0     N   52   4.774   6.278   4.983 -0.6316  0.3559 -0.0742
    1MOL0     C   53   5.188   6.201   5.849  0.4558 -1.1626 -0.4117
    1MOL0     C   54   5.253   6.286   5.946  0.1857  0.2157 -0.1347
    1MOL0     C   55   5.572   6.556   6.136  0.3723 -0.5096  0.4772
    1MOL0     C   56   5.642   6.479   6.230 -0.5912 -0.6475 -0.4100
    1MOL0     C   57   5.744   6.547   6.307 -0.3253  0.6195  0.0233
    1MOL0     C   58   5.763   6.682   6.305 -0.2518 -1.2124  0.4298
    1MOL0     O   59   5.863   6.726   6.393  0.0333 -0.1712  0.1745
    1MOL0     C   60   5.874   6.867   6.430  0.8640  0.2016 -0.0950
    1MOL0     C   61   5.744   6.911   6.498 -0.1382  0.6947 -0.1717
    1MOL0     C   62   5.739   6.876   6.655 -0.2998 -0.2211 -0.3563
    1MOL0     C   63   5.617   6.949   6.710  0.0322 -0.5706 -0.3507
    1MOL0     C   64   5.611   6.949   6.862  0.5660  0.0872 -0.2950
    1MOL0     C   65   5.576   6.934   6.979  0.1405  0.3241  0.4807
    1MOL0     C   66   5.694   6.755   6.214  0.2196 -0.0083 -0.1302
    1MOL0     C   67   5.593   6.696   6.134 -0.2990 -0.1301 -1.2053
    1MOL0     H   68   5.573   6.186   5.882 -0.4914  0.6149  0.8724
    1MOL0     H   69   5.456   6.038   5.727  0.3865  0.4900  0.1901
    1MOL0     H   70   5.289   5.876   5.628 -1.6186  0.0040 -2.8799
    1MOL0     H   71   5.209   5.885   5.794 -1.1773  0.8658  0.3287
    1MOL0     H   72   5.085   5.726   5.681 -1.4954  0.3117 -0.1450
    1MOL0     H   73   4.990   5.870   5.676 -0.6244  2.8520 -3.7620
    1MOL0     H   74   5.070   5.924   5.448  2.0565  0.0642  0.4497
    1MOL0     H   75   5.172   5.780   5.442  1.2263  1.3943  1.0723
    1MOL0     H   76   4.981   5.641   5.408  0.5646  0.2085 -0.5701
    1MOL0     H   77   4.870   5.768   5.471 -0.5486  2.6511 -1.6837
    1MOL0     H   78   5.029   5.846   5.225 -0.6428  2.0516  0.2579
    1MOL0     H   79   4.928   5.700   5.206 -1.0156 -1.0340  1.8765
    1MOL0     H   80   4.728   5.826   5.261 -1.6931  4.0023  2.1743
    1MOL0     H   81   4.826   5.953   5.327 -0.7248  0.1326  0.5389
    1MOL0     H   82   4.919   5.985   5.094 -0.4565  0.2764  1.5057
    1MOL0     H   83   4.794   5.867   5.025 -0.2051 -0.1143 -0.1969
    1MOL0     H   84   4.726   6.120   5.184  1.7105  3.0114 -1.8319
    1MOL0     H   85   4.619   6.027   5.092 -0.1843 -2.2696  0.2085
    1MOL0     H   86   4.671   6.003   4.829 -0.7594  0.5026  0.0394
    1MOL0     H   87   4.765   6.293   4.599  0.1610 -1.0451 -0.6682
    1MOL0     H   88   4.720   6.121   4.587 -1.8750 -0.9557  1.6142
    1MOL0     H   89   4.501   6.286   4.666 -1.0916  1.3657 -1.1669
    1MOL0     H   90   4.494   6.175   4.534 -1.1841 -0.6853  1.0236
    1MOL0     H   91   4.628   6.345   4.397 -1.6940 -2.9681 -1.5261
    1MOL0     H   92   4.596   6.464   4.517 -2.6398  0.1241  1.3274
    1MOL0     H   93   4.404   6.497   4.393  0.0501  0.1680 -0.0239
    1MOL0     H   94   4.332   6.363   4.477 -0.9321 -1.2528 -1.4751
    1MOL0     H   95   4.420   6.067   4.273 -0.1067  0.5051  1.4334
    1MOL0     H   96   4.253   5.883   4.075  3.5935 -1.1128  0.6333
    1MOL0     H   97   4.329   5.866   4.239 -1.4562  0.4216  1.8049
    1MOL0     H   98   4.157   5.832   4.219 -1.6963  1.7654  1.2572
    1MOL0     H   99   3.747   5.904   4.346 -2.1898 -1.3563 -0.7289
    1MOL0     H  100   3.507   5.895   4.410 -2.4760 -1.5312 -1.4188
    1MOL0     H  101   3.248   5.865   4.374 -2.2877  0.6996 -1.0022
    1MOL0     H  102   3.321   5.962   4.504  1.2645 -3.1861 -1.0415
    1MOL0     H  103   3.126   6.110   4.497 -2.1849  0.6578 -0.2024
    1MOL0     H  104   3.056   6.039   4.353 -1.3919 -0.8124  0.5887
    1MOL0     H  105   3.093   5.917   4.626 -2.9534  0.5300  1.4205
    1MOL0     H  106   3.038   5.819   4.493 -1.1263 -1.0934  4.8085
    1MOL0     H  107   2.910   6.040   4.653 -0.1205  1.0129 -0.3083
    1MOL0     H  108   2.843   6.052   4.493 -1.6917 -1.2648  0.0267
    1MOL0     H  109   2.852   5.793   4.640  0.0426 -1.1429 -1.0318
    1MOL0     H  110   2.746   5.832   4.496 -0.2917 -0.4630  0.2264
    1MOL0     H  111   2.729   5.940   4.774 -4.7070  2.6065  2.0555
    1MOL0     H  112   2.621   5.989   4.646 -2.7355 -2.2294 -1.1721
    1MOL0     H  113   2.623   5.702   4.688 -0.5778 -0.9541 -0.6634
    1MOL0     H  114   2.505   5.810   4.615  1.1437 -5.3538 -0.4750
    1MOL0     H  115   2.478   5.921   4.831 -0.8341  0.0425 -0.3197
    1MOL0     H  116   2.560   5.783   4.906 -0.2519 -0.8379 -0.2221
    1MOL0     H  117   3.410   6.209   4.153  0.2745  0.4363  0.2417
    1MOL0     H  118   3.633   6.233   4.069  0.8129  0.5820 -0.2918
    1MOL0     H  119   3.984   6.292   4.200 -0.5780 -1.7909 -0.9906
    1MOL0     H  120   4.189   6.418   4.249 -0.1851  0.5868 -0.5389
    1MOL0     H  121   5.080   6.209   5.838  0.2842  1.5021  1.9966
    1MOL0     H  122   5.195   6.351   6.010 -3.4673 -1.0327 -1.8988
    1MOL0     H  123   5.625   6.372   6.233  1.8210 -1.0886 -0.5966
    1MOL0     H  124   5.808   6.479   6.362  0.2490 -0.3802 -1.7785
    1MOL0     H  125   5.944   6.881   6.513  0.7447  0.2961 -0.0076
    1MOL0     H  126   5.898   6.928   6.343  0.7440  0.9903  0.4092
    1MOL0     H  127   5.658   6.860   6.455  1.6186 -4.0779  1.1954
    1MOL0     H  128   5.730   7.017   6.477  0.4886  0.9336  0.5569
    1MOL0     H  129   5.820   6.928   6.707 -0.6716 -0.0684  0.0662
    1MOL0     H  130   5.738   6.768   6.671 -1.8385 -0.0388  0.9886
    1MOL0     H  131   5.522   6.908   6.677 -0.4135 -0.5122  0.8144
    1MOL0     H  132   5.617   7.055   6.680 -0.0006 -0.9603 -1.7653
    1MOL0     H  133   5.546   6.932   7.082 -0.0628 -0.9103  0.4084
    1MOL0     H  134   5.702   6.863   6.220  0.3380 -0.0021 -0.3780
    1MOL0     H  135   5.534   6.765   6.074 -0.4023  0.3813 -0.5273
    2MOL0     O  136   7.010   4.997   4.010 -0.4304  0.1279  0.4885
    2MOL0     C  137   7.055   5.011   4.125 -0.0838 -0.1551  0.4228
    2MOL0     O  138   6.993   5.086   4.227 -0.5393  0.8995 -0.6734
    2MOL0     C  139   6.869   5.139   4.231  0.9187  0.0338  0.1469
    2MOL0     C  140   6.837   5.216   4.346  0.7550 -0.0786  0.2767
    2MOL0     C  141   6.714   5.265   4.357  0.2511  0.6621  0.9233
    2MOL0     C  142   6.609   5.251   4.270 -0.5483  0.3138 -0.4850
    2MOL0     O  143   6.485   5.321   4.272 -0.3762 -0.0069 -0.5047
    2MOL0     C  144   6.465   5.441   4.338  0.3115  0.4770 -0.3791
    2MOL0     C  145   6.315   5.441   4.372 -0.4944 -0.0307 -0.7014
    2MOL0     C  146   6.220   5.469   4.254 -0.3215 -0.3999 -0.9122
    2MOL0     C  147   6.075   5.459   4.296  1.0743 -0.2994 -0.1554
    2MOL0     C  148   5.986   5.469   4.178 -0.4362 -0.8737 -0.5205
    2MOL0     C  149   5.848   5.507   4.219  1.3477  0.4888 -0.7086
    2MOL0     C  150   5.753   5.538   4.104 -0.8717  0.4467 -0.0857
    2MOL0     C  151   5.615   5.564   4.143  0.8659 -0.9973 -0.4665
    2MOL0     N  152   5.522   5.592   4.029  0.5119 -0.3611 -0.0659
    2MOL0     C  153   5.443   5.503   3.958 -0.2356 -0.1626 -0.2537
    2MOL0     C  154   5.346   5.584   3.906  0.4466 -0.2639 -0.0252
    2MOL0     C  155   5.239   5.537   3.813 -0.7184 -0.5444  1.0602
    2MOL0     C  156   5.236   5.626   3.688  0.0178 -0.2310 -0.8416
    2MOL0     C  157   5.173   5.542   3.566  0.1577  0.3034 -0.0550
    2MOL0     C  158   5.027   5.493   3.608 -0.1029  0.4338  0.1604
    2MOL0     O  159   4.939   5.599   3.628 -0.1296 -0.2296  1.0135
    2MOL0     C  160   4.818   5.561   3.659  0.1856  0.0395  0.1152
    2MOL0     C  161   4.776   5.432   3.670  0.3717  0.0613  0.2434
    2MOL0     C  162   4.634   5.393   3.688 -0.5289  1.0259 -0.5780
    2MOL0     C  163   4.588   5.242   3.683 -0.0770 -0.0523  0.3438
    2MOL0     C  164   4.539   5.502   3.688 -0.3818  0.4786  0.4463
    2MOL0     C  165   4.390   5.480   3.672 -0.0580 -0.5646 -0.1013
    2MOL0     O  166   4.314   5.593   3.674  0.3311  0.0691 -0.5003
    2MOL0     C  167   4.183   5.611   3.669  0.8720  0.4585  0.2606
    2MOL0     C  168   4.087   5.514   3.637  0.1746  0.1428 -0.7763
    2MOL0     C  169   3.951   5.548   3.629 -0.2844  0.2517 -0.2195
    2MOL0     C  170   3.901   5.671   3.668 -0.1529 -0.4916 -0.1636
    2MOL0     O  171   3.767   5.676   3.683  0.2013  0.0036 -0.8346
    2MOL0     C  172   3.711   5.806   3.721  0.2286 -0.3312  0.4984
    2MOL0     C  173   3.559   5.796   3.711 -0.2779  0.4903  0.1097
    2MOL0     C  174   3.509   5.766   3.556 -0.6857 -0.1411 -0.4511
    2MOL0     C  175   3.362   5.731   3.557  0.6541 -0.0807 -0.7995
    2MOL0     C  176   3.267   5.855   3.531  0.4228  1.2681 -0.0015
    2MOL0     C  177   3.125   5.819   3.547  0.2187  0.8124 -0.6012
    2MOL0     C  178   3.022   5.928   3.511 -0.3286 -0.1123 -0.0737
    2MOL0     C  179   2.878   5.881   3.515 -0.2048 -0.3487 -0.1394
    2MOL0    Cl  180   2.779   6.024   3.477  0.4435 -0.2164 -0.0830
    2MOL0     C  181   3.993   5.774   3.699  0.2581 -0.3205  0.1354
    2MOL0     C  182   4.129   5.735   3.700 -0.1170  0.0856  0.2461
    2MOL0     O  183   4.346   5.368   3.658 -0.2651  0.5513  0.1851
    2MOL0     C  184   4.587   5.632   3.686 -0.5697 -0.6365  0.0193
    2MOL0     C  185   4.723   5.662   3.665  0.3091  0.2647 -0.3545
    2MOL0     N  186   5.362   5.711   3.953  0.3012 -0.7232  0.3284
    2MOL0     N  187   5.467   5.717   4.020  0.0738 -0.0307  0.2434
    2MOL0     C  188   6.632   5.171   4.160  0.0350  0.2707 -0.1912
    2MOL0     C  189   6.761   5.113   4.141  0.1979  0.1775  0.1356
    2MOL0     C  190   7.190   4.963   4.159  0.3790 -0.2496  0.7810
    2MOL0     C  191   7.250   4.884   4.069 -0.2637  0.1717  0.2690
    2MOL0     C  192   7.381   4.849   4.074  0.1398  0.5588  0.6358
    2MOL0     C  193   7.452   4.887   4.188 -0.8095  0.2884 -0.3630
    2MOL0     O  194   7.595   4.861   4.195  0.3562 -0.3174  0.5005
    2MOL0     C  195   7.671   4.850   4.072 -0.0852  0.3507  0.5202
    2MOL0     C  196   7.823   4.863   4.116  0.8209  0.1463  0.1785
    2MOL0     C  197   7.863   5.013   4.143  0.2531 -0.4462  0.5021
    2MOL0     C  198   7.988   5.017   4.229 -0.0846 -0.4666 -0.0911
    2MOL0     C  199   8.107   4.934   4.182  0.0388  0.2551 -0.6626
    2MOL0     C  200   8.196   4.864   4.161 -0.9286  1.5449  0.2574
    2MOL0     C  201   7.391   4.963   4.293 -0.5372  0.5426 -0.0527
    2MOL0     C  202   7.260   5.003   4.272 -0.2853 -0.6360  0.3740
    2MOL0     H  203   6.912   5.242   4.420  0.0697 -0.3764  1.0978
    2MOL0     H  204   6.686   5.336   4.434 -3.8058  1.5011 -1.0471
    2MOL0     H  205   6.515   5.434   4.435  1.8208 -0.2527 -1.1782
    2MOL0     H  206   6.494   5.526   4.275 -1.0695 -0.2170 -2.0589
    2MOL0     H  207   6.280   5.348   4.418 -2.0767  0.1429 -1.5030
    2MOL0     H  208   6.304   5.519   4.447  1.1580  2.0291 -2.4630
    2MOL0     H  209   6.227   5.574   4.224 -0.9112  0.6987  2.3681
    2MOL0     H  210   6.244   5.402   4.171  0.6472  0.0538 -1.0225
    2MOL0     H  211   6.063   5.366   4.352 -0.5959  0.7256  1.2966
    2MOL0     H  212   6.059   5.542   4.365  1.7993  0.0141 -0.3512
    2MOL0     H  213   6.018   5.544   4.106 -2.6354  0.7595  0.1194
    2MOL0     H  214   5.985   5.367   4.137  0.0061 -1.1454  0.1163
    2MOL0     H  215   5.808   5.431   4.286 -0.0266  1.9726  0.2511
    2MOL0     H  216   5.850   5.600   4.277 -2.4893  0.9035 -0.9693
    2MOL0     H  217   5.806   5.619   4.053  0.3528 -1.6854 -2.4245
    2MOL0     H  218   5.752   5.449   4.040 -0.9043  0.0627  0.4375
    2MOL0     H  219   5.612   5.648   4.212  0.7221 -1.0851 -0.3671
    2MOL0     H  220   5.580   5.473   4.194  0.5124 -0.7548 -0.2807
    2MOL0     H  221   5.470   5.401   3.933  0.3189 -0.0135 -0.2845
    2MOL0     H  222   5.259   5.434   3.783 -0.0999  0.3753 -2.0927
    2MOL0     H  223   5.140   5.558   3.854 -0.8194  2.1862 -0.3267
    2MOL0     H  224   5.336   5.666   3.669  0.8257 -0.5387  2.1949
    2MOL0     H  225   5.164   5.705   3.712 -1.9468 -0.0269 -6.1498
    2MOL0     H  226   5.240   5.458   3.543  2.1096  1.8047 -0.0489
    2MOL0     H  227   5.166   5.596   3.471  2.3046 -0.8258 -0.9270
    2MOL0     H  228   5.035   5.449   3.708 -1.9557  1.5674  0.8522
    2MOL0     H  229   4.995   5.425   3.529  0.8350 -0.9444  0.9112
    2MOL0     H  230   4.835   5.346   3.638 -1.8610 -0.5738 -2.5647
    2MOL0     H  231   4.560   5.215   3.581 -0.1586  3.3306 -0.6506
    2MOL0     H  232   4.683   5.194   3.710  2.2396  3.7306 -0.2600
    2MOL0     H  233   4.514   5.224   3.761 -0.0894  2.4896  1.0048
    2MOL0     H  234   4.105   5.408   3.623  2.2734  0.4987 -1.2083
    2MOL0     H  235   3.895   5.458   3.608  0.2330  0.1944 -1.4204
    2MOL0     H  236   3.751   5.837   3.818  0.7342 -0.8843  0.4741
    2MOL0     H  237   3.735   5.896   3.664  0.5698  0.0367  1.2136
    2MOL0     H  238   3.536   5.713   3.779 -0.5136 -0.7110 -1.3692
    2MOL0     H  239   3.524   5.893   3.748 -0.3173  1.0808 -1.4232
    2MOL0     H  240   3.569   5.684   3.516 -3.6749 -2.8534  0.2740
    2MOL0     H  241   3.525   5.853   3.492  0.8640 -0.8199 -1.0335
    2MOL0     H  242   3.356   5.658   3.476 -1.2203 -2.5173  1.3342
    2MOL0     H  243   3.328   5.675   3.645 -2.4737  0.0124 -1.8269
    2MOL0     H  244   3.294   5.881   3.428 -2.3713 -0.6485 -1.3380
    2MOL0     H  245   3.296   5.936   3.598  4.2711 -0.5744  0.8018
    2MOL0     H  246   3.109   5.735   3.478 -0.3761  0.0574  0.4279
    2MOL0     H  247   3.103   5.789   3.650  1.8809 -1.1929 -0.7559
    2MOL0     H  248   3.058   5.960   3.412  4.4039 -0.7495  1.2168
    2MOL0     H  249   3.044   6.012   3.578 -0.7216 -0.8946  1.0611
    2MOL0     H  250   2.851   5.845   3.615 -1.2221 -0.3031 -0.3850
    2MOL0     H  251   2.855   5.807   3.437 -1.6628 -0.9121  0.7802
    2MOL0     H  252   3.957   5.870   3.735  2.8841 -0.1263  2.5916
    2MOL0     H  253   4.200   5.813   3.726  0.4743  0.1300 -1.3728
    2MOL0     H  254   4.528   5.720   3.712  1.0649 -0.1313  2.3488
    2MOL0     H  255   4.754   5.766   3.669 -3.0356  1.3806 -0.3197
    2MOL0     H  256   6.561   5.146   4.082 -0.0701 -1.6791  0.4731
    2MOL0     H  257   6.766   5.064   4.044 -4.1173 -0.3240 -0.0058
    2MOL0     H  258   7.191   4.853   3.984 -2.4133  0.1077  1.7011
    2MOL0     H  259   7.424   4.799   3.988  2.4267  0.0750  1.9921
    2MOL0     H  260   7.648   4.751   4.031 -0.9393  0.2889  1.1201
    2MOL0     H  261   7.654   4.929   3.999  2.8711  0.5196 -0.0743
    2MOL0     H  262   7.897   4.817   4.050  1.3677 -0.6253  1.2946
    2MOL0     H  263   7.830   4.809   4.211  0.0312  0.0387  0.1832
    2MOL0     H  264   7.779   5.062   4.192  0.6486 -0.5793  1.3277
    2MOL0     H  265   7.889   5.065   4.051 -0.4689  0.1477  0.6325
    2MOL0     H  266   7.969   4.988   4.332  1.6796 -0.0098  0.4021
    2MOL0     H  267   8.013   5.124   4.235 -2.8297  0.1754  1.7775
    2MOL0     H  268   8.284   4.804   4.144 -0.4575  1.9101  1.3096
    2MOL0     H  269   7.443   4.998   4.381 -1.4165 -0.6961  0.9918
    2MOL0     H  270   7.218   5.065   4.351 -1.5837 -0.8836 -0.0878
    3MOL0     O  271   0.199   8.770   1.891 -0.3389  0.0326 -0.4829
    3MOL0     C  272   0.277   8.833   1.965  0.0749  1.0323 -0.1721
    3MOL0     O  273   0.241   8.904   2.080  1.0331 -0.7296  0.4210
    3MOL0     C  274   0.113   8.926   2.113 -0.2410  0.7226  0.4066
    3MOL0     C  275   0.058   9.058   2.112 -0.2794  0.7209 -0.4414
    3MOL0     C  276  -0.072   9.082   2.142 -0.0925 -0.1177 -0.0382
    3MOL0     C  277  -0.150   8.972   2.189 -0.3411  0.4138  0.2496
    3MOL0     O  278  -0.282   8.969   2.221  0.1790  0.0341  0.8635
    3MOL0     C  279  -0.343   9.097   2.245  0.1212  0.2821 -0.6423
    3MOL0     C  280  -0.489   9.071   2.286 -1.2521 -0.0072 -0.3055
    3MOL0     C  281  -0.533   9.208   2.345 -0.6839 -0.1622  0.3525
    3MOL0     C  282  -0.665   9.190   2.415 -0.6326  0.8582 -0.2863
    3MOL0     C  283  -0.705   9.321   2.480  0.3785 -0.1739  0.4092
    3MOL0     C  284  -0.713   9.457   2.409  0.9620  0.6646 -0.1520
    3MOL0     C  285  -0.796   9.451   2.286  0.7946 -0.2184 -0.6752
    3MOL0     C  286  -0.866   9.588   2.256 -1.4111  0.3832  0.3687
    3MOL0     N  287  -0.958   9.634   2.362  0.0321 -0.6588 -0.0672
    3MOL0     C  288  -0.974   9.764   2.407  0.6967 -0.6218  0.8318
    3MOL0     C  289  -1.093   9.770   2.470 -0.5418 -0.2251 -0.5014
    3MOL0     C  290  -1.160   9.881   2.538  0.0871  0.0743  1.3161
    3MOL0     C  291  -1.145   9.894   2.688  0.3107  0.0144  0.4431
    3MOL0     C  292  -1.238   9.794   2.758 -0.8086  0.2697 -0.4273
    3MOL0     C  293  -1.225   9.815   2.909 -0.7801 -0.7393  0.1371
    3MOL0     O  294  -1.269   9.940   2.961  0.2523 -0.2039  0.1318
    3MOL0     C  295  -1.402   9.973   2.957  0.0780  0.4608  0.2596
    3MOL0     C  296  -1.437  10.104   2.962  0.1723 -0.2274  0.0523
    3MOL0     C  297  -1.576  10.143   2.961 -0.1727  0.0489 -0.1268
    3MOL0     C  298  -1.616  10.286   2.963  0.9879 -0.3620 -0.6616
    3MOL0     C  299  -1.677  10.041   2.950  0.3088  0.1321  0.5793
    3MOL0     C  300  -1.817  10.079   2.932  0.1796 -0.6209  0.4761
    3MOL0     O  301  -1.861  10.088   2.806 -0.1070  0.6586 -0.3727
    3MOL0     C  302  -1.997  10.116   2.789  0.4418  0.2044 -0.8589
    3MOL0     C  303  -2.095  10.026   2.831  0.2695 -0.3624  0.1616
    3MOL0     C  304  -2.230  10.047   2.816 -1.0932  0.4945  0.4699
    3MOL0     C  305  -2.273  10.174   2.763  0.5238 -0.8843 -0.5146
    3MOL0     O  306  -2.399  10.223   2.746 -0.2645  0.2836  0.4707
    3MOL0     C  307  -2.502  10.125   2.776  0.4220 -0.4829 -0.3303
    3MOL0     C  308  -2.622  10.205   2.737  0.3825  0.0074  0.3867
    3MOL0     C  309  -2.759  10.142   2.762  0.3809 -0.1823 -0.2575
    3MOL0     C  310  -2.869  10.235   2.774  0.7878 -0.8847  0.5525
    3MOL0     C  311  -2.997  10.157   2.819  0.5497 -0.3256  0.4349
    3MOL0     C  312  -3.117  10.251   2.859 -0.5616  0.6448  0.5872
    3MOL0     C  313  -3.242  10.155   2.897 -0.5044  0.1430  0.7157
    3MOL0     C  314  -3.370  10.236   2.908 -0.5347  0.0173 -0.1001
    3MOL0    Cl  315  -3.345  10.344   3.038 -0.4585  0.3454 -0.3208
    3MOL0     C  316  -2.176  10.268   2.721 -0.4951  0.2773  0.5245
    3MOL0     C  317  -2.041  10.238   2.742 -0.1336  0.0193  0.1794
    3MOL0     O  318  -1.873  10.090   3.037 -0.5659 -1.0840 -0.1252
    3MOL0     C  319  -1.630   9.913   2.927 -1.0430  0.2479 -0.0400
    3MOL0     C  320  -1.499   9.877   2.931 -1.1924  0.9211  0.5092
    3MOL0     N  321  -1.146   9.644   2.475 -0.9324  0.0053 -0.5117
    3MOL0     N  322  -1.067   9.565   2.409 -0.4232 -0.1860 -0.7330
    3MOL0     C  323  -0.102   8.840   2.189  0.2672 -0.1911 -0.1712
    3MOL0     C  324   0.031   8.818   2.153  0.1547 -1.0230  0.1252
    3MOL0     C  325   0.429   8.827   1.943  0.4576  0.0901  0.4759
    3MOL0     C  326   0.489   8.776   1.826 -0.5993  0.1438  0.2097
    3MOL0     C  327   0.626   8.754   1.810  0.6166 -0.0801  0.4335
    3MOL0     C  328   0.710   8.798   1.908 -0.0845  0.3721  0.7135
    3MOL0     O  329   0.843   8.785   1.902  0.2623 -0.7652  0.4136
    3MOL0     C  330   0.905   8.665   1.853  0.0170  0.0132 -0.1329
    3MOL0     C  331   0.875   8.552   1.940  0.1526 -0.1565  0.2073
    3MOL0     C  332   0.905   8.418   1.887  0.1363 -0.4668 -0.0202
    3MOL0     C  333   1.051   8.379   1.899  0.8076 -0.2544  0.3425
    3MOL0     C  334   1.063   8.241   1.845 -0.0532  0.4206 -0.1182
    3MOL0     C  335   1.098   8.138   1.791  0.2825 -0.8183 -0.5183
    3MOL0     C  336   0.656   8.864   2.024 -0.0465 -0.5268 -0.0141
    3MOL0     C  337   0.521   8.877   2.034 -0.1619  0.0423 -0.3966
    3MOL0     H  338   0.124   9.143   2.096  0.8755  0.1708  1.1745
    3MOL0     H  339  -0.103   9.186   2.148  4.2531  1.7134 -3.4860
    3MOL0     H  340  -0.293   9.149   2.328  0.0340 -1.2406  0.4088
    3MOL0     H  341  -0.344   9.156   2.153 -1.9775  1.4455  0.0666
    3MOL0     H  342  -0.549   9.051   2.197  1.4736 -3.0495 -1.6367
    3MOL0     H  343  -0.480   8.985   2.353  0.2926 -0.4137 -0.9864
    3MOL0     H  344  -0.456   9.255   2.407 -1.2672  2.1834 -0.5837
    3MOL0     H  345  -0.550   9.276   2.261 -4.2073  1.2403  1.9939
    3MOL0     H  346  -0.740   9.163   2.340 -0.2354  0.6991 -0.6301
    3MOL0     H  347  -0.666   9.103   2.483  0.0786  1.2069  0.1903
    3MOL0     H  348  -0.806   9.305   2.520 -0.5810  2.0970 -0.9009
    3MOL0     H  349  -0.641   9.335   2.567 -1.6054 -0.6874  2.0283
    3MOL0     H  350  -0.762   9.515   2.488 -0.5557 -2.5126  1.4169
    3MOL0     H  351  -0.612   9.498   2.395  2.9853 -4.1443 -1.7675
    3MOL0     H  352  -0.736   9.412   2.203  2.0519  0.3866 -0.0686
    3MOL0     H  353  -0.874   9.377   2.307 -0.4253  1.4052  0.7669
    3MOL0     H  354  -0.934   9.584   2.171 -2.5471  1.7557  1.1719
    3MOL0     H  355  -0.791   9.663   2.231 -1.0638 -0.4461 -1.2363
    3MOL0     H  356  -0.909   9.850   2.395  1.0254 -0.9545  0.2309
    3MOL0     H  357  -1.122   9.975   2.498 -2.6042 -0.1428 -2.2144
    3MOL0     H  358  -1.265   9.884   2.510  0.7629  4.1580 -1.7463
    3MOL0     H  359  -1.164  10.000   2.708  2.7641  0.7139 -0.5295
    3MOL0     H  360  -1.043   9.871   2.720  0.3807 -2.0184 -1.0758
    3MOL0     H  361  -1.195   9.696   2.734  1.8268  1.0652  0.6448
    3MOL0     H  362  -1.341   9.792   2.721 -0.6477  0.8354 -0.9114
    3MOL0     H  363  -1.121   9.806   2.945  0.4139  2.3754 -2.0596
    3MOL0     H  364  -1.280   9.736   2.960 -1.8783  1.2296  2.2115
    3MOL0     H  365  -1.361  10.181   2.966  0.9154 -0.9892  1.1410
    3MOL0     H  366  -1.686  10.298   3.046 -0.3071 -2.2185 -1.4173
    3MOL0     H  367  -1.528  10.350   2.971  0.7927 -0.1915  0.2430
    3MOL0     H  368  -1.679  10.315   2.878  1.9020 -0.5490 -1.4314
    3MOL0     H  369  -2.068   9.929   2.872  2.2749 -0.9844 -2.3647
    3MOL0     H  370  -2.301   9.978   2.860 -0.1239 -0.1262  1.0965
    3MOL0     H  371  -2.511  10.033   2.719 -1.1445 -0.0262 -0.8742
    3MOL0     H  372  -2.525  10.109   2.882 -2.8413  0.3301 -0.8015
    3MOL0     H  373  -2.621  10.299   2.793  0.6318 -0.4032  1.0773
    3MOL0     H  374  -2.625  10.228   2.630  2.7397 -1.1651  0.0042
    3MOL0     H  375  -2.752  10.084   2.854 -0.7211  1.1962  0.7561
    3MOL0     H  376  -2.783  10.074   2.680 -2.8069 -0.3351  0.6556
    3MOL0     H  377  -2.846  10.320   2.839  2.1502  0.2724 -1.3436
    3MOL0     H  378  -2.883  10.283   2.677 -1.6798 -2.0881  0.2309
    3MOL0     H  379  -2.980  10.079   2.894  2.5846  2.2489  2.8602
    3MOL0     H  380  -3.037  10.117   2.725  0.6699  2.0304 -0.6911
    3MOL0     H  381  -3.087  10.317   2.941 -0.2706  0.8846  0.2864
    3MOL0     H  382  -3.145  10.298   2.764  0.3085 -0.1563 -0.0889
    3MOL0     H  383  -3.221  10.112   2.995  2.0837  4.2701  2.2568
    3MOL0     H  384  -3.256  10.079   2.820 -1.5942 -0.6852  1.7038
    3MOL0     H  385  -3.457  10.176   2.935 -0.2635 -0.2676  0.1613
    3MOL0     H  386  -3.389  10.288   2.814 -1.0899 -4.3191 -2.6717
    3MOL0     H  387  -2.204  10.357   2.665  0.8915  1.0940  1.0862
    3MOL0     H  388  -1.961  10.305   2.711  0.4304 -1.2956 -1.3288
    3MOL0     H  389  -1.700   9.833   2.903 -1.6083 -0.3284  3.0934
    3MOL0     H  390  -1.483   9.770   2.920 -0.4174  1.1683 -1.0549
    3MOL0     H  391  -0.161   8.758   2.228 -1.0599 -0.0759 -1.8509
    3MOL0     H  392   0.070   8.718   2.168 -0.1281 -1.0141  0.9754
    3MOL0     H  393   0.426   8.756   1.740  0.5295  0.5621 -0.7388
    3MOL0     H  394   0.678   8.711   1.725  0.8902 -0.6292  0.8713
    3MOL0     H  395   0.873   8.655   1.749 -1.4728 -0.5389  0.3577
    3MOL0     H  396   1.011   8.690   1.862 -0.4495  2.1906 -0.0735
    3MOL0     H  397   0.766   8.560   1.949  0.1881  3.3537 -0.8631
    3MOL0     H  398   0.919   8.559   2.040  1.8100  0.8970 -0.5618
    3MOL0     H  399   0.873   8.416   1.782  0.4947  2.5748 -0.2919
    3MOL0     H  400   0.859   8.344   1.952  0.9809  0.2928  1.4809
    3MOL0     H  401   1.089   8.373   2.001 -1.0989  0.0628  1.1113
    3MOL0     H  402   1.103   8.455   1.840 -1.6163 -1.2689 -3.4609
    3MOL0     H  403   1.126   8.045   1.744 -0.4940 -1.0520 -0.5252
    3MOL0     H  404   0.722   8.897   2.104  2.3211  2.2956 -2.8403
    3MOL0     H  405   0.476   8.920   2.123 -0.4741  1.7734 -1.3536
    4MOL0     O  406   4.341   1.905   1.938  0.1939  0.4372  0.0643
    4MOL0     C  407   4.310   1.802   2.002 -0.0969  0.2845  0.6048
    4MOL0     O  408   4.182   1.760   2.032 -0.3690  0.4478  0.0465
    4MOL0     C  409   4.069   1.820   1.976 -0.0200  0.2452 -0.1144
    4MOL0     C  410   4.022   1.765   1.854  0.4788 -0.4025 -0.1517
    4MOL0     C  411   3.907   1.838   1.791  0.0788 -0.1843  0.3244
    4MOL0     C  412   3.849   1.956   1.846  0.3155 -0.5098  0.0630
    4MOL0     O  413   3.748   2.020   1.778 -0.8308  0.3434 -0.2324
    4MOL0     C  414   3.620   2.009   1.845 -0.1840 -0.1398  0.6598
    4MOL0     C  415   3.518   2.100   1.774 -0.0929 -0.1343 -1.1276
    4MOL0     C  416   3.377   2.075   1.831 -0.3414 -0.0707 -0.3274
    4MOL0     C  417   3.287   2.185   1.780  0.3439  0.3915 -1.2667
    4MOL0     C  418   3.141   2.160   1.844 -0.9315  0.4680  0.4509
    4MOL0     C  419   3.040   2.259   1.789  0.2780 -0.0242 -0.7041
    4MOL0     C  420   2.886   2.236   1.825  0.2081  0.3862  0.5794
    4MOL0     C  421   2.846   2.216   1.971  0.5842  0.1801 -0.5700
    4MOL0     N  422   2.704   2.184   1.984  0.4248  0.5175  0.4105
    4MOL0     C  423   2.640   2.178   2.110 -0.1823  0.8947 -0.4980
    4MOL0     C  424   2.515   2.175   2.079  0.3604  1.2871 -0.1432
    4MOL0     C  425   2.408   2.183   2.179 -0.6638  0.4309 -0.6230
    4MOL0     C  426   2.279   2.246   2.127 -0.0226  0.3656 -0.2912
    4MOL0     C  427   2.161   2.176   2.191 -0.1941 -0.0873 -0.7518
    4MOL0     C  428   2.037   2.221   2.115  0.6158  0.2946 -0.6651
    4MOL0     O  429   1.917   2.160   2.167  0.6387 -1.1305  0.4858
    4MOL0     C  430   1.795   2.195   2.112  0.0555 -0.2815  0.6257
    4MOL0     C  431   1.684   2.147   2.177 -0.1510 -0.9046 -0.6587
    4MOL0     C  432   1.550   2.190   2.145 -0.0349  0.7810  0.3095
    4MOL0     C  433   1.433   2.142   2.224 -0.7996 -0.3558  0.6378
    4MOL0     C  434   1.528   2.269   2.022  0.0021  0.3315 -0.1181
    4MOL0     C  435   1.398   2.292   1.956  0.5198 -0.2942  0.2200
    4MOL0     O  436   1.403   2.384   1.845  0.3119  1.2382 -0.0180
    4MOL0     C  437   1.282   2.413   1.781  0.1687  0.7051 -0.2772
    4MOL0     C  438   1.173   2.473   1.852 -0.9939 -0.4164 -0.4640
    4MOL0     C  439   1.066   2.525   1.778  0.3794 -1.1000 -0.1831
    4MOL0     C  440   1.060   2.523   1.647 -0.9607 -0.1310  0.5448
    4MOL0     O  441   0.943   2.579   1.588  0.2685 -0.2786  0.0681
    4MOL0     C  442   0.963   2.644   1.459  0.3032 -0.1524 -0.0485
    4MOL0     C  443   0.849   2.728   1.433  0.2954 -1.0254 -0.3311
    4MOL0     C  444   0.710   2.659   1.438  0.5402  0.6639 -0.4929
    4MOL0     C  445   0.619   2.692   1.324 -0.5648  0.2472 -0.8549
    4MOL0     C  446   0.487   2.617   1.326  0.0476  0.4782  0.2383
    4MOL0     C  447   0.376   2.716   1.279 -0.1808 -0.1082  0.1501
    4MOL0     C  448   0.387   2.749   1.132 -0.5018 -0.6797  0.8503
    4MOL0     C  449   0.248   2.777   1.082 -0.4258  0.5857 -0.9759
    4MOL0    Cl  450   0.146   2.619   1.090  0.0888  0.3756 -0.6176
    4MOL0     C  451   1.156   2.460   1.575  1.2299 -0.5862  0.3500
    4MOL0     C  452   1.272   2.411   1.646 -0.3499  0.2184 -0.4335
    4MOL0     O  453   1.297   2.229   1.987 -0.1514 -0.3889 -0.3380
    4MOL0     C  454   1.645   2.310   1.954  0.7713 -0.3416  0.0950
    4MOL0     C  455   1.772   2.281   2.006  0.4001  0.7925  0.5321
    4MOL0     N  456   2.499   2.170   1.944 -0.4221  0.5602  0.0304
    4MOL0     N  457   2.611   2.184   1.888  0.2613  0.1901 -0.1808
    4MOL0     C  458   3.903   2.003   1.963  0.8635  0.2815  0.3484
    4MOL0     C  459   4.010   1.940   2.037 -0.3929  0.6925  0.6183
    4MOL0     C  460   4.428   1.711   2.029  0.2711  0.5485  0.6628
    4MOL0     C  461   4.409   1.580   2.072  0.1956 -0.3367  0.2353
    4MOL0     C  462   4.514   1.501   2.114 -0.0349 -0.7300  0.0986
    4MOL0     C  463   4.646   1.540   2.107  0.2737  0.1226 -0.1005
    4MOL0     O  464   4.745   1.444   2.127  0.6583 -0.2080  0.0869
    4MOL0     C  465   4.879   1.484   2.101  0.0383 -0.2925  0.6879
    4MOL0     C  466   4.972   1.363   2.129  0.4593  0.2170 -1.2557
    4MOL0     C  467   5.120   1.402   2.096  0.1822 -0.0561 -0.2933
    4MOL0     C  468   5.222   1.289   2.120  0.4439 -0.2753  0.1786
    4MOL0     C  469   5.364   1.335   2.101 -0.0200  0.0990 -0.0555
    4MOL0     C  470   5.481   1.361   2.080  0.2287  0.4893  0.3479
    4MOL0     C  471   4.665   1.674   2.063  0.8319 -0.4302 -0.8061
    4MOL0     C  472   4.556   1.760   2.027  0.2677  1.0889  0.0715
    4MOL0     H  473   4.059   1.673   1.812 -2.7058 -0.9460 -2.0925
    4MOL0     H  474   3.860   1.788   1.707  0.3602  0.3646 -0.1637
    4MOL0     H  475   3.585   1.906   1.836  2.2636 -1.0645  0.7912
    4MOL0     H  476   3.624   2.018   1.954 -0.0911 -1.6998  0.7996
    4MOL0     H  477   3.552   2.201   1.801 -0.6033 -0.2800  0.1510
    4MOL0     H  478   3.520   2.081   1.667  0.1487 -1.3147 -0.9293
    4MOL0     H  479   3.343   1.972   1.813 -0.6919 -0.5427  2.5530
    4MOL0     H  480   3.380   2.086   1.939  0.0917 -1.2461 -0.2023
    4MOL0     H  481   3.329   2.284   1.802 -0.3012  0.3860  0.0724
    4MOL0     H  482   3.284   2.177   1.671  1.0709  1.4089 -1.3860
    4MOL0     H  483   3.116   2.059   1.810  0.8258 -0.8395  2.7186
    4MOL0     H  484   3.146   2.152   1.953  1.4600 -2.4436  0.2732
    4MOL0     H  485   3.069   2.356   1.830  1.3385 -0.2294 -0.9601
    4MOL0     H  486   3.046   2.270   1.681  0.4411 -0.0667 -0.6992
    4MOL0     H  487   2.826   2.322   1.795  0.6194  0.5975  0.3639
    4MOL0     H  488   2.843   2.161   1.757  0.1116  1.4986 -0.6276
    4MOL0     H  489   2.864   2.306   2.030 -2.9734  0.1187  0.8821
    4MOL0     H  490   2.897   2.126   2.004 -1.2644 -0.3513  1.0615
    4MOL0     H  491   2.682   2.195   2.209  1.7516  1.5183 -1.3818
    4MOL0     H  492   2.391   2.078   2.202 -0.6975  0.2532 -1.4610
    4MOL0     H  493   2.449   2.231   2.269  1.7192  1.6640 -2.2710
    4MOL0     H  494   2.275   2.226   2.020 -2.0685 -2.6381  0.1907
    4MOL0     H  495   2.273   2.355   2.135  0.9394  0.5258 -1.6335
    4MOL0     H  496   2.151   2.203   2.297  2.7177 -0.1118 -0.3899
    4MOL0     H  497   2.172   2.069   2.173  3.9105 -0.0114  0.2519
    4MOL0     H  498   2.042   2.191   2.010 -2.3979 -0.8949 -0.5779
    4MOL0     H  499   2.034   2.330   2.120  0.5248  0.2475  1.2856
    4MOL0     H  500   1.704   2.077   2.258  1.6427 -1.3385 -1.4115
    4MOL0     H  501   1.402   2.045   2.183 -1.5847  0.7214 -1.4800
    4MOL0     H  502   1.462   2.143   2.330  0.1638  0.8486  0.3869
    4MOL0     H  503   1.354   2.217   2.215  1.1014  2.0694  2.6618
    4MOL0     H  504   1.155   2.486   1.959  0.3234 -0.2619 -0.2449
    4MOL0     H  505   0.990   2.578   1.835  0.1557  0.2362 -1.6651
    4MOL0     H  506   1.058   2.697   1.466  2.5530 -4.0354  2.5789
    4MOL0     H  507   0.959   2.564   1.384 -0.3391 -1.5479  1.4088
    4MOL0     H  508   0.858   2.809   1.506  3.0731 -0.8404 -0.7522
    4MOL0     H  509   0.863   2.780   1.337 -0.5086 -2.4492 -1.2556
    4MOL0     H  510   0.670   2.692   1.535  2.6782  0.3378  0.5410
    4MOL0     H  511   0.723   2.551   1.435  0.0955  0.5203  1.3035
    4MOL0     H  512   0.594   2.798   1.334 -2.8933 -0.1087 -1.9623
    4MOL0     H  513   0.676   2.669   1.234  0.9209  0.1718  0.0824
    4MOL0     H  514   0.475   2.593   1.432  5.2879 -0.2537  0.9412
    4MOL0     H  515   0.488   2.520   1.274  2.0715  0.6434 -0.0961
    4MOL0     H  516   0.286   2.662   1.309 -1.5849  0.5133 -2.5912
    4MOL0     H  517   0.383   2.808   1.337 -1.1206  0.0773 -0.0203
    4MOL0     H  518   0.435   2.670   1.073  0.5013  1.4756 -1.4099
    4MOL0     H  519   0.451   2.837   1.116  0.1615 -0.8844  2.1722
    4MOL0     H  520   0.245   2.795   0.974 -0.5246 -3.3807 -1.7935
    4MOL0     H  521   0.195   2.852   1.140  0.6199  2.1400 -1.9628
    4MOL0     H  522   1.144   2.445   1.468  0.2071 -1.8993  0.6196
    4MOL0     H  523   1.355   2.365   1.594 -0.8113 -0.8686 -0.2263
    4MOL0     H  524   1.645   2.378   1.869 -0.1902 -0.4887 -0.0376
    4MOL0     H  525   1.863   2.320   1.962  1.2212  2.1024  3.1828
    4MOL0     H  526   3.860   2.094   2.003 -0.9878 -0.5861  0.4225
    4MOL0     H  527   4.056   1.990   2.121 -0.6294  0.7218  0.7314
    4MOL0     H  528   4.307   1.543   2.070  0.0024  0.2069 -1.5724
    4MOL0     H  529   4.495   1.397   2.140 -0.5288 -0.6940 -0.1149
    4MOL0     H  530   4.893   1.514   1.997  1.3183  1.7460  1.4077
    4MOL0     H  531   4.915   1.560   2.170  0.7867  0.7796 -0.8241
    4MOL0     H  532   4.947   1.271   2.076 -0.4538 -0.3959  0.1866
    4MOL0     H  533   4.974   1.334   2.234 -1.7484 -3.5932 -2.0887
    4MOL0     H  534   5.147   1.489   2.156 -0.9372 -0.7742  1.3439
    4MOL0     H  535   5.123   1.426   1.990  3.7033 -0.6922 -0.4368
    4MOL0     H  536   5.201   1.207   2.050  0.6303  0.2660 -0.5296
    4MOL0     H  537   5.217   1.264   2.226  3.4575  0.6682  0.6536
    4MOL0     H  538   5.584   1.386   2.063  0.3656  1.1064  1.9263
    4MOL0     H  539   4.763   1.721   2.070  0.5496  0.0791 -0.2226
    4MOL0     H  540   4.576   1.862   1.995 -0.4617  0.8978 -1.0606
    5MOL0     O  541   9.794   5.620   4.989  0.5457  0.7781 -1.0204
    5MOL0     C  542   9.811   5.727   5.054  0.9996  0.1814  0.0639
    5MOL0     O  543   9.721   5.820   5.058  0.6920 -0.2218  0.1225
    5MOL0     C  544   9.595   5.784   5.007 -0.6222 -0.3807 -0.1255
    5MOL0     C  545   9.529   5.678   5.070  0.1196 -0.5829  0.9017
    5MOL0     C  546   9.402   5.628   5.038  0.3666  0.3954 -0.0971
    5MOL0     C  547   9.335   5.704   4.939 -0.4580 -0.2542 -0.4920
    5MOL0     O  548   9.207   5.681   4.901  0.4145  0.3598 -0.0693
    5MOL0     C  549   9.168   5.541   4.910 -0.0761  0.5177  0.8428
    5MOL0     C  550   9.099   5.500   5.042 -0.3723 -0.9296 -0.8293
    5MOL0     C  551   8.946   5.498   5.020 -0.6469 -0.1384 -0.6777
    5MOL0     C  552   8.871   5.455   5.148 -0.3360  0.5448  0.1030
    5MOL0     C  553   8.724   5.450   5.133  0.4798 -0.1799  0.2375
    5MOL0     C  554   8.656   5.579   5.085  0.2698  0.6658  0.1163
    5MOL0     C  555   8.499   5.574   5.094 -0.6683  0.1872  0.8490
    5MOL0     C  556   8.451   5.474   4.984 -0.0008 -0.2048 -1.0537
    5MOL0     N  557   8.305   5.483   4.966 -0.6331  0.5250 -0.1799
    5MOL0     C  558   8.234   5.596   4.947 -0.3468 -0.1802  0.6323
    5MOL0     C  559   8.109   5.574   4.986 -0.4937  0.4945 -0.3916
    5MOL0     C  560   7.988   5.659   4.968 -0.1312  0.5754 -0.0228
    5MOL0     C  561   7.938   5.657   4.821  0.3139  0.0277  0.1998
    5MOL0     C  562   7.824   5.755   4.789 -0.4375 -0.2940 -0.2910
    5MOL0     C  563   7.751   5.709   4.668 -0.0423  0.2306  0.2182
    5MOL0     O  564   7.678   5.823   4.622 -0.0476  0.0715 -0.9718
    5MOL0     C  565   7.565   5.866   4.684 -0.4048 -0.1936 -0.1699
    5MOL0     C  566   7.500   5.800   4.796  0.4130  0.3452 -0.7472
    5MOL0     C  567   7.381   5.839   4.849 -0.4601  0.0384 -0.0197
    5MOL0     C  568   7.319   5.748   4.949  0.4082 -0.6043 -1.0425
    5MOL0     C  569   7.322   5.959   4.810  0.2051  0.0609  0.9273
    5MOL0     C  570   7.197   6.018   4.866 -0.5342  0.1094 -0.3560
    5MOL0     O  571   7.156   5.996   5.003  0.5782 -0.1337 -0.1934
    5MOL0     C  572   7.026   6.038   5.042 -0.5599 -0.2673  0.5307
    5MOL0     C  573   6.910   5.959   5.046  0.6225 -0.7630 -0.2923
    5MOL0     C  574   6.789   6.019   5.094  0.0550 -0.8460  0.8095
    5MOL0     C  575   6.789   6.159   5.131  0.3420 -0.1200  0.3379
    5MOL0     O  576   6.679   6.234   5.179 -0.2569 -0.4075  0.4798
    5MOL0     C  577   6.586   6.156   5.240 -0.0311  0.0949 -0.0084
    5MOL0     C  578   6.473   6.236   5.311  0.0490 -0.3028  0.0868
    5MOL0     C  579   6.524   6.299   5.441 -0.1824  0.3167 -0.3325
    5MOL0     C  580   6.424   6.396   5.494 -0.7300  0.3409  0.0353
    5MOL0     C  581   6.496   6.494   5.589  0.2130  0.7825 -0.3698
    5MOL0     C  582   6.406   6.610   5.648 -0.4774  0.3430 -0.3072
    5MOL0     C  583   6.492   6.697   5.746  0.2394  0.3132  0.1678
    5MOL0     C  584   6.407   6.817   5.809 -1.1606  0.4615 -0.8712
    5MOL0    Cl  585   6.273   6.747   5.912  0.1531 -0.2763 -0.4376
    5MOL0     C  586   6.904   6.231   5.112 -0.3131  0.2398  0.6934
    5MOL0     C  587   7.027   6.177   5.063  0.6561  0.2592 -0.8196
    5MOL0     O  588   7.131   6.067   4.777 -0.0770 -0.0627 -0.0553
    5MOL0     C  589   7.388   6.031   4.705  0.4786  0.0918 -0.0593
    5MOL0     C  590   7.502   5.984   4.645  0.3502 -0.1673  0.4859
    5MOL0     N  591   8.105   5.439   5.025  0.4986 -0.4091  0.4173
    5MOL0     N  592   8.225   5.392   5.018  0.4432 -0.2365  0.3924
    5MOL0     C  593   9.400   5.813   4.876  0.6655 -0.3197 -0.3342
    5MOL0     C  594   9.531   5.856   4.908 -0.5065  0.4872  0.2422
    5MOL0     C  595   9.946   5.766   5.092  0.0207 -0.6205 -0.0434
    5MOL0     C  596   9.985   5.867   5.191 -0.3320  0.1195  0.4616
    5MOL0     C  597  10.115   5.888   5.226  0.5825 -0.5188  0.0866
    5MOL0     C  598  10.217   5.832   5.153  0.3308 -0.2692 -0.3109
    5MOL0     O  599  10.350   5.875   5.167 -0.1937  0.1505 -0.5651
    5MOL0     C  600  10.403   5.894   5.298 -0.1558 -0.2319  0.4946
    5MOL0     C  601  10.548   5.876   5.281  0.1510  0.1701 -0.9184
    5MOL0     C  602  10.628   5.970   5.182 -0.1473 -0.6673  0.0794
    5MOL0     C  603  10.689   5.907   5.049  0.1496 -0.3874 -0.7817
    5MOL0     C  604  10.802   5.820   5.085  0.8740  0.4783  0.1779
    5MOL0     C  605  10.901   5.759   5.116  0.3655 -0.2662  0.5297
    5MOL0     C  606  10.182   5.753   5.048  0.2663 -0.7290 -0.5568
    5MOL0     C  607  10.054   5.713   5.016 -0.1538  0.7544 -0.3358
    5MOL0     H  608   9.581   5.646   5.159 -0.6293  1.7448  2.2401
    5MOL0     H  609   9.356   5.552   5.100 -3.3552  2.7581  0.3297
    5MOL0     H  610   9.095   5.537   4.829 -0.6253  1.7270  1.2560
    5MOL0     H  611   9.249   5.474   4.882 -0.2520  1.7905 -3.3403
    5MOL0     H  612   9.121   5.396   5.070 -0.5343 -0.7520 -0.0223
    5MOL0     H  613   9.117   5.573   5.122 -1.4775 -0.7236 -0.7485
    5MOL0     H  614   8.922   5.599   4.985  0.1444  0.2951 -0.0106
    5MOL0     H  615   8.912   5.424   4.947 -0.0314 -4.2920  2.8089
    5MOL0     H  616   8.899   5.354   5.178  0.8815  0.8321 -0.0433
    5MOL0     H  617   8.895   5.520   5.233  1.6522 -0.2171  0.1766
    5MOL0     H  618   8.698   5.366   5.068 -2.4733  1.0413 -0.3458
    5MOL0     H  619   8.682   5.418   5.228  1.4267 -0.9721  0.4053
    5MOL0     H  620   8.691   5.662   5.147  1.2396 -0.3108  0.9192
    5MOL0     H  621   8.688   5.604   4.984 -2.0473 -0.6737 -1.0455
    5MOL0     H  622   8.461   5.545   5.192  1.3914 -0.7538  1.4264
    5MOL0     H  623   8.458   5.674   5.073 -0.6075 -0.4417 -3.0647
    5MOL0     H  624   8.475   5.371   5.011 -1.4490 -0.7817 -1.8631
    5MOL0     H  625   8.491   5.492   4.884  0.4856 -3.2515 -1.5046
    5MOL0     H  626   8.272   5.686   4.900  4.0325 -1.3123  1.5708
    5MOL0     H  627   7.906   5.630   5.034  0.9130 -1.5743  0.4257
    5MOL0     H  628   8.022   5.759   4.998  5.4643 -1.4844  1.7799
    5MOL0     H  629   7.898   5.557   4.802 -1.4071  0.8205 -0.5887
    5MOL0     H  630   8.016   5.671   4.745 -2.4619 -0.3591 -2.9917
    5MOL0     H  631   7.854   5.860   4.788 -2.6784  0.4755  2.0634
    5MOL0     H  632   7.756   5.758   4.875  0.6905 -2.1637  0.7598
    5MOL0     H  633   7.688   5.627   4.702  1.4194 -0.5945  1.0492
    5MOL0     H  634   7.821   5.678   4.589 -1.0556  0.5596 -0.8345
    5MOL0     H  635   7.539   5.709   4.840 -1.0863 -0.4617 -1.0574
    5MOL0     H  636   7.214   5.770   4.971  0.3209 -3.3359  2.0755
    5MOL0     H  637   7.311   5.650   4.900  0.6559  0.2694 -2.9356
    5MOL0     H  638   7.374   5.730   5.041 -2.0489  0.3621  0.7263
    5MOL0     H  639   6.908   5.855   5.017  1.3199 -1.1289  0.9042
    5MOL0     H  640   6.705   5.954   5.118  1.8176 -2.3193  3.4020
    5MOL0     H  641   6.545   6.099   5.157  2.8838 -0.2309 -1.3632
    5MOL0     H  642   6.639   6.082   5.301  2.7210 -0.7617 -3.1075
    5MOL0     H  643   6.440   6.317   5.245 -0.2816  1.3848  2.1777
    5MOL0     H  644   6.389   6.169   5.331  1.8889 -3.0047 -0.7138
    5MOL0     H  645   6.619   6.341   5.407 -0.1648 -1.4509 -2.7541
    5MOL0     H  646   6.553   6.224   5.515  1.1639  0.6828 -0.4639
    5MOL0     H  647   6.382   6.455   5.412 -0.6500  2.8378  1.6941
    5MOL0     H  648   6.347   6.340   5.547 -0.3370 -0.3019 -0.0618
    5MOL0     H  649   6.580   6.537   5.533 -0.2325  1.5846 -0.4441
    5MOL0     H  650   6.541   6.443   5.674 -0.5024 -1.1795 -1.1208
    5MOL0     H  651   6.372   6.675   5.567 -0.3686  1.5353  0.5902
    5MOL0     H  652   6.320   6.568   5.701 -0.2344  0.3844  0.1238
    5MOL0     H  653   6.562   6.744   5.676  0.6697  2.2704  1.8399
    5MOL0     H  654   6.555   6.638   5.814  2.3223  2.3082  0.0983
    5MOL0     H  655   6.360   6.870   5.726 -3.7132 -2.4874 -1.4828
    5MOL0     H  656   6.479   6.874   5.868  0.1093 -2.1114  0.2447
    5MOL0     H  657   6.911   6.338   5.131 -0.2667  0.6469 -1.3276
    5MOL0     H  658   7.109   6.246   5.054  0.8502  0.2030  0.3965
    5MOL0     H  659   7.338   6.120   4.669 -0.0073 -0.8624 -1.9016
    5MOL0     H  660   7.557   6.035   4.566  1.3650 -0.1654  1.1714
    5MOL0     H  661   9.348   5.868   4.797  1.2379  2.3776  1.0295
    5MOL0     H  662   9.582   5.939   4.860  1.4357 -0.2892  0.8546
    5MOL0     H  663   9.904   5.923   5.238 -0.3157 -0.3353  1.0445
    5MOL0     H  664  10.151   5.953   5.305  0.9846 -0.7612  0.1029
    5MOL0     H  665  10.378   5.997   5.326  3.4156  1.2635 -1.0840
    5MOL0     H  666  10.355   5.828   5.370 -0.6622 -1.2504 -0.7252
    5MOL0     H  667  10.564   5.770   5.258 -0.5148 -0.2745  0.5920
    5MOL0     H  668  10.589   5.894   5.381  0.1101 -0.7143 -0.7407
    5MOL0     H  669  10.706   6.013   5.246 -1.3742 -0.5977  1.5854
    5MOL0     H  670  10.560   6.050   5.151  1.1554  0.6620  0.5415
    5MOL0     H  671  10.729   5.982   4.979 -2.6127  3.6785  1.5454
    5MOL0     H  672  10.607   5.846   5.011 -1.0333  1.4705 -1.3880
    5MOL0     H  673  10.983   5.703   5.157  0.1370  0.2378  1.7274
    5MOL0     H  674  10.258   5.713   4.981  0.1109  2.7308 -3.0917
    5MOL0     H  675  10.031   5.632   4.948  2.6202  1.4550 -2.2613
    6MOL0     O  676   2.724   1.897   4.378 -0.3655  0.2828  1.1513
    6MOL0     C  677   2.814   1.811   4.354 -0.0085  0.4653 -0.0262
    6MOL0     O  678   2.798   1.677   4.342  0.3967 -0.7335 -0.6680
    6MOL0     C  679   2.664   1.636   4.321  1.2226  0.9267  0.8276
    6MOL0     C  680   2.616   1.529   4.402 -0.1816  0.3531 -0.3863
    6MOL0     C  681   2.482   1.491   4.386 -0.0314 -0.4886 -0.3627
    6MOL0     C  682   2.396   1.544   4.287 -0.4801 -1.4966 -0.8501
    6MOL0     O  683   2.264   1.510   4.284  0.6005 -0.1109 -0.1089
    6MOL0     C  684   2.203   1.489   4.151 -0.9231 -0.0341 -0.0832
    6MOL0     C  685   2.082   1.590   4.139 -0.4537 -0.0116  0.0426
    6MOL0     C  686   1.974   1.547   4.033 -0.4552 -0.5857 -0.6997
    6MOL0     C  687   1.881   1.445   4.102 -0.3862  0.0453 -0.1675
    6MOL0     C  688   1.768   1.405   4.007 -0.4147  0.2049 -0.5541
    6MOL0     C  689   1.703   1.286   4.064 -0.5289 -0.0759 -0.2594
    6MOL0     C  690   1.600   1.229   3.965 -0.4507  0.2268  0.5408
    6MOL0     C  691   1.527   1.122   4.048 -1.1375 -0.2519 -0.0908
    6MOL0     N  692   1.416   1.077   3.970 -0.0766  0.0214  0.5086
    6MOL0     C  693   1.287   1.133   3.977  0.2934  0.1284 -0.4754
    6MOL0     C  694   1.207   1.049   3.907 -0.0369  0.6467 -0.3048
    6MOL0     C  695   1.064   1.070   3.885  0.1079  0.3518  0.8473
    6MOL0     C  696   1.020   1.078   3.737  0.1561  0.2260 -0.2535
    6MOL0     C  697   0.868   1.071   3.730  0.1828  0.7104 -0.2050
    6MOL0     C  698   0.799   0.947   3.792 -0.9179 -0.7628 -0.1286
    6MOL0     O  699   0.862   0.828   3.742 -0.0939  0.1809  0.5391
    6MOL0     C  700   0.785   0.767   3.655 -0.8519 -0.4607 -0.0917
    6MOL0     C  701   0.818   0.773   3.518 -0.1831 -0.0951 -0.5392
    6MOL0     C  702   0.746   0.705   3.421 -0.4625 -0.5084 -0.5891
    6MOL0     C  703   0.805   0.703   3.278 -0.1475  0.1884  0.4945
    6MOL0     C  704   0.632   0.638   3.455 -0.3874  0.3613 -0.0103
    6MOL0     C  705   0.529   0.568   3.368 -0.0776 -0.3337  0.4368
    6MOL0     O  706   0.426   0.514   3.437 -0.1112  0.7491 -0.1479
    6MOL0     C  707   0.314   0.454   3.381 -0.7058 -0.3964 -0.4078
    6MOL0     C  708   0.275   0.442   3.243 -0.2344 -0.8903  0.1279
    6MOL0     C  709   0.139   0.413   3.208 -0.0559  0.5316 -0.6254
    6MOL0     C  710   0.048   0.381   3.308  0.3698 -0.0745  0.0608
    6MOL0     O  711  -0.083   0.349   3.284  0.0336  0.0380  0.4134
    6MOL0     C  712  -0.108   0.258   3.181  0.8217 -0.7664 -0.5576
    6MOL0     C  713  -0.238   0.180   3.187 -0.1657 -0.4577  0.3438
    6MOL0     C  714  -0.340   0.252   3.092 -0.3312  0.5033  0.5559
    6MOL0     C  715  -0.464   0.172   3.054 -0.3090 -0.3846 -0.7724
    6MOL0     C  716  -0.557   0.248   2.959 -0.2307 -0.4327  0.2071
    6MOL0     C  717  -0.688   0.176   2.939 -0.0362  0.4653  0.1756
    6MOL0     C  718  -0.800   0.269   2.869  0.3279  0.5702 -1.1368
    6MOL0     C  719  -0.927   0.187   2.832 -0.6491 -0.4358  0.2247
    6MOL0    Cl  720  -1.044   0.304   2.797  0.0992  0.1692 -0.1904
    6MOL0     C  721   0.090   0.378   3.437  1.1880  0.2560 -0.2207
    6MOL0     C  722   0.221   0.415   3.476 -1.1845 -0.7664  0.3277
    6MOL0     O  723   0.542   0.566   3.243  0.7919  0.0730 -0.5650
    6MOL0     C  724   0.594   0.635   3.596 -0.5588  0.7581  0.2230
    6MOL0     C  725   0.669   0.701   3.693 -0.7358  0.5046 -0.1530
    6MOL0     N  726   1.288   0.946   3.862  0.3561  0.4008  0.0803
    6MOL0     N  727   1.406   0.958   3.903  0.3182  0.2745  0.5900
    6MOL0     C  728   2.443   1.643   4.208 -0.3672  1.2077  0.2939
    6MOL0     C  729   2.572   1.688   4.223  0.2325  0.3763 -0.5267
    6MOL0     C  730   2.948   1.863   4.372 -0.5801 -0.8157 -0.1719
    6MOL0     C  731   2.974   2.001   4.392  0.2413  0.7789 -0.0104
    6MOL0     C  732   3.103   2.050   4.413  0.0821 -0.3094 -0.0455
    6MOL0     C  733   3.221   1.962   4.402  0.0477 -1.0725 -0.1115
    6MOL0     O  734   3.342   2.028   4.425  0.1491 -0.4440  1.0010
    6MOL0     C  735   3.459   1.963   4.467  0.0458 -0.6000  0.4346
    6MOL0     C  736   3.561   1.951   4.361 -0.3172  0.7110  0.4655
    6MOL0     C  737   3.609   2.090   4.313 -0.0073 -0.0234  0.3615
    6MOL0     C  738   3.686   2.085   4.181 -0.2282 -0.4373  0.0279
    6MOL0     C  739   3.772   1.969   4.180  0.7826  0.3858  1.1932
    6MOL0     C  740   3.855   1.886   4.197 -0.1456  0.1377 -0.2015
    6MOL0     C  741   3.192   1.831   4.376  0.4212 -0.4044  0.2960
    6MOL0     C  742   3.066   1.777   4.369 -0.4407 -0.5062  0.2537
    6MOL0     H  743   2.677   1.490   4.483 -1.1457 -0.6541 -0.1168
    6MOL0     H  744   2.427   1.411   4.435 -1.0820  1.0014  0.9978
    6MOL0     H  745   2.278   1.494   4.072  0.7646 -1.5004  1.3095
    6MOL0     H  746   2.150   1.394   4.140 -0.6237 -0.4056  1.4342
    6MOL0     H  747   2.035   1.589   4.238  0.2527 -1.0141  0.3913
    6MOL0     H  748   2.123   1.688   4.114  0.6403 -0.8709 -1.7384
    6MOL0     H  749   1.910   1.633   4.010 -1.7073 -1.5906 -1.1258
    6MOL0     H  750   2.014   1.498   3.943 -3.2243 -2.8342 -0.8818
    6MOL0     H  751   1.933   1.357   4.141 -2.1726 -0.9751 -0.0072
    6MOL0     H  752   1.838   1.499   4.188  1.1828 -0.5998  1.0808
    6MOL0     H  753   1.704   1.493   4.000  0.0942  0.7732  1.4055
    6MOL0     H  754   1.814   1.384   3.910  0.5956 -2.2930  0.3967
    6MOL0     H  755   1.779   1.213   4.091 -0.9492  0.7380  3.8751
    6MOL0     H  756   1.655   1.316   4.159  2.6756  1.1380  1.1110
    6MOL0     H  757   1.528   1.305   3.934  2.1770  3.3313  1.4368
    6MOL0     H  758   1.642   1.182   3.875 -1.0092  2.7009 -1.1129
    6MOL0     H  759   1.489   1.153   4.146 -1.6823  1.8805 -0.9188
    6MOL0     H  760   1.599   1.042   4.069 -1.0783 -0.1618  0.0519
    6MOL0     H  761   1.255   1.217   4.038 -0.2434  0.0590 -0.6495
    6MOL0     H  762   1.011   0.990   3.938 -1.4262  1.4299  0.9834
    6MOL0     H  763   1.049   1.164   3.939  1.3449  0.6524  0.7084
    6MOL0     H  764   1.063   0.990   3.687  1.5966  0.6232  0.2495
    6MOL0     H  765   1.057   1.165   3.682  0.7763 -0.2814 -0.6559
    6MOL0     H  766   0.848   1.078   3.623 -1.3851 -0.8810 -0.0563
    6MOL0     H  767   0.826   1.164   3.771 -2.7248  1.7503 -4.7702
    6MOL0     H  768   0.690   0.946   3.775 -1.1248  0.5925  1.0102
    6MOL0     H  769   0.807   0.939   3.901  1.2293 -2.4030 -0.3467
    6MOL0     H  770   0.914   0.817   3.491 -1.0528  1.0063 -1.9788
    6MOL0     H  771   0.904   0.750   3.281  0.6337 -1.3148  3.8229
    6MOL0     H  772   0.819   0.597   3.256  0.1869  0.6247 -1.5407
    6MOL0     H  773   0.730   0.741   3.209  1.7093 -1.1819 -2.4696
    6MOL0     H  774   0.327   0.496   3.165 -0.0673 -1.9909 -0.5528
    6MOL0     H  775   0.123   0.407   3.101  4.8844 -1.7534 -1.5049
    6MOL0     H  776  -0.098   0.316   3.089  0.3513  1.7258  0.8549
    6MOL0     H  777  -0.029   0.182   3.187  0.6320 -0.8739  1.2620
    6MOL0     H  778  -0.219   0.087   3.133 -2.4744  0.3290 -2.0611
    6MOL0     H  779  -0.261   0.167   3.293 -2.4362 -0.5378 -0.0957
    6MOL0     H  780  -0.290   0.276   2.998 -1.1038 -2.4814 -0.7369
    6MOL0     H  781  -0.375   0.340   3.146 -0.1660  0.6921  0.3565
    6MOL0     H  782  -0.435   0.078   3.006  2.5097  1.0480 -2.0753
    6MOL0     H  783  -0.524   0.147   3.142  1.4423  1.4551  1.0279
    6MOL0     H  784  -0.510   0.267   2.861 -1.4997  1.0988 -0.1440
    6MOL0     H  785  -0.587   0.343   3.005 -0.7468 -0.2066 -0.5710
    6MOL0     H  786  -0.687   0.085   2.878 -0.0093  0.6782 -0.1487
    6MOL0     H  787  -0.724   0.145   3.037  2.1106 -0.6340  0.6701
    6MOL0     H  788  -0.755   0.324   2.786  0.4716  1.1578 -0.6751
    6MOL0     H  789  -0.833   0.335   2.949  0.3705 -2.3842  1.5308
    6MOL0     H  790  -0.958   0.133   2.921  1.7155  1.2976  2.2281
    6MOL0     H  791  -0.913   0.131   2.739 -1.8675  1.2849 -1.0753
    6MOL0     H  792   0.025   0.347   3.518 -2.2361  0.9486 -2.4960
    6MOL0     H  793   0.239   0.433   3.581 -0.1561  1.6913 -0.2032
    6MOL0     H  794   0.505   0.586   3.632 -2.0744  3.3797  0.2963
    6MOL0     H  795   0.644   0.689   3.798 -3.1138 -1.1002 -0.8241
    6MOL0     H  796   2.375   1.684   4.133 -1.1090 -1.4410 -0.5933
    6MOL0     H  797   2.610   1.767   4.159 -0.5550  0.6377 -0.6778
    6MOL0     H  798   2.884   2.061   4.394 -1.3175 -1.3754 -1.3544
    6MOL0     H  799   3.117   2.154   4.438 -1.6680 -0.4440  1.7501
    6MOL0     H  800   3.497   2.017   4.554 -0.0673  0.4274 -0.1402
    6MOL0     H  801   3.432   1.862   4.499 -0.2092 -0.9286 -0.7777
    6MOL0     H  802   3.531   1.884   4.280  3.5093 -1.8372  0.8879
    6MOL0     H  803   3.647   1.903   4.410 -0.7986 -0.9985 -0.3107
    6MOL0     H  804   3.673   2.139   4.386  1.7188  1.3878 -1.9487
    6MOL0     H  805   3.527   2.160   4.300 -0.0704  0.3682  2.5034
    6MOL0     H  806   3.750   2.173   4.183 -1.8003  0.7489  0.7817
    6MOL0     H  807   3.621   2.081   4.093 -1.1132  3.2746  0.3533
    6MOL0     H  808   3.932   1.814   4.217  0.3102  0.6842  0.0348
    6MOL0     H  809   3.277   1.763   4.368  0.3107 -0.6942  1.3661
    6MOL0     H  810   3.059   1.670   4.354 -1.0483 -0.3881 -0.3876
    7MOL0     O  811   6.414  10.192   5.238  0.5140  0.0253 -0.4753
    7MOL0     C  812   6.442  10.245   5.130 -0.8157  0.3800  0.4269
    7MOL0     O  813   6.349  10.293   5.046  0.4591  0.9203  0.4301
    7MOL0     C  814   6.212  10.277   5.076  0.1645 -0.1748 -0.2757
    7MOL0     C  815   6.139  10.182   5.007  0.8231  0.0022 -0.2540
    7MOL0     C  816   6.005  10.161   5.044  0.4480  0.2738  0.1729
    7MOL0     C  817   5.940  10.237   5.138  0.0133  0.7894 -0.0982
    7MOL0     O  818   5.809  10.213   5.172  0.4969  0.6422  0.0113
    7MOL0     C  819   5.757  10.081   5.180  0.5854 -0.2086 -0.6363
    7MOL0     C  820   5.685  10.056   5.312  0.2628 -0.1117  0.3863
    7MOL0     C  821   5.561  10.148   5.324  0.1170 -0.4659  0.0866
    7MOL0     C  822   5.480  10.115   5.446  0.5817 -0.3872  0.4686
    7MOL0     C  823   5.377  10.220   5.491 -0.0317  0.1010  0.3284
    7MOL0     C  824   5.250  10.212   5.406  0.8122  0.0385 -0.0913
    7MOL0     C  825   5.117  10.259   5.472 -0.6041 -0.3464 -0.5561
    7MOL0     C  826   4.994  10.258   5.372 -0.5355  0.1670 -1.0844
    7MOL0     N  827   4.870  10.215   5.433  0.2730 -0.7759  0.0833
    7MOL0     C  828   4.758  10.289   5.434 -0.0034 -0.0897 -1.2086
    7MOL0     C  829   4.672  10.204   5.507  0.8595 -1.3331 -0.3370
    7MOL0     C  830   4.534  10.237   5.561 -0.0198  0.7727 -0.6132
    7MOL0     C  831   4.437  10.118   5.531  0.7775 -0.0383 -0.4556
    7MOL0     C  832   4.294  10.165   5.540  0.1557 -0.8049  0.0215
    7MOL0     C  833   4.193  10.051   5.567 -0.2488 -0.6397 -0.9248
    7MOL0     O  834   4.174   9.964   5.452 -0.9282  0.5554 -0.5148
    7MOL0     C  835   4.109  10.021   5.350  1.3747 -0.4193 -0.6382
    7MOL0     C  836   4.172  10.004   5.232  0.7767  0.0995 -0.8901
    7MOL0     C  837   4.110  10.040   5.111  0.3543  0.4482  1.0324
    7MOL0     C  838   4.191  10.033   4.991 -0.2491  1.0297 -0.2274
    7MOL0     C  839   3.977  10.096   5.118  0.5725 -0.3584 -0.9478
    7MOL0     C  840   3.898  10.123   4.996  0.7335  0.7619 -1.4518
    7MOL0     O  841   3.767  10.167   5.013 -0.0737 -0.0047 -0.8327
    7MOL0     C  842   3.677  10.188   4.908  0.7716  0.2263  0.1298
    7MOL0     C  843   3.675  10.098   4.795 -0.0776  0.3218  0.2468
    7MOL0     C  844   3.571  10.127   4.706 -0.2524 -1.4115  0.2349
    7MOL0     C  845   3.472  10.228   4.724 -0.6559  0.2151 -0.3807
    7MOL0     O  846   3.370  10.256   4.636  0.8992  0.4475  0.0448
    7MOL0     C  847   3.402  10.227   4.499  0.3858 -0.7281  0.0242
    7MOL0     C  848   3.303  10.312   4.414 -0.4902  0.3048 -0.8420
    7MOL0     C  849   3.338  10.281   4.271 -0.2278  0.2309  0.6077
    7MOL0     C  850   3.231  10.328   4.175 -0.5525  0.8972  0.0500
    7MOL0     C  851   3.281  10.345   4.031  0.2008  0.1626  0.9520
    7MOL0     C  852   3.319  10.222   3.950 -0.1145  0.2331  0.5966
    7MOL0     C  853   3.368  10.253   3.809 -1.0230  0.3883  0.1498
    7MOL0     C  854   3.459  10.135   3.768 -0.5896 -0.4100 -0.8699
    7MOL0    Cl  855   3.351   9.991   3.752 -0.0625 -0.0644  0.3538
    7MOL0     C  856   3.479  10.307   4.836  0.8899  0.4379  0.0473
    7MOL0     C  857   3.582  10.292   4.925 -0.3009  0.6651  0.7152
    7MOL0     O  858   3.949  10.114   4.887 -0.2424 -0.3500  0.1440
    7MOL0     C  859   3.921  10.123   5.241 -0.2302 -0.1274 -0.3891
    7MOL0     C  860   3.982  10.090   5.364 -0.1456  0.3053 -0.3346
    7MOL0     N  861   4.744  10.094   5.539 -0.0954  0.6519  0.1552
    7MOL0     N  862   4.867  10.103   5.495  0.9727 -0.0785  0.2895
    7MOL0     C  863   6.011  10.325   5.214 -0.5381 -0.0993 -1.3197
    7MOL0     C  864   6.147  10.356   5.181 -0.7688 -0.3112  0.2296
    7MOL0     C  865   6.582  10.278   5.094 -0.2184 -0.1420 -0.0823
    7MOL0     C  866   6.616  10.396   5.025  0.2793  0.2662  0.0251
    7MOL0     C  867   6.751  10.419   5.000  0.3070 -0.0342  0.5599
    7MOL0     C  868   6.852  10.334   5.042 -0.2542 -0.2431 -0.1889
    7MOL0     O  869   6.981  10.374   5.015 -0.4630 -0.4928 -0.2143
    7MOL0     C  870   7.056  10.435   5.124  0.0008 -0.1571  0.7239
    7MOL0     C  871   7.068  10.368   5.256  1.0561 -0.1680  0.1591
    7MOL0     C  872   7.182  10.262   5.270  1.1439  0.1054  0.1559
    7MOL0     C  873   7.314  10.346   5.283  0.5036  0.2955  0.1344
    7MOL0     C  874   7.432  10.272   5.324  0.4156 -0.9976 -0.1393
    7MOL0     C  875   7.537  10.211   5.342 -0.1289  0.0249  0.2844
    7MOL0     C  876   6.823  10.214   5.104 -0.6060 -0.3174 -1.2824
    7MOL0     C  877   6.683  10.190   5.130  0.2288 -1.1038  0.0390
    7MOL0     H  878   6.192  10.127   4.929  0.9705 -0.8856  0.4617
    7MOL0     H  879   5.954  10.106   4.965  0.1868  2.1838 -1.0587
    7MOL0     H  880   5.690  10.082   5.093  0.5563  3.1745 -0.6895
    7MOL0     H  881   5.830  10.000   5.169  2.4642  1.0437  1.7145
    7MOL0     H  882   5.649   9.954   5.327 -0.5676  0.1910  0.5207
    7MOL0     H  883   5.752  10.076   5.395  0.6664  1.6235 -0.3038
    7MOL0     H  884   5.612  10.243   5.336  1.9434 -1.6706  2.8358
    7MOL0     H  885   5.492  10.140   5.240 -0.5053 -1.1871  0.6479
    7MOL0     H  886   5.424  10.024   5.422  1.6390 -0.4218 -2.1012
    7MOL0     H  887   5.550  10.094   5.527  1.1832  0.7209  0.2532
    7MOL0     H  888   5.349  10.194   5.594 -0.9202  0.2555  0.1337
    7MOL0     H  889   5.408  10.324   5.490 -0.6093  0.2728  0.0500
    7MOL0     H  890   5.268  10.271   5.315 -2.3515 -1.3608 -1.8185
    7MOL0     H  891   5.233  10.108   5.374 -0.1693  0.0230  0.4371
    7MOL0     H  892   5.114  10.218   5.573 -1.1221  3.7584  1.3340
    7MOL0     H  893   5.130  10.365   5.496  0.7105 -0.7970  0.8017
    7MOL0     H  894   5.020  10.193   5.288  0.9703 -1.8704  0.8292
    7MOL0     H  895   4.975  10.361   5.342 -1.8906 -0.4087 -2.3703
    7MOL0     H  896   4.741  10.395   5.417  0.1328  0.5187  1.9905
    7MOL0     H  897   4.544  10.241   5.670  0.8381 -0.3972 -0.6292
    7MOL0     H  898   4.502  10.336   5.527 -0.1256  1.6520  1.8879
    7MOL0     H  899   4.457  10.040   5.605 -0.9822  1.7348  2.0750
    7MOL0     H  900   4.463  10.084   5.431 -0.1366  1.0291 -1.0874
    7MOL0     H  901   4.263  10.220   5.451  2.3948 -0.7239 -0.7564
    7MOL0     H  902   4.288  10.236   5.623  2.2430  0.4028 -0.7824
    7MOL0     H  903   4.099  10.100   5.595 -0.5249  0.1654 -3.1291
    7MOL0     H  904   4.228  10.001   5.658  2.2354  0.2645 -1.3109
    7MOL0     H  905   4.273   9.964   5.231  2.1265  3.2342 -1.9068
    7MOL0     H  906   4.207  10.139   4.965 -2.9821  1.5056 -0.2247
    7MOL0     H  907   4.285   9.979   5.007 -0.6365  0.8502  1.7080
    7MOL0     H  908   4.152   9.975   4.907  2.7228  0.4246 -1.3358
    7MOL0     H  909   3.753  10.024   4.782 -0.3674  0.1464 -0.5167
    7MOL0     H  910   3.578  10.075   4.611  3.2747  0.2230 -0.5889
    7MOL0     H  911   3.503  10.266   4.489 -0.6788  2.2379 -0.1132
    7MOL0     H  912   3.387  10.122   4.474  0.6275 -0.7793  0.0970
    7MOL0     H  913   3.206  10.268   4.439  0.3955 -0.9040  0.6729
    7MOL0     H  914   3.302  10.417   4.443 -2.4338 -0.3608  1.8967
    7MOL0     H  915   3.355  10.173   4.263  1.5805  0.6097 -1.5422
    7MOL0     H  916   3.439  10.318   4.254  0.3639 -1.5372 -0.0335
    7MOL0     H  917   3.140  10.270   4.162  0.7773 -1.1470 -0.6896
    7MOL0     H  918   3.194  10.424   4.212  0.2847  1.5087 -0.6518
    7MOL0     H  919   3.364  10.416   4.035  1.0604 -0.8371  1.0190
    7MOL0     H  920   3.198  10.398   3.982  0.9841 -0.3936 -1.0708
    7MOL0     H  921   3.398  10.167   4.001  0.6491 -0.1294 -0.8992
    7MOL0     H  922   3.231  10.159   3.939  0.6238 -0.9841  1.4380
    7MOL0     H  923   3.419  10.349   3.796  1.2381 -0.3810  2.5259
    7MOL0     H  924   3.280  10.264   3.744 -0.4020  0.7555 -0.6566
    7MOL0     H  925   3.543  10.113   3.836  1.9999 -2.6220 -4.4132
    7MOL0     H  926   3.512  10.154   3.675  1.3049 -2.6098 -0.3327
    7MOL0     H  927   3.405  10.386   4.847 -0.3467 -0.4725 -1.4265
    7MOL0     H  928   3.599  10.345   5.019  2.1693 -1.3862  1.5291
    7MOL0     H  929   3.822  10.167   5.247  0.0846  0.4714  1.0200
    7MOL0     H  930   3.933  10.108   5.459 -2.0500  1.0661 -1.3981
    7MOL0     H  931   5.959  10.380   5.292  0.7047 -1.9067  0.9015
    7MOL0     H  932   6.203  10.433   5.233  0.9840  0.3715 -2.4893
    7MOL0     H  933   6.542  10.471   4.998 -0.6898 -0.6900 -0.0610
    7MOL0     H  934   6.783  10.509   4.949 -0.0801 -0.5389 -0.6158
    7MOL0     H  935   7.159  10.444   5.086 -0.8585  1.5336 -1.4226
    7MOL0     H  936   7.012  10.535   5.134 -1.2834 -0.5734 -0.4466
    7MOL0     H  937   6.976  10.330   5.301 -0.7358  0.7895 -2.4210
    7MOL0     H  938   7.089  10.446   5.329 -0.1816 -2.9324  3.7336
    7MOL0     H  939   7.187  10.206   5.177  0.3824 -0.6768  0.5647
    7MOL0     H  940   7.160  10.199   5.357 -0.6496  1.7643  0.9719
    7MOL0     H  941   7.297  10.417   5.364  1.2799  1.0477 -0.3344
    7MOL0     H  942   7.338  10.409   5.197  0.8737  1.4327  1.0404
    7MOL0     H  943   7.639  10.181   5.355  0.7789  1.3452 -2.8184
    7MOL0     H  944   6.901  10.144   5.133 -0.5638 -1.1396 -3.2712
    7MOL0     H  945   6.659  10.104   5.191 -0.9985  0.1475  1.4186
    8MOL0     O  946   3.631   1.236   9.307  0.0001 -0.8174  0.2731
    8MOL0     C  947   3.727   1.160   9.326 -0.0637  0.3697 -0.1975
    8MOL0     O  948   3.721   1.032   9.337  0.7655  0.3157 -0.4384
    8MOL0     C  949   3.591   0.976   9.352 -0.3414  0.8929  0.5280
    8MOL0     C  950   3.505   0.962   9.242  0.2360  0.8052  0.4419
    8MOL0     C  951   3.368   0.933   9.260 -0.1312  0.0140  0.2153
    8MOL0     C  952   3.315   0.918   9.386 -0.1789 -0.6365  0.3676
    8MOL0     O  953   3.182   0.911   9.407 -0.8959  0.6112 -0.6389
    8MOL0     C  954   3.146   0.885   9.542 -0.3350  0.1349  0.5157
    8MOL0     C  955   2.996   0.869   9.559 -0.0279 -0.7222 -0.1453
    8MOL0     C  956   2.928   0.992   9.621  0.3946 -0.4466  0.4472
    8MOL0     C  957   2.917   1.097   9.512 -0.0852  0.4603 -0.2865
    8MOL0     C  958   2.869   1.222   9.578  0.2629 -0.1293 -0.2421
    8MOL0     C  959   2.724   1.225   9.623  0.0436  0.4819 -0.1909
    8MOL0     C  960   2.666   1.363   9.671 -0.0829 -0.7640  0.0013
    8MOL0     C  961   2.585   1.358   9.795  0.5001  0.3716  0.4761
    8MOL0     N  962   2.665   1.372   9.918 -0.3012 -0.0174 -0.3238
    8MOL0     C  963   2.786   1.304   9.959  0.0759 -0.1513  0.2064
    8MOL0     C  964   2.831   1.375  10.064 -0.8156  0.2126 -0.1739
    8MOL0     C  965   2.959   1.341  10.127  0.1380  0.3091  0.0747
    8MOL0     C  966   3.089   1.426  10.104  0.3972 -0.0003 -0.0922
    8MOL0     C  967   3.061   1.570  10.123 -0.5064  0.3380  0.0823
    8MOL0     C  968   3.012   1.601  10.264  0.0846  0.5933  0.4619
    8MOL0     O  969   3.076   1.562  10.383 -0.0004 -0.3042  0.0632
    8MOL0     C  970   3.187   1.622  10.427  0.1334 -0.6778 -0.6023
    8MOL0     C  971   3.230   1.585  10.553 -0.0980 -0.1922 -0.5740
    8MOL0     C  972   3.326   1.654  10.622 -0.4214 -0.2704 -0.2337
    8MOL0     C  973   3.350   1.605  10.760 -0.3835  0.2795 -0.1148
    8MOL0     C  974   3.398   1.751  10.555 -1.1415 -0.2564 -0.8182
    8MOL0     C  975   3.511   1.832  10.625  0.4007  0.1070 -0.1426
    8MOL0     O  976   3.535   1.970  10.604  0.6404 -0.5516  0.8106
    8MOL0     C  977   3.635   2.019  10.679 -0.4609  0.0757  0.2890
    8MOL0     C  978   3.737   2.089  10.614 -0.1044  0.0935  0.1568
    8MOL0     C  979   3.846   2.146  10.681  1.1981 -0.1109 -0.1937
    8MOL0     C  980   3.851   2.131  10.821  0.5771  0.1760 -0.4494
    8MOL0     O  981   3.951   2.184  10.899  0.6786  0.4723  0.6362
    8MOL0     C  982   4.081   2.214  10.839  0.0100 -0.0174 -1.1985
    8MOL0     C  983   4.184   2.221  10.939 -0.3525 -0.3505 -0.1556
    8MOL0     C  984   4.324   2.227  10.876 -0.2100  0.6319  0.5627
    8MOL0     C  985   4.440   2.246  10.985 -1.1647 -0.3006  0.0892
    8MOL0     C  986   4.578   2.246  10.916 -0.1376  0.5286 -0.2534
    8MOL0     C  987   4.680   2.245  11.033  0.2890 -0.1142  0.8844
    8MOL0     C  988   4.823   2.267  11.009 -0.8045  0.1695 -0.4508
    8MOL0     C  989   4.882   2.175  10.915 -0.3644  0.2195  0.4714
    8MOL0    Cl  990   4.864   1.998  10.940  0.1837 -0.1786 -0.2924
    8MOL0     C  991   3.740   2.072  10.886  0.2099 -0.3831 -0.3552
    8MOL0     C  992   3.629   2.025  10.820  0.6371 -0.2643  0.0636
    8MOL0     O  993   3.576   1.760  10.708 -0.3367 -0.0063  0.6214
    8MOL0     C  994   3.357   1.796  10.434 -0.4304  0.3995  0.1242
    8MOL0     C  995   3.254   1.731  10.367  0.5893  0.4974  0.5443
    8MOL0     N  996   2.725   1.458  10.103 -0.1489  0.9313 -0.2081
    8MOL0     N  997   2.621   1.449  10.020 -0.5994 -0.4162 -0.8958
    8MOL0     C  998   3.409   0.912   9.494 -0.5757 -1.0667 -0.8979
    8MOL0     C  999   3.543   0.949   9.476  0.2431  0.0853  0.0364
    8MOL0     C 1000   3.855   1.214   9.337  0.2934  0.2097  0.0172
    8MOL0     C 1001   3.877   1.351   9.359  0.5596  0.6347 -0.0345
    8MOL0     C 1002   4.003   1.402   9.367 -0.3282 -1.1622  0.3333
    8MOL0     C 1003   4.112   1.332   9.338  0.0262 -0.8541  0.1949
    8MOL0     O 1004   4.224   1.400   9.336 -0.0415 -0.2256 -0.2421
    8MOL0     C 1005   4.332   1.355   9.254  0.6480 -0.0235  0.3786
    8MOL0     C 1006   4.442   1.467   9.259 -0.0140 -0.2682 -0.1823
    8MOL0     C 1007   4.577   1.418   9.187 -0.4135  0.4646  0.1064
    8MOL0     C 1008   4.667   1.537   9.171  0.2700 -0.2487  0.5228
    8MOL0     C 1009   4.795   1.504   9.114 -0.4465 -0.4635 -0.1752
    8MOL0     C 1010   4.896   1.464   9.054 -0.5655  0.1599 -0.0443
    8MOL0     C 1011   4.102   1.193   9.318  0.5135 -0.2860  0.2791
    8MOL0     C 1012   3.974   1.136   9.319 -0.3027 -0.0816  0.1415
    8MOL0     H 1013   3.550   0.976   9.144 -2.9436  1.1960 -1.0981
    8MOL0     H 1014   3.294   0.919   9.182 -1.4379  1.8192  1.0749
    8MOL0     H 1015   3.192   0.793   9.579 -0.6058 -1.1576 -2.1069
    8MOL0     H 1016   3.180   0.973   9.597  0.6379  0.1994 -0.1756
    8MOL0     H 1017   2.948   0.850   9.463  2.6827 -1.7329 -1.4080
    8MOL0     H 1018   2.985   0.777   9.619  2.8850  0.2119  2.0718
    8MOL0     H 1019   2.826   0.962   9.647  1.0448  0.0377  4.0705
    8MOL0     H 1020   2.988   1.028   9.704  1.8401 -0.7395 -0.4282
    8MOL0     H 1021   3.020   1.117   9.482  0.8203 -1.2697  1.4437
    8MOL0     H 1022   2.860   1.080   9.420 -0.8079  0.9132  0.0701
    8MOL0     H 1023   2.930   1.242   9.666  0.4768  0.0504 -0.4315
    8MOL0     H 1024   2.879   1.312   9.517  3.6538  0.8410  1.5012
    8MOL0     H 1025   2.661   1.192   9.540 -1.3612  1.0090  0.6371
    8MOL0     H 1026   2.714   1.152   9.704 -0.0184  1.1078  0.3707
    8MOL0     H 1027   2.751   1.433   9.673 -0.7737  0.1079  2.5213
    8MOL0     H 1028   2.596   1.396   9.594  0.9843 -1.3101 -1.2446
    8MOL0     H 1029   2.532   1.265   9.816  2.6017 -1.7070 -2.5327
    8MOL0     H 1030   2.519   1.445   9.789  1.3086  0.9634 -0.1686
    8MOL0     H 1031   2.847   1.230   9.908  2.8673  2.1561 -0.0387
    8MOL0     H 1032   2.940   1.350  10.235 -0.6882  0.3581 -0.0635
    8MOL0     H 1033   2.972   1.235  10.106  2.9622  0.3225  1.3446
    8MOL0     H 1034   3.147   1.415  10.012  0.1497 -1.7617 -0.0893
    8MOL0     H 1035   3.159   1.395  10.182  1.7493 -0.2241 -1.3309
    8MOL0     H 1036   2.986   1.601  10.051 -0.4769  0.8576  0.2737
    8MOL0     H 1037   3.149   1.630  10.098  1.8935 -2.5309  0.9729
    8MOL0     H 1038   2.909   1.563  10.262 -0.1776  0.9972 -3.9125
    8MOL0     H 1039   3.005   1.710  10.272 -1.2698  0.4753  1.2700
    8MOL0     H 1040   3.169   1.514  10.608 -0.3424  1.5050  1.4810
    8MOL0     H 1041   3.449   1.560  10.775 -0.2412 -0.5220 -2.8802
    8MOL0     H 1042   3.342   1.684  10.835  0.7367 -0.1464  0.4690
    8MOL0     H 1043   3.277   1.529  10.791 -2.7548  1.9504 -1.3375
    8MOL0     H 1044   3.744   2.096  10.506 -0.8488 -2.7724 -0.1603
    8MOL0     H 1045   3.917   2.195  10.616 -0.5164  1.9668 -0.6358
    8MOL0     H 1046   4.111   2.131  10.774 -0.7548 -0.6126 -0.8235
    8MOL0     H 1047   4.073   2.308  10.784  2.3536  1.6767  1.1276
    8MOL0     H 1048   4.161   2.312  10.996  0.7077 -0.1223 -0.0719
    8MOL0     H 1049   4.188   2.134  11.006  2.2019 -0.1998 -0.0228
    8MOL0     H 1050   4.330   2.296  10.791  0.7258 -1.3832 -1.0994
    8MOL0     H 1051   4.343   2.131  10.827 -0.5291  1.1442 -0.6121
    8MOL0     H 1052   4.426   2.337  11.043  1.6793 -0.4360  1.1148
    8MOL0     H 1053   4.439   2.165  11.059 -0.3752  0.9778  1.5288
    8MOL0     H 1054   4.587   2.332  10.849  0.1109  1.2652  0.6989
    8MOL0     H 1055   4.593   2.161  10.848  0.0151  2.8797 -3.4171
    8MOL0     H 1056   4.656   2.326  11.102  2.1874  2.5668 -1.3613
    8MOL0     H 1057   4.659   2.154  11.090 -4.1251  1.4831  2.1972
    8MOL0     H 1058   4.879   2.248  11.101 -0.3193 -2.6757 -1.2299
    8MOL0     H 1059   4.839   2.369  10.973 -1.7665  0.6253  0.3563
    8MOL0     H 1060   4.989   2.189  10.901 -0.6219  0.4976 -1.5005
    8MOL0     H 1061   4.836   2.192  10.817  4.0769 -1.1525 -2.1508
    8MOL0     H 1062   3.739   2.064  10.994  0.2033 -1.4526 -0.4226
    8MOL0     H 1063   3.535   1.983  10.855  2.0830 -2.5403  1.4773
    8MOL0     H 1064   3.399   1.885  10.386  0.7595 -2.1125 -4.0546
    8MOL0     H 1065   3.229   1.770  10.269 -0.3561 -0.4155  0.4034
    8MOL0     H 1066   3.374   0.887   9.594  0.9161 -0.2040 -0.1302
    8MOL0     H 1067   3.601   0.952   9.568  0.3132  0.5131 -0.0197
    8MOL0     H 1068   3.787   1.411   9.356  0.1706  0.0601 -0.0529
    8MOL0     H 1069   3.999   1.510   9.380 -1.1435 -1.1681  0.2214
    8MOL0     H 1070   4.376   1.265   9.298  0.2094  0.2420  1.3870
    8MOL0     H 1071   4.299   1.335   9.151  2.5042 -0.0812 -0.2367
    8MOL0     H 1072   4.472   1.481   9.363 -1.1928  4.2913 -0.2822
    8MOL0     H 1073   4.420   1.565   9.215  0.5011  0.1637  0.5134
    8MOL0     H 1074   4.558   1.362   9.096 -0.7829  1.7528 -0.6363
    8MOL0     H 1075   4.635   1.355   9.255  1.6605  3.1190  0.9903
    8MOL0     H 1076   4.696   1.558   9.275  0.1266 -2.0071  0.9607
    8MOL0     H 1077   4.626   1.615   9.107 -2.6625 -2.3563 -0.3693
    8MOL0     H 1078   4.975   1.431   8.989  2.0097  2.5855  1.6007
    8MOL0     H 1079   4.188   1.128   9.307  0.9948  0.5364 -1.1459
    8MOL0     H 1080   3.968   1.031   9.293  2.4033  0.1337 -1.7940
    9MOL0     O 1081  10.596   3.039   6.901  0.8133 -0.0096 -0.1819
    9MOL0     C 1082  10.668   3.141   6.914  0.0635 -0.1455  0.4493
    9MOL0     O 1083  10.627   3.278   6.888 -0.0608 -0.3210 -0.6795
    9MOL0     C 1084  10.496   3.307   6.864  1.5897  0.3746  0.4729
    9MOL0     C 1085  10.398   3.224   6.809  1.1822 -0.5319  0.2318
    9MOL0     C 1086  10.269   3.277   6.784 -0.0144 -0.4811 -1.1111
    9MOL0     C 1087  10.241   3.414   6.813 -0.6471 -0.3559  0.4654
    9MOL0     O 1088  10.110   3.454   6.792 -0.4641  0.2433 -0.6336
    9MOL0     C 1089  10.083   3.592   6.769 -0.7494  0.3819  0.0692
    9MOL0     C 1090   9.942   3.590   6.704 -1.2768 -0.0784 -0.6399
    9MOL0     C 1091   9.910   3.727   6.645  0.4695 -0.0910  0.0240
    9MOL0     C 1092   9.773   3.723   6.581 -0.0327  0.1030 -0.2931
    9MOL0     C 1093   9.728   3.858   6.536 -0.0683 -0.3012  0.6394
    9MOL0     C 1094   9.571   3.846   6.530 -0.5575  0.9265  0.4585
    9MOL0     C 1095   9.506   3.956   6.454  0.3763 -0.0568  0.5371
    9MOL0     C 1096   9.528   3.936   6.305  0.6870  0.3244 -0.4421
    9MOL0     N 1097   9.476   4.054   6.229  0.0049  0.3796 -0.0447
    9MOL0     C 1098   9.531   4.177   6.230  0.3419  0.0944  0.8800
    9MOL0     C 1099   9.460   4.244   6.136 -0.7876  0.4019 -0.2605
    9MOL0     C 1100   9.498   4.387   6.104  0.2678  0.4851  0.3649
    9MOL0     C 1101   9.386   4.479   6.076  0.0280 -0.3524 -0.1048
    9MOL0     C 1102   9.313   4.522   6.206 -0.5946 -0.2896  0.0377
    9MOL0     C 1103   9.217   4.634   6.179  1.0781  0.3807  0.0142
    9MOL0     O 1104   9.149   4.683   6.297  0.2767  0.1030 -0.5409
    9MOL0     C 1105   9.048   4.771   6.262 -0.4636 -1.2940  0.5304
    9MOL0     C 1106   8.938   4.782   6.353 -1.0258 -0.1456 -0.1987
    9MOL0     C 1107   8.832   4.874   6.336 -0.3820  0.7870 -0.1570
    9MOL0     C 1108   8.725   4.878   6.441 -0.2099  0.0999  0.5160
    9MOL0     C 1109   8.836   4.957   6.222  0.6244 -0.2918 -0.3709
    9MOL0     C 1110   8.732   5.056   6.190  0.8676 -0.2433  0.1127
    9MOL0     O 1111   8.717   5.098   6.060 -0.2547 -1.1744  0.3870
    9MOL0     C 1112   8.645   5.209   6.027  0.0514 -0.5343  0.0543
    9MOL0     C 1113   8.610   5.326   6.106 -0.2659 -1.2019  0.0764
    9MOL0     C 1114   8.533   5.440   6.049  0.0239  0.4585  0.3724
    9MOL0     C 1115   8.500   5.430   5.911 -0.0814  0.0678 -0.0096
    9MOL0     O 1116   8.435   5.533   5.845 -0.2035 -0.5681 -0.1013
    9MOL0     C 1117   8.384   5.652   5.906  0.5858 -0.6688  0.4175
    9MOL0     C 1118   8.315   5.755   5.811 -0.9565 -0.2577  0.5572
    9MOL0     C 1119   8.253   5.861   5.892  0.3267  0.4775 -0.5056
    9MOL0     C 1120   8.128   5.911   5.833 -0.3252 -0.5917 -0.1744
    9MOL0     C 1121   8.082   6.049   5.880 -0.4477  0.3328 -0.1791
    9MOL0     C 1122   7.988   6.136   5.799  0.8438  0.1531 -0.4030
    9MOL0     C 1123   7.851   6.059   5.786 -0.5338  0.3310 -0.4888
    9MOL0     C 1124   7.736   6.133   5.717  0.2893  0.2905  0.1945
    9MOL0    Cl 1125   7.686   6.269   5.829  0.2465 -0.0559  0.3498
    9MOL0     C 1126   8.534   5.322   5.833 -1.1794 -0.1107  0.3972
    9MOL0     C 1127   8.608   5.211   5.888 -0.3962  0.0081 -0.2043
    9MOL0     O 1128   8.664   5.106   6.277 -0.2600  0.0824 -1.5930
    9MOL0     C 1129   8.940   4.940   6.129  0.4442  0.0003  0.9178
    9MOL0     C 1130   9.043   4.853   6.147 -0.4139 -0.7208  0.0662
    9MOL0     N 1131   9.360   4.162   6.086 -0.0375 -0.2774  0.5648
    9MOL0     N 1132   9.376   4.046   6.136  0.4077 -0.3970  0.6418
    9MOL0     C 1133  10.334   3.495   6.881 -0.5412 -0.2140 -0.1475
    9MOL0     C 1134  10.460   3.435   6.905 -0.1629 -0.0113 -0.6927
    9MOL0     C 1135  10.808   3.122   6.944  0.0811  0.9641  0.4526
    9MOL0     C 1136  10.881   3.227   7.005 -0.3116 -0.2915 -0.4941
    9MOL0     C 1137  11.019   3.207   7.032  0.8484 -0.7746  0.3543
    9MOL0     C 1138  11.084   3.086   6.998 -0.1371 -0.0134 -0.3762
    9MOL0     O 1139  11.208   3.070   7.050 -0.2894 -0.1870  0.0125
    9MOL0     C 1140  11.262   2.937   7.070 -0.8396 -1.0607 -1.0037
    9MOL0     C 1141  11.418   2.936   7.058  1.0770  0.1333  0.1362
    9MOL0     C 1142  11.491   3.041   7.153 -0.5131  0.4200 -0.1117
    9MOL0     C 1143  11.587   2.969   7.249 -0.2841  0.4424  0.1581
    9MOL0     C 1144  11.513   2.881   7.347 -0.5391 -0.7771 -0.0601
    9MOL0     C 1145  11.460   2.827   7.440  0.1588 -0.2907  0.0861
    9MOL0     C 1146  11.009   2.982   6.939 -0.2676 -0.6775 -1.4461
    9MOL0     C 1147  10.875   3.007   6.907  0.3760 -0.4275 -0.3028
    9MOL0     H 1148  10.421   3.124   6.771 -1.4762 -0.0758 -3.0955
    9MOL0     H 1149  10.179   3.229   6.747 -2.8331  2.0917  1.7657
    9MOL0     H 1150  10.087   3.639   6.867  2.7113  0.9400 -0.2328
    9MOL0     H 1151  10.152   3.647   6.704 -1.4029  0.4268 -0.6043
    9MOL0     H 1152   9.939   3.524   6.616  0.1113 -0.7302 -0.2160
    9MOL0     H 1153   9.865   3.567   6.779  1.5532 -0.3589  2.3819
    9MOL0     H 1154   9.910   3.804   6.723  0.4722  0.9355 -0.9721
    9MOL0     H 1155   9.987   3.754   6.574  0.9053  0.9681  0.8816
    9MOL0     H 1156   9.774   3.645   6.505 -0.9010  0.7429 -0.9812
    9MOL0     H 1157   9.703   3.690   6.659 -0.5180  2.3551  0.3009
    9MOL0     H 1158   9.764   3.936   6.604  0.2571  0.4093 -0.3169
    9MOL0     H 1159   9.763   3.883   6.435 -0.9762 -1.8174 -0.0807
    9MOL0     H 1160   9.541   3.746   6.497  0.0490  1.0807 -0.6127
    9MOL0     H 1161   9.525   3.851   6.629  1.9291 -3.1813  2.0734
    9MOL0     H 1162   9.399   3.959   6.479  0.3141 -0.5664  0.3386
    9MOL0     H 1163   9.543   4.053   6.489 -1.5230  0.8357  0.2194
    9MOL0     H 1164   9.469   3.847   6.280 -4.3548  2.4859  2.3445
    9MOL0     H 1165   9.635   3.926   6.283  1.3341 -0.2452  2.4720
    9MOL0     H 1166   9.615   4.219   6.285  1.7555  0.0507 -1.1485
    9MOL0     H 1167   9.575   4.427   6.171  1.7335 -2.7947  0.8069
    9MOL0     H 1168   9.546   4.371   6.007  2.9948 -2.4975  2.0121
    9MOL0     H 1169   9.311   4.426   6.016  0.2768  0.5252 -1.2244
    9MOL0     H 1170   9.434   4.564   6.027 -2.7276  0.8897 -0.8780
    9MOL0     H 1171   9.389   4.549   6.280 -0.2736 -0.8010 -0.0955
    9MOL0     H 1172   9.259   4.440   6.254  0.6605 -2.2744 -1.7334
    9MOL0     H 1173   9.134   4.596   6.119 -1.6418 -2.8935  5.0834
    9MOL0     H 1174   9.275   4.712   6.129  2.1633 -0.4061  0.0012
    9MOL0     H 1175   8.923   4.719   6.440 -2.1696  0.7846  0.3183
    9MOL0     H 1176   8.626   4.861   6.396  0.3486 -2.2584  0.0243
    9MOL0     H 1177   8.747   4.798   6.513 -0.8818 -1.5902 -1.0921
    9MOL0     H 1178   8.709   4.971   6.496 -1.0330 -0.8503  1.9701
    9MOL0     H 1179   8.650   5.337   6.206 -0.9987 -2.9005  0.5998
    9MOL0     H 1180   8.517   5.534   6.100 -3.6549 -0.0218  0.3770
    9MOL0     H 1181   8.305   5.636   5.981 -1.9454  2.8492 -1.2622
    9MOL0     H 1182   8.469   5.703   5.953  2.1211 -1.3644 -1.4627
    9MOL0     H 1183   8.395   5.801   5.753  1.3134 -3.8506  0.5129
    9MOL0     H 1184   8.243   5.707   5.744 -0.2403 -1.8008  0.8480
    9MOL0     H 1185   8.318   5.949   5.902 -0.4645  1.1294 -0.9924
    9MOL0     H 1186   8.225   5.831   5.993  0.4976 -1.5919 -1.0344
    9MOL0     H 1187   8.151   5.927   5.727 -0.8296 -0.8541 -0.3245
    9MOL0     H 1188   8.040   5.850   5.856 -2.3066  2.6885  1.7401
    9MOL0     H 1189   8.168   6.114   5.897 -0.8804  0.7490  0.4477
    9MOL0     H 1190   8.030   6.031   5.974  0.7762 -3.8725 -0.1188
    9MOL0     H 1191   7.970   6.236   5.842 -0.2164  0.3066 -1.1772
    9MOL0     H 1192   8.021   6.154   5.697 -0.7264 -0.7598 -1.1048
    9MOL0     H 1193   7.817   6.040   5.888 -0.1270  0.6350 -0.2936
    9MOL0     H 1194   7.860   5.967   5.727 -1.4244 -0.4712  0.5820
    9MOL0     H 1195   7.642   6.078   5.706  1.0498 -1.6270  2.3696
    9MOL0     H 1196   7.768   6.167   5.618  1.2383 -1.4515 -0.1287
    9MOL0     H 1197   8.501   5.313   5.730 -0.6425 -1.6517  0.3402
    9MOL0     H 1198   8.614   5.126   5.821 -0.2024  0.2856 -0.5418
    9MOL0     H 1199   8.947   4.999   6.038 -0.1968 -2.6365 -1.0061
    9MOL0     H 1200   9.118   4.844   6.069  0.6304 -0.4719  1.0159
    9MOL0     H 1201  10.317   3.595   6.919  3.0253  0.7048 -0.5832
    9MOL0     H 1202  10.544   3.487   6.950 -0.1312  0.8119 -1.6648
    9MOL0     H 1203  10.826   3.316   7.035  1.6827  0.5680  0.9011
    9MOL0     H 1204  11.080   3.283   7.081  3.3683 -0.7003 -2.5690
    9MOL0     H 1205  11.220   2.889   7.158 -2.0774 -2.4670 -2.3015
    9MOL0     H 1206  11.248   2.875   6.981 -1.7552  0.3964 -1.9282
    9MOL0     H 1207  11.446   2.965   6.956  3.1346 -2.3624 -0.1014
    9MOL0     H 1208  11.454   2.835   7.074  0.5318  0.3483  3.2522
    9MOL0     H 1209  11.422   3.105   7.210  1.8099  3.1493 -0.1341
    9MOL0     H 1210  11.563   3.109   7.105 -1.0441  0.4599 -0.8673
    9MOL0     H 1211  11.649   3.035   7.309 -0.2909 -1.0644  1.9048
    9MOL0     H 1212  11.647   2.903   7.186  0.1477  1.6553 -0.7430
    9MOL0     H 1213  11.422   2.780   7.528  2.1426  1.6021  2.0525
    9MOL0     H 1214  11.040   2.883   6.907  0.7566 -0.4871 -1.0830
    9MOL0     H 1215  10.827   2.925   6.853 -0.8435 -0.6814  1.1150
   10MOL0     O 1216   5.453  10.491   0.643 -0.1044 -0.2530  0.1587
   10MOL0     C 1217   5.496  10.417   0.549 -0.4195  1.2278  0.3899
   10MOL0     O 1218   5.430  10.370   0.438  0.4471 -0.8157 -0.0693
   10MOL0     C 1219   5.296  10.394   0.423 -0.1962  0.3239 -0.4008
   10MOL0     C 1220   5.264  10.470   0.307 -0.0346 -0.0205 -0.8775
   10MOL0     C 1221   5.129  10.466   0.265 -0.1805  0.1136 -0.2219
   10MOL0     C 1222   5.034  10.400   0.341  0.4416  0.3357  0.3432
   10MOL0     O 1223   4.899  10.400   0.312  0.4569 -0.4800  0.3908
   10MOL0     C 1224   4.872  10.354   0.177  0.3529  0.0479 -0.0291
   10MOL0     C 1225   4.727  10.343   0.138  0.2362  0.1011  0.4038
   10MOL0     C 1226   4.654  10.222   0.196 -0.5700 -0.4295 -0.5127
   10MOL0     C 1227   4.634  10.229   0.352 -0.9617 -0.4224  0.1791
   10MOL0     C 1228   4.509  10.163   0.386  0.1649 -0.1213  0.9016
   10MOL0     C 1229   4.489  10.140   0.536  0.3628  0.3711  0.7000
   10MOL0     C 1230   4.349  10.081   0.563 -0.6727 -0.2340 -0.2413
   10MOL0     C 1231   4.322  10.080   0.708 -0.1208  0.5555  0.0027
   10MOL0     N 1232   4.183  10.058   0.748  0.4199 -0.1877 -0.5712
   10MOL0     C 1233   4.092  10.150   0.786  0.3852  0.1235  0.0583
   10MOL0     C 1234   3.982  10.079   0.819  0.7739 -0.4938  0.1575
   10MOL0     C 1235   3.846  10.128   0.853  0.4021  0.1864 -0.5213
   10MOL0     C 1236   3.816  10.103   0.999 -0.3346 -0.7674 -0.4762
   10MOL0     C 1237   3.748   9.971   1.031  0.1536  0.3124  0.6419
   10MOL0     C 1238   3.601   9.966   0.982 -0.0370 -0.0772 -0.1125
   10MOL0     O 1239   3.520  10.054   1.055 -0.0485  0.5236  0.4689
   10MOL0     C 1240   3.400  10.098   1.007 -0.2951 -0.1934  0.0209
   10MOL0     C 1241   3.310  10.013   0.935  0.9886 -0.7672 -0.7440
   10MOL0     C 1242   3.173  10.062   0.915  0.0964 -0.6368  0.4383
   10MOL0     C 1243   3.082   9.976   0.837  1.2248  0.4146  0.5890
   10MOL0     C 1244   3.129  10.179   0.977 -0.8999  0.6092 -0.7790
   10MOL0     C 1245   2.995  10.234   0.957 -0.2093 -0.6841  0.5231
   10MOL0     O 1246   2.896  10.148   0.965 -0.5039 -0.3066  0.1001
   10MOL0     C 1247   2.777  10.201   0.934 -0.1662 -0.4214  0.2324
   10MOL0     C 1248   2.718  10.224   0.805  0.0411  0.2196  0.0742
   10MOL0     C 1249   2.587  10.280   0.791  0.7306 -0.1430  0.5707
   10MOL0     C 1250   2.512  10.315   0.907  0.3718 -0.3194 -0.5951
   10MOL0     O 1251   2.387  10.366   0.910 -0.2072  0.5153 -0.5020
   10MOL0     C 1252   2.316  10.401   0.792  0.3326 -0.2059  0.5433
   10MOL0     C 1253   2.177  10.460   0.811 -0.4999  0.7239  0.0997
   10MOL0     C 1254   2.058  10.364   0.819 -0.0434  0.2508 -0.8419
   10MOL0     C 1255   2.026  10.306   0.956  0.1021  0.8544  0.2299
   10MOL0     C 1256   1.890  10.222   0.948  0.6443  0.3968 -0.2849
   10MOL0     C 1257   1.868  10.154   1.082 -0.2642 -0.6786  0.3266
   10MOL0     C 1258   1.735  10.077   1.084 -0.1640  0.0012 -0.6965
   10MOL0     C 1259   1.676  10.047   1.231  0.3018  0.5990  0.1521
   10MOL0    Cl 1260   1.793   9.937   1.318  0.4817 -0.0679  0.0705
   10MOL0     C 1261   2.579  10.299   1.032  0.4383 -0.6131 -0.3359
   10MOL0     C 1262   2.707  10.259   1.044  0.9067  0.0554  0.7195
   10MOL0     O 1263   2.984  10.354   0.955  0.5086 -1.1556 -0.1973
   10MOL0     C 1264   3.231  10.258   1.044  0.0775 -0.1963 -0.6675
   10MOL0     C 1265   3.362  10.225   1.056 -0.0932  0.2953 -0.1911
   10MOL0     N 1266   4.005   9.948   0.795 -0.2007  0.5585 -0.0325
   10MOL0     N 1267   4.127   9.932   0.746 -0.1069 -0.1106 -0.2068
   10MOL0     C 1268   5.064  10.320   0.449 -0.5958 -0.1186 -0.7077
   10MOL0     C 1269   5.199  10.321   0.499  1.0382  0.1347  0.1847
   10MOL0     C 1270   5.647  10.400   0.549 -0.2869 -0.4469  0.5104
   10MOL0     C 1271   5.726  10.353   0.438  0.2690  0.5289  0.2132
   10MOL0     C 1272   5.863  10.329   0.448  0.1786  0.1127  0.8898
   10MOL0     C 1273   5.934  10.363   0.559  0.5022 -0.5361  0.1563
   10MOL0     O 1274   6.067  10.334   0.557  0.9871  0.1213 -0.0390
   10MOL0     C 1275   6.136  10.300   0.681  0.2917 -0.6221 -0.1913
   10MOL0     C 1276   6.281  10.257   0.654 -0.4340 -0.1192 -0.2554
   10MOL0     C 1277   6.362  10.358   0.562  0.6432  0.3229 -1.1395
   10MOL0     C 1278   6.513  10.334   0.547 -0.3905  0.0174 -0.8362
   10MOL0     C 1279   6.584  10.403   0.436  0.1029  0.2683 -0.9892
   10MOL0     C 1280   6.633  10.465   0.341  0.2982  0.3362 -0.4791
   10MOL0     C 1281   5.856  10.407   0.673  0.0838 -0.4351  0.9671
   10MOL0     C 1282   5.718  10.437   0.661 -0.0207  0.2884  0.4674
   10MOL0     H 1283   5.346  10.520   0.258  1.4904 -0.9007  0.6471
   10MOL0     H 1284   5.096  10.517   0.175 -0.2092  0.5689  0.0415
   10MOL0     H 1285   4.917  10.425   0.107  0.0235 -0.3967 -0.6969
   10MOL0     H 1286   4.925  10.258   0.169  1.9213  0.9801 -1.7193
   10MOL0     H 1287   4.684  10.435   0.179  0.1184  1.1043 -1.8740
   10MOL0     H 1288   4.704  10.350   0.032  1.2892 -1.1944  0.0663
   10MOL0     H 1289   4.557  10.219   0.144 -0.9206 -1.5602  0.1527
   10MOL0     H 1290   4.704  10.127   0.175 -1.3394 -1.2628  1.1741
   10MOL0     H 1291   4.719  10.178   0.398 -0.7836 -1.5240 -1.3182
   10MOL0     H 1292   4.634  10.335   0.380  0.0549  0.0805 -1.6096
   10MOL0     H 1293   4.426  10.229   0.358 -0.1941 -0.5552  0.9326
   10MOL0     H 1294   4.510  10.067   0.335  3.3052 -0.6866  1.7967
   10MOL0     H 1295   4.555  10.057   0.565  2.5574  1.1468 -1.7340
   10MOL0     H 1296   4.511  10.231   0.592  3.7722  0.9582 -1.3217
   10MOL0     H 1297   4.274  10.147   0.518  1.2149  0.4025 -2.6913
   10MOL0     H 1298   4.339   9.981   0.519 -3.4036  0.2421 -0.8592
   10MOL0     H 1299   4.353  10.177   0.749  1.3790 -1.0247  2.8911
   10MOL0     H 1300   4.384  10.009   0.763 -1.2096  0.5891  1.3184
   10MOL0     H 1301   4.103  10.258   0.785 -0.9967  0.2839 -0.1328
   10MOL0     H 1302   3.841  10.236   0.838  0.5635 -0.1352 -3.4190
   10MOL0     H 1303   3.776  10.074   0.789  0.7951 -0.4471 -0.4198
   10MOL0     H 1304   3.764  10.190   1.039  1.2374  1.7288 -3.4433
   10MOL0     H 1305   3.907  10.105   1.060  0.1980 -1.7354 -1.1925
   10MOL0     H 1306   3.753   9.953   1.139  3.1860  1.7255  0.8315
   10MOL0     H 1307   3.816   9.894   0.992  0.8846  0.7846  0.9687
   10MOL0     H 1308   3.563   9.864   0.997  2.2788 -0.7767  1.4814
   10MOL0     H 1309   3.599   9.981   0.874  3.5976  0.4432 -0.2147
   10MOL0     H 1310   3.335   9.911   0.905 -2.0088 -2.1262  0.9542
   10MOL0     H 1311   3.045  10.032   0.751 -0.8760 -1.5019  0.1640
   10MOL0     H 1312   3.136   9.888   0.800 -0.0532 -0.0243 -0.2971
   10MOL0     H 1313   2.997   9.952   0.902 -1.3436  2.4173 -1.8070
   10MOL0     H 1314   2.779  10.194   0.721  0.0448  2.0928 -0.6327
   10MOL0     H 1315   2.540  10.275   0.693  0.4723 -2.2221  0.7617
   10MOL0     H 1316   2.375  10.480   0.745 -1.3632 -0.4788 -2.2822
   10MOL0     H 1317   2.306  10.311   0.730 -1.3534  0.8803 -0.8781
   10MOL0     H 1318   2.183  10.522   0.902  0.4036  1.6475 -0.5690
   10MOL0     H 1319   2.164  10.524   0.724  2.8747  0.5781 -0.6463
   10MOL0     H 1320   2.065  10.282   0.747  0.0767 -1.7727  1.3695
   10MOL0     H 1321   1.973  10.424   0.786  0.4264  3.1105  2.6111
   10MOL0     H 1322   2.107  10.237   0.981 -0.8640 -0.7071 -0.7722
   10MOL0     H 1323   2.003  10.381   1.032 -3.1144 -0.2446  0.4776
   10MOL0     H 1324   1.887  10.140   0.875 -0.0554  2.2492 -2.4248
   10MOL0     H 1325   1.804  10.286   0.932  2.2333  1.9886 -3.3304
   10MOL0     H 1326   1.949  10.087   1.111 -0.1723 -0.0213  1.6688
   10MOL0     H 1327   1.853  10.227   1.162 -2.0195  0.8025 -1.2257
   10MOL0     H 1328   1.748   9.986   1.026 -1.2839  0.3811 -1.5824
   10MOL0     H 1329   1.655  10.136   1.039  0.7028  1.0638 -0.8949
   10MOL0     H 1330   1.584   9.988   1.232  0.3659  0.4279 -1.4569
   10MOL0     H 1331   1.661  10.136   1.292  0.3096 -1.1148  2.7958
   10MOL0     H 1332   2.532  10.319   1.128  0.8194 -1.0079 -0.0677
   10MOL0     H 1333   2.755  10.252   1.141 -0.4542  0.4771  1.4474
   10MOL0     H 1334   3.205  10.348   1.098 -1.6066 -1.6385  1.0638
   10MOL0     H 1335   3.430  10.296   1.103  0.6147 -0.9250  0.6701
   10MOL0     H 1336   4.975  10.271   0.488 -0.9969  1.6582  0.7488
   10MOL0     H 1337   5.220  10.265   0.589 -1.5975 -0.1489  0.6729
   10MOL0     H 1338   5.674  10.330   0.345  0.5331  0.0148  0.1868
   10MOL0     H 1339   5.906  10.282   0.359 -1.4316 -3.2096  1.7158
   10MOL0     H 1340   6.141  10.386   0.748  1.4336  0.4723 -1.6097
   10MOL0     H 1341   6.083  10.219   0.732 -1.4598 -0.7059 -2.0327
   10MOL0     H 1342   6.287  10.160   0.604 -0.5554  0.7912 -2.1025
   10MOL0     H 1343   6.323  10.251   0.755 -1.3446 -0.3912  0.1117
   10MOL0     H 1344   6.345  10.463   0.588 -3.0528 -0.1089 -1.3895
   10MOL0     H 1345   6.316  10.356   0.463 -0.6728 -4.3223 -0.6688
   10MOL0     H 1346   6.518  10.227   0.527  3.9870 -0.0662 -0.2476
   10MOL0     H 1347   6.558  10.350   0.645 -4.1765  0.3107  1.0173
   10MOL0     H 1348   6.669  10.514   0.253  0.7581 -0.3461 -0.6809
   10MOL0     H 1349   5.913  10.420   0.764  1.9012 -2.9186  0.2769
   10MOL0     H 1350   5.669  10.469   0.753  1.0582  2.5225  0.3329
   11MOL0     O 1351   1.135   2.797   4.410  0.3078 -0.6494  0.1654
   11MOL0     C 1352   1.215   2.871   4.358  0.1573 -0.3859 -0.7458
   11MOL0     O 1353   1.188   2.961   4.262  0.4009  0.5907 -0.4218
   11MOL0     C 1354   1.080   2.944   4.180  0.0872 -0.3045  0.2272
   11MOL0     C 1355   1.056   3.055   4.095  0.6197  0.1497  1.1401
   11MOL0     C 1356   0.952   3.039   3.999 -0.2067 -0.5184 -0.2783
   11MOL0     C 1357   0.885   2.916   3.976  0.8618  0.7511 -0.6991
   11MOL0     O 1358   0.795   2.908   3.871  0.6070 -0.3727  0.1312
   11MOL0     C 1359   0.711   2.797   3.857 -0.2652  0.4250 -0.0925
   11MOL0     C 1360   0.613   2.826   3.738  0.1350 -0.4311  0.0102
   11MOL0     C 1361   0.490   2.902   3.791  0.6280  0.3642 -0.0851
   11MOL0     C 1362   0.377   2.923   3.694  0.1064 -0.1364 -0.1484
   11MOL0     C 1363   0.417   2.978   3.559 -1.0722  0.9895  0.6617
   11MOL0     C 1364   0.461   3.124   3.549  0.2407 -0.2978  0.4444
   11MOL0     C 1365   0.346   3.224   3.526 -0.4662 -0.5173 -0.3167
   11MOL0     C 1366   0.386   3.369   3.525 -0.9467  0.1469  0.3765
   11MOL0     N 1367   0.284   3.456   3.468 -0.4607  0.0451 -0.1454
   11MOL0     C 1368   0.152   3.445   3.468  0.3694 -0.3200 -0.4318
   11MOL0     C 1369   0.109   3.552   3.388  0.0588  0.0848 -0.6334
   11MOL0     C 1370  -0.039   3.584   3.356 -0.2366 -0.0675 -0.2269
   11MOL0     C 1371  -0.065   3.735   3.352  0.8903 -0.3427  0.1362
   11MOL0     C 1372  -0.158   3.784   3.459  0.3333 -0.6255 -0.0152
   11MOL0     C 1373  -0.311   3.737   3.457 -0.5432  0.4532  1.0843
   11MOL0     O 1374  -0.386   3.790   3.566  0.1334  0.4315  0.1440
   11MOL0     C 1375  -0.519   3.746   3.586  0.4492  0.3056 -0.6834
   11MOL0     C 1376  -0.594   3.651   3.520  1.7652  0.3153 -0.5203
   11MOL0     C 1377  -0.727   3.609   3.566  0.2289 -0.3589  0.0606
   11MOL0     C 1378  -0.780   3.497   3.487 -0.8518 -0.0439  0.0917
   11MOL0     C 1379  -0.783   3.677   3.675  0.3467 -0.3091  0.0861
   11MOL0     C 1380  -0.926   3.655   3.717 -0.4249  0.7186 -0.2407
   11MOL0     O 1381  -0.997   3.539   3.690  0.3811  0.0772 -0.2323
   11MOL0     C 1382  -1.110   3.515   3.761 -0.0175  0.3656  0.8215
   11MOL0     C 1383  -1.119   3.428   3.865 -0.5708  0.0838 -0.2516
   11MOL0     C 1384  -1.236   3.380   3.922 -0.1810 -0.1577  0.0511
   11MOL0     C 1385  -1.357   3.431   3.876  0.6425 -0.5758  0.9322
   11MOL0     O 1386  -1.472   3.389   3.943  0.0319  0.1686  0.2578
   11MOL0     C 1387  -1.594   3.361   3.879  0.5920 -0.2369 -0.0857
   11MOL0     C 1388  -1.695   3.317   3.972  0.3823 -0.2663 -0.9055
   11MOL0     C 1389  -1.833   3.324   3.896 -0.7440 -0.2069  0.0921
   11MOL0     C 1390  -1.951   3.266   3.978  0.1354  0.4161 -0.2351
   11MOL0     C 1391  -2.081   3.288   3.902 -0.4859  0.2394 -0.7264
   11MOL0     C 1392  -2.203   3.231   3.977 -0.9556 -0.7748  0.8393
   11MOL0     C 1393  -2.238   3.300   4.104 -1.0619 -0.6155  0.5461
   11MOL0     C 1394  -2.360   3.242   4.174 -0.0546 -0.0406  0.1446
   11MOL0    Cl 1395  -2.318   3.078   4.229 -0.2617  0.1878 -0.1464
   11MOL0     C 1396  -1.357   3.517   3.761 -0.5190 -0.3896  0.1119
   11MOL0     C 1397  -1.234   3.557   3.708  0.7618  0.0651  0.4998
   11MOL0     O 1398  -0.969   3.745   3.781 -0.3060  0.3852  0.3809
   11MOL0     C 1399  -0.706   3.777   3.738 -0.0980  0.6744  0.6150
   11MOL0     C 1400  -0.584   3.817   3.692  0.7181  0.4605 -0.2046
   11MOL0     N 1401   0.218   3.612   3.330  0.9084 -0.9371 -0.3784
   11MOL0     N 1402   0.322   3.563   3.390 -0.4271  0.8724  0.5118
   11MOL0     C 1403   0.925   2.802   4.053 -0.4777 -0.4744  0.0063
   11MOL0     C 1404   1.013   2.822   4.160 -0.5257 -0.6703 -0.3933
   11MOL0     C 1405   1.356   2.861   4.414 -0.1267  0.9193  0.9196
   11MOL0     C 1406   1.372   2.776   4.527 -0.0605 -0.1699 -1.0488
   11MOL0     C 1407   1.502   2.776   4.580 -0.4231  1.0286 -0.0605
   11MOL0     C 1408   1.608   2.848   4.523 -0.0798 -0.3822 -1.3761
   11MOL0     O 1409   1.731   2.854   4.573 -0.1085 -0.4943 -0.8573
   11MOL0     C 1410   1.797   2.764   4.667  0.7169 -0.2228  0.4533
   11MOL0     C 1411   1.843   2.636   4.594  0.3460  0.1315  0.3541
   11MOL0     C 1412   1.902   2.534   4.690  0.7755 -0.1085 -0.1980
   11MOL0     C 1413   2.000   2.441   4.619  0.0283  0.1878  0.7444
   11MOL0     C 1414   1.979   2.301   4.655 -0.1884  0.1825 -0.1932
   11MOL0     C 1415   1.964   2.187   4.684  0.2134  0.4939  0.4336
   11MOL0     C 1416   1.585   2.928   4.416  0.5454  0.2420  0.8894
   11MOL0     C 1417   1.460   2.936   4.359 -0.5057  0.0247  0.0176
   11MOL0     H 1418   1.121   3.141   4.089  1.2084 -0.3478  0.0766
   11MOL0     H 1419   0.926   3.112   3.922  1.0276 -0.4168 -0.6190
   11MOL0     H 1420   0.766   2.704   3.842  0.2864  0.7144  0.1287
   11MOL0     H 1421   0.654   2.797   3.950  1.1732  0.3337  0.8050
   11MOL0     H 1422   0.656   2.894   3.664  0.5851 -3.1557 -2.4244
   11MOL0     H 1423   0.589   2.729   3.693  2.7835 -0.7136 -0.9572
   11MOL0     H 1424   0.433   2.848   3.867 -0.9601  1.0084 -0.7603
   11MOL0     H 1425   0.509   2.997   3.843 -0.7475 -1.0977  3.3948
   11MOL0     H 1426   0.316   2.833   3.682 -0.9384  0.3272  1.5165
   11MOL0     H 1427   0.316   3.000   3.742  0.7450 -0.0710  0.5760
   11MOL0     H 1428   0.480   2.910   3.501 -0.8335  2.6002 -1.0974
   11MOL0     H 1429   0.325   2.968   3.500 -0.1179  1.1584 -0.9354
   11MOL0     H 1430   0.512   3.150   3.642  2.1203  0.3140 -0.6908
   11MOL0     H 1431   0.536   3.132   3.469 -0.9640 -0.5333 -0.7494
   11MOL0     H 1432   0.298   3.190   3.433 -0.8592  0.8915 -0.6529
   11MOL0     H 1433   0.282   3.211   3.614  1.4156 -1.2415  1.0082
   11MOL0     H 1434   0.482   3.376   3.473 -1.2281  0.9762 -0.0620
   11MOL0     H 1435   0.408   3.405   3.626 -3.4587 -0.9712  1.4074
   11MOL0     H 1436   0.102   3.374   3.533  2.6161 -2.1788 -0.6083
   11MOL0     H 1437  -0.061   3.533   3.261 -2.0732 -1.9610  1.1278
   11MOL0     H 1438  -0.101   3.534   3.431  1.4087 -1.0074  0.5649
   11MOL0     H 1439  -0.111   3.763   3.257  1.9883  1.7437  0.1563
   11MOL0     H 1440   0.026   3.796   3.362  0.8036 -0.3356  0.9611
   11MOL0     H 1441  -0.166   3.893   3.451 -2.5685 -0.6986  0.5961
   11MOL0     H 1442  -0.113   3.750   3.553 -1.0556 -3.7075 -0.3317
   11MOL0     H 1443  -0.306   3.629   3.475  1.1783  0.5728  1.4636
   11MOL0     H 1444  -0.366   3.759   3.364  0.0895 -0.4406  0.4846
   11MOL0     H 1445  -0.543   3.595   3.442  0.8111  1.1532 -1.7883
   11MOL0     H 1446  -0.883   3.527   3.467 -1.0445 -0.6596  0.1452
   11MOL0     H 1447  -0.733   3.478   3.390  0.1269 -2.2385  0.9146
   11MOL0     H 1448  -0.759   3.396   3.524  0.9362 -0.5024 -1.9543
   11MOL0     H 1449  -1.026   3.385   3.900  0.2929 -0.0759 -2.5755
   11MOL0     H 1450  -1.233   3.318   4.011  0.7012  2.3952  1.9197
   11MOL0     H 1451  -1.616   3.448   3.817  1.9844 -2.3005 -3.7444
   11MOL0     H 1452  -1.576   3.285   3.802 -0.5223 -1.9073  1.2273
   11MOL0     H 1453  -1.679   3.213   4.002  0.7562  0.3751  1.3492
   11MOL0     H 1454  -1.696   3.374   4.066 -1.1432 -1.3558 -0.2194
   11MOL0     H 1455  -1.818   3.279   3.797 -0.2467 -1.7407  0.8462
   11MOL0     H 1456  -1.854   3.429   3.872  0.5037 -0.4475 -2.3989
   11MOL0     H 1457  -1.922   3.161   3.988  0.6337  0.5047 -0.6704
   11MOL0     H 1458  -1.962   3.324   4.069 -1.1788  2.4706 -1.6164
   11MOL0     H 1459  -2.069   3.249   3.800  2.6491 -0.6639 -0.1266
   11MOL0     H 1460  -2.090   3.396   3.887  0.6131  0.6704  1.3131
   11MOL0     H 1461  -2.275   3.241   3.895  1.5612  2.1699 -1.2766
   11MOL0     H 1462  -2.184   3.127   4.004  1.4321 -0.7617 -0.5255
   11MOL0     H 1463  -2.244   3.409   4.092  0.3835 -0.6844 -1.2935
   11MOL0     H 1464  -2.150   3.279   4.166  0.0874  1.2176 -0.3509
   11MOL0     H 1465  -2.451   3.236   4.113 -0.9647 -1.2647  1.5182
   11MOL0     H 1466  -2.380   3.306   4.261  0.4304  2.2329 -1.3343
   11MOL0     H 1467  -1.451   3.548   3.716 -0.9488 -4.4863 -2.3530
   11MOL0     H 1468  -1.238   3.612   3.614 -1.3664 -1.8474 -0.6078
   11MOL0     H 1469  -0.734   3.821   3.833  1.7562 -0.6522  1.8430
   11MOL0     H 1470  -0.525   3.879   3.758  0.7624 -0.5658  0.7543
   11MOL0     H 1471   0.870   2.708   4.059 -1.1812  0.0064  1.7067
   11MOL0     H 1472   1.022   2.736   4.226 -1.3347  0.1685  0.8293
   11MOL0     H 1473   1.296   2.716   4.577 -0.1516  1.4015  0.8527
   11MOL0     H 1474   1.522   2.713   4.666  2.1127  0.5192 -0.9229
   11MOL0     H 1475   1.880   2.827   4.699  0.6372 -0.6377  1.5169
   11MOL0     H 1476   1.737   2.726   4.750 -1.6457 -0.4713 -1.2602
   11MOL0     H 1477   1.901   2.662   4.505 -0.2968 -1.2158 -0.4944
   11MOL0     H 1478   1.746   2.597   4.563 -0.6238  1.6440  1.3969
   11MOL0     H 1479   1.813   2.485   4.730  1.7625 -1.2804  0.6393
   11MOL0     H 1480   1.954   2.584   4.773  0.2533 -2.0958  1.4200
   11MOL0     H 1481   2.103   2.472   4.640  0.0086  0.2972  0.6862
   11MOL0     H 1482   1.998   2.458   4.511  3.1452 -0.9278  0.3975
   11MOL0     H 1483   1.955   2.082   4.703 -1.0125 -0.0216 -2.4821
   11MOL0     H 1484   1.667   2.987   4.375  1.5864 -1.1344  0.9160
   11MOL0     H 1485   1.438   2.996   4.271  2.4565 -0.9956 -1.5318
   12MOL0     O 1486   4.001  10.646  11.088  0.1047 -0.4171 -0.7002
   12MOL0     C 1487   4.070  10.651  11.193  0.7218  0.9717 -0.0687
   12MOL0     O 1488   4.031  10.669  11.324  0.0236 -0.3931 -0.5191
   12MOL0     C 1489   3.896  10.668  11.354 -0.1071 -1.0775  0.3312
   12MOL0     C 1490   3.863  10.593  11.459  0.3010  0.8423  0.3789
   12MOL0     C 1491   3.725  10.567  11.478 -0.0111 -0.2667 -0.3456
   12MOL0     C 1492   3.621  10.641  11.422 -0.2288 -0.0304 -0.5216
   12MOL0     O 1493   3.487  10.622  11.440 -0.4350 -0.3099  0.7424
   12MOL0     C 1494   3.433  10.500  11.477 -0.2089 -0.2064  0.1050
   12MOL0     C 1495   3.286  10.510  11.516  0.7033 -0.4432  1.0605
   12MOL0     C 1496   3.206  10.586  11.414 -1.1440 -0.7536 -0.5554
   12MOL0     C 1497   3.056  10.596  11.450 -0.8987  0.6063  0.4340
   12MOL0     C 1498   2.975  10.617  11.325  0.2090 -0.1328  0.1832
   12MOL0     C 1499   3.002  10.747  11.263 -0.0073  0.3036  0.1434
   12MOL0     C 1500   2.889  10.786  11.164  0.3891 -1.1715 -0.4664
   12MOL0     C 1501   2.878  10.705  11.030 -0.0424 -0.2858 -0.0622
   12MOL0     N 1502   2.996  10.736  10.949  0.3536  0.6669  0.8821
   12MOL0     C 1503   3.126  10.684  10.955  0.4034  0.1515 -0.7386
   12MOL0     C 1504   3.200  10.770  10.880  0.5686 -0.7279  0.4264
   12MOL0     C 1505   3.345  10.756  10.857  0.0542  0.5812  0.3551
   12MOL0     C 1506   3.415  10.873  10.918  0.5565 -0.1513  0.0780
   12MOL0     C 1507   3.382  10.890  11.062 -0.5315 -0.3799 -0.9671
   12MOL0     C 1508   3.449  11.007  11.118  0.7812 -0.0593 -0.0157
   12MOL0     O 1509   3.401  11.004  11.255 -0.1886 -0.6910  0.6642
   12MOL0     C 1510   3.290  11.077  11.297 -1.0342  0.3333  0.2832
   12MOL0     C 1511   3.276  11.091  11.433  0.2061 -0.1367  0.8546
   12MOL0     C 1512   3.162  11.159  11.483  0.8937 -0.2775  0.4903
   12MOL0     C 1513   3.143  11.158  11.637  0.1841 -0.0102 -0.4202
   12MOL0     C 1514   3.067  11.225  11.394  0.0713  0.1438  0.1037
   12MOL0     C 1515   2.962  11.315  11.436  0.1298  0.5085 -0.3009
   12MOL0     O 1516   2.856  11.332  11.352 -0.2427  0.1220 -0.4421
   12MOL0     C 1517   2.758  11.415  11.399  0.5833  0.5430 -0.3909
   12MOL0     C 1518   2.766  11.554  11.393  0.3169 -0.6791  0.7240
   12MOL0     C 1519   2.671  11.642  11.445 -0.1639 -0.0679  0.4498
   12MOL0     C 1520   2.558  11.582  11.506 -0.3937  0.1690 -0.2383
   12MOL0     O 1521   2.453  11.662  11.549 -0.3227  0.5259  0.0024
   12MOL0     C 1522   2.457  11.806  11.527 -0.3127  0.2500 -0.3340
   12MOL0     C 1523   2.314  11.870  11.520 -1.1646 -0.4349  0.3765
   12MOL0     C 1524   2.252  11.867  11.381 -0.1451 -0.1538  0.3077
   12MOL0     C 1525   2.295  11.993  11.307 -0.1804 -0.2222  0.0440
   12MOL0     C 1526   2.259  11.997  11.159  0.2577 -0.4923  1.0432
   12MOL0     C 1527   2.376  11.932  11.080  0.1753 -1.1192 -0.9590
   12MOL0     C 1528   2.339  11.924  10.929  0.1142 -0.1649 -0.0014
   12MOL0     C 1529   2.322  11.783  10.884 -0.8397  0.2823  0.6358
   12MOL0    Cl 1530   2.249  11.780  10.722 -0.4169  0.0102 -0.1672
   12MOL0     C 1531   2.543  11.441  11.508  0.1996  0.5970 -0.2367
   12MOL0     C 1532   2.642  11.359  11.453 -0.3490 -0.2472 -0.2501
   12MOL0     O 1533   2.981  11.388  11.540  0.0201 -0.2570  0.1930
   12MOL0     C 1534   3.098  11.212  11.260  0.2529 -0.5387 -0.3980
   12MOL0     C 1535   3.205  11.141  11.208  0.5514 -1.5798 -0.4068
   12MOL0     N 1536   3.117  10.870  10.826 -0.0401 -0.5817 -0.9101
   12MOL0     N 1537   3.003  10.857  10.883 -1.2761 -0.3373 -0.0060
   12MOL0     C 1538   3.658  10.734  11.325  0.3606 -0.4289 -0.1531
   12MOL0     C 1539   3.796  10.746  11.281 -0.5726  0.4564 -0.7834
   12MOL0     C 1540   4.209  10.620  11.165  0.4422 -0.0857 -0.0113
   12MOL0     C 1541   4.302  10.660  11.263 -0.4130 -0.9592 -0.5991
   12MOL0     C 1542   4.437  10.657  11.242  0.7652  0.0551 -0.3271
   12MOL0     C 1543   4.491  10.598  11.127  0.4756  0.3318 -0.4365
   12MOL0     O 1544   4.624  10.597  11.112 -0.3004 -0.3469  0.2822
   12MOL0     C 1545   4.683  10.506  11.016  0.0324 -0.4685 -0.1545
   12MOL0     C 1546   4.822  10.450  11.074 -0.0866 -0.5326 -0.2115
   12MOL0     C 1547   4.915  10.553  11.146  0.3910  0.0509  0.0232
   12MOL0     C 1548   5.064  10.530  11.110  0.1015 -0.6010 -0.2559
   12MOL0     C 1549   5.108  10.387  11.124  0.6404 -0.4743 -0.8300
   12MOL0     C 1550   5.124  10.267  11.161  1.1540  0.3157 -0.1241
   12MOL0     C 1551   4.400  10.543  11.028  0.7046 -0.2773  0.5814
   12MOL0     C 1552   4.257  10.563  11.047  0.0262  0.2129  0.1304
   12MOL0     H 1553   3.950  10.564  11.517 -0.7289 -0.3422  1.3690
   12MOL0     H 1554   3.702  10.491  11.552 -1.8679 -0.2200 -0.8418
   12MOL0     H 1555   3.437  10.430  11.393 -2.7452 -3.7910  2.6740
   12MOL0     H 1556   3.480  10.453  11.565 -1.5661 -1.4895  0.1877
   12MOL0     H 1557   3.242  10.410  11.530 -0.2865 -0.0916  0.5767
   12MOL0     H 1558   3.279  10.557  11.615  1.5218  0.3230  0.7599
   12MOL0     H 1559   3.241  10.686  11.441 -2.2437 -0.8527  1.3952
   12MOL0     H 1560   3.224  10.558  11.309 -0.4937 -1.7678 -0.1898
   12MOL0     H 1561   3.027  10.501  11.496  0.1401 -0.0232 -0.1694
   12MOL0     H 1562   3.044  10.676  11.524  0.8390  0.1805  1.2070
   12MOL0     H 1563   2.999  10.531  11.261 -0.3939  0.1874 -0.4817
   12MOL0     H 1564   2.868  10.613  11.346  0.5302  3.4617  3.4115
   12MOL0     H 1565   3.001  10.823  11.342 -0.0076 -0.3034  0.7343
   12MOL0     H 1566   3.103  10.751  11.221  0.8325 -2.1607  1.7100
   12MOL0     H 1567   2.790  10.788  11.210  0.4139  1.1761 -0.3762
   12MOL0     H 1568   2.911  10.891  11.141  0.4486 -1.3922 -1.4771
   12MOL0     H 1569   2.792  10.732  10.968  0.7541 -2.0834 -2.0652
   12MOL0     H 1570   2.878  10.597  11.042 -2.2335 -0.7401 -2.9379
   12MOL0     H 1571   3.156  10.594  11.007  3.8436 -1.0755 -4.3776
   12MOL0     H 1572   3.390  10.669  10.907  0.1874  1.2248  1.3807
   12MOL0     H 1573   3.365  10.748  10.750 -0.8095  1.4651  0.1166
   12MOL0     H 1574   3.387  10.962  10.861 -1.7393 -1.2546 -0.6094
   12MOL0     H 1575   3.522  10.875  10.896  0.7037  1.3773  0.7753
   12MOL0     H 1576   3.406  10.803  11.123 -0.7375  2.1202  3.0301
   12MOL0     H 1577   3.274  10.908  11.072 -0.0230  1.3653  3.6663
   12MOL0     H 1578   3.436  11.102  11.066  0.4069 -0.6071 -0.9599
   12MOL0     H 1579   3.557  10.991  11.125  0.9272  1.5012  2.2494
   12MOL0     H 1580   3.351  11.036  11.488  2.6129  0.6851 -1.3465
   12MOL0     H 1581   3.212  11.230  11.682 -0.8377  0.8805 -0.2488
   12MOL0     H 1582   3.040  11.170  11.670 -0.7128 -2.6233 -1.9884
   12MOL0     H 1583   3.168  11.056  11.669 -2.3469 -0.9015 -1.0762
   12MOL0     H 1584   2.862  11.593  11.360 -1.0100  0.5794 -1.9898
   12MOL0     H 1585   2.685  11.749  11.441  1.7259 -0.0039  4.3046
   12MOL0     H 1586   2.511  11.854  11.609 -1.5706 -3.7964  3.2451
   12MOL0     H 1587   2.515  11.828  11.437  2.4324  1.4467  1.5982
   12MOL0     H 1588   2.262  11.812  11.597 -0.7077 -2.8936 -1.0767
   12MOL0     H 1589   2.336  11.975  11.542 -0.2866 -0.5251 -0.0132
   12MOL0     H 1590   2.144  11.883  11.391  0.3693  3.0229  2.3993
   12MOL0     H 1591   2.279  11.773  11.333 -0.4798 -0.6339  1.0386
   12MOL0     H 1592   2.238  12.073  11.354  2.4954  0.8262  1.7335
   12MOL0     H 1593   2.403  12.003  11.322 -0.6425  2.2592  2.3750
   12MOL0     H 1594   2.255  12.103  11.135  2.4668 -0.6397 -0.2853
   12MOL0     H 1595   2.172  11.932  11.148 -0.7569  0.9908  0.0766
   12MOL0     H 1596   2.465  11.991  11.104 -2.7442  2.2481  3.4032
   12MOL0     H 1597   2.382  11.829  11.116 -2.9261 -0.7558  1.0263
   12MOL0     H 1598   2.415  11.972  10.866 -0.7891 -0.2684 -1.2010
   12MOL0     H 1599   2.252  11.986  10.906 -1.1527 -2.0829 -0.5501
   12MOL0     H 1600   2.248  11.731  10.945 -2.0348  2.7433  1.4140
   12MOL0     H 1601   2.421  11.735  10.879 -0.3254  0.9112  3.2241
   12MOL0     H 1602   2.457  11.390  11.551  1.5360 -1.8290 -0.2615
   12MOL0     H 1603   2.629  11.251  11.451 -3.0088 -0.0196  0.5277
   12MOL0     H 1604   3.021  11.241  11.189 -1.8327 -0.2216  1.8596
   12MOL0     H 1605   3.209  11.140  11.099 -0.6157 -3.2187 -0.4575
   12MOL0     H 1606   3.588  10.805  11.282  0.4930  1.4217  2.4516
   12MOL0     H 1607   3.820  10.810  11.197  2.5629 -2.4874 -2.3549
   12MOL0     H 1608   4.270  10.711  11.354 -0.6473 -0.1678 -1.1147
   12MOL0     H 1609   4.515  10.703  11.303  1.7171  1.1574 -2.2840
   12MOL0     H 1610   4.623  10.422  10.979 -0.7757  0.3008 -0.6639
   12MOL0     H 1611   4.703  10.569  10.928 -1.1416  0.8927  0.4965
   12MOL0     H 1612   4.879  10.426  10.984  0.5486 -0.3019  0.1199
   12MOL0     H 1613   4.807  10.360  11.136 -0.6264  0.3243  0.9506
   12MOL0     H 1614   4.900  10.539  11.253 -0.7600 -1.0280 -0.2569
   12MOL0     H 1615   4.890  10.656  11.119 -0.3175 -0.4957 -1.5026
   12MOL0     H 1616   5.117  10.601  11.173 -1.1382  3.6106 -3.4654
   12MOL0     H 1617   5.084  10.571  11.010 -1.0118  0.8236  0.0645
   12MOL0     H 1618   5.138  10.173  11.211  1.1569 -0.2206 -1.1143
   12MOL0     H 1619   4.436  10.506  10.933  1.9686 -0.5171  1.1207
   12MOL0     H 1620   4.182  10.530  10.976  1.3016 -1.8913 -0.3091
   13MOL0     O 1621  10.116   2.184   3.538 -0.4280  0.3751  0.0581
   13MOL0     C 1622  10.112   2.247   3.637  0.0609 -0.0054 -0.8707
   13MOL0     O 1623   9.997   2.323   3.674 -0.5354 -0.2864  0.4815
   13MOL0     C 1624   9.869   2.313   3.604 -0.0662 -0.6822  0.3417
   13MOL0     C 1625   9.821   2.205   3.533 -1.3304  0.6452 -0.4147
   13MOL0     C 1626   9.697   2.218   3.474  0.1296  0.2765  0.7841
   13MOL0     C 1627   9.618   2.333   3.498  0.5033  0.0775 -0.8032
   13MOL0     O 1628   9.491   2.350   3.453  0.3880  0.3112 -0.0044
   13MOL0     C 1629   9.427   2.248   3.380  0.3260  0.0914 -0.2340
   13MOL0     C 1630   9.279   2.279   3.380 -0.4344  0.3009  0.0139
   13MOL0     C 1631   9.223   2.145   3.335  0.0850 -0.4658  0.2885
   13MOL0     C 1632   9.075   2.156   3.349  0.1899 -0.4732 -0.7730
   13MOL0     C 1633   9.007   2.037   3.301  0.3386  0.0459 -0.1270
   13MOL0     C 1634   8.862   2.053   3.332  0.1851  0.1523  0.4269
   13MOL0     C 1635   8.783   1.943   3.277  0.1087  0.0489  0.5032
   13MOL0     C 1636   8.634   1.978   3.285  0.0628  0.3959 -0.0615
   13MOL0     N 1637   8.546   1.886   3.204 -0.2250 -0.0848  0.0108
   13MOL0     C 1638   8.528   1.746   3.190 -0.3384  0.5674 -0.2205
   13MOL0     C 1639   8.425   1.730   3.109  0.2853  1.1859 -0.6058
   13MOL0     C 1640   8.363   1.591   3.068 -0.2334  0.0092  0.7475
   13MOL0     C 1641   8.209   1.584   3.080 -1.3071 -0.3254 -1.0490
   13MOL0     C 1642   8.173   1.580   3.229  0.1967  0.6619 -0.4203
   13MOL0     C 1643   8.025   1.564   3.239 -0.5090  0.2577  0.1758
   13MOL0     O 1644   7.951   1.656   3.159 -0.1835 -1.2247  0.6437
   13MOL0     C 1645   7.823   1.656   3.188  1.0563  0.0701  0.2485
   13MOL0     C 1646   7.752   1.564   3.269 -0.6450  0.0359 -0.4872
   13MOL0     C 1647   7.618   1.580   3.300  1.3240 -0.0655 -0.0278
   13MOL0     C 1648   7.564   1.481   3.401  0.1324  0.0424  0.3620
   13MOL0     C 1649   7.534   1.673   3.232  0.5699  0.3394 -0.2218
   13MOL0     C 1650   7.378   1.683   3.246 -0.6197  1.2657  0.3942
   13MOL0     O 1651   7.312   1.578   3.300 -0.0173 -0.1196  0.5260
   13MOL0     C 1652   7.175   1.581   3.299  0.1380 -0.2861  0.0226
   13MOL0     C 1653   7.097   1.559   3.181  1.1164  0.0185 -0.7511
   13MOL0     C 1654   6.957   1.565   3.192  0.1155 -0.3603 -0.2163
   13MOL0     C 1655   6.890   1.600   3.307 -0.3952 -0.2957  0.2302
   13MOL0     O 1656   6.751   1.605   3.290  0.3510  0.5676  0.4983
   13MOL0     C 1657   6.686   1.695   3.375  0.4369 -0.4432 -0.3808
   13MOL0     C 1658   6.535   1.685   3.362 -0.6417 -0.3047  0.4552
   13MOL0     C 1659   6.478   1.552   3.428 -0.3571  0.9118 -0.5978
   13MOL0     C 1660   6.326   1.542   3.412 -0.3663 -0.1102 -0.0142
   13MOL0     C 1661   6.260   1.433   3.494 -0.0153  0.0366 -0.1702
   13MOL0     C 1662   6.110   1.443   3.465  0.2463  0.3640 -0.7337
   13MOL0     C 1663   6.036   1.350   3.560  0.1979  0.6087 -0.2236
   13MOL0     C 1664   5.880   1.367   3.556 -0.0681  0.5461 -0.4564
   13MOL0    Cl 1665   5.810   1.352   3.381 -0.1838 -0.2036 -0.0089
   13MOL0     C 1666   6.961   1.617   3.426  0.4758 -0.1063 -0.1445
   13MOL0     C 1667   7.103   1.611   3.420  0.6360  0.6610 -0.1196
   13MOL0     O 1668   7.335   1.791   3.207 -0.4629  0.3318 -0.2414
   13MOL0     C 1669   7.604   1.753   3.142  0.0718 -0.2362  0.2786
   13MOL0     C 1670   7.745   1.753   3.115 -0.5382  0.0044  0.1396
   13MOL0     N 1671   8.390   1.852   3.060 -0.2153 -0.2234 -0.5709
   13MOL0     N 1672   8.455   1.946   3.120 -0.3062 -0.4885 -0.0910
   13MOL0     C 1673   9.662   2.435   3.574 -0.2634 -0.3406 -0.7655
   13MOL0     C 1674   9.791   2.430   3.626  0.6963 -0.2180  0.1308
   13MOL0     C 1675  10.235   2.248   3.726 -0.2882 -0.5788  0.7896
   13MOL0     C 1676  10.227   2.307   3.852 -1.0777 -0.0643 -0.4813
   13MOL0     C 1677  10.337   2.319   3.935  0.7585  0.3122 -1.0168
   13MOL0     C 1678  10.458   2.270   3.898 -0.2233 -0.1082  0.0099
   13MOL0     O 1679  10.562   2.287   3.989 -0.3699  0.5134  0.5130
   13MOL0     C 1680  10.699   2.243   3.949  1.2918  0.0297 -0.4615
   13MOL0     C 1681  10.715   2.090   3.972  0.4694 -0.3295  0.6134
   13MOL0     C 1682  10.656   2.043   4.110  0.0266 -0.2232 -0.4256
   13MOL0     C 1683  10.667   1.898   4.133 -0.0536  0.2393 -0.1637
   13MOL0     C 1684  10.810   1.844   4.119  0.1573  0.8053  0.6675
   13MOL0     C 1685  10.918   1.798   4.087 -0.4213  0.0562  0.5912
   13MOL0     C 1686  10.475   2.209   3.768  0.1820 -0.4737 -0.4912
   13MOL0     C 1687  10.360   2.195   3.687 -0.1672 -0.4752 -0.1763
   13MOL0     H 1688   9.874   2.111   3.526 -0.2396  1.1567  0.5710
   13MOL0     H 1689   9.664   2.131   3.418  3.3732 -1.3994  1.2273
   13MOL0     H 1690   9.452   2.248   3.274 -1.6207  3.8916 -0.8720
   13MOL0     H 1691   9.444   2.153   3.431 -1.2311  0.6165  1.3806
   13MOL0     H 1692   9.260   2.301   3.485 -1.0825  0.6741 -0.1772
   13MOL0     H 1693   9.240   2.363   3.323 -3.7537 -0.8729  0.3368
   13MOL0     H 1694   9.249   2.135   3.229 -0.5867  0.4513  0.0195
   13MOL0     H 1695   9.255   2.061   3.397 -3.7210  0.3213  3.7973
   13MOL0     H 1696   9.048   2.173   3.454 -0.8707  0.4725 -1.1808
   13MOL0     H 1697   9.038   2.243   3.294  1.0859  1.0028  0.8505
   13MOL0     H 1698   9.015   2.032   3.192  2.9273 -1.5490  0.0311
   13MOL0     H 1699   9.044   1.947   3.353 -2.0695 -1.8687 -1.5162
   13MOL0     H 1700   8.851   2.057   3.441  0.5521 -0.6769  0.4952
   13MOL0     H 1701   8.813   2.136   3.281 -4.3287 -2.4459 -0.0071
   13MOL0     H 1702   8.802   1.942   3.169 -0.1097 -0.5535  0.4667
   13MOL0     H 1703   8.802   1.844   3.320  0.7632  0.2824  0.7602
   13MOL0     H 1704   8.627   2.078   3.241  0.8257 -0.5375 -2.4655
   13MOL0     H 1705   8.599   1.973   3.389  2.1322  2.3663  0.8021
   13MOL0     H 1706   8.597   1.673   3.231  0.2648  1.4544  0.3740
   13MOL0     H 1707   8.385   1.562   2.965 -2.6900  1.4834 -0.2939
   13MOL0     H 1708   8.410   1.522   3.139  2.0922  2.7118  2.0714
   13MOL0     H 1709   8.183   1.491   3.029 -1.6748  0.0231 -1.5124
   13MOL0     H 1710   8.164   1.669   3.028 -1.7029 -0.3552 -0.7613
   13MOL0     H 1711   8.207   1.664   3.290 -1.8831  1.4359 -0.2296
   13MOL0     H 1712   8.221   1.496   3.280 -0.6142  1.0440  1.0563
   13MOL0     H 1713   7.994   1.573   3.344  0.4678  2.9675  0.2942
   13MOL0     H 1714   7.999   1.463   3.204 -2.3333  0.8731 -0.3522
   13MOL0     H 1715   7.796   1.472   3.307 -0.3772 -0.3340 -1.6633
   13MOL0     H 1716   7.648   1.448   3.463 -0.9051 -2.6903  0.4426
   13MOL0     H 1717   7.488   1.533   3.460  1.3107  2.5646 -0.2060
   13MOL0     H 1718   7.509   1.398   3.357  2.4013 -1.0718 -0.5455
   13MOL0     H 1719   7.145   1.546   3.085  3.1215  0.9204  0.0824
   13MOL0     H 1720   6.885   1.551   3.112 -1.1386 -1.3428  1.0175
   13MOL0     H 1721   6.690   1.663   3.480  1.1045 -0.4765 -0.4183
   13MOL0     H 1722   6.723   1.797   3.367  1.2540 -0.8884 -3.6605
   13MOL0     H 1723   6.489   1.775   3.405  0.1875  1.0885 -1.4608
   13MOL0     H 1724   6.508   1.680   3.257 -1.3993 -1.9285  0.6871
   13MOL0     H 1725   6.507   1.544   3.533 -1.5224 -1.1391 -0.3832
   13MOL0     H 1726   6.526   1.469   3.376  0.0069  1.3012 -0.8969
   13MOL0     H 1727   6.300   1.641   3.451  1.8922  0.2629  0.6933
   13MOL0     H 1728   6.292   1.531   3.308  0.0040 -0.3119 -0.1162
   13MOL0     H 1729   6.293   1.453   3.597  2.1913  3.2522 -1.3766
   13MOL0     H 1730   6.293   1.333   3.465  1.6188  0.2504  0.8305
   13MOL0     H 1731   6.074   1.546   3.475 -0.2143  0.2035 -0.7135
   13MOL0     H 1732   6.083   1.407   3.365 -0.9565  0.2356 -0.3750
   13MOL0     H 1733   6.080   1.361   3.660  1.7168  1.8847 -0.9930
   13MOL0     H 1734   6.057   1.247   3.529 -1.0748  0.7646 -1.6819
   13MOL0     H 1735   5.856   1.468   3.591  0.4130  0.2852  0.6934
   13MOL0     H 1736   5.830   1.296   3.623 -0.0226  0.5883 -0.3777
   13MOL0     H 1737   6.912   1.641   3.519  1.9433  1.1825  0.3322
   13MOL0     H 1738   7.163   1.633   3.508  1.9489 -2.4429 -0.1143
   13MOL0     H 1739   7.539   1.829   3.099 -1.1066 -1.5103 -0.2664
   13MOL0     H 1740   7.794   1.823   3.048  0.8841 -0.9578  0.1127
   13MOL0     H 1741   9.592   2.515   3.597  0.7942  0.2542  0.5460
   13MOL0     H 1742   9.840   2.516   3.672  3.8241 -1.1849 -1.1284
   13MOL0     H 1743  10.136   2.357   3.885  0.0279 -0.0045  2.8215
   13MOL0     H 1744  10.319   2.369   4.030  1.3694 -3.4334  1.3155
   13MOL0     H 1745  10.724   2.289   3.853  0.0701 -1.5767 -1.6377
   13MOL0     H 1746  10.777   2.286   4.012  0.3540  0.6081  0.3276
   13MOL0     H 1747  10.823   2.074   3.968  1.0793  3.1125  0.2880
   13MOL0     H 1748  10.659   2.037   3.894 -0.8651 -1.1171  2.0648
   13MOL0     H 1749  10.549   2.067   4.112 -0.2526 -1.3832 -0.8954
   13MOL0     H 1750  10.708   2.096   4.190 -0.9217  0.8240 -0.4650
   13MOL0     H 1751  10.612   1.846   4.053  2.9887  0.2237 -2.4153
   13MOL0     H 1752  10.627   1.857   4.226  2.0289 -1.1049  0.1997
   13MOL0     H 1753  11.017   1.766   4.061 -0.5938 -0.0664  0.0935
   13MOL0     H 1754  10.566   2.171   3.722  1.8393  0.2263  2.0222
   13MOL0     H 1755  10.365   2.147   3.589 -1.6085  2.6755 -1.9125
   14MOL0     O 1756   4.425   6.799   4.159 -0.4151 -0.2208  0.5113
   14MOL0     C 1757   4.539   6.820   4.111 -0.7488 -0.9523 -0.5801
   14MOL0     O 1758   4.567   6.891   4.003  0.0524 -0.3972  0.3455
   14MOL0     C 1759   4.461   6.951   3.935  0.3369  0.2941  0.2270
   14MOL0     C 1760   4.338   6.889   3.907  0.2502  0.2241  0.0471
   14MOL0     C 1761   4.229   6.957   3.857 -0.3130 -1.1251  0.5208
   14MOL0     C 1762   4.244   7.097   3.825  0.2315  0.6004  0.0174
   14MOL0     O 1763   4.144   7.177   3.783 -0.0078 -0.1286 -0.3438
   14MOL0     C 1764   4.010   7.139   3.815 -0.3060 -0.0116  0.0101
   14MOL0     C 1765   3.916   7.246   3.787  0.2728 -0.2992  0.0149
   14MOL0     C 1766   3.768   7.201   3.759 -0.3313 -0.7215 -0.2070
   14MOL0     C 1767   3.747   7.066   3.686  0.0723  0.1933  1.2763
   14MOL0     C 1768   3.608   7.067   3.639  0.0655  0.1881  0.6532
   14MOL0     C 1769   3.499   7.067   3.748  0.7159 -0.6579 -0.8197
   14MOL0     C 1770   3.360   7.037   3.693 -0.3362 -0.6901  0.2677
   14MOL0     C 1771   3.256   7.018   3.796  0.1730  0.6592 -0.4358
   14MOL0     N 1772   3.204   7.149   3.845 -0.0043  0.6369  0.8191
   14MOL0     C 1773   3.090   7.203   3.794 -0.1508 -0.8085  0.1586
   14MOL0     C 1774   3.048   7.296   3.886 -0.3674 -0.6099 -0.8937
   14MOL0     C 1775   2.925   7.388   3.871 -0.6483  0.1720  0.5905
   14MOL0     C 1776   2.958   7.498   3.772 -0.0521  0.1568 -0.0221
   14MOL0     C 1777   2.866   7.621   3.805 -0.7785 -0.7084  0.5266
   14MOL0     C 1778   2.731   7.637   3.713  0.1714 -0.2387 -0.1365
   14MOL0     O 1779   2.649   7.522   3.692 -0.2137 -0.1736  0.3942
   14MOL0     C 1780   2.553   7.493   3.785 -1.1769  0.0872  0.0468
   14MOL0     C 1781   2.448   7.580   3.812 -0.6035  0.4063  0.7226
   14MOL0     C 1782   2.339   7.550   3.895 -0.0011  0.1465 -0.1025
   14MOL0     C 1783   2.239   7.659   3.921  0.4245  0.6122  0.0525
   14MOL0     C 1784   2.320   7.420   3.944  0.1903 -0.4290 -0.3347
   14MOL0     C 1785   2.204   7.374   4.033  0.0854 -0.5856 -0.2058
   14MOL0     O 1786   2.086   7.432   4.009  0.0514 -0.4297  1.0677
   14MOL0     C 1787   1.993   7.411   4.098  0.6062  0.1746 -0.5037
   14MOL0     C 1788   1.987   7.493   4.219 -0.4779 -0.2326  0.2359
   14MOL0     C 1789   1.892   7.473   4.316 -0.1277  0.3760 -0.2190
   14MOL0     C 1790   1.788   7.377   4.298  0.7273 -0.3315  0.1841
   14MOL0     O 1791   1.704   7.355   4.409  0.5207 -0.1132  0.3168
   14MOL0     C 1792   1.588   7.263   4.393  0.8840  0.2500  1.2135
   14MOL0     C 1793   1.485   7.251   4.507 -0.0022  0.5802  0.1545
   14MOL0     C 1794   1.372   7.131   4.492 -0.0527  0.3845 -0.6146
   14MOL0     C 1795   1.280   7.142   4.609  0.5065 -1.0189 -0.4107
   14MOL0     C 1796   1.163   7.052   4.591  0.0490 -0.5458  0.0679
   14MOL0     C 1797   1.044   7.135   4.528 -0.5562  0.3470  0.4212
   14MOL0     C 1798   0.923   7.048   4.498  0.6319  0.3475 -1.1401
   14MOL0     C 1799   0.868   7.080   4.358 -0.8764  0.0731  0.4925
   14MOL0    Cl 1800   0.697   7.031   4.338  0.1406 -0.5244 -0.6660
   14MOL0     C 1801   1.791   7.296   4.182 -0.3277  0.4403 -0.5262
   14MOL0     C 1802   1.897   7.308   4.091  0.1387 -0.2289 -0.2596
   14MOL0     O 1803   2.221   7.281   4.108  0.0513  0.1947  0.1927
   14MOL0     C 1804   2.420   7.326   3.911  1.2402 -0.3554  0.3916
   14MOL0     C 1805   2.525   7.360   3.833  0.7309 -0.5556 -0.3135
   14MOL0     N 1806   3.148   7.304   3.987 -0.0743 -0.2117 -0.5436
   14MOL0     N 1807   3.228   7.201   3.968 -0.0843 -0.4203 -0.3543
   14MOL0     C 1808   4.372   7.152   3.842  0.4793 -0.0023  0.5994
   14MOL0     C 1809   4.475   7.080   3.893  0.2636  0.2364 -0.0576
   14MOL0     C 1810   4.658   6.768   4.171  0.9660 -0.0888 -0.9616
   14MOL0     C 1811   4.657   6.652   4.251  0.5672  0.0630 -0.3796
   14MOL0     C 1812   4.771   6.596   4.305  0.5020  0.7962 -0.1361
   14MOL0     C 1813   4.896   6.650   4.293 -0.6204 -0.2327 -0.2677
   14MOL0     O 1814   5.007   6.583   4.344  0.5466  0.0386 -0.5097
   14MOL0     C 1815   5.139   6.649   4.347  0.5965 -0.2965  0.0790
   14MOL0     C 1816   5.236   6.573   4.436 -0.3234 -0.1961  1.1408
   14MOL0     C 1817   5.361   6.663   4.461 -0.4038  0.6820 -0.0555
   14MOL0     C 1818   5.354   6.720   4.596  0.6124 -0.7725 -0.3792
   14MOL0     C 1819   5.251   6.832   4.611 -0.4664 -0.1297  0.2076
   14MOL0     C 1820   5.181   6.926   4.619  0.9013  0.0411 -0.1487
   14MOL0     C 1821   4.904   6.774   4.229  0.2982 -0.2235 -0.1195
   14MOL0     C 1822   4.793   6.824   4.163 -0.3886 -0.0057  0.9437
   14MOL0     H 1823   4.325   6.782   3.920  4.6704 -0.8238 -2.1994
   14MOL0     H 1824   4.135   6.903   3.847  0.1661 -2.0380  0.8606
   14MOL0     H 1825   3.980   7.058   3.747  0.2773  1.1232 -1.6703
   14MOL0     H 1826   4.003   7.103   3.918  1.2045 -2.4156 -0.6440
   14MOL0     H 1827   3.915   7.326   3.861  2.2309  0.0900 -0.3216
   14MOL0     H 1828   3.952   7.295   3.696  3.4027 -0.0852  1.2471
   14MOL0     H 1829   3.720   7.201   3.857  1.3140 -0.1628  0.6441
   14MOL0     H 1830   3.724   7.285   3.706  1.2011  1.2226  1.4355
   14MOL0     H 1831   3.821   7.059   3.607 -0.2005 -0.0810  1.0452
   14MOL0     H 1832   3.761   6.991   3.765  0.3628 -0.1582  0.8918
   14MOL0     H 1833   3.581   7.153   3.576 -2.2918 -1.1625 -0.3273
   14MOL0     H 1834   3.600   6.981   3.572 -0.4240 -0.6834  1.7920
   14MOL0     H 1835   3.523   6.984   3.816  0.8859 -0.4846 -0.6661
   14MOL0     H 1836   3.484   7.158   3.807 -1.4543 -2.3166  1.3724
   14MOL0     H 1837   3.321   7.118   3.631 -0.2670  0.0558  1.1815
   14MOL0     H 1838   3.371   6.950   3.627  0.5438 -0.5961  0.2838
   14MOL0     H 1839   3.280   6.949   3.878 -1.4470  0.5286 -0.0342
   14MOL0     H 1840   3.167   6.974   3.749  0.8468 -2.0879  0.6807
   14MOL0     H 1841   3.048   7.184   3.696  0.9004  0.6695 -0.6211
   14MOL0     H 1842   2.844   7.330   3.827  0.8601 -1.0603 -0.7067
   14MOL0     H 1843   2.905   7.420   3.974  0.6775 -0.1355  0.9603
   14MOL0     H 1844   2.944   7.472   3.666 -0.8461 -1.1100  0.3815
   14MOL0     H 1845   3.066   7.515   3.777  0.2956 -1.6771 -0.5052
   14MOL0     H 1846   2.927   7.708   3.777 -1.0915 -0.6143  0.1151
   14MOL0     H 1847   2.835   7.636   3.908  0.6802 -0.4857  0.9515
   14MOL0     H 1848   2.753   7.682   3.616 -3.5197  0.6719 -0.6893
   14MOL0     H 1849   2.667   7.714   3.758  0.8209 -0.7359  1.7366
   14MOL0     H 1850   2.440   7.670   3.753  0.4828  1.1731  1.7047
   14MOL0     H 1851   2.277   7.758   3.894 -2.2211  1.7048  0.0195
   14MOL0     H 1852   2.154   7.637   3.854  0.7757 -0.8690  0.0576
   14MOL0     H 1853   2.210   7.656   4.026 -0.7040 -2.5770 -0.2511
   14MOL0     H 1854   2.051   7.580   4.221 -0.4587 -0.2604  0.8525
   14MOL0     H 1855   1.879   7.528   4.409 -0.9153  1.5825 -1.0212
   14MOL0     H 1856   1.539   7.297   4.301  1.3907 -2.2076 -0.0526
   14MOL0     H 1857   1.626   7.163   4.371  2.7415  0.5580  2.7255
   14MOL0     H 1858   1.543   7.217   4.593 -0.3052 -1.2163 -0.3093
   14MOL0     H 1859   1.439   7.347   4.530 -0.7544 -0.1613  1.9191
   14MOL0     H 1860   1.425   7.036   4.488 -2.4087 -1.0235 -0.1761
   14MOL0     H 1861   1.311   7.151   4.404 -2.3713  0.0929  0.8364
   14MOL0     H 1862   1.324   7.117   4.706  0.4762 -0.0938 -0.1502
   14MOL0     H 1863   1.245   7.245   4.604 -0.5995 -1.4379 -2.1332
   14MOL0     H 1864   1.139   7.015   4.691  0.6838  2.0596  1.2673
   14MOL0     H 1865   1.190   6.959   4.540  3.0630 -0.1832  0.8233
   14MOL0     H 1866   1.038   7.224   4.591  0.0446  0.8503 -0.2122
   14MOL0     H 1867   1.086   7.176   4.436 -0.2601  1.3330  0.9786
   14MOL0     H 1868   0.851   7.078   4.575  1.2828 -1.6878  0.3270
   14MOL0     H 1869   0.947   6.942   4.506 -2.8635 -0.3725  3.2410
   14MOL0     H 1870   0.920   7.016   4.285 -0.8442 -0.3962  0.9245
   14MOL0     H 1871   0.884   7.188   4.345  0.6650  0.0366  1.7277
   14MOL0     H 1872   1.718   7.218   4.171 -1.7360  1.4692  1.0803
   14MOL0     H 1873   1.901   7.251   3.999 -1.3758 -0.7888 -0.0016
   14MOL0     H 1874   2.402   7.225   3.948 -2.1796  0.2644  0.7006
   14MOL0     H 1875   2.591   7.278   3.807 -0.4936 -1.7516  0.2062
   14MOL0     H 1876   4.380   7.258   3.819  0.9863 -0.1684  0.0080
   14MOL0     H 1877   4.574   7.124   3.893 -0.3623  1.7742  1.4299
   14MOL0     H 1878   4.569   6.593   4.274  2.1329 -0.9406  3.7742
   14MOL0     H 1879   4.777   6.506   4.365 -1.5850  1.9687  1.9849
   14MOL0     H 1880   5.186   6.651   4.249  0.4593 -0.8022 -0.0006
   14MOL0     H 1881   5.133   6.755   4.374  0.1734 -0.0375 -0.9685
   14MOL0     H 1882   5.277   6.486   4.385 -2.5805 -0.3450 -0.5773
   14MOL0     H 1883   5.198   6.533   4.531  0.7364 -2.1864  0.7755
   14MOL0     H 1884   5.372   6.729   4.375 -3.2263 -0.2608 -1.2656
   14MOL0     H 1885   5.456   6.609   4.475 -0.0510  1.2864 -0.1020
   14MOL0     H 1886   5.455   6.759   4.613  0.5830 -1.0924  0.5702
   14MOL0     H 1887   5.331   6.635   4.661  0.6848 -1.0240 -0.6787
   14MOL0     H 1888   5.119   7.013   4.624  1.2130  0.4153 -1.9835
   14MOL0     H 1889   4.995   6.833   4.222 -0.4312  1.4474  2.5974
   14MOL0     H 1890   4.800   6.915   4.105 -1.2260 -2.3394 -3.1740
   15MOL0     O 1891   7.352   2.204   3.572  0.5638 -0.1272 -0.5276
   15MOL0     C 1892   7.383   2.115   3.494  0.2125 -0.7338 -0.4528
   15MOL0     O 1893   7.298   2.015   3.456 -0.0912 -0.0466  0.1282
   15MOL0     C 1894   7.162   2.013   3.479  0.7054 -0.8525  0.1115
   15MOL0     C 1895   7.102   2.070   3.589 -0.8362  0.2753  0.0976
   15MOL0     C 1896   6.963   2.086   3.601  0.6327  0.0424  0.1077
   15MOL0     C 1897   6.878   2.050   3.499  0.7371  0.4076  0.7236
   15MOL0     O 1898   6.738   2.068   3.515 -0.6910  0.3423  0.2216
   15MOL0     C 1899   6.661   2.111   3.395 -0.1932  0.3329 -0.8487
   15MOL0     C 1900   6.696   2.252   3.356 -0.0724  0.4625 -0.2886
   15MOL0     C 1901   6.710   2.348   3.479  0.2423  0.6576  0.3341
   15MOL0     C 1902   6.690   2.502   3.443  0.2470  0.1358 -0.1367
   15MOL0     C 1903   6.691   2.599   3.564 -0.1036 -0.3210  0.0995
   15MOL0     C 1904   6.605   2.729   3.535 -0.1464 -0.6408  0.4150
   15MOL0     C 1905   6.628   2.795   3.400  0.4409  0.2326 -0.0727
   15MOL0     C 1906   6.528   2.904   3.367 -0.0932 -0.3789 -0.4424
   15MOL0     N 1907   6.388   2.858   3.360 -0.0076 -0.7266 -0.7691
   15MOL0     C 1908   6.316   2.833   3.249  0.1550  0.5599 -0.3197
   15MOL0     C 1909   6.182   2.822   3.287 -0.7211 -1.0100 -1.1215
   15MOL0     C 1910   6.067   2.833   3.199  0.3992 -0.5001 -0.0868
   15MOL0     C 1911   6.070   2.964   3.126  0.2124 -0.2866 -0.0343
   15MOL0     C 1912   5.943   3.002   3.051 -0.2985 -0.3239 -0.2755
   15MOL0     C 1913   5.951   3.152   3.027  0.3535 -0.6574  0.1635
   15MOL0     O 1914   5.919   3.220   3.148  0.5963  0.0500  0.2109
   15MOL0     C 1915   5.821   3.317   3.129 -0.1678  0.2648 -0.7851
   15MOL0     C 1916   5.845   3.447   3.073 -0.9262  0.8043 -0.2694
   15MOL0     C 1917   5.745   3.541   3.050 -0.1211  0.2170 -0.1618
   15MOL0     C 1918   5.791   3.673   2.979 -0.0200  0.0236  0.5661
   15MOL0     C 1919   5.609   3.516   3.091  0.0905 -0.2589  0.8214
   15MOL0     C 1920   5.492   3.614   3.075 -0.2606  0.1439 -0.1624
   15MOL0     O 1921   5.373   3.560   3.103  0.1133 -0.7605  0.3870
   15MOL0     C 1922   5.269   3.639   3.080  0.1591  0.4074 -0.7470
   15MOL0     C 1923   5.168   3.650   3.167 -0.6907 -0.0563  0.3949
   15MOL0     C 1924   5.050   3.723   3.146 -0.3896  0.0787  0.4833
   15MOL0     C 1925   5.027   3.786   3.022  0.1717 -0.3650 -0.9395
   15MOL0     O 1926   4.914   3.867   3.001 -0.1507  0.3748  0.4231
   15MOL0     C 1927   4.791   3.819   3.059  0.4377  0.0998 -1.0626
   15MOL0     C 1928   4.675   3.848   2.963  0.0294 -0.2704 -0.6414
   15MOL0     C 1929   4.537   3.799   3.017 -0.3496  0.3936 -0.4098
   15MOL0     C 1930   4.424   3.821   2.920  0.5782  0.0025  0.3981
   15MOL0     C 1931   4.296   3.833   2.991 -0.1483 -0.6621 -0.4933
   15MOL0     C 1932   4.188   3.915   2.911 -0.1729 -0.2842 -0.0182
   15MOL0     C 1933   4.230   4.070   2.924 -0.4782 -0.1441  0.0579
   15MOL0     C 1934   4.141   4.139   2.813  0.1815  0.7430 -0.1864
   15MOL0    Cl 1935   3.961   4.129   2.846  0.2662  0.3893 -0.0594
   15MOL0     C 1936   5.130   3.777   2.936 -0.0218  0.3185  0.1221
   15MOL0     C 1937   5.248   3.697   2.955  0.5362  0.0552  0.3155
   15MOL0     O 1938   5.517   3.729   3.048  0.1151 -0.5401  0.3210
   15MOL0     C 1939   5.587   3.384   3.126 -0.1927 -0.0332 -0.7234
   15MOL0     C 1940   5.690   3.283   3.145 -1.0156 -1.1292 -0.0983
   15MOL0     N 1941   6.184   2.847   3.418 -0.7589  1.0132 -0.6022
   15MOL0     N 1942   6.300   2.858   3.462  0.2834 -0.0089  0.1314
   15MOL0     C 1943   6.936   1.999   3.386  0.5978  1.0997 -1.1906
   15MOL0     C 1944   7.078   1.974   3.374  0.4224  0.6718 -0.1285
   15MOL0     C 1945   7.521   2.122   3.450 -0.5944  0.2117  0.2870
   15MOL0     C 1946   7.601   2.233   3.462 -0.1766 -0.8753  0.4450
   15MOL0     C 1947   7.732   2.240   3.425 -0.3702  0.6163 -0.0532
   15MOL0     C 1948   7.797   2.126   3.373 -0.0347  1.1895 -0.4882
   15MOL0     O 1949   7.931   2.143   3.327  0.2673 -0.0295  0.4439
   15MOL0     C 1950   7.974   2.060   3.213  0.3307  0.5616  0.1242
   15MOL0     C 1951   8.093   2.128   3.143 -0.4393  0.1615  0.0370
   15MOL0     C 1952   8.187   2.220   3.234 -0.6027 -0.1131  0.0213
   15MOL0     C 1953   8.266   2.145   3.347 -0.3982  0.2586 -0.3737
   15MOL0     C 1954   8.388   2.215   3.379 -0.3797  0.7148  0.6643
   15MOL0     C 1955   8.496   2.257   3.422  1.2413  0.6199  0.9584
   15MOL0     C 1956   7.720   2.010   3.359  0.0210 -0.0034  0.1416
   15MOL0     C 1957   7.583   2.006   3.404 -0.5511 -0.0091  0.0101
   15MOL0     H 1958   7.159   2.081   3.681 -0.1910  0.5755 -0.3382
   15MOL0     H 1959   6.923   2.122   3.696 -0.1378 -0.9915  0.1842
   15MOL0     H 1960   6.674   2.048   3.307 -1.8598  0.1038 -0.9732
   15MOL0     H 1961   6.554   2.109   3.421  0.0490 -2.2581  0.2564
   15MOL0     H 1962   6.792   2.260   3.304  0.5802  3.0186  1.1413
   15MOL0     H 1963   6.625   2.290   3.282  2.8845  0.9915 -3.0687
   15MOL0     H 1964   6.644   2.311   3.559  1.4905 -1.6359  0.3881
   15MOL0     H 1965   6.808   2.346   3.527 -0.9820 -0.0220  3.0315
   15MOL0     H 1966   6.770   2.521   3.371  1.7375 -1.5019  0.9985
   15MOL0     H 1967   6.598   2.517   3.385  1.7202  1.3808 -2.3056
   15MOL0     H 1968   6.654   2.543   3.650  0.3421 -0.6466  0.0849
   15MOL0     H 1969   6.795   2.628   3.584 -0.2356  2.1898 -2.1534
   15MOL0     H 1970   6.497   2.718   3.548 -0.4067  1.6511  0.5420
   15MOL0     H 1971   6.630   2.797   3.617 -1.9715 -0.6143  0.9881
   15MOL0     H 1972   6.730   2.831   3.386  0.5482 -0.6865 -1.8223
   15MOL0     H 1973   6.616   2.728   3.315 -0.2532 -0.7574  0.7802
   15MOL0     H 1974   6.566   2.953   3.276 -2.7536 -0.2834 -1.5889
   15MOL0     H 1975   6.532   2.977   3.448  2.4611  1.0993 -1.7641
   15MOL0     H 1976   6.363   2.841   3.151  0.4467  0.3345 -0.1997
   15MOL0     H 1977   6.072   2.750   3.128  0.7851 -0.2084 -0.4047
   15MOL0     H 1978   5.978   2.821   3.260 -0.0100  0.8556 -0.3842
   15MOL0     H 1979   6.136   2.942   3.041  0.4761  0.8507 -0.1387
   15MOL0     H 1980   6.114   3.038   3.193 -0.2629 -0.2011  0.1856
   15MOL0     H 1981   5.857   2.983   3.115 -0.7708 -2.0702 -1.3816
   15MOL0     H 1982   5.925   2.942   2.961 -2.7027 -0.1363  0.0146
   15MOL0     H 1983   5.885   3.177   2.944 -2.0653 -1.3026  1.7868
   15MOL0     H 1984   6.056   3.175   3.006  0.3902  0.8668  1.7609
   15MOL0     H 1985   5.940   3.463   3.023  0.8396 -0.0530  2.5225
   15MOL0     H 1986   5.730   3.691   2.890  3.4533 -0.0718 -2.0599
   15MOL0     H 1987   5.779   3.753   3.053 -0.2785 -3.1243  4.2805
   15MOL0     H 1988   5.891   3.663   2.937  0.3623  1.1700  1.1742
   15MOL0     H 1989   5.183   3.624   3.271 -0.7716  0.6538  0.5836
   15MOL0     H 1990   5.000   3.734   3.242 -0.5132  1.5808  0.2656
   15MOL0     H 1991   4.789   3.714   3.090  0.3748  0.9924  2.3391
   15MOL0     H 1992   4.777   3.863   3.158 -0.5910  0.9729 -1.5625
   15MOL0     H 1993   4.664   3.957   2.967 -2.7119 -0.3791 -2.6406
   15MOL0     H 1994   4.688   3.818   2.859  2.3648  0.7252 -0.6881
   15MOL0     H 1995   4.515   3.839   3.116  0.2718 -2.0798  0.7842
   15MOL0     H 1996   4.545   3.691   3.031  2.0229  0.4525 -0.8194
   15MOL0     H 1997   4.447   3.898   2.846  1.0279 -0.1807  0.3416
   15MOL0     H 1998   4.412   3.732   2.856  0.6959  0.2287  0.0575
   15MOL0     H 1999   4.313   3.887   3.085  0.2648 -1.6159 -0.0121
   15MOL0     H 2000   4.257   3.738   3.026  2.5610 -1.0306  1.8829
   15MOL0     H 2001   4.196   3.879   2.808 -0.4012  0.9275 -0.4760
   15MOL0     H 2002   4.087   3.895   2.949 -0.8467 -3.5879 -2.9698
   15MOL0     H 2003   4.335   4.089   2.901  0.5010  0.3099  4.0890
   15MOL0     H 2004   4.212   4.105   3.026 -2.1138 -1.0081  0.0999
   15MOL0     H 2005   4.159   4.091   2.717 -1.2406  2.2382 -1.2551
   15MOL0     H 2006   4.170   4.243   2.794 -0.6304  1.3547  1.6488
   15MOL0     H 2007   5.112   3.821   2.838  1.5680  0.6661 -0.0478
   15MOL0     H 2008   5.313   3.681   2.870 -3.1297 -0.2564 -2.6819
   15MOL0     H 2009   5.490   3.339   3.144  0.5814 -1.4423  0.1814
   15MOL0     H 2010   5.663   3.181   3.169  0.8826 -1.7976 -0.6750
   15MOL0     H 2011   6.880   1.970   3.298 -0.3481  0.4506 -0.4095
   15MOL0     H 2012   7.131   1.928   3.291  2.0967  0.9759  0.7372
   15MOL0     H 2013   7.564   2.332   3.487  0.9233 -0.4461  0.4495
   15MOL0     H 2014   7.790   2.332   3.421  1.4269 -0.4998 -1.1683
   15MOL0     H 2015   8.007   1.972   3.269 -0.7041  1.0473  1.5627
   15MOL0     H 2016   7.898   2.043   3.136  0.2547 -1.0790  0.5199
   15MOL0     H 2017   8.052   2.188   3.062 -0.5540 -3.2795 -2.6867
   15MOL0     H 2018   8.159   2.061   3.087  0.3622  1.4571 -0.6109
   15MOL0     H 2019   8.127   2.297   3.283  0.5054  0.5048  0.4488
   15MOL0     H 2020   8.258   2.262   3.162 -0.0617 -1.9690 -0.6010
   15MOL0     H 2021   8.291   2.042   3.320 -0.6381  0.6586 -2.2660
   15MOL0     H 2022   8.197   2.155   3.431 -0.9012 -1.2966 -0.5748
   15MOL0     H 2023   8.584   2.308   3.456  0.9610  2.1569 -0.4393
   15MOL0     H 2024   7.764   1.918   3.321 -0.9291 -0.4656  0.1160
   15MOL0     H 2025   7.531   1.911   3.396 -3.0612  1.0745  1.9722
   16MOL0     O 2026   7.856   2.191   4.906  0.8983 -1.0671 -0.3739
   16MOL0     C 2027   7.828   2.215   4.786  0.3428  0.3709 -0.4686
   16MOL0     O 2028   7.713   2.192   4.725  0.0819  0.4299  0.0490
   16MOL0     C 2029   7.617   2.131   4.800  0.1281 -0.0631  0.0304
   16MOL0     C 2030   7.625   2.002   4.861  0.5049  0.0708  0.2767
   16MOL0     C 2031   7.513   1.948   4.924  0.0518 -0.8098 -0.4094
   16MOL0     C 2032   7.396   2.021   4.929  0.2297 -0.1809 -0.9400
   16MOL0     O 2033   7.288   1.957   4.992 -0.4381 -0.4453  0.7036
   16MOL0     C 2034   7.161   1.966   4.933  0.6428 -0.4564 -0.4911
   16MOL0     C 2035   7.053   1.901   5.015  1.3535  0.0555  0.2990
   16MOL0     C 2036   6.916   1.898   4.946 -0.3228 -0.3957  0.6305
   16MOL0     C 2037   6.873   2.037   4.932  0.4389  0.2040 -0.2396
   16MOL0     C 2038   6.727   2.055   4.882 -0.0822  0.4046  0.2416
   16MOL0     C 2039   6.705   1.996   4.737  0.0816  0.2433 -0.2114
   16MOL0     C 2040   6.578   2.028   4.663 -0.2056 -0.2052  0.0722
   16MOL0     C 2041   6.449   2.014   4.745  0.6545 -0.9926 -0.3027
   16MOL0     N 2042   6.428   1.876   4.785  0.4367 -0.2641 -0.3674
   16MOL0     C 2043   6.348   1.796   4.709 -0.2396 -0.6497  0.0560
   16MOL0     C 2044   6.365   1.671   4.764  0.0053 -0.3100  0.6782
   16MOL0     C 2045   6.304   1.540   4.716  0.4343 -0.0899  0.1644
   16MOL0     C 2046   6.169   1.510   4.781 -0.1823 -1.0314  0.4217
   16MOL0     C 2047   6.060   1.586   4.701 -1.0030 -0.3352 -0.8709
   16MOL0     C 2048   5.929   1.583   4.780  0.5765  0.3332  0.2988
   16MOL0     O 2049   5.842   1.482   4.733 -0.1574  0.8368  0.5225
   16MOL0     C 2050   5.714   1.519   4.725  0.1345  0.3272 -0.0682
   16MOL0     C 2051   5.654   1.515   4.601  0.5761  0.3881 -0.4355
   16MOL0     C 2052   5.525   1.558   4.589  0.5234  0.4444  0.0901
   16MOL0     C 2053   5.462   1.563   4.451 -0.1437 -1.0993 -0.1557
   16MOL0     C 2054   5.449   1.615   4.705 -0.2046  0.4083 -0.4599
   16MOL0     C 2055   5.308   1.667   4.691 -0.5836  0.3219 -0.0740
   16MOL0     O 2056   5.267   1.763   4.776 -0.0856 -0.3508 -0.0423
   16MOL0     C 2057   5.145   1.823   4.749 -0.4490 -0.6611 -0.3259
   16MOL0     C 2058   5.150   1.960   4.781  0.7316  0.1594  0.0822
   16MOL0     C 2059   5.033   2.038   4.775 -0.6956  1.2031 -0.4977
   16MOL0     C 2060   4.918   1.984   4.720 -0.3301  0.7391  0.0960
   16MOL0     O 2061   4.803   2.053   4.699 -0.0080  1.0578 -0.0824
   16MOL0     C 2062   4.772   2.176   4.761 -0.1379  0.9715  0.3553
   16MOL0     C 2063   4.632   2.216   4.718 -1.5848  0.3247  0.7586
   16MOL0     C 2064   4.559   2.326   4.790 -0.5256  0.0765 -0.2618
   16MOL0     C 2065   4.420   2.339   4.730 -1.1533  0.5711 -0.1351
   16MOL0     C 2066   4.339   2.462   4.759  0.0995  0.3273 -0.5364
   16MOL0     C 2067   4.311   2.466   4.906  0.3623 -0.4356  0.2266
   16MOL0     C 2068   4.243   2.594   4.940  0.2270  0.0818 -0.6413
   16MOL0     C 2069   4.211   2.582   5.095  0.0067  0.2742 -0.0530
   16MOL0    Cl 2070   4.092   2.706   5.148  0.6280  0.4715 -0.4066
   16MOL0     C 2071   4.912   1.855   4.692 -0.6439  0.0540 -1.2240
   16MOL0     C 2072   5.022   1.773   4.701 -0.1874  0.7692 -0.3469
   16MOL0     O 2073   5.234   1.613   4.614 -0.0717  0.0423  0.6093
   16MOL0     C 2074   5.514   1.608   4.834 -0.4693 -0.5851  0.4375
   16MOL0     C 2075   5.645   1.561   4.843 -0.5627  0.1513  0.0484
   16MOL0     N 2076   6.428   1.687   4.890  0.5442 -0.5487 -0.2830
   16MOL0     N 2077   6.466   1.805   4.899 -0.3504  0.1403 -1.1545
   16MOL0     C 2078   7.385   2.148   4.868 -0.2143  0.6494  0.6887
   16MOL0     C 2079   7.497   2.197   4.809  0.5837 -0.3912  0.2323
   16MOL0     C 2080   7.938   2.283   4.711  0.1683 -1.1937  0.5769
   16MOL0     C 2081   8.069   2.293   4.770  0.4487  0.2418 -0.0929
   16MOL0     C 2082   8.174   2.344   4.692  0.1135  0.0388  0.3315
   16MOL0     C 2083   8.151   2.397   4.559  0.6552  0.4027  0.1859
   16MOL0     O 2084   8.234   2.476   4.484  0.0986  0.1085  0.5180
   16MOL0     C 2085   8.353   2.521   4.547  0.7743 -0.4383 -0.3061
   16MOL0     C 2086   8.465   2.428   4.555 -0.0397  0.5209 -0.6860
   16MOL0     C 2087   8.593   2.504   4.605 -0.2450 -0.0419 -0.1375
   16MOL0     C 2088   8.720   2.420   4.586 -0.0953  0.0391 -0.5495
   16MOL0     C 2089   8.837   2.492   4.649  0.2063  0.1842  0.0949
   16MOL0     C 2090   8.927   2.565   4.695  0.3369  0.5583  0.7638
   16MOL0     C 2091   8.016   2.399   4.513 -0.2379  0.0711 -0.1084
   16MOL0     C 2092   7.915   2.339   4.584  0.5118  0.2975  0.3010
   16MOL0     H 2093   7.715   1.941   4.856 -0.7673 -1.8203 -1.3108
   16MOL0     H 2094   7.535   1.853   4.972  0.7619  0.1221  1.1714
   16MOL0     H 2095   7.132   2.072   4.929  1.2514 -0.2269  0.7184
   16MOL0     H 2096   7.165   1.936   4.828 -0.7599 -1.6941 -0.2235
   16MOL0     H 2097   7.092   1.800   5.028  0.1177 -0.5168 -0.2561
   16MOL0     H 2098   7.038   1.941   5.116  1.3335 -1.3079  0.8554
   16MOL0     H 2099   6.923   1.855   4.846  2.0695  0.2966  0.4446
   16MOL0     H 2100   6.837   1.848   5.004 -1.7903  1.2758  0.1907
   16MOL0     H 2101   6.872   2.098   5.023 -1.9381  0.6547 -0.5062
   16MOL0     H 2102   6.944   2.084   4.863  2.2644 -0.1743  1.2734
   16MOL0     H 2103   6.665   2.010   4.960  1.3046 -0.7175  0.7151
   16MOL0     H 2104   6.700   2.162   4.885 -0.7646  0.3025 -1.2156
   16MOL0     H 2105   6.791   2.027   4.677  0.7576  0.6952  0.9343
   16MOL0     H 2106   6.701   1.887   4.738 -2.4907  0.2826 -0.2674
   16MOL0     H 2107   6.580   2.129   4.622  2.6839 -0.0873  0.3125
   16MOL0     H 2108   6.573   1.970   4.569 -2.6481  0.7874 -0.5067
   16MOL0     H 2109   6.365   2.063   4.694 -1.1794 -0.6852  2.7794
   16MOL0     H 2110   6.462   2.072   4.837  3.5440  2.2786 -2.5217
   16MOL0     H 2111   6.290   1.825   4.621 -3.5010  4.4021  3.2919
   16MOL0     H 2112   6.305   1.533   4.607  0.8529  1.3192  0.0600
   16MOL0     H 2113   6.364   1.453   4.747  1.9789  0.1788 -1.8729
   16MOL0     H 2114   6.161   1.542   4.886  1.4628 -1.7484  0.7958
   16MOL0     H 2115   6.145   1.404   4.776 -2.0760 -0.7652  2.2718
   16MOL0     H 2116   6.050   1.553   4.597 -2.3805  1.1585 -1.2468
   16MOL0     H 2117   6.098   1.688   4.693 -0.5868 -0.0275  3.0596
   16MOL0     H 2118   5.883   1.681   4.768 -1.5001 -0.2961  2.3020
   16MOL0     H 2119   5.932   1.580   4.890 -0.5571  0.9699  0.3582
   16MOL0     H 2120   5.719   1.500   4.515  0.9585  3.8372 -0.8854
   16MOL0     H 2121   5.394   1.478   4.453 -1.0562 -0.4030 -0.5207
   16MOL0     H 2122   5.404   1.656   4.442  0.1671 -0.6660  1.8759
   16MOL0     H 2123   5.539   1.557   4.374  0.7920 -1.7051  0.7994
   16MOL0     H 2124   5.243   1.996   4.824  0.6772 -0.6765  0.9452
   16MOL0     H 2125   5.032   2.144   4.799 -2.4124  1.7106 -2.4473
   16MOL0     H 2126   4.768   2.160   4.869 -0.9114  1.3322  0.3853
   16MOL0     H 2127   4.843   2.259   4.751  0.4151  0.4472 -0.2001
   16MOL0     H 2128   4.636   2.238   4.611 -3.5444  0.0571  0.5953
   16MOL0     H 2129   4.568   2.127   4.721 -2.7086  0.8679 -2.5384
   16MOL0     H 2130   4.616   2.420   4.794  0.1081 -0.2965 -0.4043
   16MOL0     H 2131   4.542   2.288   4.891 -0.0803 -1.4476 -0.7426
   16MOL0     H 2132   4.426   2.335   4.621 -2.3194 -1.0277 -0.1824
   16MOL0     H 2133   4.368   2.249   4.764 -1.0785  1.6144  3.0489
   16MOL0     H 2134   4.245   2.453   4.702  0.3675  0.8047 -1.0639
   16MOL0     H 2135   4.394   2.548   4.721 -2.1711  1.2683 -1.9397
   16MOL0     H 2136   4.243   2.384   4.929 -1.0439  0.1840 -1.4655
   16MOL0     H 2137   4.400   2.458   4.969 -0.1412  1.0103  1.1776
   16MOL0     H 2138   4.154   2.595   4.876 -0.8468 -1.3250  0.7694
   16MOL0     H 2139   4.312   2.679   4.931  1.8745 -1.1033  0.2445
   16MOL0     H 2140   4.301   2.584   5.158  0.7503  2.0256 -1.0922
   16MOL0     H 2141   4.165   2.485   5.115 -3.5929  1.7773 -0.3696
   16MOL0     H 2142   4.815   1.810   4.671 -0.4654 -1.4095  0.8244
   16MOL0     H 2143   5.018   1.667   4.682  0.0778  0.7207 -0.1299
   16MOL0     H 2144   5.470   1.654   4.921  0.5472  4.8952 -1.5596
   16MOL0     H 2145   5.701   1.559   4.936 -2.1101  2.2043  1.1135
   16MOL0     H 2146   7.293   2.206   4.868 -1.4722 -1.2243 -0.6063
   16MOL0     H 2147   7.475   2.286   4.751 -0.6706 -0.2847  0.8397
   16MOL0     H 2148   8.098   2.261   4.870  0.9129  0.9144 -0.0107
   16MOL0     H 2149   8.274   2.332   4.735 -0.0042 -2.1766  0.0747
   16MOL0     H 2150   8.381   2.607   4.485  2.4069 -0.7127  0.0106
   16MOL0     H 2151   8.340   2.563   4.647  0.7083 -2.8413  0.7547
   16MOL0     H 2152   8.481   2.383   4.456  0.1952  0.4229 -0.6053
   16MOL0     H 2153   8.451   2.341   4.620 -3.1407  1.6876  0.3809
   16MOL0     H 2154   8.584   2.531   4.710  5.1589  1.2495  0.2783
   16MOL0     H 2155   8.606   2.596   4.548  0.8034 -0.8957 -1.3460
   16MOL0     H 2156   8.728   2.426   4.477 -2.9033  2.6084 -0.7169
   16MOL0     H 2157   8.708   2.317   4.622  0.9852  0.0953  0.0061
   16MOL0     H 2158   9.020   2.609   4.725  1.4790 -1.1696 -0.0474
   16MOL0     H 2159   7.997   2.454   4.421 -0.3127  1.6163  0.7810
   16MOL0     H 2160   7.812   2.344   4.549 -0.6935  2.4119  3.7120
   17MOL0     O 2161   1.302  10.903   7.586 -0.4426 -0.1044 -0.1868
   17MOL0     C 2162   1.338  11.010   7.638  0.7708  0.5236 -0.5418
   17MOL0     O 2163   1.250  11.107   7.679 -0.6767  0.5879  0.0598
   17MOL0     C 2164   1.117  11.101   7.650 -0.1757  0.7613  0.6896
   17MOL0     C 2165   1.076  11.065   7.518 -0.2895  0.1043 -0.1899
   17MOL0     C 2166   0.939  11.061   7.486 -0.2730 -0.7083  0.3439
   17MOL0     C 2167   0.849  11.096   7.588  0.2182  0.5551  0.3427
   17MOL0     O 2168   0.713  11.095   7.564  0.4056  0.6867  0.0511
   17MOL0     C 2169   0.634  10.976   7.587  0.4240 -0.2101  0.5261
   17MOL0     C 2170   0.650  10.905   7.446  0.1933  1.0258  0.6403
   17MOL0     C 2171   0.621  10.989   7.316 -0.1084 -0.3423  0.5676
   17MOL0     C 2172   0.469  11.039   7.324 -1.3194 -0.6057 -0.1870
   17MOL0     C 2173   0.430  11.099   7.182  0.3137  0.0854 -0.7743
   17MOL0     C 2174   0.286  11.153   7.174 -0.0885 -0.8099  0.4106
   17MOL0     C 2175   0.181  11.041   7.212  0.1340 -0.3765 -0.4985
   17MOL0     C 2176   0.047  11.096   7.187  0.2039  0.3677 -0.6684
   17MOL0     N 2177   0.002  11.207   7.274  0.1991  0.2115  0.1534
   17MOL0     C 2178  -0.018  11.193   7.406  0.6332 -1.1951 -0.5637
   17MOL0     C 2179  -0.027  11.321   7.454 -0.6298  0.2243  0.1908
   17MOL0     C 2180  -0.043  11.360   7.592 -0.2731 -0.1908  0.3123
   17MOL0     C 2181  -0.169  11.299   7.657  0.8632 -0.0501  0.3582
   17MOL0     C 2182  -0.211  11.369   7.782  0.4727  0.0678 -1.1922
   17MOL0     C 2183  -0.320  11.294   7.855  0.1391 -0.3571  0.6249
   17MOL0     O 2184  -0.434  11.286   7.765  0.3632  0.0119  0.2239
   17MOL0     C 2185  -0.533  11.381   7.795 -0.2583  0.4696 -0.3869
   17MOL0     C 2186  -0.659  11.358   7.750  0.5101 -0.1407  0.7897
   17MOL0     C 2187  -0.769  11.445   7.751 -0.1353  0.3312 -0.6133
   17MOL0     C 2188  -0.902  11.404   7.698 -0.3671 -0.4045 -0.1167
   17MOL0     C 2189  -0.750  11.565   7.819 -0.6862  0.2222  0.2759
   17MOL0     C 2190  -0.854  11.670   7.836  0.2900 -0.3448 -0.2792
   17MOL0     O 2191  -0.982  11.631   7.835 -0.0956 -0.5254 -0.8724
   17MOL0     C 2192  -1.084  11.720   7.844 -0.7311 -0.0225  0.6329
   17MOL0     C 2193  -1.163  11.759   7.741 -0.2795 -0.0578  0.7942
   17MOL0     C 2194  -1.271  11.846   7.756 -0.6657  0.1364 -0.1572
   17MOL0     C 2195  -1.311  11.884   7.886 -0.8012 -0.0178  0.1751
   17MOL0     O 2196  -1.427  11.953   7.889 -0.8217  0.2806  0.7038
   17MOL0     C 2197  -1.422  12.083   7.964  0.1911  0.3032 -0.1471
   17MOL0     C 2198  -1.558  12.149   7.962 -0.4015  0.0404 -0.4404
   17MOL0     C 2199  -1.617  12.161   7.819  0.2734 -0.6816  0.1684
   17MOL0     C 2200  -1.756  12.230   7.834  0.0219 -0.3337  0.1218
   17MOL0     C 2201  -1.843  12.240   7.711  0.5861 -0.3315  0.4261
   17MOL0     C 2202  -1.974  12.312   7.741  0.6654  0.1288  0.3745
   17MOL0     C 2203  -2.088  12.277   7.640 -0.0064 -0.1047 -0.2302
   17MOL0     C 2204  -2.189  12.388   7.632  0.8849  0.2774 -0.1861
   17MOL0    Cl 2205  -2.316  12.305   7.557  0.6962 -0.1932  0.2957
   17MOL0     C 2206  -1.229  11.840   7.991 -0.3718 -0.1436  1.0382
   17MOL0     C 2207  -1.118  11.762   7.969  0.0406  0.8823 -0.8269
   17MOL0     O 2208  -0.819  11.787   7.854  0.5252 -1.1374 -1.2865
   17MOL0     C 2209  -0.628  11.594   7.876  0.1757 -0.2342 -0.4984
   17MOL0     C 2210  -0.519  11.506   7.855  0.8386  0.5372  0.2379
   17MOL0     N 2211   0.011  11.403   7.347  0.3814 -0.6810  0.1246
   17MOL0     N 2212   0.009  11.335   7.236  0.0853 -0.8104  0.2921
   17MOL0     C 2213   0.890  11.136   7.717 -0.1137 -0.2883  0.2189
   17MOL0     C 2214   1.020  11.135   7.746 -0.5108  0.4308 -0.5742
   17MOL0     C 2215   1.478  11.023   7.675  0.2645  0.2942  0.7852
   17MOL0     C 2216   1.575  10.927   7.633  0.2113  0.1107 -1.0996
   17MOL0     C 2217   1.707  10.926   7.679  1.0533 -0.5958 -0.0987
   17MOL0     C 2218   1.748  11.020   7.772  0.9979  0.8270  0.2402
   17MOL0     O 2219   1.879  11.031   7.802  0.1989 -0.6344  0.5787
   17MOL0     C 2220   1.925  11.143   7.878  0.5184 -0.5300 -0.7835
   17MOL0     C 2221   2.079  11.130   7.894  0.7065  0.6816  0.4495
   17MOL0     C 2222   2.147  11.124   7.750  0.2473  0.3460  0.1229
   17MOL0     C 2223   2.303  11.105   7.753  0.1558 -0.5454  0.0922
   17MOL0     C 2224   2.333  10.966   7.791  1.1046 -0.7197  1.2425
   17MOL0     C 2225   2.360  10.857   7.835 -0.2855  0.5935  1.3193
   17MOL0     C 2226   1.658  11.121   7.812  0.3128 -0.1716  0.0400
   17MOL0     C 2227   1.521  11.121   7.772  0.4236  0.4690  0.5114
   17MOL0     H 2228   1.153  11.066   7.442 -0.4729 -0.8288 -0.4013
   17MOL0     H 2229   0.915  11.055   7.380 -0.2237  0.2313  0.2698
   17MOL0     H 2230   0.673  10.937   7.682 -0.3975  2.3359  1.9850
   17MOL0     H 2231   0.535  11.017   7.610  1.5746  1.3679  3.0923
   17MOL0     H 2232   0.754  10.870   7.439  0.1233  0.8115  0.6502
   17MOL0     H 2233   0.585  10.817   7.449 -1.3255  2.1216  3.4182
   17MOL0     H 2234   0.685  11.078   7.307 -1.1403  0.4286  0.6215
   17MOL0     H 2235   0.636  10.940   7.219 -1.7606  1.4932 -0.7011
   17MOL0     H 2236   0.404  10.960   7.362 -4.2646  1.2941 -0.9882
   17MOL0     H 2237   0.456  11.123   7.392 -4.2015  1.7682 -3.3142
   17MOL0     H 2238   0.501  11.181   7.168 -0.7014  1.4310  1.4158
   17MOL0     H 2239   0.431  11.029   7.098  0.8519 -1.1178  0.1913
   17MOL0     H 2240   0.284  11.241   7.240  1.1702  0.4970 -1.2057
   17MOL0     H 2241   0.262  11.194   7.076  1.1396  1.5155  1.0061
   17MOL0     H 2242   0.195  10.950   7.153  4.2640 -1.5047  1.8472
   17MOL0     H 2243   0.187  11.011   7.317  2.6690  0.0080 -0.4710
   17MOL0     H 2244  -0.021  11.013   7.207 -0.0961  0.4657 -1.2473
   17MOL0     H 2245   0.040  11.116   7.079 -0.7046 -1.2927 -0.9481
   17MOL0     H 2246  -0.023  11.098   7.458 -1.7705 -1.0101 -0.3466
   17MOL0     H 2247   0.041  11.312   7.643 -1.9914 -0.5099  3.0374
   17MOL0     H 2248  -0.045  11.470   7.591 -1.1513 -0.0993 -3.7081
   17MOL0     H 2249  -0.148  11.194   7.679  2.6407  0.7389  2.9923
   17MOL0     H 2250  -0.250  11.306   7.584  2.4650 -1.7949 -1.7250
   17MOL0     H 2251  -0.236  11.472   7.754 -0.8119  0.2702  0.5744
   17MOL0     H 2252  -0.118  11.371   7.841  1.9302 -0.0440 -3.3553
   17MOL0     H 2253  -0.348  11.337   7.951 -1.3972  0.4101 -0.1263
   17MOL0     H 2254  -0.297  11.189   7.878  0.8897  0.2220  2.7200
   17MOL0     H 2255  -0.673  11.262   7.701  2.9975 -1.6413  2.7427
   17MOL0     H 2256  -0.902  11.308   7.647  2.5362 -0.6979  0.2526
   17MOL0     H 2257  -0.977  11.393   7.777 -1.2917  0.2119 -0.8899
   17MOL0     H 2258  -0.932  11.482   7.627 -0.5449  1.2395  1.6537
   17MOL0     H 2259  -1.142  11.722   7.641  0.4867 -0.2562  1.0188
   17MOL0     H 2260  -1.326  11.896   7.677 -2.1531  2.3639  2.1137
   17MOL0     H 2261  -1.393  12.069   8.069 -0.1014  0.7888  0.0013
   17MOL0     H 2262  -1.355  12.154   7.915 -0.2124  1.2881  0.6868
   17MOL0     H 2263  -1.631  12.095   8.023 -1.4354  1.2975 -0.5129
   17MOL0     H 2264  -1.540  12.242   8.016  3.1090 -0.6314 -0.2225
   17MOL0     H 2265  -1.635  12.065   7.771 -2.1714  0.3861 -1.2283
   17MOL0     H 2266  -1.546  12.215   7.756  1.7379 -0.6797  1.7499
   17MOL0     H 2267  -1.816  12.167   7.900 -1.6918  0.1794 -0.8701
   17MOL0     H 2268  -1.731  12.328   7.875 -2.0655 -0.2129  1.2574
   17MOL0     H 2269  -1.859  12.139   7.672 -0.2572 -0.3631  0.8188
   17MOL0     H 2270  -1.786  12.287   7.630 -1.6446  0.5376 -0.7455
   17MOL0     H 2271  -2.003  12.271   7.838  2.0873  1.0790  1.2356
   17MOL0     H 2272  -1.955  12.420   7.745 -1.2553  0.5396 -0.2601
   17MOL0     H 2273  -2.131  12.188   7.686  3.8483  0.3091  5.1933
   17MOL0     H 2274  -2.057  12.251   7.539 -2.2289  2.2124 -1.6359
   17MOL0     H 2275  -2.161  12.474   7.570 -0.0690  0.7797  0.0617
   17MOL0     H 2276  -2.210  12.420   7.734  0.8230 -2.0407  0.5958
   17MOL0     H 2277  -1.244  11.872   8.094  1.8060 -0.1252  1.3955
   17MOL0     H 2278  -1.058  11.733   8.055  0.3961 -0.0866 -1.3868
   17MOL0     H 2279  -0.599  11.685   7.927 -0.3696  2.4807 -4.5692
   17MOL0     H 2280  -0.421  11.539   7.889  1.0429  0.5391 -0.3319
   17MOL0     H 2281   0.813  11.169   7.785 -0.0174  0.1212  0.1320
   17MOL0     H 2282   1.056  11.154   7.847 -2.0281 -1.4466  0.3930
   17MOL0     H 2283   1.553  10.849   7.560 -0.6022  0.0619 -0.8130
   17MOL0     H 2284   1.780  10.856   7.639  0.6966 -0.7883 -0.4234
   17MOL0     H 2285   1.901  11.239   7.832  0.2684  0.2146  0.8470
   17MOL0     H 2286   1.876  11.140   7.976 -1.8487 -2.5805 -1.9059
   17MOL0     H 2287   2.094  11.036   7.949 -2.7174  1.3208  2.7567
   17MOL0     H 2288   2.119  11.208   7.959 -1.2422  0.2727  2.2326
   17MOL0     H 2289   2.129  11.222   7.703 -0.0872 -0.9927 -2.7429
   17MOL0     H 2290   2.107  11.040   7.693  1.4224 -1.2468  1.5516
   17MOL0     H 2291   2.346  11.168   7.832 -1.3000 -0.6110  0.9779
   17MOL0     H 2292   2.342  11.126   7.653 -0.3649 -1.4936 -0.3222
   17MOL0     H 2293   2.373  10.761   7.879 -0.7602 -0.9623 -1.6639
   17MOL0     H 2294   1.681  11.206   7.875  1.7695 -1.2662  1.0743
   17MOL0     H 2295   1.449  11.195   7.804 -1.3440 -0.7218 -0.5322
   18MOL0     O 2296   1.155  10.786   6.087 -0.5054 -0.4945 -0.4822
   18MOL0     C 2297   1.211  10.692   6.036  0.1805  0.8375  0.6374
   18MOL0     O 2298   1.153  10.592   5.969  0.0975 -0.8871  0.3733
   18MOL0     C 2299   1.021  10.602   5.941 -0.2079  0.6513 -0.0693
   18MOL0     C 2300   0.930  10.509   5.979 -0.0741  0.2978  0.0844
   18MOL0     C 2301   0.799  10.516   5.932  1.1874  0.4739 -1.0648
   18MOL0     C 2302   0.763  10.603   5.825 -0.0091  0.2046 -1.2566
   18MOL0     O 2303   0.641  10.579   5.761 -0.3900 -0.6061  0.5244
   18MOL0     C 2304   0.622  10.634   5.632 -1.1113 -0.5210  0.2961
   18MOL0     C 2305   0.484  10.599   5.569  0.0709 -0.8186 -0.7690
   18MOL0     C 2306   0.356  10.642   5.646  0.2258 -0.6049 -0.0684
   18MOL0     C 2307   0.236  10.672   5.551  0.1542  0.0276 -0.2177
   18MOL0     C 2308   0.096  10.701   5.616  0.0190 -0.0467 -0.0592
   18MOL0     C 2309  -0.021  10.726   5.509 -1.0232  0.2372  0.8185
   18MOL0     C 2310  -0.157  10.745   5.580  1.0440  0.3081  0.3604
   18MOL0     C 2311  -0.174  10.889   5.640  0.0445  0.8049 -0.4859
   18MOL0     N 2312  -0.141  10.998   5.556 -0.0591 -0.6749 -0.1319
   18MOL0     C 2313  -0.205  11.012   5.440 -1.0758  0.1595  0.1870
   18MOL0     C 2314  -0.165  11.130   5.396  0.5104  0.1379  1.2867
   18MOL0     C 2315  -0.202  11.198   5.264  0.8299  0.7504  0.4101
   18MOL0     C 2316  -0.350  11.212   5.256  0.2552 -0.7628 -0.1226
   18MOL0     C 2317  -0.393  11.298   5.131 -0.7107 -0.2755 -0.0215
   18MOL0     C 2318  -0.545  11.283   5.108  0.0016 -0.6542  0.4073
   18MOL0     O 2319  -0.620  11.369   5.200 -0.2861 -0.0244  0.4188
   18MOL0     C 2320  -0.756  11.360   5.196  0.4174  0.0227  0.1264
   18MOL0     C 2321  -0.833  11.282   5.104  0.1453 -0.8365  0.2538
   18MOL0     C 2322  -0.976  11.284   5.116  0.5708  0.1109  0.2160
   18MOL0     C 2323  -1.048  11.226   5.006 -0.3346 -0.4522  0.3650
   18MOL0     C 2324  -1.036  11.357   5.219  0.5437 -0.5227  0.3148
   18MOL0     C 2325  -1.174  11.374   5.224  0.2236 -0.0554  0.1488
   18MOL0     O 2326  -1.239  11.422   5.122  0.5535  0.2979 -0.3507
   18MOL0     C 2327  -1.362  11.466   5.137 -1.3886 -0.1315  0.0117
   18MOL0     C 2328  -1.444  11.433   5.028 -0.9294 -0.1015  0.2276
   18MOL0     C 2329  -1.579  11.461   5.037  0.4670  0.4401  0.0579
   18MOL0     C 2330  -1.637  11.511   5.149  0.3735 -0.1657 -0.4398
   18MOL0     O 2331  -1.773  11.539   5.165 -0.4524 -0.0376  0.0789
   18MOL0     C 2332  -1.863  11.461   5.087  0.3210 -0.6398 -0.3438
   18MOL0     C 2333  -1.984  11.472   5.170  0.2679 -0.1940 -0.3316
   18MOL0     C 2334  -2.068  11.604   5.138  0.1813  0.4488 -0.7109
   18MOL0     C 2335  -2.202  11.592   5.197  0.3586 -0.1775  0.5735
   18MOL0     C 2336  -2.277  11.727   5.160 -0.0193  0.0658  0.5583
   18MOL0     C 2337  -2.415  11.734   5.227 -0.6101 -0.0238  0.7127
   18MOL0     C 2338  -2.511  11.630   5.182 -0.9138  0.1861  0.5362
   18MOL0     C 2339  -2.555  11.625   5.043  0.6478  0.0005  0.5579
   18MOL0    Cl 2340  -2.611  11.782   4.986 -0.1009 -0.2435 -0.0457
   18MOL0     C 2341  -1.551  11.555   5.248 -0.0482 -0.8252 -0.1248
   18MOL0     C 2342  -1.411  11.532   5.250  0.1067 -0.0486 -0.7126
   18MOL0     O 2343  -1.220  11.342   5.331 -0.4288 -0.6681 -0.7524
   18MOL0     C 2344  -0.951  11.408   5.318 -0.9753  0.2980  0.3059
   18MOL0     C 2345  -0.812  11.410   5.301  0.2012 -0.2377 -1.4193
   18MOL0     N 2346  -0.074  11.194   5.488 -0.2529  0.9695  0.4193
   18MOL0     N 2347  -0.066  11.104   5.588  0.0108 -0.1530  0.1927
   18MOL0     C 2348   0.857  10.697   5.792  0.0128 -1.1278  0.0988
   18MOL0     C 2349   0.980  10.698   5.848 -0.9476 -0.0195 -0.0434
   18MOL0     C 2350   1.354  10.685   6.060  0.0310  0.3333 -0.1542
   18MOL0     C 2351   1.414  10.557   6.063  0.2969  0.2011 -0.3574
   18MOL0     C 2352   1.552  10.545   6.076 -0.6432  0.0805  0.1476
   18MOL0     C 2353   1.631  10.662   6.092  0.3576 -0.2091 -0.0766
   18MOL0     O 2354   1.769  10.646   6.101 -0.5821  0.0633 -0.0783
   18MOL0     C 2355   1.847  10.747   6.166 -0.7335  0.4494 -0.3917
   18MOL0     C 2356   1.989  10.704   6.190 -0.3615  0.1955 -0.9628
   18MOL0     C 2357   2.076  10.683   6.067 -0.6011 -0.4162  0.4242
   18MOL0     C 2358   2.220  10.647   6.091  0.4320 -0.1358  0.7084
   18MOL0     C 2359   2.304  10.755   6.139 -0.0772  0.0863 -0.8335
   18MOL0     C 2360   2.377  10.828   6.211 -1.1661 -0.8054 -0.1661
   18MOL0     C 2361   1.570  10.792   6.089 -0.4138  0.2803 -0.6000
   18MOL0     C 2362   1.430  10.796   6.083 -0.5782 -0.6916  0.7982
   18MOL0     H 2363   0.964  10.436   6.051  0.2841  1.7119  1.4104
   18MOL0     H 2364   0.725  10.446   5.971  0.5170  2.8226  2.3093
   18MOL0     H 2365   0.637  10.742   5.623  1.1581 -0.7366  0.8825
   18MOL0     H 2366   0.692  10.587   5.562  0.1466  0.3616  0.9210
   18MOL0     H 2367   0.483  10.637   5.467  1.0719 -2.4015 -1.4026
   18MOL0     H 2368   0.482  10.490   5.561  0.3977 -0.7718 -1.6035
   18MOL0     H 2369   0.331  10.558   5.713 -1.7155 -0.3468 -0.4086
   18MOL0     H 2370   0.368  10.737   5.699 -1.2867  0.7566 -2.0235
   18MOL0     H 2371   0.262  10.756   5.486 -0.2941 -0.9249 -1.6707
   18MOL0     H 2372   0.227  10.582   5.491  0.4377 -1.0802  1.3402
   18MOL0     H 2373   0.069  10.613   5.674  1.1960 -1.1428 -1.1103
   18MOL0     H 2374   0.117  10.782   5.687  0.8507  0.2812 -0.6686
   18MOL0     H 2375   0.000  10.801   5.433  2.3254 -0.4707  0.8687
   18MOL0     H 2376  -0.024  10.634   5.449 -1.5731  0.4652  0.4928
   18MOL0     H 2377  -0.243  10.739   5.513  1.1751 -1.8738  0.3057
   18MOL0     H 2378  -0.171  10.662   5.650 -0.3490 -1.8145 -2.2133
   18MOL0     H 2379  -0.114  10.899   5.731 -2.3239  2.5645  0.9781
   18MOL0     H 2380  -0.277  10.910   5.668  0.6189  3.1419  0.0403
   18MOL0     H 2381  -0.268  10.945   5.383 -0.8298 -1.5592  1.8600
   18MOL0     H 2382  -0.153  11.294   5.246 -1.3167  1.6591 -1.1710
   18MOL0     H 2383  -0.175  11.136   5.178  0.6260  1.1729  0.0333
   18MOL0     H 2384  -0.388  11.252   5.351  0.4852 -0.6225 -0.0897
   18MOL0     H 2385  -0.389  11.110   5.254 -1.0646 -0.3614  2.0617
   18MOL0     H 2386  -0.331  11.268   5.046  1.8747 -0.6979  1.8631
   18MOL0     H 2387  -0.373  11.405   5.145  0.2583 -0.2784 -1.2177
   18MOL0     H 2388  -0.564  11.177   5.126 -2.3007 -0.5032 -0.7080
   18MOL0     H 2389  -0.574  11.308   5.005 -1.2195  3.4992  1.5341
   18MOL0     H 2390  -0.780  11.236   5.022  1.8437 -0.7956  1.2767
   18MOL0     H 2391  -1.117  11.160   5.060 -0.7211  0.8572  1.5307
   18MOL0     H 2392  -1.104  11.295   4.942 -0.6742 -1.1095 -0.0550
   18MOL0     H 2393  -0.983  11.165   4.943 -0.5200 -0.0599 -0.2132
   18MOL0     H 2394  -1.399  11.391   4.939 -0.8049  1.4830 -0.4907
   18MOL0     H 2395  -1.640  11.437   4.951  1.9047  1.0384 -1.1766
   18MOL0     H 2396  -1.874  11.496   4.985 -0.7807 -2.5931 -0.9474
   18MOL0     H 2397  -1.825  11.359   5.098  2.8434  0.2941  0.4696
   18MOL0     H 2398  -2.043  11.385   5.144  0.6861 -0.9071  1.0164
   18MOL0     H 2399  -1.968  11.461   5.277 -5.8311 -0.5906  0.8583
   18MOL0     H 2400  -2.070  11.607   5.028  4.6159 -3.8574 -1.2483
   18MOL0     H 2401  -2.025  11.690   5.190 -1.3070  1.0427 -0.4240
   18MOL0     H 2402  -2.251  11.509   5.145 -1.6901  0.9856  0.5540
   18MOL0     H 2403  -2.203  11.574   5.305  2.4361  3.7318  1.4287
   18MOL0     H 2404  -2.286  11.725   5.051  0.1613 -3.2223  0.5090
   18MOL0     H 2405  -2.207  11.809   5.180  2.2524 -0.6778 -3.2030
   18MOL0     H 2406  -2.403  11.721   5.335  1.0501 -1.1229  0.4381
   18MOL0     H 2407  -2.455  11.831   5.198  1.4471  1.4752  2.5639
   18MOL0     H 2408  -2.605  11.643   5.238 -0.8123 -1.1939  1.0707
   18MOL0     H 2409  -2.477  11.531   5.214  1.7435  0.6964 -0.5021
   18MOL0     H 2410  -2.639  11.557   5.025  0.2177  0.3851  1.1067
   18MOL0     H 2411  -2.474  11.576   4.988 -2.3328 -1.7781 -2.6728
   18MOL0     H 2412  -1.586  11.606   5.337 -0.8719 -3.6906  1.2963
   18MOL0     H 2413  -1.349  11.575   5.328 -1.0308 -1.8299  1.2870
   18MOL0     H 2414  -0.980  11.463   5.406  2.3899  1.9705  0.5281
   18MOL0     H 2415  -0.741  11.449   5.373 -1.0140  2.7013 -1.6837
   18MOL0     H 2416   0.833  10.772   5.716  0.0250 -1.4116 -0.1875
   18MOL0     H 2417   1.056  10.772   5.821  0.2149 -0.5570  1.5938
   18MOL0     H 2418   1.355  10.466   6.059  0.0191  0.3221  0.7673
   18MOL0     H 2419   1.611  10.454   6.063 -2.5929 -0.9598 -2.1351
   18MOL0     H 2420   1.840  10.832   6.098 -0.9699  0.7635  0.0247
   18MOL0     H 2421   1.799  10.768   6.262  1.7026 -0.5906  1.1425
   18MOL0     H 2422   1.981  10.612   6.249 -2.8074  1.1437  0.3240
   18MOL0     H 2423   2.042  10.776   6.253 -0.1047  0.6837 -1.7303
   18MOL0     H 2424   2.064  10.769   6.001 -1.0956  0.1550  1.2493
   18MOL0     H 2425   2.035  10.598   6.010  2.0748 -0.6625 -1.2940
   18MOL0     H 2426   2.270  10.616   5.998 -0.0795 -3.0572  1.2972
   18MOL0     H 2427   2.227  10.553   6.147  0.3369 -0.5421  0.0632
   18MOL0     H 2428   2.451  10.886   6.261 -1.0152 -1.1929  0.0649
   18MOL0     H 2429   1.626  10.883   6.107 -1.1807  0.1637  3.0343
   18MOL0     H 2430   1.382  10.891   6.102  0.1214 -0.0857 -0.3599
   19MOL0     O 2431   2.705   8.299   1.978 -0.0493 -0.9688 -0.2420
   19MOL0     C 2432   2.745   8.188   1.946  0.6218 -0.0613  0.3264
   19MOL0     O 2433   2.670   8.076   1.923  0.3152 -0.4574  0.2410
   19MOL0     C 2434   2.534   8.069   1.941  0.0548 -0.0680  0.1680
   19MOL0     C 2435   2.481   7.953   1.876  0.9632 -0.1495  0.9086
   19MOL0     C 2436   2.345   7.912   1.894 -0.4627 -0.7052 -0.2910
   19MOL0     C 2437   2.262   7.992   1.978  0.0763 -0.0398 -0.5974
   19MOL0     O 2438   2.125   7.967   1.991 -0.1776  0.0855  0.2187
   19MOL0     C 2439   2.064   7.849   1.930  0.0194  0.4114 -0.3545
   19MOL0     C 2440   1.911   7.864   1.946 -0.1780  0.7935 -0.0576
   19MOL0     C 2441   1.831   7.880   1.816  0.0420  0.4172 -0.4667
   19MOL0     C 2442   1.829   8.027   1.782  0.0642  0.9322  0.3492
   19MOL0     C 2443   1.719   8.048   1.674  0.2539  0.5984 -0.2222
   19MOL0     C 2444   1.666   8.191   1.679 -0.7714  0.3435 -0.1574
   19MOL0     C 2445   1.573   8.226   1.787 -0.6877  0.5248  0.1456
   19MOL0     C 2446   1.565   8.376   1.786  0.0363 -0.3067 -0.1908
   19MOL0     N 2447   1.532   8.438   1.914  0.8440 -0.2006 -0.2109
   19MOL0     C 2448   1.408   8.446   1.978 -0.3782  0.0187 -0.2886
   19MOL0     C 2449   1.421   8.544   2.071  0.3602  0.4605 -0.2823
   19MOL0     C 2450   1.313   8.592   2.165  0.4681  1.0302 -0.8894
   19MOL0     C 2451   1.242   8.485   2.251 -0.5096  0.1870  0.0341
   19MOL0     C 2452   1.347   8.412   2.328 -0.1391  0.1797 -0.7126
   19MOL0     C 2453   1.284   8.307   2.424 -0.1101  0.9935 -0.3833
   19MOL0     O 2454   1.227   8.200   2.345  0.8584  0.0778  0.8023
   19MOL0     C 2455   1.094   8.219   2.301  1.3688  0.6940 -0.5480
   19MOL0     C 2456   1.052   8.133   2.201  0.4845 -0.4584  0.1076
   19MOL0     C 2457   0.919   8.130   2.160 -0.2734  0.4891  0.7101
   19MOL0     C 2458   0.886   8.020   2.063 -0.1333 -0.8192 -0.2801
   19MOL0     C 2459   0.821   8.221   2.210 -0.6869 -0.4734  1.0141
   19MOL0     C 2460   0.675   8.220   2.195  0.4600 -0.5520  0.4378
   19MOL0     O 2461   0.597   8.298   2.275 -0.0538 -0.4528  0.5287
   19MOL0     C 2462   0.464   8.296   2.249  0.8099  0.0268  0.2071
   19MOL0     C 2463   0.406   8.365   2.141  0.2531 -0.7863  0.0157
   19MOL0     C 2464   0.261   8.368   2.120 -0.2952  0.0314  0.1692
   19MOL0     C 2465   0.175   8.311   2.210 -0.1463 -0.5057  0.3000
   19MOL0     O 2466   0.038   8.307   2.201 -0.2961  0.3781  0.0200
   19MOL0     C 2467  -0.028   8.392   2.103  0.5110  0.3619 -0.4038
   19MOL0     C 2468  -0.182   8.371   2.112  0.5691  0.2165 -0.8613
   19MOL0     C 2469  -0.232   8.488   2.024 -0.7623  0.0191 -0.0826
   19MOL0     C 2470  -0.388   8.481   2.014 -1.0239 -0.4758  0.1026
   19MOL0     C 2471  -0.439   8.606   1.931  0.3926  0.4490  0.9040
   19MOL0     C 2472  -0.424   8.739   2.002 -0.0699  0.6034  0.5113
   19MOL0     C 2473  -0.479   8.857   1.921 -0.1947  0.0136 -0.1526
   19MOL0     C 2474  -0.395   8.891   1.793  0.0845 -0.1283 -0.1887
   19MOL0    Cl 2475  -0.417   9.063   1.743  0.1463 -0.4522 -0.2616
   19MOL0     C 2476   0.234   8.247   2.320 -0.5100  0.6273  0.9618
   19MOL0     C 2477   0.376   8.237   2.336  0.7363  0.1651 -0.5705
   19MOL0     O 2478   0.634   8.155   2.102 -0.4582 -0.1311  0.3989
   19MOL0     C 2479   0.872   8.319   2.300  0.1040 -0.2923  0.5119
   19MOL0     C 2480   1.008   8.315   2.345 -0.2213  0.6202  0.3049
   19MOL0     N 2481   1.551   8.591   2.068  0.2551 -0.2939 -0.0690
   19MOL0     N 2482   1.617   8.534   1.973 -0.3948 -0.1814  0.2545
   19MOL0     C 2483   2.317   8.104   2.046 -1.4258 -1.2702 -0.1877
   19MOL0     C 2484   2.452   8.150   2.022 -0.2985  0.4973 -0.5290
   19MOL0     C 2485   2.892   8.170   1.918 -0.1131 -0.0918  0.1221
   19MOL0     C 2486   2.976   8.282   1.909  0.7231  0.7837  0.0507
   19MOL0     C 2487   3.108   8.262   1.888  1.2211  0.1128  0.0626
   19MOL0     C 2488   3.167   8.133   1.882  0.3306 -0.2612 -0.5805
   19MOL0     O 2489   3.298   8.099   1.866  0.4891  0.1508  0.2606
   19MOL0     C 2490   3.394   8.199   1.879 -0.3545 -0.0443  0.2388
   19MOL0     C 2491   3.534   8.147   1.877 -0.0827  0.1607 -0.6531
   19MOL0     C 2492   3.551   8.021   1.961  0.6251 -0.1390 -0.7628
   19MOL0     C 2493   3.694   7.979   1.975  0.0113  0.3228  0.4877
   19MOL0     C 2494   3.698   7.868   2.076  1.0359  0.2788  0.3537
   19MOL0     C 2495   3.728   7.780   2.153  0.5597 -0.6319 -0.4664
   19MOL0     C 2496   3.082   8.026   1.896  0.1701  0.2972  0.2931
   19MOL0     C 2497   2.942   8.037   1.910 -0.0104 -0.7093 -0.1363
   19MOL0     H 2498   2.553   7.899   1.815  1.3858 -0.0428  1.3122
   19MOL0     H 2499   2.310   7.824   1.841  1.0539 -1.0616 -0.7445
   19MOL0     H 2500   2.099   7.830   1.828  1.4892  1.7148 -0.1351
   19MOL0     H 2501   2.102   7.766   1.990  0.8121 -1.7281 -3.5943
   19MOL0     H 2502   1.872   7.774   1.994 -4.2652  2.9465  1.1795
   19MOL0     H 2503   1.887   7.943   2.018 -0.3854  0.2366  0.4981
   19MOL0     H 2504   1.884   7.827   1.736  1.6209 -0.1151  0.8713
   19MOL0     H 2505   1.735   7.831   1.829  0.0551  0.4966 -0.0477
   19MOL0     H 2506   1.801   8.085   1.870 -0.8051  2.8545 -1.1276
   19MOL0     H 2507   1.925   8.063   1.743 -0.1272  0.3105 -0.7488
   19MOL0     H 2508   1.759   8.027   1.574  2.2205  2.7384  0.0332
   19MOL0     H 2509   1.634   7.978   1.681  1.4701 -1.6142 -4.3724
   19MOL0     H 2510   1.749   8.261   1.669  0.4304 -0.4132  3.2873
   19MOL0     H 2511   1.612   8.209   1.586 -0.3777  1.1519 -0.2423
   19MOL0     H 2512   1.482   8.166   1.774 -1.5842  1.9015 -0.2089
   19MOL0     H 2513   1.620   8.195   1.881  2.6855 -0.6583 -1.7815
   19MOL0     H 2514   1.481   8.395   1.718 -0.1808 -0.5738 -0.0027
   19MOL0     H 2515   1.652   8.427   1.743  0.0444 -0.2166 -0.0680
   19MOL0     H 2516   1.320   8.385   1.961 -2.1197  1.9622  1.1563
   19MOL0     H 2517   1.351   8.670   2.232  2.5167 -0.7139  0.0840
   19MOL0     H 2518   1.232   8.629   2.102 -2.3953 -0.8291  1.4049
   19MOL0     H 2519   1.191   8.421   2.177 -2.7853  2.1472 -0.2235
   19MOL0     H 2520   1.159   8.533   2.304 -0.3441  1.3661 -0.7285
   19MOL0     H 2521   1.404   8.478   2.394 -0.7114 -1.6748  1.8047
   19MOL0     H 2522   1.419   8.362   2.261  0.8410 -0.7797  0.9749
   19MOL0     H 2523   1.214   8.338   2.503 -1.4916  0.2313 -1.2729
   19MOL0     H 2524   1.368   8.267   2.482 -1.3987  1.2542  1.7728
   19MOL0     H 2525   1.113   8.049   2.169  0.7434 -0.2616  0.0811
   19MOL0     H 2526   0.963   7.943   2.067 -2.2233 -2.9800  1.9757
   19MOL0     H 2527   0.794   7.972   2.097 -1.2630 -0.6327 -2.8802
   19MOL0     H 2528   0.873   8.065   1.964 -1.4511  2.4775  1.2325
   19MOL0     H 2529   0.475   8.395   2.063 -0.8802 -0.4552 -0.8833
   19MOL0     H 2530   0.231   8.425   2.033  1.3575  3.6942  1.7349
   19MOL0     H 2531  -0.011   8.496   2.133  0.2975  0.5602 -0.9643
   19MOL0     H 2532  -0.001   8.381   1.998  0.6663 -0.8355 -0.2548
   19MOL0     H 2533  -0.225   8.277   2.078 -2.5796 -0.4181  3.9210
   19MOL0     H 2534  -0.211   8.393   2.215  3.9169  0.0650  0.2225
   19MOL0     H 2535  -0.197   8.473   1.922 -1.6589 -1.0497 -0.2550
   19MOL0     H 2536  -0.195   8.588   2.049 -4.6311  2.1998 -2.0704
   19MOL0     H 2537  -0.421   8.387   1.968  2.0727 -1.1785 -0.9549
   19MOL0     H 2538  -0.440   8.477   2.110  0.3534 -1.4777  0.8547
   19MOL0     H 2539  -0.548   8.592   1.931  0.5706 -1.4217 -0.8901
   19MOL0     H 2540  -0.388   8.598   1.835 -1.8730 -2.3768 -0.2396
   19MOL0     H 2541  -0.474   8.723   2.097 -2.6242  3.4564 -0.2268
   19MOL0     H 2542  -0.320   8.764   2.024  0.5665 -1.6647  0.3471
   19MOL0     H 2543  -0.462   8.949   1.977  1.2750 -0.7533  0.7341
   19MOL0     H 2544  -0.580   8.826   1.895  0.5206 -3.0646  0.3570
   19MOL0     H 2545  -0.428   8.823   1.714  0.6004  0.3954 -0.8564
   19MOL0     H 2546  -0.290   8.873   1.814  0.9626  1.7670 -2.5120
   19MOL0     H 2547   0.165   8.201   2.390 -2.5830 -2.4794 -2.7230
   19MOL0     H 2548   0.415   8.188   2.424 -3.4040 -2.5646  0.0259
   19MOL0     H 2549   0.819   8.401   2.348  1.3806  0.0428  1.4120
   19MOL0     H 2550   1.027   8.381   2.429 -0.3450  2.2984 -0.9462
   19MOL0     H 2551   2.254   8.170   2.104 -0.8226 -2.5673  2.0726
   19MOL0     H 2552   2.484   8.239   2.075 -0.1528 -0.4434  1.0358
   19MOL0     H 2553   2.941   8.385   1.913 -0.1015  0.4802  1.0531
   19MOL0     H 2554   3.172   8.348   1.870  0.3258  0.3692 -2.2810
   19MOL0     H 2555   3.384   8.277   1.804 -2.0056 -0.5889 -0.1589
   19MOL0     H 2556   3.368   8.241   1.977 -1.3225  0.7871 -0.3561
   19MOL0     H 2557   3.601   8.224   1.917  1.1215 -1.6624  1.0540
   19MOL0     H 2558   3.577   8.122   1.780 -1.5227 -1.1132 -1.0118
   19MOL0     H 2559   3.491   7.940   1.919 -0.7055  0.5512 -0.2515
   19MOL0     H 2560   3.505   8.040   2.059  0.6432 -0.8050 -0.6207
   19MOL0     H 2561   3.759   8.062   2.005  2.3564 -0.1646 -2.7464
   19MOL0     H 2562   3.726   7.956   1.873 -0.5042 -1.5019  0.7122
   19MOL0     H 2563   3.769   7.714   2.226  0.9621  1.0207  0.8826
   19MOL0     H 2564   3.122   7.925   1.887  0.0124  0.3070 -0.6509
   19MOL0     H 2565   2.882   7.947   1.914  0.2349 -0.8225  2.2915
   20MOL0     O 2566  11.202   3.894   8.289 -0.3904  0.0429 -0.2716
   20MOL0     C 2567  11.274   3.894   8.190 -1.6746 -0.7316 -0.5146
   20MOL0     O 2568  11.228   3.891   8.063 -0.1056 -0.0737 -0.7288
   20MOL0     C 2569  11.094   3.869   8.038  0.6269  0.1362 -0.1259
   20MOL0     C 2570  11.014   3.763   8.093 -1.2660  0.9096  0.0556
   20MOL0     C 2571  10.885   3.753   8.057  0.1435  0.9383  0.3798
   20MOL0     C 2572  10.825   3.845   7.970 -0.5282 -0.6180  0.8474
   20MOL0     O 2573  10.690   3.837   7.951 -0.3468  0.6105  0.1085
   20MOL0     C 2574  10.616   3.899   7.846 -0.2693 -0.3563  0.7726
   20MOL0     C 2575  10.478   3.841   7.820 -0.2191  0.9338  0.5216
   20MOL0     C 2576  10.377   3.948   7.777 -0.2864 -0.4192  0.1668
   20MOL0     C 2577  10.275   3.890   7.676 -0.2838 -0.1709  0.2866
   20MOL0     C 2578  10.167   3.993   7.647  0.0658 -0.3161 -0.4727
   20MOL0     C 2579  10.053   3.946   7.563 -0.4043 -0.4018 -0.4765
   20MOL0     C 2580   9.941   4.051   7.575 -0.3014  0.1493 -0.2421
   20MOL0     C 2581   9.836   4.014   7.473 -0.1356 -0.2588 -0.7933
   20MOL0     N 2582   9.731   4.108   7.468 -0.0932 -0.0470 -0.0494
   20MOL0     C 2583   9.607   4.084   7.413 -0.1056 -0.0345 -0.1643
   20MOL0     C 2584   9.542   4.203   7.418 -1.1368 -0.1806  0.3230
   20MOL0     C 2585   9.409   4.217   7.351 -0.6786  0.0334  0.1243
   20MOL0     C 2586   9.425   4.284   7.210 -0.3312 -0.5432 -0.2818
   20MOL0     C 2587   9.292   4.293   7.126 -0.1266  0.2307 -0.4208
   20MOL0     C 2588   9.296   4.398   7.020  0.3037  0.6511 -0.0386
   20MOL0     O 2589   9.305   4.531   7.062  0.3695 -0.1580  0.4496
   20MOL0     C 2590   9.314   4.636   6.971  0.4150 -0.2935  0.2153
   20MOL0     C 2591   9.277   4.628   6.834  0.4844 -0.3782 -0.9197
   20MOL0     C 2592   9.259   4.742   6.758  0.9927  0.8711 -1.1875
   20MOL0     C 2593   9.207   4.719   6.619  0.0042  0.2014 -0.3946
   20MOL0     C 2594   9.290   4.869   6.814 -0.0004  1.2629 -0.0719
   20MOL0     C 2595   9.292   4.996   6.735  0.4325 -0.4786  0.2339
   20MOL0     O 2596   9.195   5.013   6.640  0.5927  0.1591 -0.2692
   20MOL0     C 2597   9.184   5.097   6.533 -0.1828  0.3080  0.6267
   20MOL0     C 2598   9.302   5.140   6.456  0.8443  0.4963 -0.2007
   20MOL0     C 2599   9.270   5.229   6.357  0.0276 -0.7835  0.4366
   20MOL0     C 2600   9.148   5.281   6.328  0.2566  0.1938 -0.4478
   20MOL0     O 2601   9.153   5.391   6.243  0.2401  0.8583  0.2783
   20MOL0     C 2602   9.033   5.436   6.179 -0.2122  0.5266 -0.8601
   20MOL0     C 2603   9.065   5.567   6.118 -0.3601 -0.6041  0.5258
   20MOL0     C 2604   8.942   5.626   6.038 -0.1329 -0.0989 -0.4988
   20MOL0     C 2605   8.841   5.681   6.130  0.0715  0.2755 -0.2367
   20MOL0     C 2606   8.773   5.798   6.053  0.8429 -0.4900  0.3052
   20MOL0     C 2607   8.664   5.857   6.142 -0.7435  0.0279 -0.2481
   20MOL0     C 2608   8.597   5.982   6.077 -0.7152 -0.5452  0.7148
   20MOL0     C 2609   8.475   6.022   6.159 -0.5161 -0.5642 -0.0355
   20MOL0    Cl 2610   8.368   5.882   6.217 -0.0483  0.4221  0.0066
   20MOL0     C 2611   9.039   5.238   6.409  0.5305  0.4824  0.0202
   20MOL0     C 2612   9.053   5.142   6.505  0.6641 -0.1902 -0.2777
   20MOL0     O 2613   9.368   5.091   6.772  0.0039  0.0228  0.2820
   20MOL0     C 2614   9.339   4.863   6.944 -0.0426 -0.1105 -0.0456
   20MOL0     C 2615   9.344   4.756   7.022  0.4043  0.0053 -0.6895
   20MOL0     N 2616   9.628   4.292   7.485  0.1411 -0.0024  0.3151
   20MOL0     N 2617   9.732   4.230   7.523  0.0384 -0.3726 -0.3098
   20MOL0     C 2618  10.902   3.946   7.918  0.2619  0.2311 -0.0697
   20MOL0     C 2619  11.036   3.957   7.944  0.8433 -0.0641 -0.5702
   20MOL0     C 2620  11.420   3.906   8.216 -0.3683 -0.8829  0.1028
   20MOL0     C 2621  11.470   3.965   8.334 -0.9822  0.3119  0.1156
   20MOL0     C 2622  11.603   3.981   8.362 -0.4510  0.8871 -0.1369
   20MOL0     C 2623  11.702   3.930   8.271  0.9766 -0.4095 -0.6412
   20MOL0     O 2624  11.834   3.945   8.293 -0.6490 -0.1354  0.3413
   20MOL0     C 2625  11.875   4.085   8.315 -1.3344 -0.5610  0.4009
   20MOL0     C 2626  11.975   4.115   8.202  0.9056  0.3664 -0.1615
   20MOL0     C 2627  12.086   4.008   8.199 -0.0148  0.6897  0.8328
   20MOL0     C 2628  12.178   4.026   8.071 -0.9277  0.3157 -0.4042
   20MOL0     C 2629  12.302   3.943   8.084  0.8223  0.5549 -0.0048
   20MOL0     C 2630  12.404   3.882   8.080  0.4473  0.1904 -0.6474
   20MOL0     C 2631  11.653   3.881   8.149  0.9781  0.0332 -0.9934
   20MOL0     C 2632  11.515   3.869   8.117 -0.2912 -0.4581 -0.5325
   20MOL0     H 2633  11.061   3.690   8.159  0.0990 -0.0739 -1.9181
   20MOL0     H 2634  10.825   3.672   8.096 -0.9201  1.9949  1.0116
   20MOL0     H 2635  10.608   4.002   7.882  1.1207  0.3523 -0.8039
   20MOL0     H 2636  10.669   3.914   7.752  0.3214 -1.1526  0.9656
   20MOL0     H 2637  10.490   3.764   7.743  3.3434 -0.4020  2.1969
   20MOL0     H 2638  10.449   3.796   7.916  2.2784  0.0978  0.9388
   20MOL0     H 2639  10.325   3.985   7.865 -0.2092  4.0029 -1.4089
   20MOL0     H 2640  10.421   4.032   7.722 -1.8632  0.8169  0.7237
   20MOL0     H 2641  10.319   3.852   7.583  1.5517  2.0733  0.1321
   20MOL0     H 2642  10.240   3.802   7.730  0.5798 -0.3570  0.5694
   20MOL0     H 2643  10.126   4.035   7.740  1.4037  3.0688 -1.2823
   20MOL0     H 2644  10.215   4.080   7.602  0.2634 -0.2288 -0.0967
   20MOL0     H 2645  10.094   3.932   7.462  1.0920 -3.9608  0.4690
   20MOL0     H 2646  10.018   3.847   7.596  1.3526 -1.5139 -1.7317
   20MOL0     H 2647   9.904   4.047   7.677 -0.9461 -1.5258 -0.5113
   20MOL0     H 2648   9.979   4.149   7.544 -0.4735 -0.2869 -1.9496
   20MOL0     H 2649   9.795   3.918   7.506 -0.1182  0.2714  0.8463
   20MOL0     H 2650   9.880   3.996   7.375  0.1042 -1.5203 -0.4752
   20MOL0     H 2651   9.566   3.992   7.372 -0.9956  0.0345  0.5409
   20MOL0     H 2652   9.361   4.120   7.333 -1.1548 -0.5259  3.6136
   20MOL0     H 2653   9.357   4.272   7.430  1.4899  2.7474 -0.1918
   20MOL0     H 2654   9.509   4.238   7.156  1.4344  1.5178  0.5453
   20MOL0     H 2655   9.459   4.388   7.220  1.5770 -0.7466 -3.2495
   20MOL0     H 2656   9.219   4.340   7.193  1.9684  1.2399  1.2787
   20MOL0     H 2657   9.263   4.194   7.090  0.5108  0.0449 -0.4360
   20MOL0     H 2658   9.214   4.375   6.951 -0.5586  0.9147  0.8719
   20MOL0     H 2659   9.390   4.375   6.969  0.5176 -0.5868  0.8786
   20MOL0     H 2660   9.265   4.529   6.793  0.8290 -0.5780 -0.5457
   20MOL0     H 2661   9.211   4.612   6.595 -1.1934 -0.1585  0.9120
   20MOL0     H 2662   9.100   4.738   6.609 -0.3426 -2.2866 -2.6509
   20MOL0     H 2663   9.263   4.782   6.549  2.0831 -1.3428 -0.2066
   20MOL0     H 2664   9.395   5.096   6.488 -0.3328 -1.7845  0.2836
   20MOL0     H 2665   9.349   5.269   6.294 -1.3837  0.0573 -0.8729
   20MOL0     H 2666   8.983   5.373   6.104  0.0451 -1.3938  0.5229
   20MOL0     H 2667   8.962   5.456   6.260  0.6738  0.1675  0.0241
   20MOL0     H 2668   9.104   5.636   6.193  0.3361 -1.2001  0.7279
   20MOL0     H 2669   9.146   5.552   6.046  0.1042 -0.4914  1.0187
   20MOL0     H 2670   8.895   5.547   5.979  0.4202 -0.4199 -0.5141
   20MOL0     H 2671   8.971   5.701   5.963 -1.1272  0.1500 -0.6514
   20MOL0     H 2672   8.775   5.598   6.157 -0.9881  1.3748  0.7089
   20MOL0     H 2673   8.882   5.719   6.224 -2.0304 -1.2231  1.4003
   20MOL0     H 2674   8.727   5.759   5.961 -0.9323  0.9514  0.5296
   20MOL0     H 2675   8.842   5.880   6.032  1.4808 -0.9036  0.7695
   20MOL0     H 2676   8.590   5.777   6.144 -2.3714  1.2391 -3.6739
   20MOL0     H 2677   8.708   5.881   6.239  2.6482  0.8172 -1.8366
   20MOL0     H 2678   8.555   5.960   5.978 -0.9155 -0.0760  0.6925
   20MOL0     H 2679   8.669   6.063   6.067 -0.1777 -0.9784  0.9842
   20MOL0     H 2680   8.409   6.078   6.092 -0.7970  0.9086  1.4099
   20MOL0     H 2681   8.496   6.084   6.246 -0.5614  1.1088 -1.1732
   20MOL0     H 2682   8.941   5.280   6.386  0.3729  1.2370  1.9286
   20MOL0     H 2683   8.975   5.092   6.561  2.2145 -0.4626  1.7450
   20MOL0     H 2684   9.370   4.959   6.985  4.6257 -1.8335  1.0098
   20MOL0     H 2685   9.375   4.774   7.125 -2.5210  2.1715 -0.0588
   20MOL0     H 2686  10.869   4.023   7.848 -0.4597  2.1751  2.2684
   20MOL0     H 2687  11.083   4.046   7.904  0.5160 -0.3384 -1.5950
   20MOL0     H 2688  11.402   3.992   8.415  2.9260 -1.5356  4.4606
   20MOL0     H 2689  11.629   4.024   8.459 -1.4856 -0.0444  0.5746
   20MOL0     H 2690  11.791   4.155   8.312 -1.0135 -0.1516  0.7896
   20MOL0     H 2691  11.920   4.087   8.415 -0.6220 -1.8043  0.1357
   20MOL0     H 2692  12.019   4.214   8.211 -0.4643  1.0944 -1.0542
   20MOL0     H 2693  11.921   4.117   8.106 -0.3276 -0.7766  0.4614
   20MOL0     H 2694  12.047   3.906   8.204  1.3732  0.1950  3.4900
   20MOL0     H 2695  12.149   4.026   8.286 -0.2171  1.0153  0.9136
   20MOL0     H 2696  12.209   4.129   8.053  0.5829  0.2414  1.4481
   20MOL0     H 2697  12.132   3.983   7.982  2.5113 -0.6494 -1.8652
   20MOL0     H 2698  12.495   3.826   8.082  0.1129 -0.3627  1.1356
   20MOL0     H 2699  11.731   3.846   8.082  3.4796 -0.7312  2.0660
   20MOL0     H 2700  11.490   3.811   8.030 -0.6799  0.3454 -0.9729
   21MOL0     O 2701   3.093   2.896   5.265 -0.0812 -0.1935 -0.3023
   21MOL0     C 2702   3.084   2.826   5.168 -0.2237  0.3767  0.3596
   21MOL0     O 2703   2.972   2.755   5.133  0.8920 -0.8214  0.2128
   21MOL0     C 2704   2.856   2.773   5.215 -0.4273  0.5975  0.3426
   21MOL0     C 2705   2.814   2.672   5.276  0.3640 -0.1745 -0.8938
   21MOL0     C 2706   2.687   2.667   5.340 -0.6268  0.2405  0.0486
   21MOL0     C 2707   2.609   2.788   5.340 -0.1557 -0.6780 -0.0873
   21MOL0     O 2708   2.493   2.805   5.408 -0.1697 -0.4007  0.2028
   21MOL0     C 2709   2.450   2.707   5.503  0.4930  0.1520  0.4338
   21MOL0     C 2710   2.312   2.767   5.546 -0.5345  0.3592 -0.3740
   21MOL0     C 2711   2.214   2.740   5.433 -0.8711  0.2585 -0.1388
   21MOL0     C 2712   2.063   2.720   5.477  0.4848 -0.1815  0.1346
   21MOL0     C 2713   1.981   2.662   5.363  0.5715 -0.2865 -0.4594
   21MOL0     C 2714   1.827   2.633   5.394  0.5447 -0.0906 -0.1237
   21MOL0     C 2715   1.743   2.604   5.270  0.1654 -0.5651  0.6590
   21MOL0     C 2716   1.795   2.500   5.168 -0.2392  0.1554  0.3557
   21MOL0     N 2717   1.699   2.498   5.053 -0.3120  1.0422  0.3541
   21MOL0     C 2718   1.650   2.381   5.000  0.9203 -0.3362 -0.7422
   21MOL0     C 2719   1.567   2.411   4.898 -0.2990 -0.0744  0.7630
   21MOL0     C 2720   1.502   2.311   4.807  0.1009  0.6672  0.0792
   21MOL0     C 2721   1.357   2.358   4.765  0.4560  0.1301  1.1329
   21MOL0     C 2722   1.260   2.353   4.881  0.2595  0.7619 -1.2287
   21MOL0     C 2723   1.117   2.375   4.848 -0.2969  1.0446 -1.1098
   21MOL0     O 2724   1.100   2.492   4.770 -0.3272 -0.7621  0.4465
   21MOL0     C 2725   0.986   2.527   4.710  0.4850  0.1251 -0.3115
   21MOL0     C 2726   0.868   2.452   4.711 -0.4202 -0.1764 -0.4951
   21MOL0     C 2727   0.751   2.505   4.652 -0.3245  0.0152  0.5282
   21MOL0     C 2728   0.630   2.410   4.673 -0.1442 -0.5842 -0.6395
   21MOL0     C 2729   0.756   2.630   4.575 -0.5557 -0.7223  0.0793
   21MOL0     C 2730   0.640   2.687   4.515  0.6072 -0.1582 -0.0080
   21MOL0     O 2731   0.655   2.818   4.483 -0.4118  0.0104  0.2799
   21MOL0     C 2732   0.582   2.883   4.385  0.1860 -0.3690  0.4729
   21MOL0     C 2733   0.444   2.908   4.399  0.5224 -0.2776 -0.1020
   21MOL0     C 2734   0.372   2.978   4.298  0.0432 -0.1589  0.1949
   21MOL0     C 2735   0.438   3.015   4.179 -0.8926  0.2306 -0.6617
   21MOL0     O 2736   0.385   3.088   4.077 -0.5419 -0.2611  0.1238
   21MOL0     C 2737   0.258   3.152   4.092  0.5215  0.2441  0.4994
   21MOL0     C 2738   0.237   3.269   3.995 -0.0088  0.7600 -0.5653
   21MOL0     C 2739   0.330   3.388   4.011  0.3959 -0.2542  0.0206
   21MOL0     C 2740   0.292   3.491   3.907  1.0281  0.1108  0.0990
   21MOL0     C 2741   0.375   3.620   3.899  0.0726  0.4976 -0.1648
   21MOL0     C 2742   0.307   3.748   3.857  0.1597  0.1849 -0.4124
   21MOL0     C 2743   0.246   3.750   3.717 -0.1356  0.2514  0.5508
   21MOL0     C 2744   0.170   3.890   3.690 -0.0955 -0.2588 -0.1164
   21MOL0    Cl 2745   0.045   3.922   3.812 -0.0612 -0.1825  0.0380
   21MOL0     C 2746   0.575   2.985   4.164  0.8127  0.0389 -0.0483
   21MOL0     C 2747   0.650   2.911   4.266 -0.1894 -0.2605 -0.0307
   21MOL0     O 2748   0.539   2.620   4.478 -0.2786 -0.3421 -0.4050
   21MOL0     C 2749   0.877   2.710   4.574  0.3107  1.5343 -0.8515
   21MOL0     C 2750   0.985   2.657   4.647  0.3858  0.2587 -0.2405
   21MOL0     N 2751   1.566   2.553   4.883  0.0877  0.9287 -0.4799
   21MOL0     N 2752   1.648   2.606   4.974  0.3014  0.5232 -0.3685
   21MOL0     C 2753   2.663   2.903   5.282  0.0116 -0.5411  1.1592
   21MOL0     C 2754   2.781   2.890   5.206  0.3089 -0.2843  0.5007
   21MOL0     C 2755   3.203   2.827   5.079 -0.6451 -0.8598 -0.6443
   21MOL0     C 2756   3.192   2.747   4.963 -1.0649  0.0822 -0.0030
   21MOL0     C 2757   3.297   2.747   4.872  0.2274  0.0506  0.7704
   21MOL0     C 2758   3.428   2.797   4.900 -0.2107 -0.4394 -0.2680
   21MOL0     O 2759   3.536   2.775   4.822 -0.4969 -0.4968  0.0418
   21MOL0     C 2760   3.535   2.676   4.714 -0.5377 -0.3655  0.1456
   21MOL0     C 2761   3.683   2.652   4.677  0.0210  0.4464  0.0562
   21MOL0     C 2762   3.733   2.544   4.776 -0.2684  0.0522 -0.1267
   21MOL0     C 2763   3.862   2.481   4.728 -0.3252 -0.2990 -0.0572
   21MOL0     C 2764   3.923   2.411   4.837  0.0511  0.1396  0.0287
   21MOL0     C 2765   3.950   2.347   4.936 -0.4167 -0.3273 -0.7340
   21MOL0     C 2766   3.432   2.886   5.011  0.2028  0.9787  0.2396
   21MOL0     C 2767   3.322   2.905   5.097 -0.5162  1.0517  0.9649
   21MOL0     H 2768   2.876   2.583   5.273  0.2227 -0.2700 -1.1107
   21MOL0     H 2769   2.654   2.586   5.405 -2.6683  1.0660  0.0899
   21MOL0     H 2770   2.436   2.607   5.461 -1.9150 -1.2191  4.0213
   21MOL0     H 2771   2.505   2.706   5.597 -2.6836  0.9384  2.4759
   21MOL0     H 2772   2.281   2.738   5.647 -1.2830 -0.7640 -0.9102
   21MOL0     H 2773   2.318   2.876   5.559 -2.2166  0.3831  0.4628
   21MOL0     H 2774   2.223   2.820   5.358  0.1017  1.0183  0.7565
   21MOL0     H 2775   2.249   2.649   5.384  1.2206  0.0197  1.6577
   21MOL0     H 2776   2.058   2.651   5.562  0.2588  1.2865  1.3718
   21MOL0     H 2777   2.019   2.816   5.505  0.2069 -0.9475  2.5634
   21MOL0     H 2778   1.994   2.721   5.272  1.4131  2.1899  1.1720
   21MOL0     H 2779   2.017   2.559   5.351 -3.6062 -1.7782 -2.5201
   21MOL0     H 2780   1.802   2.555   5.467 -1.1621  0.3815 -0.1686
   21MOL0     H 2781   1.787   2.720   5.447 -3.9825 -0.6538 -2.1480
   21MOL0     H 2782   1.648   2.561   5.302  0.9703 -2.5211  0.5951
   21MOL0     H 2783   1.714   2.696   5.219 -3.7980 -2.5869 -1.1389
   21MOL0     H 2784   1.808   2.402   5.214  2.2787 -0.1693 -0.8949
   21MOL0     H 2785   1.890   2.532   5.125 -0.9858  0.0486 -1.4849
   21MOL0     H 2786   1.655   2.282   5.044  1.2502  1.4119  3.6651
   21MOL0     H 2787   1.570   2.314   4.721  2.3538  2.7901  1.7793
   21MOL0     H 2788   1.490   2.210   4.846 -0.4985 -0.3218 -2.4406
   21MOL0     H 2789   1.321   2.291   4.686 -0.9830  1.0865  0.9387
   21MOL0     H 2790   1.360   2.463   4.733  1.2114 -0.0433  0.6153
   21MOL0     H 2791   1.292   2.428   4.953  0.8458  0.9915 -1.7141
   21MOL0     H 2792   1.263   2.258   4.935 -0.8509  1.2770 -0.2356
   21MOL0     H 2793   1.066   2.394   4.943  0.8313  0.0075 -0.2778
   21MOL0     H 2794   1.064   2.289   4.805 -0.3760  0.6052 -0.1666
   21MOL0     H 2795   0.864   2.358   4.766 -1.6584 -1.5783 -2.8448
   21MOL0     H 2796   0.635   2.321   4.736  1.9346 -0.0563  0.0186
   21MOL0     H 2797   0.543   2.472   4.697 -1.1221 -0.8947 -3.0775
   21MOL0     H 2798   0.614   2.373   4.571 -1.5506 -1.3882 -0.1477
   21MOL0     H 2799   0.399   2.871   4.490  0.6028 -3.1359 -1.1254
   21MOL0     H 2800   0.268   2.994   4.321  0.8659  0.7938  3.7893
   21MOL0     H 2801   0.172   3.088   4.073 -0.4443  1.9145 -1.0883
   21MOL0     H 2802   0.247   3.192   4.193  1.6187 -1.7256  1.4596
   21MOL0     H 2803   0.243   3.230   3.893 -0.3678 -0.7800 -0.0285
   21MOL0     H 2804   0.133   3.293   4.016  0.2408  0.6959  0.8848
   21MOL0     H 2805   0.435   3.361   3.996  0.5912 -1.1471  2.5590
   21MOL0     H 2806   0.321   3.423   4.114 -0.7723 -2.1218  0.6042
   21MOL0     H 2807   0.285   3.436   3.813  2.2250 -0.9969  0.6302
   21MOL0     H 2808   0.194   3.524   3.943  0.5423 -2.4458  1.3956
   21MOL0     H 2809   0.461   3.609   3.832 -0.4775 -0.2750 -0.7768
   21MOL0     H 2810   0.408   3.643   4.000  0.8868 -0.1823 -0.2586
   21MOL0     H 2811   0.223   3.758   3.926  1.6622  0.7071  1.4583
   21MOL0     H 2812   0.367   3.836   3.884  1.0804 -0.4908 -0.1692
   21MOL0     H 2813   0.178   3.665   3.717  1.8367 -1.4361  1.6717
   21MOL0     H 2814   0.322   3.740   3.640 -1.1472  1.1894 -0.6101
   21MOL0     H 2815   0.122   3.877   3.593 -1.5779  1.2526  0.3653
   21MOL0     H 2816   0.237   3.976   3.681  2.1255 -1.9614 -0.7830
   21MOL0     H 2817   0.627   3.024   4.077 -1.7332  2.1915 -0.7314
   21MOL0     H 2818   0.756   2.889   4.257 -0.0723 -0.8184  2.1414
   21MOL0     H 2819   0.892   2.802   4.520  2.0914  1.2849 -0.8510
   21MOL0     H 2820   1.079   2.710   4.635 -0.4029  2.1686  1.3803
   21MOL0     H 2821   2.618   3.000   5.295  3.4438  1.1283  1.8614
   21MOL0     H 2822   2.814   2.972   5.143  3.9087 -1.6351  0.3913
   21MOL0     H 2823   3.106   2.687   4.934 -1.6725  1.0128 -0.1527
   21MOL0     H 2824   3.290   2.679   4.788 -0.7448 -0.5581  1.3181
   21MOL0     H 2825   3.480   2.587   4.747  0.3696 -0.2502  2.1782
   21MOL0     H 2826   3.477   2.714   4.630  0.2067 -1.3934 -0.8783
   21MOL0     H 2827   3.738   2.747   4.679 -1.3409  1.2602  0.2779
   21MOL0     H 2828   3.700   2.610   4.578  1.3126 -2.1931  1.3024
   21MOL0     H 2829   3.659   2.465   4.789  2.3353 -2.8866 -1.6552
   21MOL0     H 2830   3.741   2.598   4.871 -4.8538  2.0736 -0.6501
   21MOL0     H 2831   3.927   2.560   4.689  2.4845 -2.2960  0.3027
   21MOL0     H 2832   3.847   2.405   4.651 -0.9297 -0.7074  0.4481
   21MOL0     H 2833   3.968   2.288   5.023 -0.7736 -0.0695 -0.4824
   21MOL0     H 2834   3.521   2.947   5.026 -0.1667  1.9901 -1.3718
   21MOL0     H 2835   3.320   2.972   5.182  1.3897 -0.9454  2.7184
   22MOL0     O 2836  10.635   3.333   2.254  0.0182 -0.4348  0.4463
   22MOL0     C 2837  10.629   3.451   2.218  0.1009  0.1251  0.0710
   22MOL0     O 2838  10.523   3.530   2.212  0.8825  0.0796  0.0404
   22MOL0     C 2839  10.413   3.496   2.282 -0.0749  0.1999 -0.2213
   22MOL0     C 2840  10.300   3.556   2.229 -0.0269  0.6046  0.7093
   22MOL0     C 2841  10.169   3.526   2.280  0.1626 -0.5402  0.5686
   22MOL0     C 2842  10.145   3.433   2.388  0.3177 -0.5387  0.3908
   22MOL0     O 2843  10.021   3.406   2.437 -0.4718 -0.2502 -0.0440
   22MOL0     C 2844   9.905   3.449   2.378 -0.2987 -0.1548  0.7169
   22MOL0     C 2845   9.799   3.428   2.486  1.1160 -0.1678  0.1087
   22MOL0     C 2846   9.659   3.451   2.435 -0.4960  0.3881  0.2353
   22MOL0     C 2847   9.577   3.524   2.539  0.3284  0.0177  0.4998
   22MOL0     C 2848   9.424   3.520   2.501  1.0669 -0.3545 -0.1043
   22MOL0     C 2849   9.346   3.603   2.609  0.1154  0.2031 -0.4601
   22MOL0     C 2850   9.201   3.594   2.557  0.7150 -0.3685 -0.3788
   22MOL0     C 2851   9.114   3.659   2.677 -0.2225 -0.2520 -0.2406
   22MOL0     N 2852   8.986   3.686   2.625  0.4534  0.1296  0.0933
   22MOL0     C 2853   8.875   3.610   2.652 -0.0856  0.3478 -0.5511
   22MOL0     C 2854   8.773   3.664   2.588  0.3463 -0.0066 -0.6977
   22MOL0     C 2855   8.638   3.612   2.597 -0.4508 -0.3004  0.1520
   22MOL0     C 2856   8.546   3.683   2.496 -0.4537 -0.3144 -0.4285
   22MOL0     C 2857   8.422   3.611   2.466  0.9365 -0.3460  0.0904
   22MOL0     C 2858   8.317   3.615   2.567  0.0949  0.3997  0.0725
   22MOL0     O 2859   8.205   3.539   2.515 -0.2973 -0.4788  0.4846
   22MOL0     C 2860   8.086   3.587   2.565  1.6810  0.6110  0.1275
   22MOL0     C 2861   8.066   3.632   2.696 -0.3770 -0.0099  0.9351
   22MOL0     C 2862   7.941   3.660   2.752  0.2544  0.1549  0.9344
   22MOL0     C 2863   7.937   3.691   2.897  0.3474  0.2047 -0.4238
   22MOL0     C 2864   7.828   3.642   2.677  0.2849  0.0369 -0.1709
   22MOL0     C 2865   7.689   3.655   2.731  0.6907 -0.3319  0.0518
   22MOL0     O 2866   7.592   3.632   2.644 -0.4548  0.1180 -0.1341
   22MOL0     C 2867   7.460   3.685   2.643 -0.3714  0.5029 -0.5487
   22MOL0     C 2868   7.379   3.686   2.761  0.4366 -0.5342  0.1662
   22MOL0     C 2869   7.251   3.743   2.755 -0.2659 -0.1762  0.5043
   22MOL0     C 2870   7.205   3.817   2.638  0.3783 -0.6561  0.4992
   22MOL0     O 2871   7.073   3.859   2.623 -0.1482  0.2783  0.3558
   22MOL0     C 2872   6.982   3.860   2.731 -0.0114  0.2544 -0.7163
   22MOL0     C 2873   6.846   3.904   2.679  0.8720 -0.6558  0.1210
   22MOL0     C 2874   6.732   3.853   2.772 -0.0429 -0.1129 -0.9191
   22MOL0     C 2875   6.605   3.926   2.769 -1.6430 -0.5263  0.9948
   22MOL0     C 2876   6.504   3.866   2.860 -0.3397 -0.4355  0.4267
   22MOL0     C 2877   6.491   3.712   2.839  0.0862 -1.0516 -0.1999
   22MOL0     C 2878   6.379   3.663   2.928  0.1485 -0.0994 -0.4446
   22MOL0     C 2879   6.242   3.692   2.860  1.1211 -1.5272 -0.3612
   22MOL0    Cl 2880   6.139   3.539   2.870  0.1418  0.2236  0.1884
   22MOL0     C 2881   7.284   3.816   2.520 -0.8117  0.3891 -0.1326
   22MOL0     C 2882   7.410   3.755   2.532  0.4856  0.3337  0.3093
   22MOL0     O 2883   7.671   3.668   2.851  0.0731 -0.0373  0.2293
   22MOL0     C 2884   7.846   3.603   2.538 -0.5431  0.3240 -0.2577
   22MOL0     C 2885   7.971   3.570   2.491  0.0843  0.3388  0.2241
   22MOL0     N 2886   8.818   3.787   2.540 -0.0115  0.0815 -0.3727
   22MOL0     N 2887   8.946   3.793   2.553  0.0471  0.0242 -0.2246
   22MOL0     C 2888  10.264   3.379   2.439  0.2939 -0.2878 -0.1397
   22MOL0     C 2889  10.392   3.403   2.383 -0.4690 -0.4172 -0.2662
   22MOL0     C 2890  10.756   3.515   2.178  0.2924 -0.0197 -0.1507
   22MOL0     C 2891  10.761   3.654   2.145 -0.1880  0.6031  0.3828
   22MOL0     C 2892  10.877   3.709   2.097  0.5274  0.4993 -0.6560
   22MOL0     C 2893  10.993   3.631   2.090  1.2757  0.0542  0.7891
   22MOL0     O 2894  11.109   3.695   2.062 -0.1894 -0.4118 -0.4646
   22MOL0     C 2895  11.236   3.647   2.116 -0.5384 -1.2069 -0.2066
   22MOL0     C 2896  11.326   3.595   2.009  0.8195 -0.7222  0.3587
   22MOL0     C 2897  11.469   3.566   2.064 -1.0233  0.4113 -0.2808
   22MOL0     C 2898  11.548   3.514   1.949 -0.4782  0.3570  0.4265
   22MOL0     C 2899  11.683   3.494   1.992 -0.2730  0.3591 -0.2663
   22MOL0     C 2900  11.801   3.495   2.016  0.2683  0.8181  1.2476
   22MOL0     C 2901  10.991   3.494   2.121 -0.4811  0.3677  0.9560
   22MOL0     C 2902  10.880   3.445   2.172  0.4790  0.5973 -0.3169
   22MOL0     H 2903  10.314   3.617   2.141 -2.1363 -0.7882 -0.6715
   22MOL0     H 2904  10.084   3.570   2.228  0.8277 -2.3571 -2.3128
   22MOL0     H 2905   9.901   3.556   2.357 -0.4213  0.0046  1.5264
   22MOL0     H 2906   9.871   3.397   2.288  0.7126  1.3363 -0.5687
   22MOL0     H 2907   9.809   3.332   2.538 -1.5738  0.2054  1.4891
   22MOL0     H 2908   9.811   3.503   2.565 -0.1811 -0.6068  0.7469
   22MOL0     H 2909   9.667   3.513   2.346 -3.4336 -2.7273 -2.4917
   22MOL0     H 2910   9.604   3.362   2.402  0.0405 -0.0039  0.3884
   22MOL0     H 2911   9.595   3.495   2.643 -1.8208 -2.3058  0.3021
   22MOL0     H 2912   9.598   3.631   2.530 -0.3919  0.1267  0.0525
   22MOL0     H 2913   9.414   3.553   2.397  0.8071 -1.5128 -0.4569
   22MOL0     H 2914   9.381   3.420   2.500 -0.7913  0.3275  2.2006
   22MOL0     H 2915   9.352   3.551   2.705 -2.0176 -1.6414 -1.2487
   22MOL0     H 2916   9.387   3.703   2.624  2.3364 -0.6290 -0.6310
   22MOL0     H 2917   9.185   3.651   2.465 -0.2175 -1.0078 -0.6227
   22MOL0     H 2918   9.173   3.489   2.553 -2.3773  0.1117  3.1291
   22MOL0     H 2919   9.153   3.754   2.716 -0.5543  0.7752 -2.2641
   22MOL0     H 2920   9.099   3.590   2.760 -3.2211  0.3463 -0.2003
   22MOL0     H 2921   8.872   3.521   2.715  0.3428  0.5819 -0.1929
   22MOL0     H 2922   8.648   3.506   2.574 -0.7483 -0.3824  0.3797
   22MOL0     H 2923   8.590   3.628   2.695 -1.3431 -3.2980  0.3037
   22MOL0     H 2924   8.609   3.704   2.409  1.7935  2.0440  1.5929
   22MOL0     H 2925   8.508   3.780   2.528 -2.3617 -0.5238 -1.8949
   22MOL0     H 2926   8.438   3.506   2.438 -1.4131 -0.4842 -0.9054
   22MOL0     H 2927   8.388   3.663   2.376  6.1038 -1.0110 -2.6317
   22MOL0     H 2928   8.294   3.720   2.587 -3.6927 -0.0253 -1.3104
   22MOL0     H 2929   8.366   3.575   2.657 -0.5267 -1.6757 -0.4698
   22MOL0     H 2930   8.146   3.645   2.768 -1.8283  3.6660  2.1186
   22MOL0     H 2931   7.880   3.613   2.948 -0.9193  0.4859 -1.3673
   22MOL0     H 2932   8.036   3.691   2.945 -0.9102 -0.1006  2.3819
   22MOL0     H 2933   7.892   3.789   2.917  0.4782  0.1302  0.2757
   22MOL0     H 2934   7.421   3.649   2.854 -0.1720 -1.5597  0.0446
   22MOL0     H 2935   7.188   3.721   2.841 -0.7217 -1.3155 -0.0909
   22MOL0     H 2936   6.980   3.759   2.772  2.2422  0.6506  0.6136
   22MOL0     H 2937   7.021   3.934   2.802 -0.0699  1.4718 -1.9155
   22MOL0     H 2938   6.838   4.013   2.668  0.8452 -0.7587 -1.0585
   22MOL0     H 2939   6.828   3.876   2.575  2.3096  0.4218 -0.4716
   22MOL0     H 2940   6.771   3.842   2.873 -0.5062  0.9120 -0.6139
   22MOL0     H 2941   6.722   3.750   2.736  0.2033 -0.1930 -0.7620
   22MOL0     H 2942   6.640   4.027   2.793  1.2548 -1.0033 -0.6963
   22MOL0     H 2943   6.565   3.934   2.667 -1.0037 -3.2758  0.4542
   22MOL0     H 2944   6.414   3.927   2.848  0.0738  0.0370 -0.4178
   22MOL0     H 2945   6.542   3.889   2.960  0.8832 -1.9863  0.3536
   22MOL0     H 2946   6.480   3.692   2.732 -0.4101 -0.6275 -0.2361
   22MOL0     H 2947   6.572   3.654   2.884 -2.6538 -2.7089  3.0746
   22MOL0     H 2948   6.390   3.709   3.027  2.9916 -0.0201 -0.6971
   22MOL0     H 2949   6.391   3.555   2.944 -2.1300 -0.0382  2.4223
   22MOL0     H 2950   6.253   3.734   2.760 -1.0756 -0.2533 -0.1364
   22MOL0     H 2951   6.188   3.770   2.915  1.3200 -1.8897  0.3606
   22MOL0     H 2952   7.256   3.871   2.431  1.0839  2.1652  0.2991
   22MOL0     H 2953   7.475   3.758   2.446 -0.0333 -1.0981 -0.1771
   22MOL0     H 2954   7.752   3.579   2.489 -0.9065 -2.6622  1.6693
   22MOL0     H 2955   7.975   3.532   2.390 -2.0433  2.4323 -0.7505
   22MOL0     H 2956  10.260   3.308   2.520  1.9598  1.6805  1.8154
   22MOL0     H 2957  10.477   3.354   2.429  0.3134  0.0948 -1.1152
   22MOL0     H 2958  10.673   3.715   2.159 -1.5450 -1.1742 -0.1433
   22MOL0     H 2959  10.893   3.811   2.067  2.0248 -0.4014 -3.1881
   22MOL0     H 2960  11.282   3.735   2.163  0.6272 -0.7058 -2.1642
   22MOL0     H 2961  11.213   3.577   2.196 -0.4235  1.5788  2.4701
   22MOL0     H 2962  11.327   3.665   1.925 -0.1144 -2.4199 -1.1424
   22MOL0     H 2963  11.267   3.515   1.965 -2.3491  2.0816 -0.8994
   22MOL0     H 2964  11.456   3.494   2.145 -0.5710  0.1824 -0.4111
   22MOL0     H 2965  11.523   3.653   2.103 -1.2226  0.6888 -0.6070
   22MOL0     H 2966  11.547   3.598   1.880 -0.5750  0.4380  0.5266
   22MOL0     H 2967  11.512   3.420   1.905  0.8643 -0.7831  1.6657
   22MOL0     H 2968  11.898   3.482   2.059  1.4893  1.9728 -0.9995
   22MOL0     H 2969  11.072   3.422   2.127 -3.0084 -2.7877  0.0609
   22MOL0     H 2970  10.885   3.342   2.207 -0.4622  0.5863 -0.1819
   23MOL0     O 2971   3.508   8.290   4.349 -0.4619 -0.1445  0.9116
   23MOL0     C 2972   3.456   8.235   4.246  0.2293  0.2897  0.3460
   23MOL0     O 2973   3.319   8.240   4.210 -0.9784 -0.0931 -0.2396
   23MOL0     C 2974   3.228   8.303   4.289 -0.1237  1.0949  0.2390
   23MOL0     C 2975   3.229   8.282   4.433 -0.3552  0.0685  0.4222
   23MOL0     C 2976   3.133   8.335   4.509  1.0170 -0.4080 -0.4685
   23MOL0     C 2977   3.019   8.393   4.457 -0.8122  0.7170  0.4227
   23MOL0     O 2978   2.923   8.443   4.545 -0.4890  0.8698  0.6473
   23MOL0     C 2979   2.844   8.545   4.488  0.0620 -0.0328  0.3992
   23MOL0     C 2980   2.766   8.600   4.602 -0.8799 -0.0373  0.6613
   23MOL0     C 2981   2.680   8.714   4.557 -1.5862 -0.2806 -0.5168
   23MOL0     C 2982   2.583   8.704   4.439 -0.1843 -0.6592  0.4624
   23MOL0     C 2983   2.472   8.810   4.439  0.0792 -0.3169 -0.1814
   23MOL0     C 2984   2.367   8.787   4.325  0.2624 -0.1253  0.4880
   23MOL0     C 2985   2.238   8.879   4.317  0.3608  0.4834 -0.7882
   23MOL0     C 2986   2.127   8.838   4.412 -0.4935 -0.0832 -0.6297
   23MOL0     N 2987   2.025   8.945   4.424 -0.2828  0.4076 -0.1832
   23MOL0     C 2988   1.929   8.969   4.331  0.1473  0.4202 -0.1060
   23MOL0     C 2989   1.836   9.051   4.393  0.1957  0.8227  0.3181
   23MOL0     C 2990   1.712   9.103   4.341  0.1108 -0.2356  0.8469
   23MOL0     C 2991   1.605   9.113   4.442  0.0727  0.0334  0.0738
   23MOL0     C 2992   1.481   9.193   4.402  0.2296  0.0685  0.2258
   23MOL0     C 2993   1.404   9.132   4.286  0.2737 -0.3366 -0.0412
   23MOL0     O 2994   1.374   8.994   4.317  0.3995 -0.2686 -0.3360
   23MOL0     C 2995   1.249   8.964   4.365  0.3690 -0.4699 -0.2882
   23MOL0     C 2996   1.190   8.853   4.303  0.3773 -0.0371  0.3160
   23MOL0     C 2997   1.053   8.816   4.329 -0.4872 -0.2295 -0.9505
   23MOL0     C 2998   0.987   8.721   4.235  0.8599  0.6105  1.0289
   23MOL0     C 2999   0.987   8.884   4.428  0.5603  0.8255 -0.5172
   23MOL0     C 3000   0.839   8.848   4.457  0.3875 -0.1165  1.0815
   23MOL0     O 3001   0.753   8.788   4.365  0.2446 -0.3126 -0.1589
   23MOL0     C 3002   0.622   8.770   4.398  0.3811  0.4576 -0.6029
   23MOL0     C 3003   0.583   8.698   4.510  0.2807 -0.7968 -0.2786
   23MOL0     C 3004   0.451   8.665   4.535 -0.2526  0.8524  0.6521
   23MOL0     C 3005   0.345   8.713   4.461 -0.2619  0.5002 -0.1619
   23MOL0     O 3006   0.208   8.702   4.496  0.1983  0.5764 -0.2445
   23MOL0     C 3007   0.102   8.761   4.416  0.4679 -0.2361 -0.0872
   23MOL0     C 3008  -0.041   8.734   4.470 -0.3637 -0.0638 -0.4212
   23MOL0     C 3009  -0.057   8.586   4.518  0.0116  0.1179 -0.8963
   23MOL0     C 3010  -0.196   8.571   4.572  0.1505  0.3793  0.5648
   23MOL0     C 3011  -0.211   8.428   4.624  0.5743  0.5718  0.2155
   23MOL0     C 3012  -0.352   8.409   4.678  0.4187 -0.5996  0.1414
   23MOL0     C 3013  -0.445   8.381   4.557 -0.1728 -0.4072  0.3065
   23MOL0     C 3014  -0.600   8.379   4.581  0.0303  0.0423  1.1891
   23MOL0    Cl 3015  -0.660   8.236   4.674 -0.1853 -0.2864 -0.6300
   23MOL0     C 3016   0.381   8.788   4.351 -0.7511  0.1173  0.1584
   23MOL0     C 3017   0.517   8.819   4.320 -0.2182 -0.1167  0.5965
   23MOL0     O 3018   0.805   8.880   4.569 -0.1675 -0.1614 -0.1927
   23MOL0     C 3019   1.045   8.990   4.502 -0.3225  0.3861  0.3121
   23MOL0     C 3020   1.181   9.030   4.467 -0.7718  0.0791 -0.9845
   23MOL0     N 3021   1.886   9.080   4.519  0.3672  0.8440  0.2345
   23MOL0     N 3022   1.994   9.011   4.542  0.0570 -0.0272 -0.2717
   23MOL0     C 3023   3.008   8.397   4.315 -1.2278 -1.0131 -0.5534
   23MOL0     C 3024   3.111   8.357   4.238 -0.5268 -0.5806  0.0803
   23MOL0     C 3025   3.543   8.160   4.154 -0.5014  0.4697 -0.0861
   23MOL0     C 3026   3.680   8.177   4.162  0.1860  0.5594  0.5051
   23MOL0     C 3027   3.770   8.122   4.073  0.4650 -1.1265  0.4941
   23MOL0     C 3028   3.715   8.042   3.973  0.4882 -0.4473  0.3442
   23MOL0     O 3029   3.812   7.993   3.880  0.0450 -0.1526 -0.4990
   23MOL0     C 3030   3.830   7.848   3.884 -0.0230  0.2071  0.5016
   23MOL0     C 3031   3.974   7.797   3.878  0.7074  0.6139  0.5308
   23MOL0     C 3032   4.061   7.814   4.002  0.2899  0.1541 -0.5902
   23MOL0     C 3033   4.207   7.757   3.998  0.4023 -0.6760 -0.3674
   23MOL0     C 3034   4.201   7.609   3.980 -1.0038  0.6938 -0.1870
   23MOL0     C 3035   4.191   7.491   3.955 -0.2274 -0.7357 -0.2529
   23MOL0     C 3036   3.577   8.013   3.965 -0.9977  0.1912  1.1857
   23MOL0     C 3037   3.494   8.071   4.057  0.8423  0.0560 -0.4534
   23MOL0     H 3038   3.310   8.228   4.479  1.5198  1.4829 -1.0108
   23MOL0     H 3039   3.139   8.330   4.617  1.1043  1.0311 -0.3903
   23MOL0     H 3040   2.903   8.625   4.443  0.7325  0.0495  1.3964
   23MOL0     H 3041   2.776   8.496   4.417 -0.5224 -1.3057  1.7960
   23MOL0     H 3042   2.697   8.520   4.633 -1.1533 -0.6797 -1.4600
   23MOL0     H 3043   2.827   8.622   4.690  1.4429 -0.5187 -0.7406
   23MOL0     H 3044   2.613   8.732   4.642 -1.6343  1.4970 -0.8852
   23MOL0     H 3045   2.746   8.800   4.542 -1.2458 -0.6305 -1.0293
   23MOL0     H 3046   2.637   8.700   4.344 -1.5993 -2.0914 -0.3304
   23MOL0     H 3047   2.534   8.607   4.451 -0.5594 -0.4629  0.5290
   23MOL0     H 3048   2.433   8.821   4.540  1.6507  0.1653  0.4083
   23MOL0     H 3049   2.526   8.904   4.427 -1.4471  0.8686  1.6696
   23MOL0     H 3050   2.428   8.802   4.235  1.0362  1.3553  1.2136
   23MOL0     H 3051   2.330   8.684   4.322 -0.5476  0.1677  0.1753
   23MOL0     H 3052   2.272   8.978   4.349  2.6319 -0.5255  0.0901
   23MOL0     H 3053   2.193   8.880   4.217 -0.3971 -1.2946 -0.4981
   23MOL0     H 3054   2.166   8.817   4.512 -2.1351  1.3680  0.3879
   23MOL0     H 3055   2.081   8.745   4.376  2.9993 -1.9487 -0.6920
   23MOL0     H 3056   1.922   8.925   4.232  0.7805 -1.6962  0.7403
   23MOL0     H 3057   1.721   9.205   4.303 -1.3931 -1.0476 -2.0526
   23MOL0     H 3058   1.680   9.050   4.251  1.7220  0.5138 -0.2228
   23MOL0     H 3059   1.642   9.164   4.531 -0.7165  0.9638 -0.1174
   23MOL0     H 3060   1.574   9.013   4.474 -0.8190  0.4502  0.5404
   23MOL0     H 3061   1.510   9.293   4.366  0.4829 -1.0431 -3.0278
   23MOL0     H 3062   1.417   9.191   4.490 -0.4370  0.0943 -0.2587
   23MOL0     H 3063   1.463   9.140   4.194 -1.2053  1.2920 -0.9031
   23MOL0     H 3064   1.311   9.186   4.265  1.1070 -0.1739 -4.1752
   23MOL0     H 3065   1.243   8.796   4.228  0.0309  1.1488 -0.8553
   23MOL0     H 3066   0.927   8.648   4.291 -0.8367  0.9642 -0.2674
   23MOL0     H 3067   0.925   8.767   4.158  0.9010  1.5475  1.5404
   23MOL0     H 3068   1.061   8.666   4.177  3.5521  3.7439  1.2219
   23MOL0     H 3069   0.657   8.654   4.577  0.0548  0.3696  0.7774
   23MOL0     H 3070   0.427   8.605   4.622  1.4506  1.7722  1.8333
   23MOL0     H 3071   0.125   8.868   4.409 -0.2912 -0.1132 -0.8498
   23MOL0     H 3072   0.108   8.715   4.317 -2.9627  0.4615 -0.7493
   23MOL0     H 3073  -0.060   8.789   4.563  1.6614  0.7335 -0.4489
   23MOL0     H 3074  -0.114   8.771   4.397 -0.7266  1.6468  0.7509
   23MOL0     H 3075   0.012   8.550   4.595 -0.0858 -1.7459 -1.6192
   23MOL0     H 3076  -0.042   8.519   4.433  0.4022  0.5741 -1.1876
   23MOL0     H 3077  -0.223   8.636   4.656  0.6668 -0.4995  1.4290
   23MOL0     H 3078  -0.267   8.599   4.494  1.1975  3.6758  0.6366
   23MOL0     H 3079  -0.138   8.403   4.701 -1.2722 -1.8801  1.3089
   23MOL0     H 3080  -0.186   8.361   4.541 -0.6586 -1.6196  1.5324
   23MOL0     H 3081  -0.346   8.324   4.747 -1.2441 -0.5021  0.4316
   23MOL0     H 3082  -0.377   8.495   4.740 -0.1210 -2.4739  2.6782
   23MOL0     H 3083  -0.422   8.285   4.510  0.6119  0.5905 -1.4409
   23MOL0     H 3084  -0.429   8.453   4.476  3.2337 -1.3128  0.0306
   23MOL0     H 3085  -0.648   8.386   4.483  1.4940 -1.5034  0.3050
   23MOL0     H 3086  -0.620   8.462   4.649 -1.9126  0.0168  0.7098
   23MOL0     H 3087   0.305   8.821   4.281 -0.5056 -1.1023 -0.7260
   23MOL0     H 3088   0.531   8.878   4.230 -1.4419  0.5809  0.8396
   23MOL0     H 3089   0.998   9.046   4.582  1.1113  1.0240  0.7487
   23MOL0     H 3090   1.222   9.108   4.531  0.6907 -0.8926 -0.6868
   23MOL0     H 3091   2.918   8.440   4.271 -1.7168 -1.1479  0.3041
   23MOL0     H 3092   3.101   8.367   4.131  0.5932 -0.2001 -0.0051
   23MOL0     H 3093   3.726   8.233   4.243  4.2502  0.5845 -1.5637
   23MOL0     H 3094   3.874   8.151   4.070 -0.2183  1.5355  0.1311
   23MOL0     H 3095   3.786   7.809   3.976  1.4107  1.0737  1.6074
   23MOL0     H 3096   3.770   7.809   3.801 -0.8913 -1.7219  1.9573
   23MOL0     H 3097   4.020   7.844   3.790  0.1839 -1.1536 -0.7425
   23MOL0     H 3098   3.955   7.696   3.842 -2.3110  1.0738  0.5937
   23MOL0     H 3099   4.012   7.768   4.088  2.0164  0.0641  0.3828
   23MOL0     H 3100   4.072   7.919   4.031  2.7330  0.2626 -1.6701
   23MOL0     H 3101   4.271   7.787   4.082  1.2440 -0.9672 -0.9020
   23MOL0     H 3102   4.243   7.806   3.907 -0.2560  0.7613  0.1119
   23MOL0     H 3103   4.188   7.385   3.945  2.8012 -1.0099  0.7343
   23MOL0     H 3104   3.545   7.940   3.892  0.5736  0.9796 -0.3687
   23MOL0     H 3105   3.389   8.042   4.051  0.9178 -0.0193 -1.5869
   24MOL0     O 3106   8.742   1.606   8.919 -0.0110 -0.6820  0.1309
   24MOL0     C 3107   8.804   1.521   8.984 -0.1462  0.3446  1.0607
   24MOL0     O 3108   8.934   1.537   9.036 -0.0890  0.2198  0.2672
   24MOL0     C 3109   8.993   1.661   9.023 -0.8032  0.0474  0.2444
   24MOL0     C 3110   9.112   1.659   8.944 -0.9111  0.0812  0.3995
   24MOL0     C 3111   9.192   1.771   8.939  0.7361 -0.3295 -0.3064
   24MOL0     C 3112   9.157   1.886   9.008  0.0239 -0.8098  0.1441
   24MOL0     O 3113   9.225   2.009   9.005  0.6476  0.0640  0.3494
   24MOL0     C 3114   9.303   2.024   8.885 -0.8442  0.4359  0.6345
   24MOL0     C 3115   9.447   1.971   8.918 -0.8938  0.2389 -0.3631
   24MOL0     C 3116   9.515   2.043   9.033 -0.2399  0.3155  0.2291
   24MOL0     C 3117   9.506   1.967   9.161  0.4938  0.2420  0.1821
   24MOL0     C 3118   9.595   2.047   9.263  0.1765  0.5293 -0.2101
   24MOL0     C 3119   9.557   2.026   9.413  0.1645 -0.1807 -1.0412
   24MOL0     C 3120   9.601   2.149   9.497 -0.6984  0.2998 -0.1079
   24MOL0     C 3121   9.614   2.117   9.649  0.2266  0.5048  0.8532
   24MOL0     N 3122   9.482   2.071   9.700 -0.4897  0.0480  0.4249
   24MOL0     C 3123   9.432   1.943   9.709 -0.2012 -0.5402 -0.4122
   24MOL0     C 3124   9.306   1.957   9.770 -0.1749  0.3520 -0.7165
   24MOL0     C 3125   9.207   1.851   9.811  0.1212  0.3632  0.6880
   24MOL0     C 3126   9.104   1.904   9.911 -0.1869  0.2228  0.1260
   24MOL0     C 3127   9.050   1.782   9.993  0.9199  0.1236 -0.1646
   24MOL0     C 3128   8.924   1.827  10.072  0.4005  0.0440 -1.0437
   24MOL0     O 3129   8.900   1.719  10.169  0.1086 -0.3097  0.5883
   24MOL0     C 3130   8.785   1.723  10.244 -0.0941 -0.2027  0.0477
   24MOL0     C 3131   8.785   1.632  10.344  0.8425 -0.2112 -0.0223
   24MOL0     C 3132   8.678   1.618  10.430  0.3769 -0.3322 -0.3055
   24MOL0     C 3133   8.685   1.507  10.539 -0.3915 -0.2588  0.6630
   24MOL0     C 3134   8.574   1.710  10.426 -0.0423 -0.2832 -0.0842
   24MOL0     C 3135   8.453   1.716  10.513 -0.7223 -0.1460  0.9570
   24MOL0     O 3136   8.348   1.804  10.484 -0.0458 -0.0580 -1.0389
   24MOL0     C 3137   8.245   1.799  10.570  0.3980 -0.7642 -0.2776
   24MOL0     C 3138   8.126   1.756  10.517  0.7336  0.2427  1.0459
   24MOL0     C 3139   8.015   1.765  10.591  0.2361 -0.2684 -0.1816
   24MOL0     C 3140   8.019   1.812  10.721  0.5333 -0.1836 -0.6944
   24MOL0     O 3141   7.905   1.829  10.803  0.0470 -0.0906  0.3352
   24MOL0     C 3142   7.784   1.752  10.783 -0.0845  0.3897  0.7738
   24MOL0     C 3143   7.676   1.800  10.872 -0.0857 -0.7536 -0.3283
   24MOL0     C 3144   7.699   1.764  11.017 -0.0180  0.1245 -0.2093
   24MOL0     C 3145   7.592   1.815  11.120 -0.0699  0.7046  0.4167
   24MOL0     C 3146   7.454   1.759  11.087 -0.4494 -0.7938 -0.0037
   24MOL0     C 3147   7.355   1.788  11.204  0.3909  0.4903  0.4802
   24MOL0     C 3148   7.211   1.740  11.167 -0.9062 -0.9321  0.6856
   24MOL0     C 3149   7.130   1.743  11.289 -0.0391 -0.1247  0.1898
   24MOL0    Cl 3150   6.955   1.711  11.232 -0.1005 -0.2289 -0.2800
   24MOL0     C 3151   8.133   1.867  10.774 -0.2245  0.1334 -0.5251
   24MOL0     C 3152   8.253   1.851  10.697 -1.2009 -1.2930  0.1809
   24MOL0     O 3153   8.464   1.647  10.611  0.3426 -0.7132  0.0083
   24MOL0     C 3154   8.586   1.809  10.328 -0.6540 -0.2134  0.3321
   24MOL0     C 3155   8.687   1.818  10.239 -0.4212  0.5907 -0.0804
   24MOL0     N 3156   9.282   2.095   9.781  0.2460  0.1506  0.3565
   24MOL0     N 3157   9.392   2.159   9.745 -0.4291  0.3614 -0.1824
   24MOL0     C 3158   9.039   1.882   9.086  1.1557  0.1634  0.0255
   24MOL0     C 3159   8.956   1.773   9.095  0.3884  0.4402 -0.3630
   24MOL0     C 3160   8.727   1.408   9.024  0.3464  0.9215 -0.5058
   24MOL0     C 3161   8.607   1.376   8.957 -0.0757  0.0392 -0.5200
   24MOL0     C 3162   8.539   1.250   8.996  0.3961 -0.0342  0.1113
   24MOL0     C 3163   8.582   1.173   9.102 -0.7179  1.0705 -0.1605
   24MOL0     O 3164   8.517   1.061   9.150 -0.3890 -0.3405  0.2041
   24MOL0     C 3165   8.557   0.946   9.078 -0.4161 -0.3942  0.8123
   24MOL0     C 3166   8.529   0.827   9.158  0.4877  0.1691 -0.3296
   24MOL0     C 3167   8.563   0.688   9.100 -0.2724 -0.0355 -0.2492
   24MOL0     C 3168   8.712   0.672   9.060  0.0375  0.7402  0.8409
   24MOL0     C 3169   8.791   0.706   9.176  0.1881  0.1344 -0.2293
   24MOL0     C 3170   8.856   0.736   9.277 -0.6711 -0.2181 -0.9481
   24MOL0     C 3171   8.705   1.209   9.156  0.0128  0.7018 -1.0146
   24MOL0     C 3172   8.772   1.323   9.131 -0.3180  0.3643 -0.5221
   24MOL0     H 3173   9.156   1.574   8.892  3.0214  1.7354  0.6971
   24MOL0     H 3174   9.287   1.766   8.886  1.3399  0.3866  0.6610
   24MOL0     H 3175   9.259   1.976   8.797 -1.6476 -0.2117  1.3648
   24MOL0     H 3176   9.303   2.130   8.861  2.3217  0.4573  0.2911
   24MOL0     H 3177   9.456   1.864   8.939  3.5123  0.0736 -2.0306
   24MOL0     H 3178   9.503   1.982   8.824  0.6728 -2.7578  0.1002
   24MOL0     H 3179   9.621   2.061   9.013  0.7045 -1.9194  2.7202
   24MOL0     H 3180   9.462   2.137   9.050 -1.3111  0.2240 -2.1370
   24MOL0     H 3181   9.399   1.961   9.180  0.1850  0.3719 -1.3631
   24MOL0     H 3182   9.547   1.866   9.153 -2.0300 -0.7025 -3.0941
   24MOL0     H 3183   9.704   2.033   9.255  0.2667 -1.8649  3.1310
   24MOL0     H 3184   9.580   2.154   9.248 -0.1922  0.4211 -0.6120
   24MOL0     H 3185   9.451   2.000   9.427  0.1659 -0.3401 -1.3180
   24MOL0     H 3186   9.614   1.944   9.456 -0.4961  0.0690  0.3554
   24MOL0     H 3187   9.699   2.173   9.455 -0.8276 -1.0907 -1.2878
   24MOL0     H 3188   9.531   2.233   9.490  0.6017  1.4757  0.4777
   24MOL0     H 3189   9.653   2.202   9.707 -0.4839  0.6364  1.1461
   24MOL0     H 3190   9.686   2.035   9.655 -1.5839 -1.7800 -3.8046
   24MOL0     H 3191   9.472   1.845   9.683  1.4488 -0.5929  1.9917
   24MOL0     H 3192   9.161   1.811   9.721  3.8258  1.9110 -2.1547
   24MOL0     H 3193   9.268   1.770   9.853  2.9824  1.2299 -1.5087
   24MOL0     H 3194   9.023   1.959   9.863 -1.4601  2.0111  3.9432
   24MOL0     H 3195   9.153   1.973   9.980 -1.8446  0.0499  1.5398
   24MOL0     H 3196   9.124   1.748  10.067 -1.0700  1.5631  2.7047
   24MOL0     H 3197   9.028   1.703   9.921  1.5419  1.9342 -2.4511
   24MOL0     H 3198   8.851   1.827   9.991  0.5422  1.6264 -1.1975
   24MOL0     H 3199   8.935   1.922  10.124  0.7446 -0.9842  0.8509
   24MOL0     H 3200   8.863   1.557  10.347  0.3370 -0.7171  1.1557
   24MOL0     H 3201   8.593   1.449  10.546 -0.2271 -0.3509  3.1725
   24MOL0     H 3202   8.774   1.446  10.521  0.3845 -0.1408  3.5537
   24MOL0     H 3203   8.701   1.558  10.635 -1.9341  1.6638 -0.0397
   24MOL0     H 3204   8.128   1.722  10.414 -0.0325  0.9643  0.7776
   24MOL0     H 3205   7.925   1.732  10.541  0.3609 -1.7175  0.4990
   24MOL0     H 3206   7.754   1.772  10.680 -0.4620  1.4556  1.0750
   24MOL0     H 3207   7.798   1.645  10.800 -1.3525  0.3650  1.8490
   24MOL0     H 3208   7.666   1.909  10.859  3.2651 -0.5527 -2.4430
   24MOL0     H 3209   7.584   1.755  10.835  0.5701 -0.9272 -1.8297
   24MOL0     H 3210   7.797   1.798  11.052 -0.4222  1.7609 -0.5697
   24MOL0     H 3211   7.708   1.655  11.019  1.7760  0.2509  0.1253
   24MOL0     H 3212   7.601   1.790  11.226 -2.9721 -0.1604  0.5587
   24MOL0     H 3213   7.597   1.924  11.123  0.6143  0.7522 -1.4007
   24MOL0     H 3214   7.461   1.650  11.081 -2.0927 -0.8503 -1.6993
   24MOL0     H 3215   7.416   1.807  10.996  1.9265 -1.9068 -1.6952
   24MOL0     H 3216   7.381   1.744  11.301  0.6353  1.2027  0.7464
   24MOL0     H 3217   7.336   1.895  11.215 -2.4625 -0.1482  3.4730
   24MOL0     H 3218   7.218   1.636  11.135 -0.7931 -0.6450 -0.2503
   24MOL0     H 3219   7.175   1.809  11.090 -0.2405  2.2870  3.0239
   24MOL0     H 3220   7.138   1.837  11.345  0.7978 -0.2648  0.3075
   24MOL0     H 3221   7.156   1.668  11.364 -1.5624 -1.5867 -0.6596
   24MOL0     H 3222   8.141   1.921  10.868 -1.9064 -0.3135 -0.0912
   24MOL0     H 3223   8.347   1.887  10.735 -1.1282 -1.1249 -0.1508
   24MOL0     H 3224   8.509   1.886  10.329 -0.1297  0.3281 -0.1144
   24MOL0     H 3225   8.674   1.888  10.157  1.7005  0.1400 -0.8647
   24MOL0     H 3226   9.017   1.972   9.142  1.5141 -0.0900  0.5806
   24MOL0     H 3227   8.862   1.776   9.150  0.6038 -0.6312  0.0995
   24MOL0     H 3228   8.561   1.438   8.881  2.5186  1.5857 -0.9496
   24MOL0     H 3229   8.463   1.199   8.937  1.8270  0.1366 -1.9933
   24MOL0     H 3230   8.497   0.949   8.987  0.5701  3.0903  0.1455
   24MOL0     H 3231   8.663   0.942   9.051 -0.6887 -0.6774 -0.2176
   24MOL0     H 3232   8.421   0.820   9.175  0.3696 -0.0756 -1.1715
   24MOL0     H 3233   8.558   0.830   9.264 -0.3397 -1.4643 -0.0274
   24MOL0     H 3234   8.502   0.682   9.009 -1.1730  2.6050  0.0985
   24MOL0     H 3235   8.528   0.610   9.168 -0.9567 -1.2566 -1.9346
   24MOL0     H 3236   8.745   0.742   8.983 -1.4755  1.0891  0.4779
   24MOL0     H 3237   8.731   0.572   9.019  1.4793  0.3942  2.2280
   24MOL0     H 3238   8.913   0.768   9.362  0.2785 -0.2115 -1.5737
   24MOL0     H 3239   8.747   1.132   9.220  1.0404  1.8869 -0.2062
   24MOL0     H 3240   8.872   1.330   9.173 -1.4234 -0.0221  2.4282
   25MOL0     O 3241   4.211  10.733   5.797 -0.4272  0.0078 -0.4146
   25MOL0     C 3242   4.314  10.670   5.832 -0.4275 -0.7541 -0.5314
   25MOL0     O 3243   4.321  10.535   5.857 -0.3081  0.1903 -0.0454
   25MOL0     C 3244   4.219  10.443   5.854  0.4529  0.5659 -0.1319
   25MOL0     C 3245   4.082  10.470   5.835 -0.7835  0.2940 -0.1624
   25MOL0     C 3246   3.991  10.359   5.822  0.4819 -0.1186  0.6692
   25MOL0     C 3247   4.030  10.226   5.831  0.8663 -0.6587  0.0619
   25MOL0     O 3248   3.939  10.119   5.838  0.0443  0.0655  0.0239
   25MOL0     C 3249   3.838  10.129   5.944 -0.2282 -0.5392 -0.3839
   25MOL0     C 3250   3.709  10.202   5.912 -0.5501  0.0419  0.4869
   25MOL0     C 3251   3.633  10.111   5.806  0.2300 -0.0711  0.3948
   25MOL0     C 3252   3.485  10.151   5.808  0.4752  0.0013 -0.2105
   25MOL0     C 3253   3.432  10.290   5.754 -0.3236 -0.0488 -0.2122
   25MOL0     C 3254   3.276  10.283   5.750 -0.1635  0.5426 -0.1982
   25MOL0     C 3255   3.207  10.414   5.710  0.9466  0.6412 -0.5416
   25MOL0     C 3256   3.055  10.401   5.716  0.6236  0.2086 -0.4106
   25MOL0     N 3257   2.983  10.510   5.656 -1.0887  0.2976 -0.5347
   25MOL0     C 3258   2.979  10.529   5.524 -0.0343 -0.2979  0.1815
   25MOL0     C 3259   2.895  10.633   5.505 -0.2976  0.1248  0.8309
   25MOL0     C 3260   2.857  10.682   5.370  0.0932  0.6169 -0.3916
   25MOL0     C 3261   2.756  10.804   5.383 -0.2241 -0.9442  0.1362
   25MOL0     C 3262   2.729  10.880   5.251 -0.2327  0.3119 -1.0328
   25MOL0     C 3263   2.715  11.030   5.270 -0.2535 -0.0823 -0.7324
   25MOL0     O 3264   2.629  11.059   5.379 -0.1162  0.4274 -0.4113
   25MOL0     C 3265   2.493  11.060   5.368 -0.3611  0.3340  0.2901
   25MOL0     C 3266   2.426  11.036   5.245  0.3994  0.4238  0.1328
   25MOL0     C 3267   2.295  11.077   5.231  0.5228  0.2421 -0.1680
   25MOL0     C 3268   2.220  11.034   5.113  0.4818  0.3382 -0.0071
   25MOL0     C 3269   2.231  11.138   5.336  0.7731 -0.7100 -0.2158
   25MOL0     C 3270   2.081  11.162   5.338 -0.4347 -0.1209  0.1436
   25MOL0     O 3271   1.998  11.078   5.272  0.3643  0.1883  0.0567
   25MOL0     C 3272   1.869  11.113   5.265 -0.2425  0.0445 -0.1688
   25MOL0     C 3273   1.833  11.220   5.179  0.2016  0.3002  0.5822
   25MOL0     C 3274   1.704  11.270   5.170 -0.2245 -0.1026  0.6553
   25MOL0     C 3275   1.601  11.210   5.250 -0.1263 -0.5779 -0.2710
   25MOL0     O 3276   1.470  11.235   5.224  0.0990 -0.7285 -0.7178
   25MOL0     C 3277   1.434  11.297   5.096  0.9587 -0.7584 -1.1006
   25MOL0     C 3278   1.300  11.358   5.099 -0.0291  0.0842 -0.4653
   25MOL0     C 3279   1.186  11.261   5.156  0.0793 -0.1054 -0.0663
   25MOL0     C 3280   1.103  11.327   5.264  0.8280  0.0207 -0.0932
   25MOL0     C 3281   0.990  11.236   5.297  0.3248 -0.7971 -0.4947
   25MOL0     C 3282   0.900  11.286   5.414 -0.2974 -0.3900  0.2761
   25MOL0     C 3283   0.832  11.423   5.389 -0.1044  0.5920 -0.0250
   25MOL0     C 3284   0.787  11.429   5.251  0.0237  0.5525  0.6230
   25MOL0    Cl 3285   0.654  11.546   5.222 -0.1948  0.1045 -0.0124
   25MOL0     C 3286   1.631  11.106   5.330  0.0632 -0.3164 -0.4559
   25MOL0     C 3287   1.763  11.061   5.338 -0.6527  0.1063 -0.1143
   25MOL0     O 3288   2.047  11.264   5.394 -0.5435 -0.2102  0.0976
   25MOL0     C 3289   2.300  11.161   5.466  0.5591  0.4766  0.1309
   25MOL0     C 3290   2.428  11.109   5.480  0.0311  0.1550  0.0313
   25MOL0     N 3291   2.842  10.666   5.632  0.4221 -0.6686  0.9688
   25MOL0     N 3292   2.899  10.590   5.723  0.7057  0.0380  1.0854
   25MOL0     C 3293   4.165  10.207   5.858 -0.8286 -0.0999  0.9025
   25MOL0     C 3294   4.251  10.306   5.870  0.0061  0.3518 -0.7717
   25MOL0     C 3295   4.434  10.750   5.862  0.6206 -0.2017 -0.4897
   25MOL0     C 3296   4.436  10.889   5.842  0.1201 -0.2579  0.5143
   25MOL0     C 3297   4.541  10.974   5.860 -0.0297  0.2284 -0.6180
   25MOL0     C 3298   4.659  10.918   5.917 -0.4233 -0.0552 -0.4349
   25MOL0     O 3299   4.782  10.983   5.937  0.4285 -0.1090 -0.2229
   25MOL0     C 3300   4.774  11.124   5.918  0.3424  0.9208 -0.0075
   25MOL0     C 3301   4.912  11.179   5.906  0.2764  0.1934  0.0744
   25MOL0     C 3302   4.980  11.115   5.785 -0.8555 -0.7687 -0.2351
   25MOL0     C 3303   5.104  11.198   5.742 -0.0139 -0.3030  0.0621
   25MOL0     C 3304   5.210  11.176   5.838 -0.3416 -0.7515 -0.3802
   25MOL0     C 3305   5.300  11.144   5.911  0.3653  0.3340  0.4031
   25MOL0     C 3306   4.659  10.780   5.947  0.6600  0.0795 -0.1792
   25MOL0     C 3307   4.551  10.697   5.913  0.2373 -0.2683  0.5314
   25MOL0     H 3308   4.046  10.572   5.838  0.5107  0.7549  2.1204
   25MOL0     H 3309   3.890  10.380   5.786  1.1696 -0.4051 -1.5994
   25MOL0     H 3310   3.818  10.029   5.982 -2.2338  0.2264  0.7689
   25MOL0     H 3311   3.886  10.188   6.023  2.9237 -1.0339 -1.7584
   25MOL0     H 3312   3.652  10.217   6.005 -2.9277 -0.1834 -0.8560
   25MOL0     H 3313   3.730  10.300   5.868  1.1674  0.4327  2.0703
   25MOL0     H 3314   3.689  10.109   5.712 -0.4083 -2.3528 -0.0072
   25MOL0     H 3315   3.643  10.009   5.844  1.0530 -0.2562 -0.2918
   25MOL0     H 3316   3.438  10.086   5.734 -0.4578  0.4122  0.0090
   25MOL0     H 3317   3.456  10.142   5.913 -0.4670  2.5873 -0.1870
   25MOL0     H 3318   3.477  10.358   5.827 -1.5189 -1.8545  2.3382
   25MOL0     H 3319   3.458  10.315   5.651 -0.7231 -0.9679 -0.5503
   25MOL0     H 3320   3.249  10.203   5.681  3.3592  0.0295 -1.1816
   25MOL0     H 3321   3.234  10.254   5.847  1.1259 -0.8861 -0.0382
   25MOL0     H 3322   3.247  10.492   5.775  1.0641  1.4430 -1.5462
   25MOL0     H 3323   3.242  10.452   5.614  2.1354 -1.4733 -1.0245
   25MOL0     H 3324   3.018  10.384   5.818  1.1321 -1.7181 -0.5114
   25MOL0     H 3325   3.024  10.316   5.656  0.0763  0.3619 -0.3552
   25MOL0     H 3326   3.016  10.470   5.441 -3.1782 -0.1584 -1.4589
   25MOL0     H 3327   2.943  10.718   5.312  1.7063  0.8370  1.9964
   25MOL0     H 3328   2.816  10.595   5.317 -1.2510  1.4815 -0.8225
   25MOL0     H 3329   2.794  10.870   5.461 -0.0006  0.1611 -0.8772
   25MOL0     H 3330   2.663  10.758   5.417 -0.6154 -0.3992 -0.1806
   25MOL0     H 3331   2.643  10.831   5.204 -1.0067 -0.7554  1.3511
   25MOL0     H 3332   2.819  10.865   5.190 -0.3028 -0.2939 -0.9884
   25MOL0     H 3333   2.684  11.079   5.177 -1.1826  0.9517  0.0880
   25MOL0     H 3334   2.807  11.083   5.296 -0.7105  1.1713 -1.5241
   25MOL0     H 3335   2.471  10.982   5.164 -2.9124 -3.6893  0.6861
   25MOL0     H 3336   2.148  11.107   5.074  0.9647 -0.4232 -2.4663
   25MOL0     H 3337   2.281  10.991   5.034 -0.7197 -0.9426 -0.2765
   25MOL0     H 3338   2.164  10.944   5.140  1.4947  0.6003  3.4839
   25MOL0     H 3339   1.905  11.264   5.111  1.9519  1.4225  3.0288
   25MOL0     H 3340   1.684  11.347   5.095  1.3141  1.8518  2.1388
   25MOL0     H 3341   1.484  11.388   5.063 -0.9673  1.8265  2.3902
   25MOL0     H 3342   1.441  11.223   5.016 -0.3339 -2.0008 -0.1168
   25MOL0     H 3343   1.308  11.428   5.183 -1.5873 -0.0665 -0.1634
   25MOL0     H 3344   1.280  11.411   5.006  2.9237  2.0608 -0.1078
   25MOL0     H 3345   1.233  11.175   5.205 -0.6271 -0.4490  0.0337
   25MOL0     H 3346   1.120  11.226   5.076 -0.9605 -0.5234  0.9278
   25MOL0     H 3347   1.160  11.333   5.357 -0.1954 -1.3970  0.6627
   25MOL0     H 3348   1.075  11.429   5.235  3.3148 -0.1919 -3.9196
   25MOL0     H 3349   1.039  11.143   5.326 -0.3903 -0.9155  0.3534
   25MOL0     H 3350   0.937  11.217   5.203 -1.7726 -0.2869  0.5136
   25MOL0     H 3351   0.825  11.208   5.431  0.5561 -1.6405 -1.4419
   25MOL0     H 3352   0.959  11.293   5.506  1.0763  0.8357 -0.6731
   25MOL0     H 3353   0.900  11.509   5.396  1.6511 -0.4407 -2.6967
   25MOL0     H 3354   0.741  11.438   5.447 -0.5575  2.0103 -1.0536
   25MOL0     H 3355   0.751  11.334   5.212 -3.3252  2.0188 -0.1647
   25MOL0     H 3356   0.875  11.448   5.188 -0.3599  2.6582  0.6406
   25MOL0     H 3357   1.556  11.054   5.389 -1.6768 -0.2221 -2.4825
   25MOL0     H 3358   1.785  10.979   5.405  0.3854  0.2839 -0.2262
   25MOL0     H 3359   2.256  11.187   5.561 -0.8583  3.4251 -1.2185
   25MOL0     H 3360   2.481  11.114   5.574 -0.4684  0.2582  0.3116
   25MOL0     H 3361   4.201  10.106   5.874  0.5483 -0.3849 -2.9996
   25MOL0     H 3362   4.353  10.274   5.888 -0.2864 -1.8084 -2.5734
   25MOL0     H 3363   4.350  10.946   5.807  0.8413  0.1873 -0.5942
   25MOL0     H 3364   4.523  11.073   5.820 -0.6348  0.8990  1.2044
   25MOL0     H 3365   4.726  11.142   5.822  1.3824 -4.1145 -1.8166
   25MOL0     H 3366   4.713  11.168   5.997  1.6441  0.6963  1.1561
   25MOL0     H 3367   4.970  11.158   5.996 -1.5613 -0.3640  1.1884
   25MOL0     H 3368   4.905  11.286   5.887  0.1259 -0.0721 -1.4967
   25MOL0     H 3369   4.908  11.130   5.703  0.5499 -3.8456 -2.1971
   25MOL0     H 3370   4.996  11.007   5.791  0.2383 -0.6446 -0.8366
   25MOL0     H 3371   5.086  11.306   5.732  1.2687 -0.1273 -0.6663
   25MOL0     H 3372   5.144  11.157   5.649 -0.4097 -1.9714  0.6032
   25MOL0     H 3373   5.383  11.105   5.967  0.5613  1.4074  0.8958
   25MOL0     H 3374   4.748  10.744   5.998  0.0902 -0.7943  0.2207
   25MOL0     H 3375   4.545  10.592   5.940 -2.5576  0.0605  1.5784
   26MOL0     O 3376   5.843   8.491  11.174  0.1926  0.3271 -0.2741
   26MOL0     C 3377   5.918   8.394  11.156  0.0082 -1.0300  0.5331
   26MOL0     O 3378   5.929   8.330  11.037 -0.0672  0.6560  0.1559
   26MOL0     C 3379   5.836   8.349  10.942 -0.0754 -0.5248  0.2627
   26MOL0     C 3380   5.829   8.474  10.880 -0.3127 -0.7833  0.0815
   26MOL0     C 3381   5.725   8.495  10.785 -0.2775 -0.0732  0.2695
   26MOL0     C 3382   5.628   8.397  10.758  0.0455 -0.1678 -0.4000
   26MOL0     O 3383   5.521   8.421  10.674  0.0605  0.4482 -0.4606
   26MOL0     C 3384   5.418   8.471  10.768 -0.3794  0.3341  0.0037
   26MOL0     C 3385   5.365   8.359  10.852 -0.4992 -0.1991  0.4250
   26MOL0     C 3386   5.216   8.371  10.898 -0.9185  0.4808  0.6784
   26MOL0     C 3387   5.207   8.409  11.043 -0.0078 -0.2671 -0.6773
   26MOL0     C 3388   5.065   8.450  11.079 -0.2950 -0.4132 -1.0849
   26MOL0     C 3389   4.975   8.329  11.114 -0.3603 -0.0490  0.0117
   26MOL0     C 3390   4.844   8.381  11.159 -0.9851 -0.4652  0.7048
   26MOL0     C 3391   4.778   8.494  11.063  1.6236  0.0531  0.5990
   26MOL0     N 3392   4.630   8.487  11.064 -0.3423 -0.5165  0.0957
   26MOL0     C 3393   4.544   8.469  10.958  0.6247 -0.3366  0.3032
   26MOL0     C 3394   4.422   8.437  11.007 -0.1292  0.1501  0.0656
   26MOL0     C 3395   4.302   8.399  10.934 -0.5959  0.4376 -0.4958
   26MOL0     C 3396   4.169   8.390  11.016  0.4292 -0.7059 -0.4598
   26MOL0     C 3397   4.062   8.347  10.917  0.3131 -0.4759  0.0038
   26MOL0     C 3398   3.926   8.334  10.982 -0.9527  0.8505 -0.1072
   26MOL0     O 3399   3.835   8.290  10.881  0.0899 -0.3852  0.2907
   26MOL0     C 3400   3.695   8.272  10.903  0.5377  0.4682 -0.2232
   26MOL0     C 3401   3.629   8.312  11.018 -0.5339  0.7420  0.3694
   26MOL0     C 3402   3.488   8.300  11.031 -0.3168  0.2667 -0.8064
   26MOL0     C 3403   3.422   8.359  11.151 -0.3624 -0.4484 -0.1308
   26MOL0     C 3404   3.410   8.242  10.928 -0.0882 -0.4572  0.1426
   26MOL0     C 3405   3.263   8.225  10.922 -0.5346 -0.6653  0.8713
   26MOL0     O 3406   3.226   8.140  10.815 -0.2179 -1.0372  0.6626
   26MOL0     C 3407   3.092   8.107  10.813 -0.1673  1.2504  0.2976
   26MOL0     C 3408   2.999   8.179  10.743  0.3060  0.6106  0.7033
   26MOL0     C 3409   2.865   8.142  10.730 -0.1963  0.1427  0.8350
   26MOL0     C 3410   2.817   8.035  10.795 -0.2037  0.2546 -0.4127
   26MOL0     O 3411   2.677   8.008  10.805 -0.8318  0.1584  0.3747
   26MOL0     C 3412   2.608   8.003  10.677  0.6596 -0.1095  0.7607
   26MOL0     C 3413   2.581   7.853  10.628 -0.5966  0.1398 -0.1631
   26MOL0     C 3414   2.709   7.760  10.633  0.0209  0.0714 -0.0238
   26MOL0     C 3415   2.799   7.813  10.511  0.4056  0.3214 -0.5218
   26MOL0     C 3416   2.923   7.725  10.516 -0.0185 -1.2813 -0.2124
   26MOL0     C 3417   2.925   7.607  10.420  0.4662  0.4090 -0.6375
   26MOL0     C 3418   3.058   7.526  10.417  0.0033  0.0247  0.1020
   26MOL0     C 3419   3.049   7.409  10.314  0.5639  0.7339  0.1104
   26MOL0    Cl 3420   2.891   7.324  10.331  0.3034 -0.0938 -0.1694
   26MOL0     C 3421   2.904   7.958  10.870 -0.2329 -0.8514 -0.3430
   26MOL0     C 3422   3.042   7.996  10.880  0.0585  0.1922 -0.9210
   26MOL0     O 3423   3.184   8.278  10.997 -0.8617  0.0003 -0.4180
   26MOL0     C 3424   3.485   8.197  10.814  1.0122 -0.2771  0.4661
   26MOL0     C 3425   3.624   8.207  10.803  0.0027 -1.2539 -0.2705
   26MOL0     N 3426   4.433   8.446  11.143 -0.1682 -0.3146  0.2294
   26MOL0     N 3427   4.555   8.479  11.180 -0.2018  0.4485  0.2714
   26MOL0     C 3428   5.636   8.269  10.825 -0.5377  0.1840  0.7329
   26MOL0     C 3429   5.740   8.250  10.914  0.2769  1.0370  0.0852
   26MOL0     C 3430   6.010   8.360  11.270  0.0510  0.1846  0.8379
   26MOL0     C 3431   6.068   8.234  11.269 -0.3214  0.6474 -0.4951
   26MOL0     C 3432   6.151   8.191  11.368 -0.2652  0.2087  0.8507
   26MOL0     C 3433   6.189   8.284  11.464  0.7093 -0.5235  0.2437
   26MOL0     O 3434   6.275   8.251  11.566  0.6425 -0.2220  0.0237
   26MOL0     C 3435   6.387   8.326  11.574 -0.4000 -0.0859 -0.2557
   26MOL0     C 3436   6.466   8.286  11.699  0.3319 -0.1159  0.2830
   26MOL0     C 3437   6.583   8.384  11.724  1.0569  0.3857  0.7456
   26MOL0     C 3438   6.680   8.323  11.829 -0.6504  0.1068  0.2861
   26MOL0     C 3439   6.780   8.421  11.883 -0.2910  0.7943 -0.9828
   26MOL0     C 3440   6.862   8.496  11.930  0.7100  0.6696 -0.0422
   26MOL0     C 3441   6.125   8.415  11.465 -0.1569  1.1985 -0.5477
   26MOL0     C 3442   6.042   8.457  11.366  1.0094 -0.1439  0.2450
   26MOL0     H 3443   5.905   8.547  10.904 -2.1017  0.4658  2.4266
   26MOL0     H 3444   5.702   8.588  10.734 -1.2877 -1.8862 -2.8450
   26MOL0     H 3445   5.461   8.552  10.829 -1.5294  0.4520  0.6974
   26MOL0     H 3446   5.333   8.519  10.718  0.3614  1.5419 -0.1333
   26MOL0     H 3447   5.358   8.272  10.786 -0.0843 -0.5842  0.8860
   26MOL0     H 3448   5.420   8.336  10.944 -4.2660 -1.0396  2.6718
   26MOL0     H 3449   5.158   8.429  10.826 -0.6056 -0.7566 -0.6211
   26MOL0     H 3450   5.174   8.271  10.886 -1.5916  0.7172  1.0462
   26MOL0     H 3451   5.244   8.338  11.118  1.0318 -0.4222 -1.3132
   26MOL0     H 3452   5.276   8.492  11.058  1.7059 -2.0792  2.4859
   26MOL0     H 3453   5.064   8.517  11.166  1.3014  0.2739 -1.5608
   26MOL0     H 3454   5.020   8.501  10.993 -0.7615 -3.1655 -2.5786
   26MOL0     H 3455   4.959   8.266  11.026 -2.0985  0.0940  0.1809
   26MOL0     H 3456   5.020   8.270  11.194 -0.3373  1.4101  1.1296
   26MOL0     H 3457   4.777   8.295  11.152 -0.2787 -0.9754  0.0132
   26MOL0     H 3458   4.855   8.410  11.264 -1.0409 -1.3303  0.9540
   26MOL0     H 3459   4.816   8.484  10.961  0.1621  1.1986 -0.1054
   26MOL0     H 3460   4.811   8.590  11.104  1.6061  0.1775  0.3258
   26MOL0     H 3461   4.586   8.471  10.857 -0.5140 -0.4881 -0.1884
   26MOL0     H 3462   4.283   8.468  10.851 -1.1495  0.9970  0.0859
   26MOL0     H 3463   4.327   8.302  10.890  1.6551  1.5736 -1.9538
   26MOL0     H 3464   4.139   8.487  11.058  0.9904 -0.6000 -0.2901
   26MOL0     H 3465   4.169   8.309  11.089  2.3706 -0.7139 -0.4234
   26MOL0     H 3466   4.094   8.253  10.871  0.7421  0.4406 -1.6490
   26MOL0     H 3467   4.050   8.417  10.834  0.7875 -1.6674 -1.1016
   26MOL0     H 3468   3.901   8.430  11.027  0.7226  0.9928  0.6017
   26MOL0     H 3469   3.937   8.264  11.065  2.9680 -0.1376 -1.2319
   26MOL0     H 3470   3.690   8.352  11.099 -0.8624 -0.9206  1.5019
   26MOL0     H 3471   3.406   8.467  11.136  0.0804 -0.0996  1.6551
   26MOL0     H 3472   3.325   8.313  11.175  1.0512 -2.8281  1.4268
   26MOL0     H 3473   3.495   8.348  11.231  1.2747  0.0944 -1.4919
   26MOL0     H 3474   3.021   8.271  10.691 -1.1317  1.2453  1.1658
   26MOL0     H 3475   2.796   8.201  10.670  0.7736 -0.3391 -0.8216
   26MOL0     H 3476   2.515   8.060  10.675  0.5014 -0.3529 -2.1283
   26MOL0     H 3477   2.662   8.049  10.594  1.5526 -0.9113  0.8823
   26MOL0     H 3478   2.503   7.810  10.691  0.1748  0.5065  1.0910
   26MOL0     H 3479   2.537   7.846  10.528 -3.3584 -1.0637  1.0442
   26MOL0     H 3480   2.676   7.657  10.614  2.1558 -0.5413 -0.7841
   26MOL0     H 3481   2.757   7.768  10.731 -1.6874 -1.8718  1.0418
   26MOL0     H 3482   2.743   7.807  10.417 -0.1266 -0.2087 -0.1746
   26MOL0     H 3483   2.825   7.919  10.523 -3.0039  1.1651  0.7933
   26MOL0     H 3484   2.927   7.682  10.617 -2.8699  0.1229  0.6032
   26MOL0     H 3485   3.001   7.796  10.489 -1.3433  0.4939  0.4578
   26MOL0     H 3486   2.838   7.547  10.449 -0.3121  1.7677 -0.0868
   26MOL0     H 3487   2.902   7.647  10.321 -2.8235  1.9315  0.6066
   26MOL0     H 3488   3.094   7.492  10.514  1.0243  0.3732 -0.1484
   26MOL0     H 3489   3.133   7.593  10.375 -0.2738  0.9473  1.0268
   26MOL0     H 3490   3.123   7.331  10.335 -1.9937 -1.8423  0.3861
   26MOL0     H 3491   3.062   7.439  10.210  1.1373  0.1769  0.0157
   26MOL0     H 3492   2.862   7.869  10.916  0.6256 -0.2486  1.7129
   26MOL0     H 3493   3.107   7.932  10.940 -0.6680 -0.2016 -0.5357
   26MOL0     H 3494   3.444   8.151  10.724 -1.0537  1.8670  0.2149
   26MOL0     H 3495   3.673   8.183  10.709  2.5083  0.2487  0.5451
   26MOL0     H 3496   5.563   8.190  10.807 -3.3713  2.8081 -0.1325
   26MOL0     H 3497   5.749   8.156  10.967  4.1353  0.8591 -0.6031
   26MOL0     H 3498   6.040   8.170  11.186 -1.4055  1.0247 -0.4404
   26MOL0     H 3499   6.181   8.087  11.360  0.0671  0.2649  1.3630
   26MOL0     H 3500   6.451   8.315  11.486  3.1827  0.7246  2.0296
   26MOL0     H 3501   6.354   8.431  11.575 -1.2497 -0.3494  0.6075
   26MOL0     H 3502   6.495   8.182  11.680  5.4715  0.8481  1.1885
   26MOL0     H 3503   6.403   8.293  11.788  2.2200 -2.2607  1.9225
   26MOL0     H 3504   6.550   8.481  11.763  0.7931  0.4586  0.3390
   26MOL0     H 3505   6.635   8.398  11.629 -1.0225 -1.4855 -0.7733
   26MOL0     H 3506   6.732   8.246  11.771 -0.0332  1.4002 -0.9291
   26MOL0     H 3507   6.620   8.285  11.912 -1.3642 -0.6634 -0.5600
   26MOL0     H 3508   6.938   8.546  11.987  1.3600  0.7351 -0.9527
   26MOL0     H 3509   6.137   8.479  11.552 -3.0486  0.4499  0.5351
   26MOL0     H 3510   5.997   8.556  11.365 -0.4418 -0.7714  0.2287
   27MOL0     O 3511   5.301  10.998   8.006  0.1154 -0.0576 -0.3910
   27MOL0     C 3512   5.309  10.999   7.887  0.6222 -0.0159 -0.4551
   27MOL0     O 3513   5.215  11.025   7.795  0.6917 -0.1739 -0.6261
   27MOL0     C 3514   5.084  11.047   7.834  1.3462  0.1920  0.5800
   27MOL0     C 3515   4.995  11.086   7.724 -0.1275  0.5604  0.7863
   27MOL0     C 3516   4.856  11.108   7.744 -0.5725  0.8142 -0.1509
   27MOL0     C 3517   4.800  11.093   7.874 -0.3566  0.4176  0.5351
   27MOL0     O 3518   4.665  11.127   7.877  0.2024  0.0187 -0.1989
   27MOL0     C 3519   4.579  11.090   7.984  0.7284  0.2207  0.1270
   27MOL0     C 3520   4.442  11.102   7.915 -0.5543 -0.6820  0.3515
   27MOL0     C 3521   4.334  11.070   8.017 -0.4813 -0.4253  0.5507
   27MOL0     C 3522   4.196  11.095   7.954  0.2701  0.3707  0.3008
   27MOL0     C 3523   4.091  11.083   8.065  0.6319 -0.8426  0.1884
   27MOL0     C 3524   4.085  10.956   8.145  0.6141 -0.4290 -1.0920
   27MOL0     C 3525   3.949  10.937   8.211 -0.0897  0.0135 -0.5903
   27MOL0     C 3526   3.969  10.970   8.363  0.7330 -0.0605 -0.3155
   27MOL0     N 3527   3.847  10.970   8.440  0.1206  0.2304  0.2638
   27MOL0     C 3528   3.717  10.956   8.390 -0.4560 -0.5485 -0.0686
   27MOL0     C 3529   3.642  10.976   8.499 -0.1405 -0.0553  0.2292
   27MOL0     C 3530   3.494  10.961   8.516 -0.6942 -0.0445  0.7810
   27MOL0     C 3531   3.408  10.993   8.391 -0.5939  0.4605  0.3226
   27MOL0     C 3532   3.266  10.940   8.402 -0.5508  0.7455 -0.0812
   27MOL0     C 3533   3.181  10.965   8.276 -0.0142  0.0133  0.0573
   27MOL0     O 3534   3.077  11.067   8.293  0.6362 -0.3003 -0.4306
   27MOL0     C 3535   3.059  11.160   8.189  0.1120  0.0429 -0.3101
   27MOL0     C 3536   3.158  11.257   8.172  0.5822  0.1177 -0.5227
   27MOL0     C 3537   3.137  11.364   8.076  0.2433  0.2788  0.2506
   27MOL0     C 3538   3.244  11.466   8.056  0.8188 -0.0745 -0.2954
   27MOL0     C 3539   3.016  11.367   8.003 -0.4002  0.1572 -0.4917
   27MOL0     C 3540   2.986  11.456   7.897 -1.1867  0.3338  0.2942
   27MOL0     O 3541   2.854  11.484   7.886  0.6259  0.2268  0.3803
   27MOL0     C 3542   2.809  11.569   7.790 -0.4050 -0.2431  1.1755
   27MOL0     C 3543   2.848  11.560   7.643  0.2138  0.2067 -0.7635
   27MOL0     C 3544   2.785  11.650   7.546 -1.0674 -0.6943 -0.4667
   27MOL0     C 3545   2.690  11.741   7.592  0.2433 -0.0134 -0.3992
   27MOL0     O 3546   2.632  11.813   7.487  0.3470  0.2301 -0.1839
   27MOL0     C 3547   2.504  11.887   7.499 -0.4537  0.8508 -0.4891
   27MOL0     C 3548   2.457  11.905   7.351 -0.5248 -0.2841  0.7142
   27MOL0     C 3549   2.331  11.989   7.325 -0.4675  0.5408  0.1902
   27MOL0     C 3550   2.197  11.928   7.373 -0.3232 -0.5598 -0.2456
   27MOL0     C 3551   2.082  12.027   7.359  0.1577 -0.3835  0.0887
   27MOL0     C 3552   2.031  12.053   7.213 -0.2728 -0.3839 -0.1377
   27MOL0     C 3553   1.918  12.149   7.216 -0.1652  0.4527  0.1244
   27MOL0     C 3554   1.824  12.155   7.101 -0.2492  0.5413 -0.1699
   27MOL0    Cl 3555   1.721  12.301   7.119 -0.3802  0.0821 -0.3185
   27MOL0     C 3556   2.659  11.747   7.727  0.6126 -0.6431  0.4901
   27MOL0     C 3557   2.711  11.664   7.822 -0.4154  1.1336 -0.2163
   27MOL0     O 3558   3.080  11.487   7.813 -0.0106 -0.3202  0.3400
   27MOL0     C 3559   2.926  11.266   8.024  0.2611 -0.0922 -0.7498
   27MOL0     C 3560   2.947  11.168   8.111 -0.0420 -0.0251  0.4833
   27MOL0     N 3561   3.718  10.993   8.611 -0.7626  0.4125  0.0747
   27MOL0     N 3562   3.838  11.002   8.571  0.0526 -0.9792  0.5473
   27MOL0     C 3563   4.880  11.059   7.977  0.3285 -0.2441 -1.1949
   27MOL0     C 3564   5.020  11.032   7.958  0.4970  0.1646 -0.2260
   27MOL0     C 3565   5.443  10.963   7.824 -0.1000 -0.0666  0.2049
   27MOL0     C 3566   5.553  10.929   7.910 -0.9630  0.3288 -0.7340
   27MOL0     C 3567   5.680  10.918   7.861 -0.3210  0.4884  0.1270
   27MOL0     C 3568   5.701  10.918   7.717  0.0209  0.6849  0.3623
   27MOL0     O 3569   5.821  10.885   7.658  0.2436  0.4153 -0.3278
   27MOL0     C 3570   5.933  10.848   7.734 -0.3287 -0.3548 -1.0075
   27MOL0     C 3571   6.009  10.971   7.778  1.0271 -0.5763 -0.4393
   27MOL0     C 3572   6.085  11.062   7.676  0.6056 -0.8861 -0.6972
   27MOL0     C 3573   6.091  11.009   7.529 -0.0057 -0.2831 -0.0328
   27MOL0     C 3574   6.197  11.081   7.460 -0.4479 -0.3554 -0.1595
   27MOL0     C 3575   6.288  11.143   7.414 -0.0423 -0.3216  0.1792
   27MOL0     C 3576   5.587  10.940   7.631 -0.4996  0.3495 -1.0062
   27MOL0     C 3577   5.458  10.961   7.682 -0.9800 -0.3735  0.3579
   27MOL0     H 3578   5.031  11.107   7.624 -1.8544 -1.0789 -0.2526
   27MOL0     H 3579   4.796  11.131   7.656  0.1347  0.6912 -0.6795
   27MOL0     H 3580   4.579  10.991   8.030 -0.7530  1.9902  4.4042
   27MOL0     H 3581   4.589  11.151   8.074  2.7132  0.8755 -0.4693
   27MOL0     H 3582   4.438  11.206   7.882 -2.4251 -0.4797  1.1334
   27MOL0     H 3583   4.441  11.036   7.828 -0.4554  3.0224 -2.7063
   27MOL0     H 3584   4.340  10.965   8.046  3.5656 -0.3519  0.5296
   27MOL0     H 3585   4.356  11.124   8.110 -1.0261 -0.6573  0.8236
   27MOL0     H 3586   4.181  11.191   7.902 -0.5842  0.4436  0.6628
   27MOL0     H 3587   4.186  11.021   7.874  4.6520  0.0340 -0.1543
   27MOL0     H 3588   4.111  11.168   8.131 -1.9409 -1.1728  1.5104
   27MOL0     H 3589   3.997  11.115   8.021  1.6392  0.9396 -0.7815
   27MOL0     H 3590   4.093  10.871   8.077  0.8349 -1.0505 -0.3013
   27MOL0     H 3591   4.166  10.944   8.217  1.0670  1.3234 -1.2527
   27MOL0     H 3592   3.870  10.993   8.160 -2.0395  0.2484  2.4201
   27MOL0     H 3593   3.923  10.831   8.206  1.2295 -0.3628 -0.1010
   27MOL0     H 3594   4.005  11.071   8.385 -0.8610  0.6900 -0.9612
   27MOL0     H 3595   4.040  10.902   8.409 -0.7775  0.4300  3.0178
   27MOL0     H 3596   3.690  10.913   8.294 -1.5054 -0.2244  0.0688
   27MOL0     H 3597   3.481  10.860   8.556  5.1260 -0.8498  1.6311
   27MOL0     H 3598   3.470  11.035   8.592 -3.4957  1.8204 -1.6715
   27MOL0     H 3599   3.461  10.940   8.311 -4.0138 -1.2363 -1.0011
   27MOL0     H 3600   3.417  11.101   8.375 -1.2403  0.4385 -0.2364
   27MOL0     H 3601   3.214  10.978   8.491  1.6818  1.8258  0.8415
   27MOL0     H 3602   3.268  10.831   8.412 -1.9699  0.6532 -0.5645
   27MOL0     H 3603   3.150  10.868   8.236  0.7396  0.1853 -0.9721
   27MOL0     H 3604   3.247  10.994   8.194  0.8214 -0.7946  0.4329
   27MOL0     H 3605   3.240  11.248   8.242  2.8529 -0.8414 -3.1135
   27MOL0     H 3606   3.209  11.567   8.076 -2.0582 -0.8565 -0.9462
   27MOL0     H 3607   3.334  11.433   8.109 -0.4344 -1.3804  1.1333
   27MOL0     H 3608   3.277  11.482   7.953  0.1642 -3.0804 -1.0850
   27MOL0     H 3609   2.921  11.482   7.624  0.3747 -0.7845  3.0486
   27MOL0     H 3610   2.821  11.644   7.444  1.0555 -0.8640  0.2310
   27MOL0     H 3611   2.433  11.827   7.557  0.8153  1.3919  1.7302
   27MOL0     H 3612   2.511  11.987   7.542 -2.4134 -0.4324  3.3000
   27MOL0     H 3613   2.536  11.954   7.293 -2.2724 -0.0986 -1.6794
   27MOL0     H 3614   2.437  11.808   7.303 -1.4611  0.8644 -1.3774
   27MOL0     H 3615   2.328  11.996   7.216 -1.3936 -1.2579  0.0463
   27MOL0     H 3616   2.344  12.090   7.364 -2.1816  1.0671 -0.5198
   27MOL0     H 3617   2.183  11.836   7.316  1.9223 -3.8701  3.9325
   27MOL0     H 3618   2.191  11.899   7.479 -4.5391  0.3167 -0.0393
   27MOL0     H 3619   2.114  12.122   7.403  2.7082 -0.2030 -1.9541
   27MOL0     H 3620   1.999  11.995   7.423  1.1758 -2.7706  0.3017
   27MOL0     H 3621   2.106  12.096   7.145  0.5811 -0.2415  0.8699
   27MOL0     H 3622   2.005  11.967   7.151 -0.9892  1.4810 -2.6112
   27MOL0     H 3623   1.966  12.246   7.234 -0.0347  0.5497 -0.7039
   27MOL0     H 3624   1.849  12.131   7.299  0.4481 -0.7831  0.4039
   27MOL0     H 3625   1.758  12.068   7.100 -0.0279  0.3342  1.0606
   27MOL0     H 3626   1.890  12.156   7.013  1.5376 -1.8982  1.0220
   27MOL0     H 3627   2.587  11.817   7.766  1.4969 -0.6592  2.2575
   27MOL0     H 3628   2.690  11.677   7.927 -1.0856  0.7933 -0.3081
   27MOL0     H 3629   2.830  11.264   7.972 -0.5737 -0.9739  0.7329
   27MOL0     H 3630   2.869  11.092   8.117 -0.7547  0.7077  0.5896
   27MOL0     H 3631   4.837  11.047   8.076  1.4306 -1.3849 -0.8358
   27MOL0     H 3632   5.061  10.992   8.051 -1.3865 -3.4557 -0.7676
   27MOL0     H 3633   5.552  10.919   8.018  1.4410  1.2167 -0.5873
   27MOL0     H 3634   5.761  10.897   7.930 -2.1437  0.6298  2.4380
   27MOL0     H 3635   5.912  10.789   7.824  1.0934  0.1948 -0.2905
   27MOL0     H 3636   5.996  10.783   7.673  0.2800 -1.6988  0.9947
   27MOL0     H 3637   6.076  10.934   7.856 -0.3142 -1.4302  0.3300
   27MOL0     H 3638   5.951  11.044   7.834  2.8971  0.5381  0.1498
   27MOL0     H 3639   6.185  11.089   7.710  0.0887  1.0085 -0.5182
   27MOL0     H 3640   6.018  11.149   7.672 -1.8967 -2.7138 -1.0613
   27MOL0     H 3641   6.003  11.019   7.465  2.2677  1.8682 -3.1503
   27MOL0     H 3642   6.132  10.908   7.534  2.1752  0.5894  2.5254
   27MOL0     H 3643   6.369  11.201   7.376 -1.2887  0.6490 -1.1033
   27MOL0     H 3644   5.598  10.944   7.523 -1.2132  0.0471 -1.0973
   27MOL0     H 3645   5.372  10.976   7.618 -0.7480  0.1520  0.1652
   28MOL0     O 3646   3.726   1.197  10.807 -0.9237  0.6841  0.3192
   28MOL0     C 3647   3.847   1.192  10.782  0.1228  0.7094  0.4572
   28MOL0     O 3648   3.919   1.079  10.776  0.6550 -0.5654 -0.5139
   28MOL0     C 3649   3.855   0.957  10.778 -0.1880  0.9191  0.1386
   28MOL0     C 3650   3.768   0.927  10.881  0.2228 -0.0910  0.1877
   28MOL0     C 3651   3.714   0.800  10.882 -0.3152 -0.8987 -0.2736
   28MOL0     C 3652   3.748   0.700  10.805  0.5593  0.2633  0.9598
   28MOL0     O 3653   3.683   0.583  10.820 -0.1444 -0.5062 -0.3143
   28MOL0     C 3654   3.745   0.467  10.761  0.7236 -0.2950  0.1098
   28MOL0     C 3655   3.721   0.336  10.847  0.2492 -0.5430  0.5856
   28MOL0     C 3656   3.794   0.332  10.985 -0.5429  0.2331  1.3632
   28MOL0     C 3657   3.939   0.351  10.970 -0.1686  0.1872  0.4757
   28MOL0     C 3658   4.029   0.292  11.087  0.1940 -0.3064 -0.4384
   28MOL0     C 3659   4.177   0.339  11.081  0.3770 -0.3800  0.3103
   28MOL0     C 3660   4.276   0.230  11.137  0.0675 -0.3595  0.2905
   28MOL0     C 3661   4.421   0.291  11.114  0.6322  0.1380  0.3316
   28MOL0     N 3662   4.522   0.228  11.204 -0.1954 -0.1480 -0.1173
   28MOL0     C 3663   4.511   0.176  11.330 -0.0558 -0.7696  0.5972
   28MOL0     C 3664   4.634   0.107  11.346 -0.6342 -0.1503 -0.0761
   28MOL0     C 3665   4.671   0.018  11.470 -0.6977  1.1862 -0.3639
   28MOL0     C 3666   4.615   0.075  11.607 -0.1682  0.3465 -0.3258
   28MOL0     C 3667   4.615  -0.032  11.714 -0.0871 -0.0629 -0.1532
   28MOL0     C 3668   4.537   0.027  11.830  0.2953  1.4165  1.1594
   28MOL0     O 3669   4.410  -0.032  11.820  0.8076  0.1397 -0.0272
   28MOL0     C 3670   4.319   0.044  11.881  0.9904  0.9786  0.2955
   28MOL0     C 3671   4.319   0.063  12.021 -0.3123 -0.3485  0.5572
   28MOL0     C 3672   4.229   0.149  12.084  0.5497  0.2313  1.0919
   28MOL0     C 3673   4.228   0.148  12.238 -0.4100  0.0266  0.1028
   28MOL0     C 3674   4.131   0.224  12.007 -0.2139  0.1678  0.1415
   28MOL0     C 3675   4.027   0.315  12.068 -0.3799 -0.3398  1.1310
   28MOL0     O 3676   3.956   0.396  11.975  0.5128 -0.0747  0.2054
   28MOL0     C 3677   3.857   0.487  12.009 -0.0723  0.2891  0.4874
   28MOL0     C 3678   3.736   0.428  12.062  0.5429 -0.4875 -0.6496
   28MOL0     C 3679   3.637   0.517  12.102 -0.2975 -0.0881 -0.3389
   28MOL0     C 3680   3.654   0.657  12.096 -0.3867  0.3986  0.4932
   28MOL0     O 3681   3.546   0.729  12.157  0.2484  0.2679  0.5400
   28MOL0     C 3682   3.567   0.864  12.206  0.0040  0.5094 -0.3026
   28MOL0     C 3683   3.450   0.914  12.303 -0.2229  0.0408  0.6829
   28MOL0     C 3684   3.315   0.923  12.219 -0.3694  0.0842 -0.2774
   28MOL0     C 3685   3.196   0.980  12.287  0.7864 -0.4400 -0.2461
   28MOL0     C 3686   3.089   1.018  12.179  0.3323  0.3619  0.4023
   28MOL0     C 3687   2.941   1.027  12.234 -0.2498  0.1923 -0.2043
   28MOL0     C 3688   2.942   1.098  12.363  0.2565 -0.9282  0.2034
   28MOL0     C 3689   2.803   1.108  12.426  0.0810  0.7097  0.7458
   28MOL0    Cl 3690   2.712   1.216  12.330 -0.1515 -0.3726 -0.1181
   28MOL0     C 3691   3.777   0.704  12.053 -0.2938 -0.4762  0.0654
   28MOL0     C 3692   3.880   0.623  12.002 -0.1077 -0.5723 -0.4408
   28MOL0     O 3693   4.003   0.307  12.188 -0.0419 -0.6391  0.2494
   28MOL0     C 3694   4.134   0.196  11.870  1.1375 -0.7819  0.9930
   28MOL0     C 3695   4.220   0.118  11.808 -0.6880  0.3701  0.3840
   28MOL0     N 3696   4.718   0.135  11.237 -0.2760  0.5572  0.2119
   28MOL0     N 3697   4.654   0.210  11.160  0.2133  0.6467  0.0103
   28MOL0     C 3698   3.845   0.729  10.699  0.4200 -0.1093 -0.6157
   28MOL0     C 3699   3.896   0.851  10.693 -0.6132 -0.3408  0.6528
   28MOL0     C 3700   3.917   1.319  10.755 -0.0413  0.0937  0.5445
   28MOL0     C 3701   3.846   1.439  10.744 -0.1359  0.3318  0.9304
   28MOL0     C 3702   3.910   1.551  10.696  0.0983  0.7033 -0.9598
   28MOL0     C 3703   4.043   1.555  10.675 -0.1782  0.6467  0.0237
   28MOL0     O 3704   4.120   1.658  10.626 -0.4144  0.0272 -0.0401
   28MOL0     C 3705   4.098   1.792  10.675  0.2716 -0.1270 -0.6301
   28MOL0     C 3706   4.178   1.823  10.810  0.0755 -0.2618  1.1580
   28MOL0     C 3707   4.324   1.787  10.790 -0.0931 -0.8831 -0.4398
   28MOL0     C 3708   4.408   1.811  10.917 -0.6670 -0.4627 -0.1314
   28MOL0     C 3709   4.543   1.765  10.895 -0.6385  0.5374  1.4003
   28MOL0     C 3710   4.655   1.734  10.868  0.4818  0.4910 -0.3010
   28MOL0     C 3711   4.118   1.436  10.685  0.1891  0.6180 -0.5092
   28MOL0     C 3712   4.057   1.318  10.736 -0.7962 -0.1523  0.3569
   28MOL0     H 3713   3.737   1.002  10.953  0.7666 -1.0153  1.4276
   28MOL0     H 3714   3.647   0.776  10.964  0.6010 -1.6224  0.2917
   28MOL0     H 3715   3.699   0.458  10.662  1.8506 -3.0623 -0.2423
   28MOL0     H 3716   3.853   0.480  10.751  0.4270  0.5960 -2.8305
   28MOL0     H 3717   3.613   0.333  10.867  0.5645 -0.1432  2.6073
   28MOL0     H 3718   3.745   0.250  10.784  0.9493 -0.8256  1.2278
   28MOL0     H 3719   3.758   0.424  11.033  0.4190  2.8980 -2.5515
   28MOL0     H 3720   3.768   0.242  11.040  1.9310  0.5202  3.1581
   28MOL0     H 3721   3.963   0.300  10.876 -5.3562  0.3400 -1.2143
   28MOL0     H 3722   3.955   0.456  10.945 -1.7853  0.4494  0.4735
   28MOL0     H 3723   3.999   0.310  11.191  1.6788 -2.2481  0.3994
   28MOL0     H 3724   4.025   0.183  11.078  0.5210 -0.2895 -0.7979
   28MOL0     H 3725   4.196   0.362  10.976 -0.4003  0.4499  0.3362
   28MOL0     H 3726   4.181   0.431  11.140 -2.9051 -0.3375  0.6780
   28MOL0     H 3727   4.254   0.224  11.244 -0.9707  1.3680  0.2029
   28MOL0     H 3728   4.265   0.129  11.097 -0.9986  0.0100 -0.3586
   28MOL0     H 3729   4.422   0.398  11.132  2.8076 -0.1144  2.2392
   28MOL0     H 3730   4.448   0.275  11.009 -2.7836  1.1074 -0.8139
   28MOL0     H 3731   4.413   0.172  11.377 -1.7015  1.0186 -2.3410
   28MOL0     H 3732   4.624  -0.078  11.449 -2.6080  1.7818  0.9079
   28MOL0     H 3733   4.779   0.005  11.477 -0.3632  1.5727 -3.4950
   28MOL0     H 3734   4.522   0.125  11.581  0.8314  1.0550 -2.8656
   28MOL0     H 3735   4.688   0.151  11.635  0.4692  0.2574 -1.6478
   28MOL0     H 3736   4.718  -0.047  11.749 -0.3218 -0.1390  0.5129
   28MOL0     H 3737   4.575  -0.128  11.680 -1.0173  0.5038 -0.7049
   28MOL0     H 3738   4.533   0.136  11.819 -1.4642  1.1797 -1.4692
   28MOL0     H 3739   4.572  -0.001  11.929 -1.6984 -0.1602  1.4829
   28MOL0     H 3740   4.395   0.003  12.070  1.4997 -1.1350 -2.8694
   28MOL0     H 3741   4.322   0.098  12.262 -0.6942  0.4241  2.2890
   28MOL0     H 3742   4.234   0.252  12.272  0.8893  0.8076 -2.2638
   28MOL0     H 3743   4.152   0.078  12.273 -0.0860 -1.1455 -1.4302
   28MOL0     H 3744   3.728   0.320  12.052  0.8691 -0.7397  1.4181
   28MOL0     H 3745   3.542   0.480  12.137 -1.7623  1.0685 -2.8578
   28MOL0     H 3746   3.655   0.872  12.270  1.4913  0.7787 -2.2664
   28MOL0     H 3747   3.596   0.928  12.122  2.2381  0.6653  0.5198
   28MOL0     H 3748   3.434   0.840  12.382 -0.5007 -4.7042 -3.2639
   28MOL0     H 3749   3.480   1.009  12.348 -0.7221 -0.1489  1.4283
   28MOL0     H 3750   3.306   0.824  12.172 -0.0382  0.7640 -1.8584
   28MOL0     H 3751   3.334   0.996  12.140  1.2874  1.0590  0.9527
   28MOL0     H 3752   3.156   0.901  12.352 -2.3168  1.2509  0.0842
   28MOL0     H 3753   3.227   1.060  12.354  0.1802 -1.5931  1.4794
   28MOL0     H 3754   3.086   0.955  12.090 -1.2746  3.0463 -1.5884
   28MOL0     H 3755   3.118   1.115  12.139 -0.4442  0.1595 -0.6809
   28MOL0     H 3756   2.880   1.071  12.156 -1.8847 -1.7997 -0.1292
   28MOL0     H 3757   2.905   0.925  12.247 -2.5347  1.1599  1.8700
   28MOL0     H 3758   2.983   1.198  12.345  0.2279 -1.2649 -2.0018
   28MOL0     H 3759   3.015   1.054  12.431 -0.6700  0.5343  2.2307
   28MOL0     H 3760   2.796   1.136  12.531 -0.9256  0.7695  0.6782
   28MOL0     H 3761   2.776   1.003  12.422  0.1555  0.5702  2.9603
   28MOL0     H 3762   3.806   0.809  12.059  1.6463 -0.9986  0.5329
   28MOL0     H 3763   3.974   0.656  11.960 -0.2534 -1.0138 -1.1423
   28MOL0     H 3764   4.064   0.241  11.800  2.7300  0.4541  0.1102
   28MOL0     H 3765   4.213   0.100  11.701 -0.7327 -2.0715  0.7416
   28MOL0     H 3766   3.878   0.654  10.628 -1.3113 -0.2716 -1.3023
   28MOL0     H 3767   3.964   0.890  10.617  0.6009 -1.8188  0.9368
   28MOL0     H 3768   3.740   1.444  10.766 -0.7488 -1.3645 -1.1670
   28MOL0     H 3769   3.855   1.644  10.703 -0.4911  0.2801  0.5128
   28MOL0     H 3770   4.143   1.845  10.591  0.6967  1.1274  0.3603
   28MOL0     H 3771   3.993   1.823  10.683  0.9304  2.5165 -1.4358
   28MOL0     H 3772   4.130   1.767  10.891  1.1700 -3.0565  0.0126
   28MOL0     H 3773   4.177   1.929  10.835  2.8862 -0.2608  1.6341
   28MOL0     H 3774   4.370   1.830  10.700 -0.2966  2.6828  1.0041
   28MOL0     H 3775   4.319   1.678  10.788 -2.5889 -0.9024  1.6959
   28MOL0     H 3776   4.367   1.771  11.010  0.3109  3.0850  2.0524
   28MOL0     H 3777   4.421   1.917  10.944 -1.2188 -0.9448  2.3032
   28MOL0     H 3778   4.757   1.712  10.843  0.8105  1.7194 -0.1420
   28MOL0     H 3779   4.226   1.446  10.678  0.2190  1.2597  0.6139
   28MOL0     H 3780   4.121   1.232  10.748 -1.1462 -0.5282 -0.4042
   29MOL0     O 3781   4.573   3.514   7.874  0.4744 -0.7358 -0.0227
   29MOL0     C 3782   4.620   3.450   7.967  0.1158 -0.7576  0.5562
   29MOL0     O 3783   4.556   3.361   8.036  0.3003 -0.1556 -0.1959
   29MOL0     C 3784   4.419   3.371   8.027  0.7308 -0.2844  1.0702
   29MOL0     C 3785   4.346   3.438   8.131  0.3827 -0.2082  0.3697
   29MOL0     C 3786   4.205   3.438   8.127 -1.0604 -0.4578 -0.5660
   29MOL0     C 3787   4.136   3.396   8.019 -0.1084  0.0395 -0.4519
   29MOL0     O 3788   3.996   3.395   8.028 -0.2863  0.8081 -0.1390
   29MOL0     C 3789   3.923   3.383   7.904  0.2985  0.5213 -1.2884
   29MOL0     C 3790   3.784   3.411   7.952  0.3418  0.1934 -0.0259
   29MOL0     C 3791   3.683   3.384   7.841 -0.2116  0.2806  1.3432
   29MOL0     C 3792   3.545   3.440   7.887 -0.0657 -0.4736 -0.5988
   29MOL0     C 3793   3.441   3.449   7.776 -0.8733  0.0832  0.3436
   29MOL0     C 3794   3.400   3.315   7.719 -0.2260  0.3357  0.1733
   29MOL0     C 3795   3.314   3.325   7.587 -0.0801  0.7838  0.3690
   29MOL0     C 3796   3.271   3.180   7.549  0.4572  0.0370  0.2884
   29MOL0     N 3797   3.157   3.134   7.621 -0.0916 -0.4441 -0.1343
   29MOL0     C 3798   3.038   3.090   7.564 -0.6269  0.2823  0.7028
   29MOL0     C 3799   2.950   3.090   7.662  0.4271  0.2031 -0.4340
   29MOL0     C 3800   2.806   3.048   7.638  0.4318 -0.0151 -0.1088
   29MOL0     C 3801   2.719   3.082   7.760 -0.2954  0.4059  0.3668
   29MOL0     C 3802   2.567   3.102   7.726 -0.3073 -0.1018 -0.1365
   29MOL0     C 3803   2.496   2.981   7.667 -0.4702 -0.8241 -0.0502
   29MOL0     O 3804   2.355   2.978   7.663 -0.4504 -0.0241  0.6472
   29MOL0     C 3805   2.267   3.059   7.592 -0.0111  0.5034 -0.1930
   29MOL0     C 3806   2.294   3.173   7.516 -0.1106 -0.2540  0.3333
   29MOL0     C 3807   2.188   3.240   7.447  1.1950  0.2707 -0.0659
   29MOL0     C 3808   2.237   3.350   7.357 -0.1356 -0.0659  0.3418
   29MOL0     C 3809   2.054   3.201   7.463 -0.3625  0.7999  0.0413
   29MOL0     C 3810   1.936   3.267   7.390  0.0172  0.1647 -0.2255
   29MOL0     O 3811   1.815   3.227   7.431  0.1254  0.2800 -0.2891
   29MOL0     C 3812   1.706   3.257   7.362  0.8139 -0.1306  0.6192
   29MOL0     C 3813   1.633   3.159   7.291  0.1046 -0.1539 -0.2341
   29MOL0     C 3814   1.504   3.186   7.240 -0.6129 -0.6675  0.6599
   29MOL0     C 3815   1.451   3.321   7.249  0.0786  1.1855 -0.0662
   29MOL0     O 3816   1.320   3.337   7.212 -0.0209 -0.6536  0.3340
   29MOL0     C 3817   1.230   3.403   7.311  0.0968  0.3565  0.7362
   29MOL0     C 3818   1.105   3.446   7.229 -0.0508  0.0621  0.1406
   29MOL0     C 3819   1.005   3.541   7.294 -0.9836  1.0534  0.3144
   29MOL0     C 3820   0.889   3.577   7.217  0.0136 -0.1251  0.1440
   29MOL0     C 3821   0.791   3.654   7.316  0.2049 -0.5510 -0.5709
   29MOL0     C 3822   0.666   3.705   7.252  0.0740 -0.3569  0.4630
   29MOL0     C 3823   0.576   3.794   7.344 -1.0275 -0.4191 -0.0627
   29MOL0     C 3824   0.428   3.796   7.299  0.2905  0.3754 -0.0980
   29MOL0    Cl 3825   0.400   3.915   7.162  0.2619 -0.1628  0.0665
   29MOL0     C 3826   1.528   3.414   7.308 -0.2805 -0.0424 -0.1522
   29MOL0     C 3827   1.651   3.381   7.365  0.8546 -0.1604 -0.6342
   29MOL0     O 3828   1.951   3.333   7.293 -0.0438 -0.1231  0.2925
   29MOL0     C 3829   2.034   3.084   7.546 -0.2484  0.7465  1.1277
   29MOL0     C 3830   2.139   3.020   7.606  0.1213 -0.4640 -0.5404
   29MOL0     N 3831   3.013   3.132   7.779  0.8008 -0.5236  0.0653
   29MOL0     N 3832   3.137   3.150   7.753 -0.2588  0.2586  0.1693
   29MOL0     C 3833   4.209   3.335   7.915 -0.8248  0.1082  0.0225
   29MOL0     C 3834   4.345   3.324   7.917  0.1124 -0.1408  0.1589
   29MOL0     C 3835   4.766   3.477   7.997 -0.1390  0.0520 -0.6765
   29MOL0     C 3836   4.845   3.537   7.902 -0.0141  0.1108  0.6876
   29MOL0     C 3837   4.975   3.573   7.940  0.0497  1.0740 -0.4625
   29MOL0     C 3838   5.024   3.553   8.073 -0.0341 -0.7976 -0.6310
   29MOL0     O 3839   5.143   3.592   8.128 -1.3085 -0.6856 -0.4634
   29MOL0     C 3840   5.216   3.687   8.050 -0.6530 -0.5029  0.1799
   29MOL0     C 3841   5.331   3.761   8.132  0.3861 -0.3284  0.1446
   29MOL0     C 3842   5.441   3.651   8.142 -0.3007 -0.3655 -0.4785
   29MOL0     C 3843   5.554   3.714   8.225  0.3203 -0.0508 -0.3926
   29MOL0     C 3844   5.654   3.792   8.146  0.4987  0.2611 -0.6395
   29MOL0     C 3845   5.745   3.856   8.091  0.5999  0.2665  0.6985
   29MOL0     C 3846   4.943   3.481   8.158 -0.6778  0.1320 -0.2404
   29MOL0     C 3847   4.819   3.437   8.121  1.1276  1.0448 -0.1059
   29MOL0     H 3848   4.396   3.484   8.215  0.1253  0.4451  0.1698
   29MOL0     H 3849   4.146   3.480   8.207 -0.9606 -0.3298 -0.5594
   29MOL0     H 3850   3.955   3.454   7.828 -0.1621  1.1160 -0.9348
   29MOL0     H 3851   3.916   3.279   7.871 -0.0761 -0.4712  1.5742
   29MOL0     H 3852   3.748   3.358   8.041 -0.6110  0.5264 -0.2026
   29MOL0     H 3853   3.786   3.515   7.988  0.9366  0.5897 -1.1688
   29MOL0     H 3854   3.709   3.441   7.751 -2.2781  2.4514  2.0054
   29MOL0     H 3855   3.683   3.279   7.809  1.8662  1.4101 -3.2396
   29MOL0     H 3856   3.525   3.368   7.967  1.7695 -2.7425 -2.0261
   29MOL0     H 3857   3.558   3.541   7.925 -1.2346 -1.5030  2.9537
   29MOL0     H 3858   3.349   3.495   7.816 -2.2263  0.0943 -2.5353
   29MOL0     H 3859   3.474   3.511   7.693  0.7411  0.2195  1.0445
   29MOL0     H 3860   3.494   3.261   7.707  1.1008  2.7838 -1.4059
   29MOL0     H 3861   3.344   3.263   7.797 -1.4003 -2.5528 -2.3922
   29MOL0     H 3862   3.222   3.376   7.616 -0.0893  0.8582  0.2129
   29MOL0     H 3863   3.362   3.369   7.499  2.5226 -1.1042  0.7074
   29MOL0     H 3864   3.355   3.111   7.565  0.6916  0.6193  1.6852
   29MOL0     H 3865   3.237   3.173   7.445  2.1346 -1.4356 -0.2163
   29MOL0     H 3866   3.012   3.078   7.459 -0.2452 -0.7951  0.7116
   29MOL0     H 3867   2.755   3.095   7.554 -0.5497  0.5242  0.7611
   29MOL0     H 3868   2.823   2.940   7.640  5.4036  0.5207  0.2609
   29MOL0     H 3869   2.745   3.175   7.811 -1.0947 -0.1423  1.8447
   29MOL0     H 3870   2.740   3.003   7.833  0.8301  0.4612  0.1311
   29MOL0     H 3871   2.544   3.182   7.654  0.0916  2.0485  1.9719
   29MOL0     H 3872   2.524   3.126   7.823 -0.4550 -1.0486  0.0379
   29MOL0     H 3873   2.532   2.897   7.729  0.6941  0.9244  1.7703
   29MOL0     H 3874   2.535   2.957   7.568 -0.5165  0.5438 -0.4127
   29MOL0     H 3875   2.395   3.213   7.518  0.2636 -1.1049 -0.5469
   29MOL0     H 3876   2.345   3.359   7.371  0.3843 -1.3210 -2.2476
   29MOL0     H 3877   2.221   3.325   7.252 -2.2015 -2.6787  1.1493
   29MOL0     H 3878   2.182   3.439   7.388 -1.2571 -1.3263  2.2604
   29MOL0     H 3879   1.683   3.064   7.280 -0.5079 -0.4773 -0.2450
   29MOL0     H 3880   1.447   3.118   7.177  3.3774 -2.0132 -1.8922
   29MOL0     H 3881   1.205   3.337   7.395  1.6723 -1.6412 -0.2752
   29MOL0     H 3882   1.275   3.489   7.362  0.0280  0.2846  0.9199
   29MOL0     H 3883   1.137   3.501   7.140 -1.7576  1.4246  0.3155
   29MOL0     H 3884   1.064   3.347   7.210 -0.6688  0.6494 -1.7676
   29MOL0     H 3885   1.061   3.630   7.327 -3.4447  3.1556 -0.8161
   29MOL0     H 3886   0.958   3.491   7.379 -0.2783 -0.0110  0.0930
   29MOL0     H 3887   0.913   3.632   7.125  0.0480 -2.3230 -1.2251
   29MOL0     H 3888   0.836   3.484   7.197  0.6513 -1.0716  2.5526
   29MOL0     H 3889   0.843   3.742   7.356  1.0422 -1.6154  0.8020
   29MOL0     H 3890   0.761   3.581   7.392  1.3222 -1.5906 -1.0878
   29MOL0     H 3891   0.696   3.763   7.164  0.1935 -0.1188  0.6597
   29MOL0     H 3892   0.612   3.619   7.210  0.5656  0.6590 -2.4617
   29MOL0     H 3893   0.621   3.893   7.352 -1.8693 -0.0458  0.0290
   29MOL0     H 3894   0.579   3.751   7.445  2.5606 -0.7356 -0.1482
   29MOL0     H 3895   0.368   3.830   7.383 -1.1419  2.5406 -1.8684
   29MOL0     H 3896   0.390   3.695   7.282 -2.3795  1.3765 -0.4975
   29MOL0     H 3897   1.475   3.509   7.315 -2.1724 -1.1002  0.5408
   29MOL0     H 3898   1.700   3.463   7.415  0.8200 -1.4082  1.5712
   29MOL0     H 3899   1.937   3.046   7.575  0.5725 -0.9571  1.8125
   29MOL0     H 3900   2.112   2.938   7.671  1.6979 -0.1376  0.5819
   29MOL0     H 3901   4.167   3.292   7.824 -1.2739  0.8109 -0.1125
   29MOL0     H 3902   4.407   3.270   7.846 -0.9071 -0.6790 -0.3474
   29MOL0     H 3903   4.814   3.570   7.803 -0.6065 -0.3542  0.7168
   29MOL0     H 3904   5.043   3.630   7.878 -1.2168  4.5188  1.0565
   29MOL0     H 3905   5.261   3.654   7.956  0.7524  2.5012 -0.3240
   29MOL0     H 3906   5.141   3.761   8.022 -1.3624 -2.7186 -4.7996
   29MOL0     H 3907   5.282   3.797   8.223 -2.3281 -0.0574 -1.3058
   29MOL0     H 3908   5.371   3.850   8.081  2.3776 -1.7631 -0.9299
   29MOL0     H 3909   5.471   3.620   8.042 -2.5962  0.8910 -1.6282
   29MOL0     H 3910   5.407   3.564   8.200  1.8817 -0.5420  0.6138
   29MOL0     H 3911   5.603   3.633   8.280 -1.9977 -0.1306  1.7123
   29MOL0     H 3912   5.498   3.774   8.297 -1.7067 -1.1517 -1.0005
   29MOL0     H 3913   5.829   3.899   8.040 -0.9964  1.1093 -1.3820
   29MOL0     H 3914   4.987   3.468   8.256  1.7582 -2.6167 -1.5458
   29MOL0     H 3915   4.764   3.383   8.198  2.5007 -3.2983 -1.8354
   30MOL0     O 3916   7.481   1.046   8.271 -0.7313 -0.0954 -0.2026
   30MOL0     C 3917   7.422   1.092   8.178  0.1104 -0.5684  0.7839
   30MOL0     O 3918   7.482   1.145   8.064 -0.1845  0.0765 -0.1921
   30MOL0     C 3919   7.619   1.164   8.082 -0.1191  0.1797 -0.5238
   30MOL0     C 3920   7.704   1.066   8.035 -0.3798 -0.0144 -0.1106
   30MOL0     C 3921   7.845   1.086   8.053  0.3654  0.8609 -0.1572
   30MOL0     C 3922   7.902   1.201   8.109 -0.1545  0.2068 -0.9391
   30MOL0     O 3923   8.030   1.222   8.138 -0.6137  0.4037 -0.3461
   30MOL0     C 3924   8.129   1.127   8.105  0.4622 -0.4317  0.1298
   30MOL0     C 3925   8.273   1.163   8.130 -0.2834 -0.1691  0.3663
   30MOL0     C 3926   8.324   1.278   8.040  0.4382  0.0006  0.8152
   30MOL0     C 3927   8.473   1.300   8.050  0.3531  0.5594 -0.0441
   30MOL0     C 3928   8.566   1.188   8.095 -0.3431 -0.1212 -0.3592
   30MOL0     C 3929   8.634   1.123   7.983 -0.6933  0.1615  1.0841
   30MOL0     C 3930   8.535   1.026   7.921 -0.1624  0.1450  0.1967
   30MOL0     C 3931   8.595   0.949   7.801  0.6326  0.2575 -0.1649
   30MOL0     N 3932   8.505   0.843   7.745  0.7969  0.0957  0.3623
   30MOL0     C 3933   8.390   0.859   7.670 -0.2556 -0.1969 -0.0437
   30MOL0     C 3934   8.329   0.737   7.678  0.2739 -0.2113  0.6987
   30MOL0     C 3935   8.195   0.696   7.605 -0.2759 -0.0146 -0.0613
   30MOL0     C 3936   8.224   0.664   7.461 -0.6818  0.3563  0.1123
   30MOL0     C 3937   8.267   0.778   7.377  0.2980  0.1265  0.8728
   30MOL0     C 3938   8.218   0.752   7.235 -0.7132 -0.0309 -0.0881
   30MOL0     O 3939   8.296   0.812   7.129 -0.1832 -0.3764 -0.5181
   30MOL0     C 3940   8.408   0.750   7.076  0.0591 -0.3489 -0.0518
   30MOL0     C 3941   8.460   0.632   7.128 -0.3354 -0.8638  0.2007
   30MOL0     C 3942   8.569   0.572   7.065 -0.2102 -0.7127 -1.1224
   30MOL0     C 3943   8.600   0.441   7.117  0.7029 -0.1935 -0.0928
   30MOL0     C 3944   8.636   0.628   6.952  0.1983 -0.1517 -1.5816
   30MOL0     C 3945   8.777   0.596   6.903  0.5143  0.5435 -0.0456
   30MOL0     O 3946   8.870   0.551   6.996 -0.1465 -0.1930 -0.0207
   30MOL0     C 3947   9.005   0.560   6.967 -0.5024 -0.1132 -0.3314
   30MOL0     C 3948   9.073   0.678   6.917 -0.3438  0.0794  0.3685
   30MOL0     C 3949   9.213   0.676   6.895 -0.2845  0.0278  0.1982
   30MOL0     C 3950   9.287   0.569   6.931  0.7439  0.7552  0.9915
   30MOL0     O 3951   9.417   0.575   6.892 -0.1949  0.3202 -0.1592
   30MOL0     C 3952   9.461   0.455   6.833  0.4401 -0.4095  0.3912
   30MOL0     C 3953   9.584   0.483   6.742  0.8662 -0.5113 -0.2814
   30MOL0     C 3954   9.712   0.470   6.822 -0.3075 -0.8526 -0.2247
   30MOL0     C 3955   9.741   0.594   6.906  0.2632 -0.6433  0.2832
   30MOL0     C 3956   9.860   0.590   7.004  0.3379 -0.1771  0.6738
   30MOL0     C 3957   9.994   0.610   6.934 -0.1077  0.4526 -0.0145
   30MOL0     C 3958  10.106   0.610   7.041  0.3057  0.5123  0.7352
   30MOL0     C 3959  10.238   0.614   6.962 -0.6872 -0.2054  1.1704
   30MOL0    Cl 3960  10.287   0.452   6.896 -0.6525  0.1340  0.1439
   30MOL0     C 3961   9.223   0.454   6.982 -0.7430  0.8844  0.5601
   30MOL0     C 3962   9.084   0.453   7.001 -0.1869 -0.4431 -0.2861
   30MOL0     O 3963   8.796   0.614   6.782  0.4909  0.1322 -1.2682
   30MOL0     C 3964   8.580   0.744   6.903 -0.5175 -0.1295  0.0783
   30MOL0     C 3965   8.465   0.808   6.960  0.2531 -0.6529  0.1130
   30MOL0     N 3966   8.415   0.651   7.745  0.0080  0.7368 -0.5738
   30MOL0     N 3967   8.511   0.719   7.799  0.3678  0.0124  0.0154
   30MOL0     C 3968   7.812   1.304   8.132 -0.4925  1.0654  0.5875
   30MOL0     C 3969   7.670   1.286   8.121 -0.0950  0.2153  0.0201
   30MOL0     C 3970   7.272   1.089   8.182 -0.2939  0.8353 -0.4068
   30MOL0     C 3971   7.201   1.060   8.299  0.1471 -0.4276 -0.3770
   30MOL0     C 3972   7.062   1.056   8.301  0.0696 -0.2018 -0.3422
   30MOL0     C 3973   6.985   1.067   8.187  0.1352 -0.0237 -0.7801
   30MOL0     O 3974   6.852   1.055   8.204  0.4504  0.5714  0.6466
   30MOL0     C 3975   6.788   1.187   8.234  0.5196  0.2382 -0.6243
   30MOL0     C 3976   6.632   1.174   8.245  0.2007 -1.2333 -0.4775
   30MOL0     C 3977   6.593   1.178   8.393 -0.3559  0.0861  0.1431
   30MOL0     C 3978   6.451   1.139   8.413  0.3883  0.7745  0.5724
   30MOL0     C 3979   6.411   1.188   8.542 -0.1629  0.0595  0.1038
   30MOL0     C 3980   6.372   1.221   8.647  0.9794  0.0477 -0.0151
   30MOL0     C 3981   7.054   1.084   8.066 -0.1803 -0.1706 -1.4187
   30MOL0     C 3982   7.192   1.104   8.062 -0.7251  0.1897 -0.1222
   30MOL0     H 3983   7.670   0.979   7.980  1.8394 -0.4567 -0.9210
   30MOL0     H 3984   7.907   1.007   8.012 -2.5265 -2.4221  1.2272
   30MOL0     H 3985   8.098   1.039   8.162 -1.3861 -0.0141 -0.1420
   30MOL0     H 3986   8.117   1.100   8.000 -1.7190  0.8824 -0.0363
   30MOL0     H 3987   8.280   1.194   8.234 -3.5039  2.0621  0.0499
   30MOL0     H 3988   8.329   1.074   8.100 -0.2123  0.0512 -0.1785
   30MOL0     H 3989   8.286   1.260   7.939 -1.1299  5.3948  0.1188
   30MOL0     H 3990   8.275   1.373   8.065 -2.3735 -0.1529 -3.1635
   30MOL0     H 3991   8.516   1.352   7.964  1.3552 -0.8173 -0.4211
   30MOL0     H 3992   8.487   1.372   8.131  0.3851 -0.2095  0.6511
   30MOL0     H 3993   8.651   1.228   8.152  1.4779 -1.9381 -1.6380
   30MOL0     H 3994   8.517   1.113   8.159 -2.1224  0.6537 -0.7802
   30MOL0     H 3995   8.679   1.194   7.913 -0.1125  0.4554  1.7393
   30MOL0     H 3996   8.722   1.069   8.020  0.5273  1.1003 -0.3476
   30MOL0     H 3997   8.499   0.950   7.991  0.1524 -0.1457  0.0445
   30MOL0     H 3998   8.445   1.074   7.880  0.1412  0.7463  0.2239
   30MOL0     H 3999   8.695   0.913   7.825  0.1450 -0.5770  0.7146
   30MOL0     H 4000   8.608   1.022   7.720  6.5914 -0.3168 -0.1251
   30MOL0     H 4001   8.340   0.949   7.636  1.3928  0.7276 -0.1037
   30MOL0     H 4002   8.161   0.604   7.654 -0.2946 -1.3610 -2.4424
   30MOL0     H 4003   8.118   0.773   7.617 -0.1100  0.3345 -1.0970
   30MOL0     H 4004   8.127   0.640   7.417 -0.8469  2.8915 -1.1211
   30MOL0     H 4005   8.299   0.585   7.464  1.8154  2.5735 -0.6702
   30MOL0     H 4006   8.376   0.793   7.376  0.1412  1.3445  0.5783
   30MOL0     H 4007   8.222   0.872   7.410 -1.7908 -0.6534  0.3871
   30MOL0     H 4008   8.124   0.808   7.225 -0.1122  1.1669  0.6944
   30MOL0     H 4009   8.191   0.647   7.218 -3.6009  0.0365  3.1561
   30MOL0     H 4010   8.414   0.578   7.211 -0.2875  0.6494  1.2465
   30MOL0     H 4011   8.632   0.365   7.045 -1.2490  0.4310 -1.7324
   30MOL0     H 4012   8.684   0.449   7.187  0.5417  0.1528  0.0650
   30MOL0     H 4013   8.511   0.401   7.168 -1.2504  2.7157 -0.9777
   30MOL0     H 4014   9.018   0.768   6.892 -0.4819 -0.5320 -1.7446
   30MOL0     H 4015   9.273   0.750   6.842  0.2608 -0.9101 -0.5370
   30MOL0     H 4016   9.495   0.386   6.911  2.5388 -0.7318 -0.7225
   30MOL0     H 4017   9.379   0.412   6.774 -2.5129  2.7155  1.8628
   30MOL0     H 4018   9.570   0.405   6.665 -4.4079 -0.8494  0.6558
   30MOL0     H 4019   9.572   0.580   6.693  0.2588  0.5929  1.9422
   30MOL0     H 4020   9.798   0.456   6.755  0.2068 -2.4375  0.7100
   30MOL0     H 4021   9.718   0.381   6.886 -0.3830  0.1668  1.2576
   30MOL0     H 4022   9.745   0.681   6.840 -1.6736 -0.8384 -0.1470
   30MOL0     H 4023   9.650   0.607   6.964  0.2660 -0.2774  0.2031
   30MOL0     H 4024   9.851   0.495   7.058 -1.5199 -0.7952 -0.6109
   30MOL0     H 4025   9.846   0.672   7.075  0.3025 -1.0922  1.7470
   30MOL0     H 4026  10.000   0.532   6.857  0.4894  1.2095 -0.7533
   30MOL0     H 4027   9.997   0.710   6.890  0.3730 -0.7672 -3.0225
   30MOL0     H 4028  10.103   0.523   7.107 -0.0175  2.1221  2.9127
   30MOL0     H 4029  10.106   0.696   7.107  0.5978  0.5811  0.6494
   30MOL0     H 4030  10.313   0.655   7.031 -0.2114  1.2990 -0.1778
   30MOL0     H 4031  10.229   0.684   6.878  3.6192 -1.2381 -0.3923
   30MOL0     H 4032   9.290   0.373   7.010 -1.8176 -1.3351 -2.8079
   30MOL0     H 4033   9.030   0.363   7.031 -0.7949 -0.5316 -1.5844
   30MOL0     H 4034   8.620   0.789   6.813  1.3283 -1.3518  0.2240
   30MOL0     H 4035   8.416   0.890   6.909 -2.9529 -1.4337  1.6505
   30MOL0     H 4036   7.862   1.392   8.173  1.1517  0.4575 -0.0595
   30MOL0     H 4037   7.604   1.369   8.144 -0.5779 -0.3040  0.5565
   30MOL0     H 4038   7.258   1.054   8.391  1.1683 -0.8528 -1.0269
   30MOL0     H 4039   7.007   1.045   8.394 -0.9867 -0.1211 -0.9391
   30MOL0     H 4040   6.828   1.218   8.331 -1.7460 -1.6414  1.0425
   30MOL0     H 4041   6.809   1.270   8.166  1.0004  1.6044  1.0940
   30MOL0     H 4042   6.602   1.084   8.190  0.4451 -1.2304 -0.6172
   30MOL0     H 4043   6.582   1.267   8.219  3.3405  0.7929  0.0959
   30MOL0     H 4044   6.609   1.279   8.433 -0.3327  0.5110 -0.9056
   30MOL0     H 4045   6.661   1.111   8.447  1.7403  0.1718 -2.1892
   30MOL0     H 4046   6.443   1.030   8.415 -1.9719  0.8988  0.8983
   30MOL0     H 4047   6.382   1.189   8.344  1.4784  1.4252 -0.0804
   30MOL0     H 4048   6.317   1.237   8.737  1.8288 -0.0959  0.5473
   30MOL0     H 4049   7.006   1.093   7.969  0.7355 -0.7936 -1.9349
   30MOL0     H 4050   7.243   1.126   7.969  2.9390 -0.0366  1.6666
   31MOL0     O 4051   0.588   6.041   9.741 -0.3532 -0.4301  0.0233
   31MOL0     C 4052   0.550   6.089   9.635  0.0460 -0.9515 -0.1606
   31MOL0     O 4053   0.416   6.089   9.588  0.4391 -1.0746  0.1232
   31MOL0     C 4054   0.309   6.036   9.657 -0.1105  0.5222  0.2393
   31MOL0     C 4055   0.304   5.954   9.769  0.0414  0.8310 -0.1596
   31MOL0     C 4056   0.182   5.914   9.818  0.1751  0.4956 -0.5912
   31MOL0     C 4057   0.060   5.958   9.759  0.6910  0.0079 -0.3937
   31MOL0     O 4058  -0.063   5.900   9.792  0.2819  0.3338  0.3495
   31MOL0     C 4059  -0.084   5.885   9.929  0.1340 -0.4043 -0.4248
   31MOL0     C 4060  -0.202   5.795   9.947  0.5300  0.6054 -0.0665
   31MOL0     C 4061  -0.332   5.827   9.878 -0.3441  0.4220  0.6895
   31MOL0     C 4062  -0.457   5.750   9.924  0.2397  0.6801  1.0286
   31MOL0     C 4063  -0.580   5.763   9.836 -0.0350  0.4096 -0.0981
   31MOL0     C 4064  -0.644   5.905   9.848 -0.1482  1.7402  0.7856
   31MOL0     C 4065  -0.784   5.900   9.783 -0.6984  1.5211  0.3213
   31MOL0     C 4066  -0.858   6.027   9.826 -0.4940 -0.9914 -0.2026
   31MOL0     N 4067  -0.958   6.063   9.729  0.4988 -0.1106  0.5832
   31MOL0     C 4068  -1.088   6.016   9.727 -0.0373  0.5318  0.6873
   31MOL0     C 4069  -1.153   6.084   9.632  0.3534  0.3781 -0.7725
   31MOL0     C 4070  -1.295   6.057   9.592 -0.0418 -0.8012  0.3079
   31MOL0     C 4071  -1.382   6.124   9.702  0.4782 -1.2425 -0.4866
   31MOL0     C 4072  -1.522   6.134   9.652 -0.6900 -0.1975  0.4466
   31MOL0     C 4073  -1.603   6.215   9.750  0.1436  0.9872  0.0045
   31MOL0     O 4074  -1.636   6.345   9.695  0.7563  0.2330 -0.7044
   31MOL0     C 4075  -1.752   6.410   9.756 -0.6816  0.0923  0.4170
   31MOL0     C 4076  -1.784   6.381   9.891 -0.0810  0.4074  1.7230
   31MOL0     C 4077  -1.906   6.415   9.943  0.2192 -0.5296  0.0300
   31MOL0     C 4078  -1.941   6.380  10.084 -0.6832 -0.8833  0.3384
   31MOL0     C 4079  -1.996   6.502   9.863 -0.2158  0.0520  0.0233
   31MOL0     C 4080  -2.133   6.564   9.907 -0.7653  0.4173  0.6575
   31MOL0     O 4081  -2.210   6.645   9.830  0.4468  0.4835  0.4857
   31MOL0     C 4082  -2.324   6.697   9.884  0.0866 -0.0709 -0.4699
   31MOL0     C 4083  -2.303   6.812   9.955 -0.1708  0.2339  0.5646
   31MOL0     C 4084  -2.412   6.885  10.005 -0.1291  0.6308 -0.0536
   31MOL0     C 4085  -2.543   6.841   9.982 -0.4244  0.0633 -0.1322
   31MOL0     O 4086  -2.647   6.924  10.028  0.0695  0.6660  0.0513
   31MOL0     C 4087  -2.779   6.900   9.986 -0.0700  0.3365 -0.5807
   31MOL0     C 4088  -2.880   6.991  10.049 -0.0145 -0.7589  0.4566
   31MOL0     C 4089  -3.019   6.932  10.039 -0.5349  0.2600 -0.0981
   31MOL0     C 4090  -3.114   6.984  10.149 -0.4854  0.1071 -0.6544
   31MOL0     C 4091  -3.234   6.892  10.179 -0.1787 -0.1568 -0.4134
   31MOL0     C 4092  -3.311   6.863  10.053 -0.1218 -0.4985 -0.0007
   31MOL0     C 4093  -3.433   6.770  10.084  0.4445  1.1870  0.0022
   31MOL0     C 4094  -3.556   6.809  10.003 -0.0910  0.2345 -0.6226
   31MOL0    Cl 4095  -3.690   6.718  10.071  0.1604 -0.3548  0.0331
   31MOL0     C 4096  -2.565   6.736   9.893 -0.0572 -0.5826  0.4273
   31MOL0     C 4097  -2.454   6.661   9.849  0.5194  0.5449  0.1390
   31MOL0     O 4098  -2.165   6.542  10.019  0.4269  0.3070  0.0702
   31MOL0     C 4099  -1.962   6.527   9.735  0.3301 -0.4678  0.2275
   31MOL0     C 4100  -1.842   6.483   9.676 -0.4479 -0.1547 -0.6727
   31MOL0     N 4101  -1.069   6.188   9.582 -0.4416 -0.6280  0.0953
   31MOL0     N 4102  -0.951   6.177   9.651  0.9096 -0.1464  0.0653
   31MOL0     C 4103   0.067   6.045   9.651  0.5596  0.2265 -0.4928
   31MOL0     C 4104   0.189   6.083   9.599 -0.0219 -0.3092  0.9039
   31MOL0     C 4105   0.654   6.166   9.555  0.3925  0.1246 -0.7695
   31MOL0     C 4106   0.764   6.206   9.617 -0.1744 -0.2374 -0.1006
   31MOL0     C 4107   0.876   6.264   9.546 -0.1606 -0.0197 -0.2629
   31MOL0     C 4108   0.868   6.283   9.417 -0.1453  0.7053  0.6876
   31MOL0     O 4109   0.983   6.330   9.358  0.5098 -0.7349 -0.4646
   31MOL0     C 4110   1.020   6.279   9.230  0.5995 -0.2191 -0.6230
   31MOL0     C 4111   1.111   6.152   9.249  0.4628 -0.5007  0.0615
   31MOL0     C 4112   1.243   6.188   9.328  0.3308  0.2978  0.5180
   31MOL0     C 4113   1.333   6.057   9.346  0.3602  0.4307  0.3471
   31MOL0     C 4114   1.423   6.025   9.235  0.1449 -0.5040  0.5820
   31MOL0     C 4115   1.497   5.975   9.149 -0.9479  0.1863  0.3131
   31MOL0     C 4116   0.743   6.253   9.353 -0.6174 -0.7347  0.2644
   31MOL0     C 4117   0.634   6.204   9.423  0.2355  0.9196 -0.5608
   31MOL0     H 4118   0.400   5.918   9.804  0.9402  0.4472 -2.7890
   31MOL0     H 4119   0.183   5.847   9.904  2.1923  0.0535 -0.8935
   31MOL0     H 4120  -0.009   5.831   9.987  0.4552 -1.5459 -1.8373
   31MOL0     H 4121  -0.099   5.984   9.971 -0.3589 -1.3720  1.8378
   31MOL0     H 4122  -0.183   5.694   9.910 -0.7683  1.3540 -3.1643
   31MOL0     H 4123  -0.228   5.783  10.052 -1.1915 -0.4445 -0.5680
   31MOL0     H 4124  -0.352   5.932   9.900  1.6906  1.2130 -0.8040
   31MOL0     H 4125  -0.317   5.826   9.769 -0.1796 -0.4219  0.7167
   31MOL0     H 4126  -0.434   5.643   9.919 -1.6674  0.1879  1.7720
   31MOL0     H 4127  -0.496   5.777  10.023 -3.3197 -0.5001  0.1146
   31MOL0     H 4128  -0.546   5.749   9.733 -1.2369  3.0115 -0.9146
   31MOL0     H 4129  -0.649   5.682   9.861  2.4922 -1.3161  1.7511
   31MOL0     H 4130  -0.645   5.936   9.953  0.6245  0.9075  1.0558
   31MOL0     H 4131  -0.584   5.974   9.789 -0.2937 -1.2409 -3.2925
   31MOL0     H 4132  -0.776   5.904   9.674 -3.6073  3.3655  0.0652
   31MOL0     H 4133  -0.843   5.812   9.811  1.2987  0.1964  0.5789
   31MOL0     H 4134  -0.784   6.108   9.833 -2.5648  0.8840  1.0049
   31MOL0     H 4135  -0.911   6.024   9.922  0.1102  0.5148  0.2057
   31MOL0     H 4136  -1.119   5.946   9.803  0.3186 -0.2989  0.0867
   31MOL0     H 4137  -1.319   6.100   9.495  3.6179 -0.3939 -0.5825
   31MOL0     H 4138  -1.318   5.950   9.596 -0.1705 -0.7577  3.2409
   31MOL0     H 4139  -1.342   6.224   9.716 -0.9638 -0.2184 -2.9965
   31MOL0     H 4140  -1.369   6.077   9.800  0.7750  1.8803  1.0662
   31MOL0     H 4141  -1.568   6.035   9.641  0.0501 -0.4011 -0.9657
   31MOL0     H 4142  -1.519   6.196   9.563  4.1815 -0.7936 -0.1002
   31MOL0     H 4143  -1.542   6.241   9.837 -1.8982  3.1292  0.9058
   31MOL0     H 4144  -1.689   6.152   9.775 -0.2398 -0.4767 -4.1970
   31MOL0     H 4145  -1.728   6.311   9.951  0.9416 -1.8980 -1.6150
   31MOL0     H 4146  -1.868   6.305  10.117  0.4232 -0.4876 -1.1124
   31MOL0     H 4147  -1.923   6.480  10.125 -1.4888  1.1250 -3.7281
   31MOL0     H 4148  -2.045   6.359  10.111 -0.0318 -1.9708  2.1912
   31MOL0     H 4149  -2.202   6.836   9.986  0.4150 -0.5612 -0.6737
   31MOL0     H 4150  -2.397   6.976  10.062  0.0547  2.0589 -2.2592
   31MOL0     H 4151  -2.784   6.916   9.878 -2.8008  1.5036 -0.3557
   31MOL0     H 4152  -2.802   6.797  10.017 -2.8441  0.9268 -0.4063
   31MOL0     H 4153  -2.856   6.997  10.156  0.2646 -0.7278  0.3937
   31MOL0     H 4154  -2.874   7.093  10.009  0.1831 -1.4689 -1.4126
   31MOL0     H 4155  -3.008   6.824  10.049 -1.6604 -0.0949 -2.2025
   31MOL0     H 4156  -3.059   6.946   9.938  0.9019  0.4360 -0.6594
   31MOL0     H 4157  -3.061   6.991  10.245 -1.1446 -0.7154 -0.2102
   31MOL0     H 4158  -3.149   7.085  10.126 -1.8227  0.1141  1.1191
   31MOL0     H 4159  -3.295   6.925  10.264  1.3309  0.7403  0.3734
   31MOL0     H 4160  -3.182   6.803  10.214  0.8445 -0.1744 -1.8704
   31MOL0     H 4161  -3.354   6.957  10.018 -2.6736 -1.3733  0.5841
   31MOL0     H 4162  -3.241   6.820   9.980  0.2346 -3.4275  1.8934
   31MOL0     H 4163  -3.463   6.768  10.190 -0.0409  0.2647 -0.1396
   31MOL0     H 4164  -3.413   6.666  10.057 -0.0340  1.4546 -1.4852
   31MOL0     H 4165  -3.543   6.788   9.897 -1.6567  1.0024 -0.9915
   31MOL0     H 4166  -3.575   6.917  10.012 -0.2375  0.2137 -0.6746
   31MOL0     H 4167  -2.662   6.714   9.850  1.4658 -1.9883 -2.5452
   31MOL0     H 4168  -2.467   6.585   9.772 -1.4217  0.4782  0.4859
   31MOL0     H 4169  -2.033   6.589   9.680  1.2141  1.9573  1.6474
   31MOL0     H 4170  -1.810   6.508   9.575 -1.6946 -0.7158 -1.2258
   31MOL0     H 4171  -0.025   6.079   9.605  0.8324  1.3949 -0.2113
   31MOL0     H 4172   0.197   6.144   9.510  0.8219 -0.5126  0.8358
   31MOL0     H 4173   0.783   6.188   9.722  0.4172  1.3334  0.0850
   31MOL0     H 4174   0.962   6.293   9.605 -0.3951  0.5271 -0.1766
   31MOL0     H 4175   0.928   6.256   9.176  1.0219  0.2937 -1.5877
   31MOL0     H 4176   1.075   6.360   9.180  1.4907 -1.7658 -2.2721
   31MOL0     H 4177   1.133   6.107   9.152  1.1246  0.4408 -0.2382
   31MOL0     H 4178   1.050   6.083   9.309 -3.9606  1.6622 -1.4876
   31MOL0     H 4179   1.215   6.230   9.426 -1.0838 -2.3775  1.3657
   31MOL0     H 4180   1.297   6.267   9.277 -2.6329  0.3626 -2.8813
   31MOL0     H 4181   1.277   5.967   9.376  2.0178 -1.4419 -1.8105
   31MOL0     H 4182   1.394   6.075   9.435 -0.2880  2.5643  0.4136
   31MOL0     H 4183   1.555   5.923   9.076 -1.2590 -0.4324  0.4972
   31MOL0     H 4184   0.734   6.261   9.245 -0.9709 -0.7810  0.2899
   31MOL0     H 4185   0.543   6.171   9.374  0.5214  0.2128 -0.6221
   32MOL0     O 4186   7.341   5.393   8.575 -0.5858 -0.2665 -0.4834
   32MOL0     C 4187   7.409   5.498   8.595  1.5812 -0.5496  0.2586
   32MOL0     O 4188   7.355   5.618   8.598  0.3296  0.8389  0.0563
   32MOL0     C 4189   7.215   5.624   8.571 -0.5019  0.7419  0.8262
   32MOL0     C 4190   7.157   5.601   8.438 -0.6344 -0.1730  0.3124
   32MOL0     C 4191   7.024   5.616   8.415  0.1582 -0.2060 -0.3267
   32MOL0     C 4192   6.941   5.639   8.527  0.1410 -0.3069  0.7617
   32MOL0     O 4193   6.805   5.620   8.505  0.3002 -0.1386 -0.5218
   32MOL0     C 4194   6.758   5.483   8.477  0.4605  0.4547 -0.0380
   32MOL0     C 4195   6.698   5.423   8.605  0.0598 -0.4272  0.0846
   32MOL0     C 4196   6.559   5.473   8.632  0.5289 -0.1044  0.0869
   32MOL0     C 4197   6.477   5.381   8.729  0.1273 -0.7815 -0.7428
   32MOL0     C 4198   6.359   5.462   8.786 -0.4228  0.2091  0.5211
   32MOL0     C 4199   6.253   5.504   8.685  0.2806  0.0387  0.8543
   32MOL0     C 4200   6.136   5.576   8.741  0.4863  1.1222 -0.2549
   32MOL0     C 4201   6.028   5.596   8.632  0.6720  0.2094 -0.3399
   32MOL0     N 4202   5.900   5.644   8.700 -1.0298  0.2828 -0.1313
   32MOL0     C 4203   5.888   5.748   8.794 -0.0567  0.6722  0.0014
   32MOL0     C 4204   5.757   5.747   8.822  0.0781  0.1930  0.0222
   32MOL0     C 4205   5.675   5.840   8.916 -0.6724  0.2699 -0.1706
   32MOL0     C 4206   5.698   5.989   8.899  0.8126  0.8268  1.1242
   32MOL0     C 4207   5.650   6.038   8.757 -0.1740  0.1536  0.4608
   32MOL0     C 4208   5.687   6.185   8.720  1.1493  0.0183 -0.5061
   32MOL0     O 4209   5.649   6.283   8.817  0.0514  0.2594  0.5275
   32MOL0     C 4210   5.513   6.320   8.839 -0.8664  0.5496 -0.3161
   32MOL0     C 4211   5.495   6.416   8.938 -0.1086 -1.0420  0.0313
   32MOL0     C 4212   5.371   6.472   8.978  0.0927  0.1442 -0.2902
   32MOL0     C 4213   5.370   6.579   9.083 -0.1243 -0.6720 -0.3912
   32MOL0     C 4214   5.253   6.418   8.911  0.1150 -0.6696  0.2550
   32MOL0     C 4215   5.112   6.474   8.921 -0.4843  0.3754  0.3158
   32MOL0     O 4216   5.021   6.413   8.831 -0.7568 -0.3851 -0.3479
   32MOL0     C 4217   4.894   6.455   8.810  0.2993  0.0788  0.0078
   32MOL0     C 4218   4.839   6.443   8.684 -0.9733 -0.3952 -0.3650
   32MOL0     C 4219   4.705   6.477   8.659 -0.5202 -0.1575  0.6358
   32MOL0     C 4220   4.618   6.523   8.763 -0.6488 -0.2496 -0.6486
   32MOL0     O 4221   4.493   6.569   8.735 -0.6528  0.2107  0.0333
   32MOL0     C 4222   4.373   6.524   8.809  0.4350 -0.5350 -0.6641
   32MOL0     C 4223   4.245   6.510   8.722  0.2626  0.1152 -0.7721
   32MOL0     C 4224   4.114   6.506   8.799  0.0712  0.3367 -0.2187
   32MOL0     C 4225   3.997   6.470   8.710  0.5429 -0.4262  0.0537
   32MOL0     C 4226   3.929   6.589   8.642 -0.1931  0.1895 -0.2299
   32MOL0     C 4227   3.793   6.551   8.604 -0.4158 -0.1026  0.6108
   32MOL0     C 4228   3.725   6.651   8.509  1.8481  0.1114 -0.0629
   32MOL0     C 4229   3.576   6.621   8.492 -0.7422 -0.8489  0.7747
   32MOL0    Cl 4230   3.475   6.690   8.633  0.0096 -0.4462 -0.1060
   32MOL0     C 4231   4.665   6.521   8.893 -0.1916 -0.9423 -0.9916
   32MOL0     C 4232   4.803   6.489   8.912  0.4632  0.1907  0.1780
   32MOL0     O 4233   5.082   6.566   8.997 -0.2300  0.0200 -0.6350
   32MOL0     C 4234   5.277   6.312   8.820 -0.3188 -0.3238  0.3908
   32MOL0     C 4235   5.403   6.263   8.782  0.8559  0.9100  0.1588
   32MOL0     N 4236   5.691   5.655   8.742  0.4478 -0.5401 -0.2425
   32MOL0     N 4237   5.781   5.593   8.672  0.2794  0.3323 -0.1943
   32MOL0     C 4238   6.992   5.654   8.657  1.0008  0.9324 -0.0463
   32MOL0     C 4239   7.127   5.649   8.676 -1.0564 -0.3587  0.3927
   32MOL0     C 4240   7.553   5.492   8.610 -0.1735  0.2423 -0.7580
   32MOL0     C 4241   7.632   5.608   8.609 -0.5028  0.2229 -0.2603
   32MOL0     C 4242   7.772   5.600   8.625 -0.4195  0.3310  0.4919
   32MOL0     C 4243   7.831   5.473   8.659  0.0788 -0.8401  0.7236
   32MOL0     O 4244   7.968   5.471   8.685  0.1727 -0.9641 -0.4959
   32MOL0     C 4245   8.030   5.351   8.736  0.1564 -0.1779  0.7379
   32MOL0     C 4246   8.161   5.400   8.798 -0.1677  0.2271  0.9968
   32MOL0     C 4247   8.239   5.272   8.819 -0.0159 -0.4794  0.2919
   32MOL0     C 4248   8.366   5.292   8.901  0.4883  0.3226  0.0052
   32MOL0     C 4249   8.335   5.337   9.036 -0.3012 -0.6037  0.0023
   32MOL0     C 4250   8.305   5.363   9.148 -0.3646  0.9535  0.8472
   32MOL0     C 4251   7.753   5.359   8.653 -0.4632 -0.3367  0.3216
   32MOL0     C 4252   7.617   5.371   8.629 -0.9556  0.1610  0.1505
   32MOL0     H 4253   7.231   5.577   8.363  0.1815 -0.1510  1.0961
   32MOL0     H 4254   6.991   5.609   8.312  1.9526 -2.3624 -0.8197
   32MOL0     H 4255   6.678   5.481   8.402 -0.5828 -1.2074  1.0547
   32MOL0     H 4256   6.826   5.410   8.433 -0.3783 -0.1025 -0.4528
   32MOL0     H 4257   6.688   5.314   8.596 -2.3952 -0.3382  0.8550
   32MOL0     H 4258   6.771   5.458   8.678 -0.7035  1.4645 -0.0103
   32MOL0     H 4259   6.556   5.578   8.660 -2.5633 -0.0666 -0.0416
   32MOL0     H 4260   6.500   5.472   8.540  0.1580  2.8111  0.2156
   32MOL0     H 4261   6.446   5.287   8.681 -2.8351  1.0853 -2.8149
   32MOL0     H 4262   6.541   5.349   8.812 -0.5723  0.5845  0.3674
   32MOL0     H 4263   6.305   5.406   8.862  0.4678 -1.2451  0.1342
   32MOL0     H 4264   6.394   5.555   8.833  2.0715  1.0831 -2.6661
   32MOL0     H 4265   6.286   5.560   8.597 -1.2865 -1.6505 -0.9251
   32MOL0     H 4266   6.210   5.414   8.639  0.6492  1.0661 -1.6970
   32MOL0     H 4267   6.090   5.514   8.819  0.3814 -0.1899 -1.3267
   32MOL0     H 4268   6.166   5.675   8.776 -1.0372  1.3216  0.5866
   32MOL0     H 4269   6.004   5.503   8.581 -0.7678 -1.2866  2.7960
   32MOL0     H 4270   6.058   5.680   8.568 -1.6390  1.3047 -0.0888
   32MOL0     H 4271   5.973   5.800   8.836 -0.6438  0.9469  0.8850
   32MOL0     H 4272   5.578   5.790   8.924 -0.7248  0.4134  0.1035
   32MOL0     H 4273   5.723   5.826   9.013  2.3594  0.1846 -1.5606
   32MOL0     H 4274   5.804   6.013   8.916  0.7756  1.2532  0.7758
   32MOL0     H 4275   5.639   6.042   8.975 -2.2043  0.4092 -0.7695
   32MOL0     H 4276   5.542   6.021   8.743  0.0346 -0.1299 -1.0217
   32MOL0     H 4277   5.696   5.967   8.688  2.1677 -0.9976  3.0336
   32MOL0     H 4278   5.641   6.221   8.627  0.8164 -1.3700 -0.8989
   32MOL0     H 4279   5.796   6.187   8.707  0.9793 -0.2679 -2.2853
   32MOL0     H 4280   5.581   6.456   8.991 -1.5480  0.6511  1.2117
   32MOL0     H 4281   5.336   6.669   9.032 -3.2092 -1.4994 -0.0152
   32MOL0     H 4282   5.299   6.553   9.162  1.8731 -1.8552  1.1390
   32MOL0     H 4283   5.464   6.589   9.138 -1.0045 -2.6940  1.6502
   32MOL0     H 4284   4.888   6.404   8.595  0.8479  3.1280 -1.1216
   32MOL0     H 4285   4.657   6.465   8.562 -1.2185  1.0157  0.8223
   32MOL0     H 4286   4.391   6.436   8.870  0.4532  0.7809  1.3113
   32MOL0     H 4287   4.359   6.610   8.875 -0.2695 -0.7100 -0.5841
   32MOL0     H 4288   4.236   6.597   8.655  0.5232 -1.8262 -3.5288
   32MOL0     H 4289   4.255   6.429   8.648 -0.1382  1.4125 -2.3083
   32MOL0     H 4290   4.090   6.602   8.845 -2.5087 -1.1635  1.8326
   32MOL0     H 4291   4.119   6.435   8.882 -0.1946  2.3403  1.5884
   32MOL0     H 4292   4.019   6.386   8.644  1.5702  1.2902 -1.9081
   32MOL0     H 4293   3.915   6.440   8.776 -1.0182 -2.1413 -2.5173
   32MOL0     H 4294   3.988   6.616   8.554  0.7171  1.0919  0.6120
   32MOL0     H 4295   3.950   6.675   8.708  1.7415 -1.5665  1.6027
   32MOL0     H 4296   3.791   6.456   8.549  0.0411  0.9845 -1.3947
   32MOL0     H 4297   3.742   6.542   8.701  1.5778  1.0267  1.8147
   32MOL0     H 4298   3.773   6.646   8.411 -0.5540  1.6714 -1.3978
   32MOL0     H 4299   3.740   6.751   8.551 -0.7019  0.7769 -0.5835
   32MOL0     H 4300   3.558   6.513   8.479 -0.0258 -0.9193  0.2789
   32MOL0     H 4301   3.547   6.667   8.397  2.9518 -2.5279 -1.3969
   32MOL0     H 4302   4.598   6.545   8.974 -0.4330 -2.7635 -0.6067
   32MOL0     H 4303   4.843   6.474   9.012 -0.0649 -1.8646  0.1145
   32MOL0     H 4304   5.190   6.272   8.768  1.0238 -2.0642 -0.6583
   32MOL0     H 4305   5.404   6.194   8.698 -1.7104  0.1295  0.6731
   32MOL0     H 4306   6.925   5.664   8.741 -0.7618 -1.3316 -1.0739
   32MOL0     H 4307   7.155   5.672   8.778 -0.6046  0.8899  0.0059
   32MOL0     H 4308   7.592   5.709   8.596 -1.7854 -0.5563 -3.1849
   32MOL0     H 4309   7.835   5.687   8.611  1.0183 -0.9983 -2.0799
   32MOL0     H 4310   7.965   5.302   8.809  0.7119 -1.7046  0.2373
   32MOL0     H 4311   8.042   5.294   8.644 -0.7574  1.6055 -0.5371
   32MOL0     H 4312   8.146   5.454   8.892 -1.1467 -3.1363  2.9865
   32MOL0     H 4313   8.222   5.455   8.727 -2.4079 -1.1658 -2.2410
   32MOL0     H 4314   8.265   5.240   8.718  0.3860  0.6123  0.0290
   32MOL0     H 4315   8.175   5.194   8.859  1.8338 -2.4320 -0.3732
   32MOL0     H 4316   8.432   5.370   8.862  0.3393  0.2344 -0.4302
   32MOL0     H 4317   8.429   5.203   8.904  3.2502  2.1522  0.0831
   32MOL0     H 4318   8.278   5.399   9.245 -2.5508 -0.8790  1.0016
   32MOL0     H 4319   7.800   5.263   8.676  1.0091  0.0062 -1.0206
   32MOL0     H 4320   7.555   5.282   8.632 -1.3467  0.4025 -0.5165
   33MOL0     O 4321   9.863   9.453  10.068 -0.5422 -0.2740  0.1500
   33MOL0     C 4322   9.847   9.397  10.178 -0.7175  0.3235  0.2946
   33MOL0     O 4323   9.738   9.408  10.253  0.0203  0.0179  0.1865
   33MOL0     C 4324   9.615   9.452  10.207 -0.0019 -0.4172 -0.4552
   33MOL0     C 4325   9.553   9.550  10.282  0.5502 -0.7928  0.0833
   33MOL0     C 4326   9.428   9.606  10.238  0.3502  0.6579  0.5070
   33MOL0     C 4327   9.367   9.564  10.117  0.5614  0.2249  0.0165
   33MOL0     O 4328   9.245   9.632  10.087 -0.0292  0.1970 -0.5024
   33MOL0     C 4329   9.189   9.610   9.961 -0.0173  0.4088  0.0962
   33MOL0     C 4330   9.060   9.690   9.938  0.1632 -0.8285 -0.6024
   33MOL0     C 4331   8.987   9.686   9.800 -0.0314 -0.3507 -0.5571
   33MOL0     C 4332   8.878   9.803   9.808  0.6650  0.0709 -0.2950
   33MOL0     C 4333   8.778   9.775   9.687 -0.0807 -0.5502 -0.3812
   33MOL0     C 4334   8.655   9.694   9.730  0.5250 -0.5248 -1.0026
   33MOL0     C 4335   8.575   9.630   9.611  0.2263 -0.2035  0.2443
   33MOL0     C 4336   8.529   9.486   9.650 -0.0909 -0.0385  0.7022
   33MOL0     N 4337   8.420   9.460   9.562 -0.6678 -0.5434 -0.4214
   33MOL0     C 4338   8.433   9.382   9.447  0.4748  0.5771 -0.0089
   33MOL0     C 4339   8.311   9.329   9.420 -0.3636  0.4746  0.5230
   33MOL0     C 4340   8.282   9.251   9.298  1.3120  0.1533 -0.5074
   33MOL0     C 4341   8.197   9.317   9.202 -0.1652 -0.2050  0.8920
   33MOL0     C 4342   8.053   9.353   9.238  0.5365  0.5096  0.0996
   33MOL0     C 4343   7.974   9.236   9.299  0.7973  0.5888 -0.3911
   33MOL0     O 4344   7.990   9.130   9.203 -0.5006 -0.6659 -0.4430
   33MOL0     C 4345   7.897   9.037   9.202  0.6334  0.1858  0.0951
   33MOL0     C 4346   7.825   9.026   9.086  0.2572 -0.5909 -0.0616
   33MOL0     C 4347   7.707   8.947   9.074  0.0952 -0.3493 -0.0039
   33MOL0     C 4348   7.641   8.938   8.940  0.0811  0.1283 -0.6669
   33MOL0     C 4349   7.667   8.880   9.189 -0.0667  0.1682  0.1131
   33MOL0     C 4350   7.542   8.793   9.190  0.6842 -0.1829 -0.3733
   33MOL0     O 4351   7.533   8.698   9.291 -0.6123 -0.5598 -0.5074
   33MOL0     C 4352   7.419   8.627   9.324  0.9744 -0.1440 -0.3262
   33MOL0     C 4353   7.286   8.639   9.270 -0.6627 -0.7040  0.1907
   33MOL0     C 4354   7.188   8.554   9.305 -0.0413  0.6253  0.7046
   33MOL0     C 4355   7.202   8.454   9.405 -0.1352  0.0016  0.3874
   33MOL0     O 4356   7.108   8.363   9.436  0.3927  0.4435  0.2694
   33MOL0     C 4357   6.995   8.410   9.511  0.1931 -0.7763  0.5639
   33MOL0     C 4358   7.021   8.384   9.663 -0.4258  0.0882 -0.2632
   33MOL0     C 4359   7.057   8.234   9.679 -0.8397  0.0154  0.4245
   33MOL0     C 4360   6.952   8.138   9.634  0.1757  0.5906  0.5774
   33MOL0     C 4361   6.811   8.171   9.689 -0.0976  0.8110 -0.4590
   33MOL0     C 4362   6.723   8.048   9.667  0.5743  0.0110 -0.4423
   33MOL0     C 4363   6.577   8.060   9.715  0.1549 -0.8931 -0.1791
   33MOL0     C 4364   6.481   7.961   9.642 -0.4981 -0.1199  0.1973
   33MOL0    Cl 4365   6.467   8.007   9.471 -0.5417  0.0595  0.1131
   33MOL0     C 4366   7.328   8.441   9.468  1.2914 -0.2471  0.2869
   33MOL0     C 4367   7.433   8.517   9.418 -0.3464 -0.0249 -0.1595
   33MOL0     O 4368   7.459   8.803   9.104  0.3287  0.1100  0.2761
   33MOL0     C 4369   7.734   8.882   9.312 -0.4154 -0.2034  0.1830
   33MOL0     C 4370   7.849   8.962   9.319  0.1249  0.0509  0.2063
   33MOL0     N 4371   8.227   9.384   9.519 -0.5702  0.3637  0.0139
   33MOL0     N 4372   8.292   9.461   9.604 -0.1589 -1.2757 -0.9770
   33MOL0     C 4373   9.442   9.479  10.035 -1.1454 -0.3184 -0.7255
   33MOL0     C 4374   9.559   9.411  10.086  1.0661 -0.4702 -0.1367
   33MOL0     C 4375   9.953   9.322  10.226 -1.0070  0.4859 -0.4348
   33MOL0     C 4376  10.081   9.312  10.163 -0.4571  0.2020  0.8503
   33MOL0     C 4377  10.174   9.224  10.212 -0.4293 -1.2434  0.9203
   33MOL0     C 4378  10.156   9.154  10.332 -0.6614 -0.4143 -0.1568
   33MOL0     O 4379  10.248   9.070  10.394 -0.5435 -0.7026  0.1072
   33MOL0     C 4380  10.374   9.040  10.335  0.8447  0.7700 -0.7645
   33MOL0     C 4381  10.479   9.007  10.446  0.0560  0.6512  0.3871
   33MOL0     C 4382  10.495   9.114  10.553  0.2665  0.1670 -0.5742
   33MOL0     C 4383  10.506   9.256  10.501 -0.6318 -0.5354  0.3860
   33MOL0     C 4384  10.640   9.268  10.427  0.1921  0.5876 -0.1713
   33MOL0     C 4385  10.741   9.267  10.363  0.1198  0.8884 -0.0942
   33MOL0     C 4386  10.036   9.178  10.408 -0.0174  0.4517  0.2677
   33MOL0     C 4387   9.937   9.257  10.351  0.2179  0.5066 -0.4375
   33MOL0     H 4388   9.597   9.586  10.375  0.8556  0.8690 -0.6535
   33MOL0     H 4389   9.378   9.680  10.299  1.7372  0.2626  2.2226
   33MOL0     H 4390   9.255   9.656   9.886 -1.6781 -2.5134 -3.5250
   33MOL0     H 4391   9.175   9.503   9.944  0.8325 -0.3182  3.4296
   33MOL0     H 4392   8.986   9.666  10.016  0.3253  0.0405 -0.1743
   33MOL0     H 4393   9.087   9.794   9.954 -2.8375  0.5917 -3.6989
   33MOL0     H 4394   9.052   9.697   9.712  3.0237  0.0000  1.5834
   33MOL0     H 4395   8.928   9.594   9.797 -0.0570 -0.3512 -0.1181
   33MOL0     H 4396   8.831   9.803   9.906  0.9070 -2.5681 -0.0943
   33MOL0     H 4397   8.933   9.897   9.794  1.7126  0.3236  4.0460
   33MOL0     H 4398   8.752   9.865   9.631  0.9873  1.0020  1.5440
   33MOL0     H 4399   8.840   9.721   9.614 -1.1810 -1.6370 -0.5541
   33MOL0     H 4400   8.684   9.625   9.810 -0.9464  0.4339  0.3991
   33MOL0     H 4401   8.590   9.763   9.785  1.6363 -0.0621 -0.2165
   33MOL0     H 4402   8.488   9.687   9.577  1.5685  0.6357 -1.9990
   33MOL0     H 4403   8.638   9.624   9.522  0.6562  1.6000  0.4027
   33MOL0     H 4404   8.499   9.468   9.754 -3.1322  0.8145  0.0893
   33MOL0     H 4405   8.602   9.409   9.624 -0.5955  0.1781 -1.5527
   33MOL0     H 4406   8.523   9.362   9.389  0.2010  1.5377 -0.7983
   33MOL0     H 4407   8.375   9.231   9.244  0.6819  2.4190 -2.6280
   33MOL0     H 4408   8.238   9.154   9.323 -2.4694  1.5622 -1.1067
   33MOL0     H 4409   8.199   9.259   9.109  1.9187  1.1947 -0.0048
   33MOL0     H 4410   8.246   9.407   9.165 -2.4748  1.3560  1.4383
   33MOL0     H 4411   7.995   9.393   9.155  1.2520 -0.4133 -0.8653
   33MOL0     H 4412   8.067   9.439   9.305  2.9434  0.1585  0.1373
   33MOL0     H 4413   7.871   9.273   9.306  1.5674  2.7859 -0.1657
   33MOL0     H 4414   8.007   9.194   9.394  1.5116 -2.7535 -1.9685
   33MOL0     H 4415   7.833   9.094   9.002 -1.6883  0.7870  0.7899
   33MOL0     H 4416   7.541   8.982   8.955  0.2444  0.3973 -0.3462
   33MOL0     H 4417   7.689   8.982   8.853 -1.3151 -1.4425 -2.3018
   33MOL0     H 4418   7.628   8.834   8.910  1.4585  0.3629 -2.1803
   33MOL0     H 4419   7.261   8.721   9.204  2.5332  1.1753  1.1018
   33MOL0     H 4420   7.091   8.565   9.258 -0.4685 -0.8662  1.1969
   33MOL0     H 4421   6.966   8.514   9.495 -3.8142 -1.6074  1.4181
   33MOL0     H 4422   6.907   8.352   9.484  0.5589 -0.9566 -0.2672
   33MOL0     H 4423   7.102   8.443   9.705  0.8305 -1.9708  0.3467
   33MOL0     H 4424   6.932   8.403   9.724  0.2098  0.5271  0.5235
   33MOL0     H 4425   7.074   8.219   9.786  2.3965 -0.7938 -0.1006
   33MOL0     H 4426   7.150   8.215   9.624 -0.8890 -1.1757  0.7158
   33MOL0     H 4427   6.948   8.138   9.524  0.3139  1.3981  0.5636
   33MOL0     H 4428   6.989   8.040   9.665 -1.5801 -0.0816  0.6417
   33MOL0     H 4429   6.767   8.259   9.642  1.1581  0.4769 -2.3650
   33MOL0     H 4430   6.824   8.183   9.797 -0.4580  0.7242 -0.4045
   33MOL0     H 4431   6.723   8.018   9.561 -3.7530  2.1766 -1.2888
   33MOL0     H 4432   6.764   7.965   9.725  0.3818  0.5641  0.5006
   33MOL0     H 4433   6.538   8.158   9.688 -1.5911 -1.6156 -0.3930
   33MOL0     H 4434   6.579   8.046   9.823 -0.4064  1.3625  0.1784
   33MOL0     H 4435   6.380   7.962   9.684 -0.4794 -0.2965  0.2481
   33MOL0     H 4436   6.511   7.857   9.654 -1.6888 -0.6137 -0.8259
   33MOL0     H 4437   7.342   8.367   9.546 -0.3307  2.9808  3.9923
   33MOL0     H 4438   7.530   8.506   9.464 -1.9115 -1.4497  3.1459
   33MOL0     H 4439   7.699   8.818   9.393 -1.6622 -0.6389 -0.6726
   33MOL0     H 4440   7.901   8.992   9.410 -1.5180  4.3509 -0.0334
   33MOL0     H 4441   9.398   9.457   9.939 -0.8357  0.3896 -1.0354
   33MOL0     H 4442   9.603   9.343  10.014 -0.9023 -0.4326 -1.4465
   33MOL0     H 4443  10.087   9.371  10.072  0.4464  0.0728  0.8219
   33MOL0     H 4444  10.265   9.216  10.152 -2.6142 -2.0196 -2.5970
   33MOL0     H 4445  10.362   8.967  10.255 -2.9509  0.4916 -0.1225
   33MOL0     H 4446  10.395   9.131  10.277 -1.0831 -0.6517 -3.9459
   33MOL0     H 4447  10.571   8.993  10.388  0.5437 -0.7673  1.4310
   33MOL0     H 4448  10.462   8.913  10.499  1.1290 -0.5083 -1.2060
   33MOL0     H 4449  10.591   9.085  10.598  1.0490  2.7343 -0.4597
   33MOL0     H 4450  10.421   9.106  10.634  1.0856  1.0905  0.2997
   33MOL0     H 4451  10.503   9.322  10.588  0.1002 -0.6587  0.5122
   33MOL0     H 4452  10.413   9.277  10.448 -0.5451 -1.5679 -0.2083
   33MOL0     H 4453  10.823   9.266  10.294  1.4013  0.0880  1.3571
   33MOL0     H 4454  10.010   9.133  10.503  1.2156 -1.0834 -0.0692
   33MOL0     H 4455   9.848   9.271  10.411  2.0465  1.0375  2.3044
   34MOL0     O 4456   4.528   3.648   9.181  0.3855  0.2227 -0.2576
   34MOL0     C 4457   4.551   3.605   9.299  0.9418 -0.4059  0.2132
   34MOL0     O 4458   4.448   3.577   9.389 -0.4154 -0.1541 -0.9576
   34MOL0     C 4459   4.315   3.583   9.364 -0.3258 -0.1490  0.9877
   34MOL0     C 4460   4.227   3.494   9.423  0.1181 -0.4041  0.4361
   34MOL0     C 4461   4.092   3.493   9.399  0.8740  0.1003  0.5494
   34MOL0     C 4462   4.034   3.571   9.296 -0.3246 -1.2484 -1.2267
   34MOL0     O 4463   3.901   3.585   9.284  0.6412 -0.7492  0.0528
   34MOL0     C 4464   3.815   3.481   9.330  0.3546 -0.2733  0.5618
   34MOL0     C 4465   3.674   3.510   9.266  0.9289 -0.0430 -0.2954
   34MOL0     C 4466   3.550   3.493   9.352 -0.1826 -0.3856  0.2846
   34MOL0     C 4467   3.434   3.504   9.251 -0.2244  0.1096  0.1245
   34MOL0     C 4468   3.306   3.501   9.317  0.4166 -0.4800  0.9860
   34MOL0     C 4469   3.253   3.367   9.362  0.2830 -0.3360  0.4604
   34MOL0     C 4470   3.106   3.348   9.332  0.5104 -0.4311 -0.5473
   34MOL0     C 4471   3.054   3.211   9.384 -0.0110 -1.0984 -0.2843
   34MOL0     N 4472   2.938   3.158   9.309  0.0999  0.5181  0.1708
   34MOL0     C 4473   2.924   3.033   9.252 -0.0815 -1.0047  0.0451
   34MOL0     C 4474   2.796   3.030   9.217  1.4158 -0.4273  0.5478
   34MOL0     C 4475   2.741   2.928   9.125 -0.0799  0.2313  0.1232
   34MOL0     C 4476   2.602   2.952   9.076  0.4890  0.4470 -0.2821
   34MOL0     C 4477   2.497   2.928   9.184 -0.2404 -0.1562 -0.1167
   34MOL0     C 4478   2.351   2.942   9.144  0.0154 -0.1898 -0.6666
   34MOL0     O 4479   2.267   2.896   9.244  0.1962  0.2241  0.9162
   34MOL0     C 4480   2.135   2.866   9.227 -0.4563  0.0715 -0.0257
   34MOL0     C 4481   2.068   2.864   9.108  0.6907  0.5874  0.7704
   34MOL0     C 4482   1.932   2.833   9.096 -0.7632 -0.1959 -0.7600
   34MOL0     C 4483   1.862   2.831   8.963  0.4072  0.5988 -0.2752
   34MOL0     C 4484   1.861   2.811   9.221  0.4527 -0.9885 -0.0424
   34MOL0     C 4485   1.720   2.768   9.231  0.3024  0.4871 -0.3231
   34MOL0     O 4486   1.635   2.806   9.128  0.9895  0.1467  0.4234
   34MOL0     C 4487   1.504   2.774   9.127  1.1683  0.1739  1.0523
   34MOL0     C 4488   1.420   2.826   9.022  0.5952  0.0216 -0.0239
   34MOL0     C 4489   1.289   2.796   9.007  0.0984  0.0610  0.0032
   34MOL0     C 4490   1.216   2.716   9.097 -0.6131  0.6116  0.5694
   34MOL0     O 4491   1.088   2.679   9.064 -0.2434  0.0998 -0.8210
   34MOL0     C 4492   0.993   2.715   9.162  0.3046  0.3309  0.4568
   34MOL0     C 4493   0.858   2.710   9.092  0.0540  0.4401  0.1770
   34MOL0     C 4494   0.795   2.573   9.109  0.5093 -0.4002  0.1015
   34MOL0     C 4495   0.671   2.569   9.016 -0.5325  0.2110 -0.4060
   34MOL0     C 4496   0.625   2.420   9.008  0.2587  0.8856  0.1718
   34MOL0     C 4497   0.524   2.386   8.893  0.0889 -0.0227 -0.2040
   34MOL0     C 4498   0.505   2.241   8.896  0.0177 -0.3927 -0.2670
   34MOL0     C 4499   0.423   2.190   8.769  0.0258  0.3364 -0.8655
   34MOL0    Cl 4500   0.498   2.214   8.615 -0.0520 -0.2313 -0.0208
   34MOL0     C 4501   1.286   2.659   9.207 -0.1477 -0.4887 -0.4661
   34MOL0     C 4502   1.426   2.690   9.221 -0.2022 -0.3220 -1.2591
   34MOL0     O 4503   1.695   2.709   9.338 -0.2014  0.6564 -0.1567
   34MOL0     C 4504   1.933   2.830   9.350 -0.3742 -0.5932  0.5741
   34MOL0     C 4505   2.064   2.852   9.343 -0.5842  0.3768  0.0583
   34MOL0     N 4506   2.731   3.146   9.260  0.1379  0.3384  0.4750
   34MOL0     N 4507   2.820   3.218   9.311  0.3646 -0.5808  0.6771
   34MOL0     C 4508   4.127   3.668   9.236 -0.4507  0.6314  0.5239
   34MOL0     C 4509   4.260   3.677   9.271 -0.8127  0.2379  0.5293
   34MOL0     C 4510   4.687   3.582   9.339 -0.2415  0.4354 -0.4948
   34MOL0     C 4511   4.715   3.499   9.451 -0.2610 -1.0393 -0.0727
   34MOL0     C 4512   4.852   3.469   9.489  0.1155 -0.3926 -0.4718
   34MOL0     C 4513   4.957   3.515   9.404 -0.4817  0.6973 -0.7112
   34MOL0     O 4514   5.084   3.491   9.450 -0.7871  0.4000  0.3256
   34MOL0     C 4515   5.189   3.531   9.359  0.0312  0.0221 -0.4131
   34MOL0     C 4516   5.320   3.525   9.441 -0.3215 -0.3091 -0.5665
   34MOL0     C 4517   5.348   3.390   9.512  0.2161  0.3450  0.6021
   34MOL0     C 4518   5.471   3.405   9.598  0.1254  0.6401 -0.0480
   34MOL0     C 4519   5.597   3.397   9.526  0.2927 -0.2459 -0.6195
   34MOL0     C 4520   5.704   3.384   9.462  1.1861  0.5690  0.1731
   34MOL0     C 4521   4.919   3.591   9.289  0.3125  0.3832  0.2717
   34MOL0     C 4522   4.790   3.634   9.270  0.4686  0.3019  0.4475
   34MOL0     H 4523   4.259   3.422   9.497 -1.4232  0.2722  1.8362
   34MOL0     H 4524   4.037   3.422   9.458  2.2811 -0.3790  1.3279
   34MOL0     H 4525   3.843   3.386   9.283 -0.7505 -0.1218 -0.4796
   34MOL0     H 4526   3.801   3.474   9.438 -1.4683 -0.5901  0.3408
   34MOL0     H 4527   3.676   3.607   9.215 -0.6417 -1.3782 -3.1024
   34MOL0     H 4528   3.659   3.439   9.185  1.9654 -1.6822  0.8924
   34MOL0     H 4529   3.566   3.397   9.401 -1.0607 -1.6942 -1.8802
   34MOL0     H 4530   3.550   3.574   9.426 -4.4696  0.6602 -0.5790
   34MOL0     H 4531   3.447   3.596   9.194 -0.1949 -0.3834 -0.6813
   34MOL0     H 4532   3.438   3.429   9.171  0.4227 -1.4251  1.5334
   34MOL0     H 4533   3.298   3.570   9.401  0.5974  0.1811  0.4660
   34MOL0     H 4534   3.226   3.540   9.253  0.8736  0.7838  1.1718
   34MOL0     H 4535   3.313   3.294   9.307  1.8181  1.2433 -0.0696
   34MOL0     H 4536   3.276   3.365   9.469 -1.3065  2.6954  0.9858
   34MOL0     H 4537   3.045   3.422   9.384  0.1040 -1.9861  1.3091
   34MOL0     H 4538   3.092   3.355   9.224  2.6754 -1.4371 -0.9671
   34MOL0     H 4539   3.034   3.217   9.492  2.8085 -1.0970  0.3270
   34MOL0     H 4540   3.137   3.142   9.371 -0.8457 -2.3567  0.7977
   34MOL0     H 4541   2.992   2.949   9.249  0.3225 -0.6662 -2.4652
   34MOL0     H 4542   2.810   2.915   9.040  1.6356  1.4681  1.2596
   34MOL0     H 4543   2.739   2.829   9.173  0.9643 -1.6392 -3.2995
   34MOL0     H 4544   2.580   2.874   9.002  1.8541 -1.1926  0.9588
   34MOL0     H 4545   2.587   3.049   9.028 -1.7816 -0.8702 -2.4763
   34MOL0     H 4546   2.515   3.000   9.264 -0.3010 -0.5309  0.2393
   34MOL0     H 4547   2.511   2.828   9.226  0.1283  0.6291  1.7028
   34MOL0     H 4548   2.319   2.885   9.056 -2.0121 -0.2044  0.0363
   34MOL0     H 4549   2.331   3.046   9.119 -2.9510 -0.1903  1.2686
   34MOL0     H 4550   2.113   2.878   9.010  0.7401 -2.8041  0.1803
   34MOL0     H 4551   1.785   2.754   8.951  0.2557  0.8851 -1.2405
   34MOL0     H 4552   1.800   2.921   8.954  2.3483  2.3794  2.3465
   34MOL0     H 4553   1.940   2.813   8.889  1.3848 -1.1624  1.0948
   34MOL0     H 4554   1.478   2.865   8.939 -0.5582 -2.3130 -2.0403
   34MOL0     H 4555   1.238   2.840   8.921  1.7466 -1.0511 -1.6397
   34MOL0     H 4556   0.994   2.652   9.252 -0.8851 -0.9688 -0.3960
   34MOL0     H 4557   1.024   2.817   9.186  1.2384  0.3132 -0.5929
   34MOL0     H 4558   0.799   2.785   9.146  2.3919  1.8040  0.9782
   34MOL0     H 4559   0.856   2.744   8.988  0.3754  3.2830  1.0026
   34MOL0     H 4560   0.775   2.560   9.216 -0.0816  1.7211  0.2914
   34MOL0     H 4561   0.868   2.498   9.078  0.9604  1.8107 -5.2260
   34MOL0     H 4562   0.602   2.647   9.052  0.0791  0.9940 -0.8885
   34MOL0     H 4563   0.699   2.598   8.914 -2.8706 -0.4490 -1.2956
   34MOL0     H 4564   0.572   2.389   9.099  0.4357 -3.5790 -1.0078
   34MOL0     H 4565   0.704   2.346   8.997  0.9394  1.8691 -2.0073
   34MOL0     H 4566   0.430   2.442   8.895  0.5799  0.8478 -0.6444
   34MOL0     H 4567   0.577   2.416   8.801  1.3733  2.9081  1.3567
   34MOL0     H 4568   0.442   2.224   8.984 -1.9569  0.7502 -1.3857
   34MOL0     H 4569   0.602   2.194   8.912  0.9661  1.7479  0.7616
   34MOL0     H 4570   0.346   2.268   8.766 -0.2946  0.0091 -1.2243
   34MOL0     H 4571   0.390   2.086   8.775  3.8426 -0.9440  0.7612
   34MOL0     H 4572   1.242   2.598   9.285  3.2731 -0.8707  1.3290
   34MOL0     H 4573   1.474   2.643   9.306  0.7430 -2.1317 -2.7077
   34MOL0     H 4574   1.893   2.807   9.448  0.5933  0.3278  1.2053
   34MOL0     H 4575   2.126   2.866   9.431  1.4133  1.4096 -1.4271
   34MOL0     H 4576   4.089   3.738   9.162 -0.8893  0.3386  0.4622
   34MOL0     H 4577   4.308   3.770   9.241  0.0828  0.5340  2.7208
   34MOL0     H 4578   4.642   3.460   9.521  1.3270 -1.1043  1.6302
   34MOL0     H 4579   4.877   3.425   9.585 -0.1359  0.4504 -0.0021
   34MOL0     H 4580   5.179   3.455   9.281 -0.3987 -1.1986  0.8037
   34MOL0     H 4581   5.184   3.630   9.312 -4.3714  1.7661  2.9952
   34MOL0     H 4582   5.306   3.603   9.516 -2.4519 -0.8996 -0.2673
   34MOL0     H 4583   5.397   3.542   9.366 -1.8553 -0.6173 -2.2941
   34MOL0     H 4584   5.358   3.305   9.444 -0.3472  0.8276 -0.0988
   34MOL0     H 4585   5.266   3.371   9.581 -1.5581 -2.9208 -2.1436
   34MOL0     H 4586   5.469   3.328   9.676 -0.7569 -0.4320 -1.0693
   34MOL0     H 4587   5.466   3.505   9.640  0.4286  0.6043  0.0733
   34MOL0     H 4588   5.801   3.377   9.418  1.9647  2.3495  1.4991
   34MOL0     H 4589   4.990   3.634   9.218  0.5028  0.9856  0.8156
   34MOL0     H 4590   4.772   3.701   9.186 -3.0677  2.2016  2.5032
   35MOL0     O 4591   2.366  11.069   6.563 -0.5568 -0.5732  0.4671
   35MOL0     C 4592   2.434  10.966   6.589  0.1735 -0.1679 -0.0944
   35MOL0     O 4593   2.393  10.840   6.611 -0.8908 -0.1630 -0.5611
   35MOL0     C 4594   2.263  10.810   6.627 -0.0632  0.7200  0.4429
   35MOL0     C 4595   2.161  10.847   6.537  0.3983  0.1046  0.2422
   35MOL0     C 4596   2.026  10.825   6.558  0.0116  0.4150 -0.4088
   35MOL0     C 4597   1.985  10.752   6.670  0.0397  0.7024  0.6440
   35MOL0     O 4598   1.851  10.724   6.695 -0.4902 -0.5622  0.5075
   35MOL0     C 4599   1.752  10.771   6.613  0.7391 -0.5173 -0.0446
   35MOL0     C 4600   1.608  10.734   6.660  0.3095 -0.7153  0.2859
   35MOL0     C 4601   1.519  10.686   6.537 -0.3845  0.2425 -0.2712
   35MOL0     C 4602   1.541  10.537   6.524  0.4779  0.4521 -0.6113
   35MOL0     C 4603   1.445  10.454   6.427  0.2989 -0.7808 -0.2557
   35MOL0     C 4604   1.298  10.446   6.481 -0.4567  0.3363  0.4217
   35MOL0     C 4605   1.217  10.378   6.379 -0.3984 -0.0678  0.1908
   35MOL0     C 4606   1.077  10.345   6.426  0.0353  0.5148  0.1350
   35MOL0     N 4607   0.992  10.464   6.451 -0.0544 -0.4931  0.3388
   35MOL0     C 4608   0.972  10.568   6.362  0.0137  0.9396  0.7140
   35MOL0     C 4609   0.854  10.623   6.392  0.0743 -0.3158  0.3361
   35MOL0     C 4610   0.782  10.734   6.319  0.7957 -0.1524 -1.2106
   35MOL0     C 4611   0.687  10.694   6.212  0.2312 -0.2046 -0.2575
   35MOL0     C 4612   0.601  10.809   6.182  0.0120  0.2445 -0.0100
   35MOL0     C 4613   0.538  10.786   6.039 -0.1912 -0.2159 -0.0845
   35MOL0     O 4614   0.479  10.659   6.032  0.6951  0.5794  0.3123
   35MOL0     C 4615   0.339  10.651   6.026 -0.7589  0.5695  1.0217
   35MOL0     C 4616   0.292  10.527   6.059  0.0354  0.4756  0.4456
   35MOL0     C 4617   0.152  10.502   6.057 -0.0724  0.1978 -0.9002
   35MOL0     C 4618   0.111  10.355   6.085 -0.3356 -0.1366  0.3672
   35MOL0     C 4619   0.056  10.599   6.008 -0.1925  0.7496 -0.0114
   35MOL0     C 4620  -0.085  10.576   5.991  0.0238  0.3740 -0.1873
   35MOL0     O 4621  -0.148  10.678   5.929 -0.2631 -0.2691  0.2716
   35MOL0     C 4622  -0.282  10.664   5.914 -0.2476 -0.9649  0.3637
   35MOL0     C 4623  -0.343  10.562   5.847  0.2243 -0.3327 -0.1612
   35MOL0     C 4624  -0.483  10.572   5.830 -0.0652 -0.8324 -0.0185
   35MOL0     C 4625  -0.562  10.671   5.884  0.2724  0.8821  0.0376
   35MOL0     O 4626  -0.698  10.663   5.852  0.0954 -0.3000 -0.2601
   35MOL0     C 4627  -0.783  10.768   5.911 -0.2515 -0.2941  0.5477
   35MOL0     C 4628  -0.933  10.749   5.879  0.3375 -0.1857 -0.8642
   35MOL0     C 4629  -1.026  10.866   5.917 -0.2157  0.4225 -0.0861
   35MOL0     C 4630  -1.174  10.855   5.889 -1.1675 -0.6730 -0.9421
   35MOL0     C 4631  -1.264  10.974   5.942  0.0391 -0.1517 -0.6268
   35MOL0     C 4632  -1.400  10.966   5.885  0.5270 -0.1214  0.6205
   35MOL0     C 4633  -1.484  11.082   5.940 -1.0254 -0.5050 -0.3251
   35MOL0     C 4634  -1.623  11.093   5.873  0.3163 -0.3079  0.2435
   35MOL0    Cl 4635  -1.700  10.937   5.864  0.0008  0.1651  0.2121
   35MOL0     C 4636  -0.495  10.775   5.945  0.2183 -0.4174  0.4221
   35MOL0     C 4637  -0.352  10.772   5.965  0.0518 -1.1231 -0.1566
   35MOL0     O 4638  -0.141  10.481   6.052  0.1813 -0.2484  0.3718
   35MOL0     C 4639   0.117  10.723   5.974  0.0477  0.5972 -0.0015
   35MOL0     C 4640   0.247  10.743   5.980 -1.0287 -0.4877 -0.4312
   35MOL0     N 4641   0.807  10.562   6.508  0.9114 -0.1647 -0.3845
   35MOL0     N 4642   0.889  10.469   6.542  0.9219  0.9028  0.3606
   35MOL0     C 4643   2.085  10.700   6.752  0.8765  0.7450  0.1934
   35MOL0     C 4644   2.222  10.731   6.738 -0.9571  0.6855 -0.1574
   35MOL0     C 4645   2.579  10.998   6.560  0.2019  0.7021 -0.3200
   35MOL0     C 4646   2.626  11.125   6.603  0.4718 -0.2507  0.9808
   35MOL0     C 4647   2.757  11.154   6.580 -0.1486 -0.0884  0.0665
   35MOL0     C 4648   2.840  11.057   6.512 -0.4928  0.0176 -0.7644
   35MOL0     O 4649   2.965  11.099   6.484  0.2465 -0.4953 -0.1395
   35MOL0     C 4650   3.056  10.993   6.440  0.2123  0.2057 -0.1013
   35MOL0     C 4651   3.198  11.045   6.423 -0.4198  0.5205  0.1618
   35MOL0     C 4652   3.293  10.939   6.373 -0.8144  0.1965 -0.3258
   35MOL0     C 4653   3.421  10.999   6.342 -0.7589  0.1253  1.0243
   35MOL0     C 4654   3.514  10.896   6.314  0.2736 -0.2005 -1.2416
   35MOL0     C 4655   3.597  10.814   6.285  0.3226  0.0583 -0.7407
   35MOL0     C 4656   2.796  10.933   6.477 -0.2939  0.1797 -0.4356
   35MOL0     C 4657   2.660  10.902   6.503 -0.0702  0.0266 -0.0087
   35MOL0     H 4658   2.185  10.915   6.456  0.2208  0.3753  0.4176
   35MOL0     H 4659   1.959  10.859   6.480 -1.8026 -1.2062  0.3619
   35MOL0     H 4660   1.754  10.881   6.615  2.0579 -0.5234  0.4756
   35MOL0     H 4661   1.756  10.744   6.507 -1.9079 -0.1760 -0.2928
   35MOL0     H 4662   1.616  10.663   6.743  1.2731 -2.6553 -1.3767
   35MOL0     H 4663   1.552  10.823   6.691  2.4257  1.3194 -1.3624
   35MOL0     H 4664   1.415  10.692   6.572 -0.1538  1.1024  0.2773
   35MOL0     H 4665   1.519  10.740   6.442  1.1987  2.0102  0.6726
   35MOL0     H 4666   1.645  10.510   6.503 -0.1109 -2.6556 -0.0273
   35MOL0     H 4667   1.524  10.492   6.622 -0.3149 -3.4530 -2.3407
   35MOL0     H 4668   1.449  10.513   6.334 -1.4321 -0.1966 -0.0060
   35MOL0     H 4669   1.489  10.361   6.391  0.4311  0.2983 -3.1329
   35MOL0     H 4670   1.289  10.387   6.573 -2.2860 -2.0139 -1.1306
   35MOL0     H 4671   1.259  10.546   6.499  4.2410  3.2473 -3.3544
   35MOL0     H 4672   1.205  10.440   6.289  0.3445 -0.0705  0.0837
   35MOL0     H 4673   1.266  10.285   6.348  1.6569  1.7344 -2.4735
   35MOL0     H 4674   1.086  10.279   6.513 -1.0289 -1.2035 -1.0259
   35MOL0     H 4675   1.028  10.283   6.351  1.1833 -0.0367 -0.1767
   35MOL0     H 4676   1.029  10.609   6.280 -2.1068  0.9706 -0.8332
   35MOL0     H 4677   0.733  10.788   6.400  0.0533 -2.0391 -0.3346
   35MOL0     H 4678   0.853  10.805   6.277 -0.3694  1.3114 -0.7733
   35MOL0     H 4679   0.624  10.610   6.242  0.8712 -1.4522 -2.1537
   35MOL0     H 4680   0.751  10.657   6.130  0.9153  1.0565 -0.3202
   35MOL0     H 4681   0.663  10.899   6.184 -0.5012  0.5953  1.3847
   35MOL0     H 4682   0.523  10.826   6.257 -0.5394  4.2380 -1.2371
   35MOL0     H 4683   0.614  10.800   5.961  0.4360 -0.7589  0.4158
   35MOL0     H 4684   0.469  10.868   6.015 -0.5606 -0.5406 -0.1325
   35MOL0     H 4685   0.360  10.447   6.090 -0.4780  1.0729  3.4327
   35MOL0     H 4686   0.040  10.355   6.168 -0.4346  0.1801  0.2813
   35MOL0     H 4687   0.073  10.313   5.991 -0.7515  1.4869 -0.2291
   35MOL0     H 4688   0.201  10.304   6.123  0.5946 -0.1209 -1.6770
   35MOL0     H 4689  -0.290  10.476   5.808  1.0941  1.6061 -3.7248
   35MOL0     H 4690  -0.533  10.488   5.783 -0.8059  0.0176 -0.8033
   35MOL0     H 4691  -0.762  10.763   6.019  0.3224  1.4492  0.5364
   35MOL0     H 4692  -0.750  10.864   5.871  1.0318 -1.0395 -0.2441
   35MOL0     H 4693  -0.938  10.734   5.771 -1.4763 -1.2919 -0.6680
   35MOL0     H 4694  -0.959  10.657   5.932  0.2026 -0.8820 -2.1088
   35MOL0     H 4695  -0.983  10.954   5.868  0.5419 -0.0419 -0.2659
   35MOL0     H 4696  -1.017  10.866   6.026  2.1840 -0.5669 -0.2314
   35MOL0     H 4697  -1.185  10.856   5.781 -0.5936  0.0330 -1.0014
   35MOL0     H 4698  -1.204  10.760   5.935  0.6214 -0.3875  0.9523
   35MOL0     H 4699  -1.227  11.069   5.904 -0.3861 -0.7783 -2.7461
   35MOL0     H 4700  -1.266  10.965   6.051 -0.9289  1.8227 -0.4388
   35MOL0     H 4701  -1.389  10.981   5.777  3.9973  1.9045  1.1034
   35MOL0     H 4702  -1.442  10.870   5.913  1.0139 -0.5861 -0.1890
   35MOL0     H 4703  -1.427  11.170   5.909  0.3497  0.0157  3.2199
   35MOL0     H 4704  -1.489  11.076   6.049 -0.1824  1.8681 -0.0913
   35MOL0     H 4705  -1.621  11.129   5.770 -1.1221  1.9897  0.9337
   35MOL0     H 4706  -1.690  11.151   5.937  1.1306 -0.8381  1.6005
   35MOL0     H 4707  -0.544  10.864   5.984  3.7891  0.7073  2.8157
   35MOL0     H 4708  -0.295  10.851   6.014  0.8220 -2.2515  0.8581
   35MOL0     H 4709   0.063  10.803   5.925  0.3231  1.0898  0.4833
   35MOL0     H 4710   0.294  10.832   5.941  0.4187 -0.5997  0.9585
   35MOL0     H 4711   2.056  10.633   6.833  4.8650 -2.5831 -0.8125
   35MOL0     H 4712   2.292  10.695   6.811 -0.7877  1.8118  0.2614
   35MOL0     H 4713   2.564  11.209   6.631 -0.8404 -0.6097 -0.7307
   35MOL0     H 4714   2.804  11.250   6.598 -2.9807  1.3929  0.1783
   35MOL0     H 4715   3.058  10.900   6.499 -1.0026  1.1967  1.6192
   35MOL0     H 4716   3.020  10.952   6.345  0.4260  0.0827 -0.1307
   35MOL0     H 4717   3.232  11.090   6.516  1.2805  1.4597 -0.8626
   35MOL0     H 4718   3.195  11.129   6.352 -2.2621  0.3285 -0.0549
   35MOL0     H 4719   3.253  10.888   6.285  0.0727 -1.0218 -0.0419
   35MOL0     H 4720   3.294  10.864   6.452 -0.1417  0.7850  0.2284
   35MOL0     H 4721   3.458  11.064   6.421  2.7385 -0.7343  0.2457
   35MOL0     H 4722   3.406  11.057   6.250 -2.1591  0.3930  1.4030
   35MOL0     H 4723   3.675  10.748   6.253  0.3087  0.0606 -0.7798
   35MOL0     H 4724   2.851  10.854   6.426 -3.4564 -1.0509 -2.2746
   35MOL0     H 4725   2.623  10.801   6.488 -0.4179 -0.3613  2.8401
   36MOL0     O 4726   2.647   8.367   0.206  0.1236 -0.1584  0.6556
   36MOL0     C 4727   2.747   8.382   0.142 -0.3561 -0.4006 -0.5457
   36MOL0     O 4728   2.756   8.456   0.024  0.2809 -0.3813  0.4071
   36MOL0     C 4729   2.648   8.531  -0.020 -0.3408 -0.4907  0.0241
   36MOL0     C 4730   2.605   8.653   0.034 -0.6289 -0.9526 -0.6256
   36MOL0     C 4731   2.498   8.732  -0.024 -0.6163 -0.4133 -0.6152
   36MOL0     C 4732   2.422   8.673  -0.125 -0.0107 -0.8158  0.3990
   36MOL0     O 4733   2.317   8.749  -0.155  0.5515 -0.5249  0.6952
   36MOL0     C 4734   2.238   8.692  -0.257 -0.2878  0.0401 -0.3022
   36MOL0     C 4735   2.169   8.814  -0.319 -1.0253  0.3227 -0.3954
   36MOL0     C 4736   2.070   8.761  -0.425 -0.2644 -0.1189  0.4556
   36MOL0     C 4737   1.986   8.880  -0.465 -1.0642  0.0317  0.3426
   36MOL0     C 4738   1.867   8.838  -0.550  1.0932 -0.7150 -0.4237
   36MOL0     C 4739   1.896   8.743  -0.665 -0.6992 -0.1655  0.0824
   36MOL0     C 4740   1.769   8.734  -0.750  0.0151  0.2603  0.4206
   36MOL0     C 4741   1.784   8.625  -0.857 -0.2492  0.4975  0.3213
   36MOL0     N 4742   1.662   8.590  -0.924  0.0155 -0.1245 -0.2445
   36MOL0     C 4743   1.572   8.677  -0.984 -0.0338  0.3336 -0.4596
   36MOL0     C 4744   1.473   8.600  -1.037  0.2206 -0.0655 -0.5519
   36MOL0     C 4745   1.336   8.646  -1.103  0.9533 -0.2077  0.5181
   36MOL0     C 4746   1.264   8.731  -1.001  0.2450  0.2299 -0.2965
   36MOL0     C 4747   1.184   8.847  -1.056 -0.4138  0.4633  1.0818
   36MOL0     C 4748   1.138   8.955  -0.953 -0.5697  0.3042 -0.2627
   36MOL0     O 4749   1.053   8.892  -0.851  0.3710 -0.0751 -0.3095
   36MOL0     C 4750   0.912   8.897  -0.856  0.1008 -0.0987  0.1651
   36MOL0     C 4751   0.851   8.881  -0.734  0.0989  0.7342  0.6410
   36MOL0     C 4752   0.714   8.899  -0.707  0.2606 -0.5034  0.6252
   36MOL0     C 4753   0.675   8.889  -0.561  0.6808  0.2916 -0.2217
   36MOL0     C 4754   0.628   8.933  -0.814 -0.2340 -0.5564 -0.6322
   36MOL0     C 4755   0.482   8.957  -0.800 -0.4916  0.8588  0.1363
   36MOL0     O 4756   0.412   8.962  -0.915 -0.0484 -1.0270  0.1253
   36MOL0     C 4757   0.279   9.000  -0.917  0.3810 -0.7095 -0.9090
   36MOL0     C 4758   0.253   9.101  -1.007  1.5948 -0.0977 -0.3364
   36MOL0     C 4759   0.119   9.143  -1.025 -0.6187  0.6487 -0.7152
   36MOL0     C 4760   0.017   9.082  -0.948  0.2748 -0.3688  0.3362
   36MOL0     O 4761  -0.109   9.144  -0.955  0.0407 -0.1535 -0.6223
   36MOL0     C 4762  -0.219   9.071  -0.909 -0.4094 -0.7668 -0.0221
   36MOL0     C 4763  -0.242   9.118  -0.762 -0.0643 -0.2325 -0.7653
   36MOL0     C 4764  -0.361   9.035  -0.696  0.3825 -0.2225 -1.0864
   36MOL0     C 4765  -0.399   9.088  -0.559 -0.4434 -1.2533 -0.0204
   36MOL0     C 4766  -0.462   8.983  -0.462 -0.2460 -0.2237 -0.3300
   36MOL0     C 4767  -0.600   8.940  -0.497 -0.2738 -0.7301  0.3998
   36MOL0     C 4768  -0.656   8.838  -0.406 -0.1732  0.1031  0.3922
   36MOL0     C 4769  -0.805   8.804  -0.417 -0.0807 -0.3029  0.3438
   36MOL0    Cl 4770  -0.827   8.724  -0.585 -0.3650 -0.2102 -0.1718
   36MOL0     C 4771   0.048   8.980  -0.856 -0.8251  0.9036 -0.4408
   36MOL0     C 4772   0.181   8.944  -0.836  0.1225  1.2040  0.6135
   36MOL0     O 4773   0.432   8.972  -0.694 -0.2773  0.0895 -0.0868
   36MOL0     C 4774   0.689   8.937  -0.945  0.7544  0.2800 -0.4290
   36MOL0     C 4775   0.826   8.934  -0.962  1.1473  0.7988  0.4198
   36MOL0     N 4776   1.510   8.467  -1.014  0.2836 -0.3818  1.0757
   36MOL0     N 4777   1.620   8.463  -0.934  0.6450  0.1593 -0.0707
   36MOL0     C 4778   2.453   8.542  -0.160 -0.4002 -0.8878 -0.4043
   36MOL0     C 4779   2.565   8.475  -0.112 -0.6793 -0.4115 -0.5433
   36MOL0     C 4780   2.869   8.324   0.194  0.4205  0.4305 -0.6254
   36MOL0     C 4781   2.988   8.321   0.121 -0.7844  0.0733 -0.1766
   36MOL0     C 4782   3.093   8.242   0.171  0.0446 -1.0129  0.7239
   36MOL0     C 4783   3.084   8.184   0.301 -0.9173  0.2913 -0.1200
   36MOL0     O 4784   3.188   8.110   0.357  0.1129 -0.7197 -0.1033
   36MOL0     C 4785   3.322   8.143   0.334  1.4246  0.7748 -0.1337
   36MOL0     C 4786   3.430   8.046   0.400  0.5090  0.6304 -0.7926
   36MOL0     C 4787   3.574   8.097   0.378  0.5474 -0.3665  0.3388
   36MOL0     C 4788   3.660   8.048   0.489 -0.0061 -0.2516 -0.2232
   36MOL0     C 4789   3.801   8.080   0.457  0.1565 -0.0270  0.5799
   36MOL0     C 4790   3.918   8.100   0.429  0.1303 -0.0524  0.9577
   36MOL0     C 4791   2.981   8.209   0.387  1.0550  0.1451 -0.2347
   36MOL0     C 4792   2.868   8.270   0.331  0.0906 -0.2550 -0.2507
   36MOL0     H 4793   2.653   8.690   0.124 -0.6144 -1.6374 -0.3443
   36MOL0     H 4794   2.467   8.823   0.026  2.4011 -0.4591  1.5920
   36MOL0     H 4795   2.295   8.645  -0.337 -1.1754  0.1178 -0.9932
   36MOL0     H 4796   2.179   8.611  -0.211  1.1848 -1.0857 -0.3332
   36MOL0     H 4797   2.111   8.856  -0.236  0.8898 -0.7581  1.6043
   36MOL0     H 4798   2.239   8.880  -0.370 -1.2261  0.3486 -0.6382
   36MOL0     H 4799   2.128   8.723  -0.509  1.2848  0.3170  1.2862
   36MOL0     H 4800   2.022   8.675  -0.377  0.4839 -0.0112  1.4495
   36MOL0     H 4801   1.956   8.927  -0.371 -0.2363 -1.1702  1.2510
   36MOL0     H 4802   2.050   8.943  -0.526  0.0265 -0.6612  0.7343
   36MOL0     H 4803   1.797   8.788  -0.483  1.3942 -0.6915 -0.0917
   36MOL0     H 4804   1.825   8.932  -0.586 -0.4062 -0.6679  1.3325
   36MOL0     H 4805   1.981   8.777  -0.725 -1.6523  0.6458 -0.8527
   36MOL0     H 4806   1.911   8.643  -0.622 -1.7600 -0.2945  0.1840
   36MOL0     H 4807   1.689   8.698  -0.686 -1.3973  0.8505 -0.9282
   36MOL0     H 4808   1.749   8.835  -0.788 -1.0927 -0.0770  0.0808
   36MOL0     H 4809   1.814   8.529  -0.816  0.3831  0.0234 -1.1815
   36MOL0     H 4810   1.857   8.651  -0.934  0.1724 -1.6389 -0.0487
   36MOL0     H 4811   1.557   8.784  -0.977 -4.0885 -0.1859  2.8537
   36MOL0     H 4812   1.371   8.703  -1.190 -0.3093 -1.1845 -0.6645
   36MOL0     H 4813   1.279   8.559  -1.137  2.0989 -0.8981  0.2802
   36MOL0     H 4814   1.320   8.774  -0.918 -1.2231 -0.7020  1.2537
   36MOL0     H 4815   1.190   8.669  -0.949 -1.0798  1.6726 -0.3591
   36MOL0     H 4816   1.097   8.808  -1.108  0.4858  0.8012 -0.7850
   36MOL0     H 4817   1.243   8.895  -1.135 -0.3623  1.4442  1.6962
   36MOL0     H 4818   1.089   9.038  -1.004 -1.9959 -1.7985 -2.5624
   36MOL0     H 4819   1.227   8.998  -0.908  0.1577 -1.5365  0.1502
   36MOL0     H 4820   0.922   8.854  -0.656  2.2149 -0.5349 -1.5881
   36MOL0     H 4821   0.657   8.987  -0.516 -2.4386 -0.0776 -0.4542
   36MOL0     H 4822   0.584   8.829  -0.567  0.8150  0.1651 -1.1659
   36MOL0     H 4823   0.749   8.822  -0.515  1.2394 -1.4241 -3.3011
   36MOL0     H 4824   0.327   9.145  -1.072  1.2842 -0.0981 -0.6903
   36MOL0     H 4825   0.087   9.222  -1.093  0.4485  1.7250  0.0009
   36MOL0     H 4826  -0.303   9.087  -0.977  0.5600 -2.1827 -1.6235
   36MOL0     H 4827  -0.202   8.963  -0.910  0.0984 -0.7350  1.5347
   36MOL0     H 4828  -0.165   9.105  -0.685 -2.9692  0.8763  2.6455
   36MOL0     H 4829  -0.282   9.219  -0.773 -1.1183 -0.4156  0.8811
   36MOL0     H 4830  -0.329   8.930  -0.691  0.6985 -0.1781 -1.9902
   36MOL0     H 4831  -0.444   9.034  -0.766  1.6691  0.1916 -2.6599
   36MOL0     H 4832  -0.311   9.131  -0.510 -0.5500 -1.3183  0.2326
   36MOL0     H 4833  -0.469   9.172  -0.560  0.2964 -0.6304 -0.2898
   36MOL0     H 4834  -0.475   9.040  -0.370 -2.6062 -0.1919 -0.6368
   36MOL0     H 4835  -0.399   8.894  -0.453  2.4096  1.2568 -2.4881
   36MOL0     H 4836  -0.665   9.028  -0.496  0.1694 -0.4004  0.9519
   36MOL0     H 4837  -0.597   8.897  -0.598 -0.0392  1.7386 -0.7329
   36MOL0     H 4838  -0.644   8.875  -0.304  0.0297  1.5011 -0.1173
   36MOL0     H 4839  -0.606   8.742  -0.418 -2.0730 -0.6449 -2.8633
   36MOL0     H 4840  -0.861   8.898  -0.414  0.3445 -0.0521  0.4021
   36MOL0     H 4841  -0.829   8.739  -0.332  4.2719 -0.0623  1.9878
   36MOL0     H 4842  -0.021   8.920  -0.798  1.0210 -2.1974 -1.2218
   36MOL0     H 4843   0.203   8.863  -0.767  2.2584  1.9230  0.8397
   36MOL0     H 4844   0.630   8.944  -1.035 -0.8254 -1.5783  0.3983
   36MOL0     H 4845   0.866   8.960  -1.060  1.2624  0.4148  0.3641
   36MOL0     H 4846   2.391   8.487  -0.230 -1.1708  1.3231 -1.5739
   36MOL0     H 4847   2.575   8.371  -0.141  0.6142 -0.2021 -0.9269
   36MOL0     H 4848   2.990   8.376   0.027  0.4929  0.5107  0.0947
   36MOL0     H 4849   3.174   8.216   0.103  1.2959  0.1283  1.6953
   36MOL0     H 4850   3.349   8.151   0.229  2.2483 -0.1367 -0.0056
   36MOL0     H 4851   3.347   8.240   0.378  4.2271 -0.4575  1.2528
   36MOL0     H 4852   3.412   7.942   0.369 -3.1962  0.7547  0.4260
   36MOL0     H 4853   3.407   8.050   0.507  3.3710  0.1447 -0.0753
   36MOL0     H 4854   3.573   8.207   0.374 -1.8701 -0.2549  1.8339
   36MOL0     H 4855   3.610   8.063   0.281  1.2325 -2.0546  1.1467
   36MOL0     H 4856   3.653   7.938   0.487  4.0122 -0.6542 -0.3905
   36MOL0     H 4857   3.636   8.075   0.592  1.6851 -0.2283  0.1999
   36MOL0     H 4858   4.021   8.105   0.402 -0.1165 -0.5751 -0.1196
   36MOL0     H 4859   2.969   8.174   0.490  1.5780  0.7604  0.0391
   36MOL0     H 4860   2.775   8.265   0.387 -0.9658 -2.6019 -2.0222
   37MOL0     O 4861   5.390   9.294   9.159 -0.1062 -0.1210  0.2929
   37MOL0     C 4862   5.429   9.188   9.115  0.0617  0.1268 -0.2705
   37MOL0     O 4863   5.373   9.114   9.017  0.4270  0.5024 -0.9170
   37MOL0     C 4864   5.262   9.165   8.957 -0.9953  0.0497  0.4760
   37MOL0     C 4865   5.258   9.277   8.875  0.9030  1.1243  0.1456
   37MOL0     C 4866   5.141   9.326   8.823 -0.9514 -0.1475 -0.1843
   37MOL0     C 4867   5.021   9.255   8.834  0.8740 -0.0547  0.4073
   37MOL0     O 4868   4.909   9.302   8.759  0.4710  0.1255 -0.1749
   37MOL0     C 4869   4.776   9.308   8.814 -0.0722 -0.1219 -1.0474
   37MOL0     C 4870   4.664   9.286   8.712  0.6256 -0.5206  0.2024
   37MOL0     C 4871   4.530   9.360   8.753  0.1331 -0.5409 -0.9295
   37MOL0     C 4872   4.460   9.303   8.874  0.9168 -0.4715 -1.2159
   37MOL0     C 4873   4.341   9.372   8.932  0.8487  0.3024 -0.1836
   37MOL0     C 4874   4.212   9.338   8.855  0.5752 -0.1891 -0.5015
   37MOL0     C 4875   4.091   9.369   8.939  0.2001  0.0493 -0.0269
   37MOL0     C 4876   3.957   9.381   8.876  0.2628 -0.2204 -0.2860
   37MOL0     N 4877   3.849   9.390   8.972  0.8014 -0.2582  0.1612
   37MOL0     C 4878   3.815   9.292   9.059 -0.2623 -0.2680  1.2443
   37MOL0     C 4879   3.688   9.322   9.098  0.7379 -0.3826 -0.8978
   37MOL0     C 4880   3.589   9.243   9.187 -0.3079  0.3025  0.3791
   37MOL0     C 4881   3.497   9.153   9.105  0.2872 -0.2845  0.0218
   37MOL0     C 4882   3.422   9.051   9.202  0.1062 -0.1492 -0.6312
   37MOL0     C 4883   3.304   9.125   9.271 -0.5280  0.7814 -0.4521
   37MOL0     O 4884   3.204   9.162   9.170  0.5578  0.3406 -0.6263
   37MOL0     C 4885   3.089   9.085   9.166 -0.9034 -0.7070 -0.0910
   37MOL0     C 4886   2.985   9.137   9.091  0.4250 -0.4508  0.0381
   37MOL0     C 4887   2.863   9.066   9.078 -0.5247  0.6737 -0.5731
   37MOL0     C 4888   2.753   9.136   8.993 -1.0106 -0.1673  0.2013
   37MOL0     C 4889   2.849   8.933   9.131 -0.0024  0.1292  0.1876
   37MOL0     C 4890   2.730   8.852   9.109 -0.6257 -0.0715 -0.0846
   37MOL0     O 4891   2.611   8.912   9.101 -0.4212 -0.1514  0.4646
   37MOL0     C 4892   2.503   8.830   9.089  0.2852 -0.5619  0.9156
   37MOL0     C 4893   2.449   8.777   9.203 -0.4720 -0.0760  0.5731
   37MOL0     C 4894   2.333   8.692   9.195 -0.7453  0.4096 -0.0974
   37MOL0     C 4895   2.285   8.647   9.070 -0.0272  0.0885 -0.5370
   37MOL0     O 4896   2.197   8.539   9.057 -0.3973 -0.0074  0.1038
   37MOL0     C 4897   2.080   8.511   9.136 -0.2290  0.1609 -0.2027
   37MOL0     C 4898   1.956   8.581   9.078 -0.3666 -0.3360 -0.2189
   37MOL0     C 4899   1.962   8.727   9.080 -0.4835  0.0248  0.7688
   37MOL0     C 4900   1.961   8.793   9.212  0.2376 -0.8293 -0.8435
   37MOL0     C 4901   1.990   8.948   9.202  0.2756 -0.5406 -0.4664
   37MOL0     C 4902   1.933   9.026   9.321 -0.7546  0.7440  0.2275
   37MOL0     C 4903   2.016   9.001   9.445 -0.7043 -0.1553 -0.0323
   37MOL0     C 4904   1.963   8.884   9.522 -0.0711  0.4439 -0.2998
   37MOL0    Cl 4905   2.011   8.902   9.691 -0.0543 -0.2943 -0.4919
   37MOL0     C 4906   2.349   8.696   8.955  0.6838 -0.3301  0.0256
   37MOL0     C 4907   2.459   8.785   8.962  0.1612 -0.0852  0.0168
   37MOL0     O 4908   2.744   8.729   9.098  1.0192  0.2360 -0.0834
   37MOL0     C 4909   2.960   8.887   9.203 -0.0345 -0.5045  0.0842
   37MOL0     C 4910   3.075   8.957   9.219  0.2868 -0.0918 -0.5956
   37MOL0     N 4911   3.654   9.451   9.049 -0.0679  0.6207 -0.3948
   37MOL0     N 4912   3.755   9.486   8.981  0.2666 -0.6094  0.1733
   37MOL0     C 4913   5.018   9.144   8.922 -0.2829 -1.3046 -0.7918
   37MOL0     C 4914   5.137   9.099   8.977  0.5668 -0.4529 -0.6013
   37MOL0     C 4915   5.557   9.137   9.173  0.7017 -0.6178 -0.1047
   37MOL0     C 4916   5.630   9.040   9.105  0.3441  1.0429 -0.6478
   37MOL0     C 4917   5.761   8.996   9.151 -0.2292 -0.1112 -0.5929
   37MOL0     C 4918   5.824   9.056   9.263 -0.1711  0.3582  0.3814
   37MOL0     O 4919   5.951   9.016   9.315  0.5050  0.3338 -0.2105
   37MOL0     C 4920   6.010   8.893   9.269 -0.4289  0.5834 -0.6234
   37MOL0     C 4921   5.944   8.769   9.327 -0.1246 -0.3918  0.1522
   37MOL0     C 4922   6.035   8.647   9.341 -0.0022  0.7330  0.1970
   37MOL0     C 4923   6.117   8.621   9.206  0.4404  0.2896 -0.3043
   37MOL0     C 4924   6.034   8.597   9.089  0.5418  0.0428  0.2249
   37MOL0     C 4925   5.960   8.579   8.994  0.1197 -0.5402  0.6051
   37MOL0     C 4926   5.754   9.163   9.321  0.0595  0.5816 -0.5548
   37MOL0     C 4927   5.624   9.199   9.283  0.1510  0.7048 -0.3330
   37MOL0     H 4928   5.351   9.332   8.858  0.4334  1.7175 -0.5911
   37MOL0     H 4929   5.150   9.413   8.758 -1.0004  0.4484  0.5848
   37MOL0     H 4930   4.766   9.239   8.899 -0.9200  1.6656  0.3759
   37MOL0     H 4931   4.770   9.410   8.853 -5.4589  0.7926 -3.4344
   37MOL0     H 4932   4.700   9.316   8.613  3.6271 -0.9439  1.0729
   37MOL0     H 4933   4.652   9.179   8.696 -1.2460 -0.4518  0.9466
   37MOL0     H 4934   4.554   9.465   8.771 -3.4678  0.4709 -1.3706
   37MOL0     H 4935   4.451   9.360   8.677  0.5019  1.4906 -1.3759
   37MOL0     H 4936   4.435   9.203   8.839  4.0731 -1.6981 -0.2917
   37MOL0     H 4937   4.531   9.290   8.956  0.3462  1.8497 -0.2607
   37MOL0     H 4938   4.333   9.348   9.038  1.5075  1.1305  0.0700
   37MOL0     H 4939   4.350   9.481   8.934  0.4940  0.3211  0.7146
   37MOL0     H 4940   4.205   9.412   8.775  0.3945 -0.1089 -0.4108
   37MOL0     H 4941   4.210   9.241   8.804 -0.1444  0.2634 -1.3839
   37MOL0     H 4942   4.088   9.295   9.020 -0.4158 -1.1670 -1.1247
   37MOL0     H 4943   4.103   9.468   8.984 -4.9006  0.8363  0.2469
   37MOL0     H 4944   3.940   9.305   8.799 -1.1230  1.5992 -1.8939
   37MOL0     H 4945   3.954   9.472   8.815 -2.7580 -0.3301 -0.4589
   37MOL0     H 4946   3.868   9.202   9.089 -3.9738 -2.2254  2.5886
   37MOL0     H 4947   3.657   9.186   9.250  1.6113  1.1703 -0.8134
   37MOL0     H 4948   3.531   9.312   9.249 -1.3826  1.4139 -1.7383
   37MOL0     H 4949   3.563   9.101   9.036  1.1554  1.5525 -0.5712
   37MOL0     H 4950   3.417   9.213   9.062 -0.6359  1.9363  4.3207
   37MOL0     H 4951   3.498   9.007   9.268  1.2726  1.7366 -0.6442
   37MOL0     H 4952   3.378   8.972   9.141  3.3592 -0.5669 -2.7076
   37MOL0     H 4953   3.331   9.225   9.305 -2.7175  0.9510  0.9704
   37MOL0     H 4954   3.260   9.073   9.356  2.3291  2.1346  2.0829
   37MOL0     H 4955   3.007   9.236   9.051  2.1905 -0.8707 -0.1208
   37MOL0     H 4956   2.803   9.207   8.925 -1.4201 -1.4895 -1.5504
   37MOL0     H 4957   2.693   9.066   8.935 -1.3474  0.5557 -0.3514
   37MOL0     H 4958   2.696   9.191   9.068 -0.0091 -1.4922  2.0274
   37MOL0     H 4959   2.488   8.795   9.303  1.4628 -1.9305  0.2140
   37MOL0     H 4960   2.280   8.661   9.284  3.3797 -0.8594  2.1542
   37MOL0     H 4961   2.070   8.402   9.136 -0.9378  0.1915  1.6104
   37MOL0     H 4962   2.098   8.530   9.243  1.4608  2.8069 -0.8622
   37MOL0     H 4963   1.920   8.539   8.984 -3.1292  0.7717  0.2387
   37MOL0     H 4964   1.869   8.552   9.139 -1.4581  1.1827 -1.0095
   37MOL0     H 4965   1.898   8.775   9.005  1.5171 -0.0900 -1.1273
   37MOL0     H 4966   2.062   8.756   9.045  0.4763 -1.2660  2.3096
   37MOL0     H 4967   1.861   8.791   9.256  0.4970 -1.2309 -0.2711
   37MOL0     H 4968   2.024   8.741   9.283 -0.4619 -3.1189 -1.8087
   37MOL0     H 4969   1.954   8.997   9.111  1.1035  1.0607  0.0383
   37MOL0     H 4970   2.097   8.963   9.188  0.1834  1.5077  0.6451
   37MOL0     H 4971   1.941   9.133   9.298  2.1709  0.8214  1.1604
   37MOL0     H 4972   1.830   8.993   9.337 -0.6723  0.4164  0.0805
   37MOL0     H 4973   2.011   9.086   9.514  1.6158  0.0003  0.0184
   37MOL0     H 4974   2.121   8.991   9.417 -1.1372 -1.2689 -1.3572
   37MOL0     H 4975   2.017   8.799   9.480 -0.3997 -0.5275  1.1581
   37MOL0     H 4976   1.855   8.865   9.516 -0.0665 -0.5442  1.8691
   37MOL0     H 4977   2.308   8.647   8.867 -1.7656 -3.4990  2.6480
   37MOL0     H 4978   2.505   8.822   8.871  2.1762  1.1387  1.4464
   37MOL0     H 4979   2.960   8.788   9.249 -0.9453 -0.2858  0.5786
   37MOL0     H 4980   3.148   8.900   9.277 -0.6190 -1.8340 -1.0782
   37MOL0     H 4981   4.929   9.088   8.950 -2.1443  1.7911 -0.0678
   37MOL0     H 4982   5.129   9.021   9.052 -2.2303  2.8023  2.9105
   37MOL0     H 4983   5.576   8.989   9.027  1.1405 -0.5757 -0.1863
   37MOL0     H 4984   5.808   8.920   9.089 -1.5788 -1.5721  0.1173
   37MOL0     H 4985   6.012   8.884   9.160 -1.9829  0.2028 -0.6420
   37MOL0     H 4986   6.114   8.900   9.303  0.1513 -2.3684 -1.4554
   37MOL0     H 4987   5.856   8.747   9.267 -0.1135  2.7415 -1.2343
   37MOL0     H 4988   5.912   8.793   9.429  1.0873  0.1936  0.4206
   37MOL0     H 4989   5.980   8.555   9.365  2.3692 -0.8195 -0.0106
   37MOL0     H 4990   6.111   8.661   9.418 -2.1227  1.0809  2.3486
   37MOL0     H 4991   6.183   8.536   9.225 -1.0356 -1.0642 -0.9818
   37MOL0     H 4992   6.182   8.707   9.187 -1.9512  2.3127  0.0183
   37MOL0     H 4993   5.901   8.561   8.907 -2.5298  0.6249  2.0285
   37MOL0     H 4994   5.805   9.210   9.405 -1.1305 -0.1588  0.6269
   37MOL0     H 4995   5.570   9.275   9.338  1.2760  0.7531  0.7781
   38MOL0     O 4996   4.058   7.458   0.300  0.1523  0.8135 -0.3177
   38MOL0     C 4997   4.116   7.530   0.222  0.6519  0.2491  0.1524
   38MOL0     O 4998   4.072   7.574   0.108 -0.0408 -0.1336  0.2384
   38MOL0     C 4999   3.957   7.538   0.049 -0.6139 -0.1574  0.3071
   38MOL0     C 5000   3.946   7.518  -0.088 -0.2204  0.1830  0.6795
   38MOL0     C 5001   3.824   7.476  -0.148 -0.0566 -0.9281  0.1461
   38MOL0     C 5002   3.707   7.476  -0.068 -0.7265  0.1267  0.8584
   38MOL0     O 5003   3.596   7.410  -0.111 -0.3042 -0.2528  0.3938
   38MOL0     C 5004   3.572   7.386  -0.246 -0.5458 -0.3590  0.4456
   38MOL0     C 5005   3.422   7.366  -0.274 -0.5596  0.3719  0.9291
   38MOL0     C 5006   3.337   7.483  -0.228 -0.7514  0.0877  0.8134
   38MOL0     C 5007   3.210   7.489  -0.312  0.6252  0.1127 -0.0848
   38MOL0     C 5008   3.103   7.568  -0.242 -0.2112 -0.1602 -0.4845
   38MOL0     C 5009   2.998   7.622  -0.345  0.6088  0.5645  0.5524
   38MOL0     C 5010   2.914   7.508  -0.409 -0.6334 -0.0629 -0.9481
   38MOL0     C 5011   2.798   7.470  -0.310 -0.2603 -1.3423  0.4435
   38MOL0     N 5012   2.683   7.562  -0.325  0.1279  0.3047  0.2285
   38MOL0     C 5013   2.565   7.531  -0.399  0.6983  0.5157  0.2088
   38MOL0     C 5014   2.486   7.639  -0.380 -0.7990 -0.8060  0.6223
   38MOL0     C 5015   2.344   7.650  -0.430 -0.0725 -0.1547  0.7917
   38MOL0     C 5016   2.251   7.713  -0.330  0.0993 -0.3337 -0.3244
   38MOL0     C 5017   2.104   7.679  -0.347  0.0536 -0.8615  0.2897
   38MOL0     C 5018   2.010   7.775  -0.265 -0.5641  0.2099  0.3961
   38MOL0     O 5019   1.880   7.719  -0.274 -0.2279 -0.0478  0.7601
   38MOL0     C 5020   1.765   7.801  -0.254  0.0800  0.7922 -0.2386
   38MOL0     C 5021   1.767   7.933  -0.203  0.0632  0.2342 -0.0670
   38MOL0     C 5022   1.647   8.006  -0.186 -0.8311  0.2821  0.2068
   38MOL0     C 5023   1.649   8.151  -0.141  0.5912 -0.3182  0.2397
   38MOL0     C 5024   1.531   7.954  -0.232 -0.1916 -0.1651  0.0815
   38MOL0     C 5025   1.408   8.036  -0.228  0.1246  0.5926 -0.1041
   38MOL0     O 5026   1.399   8.150  -0.304 -0.2758  0.3309 -0.3979
   38MOL0     C 5027   1.286   8.230  -0.309  0.1201  0.1329  1.0692
   38MOL0     C 5028   1.297   8.367  -0.289  0.1344  0.1495  0.6171
   38MOL0     C 5029   1.186   8.456  -0.281 -0.3081 -0.0740 -0.6355
   38MOL0     C 5030   1.058   8.403  -0.304 -0.8129 -1.2279  0.0791
   38MOL0     O 5031   0.960   8.496  -0.317  0.4599  0.0207  0.1033
   38MOL0     C 5032   0.910   8.561  -0.198  1.3057 -0.6824  0.2334
   38MOL0     C 5033   0.846   8.694  -0.224  0.0650  0.2747 -0.5676
   38MOL0     C 5034   0.795   8.758  -0.091  0.5818  0.0435  0.1927
   38MOL0     C 5035   0.633   8.743  -0.081 -0.3124 -0.4928 -0.0630
   38MOL0     C 5036   0.561   8.777   0.053 -0.5144 -0.1357 -0.1937
   38MOL0     C 5037   0.407   8.785   0.042 -0.2229 -0.7525 -0.1252
   38MOL0     C 5038   0.352   8.648  -0.006 -0.1766 -0.2497 -0.3633
   38MOL0     C 5039   0.224   8.602   0.067 -0.6964 -0.6118  0.3339
   38MOL0    Cl 5040   0.280   8.557   0.237  0.4547 -0.4284 -0.0344
   38MOL0     C 5041   1.047   8.268  -0.323 -0.1325  0.3095 -0.4094
   38MOL0     C 5042   1.154   8.184  -0.333  0.4624 -0.7258 -0.3784
   38MOL0     O 5043   1.320   7.992  -0.154  0.6846  0.5016 -0.4812
   38MOL0     C 5044   1.531   7.831  -0.290 -0.1113  0.5199  0.7775
   38MOL0     C 5045   1.644   7.749  -0.298  0.6826 -0.2868 -0.0599
   38MOL0     N 5046   2.549   7.722  -0.292 -0.2543 -0.3574  0.9501
   38MOL0     N 5047   2.664   7.680  -0.267  0.1612 -0.1422 -0.0667
   38MOL0     C 5048   3.716   7.514   0.066  0.3052 -0.9005  0.1450
   38MOL0     C 5049   3.839   7.531   0.126  0.5125 -0.4034 -0.6829
   38MOL0     C 5050   4.247   7.577   0.264 -0.3492 -0.1006 -0.7971
   38MOL0     C 5051   4.317   7.522   0.368  0.2112  0.3717 -0.2978
   38MOL0     C 5052   4.444   7.557   0.409 -0.7937 -0.2906  0.1571
   38MOL0     C 5053   4.508   7.660   0.341  0.2698 -0.9128  0.1919
   38MOL0     O 5054   4.620   7.734   0.380 -0.0903 -0.0887 -0.9860
   38MOL0     C 5055   4.715   7.669   0.469 -0.4864  0.3445  0.1602
   38MOL0     C 5056   4.827   7.763   0.503 -0.4183 -0.4274  0.0967
   38MOL0     C 5057   4.767   7.873   0.596  0.3931  0.6599 -0.5661
   38MOL0     C 5058   4.784   7.835   0.745 -0.8406  0.3014 -0.2690
   38MOL0     C 5059   4.927   7.881   0.784 -0.0543  0.1745  0.2711
   38MOL0     C 5060   5.036   7.927   0.815 -0.6541 -0.0716 -0.6539
   38MOL0     C 5061   4.447   7.709   0.219 -0.3399  0.4261 -0.1727
   38MOL0     C 5062   4.320   7.661   0.188  0.1188  0.2377  0.7008
   38MOL0     H 5063   4.030   7.537  -0.154 -0.9719 -0.2580 -0.4448
   38MOL0     H 5064   3.824   7.460  -0.255  0.2721 -2.1966  0.3091
   38MOL0     H 5065   3.603   7.465  -0.315  0.7143 -1.2233 -0.0197
   38MOL0     H 5066   3.630   7.298  -0.275 -2.9074 -1.5111 -1.0213
   38MOL0     H 5067   3.420   7.356  -0.382  1.9585 -2.2541  1.0073
   38MOL0     H 5068   3.390   7.268  -0.237  1.9264 -0.4430  1.1236
   38MOL0     H 5069   3.317   7.464  -0.122 -0.5156 -1.0760  0.6646
   38MOL0     H 5070   3.386   7.579  -0.245 -1.7138  0.2182 -1.6966
   38MOL0     H 5071   3.226   7.539  -0.408 -0.5442 -2.8396 -1.9588
   38MOL0     H 5072   3.170   7.392  -0.343 -1.5147  1.4750 -1.9534
   38MOL0     H 5073   3.061   7.500  -0.168 -1.9736  1.1258 -0.2466
   38MOL0     H 5074   3.152   7.656  -0.199  1.2845  0.0875 -2.5236
   38MOL0     H 5075   2.930   7.687  -0.288  1.3600  1.3382  0.5793
   38MOL0     H 5076   3.034   7.680  -0.430 -2.7861 -0.4563 -1.7928
   38MOL0     H 5077   2.888   7.531  -0.513 -0.8618 -0.0900 -0.8978
   38MOL0     H 5078   2.974   7.420  -0.431  1.0261  0.5659  0.8185
   38MOL0     H 5079   2.827   7.477  -0.205 -1.5195 -2.7920  0.9305
   38MOL0     H 5080   2.769   7.367  -0.332 -1.7875 -0.5494 -1.6188
   38MOL0     H 5081   2.542   7.443  -0.457 -1.4576 -1.4222  3.6504
   38MOL0     H 5082   2.346   7.721  -0.513 -0.7242 -1.3086 -0.2315
   38MOL0     H 5083   2.313   7.547  -0.445  2.8308 -1.1433  0.9250
   38MOL0     H 5084   2.254   7.821  -0.344 -2.1271 -0.0518  0.8451
   38MOL0     H 5085   2.282   7.681  -0.230  1.2993  0.8172 -0.3148
   38MOL0     H 5086   2.103   7.572  -0.324  1.5121 -0.5236  2.0801
   38MOL0     H 5087   2.079   7.688  -0.454  0.9304  2.6707  0.2505
   38MOL0     H 5088   2.019   7.876  -0.306  0.9159  0.7967  2.0030
   38MOL0     H 5089   2.042   7.780  -0.160  0.8885 -0.7211  0.0302
   38MOL0     H 5090   1.864   7.974  -0.175 -1.1471  1.3329  2.8033
   38MOL0     H 5091   1.750   8.187  -0.120  0.8524  1.0494 -2.8309
   38MOL0     H 5092   1.623   8.216  -0.225  2.0293 -0.5502 -0.4060
   38MOL0     H 5093   1.579   8.165  -0.058  0.1837 -2.2516  0.2557
   38MOL0     H 5094   1.399   8.400  -0.271  0.3531 -1.0328  1.7125
   38MOL0     H 5095   1.205   8.561  -0.262 -0.2515 -0.1444 -0.2863
   38MOL0     H 5096   0.831   8.499  -0.156  1.7287 -1.2352  0.2237
   38MOL0     H 5097   0.984   8.575  -0.119 -1.3672 -1.0188  2.9975
   38MOL0     H 5098   0.913   8.763  -0.276  0.7494 -0.2202 -0.3662
   38MOL0     H 5099   0.758   8.673  -0.286 -1.2824 -1.9822  1.8867
   38MOL0     H 5100   0.833   8.860  -0.077  0.1485  0.2977 -0.4209
   38MOL0     H 5101   0.843   8.704  -0.008  4.4550 -1.6560 -2.8292
   38MOL0     H 5102   0.585   8.816  -0.147 -2.3729 -0.2395  1.5928
   38MOL0     H 5103   0.605   8.640  -0.106  0.8639 -0.8162 -0.1011
   38MOL0     H 5104   0.591   8.878   0.082  2.2222 -1.2767  1.2345
   38MOL0     H 5105   0.586   8.719   0.142 -1.0901 -0.0991  0.0030
   38MOL0     H 5106   0.370   8.818   0.140  0.7037  1.1623 -0.3650
   38MOL0     H 5107   0.372   8.868  -0.020 -2.4410 -1.2568  0.3449
   38MOL0     H 5108   0.430   8.574   0.013 -2.2147 -1.7411  3.1880
   38MOL0     H 5109   0.341   8.652  -0.115 -1.1452  2.7328 -0.2388
   38MOL0     H 5110   0.183   8.515   0.015  0.0435 -0.1677 -1.0552
   38MOL0     H 5111   0.155   8.686   0.060  2.7620  2.4903  0.4236
   38MOL0     H 5112   0.945   8.235  -0.336 -0.2196  0.6114 -0.4997
   38MOL0     H 5113   1.123   8.083  -0.359 -0.0019 -0.5574 -0.4981
   38MOL0     H 5114   1.435   7.789  -0.319  0.3705  0.0664 -0.1928
   38MOL0     H 5115   1.635   7.652  -0.347  0.6863  1.7230 -4.5564
   38MOL0     H 5116   3.623   7.520   0.121  0.2134 -0.1483 -0.0913
   38MOL0     H 5117   3.825   7.549   0.232  3.1826  1.7694 -0.6137
   38MOL0     H 5118   4.273   7.442   0.426  1.4014 -0.6752 -0.8048
   38MOL0     H 5119   4.486   7.520   0.502 -0.3848 -3.0943 -1.0392
   38MOL0     H 5120   4.667   7.650   0.566 -2.6270 -0.3535 -0.9596
   38MOL0     H 5121   4.749   7.574   0.428 -1.3115  0.1255 -0.0277
   38MOL0     H 5122   4.859   7.801   0.406 -0.8303 -1.5177 -0.4714
   38MOL0     H 5123   4.917   7.708   0.534 -0.0223 -1.1346 -2.1492
   38MOL0     H 5124   4.659   7.887   0.599  0.3166  1.0445  4.5133
   38MOL0     H 5125   4.819   7.968   0.581  0.6841  0.2653 -2.2740
   38MOL0     H 5126   4.776   7.728   0.767  0.6117  0.4171  1.0709
   38MOL0     H 5127   4.714   7.877   0.818  0.9258 -1.4894  2.6816
   38MOL0     H 5128   5.138   7.954   0.836 -0.4547 -1.0676 -0.2961
   38MOL0     H 5129   4.479   7.800   0.168 -1.9884  0.4222 -1.2789
   38MOL0     H 5130   4.273   7.723   0.113  1.1894  0.9159  0.5583
   39MOL0     O 5131   6.858   1.129   8.612  0.1110  0.1339 -0.1329
   39MOL0     C 5132   6.926   1.042   8.664 -0.2706  0.7873 -0.5368
   39MOL0     O 5133   6.883   0.914   8.692  1.0267  0.2824  0.8937
   39MOL0     C 5134   6.765   0.882   8.627 -0.7502 -1.0135  0.0453
   39MOL0     C 5135   6.645   0.885   8.697 -0.3825 -0.4037  0.0823
   39MOL0     C 5136   6.519   0.849   8.640  0.3698  1.0647  0.1388
   39MOL0     C 5137   6.519   0.808   8.510  0.3857 -0.3717 -0.2628
   39MOL0     O 5138   6.393   0.770   8.459 -0.4393  0.2894  0.0956
   39MOL0     C 5139   6.393   0.657   8.369  0.8006  0.0513  0.5698
   39MOL0     C 5140   6.251   0.603   8.339  0.3602 -0.0179  0.1970
   39MOL0     C 5141   6.176   0.556   8.455 -0.5413 -0.8512  0.2594
   39MOL0     C 5142   6.035   0.533   8.405  0.0010 -0.6500  0.2683
   39MOL0     C 5143   5.947   0.497   8.523 -0.5280  0.0739  0.0604
   39MOL0     C 5144   5.806   0.450   8.482 -0.2091 -0.0602  0.2979
   39MOL0     C 5145   5.719   0.421   8.599 -0.5958 -0.2870  0.5086
   39MOL0     C 5146   5.583   0.405   8.540  0.1925  0.2725  0.6089
   39MOL0     N 5147   5.497   0.333   8.631 -0.9591  0.1066 -0.1620
   39MOL0     C 5148   5.471   0.361   8.766  0.3838  0.1821  0.1576
   39MOL0     C 5149   5.383   0.264   8.795  0.4301  1.1238  0.4887
   39MOL0     C 5150   5.334   0.246   8.938 -0.4792  0.2494  0.3246
   39MOL0     C 5151   5.182   0.230   8.931 -0.6453  0.2159 -0.3684
   39MOL0     C 5152   5.131   0.240   9.073 -0.1228  0.3513  0.3291
   39MOL0     C 5153   4.984   0.199   9.092 -0.3010  0.3504  0.7205
   39MOL0     O 5154   4.897   0.307   9.054 -0.8624 -0.0500  0.1056
   39MOL0     C 5155   4.769   0.293   9.109 -0.4949 -0.9075 -0.2706
   39MOL0     C 5156   4.714   0.414   9.157  0.0226  0.0366 -0.0800
   39MOL0     C 5157   4.589   0.405   9.220  0.0605  1.0251  0.1982
   39MOL0     C 5158   4.520   0.537   9.245 -0.3666 -0.0570  0.0364
   39MOL0     C 5159   4.521   0.285   9.232 -0.3311 -0.7119  0.2053
   39MOL0     C 5160   4.386   0.276   9.291 -0.7171  0.3102  0.3833
   39MOL0     O 5161   4.322   0.155   9.273 -0.6410  0.5911 -0.0251
   39MOL0     C 5162   4.211   0.131   9.354  0.4365 -0.2088 -0.6645
   39MOL0     C 5163   4.218   0.054   9.464  0.5240  0.5285  0.8087
   39MOL0     C 5164   4.100   0.024   9.533 -0.1645 -0.2384  0.4954
   39MOL0     C 5165   3.979   0.067   9.493  0.5223 -0.0759  0.3032
   39MOL0     O 5166   3.880   0.028   9.576 -0.4552  0.0811 -0.0263
   39MOL0     C 5167   3.738   0.039   9.534 -0.8216  0.0494  1.0188
   39MOL0     C 5168   3.672   0.125   9.643  0.0937 -0.0889  1.0484
   39MOL0     C 5169   3.657   0.047   9.769  0.5157  0.0846  0.0443
   39MOL0     C 5170   3.590   0.144   9.875 -0.2323 -0.3748  0.5512
   39MOL0     C 5171   3.518   0.046   9.976  0.5516  0.1937 -0.0796
   39MOL0     C 5172   3.484   0.113  10.103 -0.4121 -0.1822 -0.0577
   39MOL0     C 5173   3.423   0.026  10.218  0.2919 -0.1385 -0.1542
   39MOL0     C 5174   3.374   0.115  10.330 -0.4934  0.4640  0.6280
   39MOL0    Cl 5175   3.498   0.232  10.388 -0.0266 -0.0191 -0.2809
   39MOL0     C 5176   3.960   0.150   9.384  0.3146 -0.5212  1.5561
   39MOL0     C 5177   4.082   0.184   9.317  0.1537 -0.9098  0.1336
   39MOL0     O 5178   4.333   0.367   9.348  0.0271  0.3220  0.0943
   39MOL0     C 5179   4.583   0.167   9.179  1.1349 -0.7046 -0.5117
   39MOL0     C 5180   4.704   0.172   9.119  0.0880  0.0651 -0.3221
   39MOL0     N 5181   5.373   0.178   8.689  0.5868 -0.2466 -0.4471
   39MOL0     N 5182   5.441   0.217   8.594  0.9117  0.3208  0.3938
   39MOL0     C 5183   6.637   0.807   8.436 -0.8775 -0.3346 -0.2261
   39MOL0     C 5184   6.762   0.840   8.493  0.6910 -0.2930  0.1663
   39MOL0     C 5185   7.068   1.071   8.665  0.9047 -0.2815  0.1263
   39MOL0     C 5186   7.126   1.203   8.655 -0.3198 -0.5794  0.2184
   39MOL0     C 5187   7.269   1.217   8.642 -0.5014  0.3592  0.6774
   39MOL0     C 5188   7.353   1.102   8.654 -0.0101  0.0004 -0.3545
   39MOL0     O 5189   7.490   1.093   8.641 -0.3824  0.2439 -0.8959
   39MOL0     C 5190   7.560   1.221   8.607  0.6147 -0.6601  0.2819
   39MOL0     C 5191   7.710   1.202   8.582  0.7173  0.6361  0.3290
   39MOL0     C 5192   7.751   1.104   8.472  0.0330 -0.2829  0.0786
   39MOL0     C 5193   7.905   1.115   8.448 -0.1025 -0.0497 -0.6719
   39MOL0     C 5194   7.981   1.077   8.567  0.0780 -0.7382 -0.1860
   39MOL0     C 5195   8.032   1.058   8.677  0.4537 -0.1830  0.0259
   39MOL0     C 5196   7.292   0.982   8.679 -0.1786  0.0924 -0.2399
   39MOL0     C 5197   7.154   0.966   8.682 -0.0370  0.3951 -0.5917
   39MOL0     H 5198   6.642   0.918   8.800 -1.2255 -3.2013  1.0303
   39MOL0     H 5199   6.420   0.855   8.684 -0.0654  2.4946 -0.9394
   39MOL0     H 5200   6.428   0.693   8.272  1.2903 -0.8917  0.3865
   39MOL0     H 5201   6.462   0.582   8.409  1.2178  0.5701  0.8446
   39MOL0     H 5202   6.198   0.681   8.283  2.0056 -0.7090 -2.5514
   39MOL0     H 5203   6.265   0.513   8.277  0.8286  1.0838 -1.3598
   39MOL0     H 5204   6.215   0.462   8.493 -0.3860 -0.1116  2.0391
   39MOL0     H 5205   6.185   0.638   8.527  0.3063 -1.8167  1.2994
   39MOL0     H 5206   5.998   0.627   8.364  3.1728  0.0594 -1.2541
   39MOL0     H 5207   6.038   0.466   8.318  1.3435  0.0818 -0.2748
   39MOL0     H 5208   5.990   0.425   8.593  1.1498  1.9564  1.0424
   39MOL0     H 5209   5.937   0.586   8.585 -2.7325 -0.6474  0.8392
   39MOL0     H 5210   5.764   0.526   8.415  3.1600  3.0455  1.3353
   39MOL0     H 5211   5.816   0.358   8.425  2.2515 -0.5539  1.4088
   39MOL0     H 5212   5.754   0.331   8.649 -0.8090  0.6718  2.4579
   39MOL0     H 5213   5.724   0.497   8.677 -2.4295  1.9176 -1.3534
   39MOL0     H 5214   5.577   0.353   8.444  1.6019 -0.1002  0.6980
   39MOL0     H 5215   5.548   0.506   8.517  0.2641  0.1492 -0.0626
   39MOL0     H 5216   5.501   0.446   8.827  2.5029 -1.2271  1.1970
   39MOL0     H 5217   5.373   0.159   8.992  0.5741  0.6428  0.2207
   39MOL0     H 5218   5.359   0.337   8.994 -4.3790  2.2105 -0.7225
   39MOL0     H 5219   5.154   0.133   8.889  0.4221 -0.4757  0.4561
   39MOL0     H 5220   5.141   0.317   8.879 -0.3586  1.5575  1.5412
   39MOL0     H 5221   5.145   0.343   9.107  0.2517  0.4781 -0.2012
   39MOL0     H 5222   5.197   0.187   9.142  0.5955  3.8771  2.6290
   39MOL0     H 5223   4.974   0.164   9.195  1.5951  1.2173  1.2313
   39MOL0     H 5224   4.957   0.128   9.013 -1.8691  2.5994 -0.8993
   39MOL0     H 5225   4.773   0.505   9.148  1.0520 -0.1715  3.1658
   39MOL0     H 5226   4.424   0.537   9.192 -0.9326  1.9988  0.9804
   39MOL0     H 5227   4.506   0.558   9.352  1.7228 -0.1259  0.3529
   39MOL0     H 5228   4.583   0.619   9.211  0.9470 -1.6289 -1.4659
   39MOL0     H 5229   4.313   0.011   9.495  0.7838 -0.4285 -1.1560
   39MOL0     H 5230   4.110  -0.029   9.627 -1.6958 -1.2665  0.1165
   39MOL0     H 5231   3.727   0.086   9.436 -1.4610 -0.4052  0.8674
   39MOL0     H 5232   3.695  -0.062   9.526  0.7042 -0.6630  1.4109
   39MOL0     H 5233   3.729   0.215   9.666 -0.7476  1.0053 -0.8968
   39MOL0     H 5234   3.569   0.149   9.617  1.4218  2.6567 -2.6774
   39MOL0     H 5235   3.753   0.013   9.807  0.3219 -1.9513 -1.1897
   39MOL0     H 5236   3.595  -0.040   9.747  0.3179  0.0289  0.7845
   39MOL0     H 5237   3.659   0.217   9.920 -0.4267  0.8686 -1.0706
   39MOL0     H 5238   3.515   0.200   9.818 -0.2195 -2.5578 -1.7857
   39MOL0     H 5239   3.592  -0.029  10.003 -0.6099 -1.0260 -0.1989
   39MOL0     H 5240   3.439  -0.009   9.926  0.0985  1.5378 -0.8988
   39MOL0     H 5241   3.583   0.152  10.130  0.3478 -1.7195 -0.5355
   39MOL0     H 5242   3.420   0.199  10.078 -1.1357 -0.3630  1.1238
   39MOL0     H 5243   3.496  -0.041  10.264  0.7432  0.5654  0.1673
   39MOL0     H 5244   3.337  -0.031  10.182  0.9972 -0.4428 -1.4410
   39MOL0     H 5245   3.356   0.050  10.417  5.6703  0.2584  2.2164
   39MOL0     H 5246   3.277   0.161  10.308 -0.4605 -0.2673 -1.1595
   39MOL0     H 5247   3.869   0.174   9.330  1.9332 -0.2199 -1.2585
   39MOL0     H 5248   4.082   0.259   9.238 -0.6757 -1.2090 -0.1613
   39MOL0     H 5249   4.533   0.071   9.181 -2.1919  0.9012 -0.0896
   39MOL0     H 5250   4.744   0.077   9.084 -0.2605 -0.5340  0.8489
   39MOL0     H 5251   6.650   0.787   8.330  1.2515  1.5376 -0.4094
   39MOL0     H 5252   6.851   0.833   8.432 -1.2234 -0.7076 -2.8099
   39MOL0     H 5253   7.068   1.292   8.632 -1.2497 -1.2197  0.0514
   39MOL0     H 5254   7.320   1.308   8.612 -0.5028 -0.6078 -2.6176
   39MOL0     H 5255   7.520   1.264   8.515 -0.3459 -2.5837 -0.2532
   39MOL0     H 5256   7.538   1.296   8.683  1.9265 -0.7243  0.7601
   39MOL0     H 5257   7.741   1.148   8.672  0.0869  0.3846  0.4076
   39MOL0     H 5258   7.751   1.301   8.561  0.9409  0.6099  0.6465
   39MOL0     H 5259   7.710   1.143   8.378 -0.3700  0.7085  0.6477
   39MOL0     H 5260   7.714   1.002   8.486 -1.8539  0.3671  0.1442
   39MOL0     H 5261   7.931   1.216   8.417  0.2826  0.1190  0.1858
   39MOL0     H 5262   7.928   1.039   8.372  0.9861  1.2000 -1.6297
   39MOL0     H 5263   8.063   1.016   8.770 -2.1227 -3.4623 -0.3614
   39MOL0     H 5264   7.352   0.893   8.695 -0.0631  0.3517  0.8723
   39MOL0     H 5265   7.116   0.868   8.709 -0.5611  1.0211  1.0742
   40MOL0     O 5266   8.500   9.059   5.775 -0.3317 -0.5656  0.2953
   40MOL0     C 5267   8.513   9.178   5.730  0.2390  1.7824 -0.6595
   40MOL0     O 5268   8.404   9.265   5.729 -0.2030 -0.4503  0.8451
   40MOL0     C 5269   8.276   9.216   5.737 -0.7191  0.0343  0.2647
   40MOL0     C 5270   8.190   9.303   5.787 -0.4932  0.2179 -0.0488
   40MOL0     C 5271   8.056   9.273   5.803  0.6254  0.6073 -0.5357
   40MOL0     C 5272   8.002   9.144   5.783 -0.3212  0.7304  0.6154
   40MOL0     O 5273   7.866   9.123   5.801  0.5808 -1.1395 -0.0685
   40MOL0     C 5274   7.796   9.046   5.697  0.3176 -0.0785  0.5377
   40MOL0     C 5275   7.648   9.072   5.700  0.6313 -0.2274 -0.5601
   40MOL0     C 5276   7.586   8.997   5.587  1.0164 -0.3754  0.2016
   40MOL0     C 5277   7.442   9.047   5.552  0.2700  0.3849 -0.1390
   40MOL0     C 5278   7.445   9.174   5.465 -0.3581  0.0745 -0.4711
   40MOL0     C 5279   7.313   9.246   5.489  0.5303 -0.4554 -0.1596
   40MOL0     C 5280   7.314   9.387   5.430  0.0554 -0.1619 -0.2477
   40MOL0     C 5281   7.203   9.474   5.499 -0.1582  0.3231 -0.2287
   40MOL0     N 5282   7.069   9.420   5.507 -0.3170  0.1318 -0.4863
   40MOL0     C 5283   7.021   9.330   5.611 -1.0210 -1.9034 -0.3108
   40MOL0     C 5284   6.904   9.300   5.556 -0.5552  0.3963  0.7561
   40MOL0     C 5285   6.812   9.211   5.627 -0.1017 -1.2758  0.8201
   40MOL0     C 5286   6.671   9.268   5.644 -0.3135 -0.6511  0.7312
   40MOL0     C 5287   6.597   9.191   5.763 -0.7734  0.0726  0.4491
   40MOL0     C 5288   6.480   9.261   5.810  0.3252  0.3128  0.9327
   40MOL0     O 5289   6.415   9.176   5.905 -0.1751  0.7678 -0.5241
   40MOL0     C 5290   6.294   9.200   5.949 -1.0524  0.0311 -0.1269
   40MOL0     C 5291   6.196   9.095   5.964  0.0421  0.0397 -1.3368
   40MOL0     C 5292   6.068   9.111   6.028 -1.4921 -1.6521 -0.3878
   40MOL0     C 5293   5.977   8.996   6.052 -0.3479 -0.1382 -0.0005
   40MOL0     C 5294   6.032   9.249   6.061 -0.7898 -0.4954  0.9838
   40MOL0     C 5295   5.911   9.283   6.128  0.4305  0.0639 -0.2182
   40MOL0     O 5296   5.863   9.199   6.225  0.1596  0.9021  0.2527
   40MOL0     C 5297   5.736   9.223   6.271 -0.6267 -0.8932  0.2286
   40MOL0     C 5298   5.696   9.342   6.334 -0.0232  0.0114 -0.9253
   40MOL0     C 5299   5.568   9.362   6.385  0.0972  0.8856 -0.2338
   40MOL0     C 5300   5.474   9.262   6.366 -0.7896  0.0102  0.1689
   40MOL0     O 5301   5.342   9.291   6.390 -0.0712 -0.1464  0.8574
   40MOL0     C 5302   5.259   9.322   6.274 -0.8256 -0.4322 -0.3200
   40MOL0     C 5303   5.250   9.478   6.277  0.3216  0.2321 -1.2392
   40MOL0     C 5304   5.188   9.525   6.142 -0.5237 -0.7398  1.2548
   40MOL0     C 5305   5.111   9.655   6.171  0.1984 -1.2971 -0.4016
   40MOL0     C 5306   4.979   9.636   6.248  0.0743  0.4331  0.2018
   40MOL0     C 5307   4.904   9.766   6.260 -0.5263  0.6287 -1.3826
   40MOL0     C 5308   4.768   9.740   6.317 -0.7427  0.5592  0.4750
   40MOL0     C 5309   4.692   9.874   6.332  0.1095  0.3195  0.1300
   40MOL0    Cl 5310   4.565   9.848   6.444 -0.0013 -0.0729 -0.3676
   40MOL0     C 5311   5.511   9.139   6.310  0.6212  0.0168  1.2464
   40MOL0     C 5312   5.638   9.121   6.263 -0.2354 -0.0778  0.3241
   40MOL0     O 5313   5.852   9.381   6.085 -0.7159  0.9314  0.4045
   40MOL0     C 5314   6.122   9.356   6.024  0.1854  0.1446  0.6555
   40MOL0     C 5315   6.250   9.330   5.976 -1.4419  0.1613  0.2876
   40MOL0     N 5316   6.876   9.358   5.437  0.1533  0.9307  0.0711
   40MOL0     N 5317   6.978   9.431   5.409 -0.4647  0.2083 -0.5350
   40MOL0     C 5318   8.100   9.052   5.733  0.0945  1.4570 -0.5167
   40MOL0     C 5319   8.232   9.090   5.703  0.7589 -0.6059 -0.2834
   40MOL0     C 5320   8.646   9.224   5.688 -0.1192  0.8680  0.2588
   40MOL0     C 5321   8.759   9.137   5.689  0.3058 -0.1864  0.4801
   40MOL0     C 5322   8.886   9.190   5.668 -0.1424  1.0492  0.0854
   40MOL0     C 5323   8.913   9.319   5.633 -0.6040 -0.2496  1.0449
   40MOL0     O 5324   9.051   9.353   5.625 -0.1984 -0.0739  0.1195
   40MOL0     C 5325   9.085   9.486   5.567 -1.1623  0.3166  0.4592
   40MOL0     C 5326   9.221   9.533   5.620 -0.5828 -0.0122 -0.1050
   40MOL0     C 5327   9.322   9.432   5.570 -0.8393  0.2299 -0.1056
   40MOL0     C 5328   9.472   9.486   5.575  0.1542  0.2402 -0.4808
   40MOL0     C 5329   9.498   9.598   5.489 -0.7575  0.5163  1.0437
   40MOL0     C 5330   9.508   9.697   5.422  0.1123 -1.0329 -0.3226
   40MOL0     C 5331   8.804   9.402   5.609  0.9032 -0.6186 -0.7446
   40MOL0     C 5332   8.677   9.353   5.646  0.2965 -0.2568  0.2057
   40MOL0     H 5333   8.234   9.398   5.816  0.4967  0.3081 -1.7547
   40MOL0     H 5334   7.997   9.349   5.854  0.3625 -1.2160  2.0336
   40MOL0     H 5335   7.836   9.068   5.598 -0.2027  1.2042  0.5921
   40MOL0     H 5336   7.805   8.940   5.723  0.2616  0.0337  1.0207
   40MOL0     H 5337   7.609   9.036   5.795  0.9038 -0.3337 -0.4873
   40MOL0     H 5338   7.635   9.180   5.691 -1.9098 -0.4742 -0.4483
   40MOL0     H 5339   7.648   9.001   5.496  0.9615 -0.8292  0.1397
   40MOL0     H 5340   7.572   8.892   5.614  1.8989 -0.0903  1.8884
   40MOL0     H 5341   7.399   8.966   5.493  0.4436  0.7187 -0.7356
   40MOL0     H 5342   7.385   9.059   5.645 -0.7370  3.6797 -1.0488
   40MOL0     H 5343   7.533   9.231   5.495  0.3985 -0.9186 -0.7525
   40MOL0     H 5344   7.454   9.140   5.361  0.0915 -1.0774 -0.0692
   40MOL0     H 5345   7.235   9.191   5.434 -0.6937  3.0088 -2.2596
   40MOL0     H 5346   7.278   9.243   5.592 -2.3082 -1.6175 -1.0403
   40MOL0     H 5347   7.415   9.426   5.443  1.2583 -2.9322 -0.7717
   40MOL0     H 5348   7.284   9.382   5.325  0.8846 -1.1052 -0.4482
   40MOL0     H 5349   7.189   9.567   5.443  3.4334  2.7351  2.3318
   40MOL0     H 5350   7.242   9.494   5.600  0.7550  0.4769 -0.5979
   40MOL0     H 5351   7.065   9.292   5.702 -1.8673 -1.0232  0.4916
   40MOL0     H 5352   6.811   9.123   5.562  2.9254  0.7120 -2.2892
   40MOL0     H 5353   6.856   9.184   5.723  1.2804  0.8847  0.8611
   40MOL0     H 5354   6.620   9.266   5.548 -0.3635  1.2523  0.6828
   40MOL0     H 5355   6.668   9.373   5.674 -1.4346 -0.3113 -0.5022
   40MOL0     H 5356   6.661   9.176   5.851 -0.1131 -0.9777 -0.1783
   40MOL0     H 5357   6.581   9.087   5.734  2.1360 -0.9239  1.9928
   40MOL0     H 5358   6.411   9.287   5.729  0.3618  1.3105  1.2089
   40MOL0     H 5359   6.496   9.354   5.865 -0.6185  0.7292  0.5178
   40MOL0     H 5360   6.212   8.991   5.940 -4.7737 -0.9794 -1.1541
   40MOL0     H 5361   5.874   9.013   6.022 -0.9082 -1.2578  1.2129
   40MOL0     H 5362   6.002   8.912   5.986  0.7991  0.6490 -0.6204
   40MOL0     H 5363   5.990   8.965   6.156  0.4895 -1.2716 -0.4247
   40MOL0     H 5364   5.761   9.428   6.344  1.1354 -0.7576 -1.5311
   40MOL0     H 5365   5.525   9.450   6.433  1.2105  0.3154  1.9641
   40MOL0     H 5366   5.300   9.289   6.179 -1.4159 -0.1573 -0.6721
   40MOL0     H 5367   5.162   9.275   6.290 -0.7947 -0.4696 -0.2357
   40MOL0     H 5368   5.202   9.516   6.368 -0.2408  1.3657 -1.9786
   40MOL0     H 5369   5.349   9.525   6.282 -0.0976  1.0021  0.9991
   40MOL0     H 5370   5.125   9.445   6.102 -0.9713 -0.2463  0.9674
   40MOL0     H 5371   5.275   9.544   6.077 -1.0028  0.1921  0.8750
   40MOL0     H 5372   5.175   9.721   6.230  1.4765 -0.3989 -2.6689
   40MOL0     H 5373   5.090   9.701   6.074 -2.7198 -1.0856  0.2194
   40MOL0     H 5374   5.000   9.599   6.348 -7.2375  0.9856  2.5609
   40MOL0     H 5375   4.922   9.561   6.192  4.1114 -2.9523  0.1576
   40MOL0     H 5376   4.950   9.835   6.331 -1.3488  1.2870 -1.4775
   40MOL0     H 5377   4.905   9.816   6.162  0.3912  0.3130 -1.5471
   40MOL0     H 5378   4.777   9.693   6.416 -0.2739 -1.5259 -0.5114
   40MOL0     H 5379   4.724   9.669   6.247 -0.7148  1.1045 -0.1009
   40MOL0     H 5380   4.645   9.887   6.234  3.2980 -0.9724 -1.7467
   40MOL0     H 5381   4.762   9.954   6.357  1.2589  0.0364 -1.9838
   40MOL0     H 5382   5.444   9.057   6.284 -0.4634  0.4760  2.5082
   40MOL0     H 5383   5.676   9.034   6.209  1.6228  1.5967 -1.2262
   40MOL0     H 5384   6.092   9.460   6.032  2.2396  0.6479  2.7832
   40MOL0     H 5385   6.323   9.410   5.970  0.2862 -1.1872  1.9599
   40MOL0     H 5386   8.074   8.948   5.716  1.1164  1.2764 -1.0453
   40MOL0     H 5387   8.295   9.018   5.650  0.9748 -0.9441  0.4231
   40MOL0     H 5388   8.752   9.037   5.731  0.3410 -0.3367  0.1229
   40MOL0     H 5389   8.973   9.125   5.675  0.3520  1.7829  0.9016
   40MOL0     H 5390   9.080   9.499   5.459 -2.1282 -0.7065  0.3622
   40MOL0     H 5391   9.016   9.559   5.610 -0.9026  0.6162  0.3691
   40MOL0     H 5392   9.213   9.542   5.729 -0.0958  3.7962 -0.2465
   40MOL0     H 5393   9.253   9.633   5.590 -0.5879  0.1918  0.5321
   40MOL0     H 5394   9.310   9.402   5.466  0.1409 -2.5423  0.4894
   40MOL0     H 5395   9.313   9.347   5.638  2.5943  0.1577  0.4531
   40MOL0     H 5396   9.543   9.412   5.537  0.2323  2.1837 -4.7842
   40MOL0     H 5397   9.512   9.491   5.676  1.3470 -2.3068 -0.7286
   40MOL0     H 5398   9.515   9.785   5.362  2.3439 -0.6182  0.4503
   40MOL0     H 5399   8.813   9.505   5.577 -0.8031 -0.1034  0.2698
   40MOL0     H 5400   8.598   9.427   5.644  0.7336  0.3410  2.1183
   41MOL0     O 5401   0.635   7.704   9.861  0.2200 -0.2864  0.4233
   41MOL0     C 5402   0.658   7.603   9.795  0.7169 -0.2824 -0.5487
   41MOL0     O 5403   0.558   7.525   9.727 -0.2240  0.1644 -0.2478
   41MOL0     C 5404   0.424   7.562   9.731 -0.0722  0.5097 -0.5582
   41MOL0     C 5405   0.341   7.529   9.624 -0.1418 -0.0760  0.2622
   41MOL0     C 5406   0.202   7.562   9.637 -0.4622  0.3146  0.1221
   41MOL0     C 5407   0.146   7.617   9.750 -0.4457 -0.2019  0.0819
   41MOL0     O 5408   0.015   7.644   9.745  0.2680 -0.6180  0.7032
   41MOL0     C 5409  -0.043   7.689   9.868  0.3758  0.1443 -0.3884
   41MOL0     C 5410  -0.194   7.714   9.850  0.0417 -0.6713  0.2769
   41MOL0     C 5411  -0.278   7.590   9.820 -0.3268  0.6788  0.2826
   41MOL0     C 5412  -0.424   7.635   9.807  0.2985 -0.0346  0.3555
   41MOL0     C 5413  -0.467   7.740   9.694  0.1058 -0.2324  0.0605
   41MOL0     C 5414  -0.450   7.692   9.554 -0.3234  0.1603  0.1946
   41MOL0     C 5415  -0.486   7.802   9.454  1.5350  0.0329 -0.7364
   41MOL0     C 5416  -0.639   7.826   9.437  0.0789  0.5770 -0.3299
   41MOL0     N 5417  -0.701   7.701   9.392 -0.2261  0.2873  0.3651
   41MOL0     C 5418  -0.692   7.663   9.262 -0.1278  0.4355  0.1096
   41MOL0     C 5419  -0.731   7.533   9.256 -0.3277  0.4000 -0.0471
   41MOL0     C 5420  -0.740   7.428   9.143  1.2195  0.6013  0.4355
   41MOL0     C 5421  -0.863   7.455   9.053  0.2882  0.5868  0.1522
   41MOL0     C 5422  -0.865   7.359   8.926 -0.5618 -0.1703  0.3403
   41MOL0     C 5423  -1.012   7.343   8.880  0.0652  0.0540 -0.1799
   41MOL0     O 5424  -1.102   7.279   8.974  0.0260 -0.0018 -0.0873
   41MOL0     C 5425  -1.225   7.347   8.988  0.4565  0.4333 -0.3047
   41MOL0     C 5426  -1.301   7.405   8.885 -0.1423  0.4612 -0.4391
   41MOL0     C 5427  -1.427   7.454   8.913 -1.3575 -0.2621 -0.1466
   41MOL0     C 5428  -1.489   7.508   8.791 -0.1394  0.5364 -0.5689
   41MOL0     C 5429  -1.473   7.467   9.051  0.4501  0.7669  0.1365
   41MOL0     C 5430  -1.615   7.516   9.077  0.0232 -1.1010 -0.0516
   41MOL0     O 5431  -1.666   7.498   9.200  0.3221  0.0513 -0.3052
   41MOL0     C 5432  -1.778   7.563   9.238  0.1294  0.7618  0.1311
   41MOL0     C 5433  -1.908   7.533   9.190 -0.1606  0.1226  0.0818
   41MOL0     C 5434  -2.016   7.627   9.210  0.5156 -0.3012 -0.4633
   41MOL0     C 5435  -1.984   7.744   9.283  0.0574 -0.2256  0.2280
   41MOL0     O 5436  -2.094   7.823   9.312  0.0615  0.1117  0.4086
   41MOL0     C 5437  -2.089   7.967   9.341 -0.9988 -0.3446 -0.2878
   41MOL0     C 5438  -2.223   8.011   9.404 -0.8149  0.0283 -0.1735
   41MOL0     C 5439  -2.325   8.022   9.299 -0.1064 -0.1010  0.0790
   41MOL0     C 5440  -2.463   8.026   9.373  0.2397 -0.3644  0.3184
   41MOL0     C 5441  -2.589   8.020   9.278 -0.5702  0.3594 -0.0385
   41MOL0     C 5442  -2.601   8.160   9.236  0.1429 -0.5126 -0.2865
   41MOL0     C 5443  -2.721   8.170   9.148  0.0333  1.1803 -0.3358
   41MOL0     C 5444  -2.748   8.320   9.135 -0.4082  0.2869  0.7864
   41MOL0    Cl 5445  -2.888   8.342   9.035  0.0258 -0.1641  0.4605
   41MOL0     C 5446  -1.856   7.770   9.331 -0.2665 -0.4909 -1.1315
   41MOL0     C 5447  -1.757   7.677   9.306 -0.1519 -1.2133 -0.2399
   41MOL0     O 5448  -1.666   7.586   8.993  0.5254  0.2257  0.7714
   41MOL0     C 5449  -1.398   7.412   9.153  0.3369 -0.5159  0.3459
   41MOL0     C 5450  -1.275   7.358   9.120 -0.7286  0.9977  0.4169
   41MOL0     N 5451  -0.753   7.493   9.387 -0.0930 -0.3524 -0.3969
   41MOL0     N 5452  -0.746   7.599   9.464  0.1292  0.3741  0.2455
   41MOL0     C 5453   0.229   7.648   9.852  0.5998 -0.3031  0.2084
   41MOL0     C 5454   0.363   7.618   9.848  0.1213  0.1920  0.4174
   41MOL0     C 5455   0.803   7.565   9.766 -0.9888 -0.1859 -0.1474
   41MOL0     C 5456   0.905   7.655   9.768  0.0401  0.4189 -0.5853
   41MOL0     C 5457   1.037   7.613   9.750  0.3558 -0.2045  0.0210
   41MOL0     C 5458   1.069   7.486   9.696 -0.5432 -0.0073  0.1839
   41MOL0     O 5459   1.187   7.421   9.683  0.3261 -0.1977 -0.5202
   41MOL0     C 5460   1.306   7.508   9.694  0.7564 -0.8973  0.3564
   41MOL0     C 5461   1.434   7.436   9.669  0.2211  0.0019  0.7202
   41MOL0     C 5462   1.554   7.501   9.716  0.1303 -1.1039 -1.0924
   41MOL0     C 5463   1.686   7.455   9.646 -0.2557 -0.3430 -0.4441
   41MOL0     C 5464   1.737   7.324   9.682  1.1189  0.5505  0.0546
   41MOL0     C 5465   1.784   7.210   9.687 -0.6103 -0.6572  0.0123
   41MOL0     C 5466   0.970   7.389   9.707 -0.7865 -0.7219  0.8792
   41MOL0     C 5467   0.840   7.420   9.741  0.1340 -0.7742  0.2517
   41MOL0     H 5468   0.377   7.471   9.540  0.0989  2.3850 -1.4257
   41MOL0     H 5469   0.149   7.539   9.546  2.1059 -0.6915 -1.2325
   41MOL0     H 5470  -0.027   7.607   9.939  1.7811 -1.8750 -2.8351
   41MOL0     H 5471  -0.007   7.782   9.913 -0.6140 -0.6294  2.2033
   41MOL0     H 5472  -0.230   7.760   9.943  1.4106  1.3523 -0.1348
   41MOL0     H 5473  -0.203   7.787   9.769 -2.6792  1.4161  2.2578
   41MOL0     H 5474  -0.233   7.527   9.743  4.0631  0.6860  2.5692
   41MOL0     H 5475  -0.280   7.521   9.905 -1.6239 -0.1189 -0.3561
   41MOL0     H 5476  -0.492   7.550   9.798 -1.8527  1.6778 -0.5626
   41MOL0     H 5477  -0.456   7.690   9.896  2.4438  0.8912  0.6074
   41MOL0     H 5478  -0.574   7.758   9.700  0.4698  2.3765  0.0072
   41MOL0     H 5479  -0.403   7.829   9.704  2.5847 -2.0344  1.4463
   41MOL0     H 5480  -0.348   7.654   9.543  0.2632  0.9664  2.3033
   41MOL0     H 5481  -0.514   7.605   9.533  0.9225 -0.8427  0.4534
   41MOL0     H 5482  -0.431   7.892   9.484  0.3013  0.4402  0.3923
   41MOL0     H 5483  -0.453   7.778   9.352 -2.5588 -1.6198 -1.8924
   41MOL0     H 5484  -0.649   7.901   9.358  0.6097  0.8627 -0.1259
   41MOL0     H 5485  -0.686   7.862   9.529  2.5568  1.6513  0.6148
   41MOL0     H 5486  -0.649   7.707   9.173 -0.0940 -2.7549 -1.5814
   41MOL0     H 5487  -0.644   7.438   9.092  0.9086 -0.1250 -0.3132
   41MOL0     H 5488  -0.754   7.327   9.184 -0.0333 -0.1174 -1.5887
   41MOL0     H 5489  -0.860   7.561   9.025  2.6599  0.4264 -0.4169
   41MOL0     H 5490  -0.950   7.439   9.118 -0.6155 -2.8896 -1.6886
   41MOL0     H 5491  -0.831   7.257   8.942 -0.0953 -0.5154 -2.3984
   41MOL0     H 5492  -0.803   7.406   8.850 -0.1761 -0.8914  0.2075
   41MOL0     H 5493  -1.013   7.280   8.790 -1.0179 -0.3864  0.1279
   41MOL0     H 5494  -1.045   7.439   8.839  0.7208 -0.1626 -1.2503
   41MOL0     H 5495  -1.263   7.406   8.784  0.4323  0.5251 -0.2264
   41MOL0     H 5496  -1.429   7.490   8.701  0.7335  0.9659 -0.0928
   41MOL0     H 5497  -1.592   7.476   8.778  0.9584 -2.4527 -3.1790
   41MOL0     H 5498  -1.482   7.617   8.805  1.4765  0.4034 -0.0672
   41MOL0     H 5499  -1.918   7.441   9.135  2.0409 -0.0545 -0.1192
   41MOL0     H 5500  -2.119   7.608   9.183  0.4185  0.5544 -0.7235
   41MOL0     H 5501  -2.010   7.994   9.413 -1.9247 -0.2205  0.7063
   41MOL0     H 5502  -2.066   8.015   9.246 -0.1551 -0.2624 -0.0514
   41MOL0     H 5503  -2.256   7.948   9.488 -1.4347 -0.2816 -0.6375
   41MOL0     H 5504  -2.225   8.114   9.440  1.4428  0.0304  0.1071
   41MOL0     H 5505  -2.317   7.928   9.243  0.4465 -0.9138  1.4494
   41MOL0     H 5506  -2.310   8.107   9.232 -0.7602  0.0631  0.1364
   41MOL0     H 5507  -2.463   7.947   9.448 -0.3216 -0.1958  0.5059
   41MOL0     H 5508  -2.469   8.117   9.433 -1.9112  0.7138 -1.3657
   41MOL0     H 5509  -2.676   7.984   9.332 -0.8541  1.9023  0.5843
   41MOL0     H 5510  -2.569   7.963   9.186 -0.9380  0.7105 -0.3399
   41MOL0     H 5511  -2.617   8.229   9.319 -0.1415 -1.8425  0.7947
   41MOL0     H 5512  -2.515   8.202   9.183  0.1808  0.7962  0.7547
   41MOL0     H 5513  -2.805   8.128   9.204  2.9030 -1.6051  2.2195
   41MOL0     H 5514  -2.707   8.121   9.051 -2.2868 -0.1733 -0.0902
   41MOL0     H 5515  -2.655   8.363   9.097 -1.6674  0.5882 -2.2145
   41MOL0     H 5516  -2.767   8.373   9.228  0.0780  0.2202  0.9310
   41MOL0     H 5517  -1.842   7.849   9.405 -3.0780 -0.8006 -0.1512
   41MOL0     H 5518  -1.659   7.694   9.350 -0.2360  0.5358 -0.6529
   41MOL0     H 5519  -1.423   7.423   9.257 -0.0681  2.8652 -0.0034
   41MOL0     H 5520  -1.211   7.314   9.196  0.1370  0.2767 -0.6940
   41MOL0     H 5521   0.208   7.689   9.950  1.0307 -0.2066  0.2600
   41MOL0     H 5522   0.417   7.650   9.936  0.6046  0.8819 -0.1204
   41MOL0     H 5523   0.886   7.758   9.795  0.6195  0.8714 -1.8473
   41MOL0     H 5524   1.114   7.687   9.769  0.2009  0.6174 -2.2271
   41MOL0     H 5525   1.292   7.586   9.620 -1.9685 -0.1455  1.5472
   41MOL0     H 5526   1.304   7.545   9.797  0.0758  0.1682 -0.0334
   41MOL0     H 5527   1.449   7.425   9.561  0.4685  2.9645  0.3827
   41MOL0     H 5528   1.417   7.335   9.709 -0.2215 -0.1246  0.2320
   41MOL0     H 5529   1.568   7.492   9.824 -1.0717 -3.5971 -1.0655
   41MOL0     H 5530   1.558   7.606   9.684  1.2763 -0.4589  0.9985
   41MOL0     H 5531   1.765   7.526   9.673  0.4564 -1.0376 -0.6652
   41MOL0     H 5532   1.685   7.472   9.538  0.0976  0.3662 -0.3425
   41MOL0     H 5533   1.811   7.106   9.686  1.3580 -0.2111 -1.3894
   41MOL0     H 5534   0.997   7.288   9.679  1.3658  0.5332 -2.1262
   41MOL0     H 5535   0.761   7.347   9.747  0.2619 -0.8917  0.5498
   42MOL0     O 5536   4.886   4.477   6.358  0.1846  0.2053  0.2090
   42MOL0     C 5537   4.974   4.563   6.323  0.2189  0.9081  0.2301
   42MOL0     O 5538   4.952   4.696   6.322  0.3727 -0.6295 -0.1523
   42MOL0     C 5539   4.831   4.732   6.366 -0.2332  0.3728 -0.0676
   42MOL0     C 5540   4.780   4.707   6.493 -0.6000 -0.3698 -0.0280
   42MOL0     C 5541   4.657   4.751   6.522 -0.6348 -0.3010  0.2567
   42MOL0     C 5542   4.585   4.842   6.440 -0.8689  1.0596 -0.4012
   42MOL0     O 5543   4.467   4.892   6.496 -0.1614  0.3724 -0.2781
   42MOL0     C 5544   4.426   5.020   6.449 -0.0279  0.3998  0.0200
   42MOL0     C 5545   4.281   5.035   6.497  0.5541 -0.0888 -0.0008
   42MOL0     C 5546   4.220   5.168   6.439  0.7028 -0.8814 -0.1216
   42MOL0     C 5547   4.247   5.296   6.519  0.1639  0.1056 -0.5126
   42MOL0     C 5548   4.200   5.418   6.440  0.0480 -0.7434  0.6061
   42MOL0     C 5549   4.051   5.430   6.423 -0.8830  0.3613  0.3491
   42MOL0     C 5550   3.998   5.570   6.445 -0.4124  0.8436  0.6160
   42MOL0     C 5551   3.842   5.567   6.448  0.5529  0.0005  1.0210
   42MOL0     N 5552   3.788   5.704   6.486 -0.0293  0.8747 -0.1328
   42MOL0     C 5553   3.652   5.715   6.490 -0.1660 -0.2165 -0.0436
   42MOL0     C 5554   3.641   5.849   6.507  0.1038  0.0342 -0.2198
   42MOL0     C 5555   3.528   5.942   6.480  0.1616  0.1990 -0.7841
   42MOL0     C 5556   3.396   5.874   6.515  0.2860 -0.4521  0.5273
   42MOL0     C 5557   3.278   5.974   6.525 -0.2164 -0.5249  0.3665
   42MOL0     C 5558   3.144   5.908   6.573 -0.7681  0.1815 -0.5657
   42MOL0     O 5559   3.051   6.016   6.599  0.3590 -0.7881 -0.0769
   42MOL0     C 5560   2.920   5.991   6.612  0.4510  0.7985  0.0148
   42MOL0     C 5561   2.840   6.092   6.554  0.7384  0.8474  0.6031
   42MOL0     C 5562   2.703   6.079   6.570  0.0583 -0.8125 -1.1973
   42MOL0     C 5563   2.612   6.187   6.506 -0.5082 -0.4637  0.7098
   42MOL0     C 5564   2.654   5.976   6.643 -0.1327  0.3066  0.1078
   42MOL0     C 5565   2.509   5.954   6.650  0.8767 -1.1706  0.7798
   42MOL0     O 5566   2.443   6.052   6.719  0.4952  0.0383  0.0773
   42MOL0     C 5567   2.305   6.038   6.736  0.7489  0.4316  0.5172
   42MOL0     C 5568   2.219   6.018   6.616 -0.3539 -0.5306  0.2789
   42MOL0     C 5569   2.080   6.012   6.633  0.3038  0.6387  0.8713
   42MOL0     C 5570   2.020   5.999   6.760  0.3308 -0.4646  0.3183
   42MOL0     O 5571   1.887   5.962   6.779 -0.4334  0.3141 -0.6272
   42MOL0     C 5572   1.819   6.043   6.878 -0.7211  0.5236 -0.5247
   42MOL0     C 5573   1.677   6.063   6.821  1.1415  0.8083  0.1995
   42MOL0     C 5574   1.591   6.159   6.908  0.0211  0.4316 -0.4189
   42MOL0     C 5575   1.458   6.200   6.847  0.3767  0.9062 -0.4672
   42MOL0     C 5576   1.365   6.274   6.945  0.2271 -1.0455  0.3887
   42MOL0     C 5577   1.328   6.199   7.066  0.3824 -0.9119 -0.2565
   42MOL0     C 5578   1.225   6.277   7.140  0.7103 -0.6040 -0.5675
   42MOL0     C 5579   1.141   6.212   7.256 -0.2450  0.7639  0.5745
   42MOL0    Cl 5580   0.991   6.311   7.266  0.3962  0.9568 -0.2875
   42MOL0     C 5581   2.103   6.029   6.873  0.3984 -1.0723 -0.2103
   42MOL0     C 5582   2.240   6.059   6.861 -0.7616 -0.1912  0.5523
   42MOL0     O 5583   2.469   5.848   6.602 -0.0745  0.4975 -0.6837
   42MOL0     C 5584   2.731   5.879   6.705 -0.0789 -0.5313  0.4303
   42MOL0     C 5585   2.877   5.890   6.690  0.4273  0.5170  0.0623
   42MOL0     N 5586   3.764   5.908   6.522 -0.0410  1.4345 -0.0938
   42MOL0     N 5587   3.858   5.812   6.518  0.5071 -0.7598 -1.5036
   42MOL0     C 5588   4.653   4.891   6.321 -0.5632 -0.1293  0.2044
   42MOL0     C 5589   4.775   4.825   6.288 -0.5625 -0.1578  0.6678
   42MOL0     C 5590   5.109   4.519   6.291 -0.9178  0.4614  0.3099
   42MOL0     C 5591   5.210   4.607   6.249  1.6814  1.0853  0.4541
   42MOL0     C 5592   5.335   4.557   6.209  0.1176  0.6365 -0.3433
   42MOL0     C 5593   5.370   4.412   6.217  0.8198 -0.7034 -0.5935
   42MOL0     O 5594   5.496   4.379   6.166 -0.0183  0.0568  0.4040
   42MOL0     C 5595   5.542   4.246   6.173 -0.6454  0.9349  0.7570
   42MOL0     C 5596   5.673   4.248   6.247 -0.1674 -0.3898 -0.2442
   42MOL0     C 5597   5.716   4.108   6.294  0.1555 -0.0839  0.3673
   42MOL0     C 5598   5.841   4.101   6.389  0.9563 -1.0461  1.0234
   42MOL0     C 5599   5.964   4.133   6.314  0.6533 -0.6625 -0.0860
   42MOL0     C 5600   6.069   4.141   6.261  0.5763  0.0066  0.3681
   42MOL0     C 5601   5.264   4.329   6.264 -0.3365  0.2586 -0.1225
   42MOL0     C 5602   5.144   4.387   6.299  0.0127 -0.0574 -0.3648
   42MOL0     H 5603   4.820   4.636   6.565  1.5397 -0.8094 -1.5688
   42MOL0     H 5604   4.616   4.726   6.619 -0.3954  3.5573  1.5363
   42MOL0     H 5605   4.487   5.106   6.480 -2.4484  2.5501 -0.8572
   42MOL0     H 5606   4.434   5.026   6.340 -0.5776 -1.5451 -0.1647
   42MOL0     H 5607   4.221   4.954   6.456 -3.8093  1.2834  2.8631
   42MOL0     H 5608   4.285   5.036   6.607  1.7530 -1.3146 -0.0156
   42MOL0     H 5609   4.267   5.188   6.342  1.2613  0.3272  0.3709
   42MOL0     H 5610   4.114   5.157   6.414  0.6883  0.0668 -0.5020
   42MOL0     H 5611   4.194   5.304   6.615  1.5760 -1.2908  0.4251
   42MOL0     H 5612   4.354   5.303   6.536  0.4413 -1.0660 -1.5948
   42MOL0     H 5613   4.224   5.500   6.508 -1.7542  0.3576 -0.0348
   42MOL0     H 5614   4.245   5.431   6.341 -0.8981  1.0105  0.3695
   42MOL0     H 5615   4.025   5.399   6.322  3.7482 -0.1349 -0.9042
   42MOL0     H 5616   3.994   5.370   6.494 -2.6018  0.4194 -0.9189
   42MOL0     H 5617   4.044   5.609   6.537  0.0618  2.2216 -0.1774
   42MOL0     H 5618   4.022   5.641   6.366  1.6216  1.1938  1.4817
   42MOL0     H 5619   3.799   5.501   6.524 -2.6079 -0.4352 -0.9420
   42MOL0     H 5620   3.794   5.538   6.354  1.7758 -0.4851  0.5356
   42MOL0     H 5621   3.570   5.647   6.470  1.7418 -2.5651 -0.3180
   42MOL0     H 5622   3.551   6.033   6.536  0.9638  1.0323 -2.4113
   42MOL0     H 5623   3.524   5.973   6.376  3.0667  0.5356 -0.8844
   42MOL0     H 5624   3.396   5.829   6.615  3.2642  0.1901  0.9144
   42MOL0     H 5625   3.371   5.802   6.436 -1.0660 -1.0590  1.4671
   42MOL0     H 5626   3.254   6.021   6.429  0.5070  1.3602  1.0631
   42MOL0     H 5627   3.300   6.046   6.605  1.9949 -0.2233 -0.4536
   42MOL0     H 5628   3.166   5.863   6.670 -1.6849  1.1392  0.1133
   42MOL0     H 5629   3.105   5.834   6.502 -1.0612 -1.2762  1.0442
   42MOL0     H 5630   2.886   6.175   6.501  0.6834 -0.7591 -2.1796
   42MOL0     H 5631   2.521   6.148   6.460  1.1193 -1.0679 -2.2039
   42MOL0     H 5632   2.587   6.270   6.573  0.3882  1.7547 -1.5697
   42MOL0     H 5633   2.673   6.231   6.427  1.5055 -0.0872  2.3627
   42MOL0     H 5634   2.259   5.994   6.518  0.3567 -1.4094  0.7709
   42MOL0     H 5635   2.008   6.006   6.552 -0.0293 -2.0768  1.2682
   42MOL0     H 5636   1.828   6.010   6.982  0.2734  2.8698  0.1941
   42MOL0     H 5637   1.866   6.141   6.886 -1.2165  0.7934 -0.8801
   42MOL0     H 5638   1.681   6.105   6.720  2.8747  0.3174  0.0263
   42MOL0     H 5639   1.625   5.968   6.815  2.1712  0.2595 -0.3115
   42MOL0     H 5640   1.648   6.252   6.920 -0.6120  1.0220 -1.7654
   42MOL0     H 5641   1.573   6.116   7.007  0.7368 -0.3967 -0.6331
   42MOL0     H 5642   1.484   6.270   6.767  1.9160  0.4622 -0.3949
   42MOL0     H 5643   1.413   6.114   6.798  1.8449 -1.2687  1.7575
   42MOL0     H 5644   1.281   6.318   6.889  1.8940  1.9163  0.0085
   42MOL0     H 5645   1.415   6.371   6.955 -1.3288  0.1032 -1.9428
   42MOL0     H 5646   1.303   6.094   7.048  3.0813 -1.5622 -0.6688
   42MOL0     H 5647   1.414   6.200   7.134 -0.6086  2.3295  1.1448
   42MOL0     H 5648   1.147   6.289   7.064 -0.3646 -1.3594  0.3950
   42MOL0     H 5649   1.258   6.371   7.184 -1.1212 -0.9796  1.8100
   42MOL0     H 5650   1.193   6.194   7.350  0.4317  2.1614  0.4915
   42MOL0     H 5651   1.111   6.113   7.221 -2.7446  1.7735 -0.3528
   42MOL0     H 5652   2.057   6.061   6.966  1.8733 -0.3462  0.2963
   42MOL0     H 5653   2.299   6.090   6.947  0.1079  1.3335 -0.5395
   42MOL0     H 5654   2.685   5.811   6.777  0.6747 -1.8323 -0.2630
   42MOL0     H 5655   2.948   5.831   6.747 -1.7596  0.1530  2.6567
   42MOL0     H 5656   4.616   4.975   6.263  2.5536  1.1887 -0.0890
   42MOL0     H 5657   4.812   4.835   6.187 -0.6496 -3.8845  0.1403
   42MOL0     H 5658   5.176   4.707   6.222 -1.8247 -0.2524 -0.7483
   42MOL0     H 5659   5.415   4.611   6.160  0.4438 -0.6529 -1.2653
   42MOL0     H 5660   5.481   4.173   6.226  0.9647 -2.4513 -1.7033
   42MOL0     H 5661   5.553   4.200   6.075  1.1638 -1.5530  2.0254
   42MOL0     H 5662   5.664   4.309   6.338  1.8811  0.4400 -0.5262
   42MOL0     H 5663   5.758   4.295   6.196  0.3880 -0.5536  0.5022
   42MOL0     H 5664   5.747   4.050   6.206  0.1912  1.1426 -0.4671
   42MOL0     H 5665   5.634   4.059   6.346 -1.0596  1.4848  0.0295
   42MOL0     H 5666   5.852   4.004   6.438  1.9624 -0.9077  1.0964
   42MOL0     H 5667   5.825   4.175   6.468  0.0748 -0.2107  0.0918
   42MOL0     H 5668   6.164   4.158   6.213  0.0924 -0.8033 -0.9252
   42MOL0     H 5669   5.272   4.221   6.272  1.1866  0.4322  1.3873
   42MOL0     H 5670   5.067   4.315   6.324  1.1411 -1.7268 -1.4756
   43MOL0     O 5671   9.168   1.332   0.052  0.0429  0.3894  0.3684
   43MOL0     C 5672   9.199   1.229  -0.003  0.6434  0.6972 -0.4808
   43MOL0     O 5673   9.112   1.129  -0.021 -0.4889  0.6031  0.8019
   43MOL0     C 5674   8.982   1.148   0.028 -0.2787  0.0930  0.0781
   43MOL0     C 5675   8.877   1.142  -0.057  0.3985 -0.1480 -0.5157
   43MOL0     C 5676   8.753   1.184  -0.021  0.2049 -0.6401 -0.6485
   43MOL0     C 5677   8.729   1.224   0.114  0.2564 -0.0811 -0.2974
   43MOL0     O 5678   8.613   1.279   0.161  0.9417  0.2971 -0.0669
   43MOL0     C 5679   8.499   1.299   0.070 -0.2105 -0.8700  0.3238
   43MOL0     C 5680   8.380   1.354   0.143  0.3898 -0.0677  0.2955
   43MOL0     C 5681   8.340   1.272   0.269 -0.1996 -0.1651  0.5731
   43MOL0     C 5682   8.196   1.311   0.329 -0.3130 -0.3855  0.7043
   43MOL0     C 5683   8.150   1.191   0.417 -0.0398  0.5671  0.2134
   43MOL0     C 5684   8.215   1.187   0.557 -0.0319 -0.9524  0.2972
   43MOL0     C 5685   8.200   1.314   0.641 -0.0689 -0.0773  0.6976
   43MOL0     C 5686   8.214   1.284   0.781  0.2231 -0.0467  0.2346
   43MOL0     N 5687   8.351   1.251   0.828 -0.7389  0.7987  0.2963
   43MOL0     C 5688   8.464   1.327   0.797 -0.3663 -0.3424 -1.2237
   43MOL0     C 5689   8.564   1.254   0.847 -0.4999 -0.0996 -0.0911
   43MOL0     C 5690   8.704   1.309   0.817 -0.0584  1.2106  0.4874
   43MOL0     C 5691   8.820   1.210   0.832 -0.0790 -0.3296 -0.7301
   43MOL0     C 5692   8.951   1.268   0.765  1.1722 -0.1842  0.4858
   43MOL0     C 5693   9.080   1.219   0.815  0.2026  0.3893  0.6656
   43MOL0     O 5694   9.092   1.242   0.954  0.3523 -0.6824  0.4945
   43MOL0     C 5695   9.209   1.221   1.023  0.9985  0.1117  0.0641
   43MOL0     C 5696   9.201   1.252   1.157  0.0068  0.4173 -0.1270
   43MOL0     C 5697   9.317   1.234   1.236  0.0790 -0.6046 -0.0918
   43MOL0     C 5698   9.309   1.301   1.375 -0.1531 -0.1971 -0.4417
   43MOL0     C 5699   9.442   1.195   1.173 -1.1829  0.1363  0.7571
   43MOL0     C 5700   9.582   1.191   1.237 -0.4224 -0.3378 -1.5007
   43MOL0     O 5701   9.689   1.145   1.165  0.2337 -0.3339 -0.1971
   43MOL0     C 5702   9.817   1.135   1.218  0.0522 -1.0449 -0.6144
   43MOL0     C 5703   9.918   1.171   1.131  0.1363  0.3883 -0.2976
   43MOL0     C 5704  10.051   1.163   1.176 -0.1963 -0.3334  0.3858
   43MOL0     C 5705  10.091   1.118   1.304  0.0862  0.1396 -0.4246
   43MOL0     O 5706  10.220   1.098   1.357 -1.2234  0.0715  0.9358
   43MOL0     C 5707  10.316   1.054   1.250 -0.0209 -0.1619 -0.9684
   43MOL0     C 5708  10.455   1.053   1.303  0.9923 -0.8173 -0.0877
   43MOL0     C 5709  10.510   1.192   1.326 -0.5733 -0.8834  0.2471
   43MOL0     C 5710  10.535   1.273   1.191 -0.8120  0.1010 -1.0588
   43MOL0     C 5711  10.579   1.411   1.232  0.0282  0.0636  0.3108
   43MOL0     C 5712  10.717   1.422   1.310  0.9472  0.1933 -0.0268
   43MOL0     C 5713  10.826   1.336   1.251 -0.0540  0.9035  0.5118
   43MOL0     C 5714  10.963   1.358   1.323 -0.0003 -0.4616  0.5560
   43MOL0    Cl 5715  10.993   1.538   1.307 -0.4657  0.0657 -0.2945
   43MOL0     C 5716   9.992   1.089   1.391  0.7707 -1.0490  0.1269
   43MOL0     C 5717   9.857   1.108   1.351  0.3901  0.8729 -0.1130
   43MOL0     O 5718   9.593   1.232   1.354 -0.3982 -0.2816 -0.2686
   43MOL0     C 5719   9.439   1.150   1.035 -0.2976 -1.1755  0.0678
   43MOL0     C 5720   9.317   1.159   0.959  0.0385  0.9112  0.7029
   43MOL0     N 5721   8.520   1.143   0.910 -0.3616  0.2146 -0.1500
   43MOL0     N 5722   8.383   1.141   0.902 -0.5477  0.1722 -0.3322
   43MOL0     C 5723   8.837   1.229   0.206  0.2185 -0.1077  0.6376
   43MOL0     C 5724   8.958   1.187   0.166  0.7804  0.5831 -0.8259
   43MOL0     C 5725   9.342   1.218  -0.040  0.7319 -0.4537  1.1448
   43MOL0     C 5726   9.433   1.240   0.064 -0.7997 -0.5156 -0.3907
   43MOL0     C 5727   9.569   1.230   0.043  0.0772  0.3823  0.8131
   43MOL0     C 5728   9.610   1.190  -0.095 -0.8247 -0.2721  0.2471
   43MOL0     O 5729   9.742   1.168  -0.132  0.1647 -0.0068  0.4575
   43MOL0     C 5730   9.835   1.190  -0.022  0.2658 -0.4692  0.4833
   43MOL0     C 5731   9.970   1.174  -0.091  0.5060 -0.0571  0.3214
   43MOL0     C 5732  10.089   1.210  -0.002 -0.0343 -0.0308 -0.5494
   43MOL0     C 5733  10.209   1.135  -0.050 -0.4281 -0.0679  0.6830
   43MOL0     C 5734  10.234   1.190  -0.183 -0.2227  0.2596  0.4709
   43MOL0     C 5735  10.267   1.232  -0.296  0.9302  0.4090  0.9400
   43MOL0     C 5736   9.516   1.176  -0.199 -0.1674 -0.7293  0.1784
   43MOL0     C 5737   9.385   1.187  -0.167  0.5470 -0.5008  0.3741
   43MOL0     H 5738   8.889   1.106  -0.159 -2.0940  3.6254 -2.3854
   43MOL0     H 5739   8.668   1.186  -0.088 -0.3695 -1.0004  0.0668
   43MOL0     H 5740   8.523   1.360  -0.017 -1.8379 -2.7391 -1.5337
   43MOL0     H 5741   8.475   1.202   0.026 -0.3576 -0.3566 -0.7582
   43MOL0     H 5742   8.410   1.456   0.168  3.1561 -0.6803 -0.1567
   43MOL0     H 5743   8.295   1.367   0.075 -0.5235 -2.3556  0.8912
   43MOL0     H 5744   8.340   1.164   0.249 -1.1797 -0.0927  0.0942
   43MOL0     H 5745   8.409   1.297   0.350  0.6201  0.5290 -0.3180
   43MOL0     H 5746   8.206   1.402   0.388  2.4146  0.4307 -0.8584
   43MOL0     H 5747   8.122   1.322   0.249 -0.7736 -1.3489  0.9796
   43MOL0     H 5748   8.045   1.212   0.435 -1.2760 -4.9799  1.2144
   43MOL0     H 5749   8.149   1.091   0.372  0.3293  0.0730  1.2586
   43MOL0     H 5750   8.167   1.105   0.610  1.4319 -0.6207  2.2544
   43MOL0     H 5751   8.318   1.154   0.542  0.9763  1.3430  1.6465
   43MOL0     H 5752   8.273   1.388   0.607 -1.1540  1.2299  1.1304
   43MOL0     H 5753   8.101   1.357   0.627  0.5187  1.1994  0.3407
   43MOL0     H 5754   8.142   1.204   0.801  0.4451 -0.7092 -1.4891
   43MOL0     H 5755   8.186   1.365   0.849  0.2862 -0.5971  0.9268
   43MOL0     H 5756   8.473   1.419   0.740  1.0858  0.7531  0.6417
   43MOL0     H 5757   8.715   1.342   0.714  1.8628  2.0056  0.9067
   43MOL0     H 5758   8.719   1.392   0.887 -0.6716  2.8032 -1.2049
   43MOL0     H 5759   8.799   1.118   0.776  0.8909 -0.6040 -0.6708
   43MOL0     H 5760   8.835   1.186   0.938  2.5229  1.5051 -0.5912
   43MOL0     H 5761   8.957   1.377   0.771  2.2555 -0.2721  1.4261
   43MOL0     H 5762   8.934   1.244   0.660 -3.5984  1.6494  0.5616
   43MOL0     H 5763   9.164   1.254   0.755 -1.6438 -0.4817 -2.6927
   43MOL0     H 5764   9.086   1.109   0.810 -3.6239  0.0944 -1.0380
   43MOL0     H 5765   9.108   1.289   1.199 -2.2969 -1.6355 -3.0097
   43MOL0     H 5766   9.311   1.410   1.373  2.2214 -0.1888 -0.4731
   43MOL0     H 5767   9.211   1.276   1.418  0.9418 -1.0759  1.6591
   43MOL0     H 5768   9.381   1.273   1.452 -1.2262 -2.0382 -0.0443
   43MOL0     H 5769   9.882   1.190   1.031  1.6505 -3.0934 -1.6732
   43MOL0     H 5770  10.127   1.202   1.108  0.1023  0.0111  0.9106
   43MOL0     H 5771  10.292   0.950   1.227  0.9574 -0.8866  1.0464
   43MOL0     H 5772  10.312   1.109   1.156 -2.0539 -2.1344 -2.1402
   43MOL0     H 5773  10.453   0.999   1.398  2.0285 -1.3874 -0.3672
   43MOL0     H 5774  10.516   1.005   1.226 -1.2597  0.8156 -3.1585
   43MOL0     H 5775  10.608   1.194   1.376  1.1279  4.3434 -2.5347
   43MOL0     H 5776  10.443   1.256   1.385  1.3694  0.4186  1.1596
   43MOL0     H 5777  10.612   1.208   1.147  0.0510 -2.6177  3.7226
   43MOL0     H 5778  10.453   1.290   1.121 -1.3779  0.1487 -0.3952
   43MOL0     H 5779  10.496   1.462   1.282 -1.5397  0.4914 -2.5242
   43MOL0     H 5780  10.603   1.470   1.143  1.5265  0.1495  0.7364
   43MOL0     H 5781  10.729   1.531   1.316 -1.9142  0.6634 -1.0771
   43MOL0     H 5782  10.707   1.377   1.409 -1.9482  2.9995  1.1246
   43MOL0     H 5783  10.829   1.349   1.143 -0.1898  1.2289  0.5460
   43MOL0     H 5784  10.795   1.232   1.264  0.3787  0.8274  0.9401
   43MOL0     H 5785  11.038   1.291   1.281  1.2609 -0.9226  3.2745
   43MOL0     H 5786  10.952   1.318   1.424 -1.1339 -0.0008  0.6298
   43MOL0     H 5787  10.005   1.061   1.495 -0.3647 -0.4092  0.4594
   43MOL0     H 5788   9.780   1.081   1.423  1.7048 -1.6609  0.4470
   43MOL0     H 5789   9.530   1.123   0.983 -0.5917  0.2116 -1.2255
   43MOL0     H 5790   9.318   1.118   0.859 -0.7481 -1.4590  1.5951
   43MOL0     H 5791   8.828   1.266   0.307  2.0582  2.6261 -0.0598
   43MOL0     H 5792   9.046   1.186   0.231  0.6850 -0.8594 -0.6852
   43MOL0     H 5793   9.388   1.262   0.161  1.4238 -4.7778  1.9032
   43MOL0     H 5794   9.621   1.237   0.137  1.0064 -1.9196  0.5515
   43MOL0     H 5795   9.828   1.286   0.030  0.7603 -0.8868  1.3419
   43MOL0     H 5796   9.804   1.122   0.058 -1.7821  0.9717  0.9892
   43MOL0     H 5797   9.975   1.231  -0.184 -0.7807 -1.4236 -0.6411
   43MOL0     H 5798   9.964   1.070  -0.124 -1.8865  0.1011  0.0923
   43MOL0     H 5799  10.059   1.186   0.100 -0.9691 -0.0864 -0.8271
   43MOL0     H 5800  10.097   1.319  -0.008 -0.7449  0.2632  2.3836
   43MOL0     H 5801  10.206   1.026  -0.041  1.2276 -0.0431  1.9688
   43MOL0     H 5802  10.298   1.172   0.002 -0.0080 -1.1754  0.7576
   43MOL0     H 5803  10.295   1.279  -0.389 -0.1140  0.0761  0.4391
   43MOL0     H 5804   9.547   1.158  -0.301  0.6624  2.8199 -0.3124
   43MOL0     H 5805   9.316   1.165  -0.247  0.8406 -1.7542  0.4459
   44MOL0     O 5806   0.192  10.757   0.833  1.0050 -0.4109 -0.6202
   44MOL0     C 5807   0.241  10.687   0.926  0.5431 -0.0488 -0.2124
   44MOL0     O 5808   0.175  10.623   1.024 -0.3097 -0.2780  0.0854
   44MOL0     C 5809   0.035  10.621   1.023 -0.1811 -0.6428 -0.2975
   44MOL0     C 5810  -0.046  10.735   1.013 -0.5822 -0.4261  0.5687
   44MOL0     C 5811  -0.187  10.720   0.992 -0.2977 -0.4124  0.7905
   44MOL0     C 5812  -0.247  10.592   0.989  0.2034 -0.9351  0.3318
   44MOL0     O 5813  -0.378  10.581   0.958  0.3073 -0.8102 -0.2600
   44MOL0     C 5814  -0.444  10.504   1.070  0.0384  0.0430  0.4266
   44MOL0     C 5815  -0.502  10.620   1.160  0.0093 -0.2709  0.2979
   44MOL0     C 5816  -0.570  10.731   1.098 -0.3229 -0.4642  0.3303
   44MOL0     C 5817  -0.682  10.691   1.004  0.1771  0.0834 -0.0772
   44MOL0     C 5818  -0.775  10.809   0.975  0.1807  0.1050 -0.1719
   44MOL0     C 5819  -0.909  10.765   0.908  0.9832  1.0599 -0.1732
   44MOL0     C 5820  -0.998  10.885   0.866 -0.7991  0.4128  0.0256
   44MOL0     C 5821  -1.130  10.831   0.809 -0.1876 -0.3237  0.4123
   44MOL0     N 5822  -1.221  10.940   0.773  0.2565  0.1191  0.7612
   44MOL0     C 5823  -1.344  10.971   0.831 -0.3821 -0.3547 -0.4035
   44MOL0     C 5824  -1.397  11.080   0.766 -0.6348 -0.1290  0.0580
   44MOL0     C 5825  -1.531  11.141   0.793 -0.1597 -0.1595 -0.2404
   44MOL0     C 5826  -1.639  11.095   0.704 -0.5094  0.5479  1.1035
   44MOL0     C 5827  -1.780  11.149   0.736  0.0890 -0.3650  0.2134
   44MOL0     C 5828  -1.896  11.079   0.677 -0.4222  0.1163 -0.0528
   44MOL0     O 5829  -1.921  11.132   0.547 -0.9015  0.0149  0.1293
   44MOL0     C 5830  -2.016  11.075   0.473  0.4432  0.3076  0.3988
   44MOL0     C 5831  -2.090  11.154   0.388  1.1450  0.1513 -0.8175
   44MOL0     C 5832  -2.193  11.096   0.306  0.4661  0.6461  0.3794
   44MOL0     C 5833  -2.267  11.175   0.197  0.2385 -0.2985 -0.6801
   44MOL0     C 5834  -2.218  10.951   0.321  0.5524 -0.5727  0.9983
   44MOL0     C 5835  -2.316  10.870   0.241 -1.1720  0.6350 -0.4457
   44MOL0     O 5836  -2.397  10.926   0.156 -0.0773  0.3050  0.1243
   44MOL0     C 5837  -2.517  10.871   0.119 -0.4367  0.1651  0.5276
   44MOL0     C 5838  -2.554  10.903  -0.013 -0.4216  0.6944 -0.0899
   44MOL0     C 5839  -2.656  10.840  -0.083  0.2878  0.1575 -0.3109
   44MOL0     C 5840  -2.735  10.748  -0.023  0.3977  1.2730  0.0948
   44MOL0     O 5841  -2.821  10.674  -0.101  0.9799  0.2460  0.4066
   44MOL0     C 5842  -2.955  10.665  -0.032 -0.0083  0.0365  0.3453
   44MOL0     C 5843  -3.069  10.624  -0.126 -0.1683 -0.2973  0.1172
   44MOL0     C 5844  -3.187  10.554  -0.061 -0.0944 -0.5271 -0.7155
   44MOL0     C 5845  -3.261  10.489  -0.180 -0.2873  0.5101 -0.0220
   44MOL0     C 5846  -3.400  10.438  -0.144 -0.2409  0.0150  0.0382
   44MOL0     C 5847  -3.391  10.309  -0.041  0.1922  0.1617  0.4431
   44MOL0     C 5848  -3.379  10.340   0.112 -0.7237 -0.5271  0.0739
   44MOL0     C 5849  -3.457  10.448   0.166  0.4554 -0.5225  0.3318
   44MOL0    Cl 5850  -3.631  10.387   0.159  0.0128 -0.4435 -0.1625
   44MOL0     C 5851  -2.699  10.714   0.117 -0.3016 -0.1652  0.6801
   44MOL0     C 5852  -2.592  10.777   0.186  0.0349 -0.2130  0.6086
   44MOL0     O 5853  -2.310  10.746   0.259 -0.7527  0.2829  0.2141
   44MOL0     C 5854  -2.138  10.878   0.407  0.0272  0.2804  1.0338
   44MOL0     C 5855  -2.049  10.938   0.488  0.0201 -0.3900  0.1983
   44MOL0     N 5856  -1.313  11.110   0.664  0.4099  0.0551  0.9965
   44MOL0     N 5857  -1.216  11.024   0.665 -0.9181 -0.2507 -0.2864
   44MOL0     C 5858  -0.160  10.478   1.006  0.6633  0.0418  0.1842
   44MOL0     C 5859  -0.022  10.495   1.022  0.0229  0.1458  0.4795
   44MOL0     C 5860   0.392  10.693   0.927 -0.6977 -0.1467  0.1110
   44MOL0     C 5861   0.469  10.627   1.025 -0.0593  0.2678  0.2460
   44MOL0     C 5862   0.609  10.654   1.022 -0.0942 -0.3048 -0.5510
   44MOL0     C 5863   0.668  10.748   0.938 -0.1919 -0.1425  0.5339
   44MOL0     O 5864   0.799  10.788   0.949 -0.4668 -0.3929  0.4848
   44MOL0     C 5865   0.861  10.752   1.071  0.6980  0.3452  0.4063
   44MOL0     C 5866   0.990  10.828   1.086  0.7768 -0.0456 -0.2033
   44MOL0     C 5867   1.087  10.777   0.984  0.3988 -1.3894  0.2619
   44MOL0     C 5868   1.232  10.836   0.965 -0.2730 -0.9655  0.1270
   44MOL0     C 5869   1.249  10.983   0.973 -0.0888  0.0690  0.8628
   44MOL0     C 5870   1.266  11.105   0.972  0.1260 -0.0830  0.2051
   44MOL0     C 5871   0.590  10.801   0.839  0.5682 -0.1990 -0.0473
   44MOL0     C 5872   0.455  10.771   0.829 -1.1091 -0.3844 -0.7677
   44MOL0     H 5873   0.012  10.826   1.013  0.0282 -0.7547  2.5036
   44MOL0     H 5874  -0.237  10.816   0.985 -0.0403 -0.1947  1.7517
   44MOL0     H 5875  -0.530  10.447   1.033 -1.6185  4.1973 -3.0136
   44MOL0     H 5876  -0.375  10.441   1.127  3.5538  4.9457  2.1913
   44MOL0     H 5877  -0.578  10.572   1.222 -1.4419  0.8274 -0.5726
   44MOL0     H 5878  -0.421  10.669   1.214 -1.4340  2.8084 -0.1515
   44MOL0     H 5879  -0.618  10.797   1.171 -1.4682  1.0964 -1.7032
   44MOL0     H 5880  -0.491  10.780   1.039  0.0008 -1.9883 -0.5505
   44MOL0     H 5881  -0.641  10.643   0.915  1.0340  3.1844 -1.5059
   44MOL0     H 5882  -0.729  10.615   1.066  3.8562 -3.5844 -1.3185
   44MOL0     H 5883  -0.795  10.867   1.066  2.5890  4.0309 -1.8403
   44MOL0     H 5884  -0.715  10.875   0.912  2.8364 -0.3121  1.7255
   44MOL0     H 5885  -0.877  10.701   0.825  1.9172 -0.1709  1.0762
   44MOL0     H 5886  -0.962  10.698   0.977 -1.2918 -0.3252 -2.9922
   44MOL0     H 5887  -1.019  10.957   0.946  0.7284 -0.1868  1.0148
   44MOL0     H 5888  -0.949  10.944   0.788 -3.4759 -0.3687 -2.4064
   44MOL0     H 5889  -1.180  10.777   0.890 -0.3534  2.4959  2.3251
   44MOL0     H 5890  -1.111  10.753   0.735 -0.6963 -2.1304  2.0929
   44MOL0     H 5891  -1.402  10.925   0.911 -1.2294  1.9796  0.4077
   44MOL0     H 5892  -1.563  11.111   0.893  0.9291  1.7513  0.7280
   44MOL0     H 5893  -1.533  11.251   0.792 -2.6862 -0.1250  0.8404
   44MOL0     H 5894  -1.636  10.986   0.698 -0.7055  0.6157 -0.5655
   44MOL0     H 5895  -1.616  11.123   0.601 -0.0185  1.1126  1.3591
   44MOL0     H 5896  -1.792  11.256   0.716 -2.4997 -0.5892  0.3006
   44MOL0     H 5897  -1.798  11.137   0.843 -0.5697  0.9970  0.2790
   44MOL0     H 5898  -1.978  11.095   0.747  2.1118  1.7526  2.7734
   44MOL0     H 5899  -1.871  10.973   0.674 -1.4479 -0.1676  0.8830
   44MOL0     H 5900  -2.092  11.263   0.386  0.6329  0.3442  3.1892
   44MOL0     H 5901  -2.226  11.140   0.102  1.4066  3.3306 -1.6608
   44MOL0     H 5902  -2.376  11.182   0.199  0.3608  5.0741  0.0279
   44MOL0     H 5903  -2.228  11.277   0.190 -1.2473  0.2260 -1.8042
   44MOL0     H 5904  -2.489  10.976  -0.062 -0.6653  2.1648  1.6917
   44MOL0     H 5905  -2.673  10.863  -0.188 -1.4101 -0.1834 -0.1318
   44MOL0     H 5906  -2.944  10.584   0.040 -1.7345  1.2957  2.1404
   44MOL0     H 5907  -2.971  10.760   0.021 -1.8328 -0.3162  0.4933
   44MOL0     H 5908  -3.100  10.711  -0.184  0.4766 -0.1365  0.0036
   44MOL0     H 5909  -3.027  10.559  -0.203  2.2992  0.8205  0.3916
   44MOL0     H 5910  -3.249  10.632  -0.016  2.2479  1.2356 -0.3438
   44MOL0     H 5911  -3.157  10.485   0.018  2.8490 -1.1806 -2.2718
   44MOL0     H 5912  -3.266  10.568  -0.255  0.8129  3.8899  3.2009
   44MOL0     H 5913  -3.200  10.406  -0.217 -1.1499  0.0490 -0.4527
   44MOL0     H 5914  -3.447  10.394  -0.232 -1.6862 -0.2821  0.9184
   44MOL0     H 5915  -3.463  10.522  -0.112  1.4792  2.0256 -1.5489
   44MOL0     H 5916  -3.486  10.259  -0.062  0.7217 -0.6651 -0.0115
   44MOL0     H 5917  -3.309  10.251  -0.086 -0.4371 -0.6251  0.2874
   44MOL0     H 5918  -3.272  10.349   0.129 -0.7532 -0.1804  0.0719
   44MOL0     H 5919  -3.413  10.244   0.153 -1.0442 -2.5883 -4.4196
   44MOL0     H 5920  -3.452  10.543   0.112 -2.4775 -1.4669 -1.8959
   44MOL0     H 5921  -3.430  10.463   0.271  0.9200  0.6723  0.0501
   44MOL0     H 5922  -2.764  10.648   0.173  2.4805 -1.1049  3.0890
   44MOL0     H 5923  -2.572  10.751   0.289 -0.1925 -1.8015  0.2774
   44MOL0     H 5924  -2.142  10.769   0.406  1.5986  0.0653 -3.4024
   44MOL0     H 5925  -2.010  10.866   0.560  0.4323 -1.0492 -0.6589
   44MOL0     H 5926  -0.191  10.374   1.002  2.4789 -0.5508  0.8443
   44MOL0     H 5927   0.044  10.410   1.033 -0.4133 -0.2054  0.4287
   44MOL0     H 5928   0.429  10.562   1.102 -1.1552 -0.5041 -0.9394
   44MOL0     H 5929   0.674  10.614   1.099  1.1894 -0.2270 -1.5492
   44MOL0     H 5930   0.800  10.800   1.148 -0.6756  0.0100 -0.4352
   44MOL0     H 5931   0.865  10.646   1.095  1.5902  0.5412  1.1682
   44MOL0     H 5932   1.019  10.815   1.191 -1.5264  1.6602  0.7473
   44MOL0     H 5933   0.969  10.933   1.066  1.3778  0.0752 -0.1986
   44MOL0     H 5934   1.051  10.792   0.881  1.3328  2.5073  0.3338
   44MOL0     H 5935   1.094  10.673   1.015 -0.6431 -1.4574  0.2892
   44MOL0     H 5936   1.291  10.789   0.885 -0.4800 -0.6140 -0.2396
   44MOL0     H 5937   1.281  10.800   1.056  0.5933 -1.2602 -0.4382
   44MOL0     H 5938   1.271  11.211   0.960  0.0495 -0.2636 -1.7908
   44MOL0     H 5939   0.634  10.882   0.781 -0.2314  1.5593  1.7010
   44MOL0     H 5940   0.405  10.836   0.758 -1.3256 -0.5375 -0.7523
   45MOL0     O 5941   8.086   0.843   5.950 -0.1249  0.1527  0.4031
   45MOL0     C 5942   8.171   0.827   6.044  1.2400 -0.7862  0.1019
   45MOL0     O 5943   8.140   0.797   6.173 -0.0923 -0.0451  0.3795
   45MOL0     C 5944   8.017   0.791   6.221  0.7365  0.2208  0.8064
   45MOL0     C 5945   7.903   0.745   6.149  0.1918 -0.4438 -0.2571
   45MOL0     C 5946   7.779   0.728   6.226  0.2225 -0.9683  0.3631
   45MOL0     C 5947   7.778   0.771   6.360  0.0294 -0.8362 -0.0714
   45MOL0     O 5948   7.678   0.738   6.441 -0.2950  0.5200 -0.2116
   45MOL0     C 5949   7.550   0.734   6.377  0.8600  0.6098 -0.5773
   45MOL0     C 5950   7.435   0.741   6.485 -0.5397  0.8098  0.7006
   45MOL0     C 5951   7.294   0.759   6.421 -0.9509  0.4089  0.2342
   45MOL0     C 5952   7.199   0.835   6.517 -0.0720  0.2630 -0.4322
   45MOL0     C 5953   7.092   0.921   6.445 -1.1187 -0.6830  0.1002
   45MOL0     C 5954   6.995   0.844   6.355 -0.0738 -0.0769 -0.5221
   45MOL0     C 5955   6.913   0.938   6.278 -0.5354  0.0954 -0.1588
   45MOL0     C 5956   6.840   0.869   6.176  0.2547  1.6992  0.3118
   45MOL0     N 5957   6.750   0.963   6.099 -0.6582  0.6254 -0.6210
   45MOL0     C 5958   6.743   1.106   6.102  0.4041  0.2381  0.2934
   45MOL0     C 5959   6.663   1.137   5.996 -0.2743  0.4168 -0.6516
   45MOL0     C 5960   6.632   1.277   5.946 -0.0961  0.7722  0.9544
   45MOL0     C 5961   6.637   1.283   5.791 -0.1530  0.5190 -0.1190
   45MOL0     C 5962   6.663   1.425   5.742  0.7389  0.2063 -0.5549
   45MOL0     C 5963   6.636   1.445   5.593 -0.2831  0.7930 -0.1516
   45MOL0     O 5964   6.495   1.452   5.565 -0.5077  0.6658  0.4788
   45MOL0     C 5965   6.421   1.563   5.605 -0.1200 -0.2692  0.1726
   45MOL0     C 5966   6.476   1.688   5.660  0.2159  0.2075  0.7739
   45MOL0     C 5967   6.392   1.785   5.695  0.5777  0.9741 -0.6078
   45MOL0     C 5968   6.460   1.908   5.754  0.4756 -0.0085  0.3052
   45MOL0     C 5969   6.252   1.780   5.670 -0.7681  0.2287  0.0817
   45MOL0     C 5970   6.155   1.886   5.697  0.2787  0.1947  0.8703
   45MOL0     O 5971   6.027   1.845   5.669 -0.1939 -0.5651 -0.5860
   45MOL0     C 5972   5.913   1.904   5.696 -0.1224 -0.1192  0.2984
   45MOL0     C 5973   5.808   1.889   5.597  0.9323 -0.0563 -0.3455
   45MOL0     C 5974   5.681   1.937   5.636  0.3787  0.4119 -0.3808
   45MOL0     C 5975   5.657   2.003   5.757  0.3470  0.7379  0.0740
   45MOL0     O 5976   5.527   2.040   5.795 -0.2632 -0.0595 -0.6175
   45MOL0     C 5977   5.417   2.017   5.718  0.6448  0.8365  0.2041
   45MOL0     C 5978   5.289   2.090   5.756 -0.5544 -0.7210  0.2597
   45MOL0     C 5979   5.259   2.106   5.909 -0.4207 -0.0614  0.2558
   45MOL0     C 5980   5.109   2.133   5.910  0.5908 -0.7984 -0.5992
   45MOL0     C 5981   5.067   2.168   6.047 -0.2177  0.0931 -0.0146
   45MOL0     C 5982   4.924   2.211   6.065 -0.2730 -0.7049  0.2320
   45MOL0     C 5983   4.836   2.079   6.047 -0.3282  0.3411 -0.0401
   45MOL0     C 5984   4.686   2.115   6.051 -0.5839 -0.3651  0.3473
   45MOL0    Cl 5985   4.642   2.232   6.177  0.2146  0.0378  0.1790
   45MOL0     C 5986   5.760   2.023   5.846 -0.6372  0.8807 -0.3924
   45MOL0     C 5987   5.891   1.972   5.818 -0.0968  0.2572 -0.0446
   45MOL0     O 5988   6.185   1.980   5.768  0.4285 -0.2567 -0.3544
   45MOL0     C 5989   6.198   1.656   5.618  0.1564  0.2382  0.9348
   45MOL0     C 5990   6.281   1.551   5.592 -0.6219 -0.0192  0.4471
   45MOL0     N 5991   6.629   1.018   5.927 -0.3547  0.0626 -0.7673
   45MOL0     N 5992   6.683   0.918   5.994  0.2899 -1.1680 -0.6113
   45MOL0     C 5993   7.896   0.822   6.420 -0.1243 -1.2481  0.4786
   45MOL0     C 5994   8.016   0.838   6.352  0.6524  0.3208  0.4923
   45MOL0     C 5995   8.309   0.847   6.021  0.3092  0.6597 -0.2263
   45MOL0     C 5996   8.363   0.862   5.891  0.3766  1.5544  0.5854
   45MOL0     C 5997   8.500   0.878   5.865  0.1049 -0.6835 -0.3781
   45MOL0     C 5998   8.585   0.885   5.978  0.1953 -0.0962 -0.0717
   45MOL0     O 5999   8.721   0.925   5.975 -0.0124 -0.8938  0.0628
   45MOL0     C 6000   8.786   0.880   5.862  0.1551  0.5054  0.3249
   45MOL0     C 6001   8.939   0.903   5.866  0.4581  0.2177  0.5629
   45MOL0     C 6002   8.964   1.061   5.868  0.4292  0.0777  0.2096
   45MOL0     C 6003   9.106   1.095   5.904 -0.0592 -0.3302 -0.7716
   45MOL0     C 6004   9.114   1.242   5.916  0.6692  0.2017  1.0190
   45MOL0     C 6005   9.125   1.362   5.928  0.1613  1.7011 -0.0132
   45MOL0     C 6006   8.539   0.859   6.108  0.1682 -0.3195 -0.0646
   45MOL0     C 6007   8.403   0.849   6.130 -0.0264  0.1399 -0.1287
   45MOL0     H 6008   7.893   0.712   6.046 -0.0839  0.4129 -0.5081
   45MOL0     H 6009   7.691   0.682   6.180 -1.2105  1.6041  0.3564
   45MOL0     H 6010   7.537   0.809   6.298 -0.5720  0.1387 -0.8189
   45MOL0     H 6011   7.553   0.640   6.323  0.9944 -1.4017  2.6321
   45MOL0     H 6012   7.455   0.650   6.543 -0.1689 -0.1822 -0.9252
   45MOL0     H 6013   7.459   0.832   6.541 -0.0329  1.4732 -0.5548
   45MOL0     H 6014   7.293   0.811   6.325 -1.4524 -0.0486 -0.0146
   45MOL0     H 6015   7.241   0.667   6.395 -1.4114  1.5349 -3.3206
   45MOL0     H 6016   7.159   0.765   6.591  2.6606  0.9354  1.8644
   45MOL0     H 6017   7.257   0.904   6.579  0.6244  0.1057 -0.8985
   45MOL0     H 6018   7.025   0.979   6.509 -1.5109  0.1283 -1.0049
   45MOL0     H 6019   7.148   0.996   6.388  2.1954 -2.3374  0.9406
   45MOL0     H 6020   7.038   0.769   6.288  0.9532  2.0162 -2.3069
   45MOL0     H 6021   6.929   0.789   6.424 -2.9063  2.9079 -0.5977
   45MOL0     H 6022   6.852   0.993   6.351  1.2838 -0.7678  2.1582
   45MOL0     H 6023   6.972   1.019   6.234 -3.4292  3.0213  0.8910
   45MOL0     H 6024   6.776   0.787   6.212  2.7581 -0.1820  0.7447
   45MOL0     H 6025   6.914   0.821   6.111  0.7091  2.3306  0.3674
   45MOL0     H 6026   6.794   1.171   6.173 -1.1325  0.7908  0.9197
   45MOL0     H 6027   6.533   1.295   5.986 -1.0719 -2.2791  0.2154
   45MOL0     H 6028   6.707   1.349   5.981  0.2073  1.2102 -0.5157
   45MOL0     H 6029   6.542   1.242   5.754 -0.8672 -0.2051  2.3180
   45MOL0     H 6030   6.716   1.215   5.757 -0.2752 -1.9626  3.8522
   45MOL0     H 6031   6.768   1.454   5.758  1.0193 -0.6141 -0.8660
   45MOL0     H 6032   6.588   1.485   5.793 -1.1832 -1.1780 -1.6446
   45MOL0     H 6033   6.670   1.364   5.528 -2.9954  0.2202 -0.9641
   45MOL0     H 6034   6.689   1.532   5.554 -0.8744  0.1995 -2.4103
   45MOL0     H 6035   6.583   1.705   5.664  0.0370  2.1419 -0.9591
   45MOL0     H 6036   6.448   1.921   5.862  0.5626 -2.1447  0.6135
   45MOL0     H 6037   6.567   1.908   5.733  0.4364 -0.1482  0.1132
   45MOL0     H 6038   6.422   1.996   5.701  0.5864  0.0482  0.3191
   45MOL0     H 6039   5.841   1.832   5.511  4.1277  0.6622  0.2403
   45MOL0     H 6040   5.601   1.921   5.564 -1.5407  5.3370  0.2697
   45MOL0     H 6041   5.436   2.035   5.612 -0.9738  0.7133 -0.1288
   45MOL0     H 6042   5.402   1.910   5.731 -1.4298  1.0978  0.2734
   45MOL0     H 6043   5.292   2.189   5.711 -4.5541 -0.7359 -0.4292
   45MOL0     H 6044   5.212   2.032   5.703 -2.7054 -0.4129  2.7896
   45MOL0     H 6045   5.325   2.184   5.946 -0.6393 -0.2063  0.9675
   45MOL0     H 6046   5.278   2.014   5.966 -3.0182 -1.3970 -0.8479
   45MOL0     H 6047   5.092   2.219   5.844 -1.0152 -1.6921 -1.4257
   45MOL0     H 6048   5.057   2.049   5.864 -1.9667  1.6165 -2.4954
   45MOL0     H 6049   5.132   2.244   6.092  0.3599  1.5316 -3.0228
   45MOL0     H 6050   5.086   2.080   6.108  1.7310  0.1227 -0.4907
   45MOL0     H 6051   4.912   2.241   6.169 -0.5798 -0.1204  0.0316
   45MOL0     H 6052   4.907   2.295   5.998 -0.6441 -0.5965  0.4599
   45MOL0     H 6053   4.862   2.000   6.119  1.2756  0.3075 -0.6001
   45MOL0     H 6054   4.866   2.038   5.950  1.8995 -1.8941  1.4387
   45MOL0     H 6055   4.630   2.021   6.052  0.0487 -0.8237 -2.0263
   45MOL0     H 6056   4.669   2.161   5.953  3.4528 -0.1474 -0.4234
   45MOL0     H 6057   5.759   2.070   5.944 -2.1089  0.3537 -0.1348
   45MOL0     H 6058   5.974   1.977   5.888  0.7087 -0.9656 -0.8607
   45MOL0     H 6059   6.092   1.634   5.614  0.3766 -1.8597  3.3447
   45MOL0     H 6060   6.242   1.461   5.547  0.8182 -0.4975  0.0876
   45MOL0     H 6061   7.895   0.864   6.520  3.2270  1.7961 -0.5489
   45MOL0     H 6062   8.098   0.878   6.412 -2.7072  2.0889  4.4274
   45MOL0     H 6063   8.297   0.876   5.806  1.1902  0.9857 -0.1569
   45MOL0     H 6064   8.534   0.899   5.764  1.1913 -0.8248 -0.0514
   45MOL0     H 6065   8.755   0.776   5.849 -1.6840  0.9373  0.9360
   45MOL0     H 6066   8.751   0.932   5.773  0.1658  0.7434  0.4596
   45MOL0     H 6067   8.980   0.858   5.775  0.1478  1.3068 -0.1264
   45MOL0     H 6068   8.988   0.861   5.955  1.7469  2.7108  1.1114
   45MOL0     H 6069   8.893   1.101   5.941  0.4025 -3.0579  2.0583
   45MOL0     H 6070   8.939   1.101   5.769 -0.2265 -0.8571 -0.0168
   45MOL0     H 6071   9.173   1.049   5.830  0.9663 -0.3927  0.1634
   45MOL0     H 6072   9.138   1.053   6.000  0.5215  2.4241  0.3269
   45MOL0     H 6073   9.127   1.465   5.957  0.9921  1.7201 -0.1218
   45MOL0     H 6074   8.610   0.878   6.187  2.0955 -1.3898 -1.4656
   45MOL0     H 6075   8.368   0.842   6.233 -1.9308 -2.9071 -0.8819
   46MOL0     O 6076   1.315   6.852   0.270 -0.3411 -0.2623  0.2614
   46MOL0     C 6077   1.355   6.910   0.370 -0.5212  0.0517 -0.0147
   46MOL0     O 6078   1.288   6.992   0.460 -0.0534 -0.4370  0.2388
   46MOL0     C 6079   1.144   6.984   0.458  0.3583  0.4019  0.3361
   46MOL0     C 6080   1.084   7.097   0.511 -0.5019  0.4242 -0.6972
   46MOL0     C 6081   0.946   7.098   0.512  0.2588  0.1392  0.4426
   46MOL0     C 6082   0.871   6.999   0.456  0.6894 -1.4647  0.2422
   46MOL0     O 6083   0.736   6.992   0.465  0.2851  0.0027 -0.8215
   46MOL0     C 6084   0.674   7.118   0.486 -1.0006 -0.4759 -0.2975
   46MOL0     C 6085   0.522   7.111   0.460  0.5768  0.5022  0.8798
   46MOL0     C 6086   0.464   7.074   0.597  0.3750 -0.2980  0.5216
   46MOL0     C 6087   0.307   7.079   0.581 -0.3093 -0.2494 -0.6764
   46MOL0     C 6088   0.237   7.070   0.720 -0.5744  0.7995 -0.0805
   46MOL0     C 6089   0.085   7.058   0.720 -0.2040 -0.2813  0.6960
   46MOL0     C 6090   0.014   7.064   0.858 -0.9606 -0.2378 -0.1142
   46MOL0     C 6091   0.004   6.915   0.906  0.6365 -0.4049  0.3974
   46MOL0     N 6092  -0.042   6.919   1.044 -0.2955 -0.3819 -0.2916
   46MOL0     C 6093  -0.162   6.957   1.094 -0.5014  0.7904 -0.2261
   46MOL0     C 6094  -0.157   6.899   1.222  0.4319  0.8711 -0.1423
   46MOL0     C 6095  -0.270   6.889   1.330 -0.5586 -0.4552  0.5771
   46MOL0     C 6096  -0.345   6.764   1.322 -0.1550  0.3810  1.1776
   46MOL0     C 6097  -0.462   6.759   1.423  0.4186 -0.4374  0.0251
   46MOL0     C 6098  -0.549   6.638   1.405  0.7331 -0.1980 -0.0045
   46MOL0     O 6099  -0.676   6.651   1.476 -0.0701 -0.5041 -0.0302
   46MOL0     C 6100  -0.777   6.570   1.440 -0.2457  0.6937  0.6603
   46MOL0     C 6101  -0.767   6.456   1.371 -0.9120  0.1758  0.8454
   46MOL0     C 6102  -0.874   6.368   1.335  0.0365  0.0401  0.4959
   46MOL0     C 6103  -0.861   6.248   1.248 -0.4101 -0.3326  0.5537
   46MOL0     C 6104  -1.004   6.419   1.368  0.2919  0.6392 -0.0504
   46MOL0     C 6105  -1.129   6.351   1.326 -0.1269 -0.2784 -0.3775
   46MOL0     O 6106  -1.226   6.439   1.306  0.3667 -0.0253 -0.6743
   46MOL0     C 6107  -1.354   6.406   1.259  0.1667 -0.0465 -0.3713
   46MOL0     C 6108  -1.375   6.298   1.170  0.6666  0.0006 -0.1714
   46MOL0     C 6109  -1.502   6.267   1.123  0.6402 -0.3087 -0.1961
   46MOL0     C 6110  -1.606   6.357   1.151 -0.1668  1.1093  0.1222
   46MOL0     O 6111  -1.738   6.333   1.116 -0.0745 -0.4509  0.2976
   46MOL0     C 6112  -1.778   6.221   1.033  0.2534 -0.4506 -0.4791
   46MOL0     C 6113  -1.917   6.240   0.969  0.3956 -0.1478 -0.7970
   46MOL0     C 6114  -1.924   6.354   0.857 -0.7117 -0.1228 -0.1601
   46MOL0     C 6115  -2.028   6.310   0.750 -1.1540 -0.4229  0.4800
   46MOL0     C 6116  -2.177   6.318   0.791 -0.4236 -0.5760  0.1803
   46MOL0     C 6117  -2.262   6.252   0.678  0.4945 -1.0479  0.4154
   46MOL0     C 6118  -2.403   6.226   0.729  1.0515 -0.1196  0.0984
   46MOL0     C 6119  -2.496   6.200   0.615  0.2136  0.2119 -0.7689
   46MOL0    Cl 6120  -2.659   6.168   0.679  0.3646 -0.0885  0.1383
   46MOL0     C 6121  -1.585   6.465   1.233  0.2047 -0.9492  0.1702
   46MOL0     C 6122  -1.462   6.490   1.292  0.4076 -0.4728 -0.6991
   46MOL0     O 6123  -1.138   6.225   1.320 -0.3599 -0.0629 -0.3495
   46MOL0     C 6124  -1.014   6.541   1.438  0.0648  0.4884  0.4183
   46MOL0     C 6125  -0.905   6.607   1.480  0.1549 -0.0169 -0.4841
   46MOL0     N 6126  -0.034   6.846   1.247  0.0585  0.5582 -0.3225
   46MOL0     N 6127   0.030   6.864   1.145  0.6686 -0.3086  0.4172
   46MOL0     C 6128   0.934   6.880   0.436 -0.5818  0.7778  0.6239
   46MOL0     C 6129   1.071   6.866   0.431  0.2926  0.1641  0.1198
   46MOL0     C 6130   1.503   6.879   0.403 -0.4967  0.2479 -0.1217
   46MOL0     C 6131   1.568   6.773   0.340 -0.6404 -0.8668  0.0586
   46MOL0     C 6132   1.703   6.753   0.363  0.1684 -0.2669  0.3839
   46MOL0     C 6133   1.778   6.835   0.444 -0.3255 -0.0159  0.2526
   46MOL0     O 6134   1.906   6.798   0.463 -0.0287  0.2929 -0.1248
   46MOL0     C 6135   2.003   6.884   0.516 -0.0927 -0.6383  0.2432
   46MOL0     C 6136   2.030   7.010   0.433 -0.0183 -0.6073  0.1448
   46MOL0     C 6137   2.095   6.975   0.303  0.1349  0.3903  0.0531
   46MOL0     C 6138   2.248   6.960   0.307 -0.1234  0.0436  0.1360
   46MOL0     C 6139   2.311   7.096   0.295 -0.0901  1.1873  1.0602
   46MOL0     C 6140   2.376   7.197   0.301  0.9707  0.0028  0.2565
   46MOL0     C 6141   1.706   6.928   0.524 -0.1047  0.0716 -0.5257
   46MOL0     C 6142   1.568   6.954   0.507 -0.5771 -0.1103  0.1846
   46MOL0     H 6143   1.149   7.179   0.541  2.2679 -2.2103  0.9948
   46MOL0     H 6144   0.896   7.182   0.558  0.5261  1.6506 -1.8572
   46MOL0     H 6145   0.701   7.166   0.581  1.1826  3.1557 -2.5188
   46MOL0     H 6146   0.705   7.180   0.401 -0.9727 -1.8634 -1.3293
   46MOL0     H 6147   0.488   7.207   0.420 -0.5510 -1.2274 -2.7115
   46MOL0     H 6148   0.504   7.031   0.388  0.0289 -1.4487  3.0517
   46MOL0     H 6149   0.496   6.972   0.620  0.4144 -0.3093  0.4147
   46MOL0     H 6150   0.476   7.146   0.678 -0.2043  1.0905 -0.5877
   46MOL0     H 6151   0.275   7.174   0.536  1.1449  0.7162  0.2279
   46MOL0     H 6152   0.272   6.997   0.518 -0.4670 -0.0482 -0.8522
   46MOL0     H 6153   0.278   6.984   0.772  0.3040 -0.8550 -3.2456
   46MOL0     H 6154   0.260   7.159   0.780  0.3942 -1.7711  3.6586
   46MOL0     H 6155   0.060   7.144   0.657  1.4677 -0.6973 -0.6194
   46MOL0     H 6156   0.049   6.977   0.656  1.0654 -0.0350 -0.3942
   46MOL0     H 6157   0.080   7.118   0.927 -1.7685 -0.2634  0.6879
   46MOL0     H 6158  -0.080   7.116   0.840  0.5103  1.8690 -2.3537
   46MOL0     H 6159   0.103   6.869   0.900  0.5449 -0.4593 -1.2767
   46MOL0     H 6160  -0.069   6.863   0.843  1.6934  0.3613 -1.5550
   46MOL0     H 6161  -0.243   7.013   1.047 -1.6043  0.7655  1.5567
   46MOL0     H 6162  -0.227   6.890   1.431  2.7493 -1.8343 -0.6800
   46MOL0     H 6163  -0.331   6.977   1.308  1.8190  2.3411  3.9222
   46MOL0     H 6164  -0.291   6.670   1.335 -1.2033 -0.4850 -0.3674
   46MOL0     H 6165  -0.382   6.757   1.219  2.2732  0.5932  0.2177
   46MOL0     H 6166  -0.527   6.847   1.419  2.1353  0.9673  1.2272
   46MOL0     H 6167  -0.410   6.749   1.518  0.5676  0.5498  0.0676
   46MOL0     H 6168  -0.499   6.547   1.438  0.3461  0.0351  1.2760
   46MOL0     H 6169  -0.562   6.621   1.297 -4.3391  1.0517  0.1587
   46MOL0     H 6170  -0.673   6.423   1.329 -2.4567 -2.6880 -0.6778
   46MOL0     H 6171  -0.864   6.155   1.306  1.2157 -1.2550 -0.7621
   46MOL0     H 6172  -0.935   6.259   1.168 -0.6337  0.5925  0.8797
   46MOL0     H 6173  -0.756   6.248   1.219  1.4560 -0.1361  6.0995
   46MOL0     H 6174  -1.292   6.232   1.150  2.7373  1.4333  2.9267
   46MOL0     H 6175  -1.522   6.184   1.056 -2.7093 -0.1329  0.4088
   46MOL0     H 6176  -1.702   6.192   0.960 -0.6311 -1.0611 -1.1871
   46MOL0     H 6177  -1.790   6.136   1.101 -0.7425  0.0955  0.0495
   46MOL0     H 6178  -1.955   6.144   0.934  1.3956 -1.3876  1.2457
   46MOL0     H 6179  -1.976   6.278   1.053 -0.6683 -1.7359 -0.7932
   46MOL0     H 6180  -1.822   6.368   0.819 -0.1035  0.9021  1.7424
   46MOL0     H 6181  -1.960   6.441   0.911 -2.5499 -2.2220  2.2494
   46MOL0     H 6182  -2.023   6.385   0.670  1.2569  0.1338  1.0554
   46MOL0     H 6183  -2.017   6.212   0.703  0.6619 -0.1216  0.1967
   46MOL0     H 6184  -2.214   6.420   0.803  0.2048 -0.1725 -1.0861
   46MOL0     H 6185  -2.200   6.262   0.882 -1.0669 -1.7631 -0.6793
   46MOL0     H 6186  -2.271   6.315   0.589  1.9213 -1.6569 -0.1934
   46MOL0     H 6187  -2.220   6.158   0.642 -0.0929 -0.4939 -1.8654
   46MOL0     H 6188  -2.437   6.316   0.782 -0.3144 -1.3628  1.4185
   46MOL0     H 6189  -2.400   6.141   0.798 -2.4335  0.6603  1.4216
   46MOL0     H 6190  -2.463   6.108   0.566 -0.7938 -1.8590  2.1408
   46MOL0     H 6191  -2.494   6.285   0.546 -0.7956 -1.6136 -3.2472
   46MOL0     H 6192  -1.664   6.528   1.272  1.4659  1.0688 -0.3825
   46MOL0     H 6193  -1.451   6.582   1.349  1.7582 -0.4312 -0.9924
   46MOL0     H 6194  -1.110   6.578   1.472 -1.8183 -2.6307 -1.0416
   46MOL0     H 6195  -0.911   6.695   1.543  1.3160  0.2555 -0.7242
   46MOL0     H 6196   0.872   6.791   0.429  0.5619 -0.3430  3.3221
   46MOL0     H 6197   1.117   6.769   0.412  1.6963  1.1030 -1.5717
   46MOL0     H 6198   1.510   6.712   0.270  1.6447 -0.5338 -2.2806
   46MOL0     H 6199   1.764   6.674   0.320  0.5465  1.2017 -1.9838
   46MOL0     H 6200   1.969   6.919   0.614  4.0598 -2.8197  2.7752
   46MOL0     H 6201   2.098   6.830   0.520  0.5146  0.2937 -1.0374
   46MOL0     H 6202   2.094   7.083   0.483  1.3493 -1.0045 -0.9756
   46MOL0     H 6203   1.931   7.056   0.425  0.3712  0.5593  1.4865
   46MOL0     H 6204   2.054   7.045   0.230 -1.0390  0.5733  0.8491
   46MOL0     H 6205   2.053   6.877   0.278 -2.7673  1.6745 -0.5470
   46MOL0     H 6206   2.281   6.885   0.235  0.8187  1.3269 -0.8149
   46MOL0     H 6207   2.281   6.925   0.405  2.9063 -0.1428 -0.8739
   46MOL0     H 6208   2.413   7.297   0.292 -0.0576  0.1915 -2.9673
   46MOL0     H 6209   1.752   6.985   0.603 -3.2492  1.8171  0.2089
   46MOL0     H 6210   1.516   7.026   0.569 -3.3102 -0.8789 -1.0668
   47MOL0     O 6211   6.192   1.546   2.060 -0.0321 -0.6291  0.0604
   47MOL0     C 6212   6.267   1.468   2.116 -0.5453 -0.8759  1.1998
   47MOL0     O 6213   6.230   1.355   2.174  0.1699 -0.2003  0.4601
   47MOL0     C 6214   6.110   1.304   2.144  0.0507  0.8131  1.1153
   47MOL0     C 6215   5.997   1.326   2.226 -0.3313 -0.7764  0.1020
   47MOL0     C 6216   5.872   1.282   2.184  0.5509 -0.1993 -0.1681
   47MOL0     C 6217   5.856   1.208   2.066 -0.0477 -0.2098 -0.3831
   47MOL0     O 6218   5.741   1.148   2.046 -0.2684 -0.3988 -0.3755
   47MOL0     C 6219   5.739   1.026   1.969  0.2268 -0.4447 -0.4223
   47MOL0     C 6220   5.620   0.935   1.989  0.3343 -0.1619  0.5075
   47MOL0     C 6221   5.575   0.936   2.137  0.2739 -0.2255 -0.4189
   47MOL0     C 6222   5.483   0.830   2.160  0.0044 -0.7590  0.3429
   47MOL0     C 6223   5.451   0.811   2.301 -0.4715  0.1460 -0.0430
   47MOL0     C 6224   5.338   0.914   2.344  0.0263 -0.0046  0.2421
   47MOL0     C 6225   5.291   0.880   2.489 -0.6445  0.0564  0.5804
   47MOL0     C 6226   5.165   0.968   2.510 -0.2590  0.1960  0.8170
   47MOL0     N 6227   5.101   0.963   2.641 -0.5222  0.6338 -0.7192
   47MOL0     C 6228   5.007   0.878   2.675  0.7943 -0.2218  0.8879
   47MOL0     C 6229   4.992   0.890   2.807  0.0352 -0.2028 -0.5042
   47MOL0     C 6230   4.902   0.812   2.889 -0.7041  0.0373 -0.4195
   47MOL0     C 6231   4.754   0.835   2.849 -0.1034 -0.1461  0.4924
   47MOL0     C 6232   4.658   0.728   2.912 -1.5945 -0.4762 -0.4466
   47MOL0     C 6233   4.625   0.746   3.065  0.1788  0.2932  0.5267
   47MOL0     O 6234   4.544   0.862   3.093 -0.3746  0.5056 -0.0089
   47MOL0     C 6235   4.425   0.825   3.135  0.5229  0.6465 -0.7071
   47MOL0     C 6236   4.311   0.897   3.102  0.1205 -0.8549 -0.4586
   47MOL0     C 6237   4.188   0.879   3.163  0.7194  0.2585  0.7427
   47MOL0     C 6238   4.085   0.981   3.129  0.3653 -0.7417  0.1396
   47MOL0     C 6239   4.162   0.776   3.256  0.5073  0.4588  1.1243
   47MOL0     C 6240   4.033   0.749   3.332 -0.1215 -0.3265  0.1480
   47MOL0     O 6241   3.923   0.820   3.306  0.6261  0.2876 -0.9485
   47MOL0     C 6242   3.797   0.772   3.344  0.7160  0.0386 -0.7422
   47MOL0     C 6243   3.762   0.740   3.476  0.2658  0.1954 -0.5764
   47MOL0     C 6244   3.637   0.695   3.520  0.1250 -0.0643 -0.3654
   47MOL0     C 6245   3.533   0.704   3.426  0.5894  0.2906 -0.5910
   47MOL0     O 6246   3.403   0.673   3.458 -0.3341 -0.0887  0.3359
   47MOL0     C 6247   3.380   0.552   3.534  0.4011 -0.5277  0.0696
   47MOL0     C 6248   3.311   0.436   3.461  0.4018  0.9631 -0.1245
   47MOL0     C 6249   3.268   0.325   3.555 -0.0539 -0.2478  0.5400
   47MOL0     C 6250   3.218   0.199   3.480 -0.4005  0.0370  0.9424
   47MOL0     C 6251   3.080   0.212   3.420 -0.2478  0.4641  0.2508
   47MOL0     C 6252   3.033   0.089   3.335  0.3956  0.1200  0.3697
   47MOL0     C 6253   3.101   0.089   3.195  0.3764 -0.4183  0.0191
   47MOL0     C 6254   3.021  -0.005   3.110 -0.1941 -0.2867  0.0566
   47MOL0    Cl 6255   3.114  -0.071   2.975 -0.1036 -0.2008 -0.0426
   47MOL0     C 6256   3.556   0.752   3.293  0.4711 -0.3222  0.5980
   47MOL0     C 6257   3.687   0.770   3.254  0.3128 -0.3404 -0.0673
   47MOL0     O 6258   4.043   0.651   3.402 -0.0140  0.2258  0.0507
   47MOL0     C 6259   4.280   0.702   3.286 -0.4312  0.2687 -0.1755
   47MOL0     C 6260   4.407   0.731   3.233  0.8604 -0.5647 -0.5939
   47MOL0     N 6261   5.079   0.983   2.849  1.1629  0.0489  0.2652
   47MOL0     N 6262   5.147   1.027   2.746  0.5467  0.4123  0.0918
   47MOL0     C 6263   5.966   1.188   1.981  0.2965  1.4004  0.4118
   47MOL0     C 6264   6.092   1.230   2.026  0.3653  0.2829  0.1346
   47MOL0     C 6265   6.413   1.504   2.127  0.5530  0.7907 -0.0714
   47MOL0     C 6266   6.459   1.628   2.068  0.6331  0.1208 -0.2544
   47MOL0     C 6267   6.583   1.666   2.091 -0.9679 -0.0355 -0.3690
   47MOL0     C 6268   6.679   1.599   2.169  0.6094  0.7130 -0.0476
   47MOL0     O 6269   6.805   1.663   2.187  0.2900 -0.3832  0.5505
   47MOL0     C 6270   6.897   1.611   2.293 -0.1937  0.5238  0.4686
   47MOL0     C 6271   7.036   1.614   2.235  0.3144 -0.6834  0.5667
   47MOL0     C 6272   7.138   1.578   2.344  0.5770  0.3407  0.1186
   47MOL0     C 6273   7.196   1.443   2.308  0.0401  0.2827  0.7249
   47MOL0     C 6274   7.094   1.339   2.337  0.3758  0.9626 -0.3531
   47MOL0     C 6275   7.007   1.265   2.387  1.4649 -0.4444  0.5476
   47MOL0     C 6276   6.633   1.490   2.232  0.0810 -0.2775 -0.1041
   47MOL0     C 6277   6.506   1.431   2.200  0.0794 -1.1138 -0.5475
   47MOL0     H 6278   6.018   1.389   2.312 -0.0299 -0.4037 -0.2418
   47MOL0     H 6279   5.786   1.291   2.250 -0.1666  1.2815 -1.2540
   47MOL0     H 6280   5.741   1.046   1.861 -2.5041  0.4191 -0.3695
   47MOL0     H 6281   5.826   0.973   2.008 -0.2436 -0.9086  0.0020
   47MOL0     H 6282   5.539   0.976   1.928 -0.4815 -1.2433  0.8361
   47MOL0     H 6283   5.644   0.833   1.957 -0.3722 -0.2862  0.3451
   47MOL0     H 6284   5.661   0.934   2.205  1.0596 -1.3936 -1.3884
   47MOL0     H 6285   5.529   1.035   2.140 -1.5570 -1.0107 -1.2684
   47MOL0     H 6286   5.391   0.855   2.106 -0.0088 -1.5989 -0.0281
   47MOL0     H 6287   5.516   0.734   2.119  0.3321  0.5001 -2.5862
   47MOL0     H 6288   5.405   0.711   2.306 -0.7689  0.2558 -0.5211
   47MOL0     H 6289   5.540   0.807   2.365 -0.2656 -2.6017 -0.3752
   47MOL0     H 6290   5.379   1.015   2.353 -1.6413  0.5954  1.7134
   47MOL0     H 6291   5.261   0.902   2.268  0.3254 -1.0612  0.0844
   47MOL0     H 6292   5.265   0.775   2.503 -1.9880  0.5530  2.1997
   47MOL0     H 6293   5.369   0.895   2.564  1.0844 -1.8800 -0.7354
   47MOL0     H 6294   5.087   0.939   2.438  0.5759 -2.0084  0.7436
   47MOL0     H 6295   5.178   1.071   2.476  0.1967  0.2204  1.0638
   47MOL0     H 6296   4.960   0.800   2.615 -0.4682 -0.2236  1.8331
   47MOL0     H 6297   4.932   0.707   2.878  4.1098  0.6292  3.3420
   47MOL0     H 6298   4.916   0.820   2.997 -1.5905 -1.8234 -0.1155
   47MOL0     H 6299   4.729   0.828   2.742 -1.3646  0.0054  0.7531
   47MOL0     H 6300   4.730   0.938   2.878  0.7332 -0.0437  0.8232
   47MOL0     H 6301   4.712   0.635   2.894 -0.8159 -0.6081  2.1272
   47MOL0     H 6302   4.559   0.728   2.866 -1.9056 -1.9978  0.1493
   47MOL0     H 6303   4.717   0.759   3.124  0.0501  2.5872  0.3302
   47MOL0     H 6304   4.584   0.650   3.095  0.0359 -0.0156 -0.6252
   47MOL0     H 6305   4.326   0.991   3.050  0.1761  0.2605  1.4841
   47MOL0     H 6306   4.115   1.036   3.039 -2.8288 -2.3016 -2.0785
   47MOL0     H 6307   3.986   0.942   3.102  0.9995 -0.3264 -3.2287
   47MOL0     H 6308   4.068   1.052   3.211  0.4569 -1.6501  0.9683
   47MOL0     H 6309   3.842   0.735   3.548  0.6053 -1.9768 -1.0235
   47MOL0     H 6310   3.621   0.662   3.622  2.5109 -3.5555 -0.9218
   47MOL0     H 6311   3.472   0.523   3.586  2.2909  4.4697  0.1246
   47MOL0     H 6312   3.311   0.571   3.617  1.8750 -0.2090  1.2799
   47MOL0     H 6313   3.225   0.478   3.408  2.3589  0.8733 -3.6628
   47MOL0     H 6314   3.379   0.400   3.384  0.9016  2.6995 -0.5524
   47MOL0     H 6315   3.198   0.364   3.630 -0.4361  2.0505 -0.9101
   47MOL0     H 6316   3.366   0.295   3.594  1.1744  3.1548  0.3699
   47MOL0     H 6317   3.284   0.179   3.396 -2.1073 -0.0221 -0.4514
   47MOL0     H 6318   3.221   0.116   3.551 -1.0128 -1.8532 -1.1425
   47MOL0     H 6319   3.085   0.305   3.364  1.5453  0.7420  0.7872
   47MOL0     H 6320   3.008   0.229   3.500 -1.2197  0.0164 -0.5080
   47MOL0     H 6321   3.064  -0.006   3.379  0.7798  0.9025  1.8805
   47MOL0     H 6322   2.925   0.106   3.332  0.5339  1.4374  1.7910
   47MOL0     H 6323   3.201   0.048   3.217  1.9038  3.3094  0.8561
   47MOL0     H 6324   3.107   0.188   3.149  1.0368 -0.0045  0.9445
   47MOL0     H 6325   2.937   0.053   3.069  0.6705 -0.3619 -1.9392
   47MOL0     H 6326   2.987  -0.087   3.173 -1.1674 -0.4468 -0.6609
   47MOL0     H 6327   3.474   0.767   3.223  2.8136  2.9433 -1.7884
   47MOL0     H 6328   3.720   0.803   3.156 -0.2320  0.0097 -0.1395
   47MOL0     H 6329   4.277   0.633   3.370  0.4127  1.3174  0.7547
   47MOL0     H 6330   4.483   0.675   3.287  0.9147 -0.5488 -0.6540
   47MOL0     H 6331   5.950   1.130   1.890  0.2708  0.7472  0.8261
   47MOL0     H 6332   6.171   1.234   1.953  0.2977  4.0116  0.0445
   47MOL0     H 6333   6.388   1.694   2.019 -1.3407  0.8425  3.1945
   47MOL0     H 6334   6.612   1.762   2.050 -1.2781  0.1264 -0.2144
   47MOL0     H 6335   6.886   1.669   2.386  2.4350 -1.0194  1.8506
   47MOL0     H 6336   6.875   1.505   2.306  0.8216 -0.0935 -2.1875
   47MOL0     H 6337   7.059   1.713   2.195 -1.4167  0.5086  2.3546
   47MOL0     H 6338   7.040   1.548   2.148  2.8618  0.3284 -0.1754
   47MOL0     H 6339   7.088   1.575   2.440  1.5862 -1.1778  0.6321
   47MOL0     H 6340   7.216   1.655   2.339 -0.6264  1.5412 -1.2491
   47MOL0     H 6341   7.282   1.430   2.375  0.2283 -1.1216  0.2316
   47MOL0     H 6342   7.239   1.438   2.208 -0.7562 -2.1854  0.4431
   47MOL0     H 6343   6.935   1.209   2.443 -1.0003  0.8029 -1.1987
   47MOL0     H 6344   6.679   1.438   2.316  3.1721 -1.9433 -2.5802
   47MOL0     H 6345   6.488   1.338   2.253 -1.0408 -0.4550  0.2631
   48MOL0     O 6346   8.705   5.390   9.383  0.1369 -0.2595  0.1115
   48MOL0     C 6347   8.721   5.389   9.504 -0.0062  0.4037  0.2364
   48MOL0     O 6348   8.651   5.471   9.595  0.5168  0.0279  0.5266
   48MOL0     C 6349   8.540   5.530   9.549  0.2688  0.1186  0.9358
   48MOL0     C 6350   8.415   5.498   9.613  0.4840 -0.0890 -0.1501
   48MOL0     C 6351   8.295   5.563   9.565  0.0035  0.0323 -0.2860
   48MOL0     C 6352   8.299   5.658   9.460 -0.2523  0.0522 -0.6264
   48MOL0     O 6353   8.181   5.705   9.424 -0.2107  0.2868  0.1773
   48MOL0     C 6354   8.165   5.731   9.289  0.1600 -0.1793 -0.0610
   48MOL0     C 6355   8.021   5.786   9.277 -0.0753  0.8351 -0.3059
   48MOL0     C 6356   7.919   5.671   9.314 -0.0715 -0.4849 -0.7812
   48MOL0     C 6357   7.780   5.724   9.298  0.0355 -0.0348  0.2180
   48MOL0     C 6358   7.670   5.622   9.334  0.2494 -0.0124  0.5043
   48MOL0     C 6359   7.684   5.576   9.483  0.7421  0.2676  0.4084
   48MOL0     C 6360   7.603   5.458   9.532  0.1608 -0.0976  1.2092
   48MOL0     C 6361   7.452   5.475   9.501 -0.2217  0.1310 -0.2671
   48MOL0     N 6362   7.364   5.374   9.559 -0.7065 -0.5630  0.2694
   48MOL0     C 6363   7.351   5.239   9.534  0.0479  0.1404  0.4793
   48MOL0     C 6364   7.264   5.196   9.627 -0.2286  0.1137 -0.2227
   48MOL0     C 6365   7.227   5.048   9.640  0.6610 -0.5566  0.2708
   48MOL0     C 6366   7.100   5.041   9.559  0.1308 -0.5634 -0.1281
   48MOL0     C 6367   6.969   5.098   9.633  0.0650  0.8325  0.3138
   48MOL0     C 6368   6.851   5.063   9.532 -0.1273  0.8618  0.0542
   48MOL0     O 6369   6.713   5.103   9.580  0.2205  0.1437 -0.0715
   48MOL0     C 6370   6.608   5.056   9.505  1.0179  0.6616 -0.0753
   48MOL0     C 6371   6.484   5.089   9.561 -0.5821  0.3962 -1.1038
   48MOL0     C 6372   6.366   5.043   9.511  0.4203 -0.9505  0.1112
   48MOL0     C 6373   6.251   5.073   9.601 -0.1853 -0.1205 -1.0168
   48MOL0     C 6374   6.362   4.972   9.388  0.2916 -0.6712 -0.3739
   48MOL0     C 6375   6.239   4.922   9.320  0.2267 -0.3342 -0.2130
   48MOL0     O 6376   6.118   4.996   9.345 -0.1955  0.5013  0.0471
   48MOL0     C 6377   6.001   4.938   9.292  0.5084  0.3272 -0.3347
   48MOL0     C 6378   5.959   4.962   9.162 -1.0885 -0.1975  0.1829
   48MOL0     C 6379   5.840   4.911   9.112 -0.0785  0.3967  0.5825
   48MOL0     C 6380   5.771   4.815   9.180  0.3272  0.2482  0.0006
   48MOL0     O 6381   5.663   4.772   9.113  0.5767 -0.0341  0.3761
   48MOL0     C 6382   5.550   4.720   9.191  0.6800  0.5797  0.3045
   48MOL0     C 6383   5.443   4.679   9.097 -0.5212 -0.0244 -0.5810
   48MOL0     C 6384   5.386   4.785   8.999  0.3843  0.3371  0.2601
   48MOL0     C 6385   5.252   4.734   8.945  0.3785 -0.1089 -0.4297
   48MOL0     C 6386   5.179   4.852   8.868 -0.7536 -0.9791  0.8972
   48MOL0     C 6387   5.043   4.817   8.812 -0.0794 -0.5058 -0.6224
   48MOL0     C 6388   5.036   4.719   8.698  0.5665 -1.2775 -0.0303
   48MOL0     C 6389   4.899   4.713   8.645  0.6266  0.5670  0.1155
   48MOL0    Cl 6390   4.887   4.851   8.531 -0.0059 -0.0415  0.0844
   48MOL0     C 6391   5.811   4.786   9.312  0.1741  0.2731  0.0924
   48MOL0     C 6392   5.931   4.842   9.367  0.9264  0.1788  0.0076
   48MOL0     O 6393   6.239   4.809   9.261 -0.6568 -0.2749 -0.1706
   48MOL0     C 6394   6.482   4.941   9.329 -0.6975  0.1673 -0.4656
   48MOL0     C 6395   6.609   4.979   9.387 -0.3010 -0.5938  0.0963
   48MOL0     N 6396   7.230   5.300   9.713 -0.4858  0.4629 -1.1885
   48MOL0     N 6397   7.285   5.408   9.673  0.2080  0.4352  0.3712
   48MOL0     C 6398   8.424   5.683   9.400  0.2459 -0.8348  0.8988
   48MOL0     C 6399   8.536   5.625   9.442  0.3169  0.0567 -0.4625
   48MOL0     C 6400   8.836   5.305   9.568 -0.4031 -0.8423  0.2408
   48MOL0     C 6401   8.932   5.241   9.487 -0.5568 -0.4466  0.1232
   48MOL0     C 6402   9.051   5.193   9.545 -0.2701  0.6866  0.8405
   48MOL0     C 6403   9.074   5.201   9.682 -1.3161 -0.7365 -0.1696
   48MOL0     O 6404   9.182   5.149   9.758  0.0571 -0.1182  0.2897
   48MOL0     C 6405   9.301   5.113   9.684 -0.1235  0.0725 -0.4264
   48MOL0     C 6406   9.415   5.105   9.795 -0.0231 -0.5837  0.4763
   48MOL0     C 6407   9.487   5.241   9.786  0.1124 -1.3520 -0.3012
   48MOL0     C 6408   9.587   5.245   9.902 -1.2163 -0.0776  0.3337
   48MOL0     C 6409   9.713   5.298   9.845 -0.2236  0.4062  0.2017
   48MOL0     C 6410   9.822   5.354   9.819  0.0233 -0.3095 -0.1783
   48MOL0     C 6411   8.981   5.272   9.758 -0.3076 -0.2456  0.1676
   48MOL0     C 6412   8.865   5.329   9.701 -0.3130  0.5109 -0.4782
   48MOL0     H 6413   8.429   5.422   9.688 -0.4056  0.8635  1.0299
   48MOL0     H 6414   8.198   5.535   9.603 -0.6209  1.5753 -0.6612
   48MOL0     H 6415   8.221   5.819   9.256  1.0112 -1.2109 -1.4926
   48MOL0     H 6416   8.188   5.647   9.222 -1.1796  1.5641 -2.8843
   48MOL0     H 6417   7.990   5.869   9.342 -2.5791  0.5909 -1.0745
   48MOL0     H 6418   8.008   5.823   9.175  0.3602  2.4926  0.1975
   48MOL0     H 6419   7.934   5.591   9.241  1.8637 -2.7589  1.9076
   48MOL0     H 6420   7.942   5.640   9.416  0.6703  1.3767 -0.3214
   48MOL0     H 6421   7.757   5.809   9.363 -2.9793 -1.9239  1.8713
   48MOL0     H 6422   7.756   5.753   9.195  1.2239  2.8355  0.6466
   48MOL0     H 6423   7.569   5.662   9.322 -0.6013 -2.4463 -1.3331
   48MOL0     H 6424   7.670   5.533   9.271  0.6267 -0.0053  0.4873
   48MOL0     H 6425   7.787   5.542   9.496  0.8100  0.9292  1.7598
   48MOL0     H 6426   7.677   5.668   9.541 -1.9372  0.1931  0.2981
   48MOL0     H 6427   7.642   5.365   9.490 -0.0374  0.8946 -1.3308
   48MOL0     H 6428   7.614   5.443   9.640 -1.7683  2.7267  1.9233
   48MOL0     H 6429   7.444   5.487   9.392 -0.1804 -0.8220 -0.3759
   48MOL0     H 6430   7.417   5.569   9.545  1.8610  1.8432 -2.0551
   48MOL0     H 6431   7.412   5.179   9.467 -0.3157  1.1137 -0.7620
   48MOL0     H 6432   7.299   4.981   9.592  0.4083  0.6546 -1.8889
   48MOL0     H 6433   7.196   5.011   9.739  2.2808  1.4701  1.6131
   48MOL0     H 6434   7.084   4.936   9.532 -0.9851 -1.7476  4.2533
   48MOL0     H 6435   7.108   5.095   9.465  1.0329  1.8335  1.2455
   48MOL0     H 6436   6.979   5.206   9.642  1.1335  0.7546  0.2106
   48MOL0     H 6437   6.953   5.062   9.735 -0.1734  1.7389  0.6002
   48MOL0     H 6438   6.848   4.955   9.512 -0.4593  0.5952  1.4232
   48MOL0     H 6439   6.869   5.114   9.437 -1.1351 -1.9149 -1.7539
   48MOL0     H 6440   6.485   5.150   9.651  1.0133 -1.2020  0.0221
   48MOL0     H 6441   6.189   4.984   9.583  0.9726 -0.7778 -1.9136
   48MOL0     H 6442   6.275   5.071   9.708  2.0198 -2.0949 -1.4665
   48MOL0     H 6443   6.201   5.165   9.571 -1.6438 -1.4040 -2.7869
   48MOL0     H 6444   6.017   5.032   9.103  1.7929 -2.6153 -0.0945
   48MOL0     H 6445   5.812   4.934   9.009  2.3344  2.4468  0.2677
   48MOL0     H 6446   5.574   4.636   9.257 -0.3164  0.4094  0.4619
   48MOL0     H 6447   5.506   4.792   9.260  0.9729 -1.1400  2.4101
   48MOL0     H 6448   5.458   4.582   9.049  0.5762 -0.9604  1.5331
   48MOL0     H 6449   5.361   4.663   9.168 -0.8655  1.0265 -0.7188
   48MOL0     H 6450   5.451   4.815   8.916 -1.6925  1.2389 -1.1511
   48MOL0     H 6451   5.376   4.876   9.059  0.5241 -0.5600  1.7018
   48MOL0     H 6452   5.274   4.653   8.876  2.2502 -0.9683  1.0869
   48MOL0     H 6453   5.190   4.692   9.025 -0.8348  0.6327 -0.9491
   48MOL0     H 6454   5.237   4.879   8.780 -2.3507 -0.5988 -0.0787
   48MOL0     H 6455   5.164   4.940   8.932  0.3310  0.3924 -0.6625
   48MOL0     H 6456   4.976   4.798   8.896 -0.3485 -2.3728 -1.2189
   48MOL0     H 6457   5.008   4.913   8.773 -1.8116 -0.8994 -0.1331
   48MOL0     H 6458   5.073   4.626   8.742  1.4327 -1.4273 -1.0300
   48MOL0     H 6459   5.105   4.738   8.615 -1.3133 -0.0372 -1.4051
   48MOL0     H 6460   4.821   4.716   8.722 -0.4328  3.4901 -0.9400
   48MOL0     H 6461   4.875   4.621   8.591  1.7301  1.9723 -3.0185
   48MOL0     H 6462   5.757   4.710   9.368 -0.4993  0.6868  0.0145
   48MOL0     H 6463   5.968   4.824   9.468 -0.9609  2.6040  1.2604
   48MOL0     H 6464   6.467   4.889   9.236 -1.2119  1.3549 -1.0720
   48MOL0     H 6465   6.700   4.929   9.355  0.2568 -0.0316  0.7840
   48MOL0     H 6466   8.438   5.760   9.324  1.5592 -2.6475 -0.7982
   48MOL0     H 6467   8.634   5.655   9.405  0.9573  0.6780  1.6084
   48MOL0     H 6468   8.912   5.246   9.381 -1.9828  0.1361  0.3985
   48MOL0     H 6469   9.116   5.152   9.469 -3.7154 -3.9711 -0.0571
   48MOL0     H 6470   9.299   5.023   9.622 -1.0369 -0.7339  0.7572
   48MOL0     H 6471   9.328   5.188   9.609  2.1702  1.6422  1.8148
   48MOL0     H 6472   9.493   5.029   9.784  3.0829  2.2448  1.5864
   48MOL0     H 6473   9.371   5.085   9.893  0.6134  0.1074  0.9061
   48MOL0     H 6474   9.416   5.324   9.795  0.7048 -1.0399  2.1827
   48MOL0     H 6475   9.541   5.261   9.692  0.4205  0.2565  0.1812
   48MOL0     H 6476   9.614   5.143   9.930 -1.5615 -0.4536 -0.6399
   48MOL0     H 6477   9.551   5.297   9.991  1.8788  1.4610  0.8013
   48MOL0     H 6478   9.916   5.404   9.808  0.4188 -1.1524 -0.7326
   48MOL0     H 6479   8.994   5.289   9.864  2.9599  0.9060 -0.3137
   48MOL0     H 6480   8.795   5.383   9.763 -0.7610  0.7744 -1.1938
   49MOL0     O 6481   9.310   1.905   2.717  0.3034 -0.7651 -0.4457
   49MOL0     C 6482   9.349   1.889   2.829 -0.3579 -0.8552 -0.0859
   49MOL0     O 6483   9.276   1.823   2.927  0.1760  1.0988 -0.0603
   49MOL0     C 6484   9.155   1.762   2.895 -1.4868 -0.4769 -0.4022
   49MOL0     C 6485   9.040   1.841   2.908 -0.5295  0.0863 -0.5438
   49MOL0     C 6486   8.911   1.781   2.896  0.0768 -0.1426 -0.1379
   49MOL0     C 6487   8.897   1.640   2.873  0.0276  0.4723 -0.1001
   49MOL0     O 6488   8.781   1.568   2.846  0.2388  0.0798  0.3282
   49MOL0     C 6489   8.651   1.625   2.864 -0.0895  0.0274 -1.0520
   49MOL0     C 6490   8.598   1.727   2.763  0.6701 -0.4669  0.1185
   49MOL0     C 6491   8.554   1.672   2.625 -1.4519  0.3636 -0.1876
   49MOL0     C 6492   8.527   1.786   2.530 -0.0901  0.4050  0.1996
   49MOL0     C 6493   8.527   1.731   2.390  0.0086  0.0598  0.1207
   49MOL0     C 6494   8.434   1.616   2.367  1.0857 -0.6600  0.5813
   49MOL0     C 6495   8.289   1.664   2.365  0.6990 -0.1187 -0.2146
   49MOL0     C 6496   8.171   1.557   2.353 -0.6893  0.4905 -0.2225
   49MOL0     N 6497   8.123   1.513   2.487  0.8118  0.3819 -0.3924
   49MOL0     C 6498   8.036   1.584   2.572 -0.1715 -0.1058  0.0620
   49MOL0     C 6499   7.993   1.494   2.672 -0.0061 -0.3932  0.2646
   49MOL0     C 6500   7.898   1.532   2.784 -0.2095 -0.2480  0.0332
   49MOL0     C 6501   7.758   1.468   2.768 -0.6369  0.3456 -0.3176
   49MOL0     C 6502   7.649   1.531   2.860  0.2486  0.7111  0.0286
   49MOL0     C 6503   7.502   1.491   2.816 -0.0794  0.5900  0.3943
   49MOL0     O 6504   7.408   1.571   2.890 -0.0587 -0.0554  0.1980
   49MOL0     C 6505   7.281   1.577   2.842  0.3017  0.6886 -0.0536
   49MOL0     C 6506   7.194   1.682   2.867 -0.2073 -0.0263  0.0566
   49MOL0     C 6507   7.063   1.695   2.831 -0.5188 -0.1659 -0.1455
   49MOL0     C 6508   6.996   1.812   2.883  0.7814  0.0044  0.4890
   49MOL0     C 6509   7.012   1.588   2.748 -0.2590  0.2154  0.2024
   49MOL0     C 6510   6.875   1.581   2.702  0.1495 -0.4602  0.4133
   49MOL0     O 6511   6.819   1.701   2.673  0.4341 -0.7949 -0.4411
   49MOL0     C 6512   6.697   1.724   2.625  0.8103 -0.1788  0.3407
   49MOL0     C 6513   6.592   1.636   2.599 -1.0811 -0.1233  0.2534
   49MOL0     C 6514   6.474   1.681   2.543 -0.3769  0.5822 -0.0143
   49MOL0     C 6515   6.456   1.816   2.509  0.9769 -0.2965 -0.4738
   49MOL0     O 6516   6.346   1.867   2.451 -1.0508  0.0196 -0.1098
   49MOL0     C 6517   6.226   1.792   2.433 -0.0064  0.0049 -0.9917
   49MOL0     C 6518   6.097   1.877   2.404  0.0484 -0.5688  0.0408
   49MOL0     C 6519   6.122   1.971   2.287 -0.3218  0.7087  0.4353
   49MOL0     C 6520   6.021   2.086   2.271  0.3462  0.0562  0.1797
   49MOL0     C 6521   5.895   2.033   2.204  0.3014 -0.4186 -0.3943
   49MOL0     C 6522   5.784   2.142   2.234 -0.2386 -0.6269 -0.1071
   49MOL0     C 6523   5.644   2.128   2.170 -0.6844  0.2439 -0.2895
   49MOL0     C 6524   5.666   2.148   2.016  0.5074  1.0402  0.0221
   49MOL0    Cl 6525   5.505   2.128   1.947 -0.6375  0.0596  0.2355
   49MOL0     C 6526   6.558   1.903   2.529 -0.9693 -0.0814 -0.5945
   49MOL0     C 6527   6.677   1.862   2.593 -0.3079  0.7064  0.2190
   49MOL0     O 6528   6.819   1.477   2.712  0.1185  0.2001  0.2398
   49MOL0     C 6529   7.090   1.470   2.719  1.0550 -0.5769 -0.0962
   49MOL0     C 6530   7.225   1.473   2.762  1.4075 -0.0418 -0.2666
   49MOL0     N 6531   8.031   1.365   2.631 -0.3577 -0.3277 -1.0420
   49MOL0     N 6532   8.108   1.381   2.526  0.3179  0.1739  0.2336
   49MOL0     C 6533   9.019   1.567   2.851 -1.0741  0.6673 -0.5909
   49MOL0     C 6534   9.146   1.625   2.865 -0.8693  0.0314  0.6397
   49MOL0     C 6535   9.469   1.966   2.886 -0.2359 -0.6335  0.3485
   49MOL0     C 6536   9.479   1.976   3.026  0.1624  0.3082 -0.4396
   49MOL0     C 6537   9.579   2.053   3.085 -0.2921 -0.0790  0.2729
   49MOL0     C 6538   9.683   2.110   3.001 -0.4987 -1.2253 -0.2098
   49MOL0     O 6539   9.773   2.194   3.051 -0.3476  0.3571  0.3831
   49MOL0     C 6540   9.886   2.123   3.118  0.5770 -0.4212 -0.2165
   49MOL0     C 6541  10.005   2.111   3.030 -0.0939  0.0480 -0.4986
   49MOL0     C 6542  10.017   1.975   2.968  0.1906 -0.5087  0.1727
   49MOL0     C 6543  10.140   1.966   2.877  0.4576  0.3129  0.5175
   49MOL0     C 6544  10.271   1.987   2.940  0.2125  0.6354 -0.1924
   49MOL0     C 6545  10.369   2.014   3.007  0.2922 -0.8772 -0.7523
   49MOL0     C 6546   9.668   2.100   2.868  0.7298  0.4232 -0.4722
   49MOL0     C 6547   9.566   2.025   2.810 -0.4105  0.0507  0.6575
   49MOL0     H 6548   9.056   1.948   2.919  0.3509  0.1563 -2.2133
   49MOL0     H 6549   8.832   1.855   2.897  2.3111  2.3765  0.0873
   49MOL0     H 6550   8.588   1.535   2.858 -1.4548  0.8408  0.3108
   49MOL0     H 6551   8.647   1.666   2.965  2.4540  0.5142 -1.1041
   49MOL0     H 6552   8.523   1.793   2.809  1.0212  1.3453 -1.7911
   49MOL0     H 6553   8.684   1.791   2.744  2.1789 -1.8261  1.9903
   49MOL0     H 6554   8.645   1.617   2.601 -1.0949  0.2864  1.2325
   49MOL0     H 6555   8.475   1.602   2.654  1.4852 -2.0733  2.8281
   49MOL0     H 6556   8.431   1.834   2.550 -0.5704  1.2242 -3.3189
   49MOL0     H 6557   8.595   1.871   2.529  1.4534 -0.7713 -1.7024
   49MOL0     H 6558   8.515   1.810   2.315  1.9483  2.0646  1.7919
   49MOL0     H 6559   8.630   1.700   2.368  0.9820  3.1621 -0.1747
   49MOL0     H 6560   8.451   1.576   2.267  0.3438  2.6197 -0.9905
   49MOL0     H 6561   8.448   1.534   2.438  1.0993 -0.3273  0.9676
   49MOL0     H 6562   8.278   1.730   2.451  0.0383  0.1546 -0.5064
   49MOL0     H 6563   8.287   1.728   2.276 -0.5896 -3.0851 -2.4962
   49MOL0     H 6564   8.188   1.482   2.275 -0.0591  2.4008 -2.0442
   49MOL0     H 6565   8.084   1.601   2.305  0.0212  0.2794 -1.7648
   49MOL0     H 6566   8.004   1.688   2.576  2.4597  0.7441  1.4636
   49MOL0     H 6567   7.928   1.507   2.886 -2.1388 -0.4138  0.6114
   49MOL0     H 6568   7.878   1.640   2.789 -2.5938 -0.5934 -0.7201
   49MOL0     H 6569   7.764   1.360   2.782 -1.3696  0.2374 -0.7949
   49MOL0     H 6570   7.716   1.477   2.667  0.6114  1.8444 -0.7426
   49MOL0     H 6571   7.654   1.640   2.866  0.6723  0.7877 -1.3477
   49MOL0     H 6572   7.654   1.491   2.962  0.3326 -1.9664 -0.9523
   49MOL0     H 6573   7.479   1.386   2.837  0.5268 -0.2025 -2.4095
   49MOL0     H 6574   7.490   1.506   2.708 -0.1515 -1.2046  0.1164
   49MOL0     H 6575   7.241   1.757   2.929  0.5656  1.7695 -2.5783
   49MOL0     H 6576   6.907   1.768   2.929  1.6955 -0.8996  1.4692
   49MOL0     H 6577   7.047   1.856   2.969 -1.4071 -2.2429  3.1598
   49MOL0     H 6578   6.970   1.890   2.811 -0.6026 -1.3268 -0.5208
   49MOL0     H 6579   6.591   1.528   2.614 -0.6171 -0.1993 -0.2189
   49MOL0     H 6580   6.398   1.606   2.524 -1.4971  1.7630 -0.2940
   49MOL0     H 6581   6.251   1.722   2.353  2.8493  1.6664 -1.6794
   49MOL0     H 6582   6.215   1.727   2.521 -2.6774 -1.7431 -2.4802
   49MOL0     H 6583   6.014   1.811   2.379 -0.7034  0.0341  0.8778
   49MOL0     H 6584   6.080   1.934   2.496 -2.6765  0.2918 -0.9153
   49MOL0     H 6585   6.138   1.920   2.192  1.5636  2.4710 -0.2786
   49MOL0     H 6586   6.215   2.024   2.312 -0.4917  1.2006  0.0491
   49MOL0     H 6587   6.003   2.127   2.371 -1.5083 -0.6625  0.1710
   49MOL0     H 6588   6.065   2.160   2.204  1.4020 -0.0290  0.7601
   49MOL0     H 6589   5.859   1.940   2.249 -1.8922  0.6649  0.2125
   49MOL0     H 6590   5.914   2.010   2.099 -1.6178  1.6633 -1.2618
   49MOL0     H 6591   5.764   2.141   2.341  0.3032 -3.1500  0.0313
   49MOL0     H 6592   5.811   2.245   2.210  0.0273  0.1796  3.1862
   49MOL0     H 6593   5.567   2.201   2.195 -0.5798  0.4647 -0.5998
   49MOL0     H 6594   5.602   2.030   2.195  1.6136 -0.1456  2.5500
   49MOL0     H 6595   5.728   2.064   1.983  3.2087  2.5850  0.8611
   49MOL0     H 6596   5.708   2.245   1.989  2.8812 -1.0385 -5.0540
   49MOL0     H 6597   6.563   2.007   2.497  2.4178 -0.3325 -1.3469
   49MOL0     H 6598   6.768   1.922   2.602  0.7825 -0.8484  0.0010
   49MOL0     H 6599   7.045   1.390   2.662 -0.8737 -0.3319  0.9989
   49MOL0     H 6600   7.281   1.384   2.737 -1.4659 -1.8480 -0.8603
   49MOL0     H 6601   9.011   1.467   2.809 -0.0713  1.0534 -1.7569
   49MOL0     H 6602   9.240   1.571   2.858 -1.2936 -1.3372  3.8729
   49MOL0     H 6603   9.401   1.944   3.094  0.1945  1.0484 -0.0448
   49MOL0     H 6604   9.602   2.070   3.190  1.9462 -2.3854  0.2690
   49MOL0     H 6605   9.917   2.175   3.209 -1.8826  0.6640  0.0760
   49MOL0     H 6606   9.860   2.023   3.153  0.3028 -0.8064 -1.4822
   49MOL0     H 6607  10.093   2.128   3.092  0.0991  0.1498 -0.7986
   49MOL0     H 6608   9.993   2.184   2.950  2.6395 -0.7726 -1.7499
   49MOL0     H 6609   9.928   1.960   2.907  0.7506  2.4097 -1.5787
   49MOL0     H 6610  10.033   1.907   3.051  0.1877  0.0017  0.5957
   49MOL0     H 6611  10.130   2.038   2.795 -2.3585 -0.6152 -0.0389
   49MOL0     H 6612  10.138   1.866   2.833 -2.9395  0.0386  1.0715
   49MOL0     H 6613  10.454   2.034   3.069 -0.1795 -3.8175  1.0176
   49MOL0     H 6614   9.738   2.158   2.808  0.3600  0.3282 -1.0011
   49MOL0     H 6615   9.570   2.022   2.701 -0.0732  0.8204  0.6426
   50MOL0     O 6616   9.019  10.203   4.521 -0.1010 -0.1687  0.5183
   50MOL0     C 6617   9.028  10.314   4.573 -0.8037  0.3117  0.2991
   50MOL0     O 6618   8.965  10.357   4.685  0.1411 -0.1475 -0.1919
   50MOL0     C 6619   8.864  10.276   4.736  0.2021 -0.3785 -0.0601
   50MOL0     C 6620   8.887  10.167   4.831  0.3290  0.3252  0.1714
   50MOL0     C 6621   8.783  10.084   4.864 -0.3240  0.0033  0.2019
   50MOL0     C 6622   8.656  10.090   4.810 -0.6080  0.4840 -0.6935
   50MOL0     O 6623   8.545  10.018   4.854  0.2444  0.7578 -0.0713
   50MOL0     C 6624   8.560   9.903   4.947  0.6100 -0.5735 -0.1147
   50MOL0     C 6625   8.432   9.829   4.962 -0.5022  0.2523 -0.2834
   50MOL0     C 6626   8.316   9.903   5.046  0.0643 -0.4309  0.1776
   50MOL0     C 6627   8.191   9.811   5.041  0.2582 -0.3036 -0.2540
   50MOL0     C 6628   8.064   9.876   5.092  0.2096  0.1770  1.0675
   50MOL0     C 6629   8.059   9.872   5.241 -0.5155  0.8834  0.1714
   50MOL0     C 6630   7.981   9.970   5.308  0.9281 -0.3313 -0.7329
   50MOL0     C 6631   7.987   9.972   5.460 -0.7480  0.3243  0.0076
   50MOL0     N 6632   7.894  10.081   5.501 -0.4838 -0.2963 -0.4718
   50MOL0     C 6633   7.905  10.214   5.486 -0.0279 -0.4001 -0.3609
   50MOL0     C 6634   7.801  10.263   5.562 -0.6499  0.0845 -0.1475
   50MOL0     C 6635   7.770  10.404   5.584 -0.4030 -1.0055  0.2045
   50MOL0     C 6636   7.617  10.434   5.586 -0.9065  0.2557 -0.2112
   50MOL0     C 6637   7.598  10.568   5.651 -0.1121 -0.2890  0.7666
   50MOL0     C 6638   7.448  10.614   5.640  0.3744 -0.7887  0.2381
   50MOL0     O 6639   7.408  10.645   5.503 -0.2989  0.2666  1.0243
   50MOL0     C 6640   7.282  10.676   5.474 -0.1464  0.2952  0.3216
   50MOL0     C 6641   7.254  10.727   5.348  0.7452  0.4047 -0.1565
   50MOL0     C 6642   7.124  10.762   5.305  0.1789 -0.0364  0.3686
   50MOL0     C 6643   7.118  10.810   5.166  0.6316  0.0428  0.0133
   50MOL0     C 6644   7.017  10.737   5.393  0.3966 -0.3828 -0.0655
   50MOL0     C 6645   6.873  10.747   5.355  0.7808  0.4393  0.9966
   50MOL0     O 6646   6.771  10.730   5.440  0.0160  0.2886  0.1598
   50MOL0     C 6647   6.649  10.724   5.378  0.0005  0.6958  0.1527
   50MOL0     C 6648   6.548  10.814   5.410  0.0289  0.4992  0.4435
   50MOL0     C 6649   6.414  10.801   5.371  0.0147 -0.5334  0.2967
   50MOL0     C 6650   6.384  10.706   5.278  0.3514  0.6891 -0.1259
   50MOL0     O 6651   6.260  10.693   5.225  0.2087  0.0675  0.7291
   50MOL0     C 6652   6.249  10.679   5.079 -0.7650 -0.7888  0.3656
   50MOL0     C 6653   6.103  10.680   5.037  0.3890 -0.4030  1.0458
   50MOL0     C 6654   6.021  10.811   5.060 -0.8297  0.7731  0.0091
   50MOL0     C 6655   5.872  10.807   5.021  0.5875  0.4989  0.2182
   50MOL0     C 6656   5.791  10.723   5.115 -0.2174  0.5352  0.2768
   50MOL0     C 6657   5.647  10.705   5.071  0.8656  0.8096 -0.0361
   50MOL0     C 6658   5.564  10.615   5.161  1.2043  0.9598  0.4972
   50MOL0     C 6659   5.421  10.610   5.114  0.8859  0.6312 -0.2799
   50MOL0    Cl 6660   5.320  10.547   5.250 -0.3375  0.0884  0.2531
   50MOL0     C 6661   6.481  10.616   5.240 -0.4023 -1.2817  0.8653
   50MOL0     C 6662   6.613  10.620   5.292  0.5891 -0.4854 -0.3191
   50MOL0     O 6663   6.855  10.766   5.233  0.1863  0.6440  0.3578
   50MOL0     C 6664   7.044  10.686   5.520  0.0677 -0.4672  0.4076
   50MOL0     C 6665   7.173  10.669   5.568  0.4743  0.6480  0.1739
   50MOL0     N 6666   7.724  10.155   5.611 -0.9376 -0.5426  1.1291
   50MOL0     N 6667   7.778  10.050   5.564  0.1678  0.1317  0.1299
   50MOL0     C 6668   8.644  10.182   4.702  0.5221 -0.6714  0.5094
   50MOL0     C 6669   8.732  10.281   4.670 -0.8198  0.1020 -0.1377
   50MOL0     C 6670   9.134  10.404   4.518  0.3119 -0.0130 -0.1338
   50MOL0     C 6671   9.191  10.373   4.394  0.2761 -0.1981  0.5770
   50MOL0     C 6672   9.275  10.479   4.336  0.3039  0.2574 -0.0428
   50MOL0     C 6673   9.290  10.601   4.409 -0.5891  0.2987  0.5020
   50MOL0     O 6674   9.355  10.704   4.354 -0.7178  0.4813 -0.0418
   50MOL0     C 6675   9.501  10.685   4.311  0.0546 -0.4530 -0.0834
   50MOL0     C 6676   9.578  10.814   4.344  0.0521 -0.1180 -0.0708
   50MOL0     C 6677   9.561  10.920   4.233 -0.1749  0.0090  0.8734
   50MOL0     C 6678   9.628  11.063   4.249  0.1304  0.0168  0.5208
   50MOL0     C 6679   9.771  11.033   4.247  0.1038  0.7020  0.7967
   50MOL0     C 6680   9.887  11.006   4.262 -0.3340  0.2511 -0.6788
   50MOL0     C 6681   9.222  10.625   4.523  0.4840  0.5056  0.1882
   50MOL0     C 6682   9.143  10.530   4.578 -0.4427  0.4631  0.0055
   50MOL0     H 6683   8.991  10.160   4.861  0.6230  1.5584 -0.4705
   50MOL0     H 6684   8.804  10.010   4.941 -1.1835 -0.5386 -0.0732
   50MOL0     H 6685   8.634   9.833   4.907  0.0285 -0.9439 -0.5676
   50MOL0     H 6686   8.595   9.946   5.041  0.3634  0.4201 -0.4590
   50MOL0     H 6687   8.408   9.790   4.863  1.4889  2.5999 -1.8110
   50MOL0     H 6688   8.448   9.745   5.031 -1.2405 -0.3634 -0.8546
   50MOL0     H 6689   8.353   9.926   5.147 -2.1097 -0.9846  1.1686
   50MOL0     H 6690   8.286   9.996   4.996 -1.4997 -1.9424 -1.8804
   50MOL0     H 6691   8.177   9.767   4.942 -3.5028  0.2270 -0.1034
   50MOL0     H 6692   8.210   9.716   5.092 -2.0405 -0.5340  0.2625
   50MOL0     H 6693   8.070   9.983   5.070  3.1036  0.2399  1.6481
   50MOL0     H 6694   7.977   9.829   5.046  1.8008 -0.4210 -1.5397
   50MOL0     H 6695   8.033   9.768   5.264  1.2100 -0.2039 -2.3616
   50MOL0     H 6696   8.162   9.878   5.278  0.2746 -4.2610 -0.4678
   50MOL0     H 6697   8.019  10.069   5.281 -0.3548  0.0563 -1.2048
   50MOL0     H 6698   7.880   9.972   5.266  0.9902  1.2232 -0.8763
   50MOL0     H 6699   8.088   9.996   5.494 -0.7067  0.6918 -0.3593
   50MOL0     H 6700   7.959   9.880   5.511  3.5327 -1.8270 -1.1201
   50MOL0     H 6701   7.986  10.269   5.439 -0.7698  0.0081 -1.1858
   50MOL0     H 6702   7.824  10.448   5.668 -2.0389  1.9866 -0.1570
   50MOL0     H 6703   7.825  10.458   5.507  1.7899 -1.9507  1.0192
   50MOL0     H 6704   7.559  10.358   5.639  1.2312 -1.9058 -0.8169
   50MOL0     H 6705   7.576  10.435   5.484 -0.1381 -1.1280 -0.5475
   50MOL0     H 6706   7.651  10.655   5.612 -0.5639  0.4969  1.8596
   50MOL0     H 6707   7.632  10.569   5.754 -0.3146 -0.0519  0.8316
   50MOL0     H 6708   7.444  10.704   5.702  2.0255 -0.7310  0.3039
   50MOL0     H 6709   7.389  10.535   5.687  2.3681 -1.6535  1.4127
   50MOL0     H 6710   7.341  10.734   5.284  0.9785 -0.5659  0.0357
   50MOL0     H 6711   7.218  10.815   5.121  0.3772  2.3650 -0.4472
   50MOL0     H 6712   7.055  10.750   5.099  1.2982  1.6134 -2.1477
   50MOL0     H 6713   7.081  10.913   5.162 -1.0290 -0.5081  0.2135
   50MOL0     H 6714   6.573  10.880   5.492 -0.0267 -1.4141  2.0723
   50MOL0     H 6715   6.335  10.869   5.400  0.6086  0.9224 -1.2811
   50MOL0     H 6716   6.304  10.764   5.039  2.5957 -2.5452  0.8812
   50MOL0     H 6717   6.293  10.592   5.029 -2.8260 -0.2814 -2.5814
   50MOL0     H 6718   6.097  10.659   4.930  0.5687  0.9413  0.7624
   50MOL0     H 6719   6.054  10.600   5.094  0.8187 -2.2728 -1.1003
   50MOL0     H 6720   6.075  10.885   5.001  0.8193  0.6788  1.3480
   50MOL0     H 6721   6.025  10.843   5.164  0.8132  1.4751 -0.2426
   50MOL0     H 6722   5.830  10.907   5.006 -0.5438 -0.1599 -1.3032
   50MOL0     H 6723   5.854  10.759   4.924 -0.5526 -0.5212  0.9030
   50MOL0     H 6724   5.778  10.775   5.211 -3.3150  0.6968 -0.1373
   50MOL0     H 6725   5.842  10.627   5.134 -0.8180  0.2653  0.5637
   50MOL0     H 6726   5.602  10.805   5.065  3.7275  2.1883  0.1099
   50MOL0     H 6727   5.640  10.660   4.972  0.5694 -0.7546  0.6626
   50MOL0     H 6728   5.571  10.647   5.265 -2.3348  1.0275  0.8452
   50MOL0     H 6729   5.600  10.513   5.144 -0.8208  0.0614  1.2873
   50MOL0     H 6730   5.416  10.547   5.025 -0.7753 -0.0407  0.2436
   50MOL0     H 6731   5.378  10.708   5.087  0.4125  0.4538 -0.1882
   50MOL0     H 6732   6.451  10.535   5.174 -1.3667 -0.2210 -0.0481
   50MOL0     H 6733   6.679  10.534   5.289  1.5435  0.1127  2.0580
   50MOL0     H 6734   6.959  10.672   5.587 -1.1383  1.1132 -0.7108
   50MOL0     H 6735   7.196  10.638   5.670  0.7489  0.8753  0.1807
   50MOL0     H 6736   8.544  10.185   4.660  0.9451  0.5403 -0.4824
   50MOL0     H 6737   8.705  10.347   4.589 -3.5122 -0.2002  0.4300
   50MOL0     H 6738   9.185  10.278   4.342  0.5855 -1.4864  2.7888
   50MOL0     H 6739   9.321  10.462   4.240 -2.3675 -4.5312 -0.7907
   50MOL0     H 6740   9.543  10.602   4.367  0.5984 -0.6483 -0.7726
   50MOL0     H 6741   9.505  10.670   4.203  0.8699 -0.0238 -0.1192
   50MOL0     H 6742   9.683  10.797   4.367  0.4097  1.3156 -0.5190
   50MOL0     H 6743   9.543  10.853   4.440  4.1169  3.2001  0.3301
   50MOL0     H 6744   9.456  10.948   4.220 -0.7562 -1.6312  1.6418
   50MOL0     H 6745   9.592  10.873   4.139 -1.4723 -1.4740  1.1425
   50MOL0     H 6746   9.584  11.110   4.338 -2.3478  0.8115 -1.0220
   50MOL0     H 6747   9.605  11.123   4.161  0.4565 -2.6433 -1.5354
   50MOL0     H 6748   9.994  11.000   4.265 -0.2684  0.8012 -1.3603
   50MOL0     H 6749   9.223  10.724   4.568 -0.6441  1.0809 -0.9865
   50MOL0     H 6750   9.074  10.557   4.657 -1.6664 -0.4191 -0.7255
   51MOL0     O 6751   1.293   4.086   8.895  0.3358  0.0167  0.3381
   51MOL0     C 6752   1.315   4.154   8.993 -0.1589  0.1897 -0.2433
   51MOL0     O 6753   1.234   4.189   9.091  0.3697  0.5181  0.6750
   51MOL0     C 6754   1.095   4.161   9.094 -0.1925 -0.1394 -0.1137
   51MOL0     C 6755   1.030   4.213   9.211  0.1896 -0.4215  0.3969
   51MOL0     C 6756   0.890   4.191   9.222  0.3265  0.4676 -0.3825
   51MOL0     C 6757   0.807   4.135   9.125 -0.0716 -0.0712  0.2943
   51MOL0     O 6758   0.670   4.113   9.162  0.1304 -0.4876 -0.3851
   51MOL0     C 6759   0.589   4.070   9.054  0.0773  0.0109 -0.5794
   51MOL0     C 6760   0.446   4.101   9.080 -0.2134  0.9595 -0.4246
   51MOL0     C 6761   0.393   4.008   9.194 -0.0902 -0.5930  0.5878
   51MOL0     C 6762   0.242   4.025   9.201 -0.0262 -0.1890 -0.0917
   51MOL0     C 6763   0.194   3.937   9.324  0.3643 -0.3401  0.0470
   51MOL0     C 6764   0.036   3.952   9.349 -0.0773  0.5526 -0.6497
   51MOL0     C 6765  -0.041   3.900   9.227  0.4823  0.0318  0.2272
   51MOL0     C 6766  -0.189   3.927   9.254 -0.1528 -0.2340 -0.7889
   51MOL0     N 6767  -0.276   3.870   9.147  0.3232  0.4636 -0.0332
   51MOL0     C 6768  -0.260   3.910   9.017 -0.5727 -0.3117 -0.3669
   51MOL0     C 6769  -0.355   3.852   8.941 -0.0171  0.4544 -0.0331
   51MOL0     C 6770  -0.396   3.872   8.793  0.1189 -0.3162 -0.6084
   51MOL0     C 6771  -0.547   3.895   8.789 -0.4775  0.1160 -0.1314
   51MOL0     C 6772  -0.602   4.016   8.865 -0.3163 -0.4298  1.0408
   51MOL0     C 6773  -0.749   3.993   8.910  0.7018  0.3892 -0.6890
   51MOL0     O 6774  -0.830   3.956   8.798  0.0130 -0.7877  0.1362
   51MOL0     C 6775  -0.966   3.944   8.805  0.1014 -0.4937 -0.1744
   51MOL0     C 6776  -1.037   3.925   8.685 -0.0085  0.5466 -0.2777
   51MOL0     C 6777  -1.178   3.896   8.673 -1.8904  0.0796  0.0823
   51MOL0     C 6778  -1.229   3.878   8.528 -0.1526 -0.3786  0.6049
   51MOL0     C 6779  -1.247   3.889   8.796 -0.7251  0.7056  0.5815
   51MOL0     C 6780  -1.392   3.863   8.807 -0.0658  0.5126 -0.7627
   51MOL0     O 6781  -1.447   3.842   8.928 -0.2002  0.2599  0.8934
   51MOL0     C 6782  -1.573   3.786   8.915  0.1518  0.3746 -0.6217
   51MOL0     C 6783  -1.681   3.882   8.918 -0.0564  0.1862 -0.5016
   51MOL0     C 6784  -1.817   3.851   8.930 -0.5629 -0.1682  0.5584
   51MOL0     C 6785  -1.854   3.715   8.929  0.8192 -0.9194  0.3439
   51MOL0     O 6786  -1.987   3.679   8.919  0.3995 -0.2587  0.0913
   51MOL0     C 6787  -2.062   3.743   8.821  0.2314  0.3450 -0.3413
   51MOL0     C 6788  -2.179   3.806   8.889 -0.3050  0.0547 -0.2511
   51MOL0     C 6789  -2.300   3.831   8.801  0.3044 -0.1219  0.4156
   51MOL0     C 6790  -2.395   3.921   8.874 -0.0052  0.7287 -0.8987
   51MOL0     C 6791  -2.528   3.945   8.789 -0.1307  0.1306 -0.7152
   51MOL0     C 6792  -2.633   3.836   8.827 -0.4337 -0.1067  0.4976
   51MOL0     C 6793  -2.770   3.879   8.768  0.2019 -0.7854  0.0399
   51MOL0     C 6794  -2.831   3.989   8.861  0.8790  0.2959  0.0301
   51MOL0    Cl 6795  -3.002   4.007   8.841 -0.0905 -0.0833 -0.3030
   51MOL0     C 6796  -1.749   3.621   8.933 -0.0967 -0.1503 -0.2739
   51MOL0     C 6797  -1.611   3.653   8.930 -0.4609 -0.3647 -0.0304
   51MOL0     O 6798  -1.453   3.869   8.697 -0.5606  0.2943  0.7445
   51MOL0     C 6799  -1.175   3.926   8.913  0.6573 -1.1633  0.3127
   51MOL0     C 6800  -1.041   3.960   8.919 -0.3592 -0.8007 -0.6304
   51MOL0     N 6801  -0.435   3.779   9.030  0.4543 -0.3236  0.4543
   51MOL0     N 6802  -0.396   3.793   9.151 -0.7066 -0.5869  0.1432
   51MOL0     C 6803   0.872   4.088   9.009 -0.2784  0.1830 -1.4048
   51MOL0     C 6804   1.012   4.105   9.000 -0.2500 -0.6500  0.1791
   51MOL0     C 6805   1.447   4.207   8.985  0.0554  0.3836  0.5936
   51MOL0     C 6806   1.483   4.305   9.078 -0.8885 -0.5967  0.7937
   51MOL0     C 6807   1.610   4.369   9.069  0.8106  0.1063  0.5306
   51MOL0     C 6808   1.701   4.336   8.969 -0.0712 -0.1948  0.1504
   51MOL0     O 6809   1.827   4.389   8.947 -0.0085 -0.3817 -0.3880
   51MOL0     C 6810   1.846   4.513   8.999  0.1659 -0.2926  0.2971
   51MOL0     C 6811   1.990   4.563   8.944 -0.3212  0.0970  0.4958
   51MOL0     C 6812   2.103   4.461   8.964 -0.0491  0.5190  0.1312
   51MOL0     C 6813   2.236   4.492   8.881 -0.1986 -0.8778  0.0137
   51MOL0     C 6814   2.293   4.621   8.946 -0.0966  0.7951 -0.3227
   51MOL0     C 6815   2.352   4.719   8.998 -0.9369  1.0038  1.0474
   51MOL0     C 6816   1.660   4.245   8.876 -0.0153 -0.1312 -0.2655
   51MOL0     C 6817   1.540   4.179   8.880  0.2405 -0.0407 -0.6563
   51MOL0     H 6818   1.079   4.265   9.292 -1.9722  2.5729 -0.0695
   51MOL0     H 6819   0.858   4.222   9.321 -0.2297 -1.0721 -0.0523
   51MOL0     H 6820   0.607   4.140   8.972 -2.0549  2.5763  0.9757
   51MOL0     H 6821   0.615   3.969   9.021  1.1890 -0.1988  0.8421
   51MOL0     H 6822   0.440   4.206   9.111  1.5043  0.6366  1.1528
   51MOL0     H 6823   0.395   4.087   8.984 -1.9917  0.8802  0.4796
   51MOL0     H 6824   0.435   3.910   9.173  3.0403  1.1124 -2.0920
   51MOL0     H 6825   0.448   4.041   9.282  1.8045  1.3567 -1.2039
   51MOL0     H 6826   0.211   4.123   9.238  2.5784  0.7157 -0.0939
   51MOL0     H 6827   0.212   3.988   9.103  0.1246 -2.1682  0.5701
   51MOL0     H 6828   0.232   3.834   9.314 -1.1107 -0.8535 -0.5701
   51MOL0     H 6829   0.245   3.973   9.413 -0.4618 -0.3354  0.5206
   51MOL0     H 6830   0.006   3.899   9.440 -0.2921  3.0570  0.8298
   51MOL0     H 6831   0.007   4.056   9.366 -1.6677  0.1136 -0.4746
   51MOL0     H 6832  -0.012   3.953   9.135 -4.1094  3.2407  0.2373
   51MOL0     H 6833  -0.015   3.794   9.216  0.3055 -0.1132  1.1396
   51MOL0     H 6834  -0.200   4.035   9.267  2.6172  0.0178  0.1060
   51MOL0     H 6835  -0.220   3.878   9.347  1.1698  2.3754  1.1559
   51MOL0     H 6836  -0.211   4.002   8.989 -0.0692 -0.0763  1.2136
   51MOL0     H 6837  -0.355   3.957   8.737  0.8849 -1.1021 -1.2986
   51MOL0     H 6838  -0.374   3.783   8.733 -2.5439 -0.2556 -1.7898
   51MOL0     H 6839  -0.600   3.803   8.816 -2.3214  0.6333 -1.8020
   51MOL0     H 6840  -0.569   3.926   8.687  2.8686  2.1185 -0.4009
   51MOL0     H 6841  -0.609   4.103   8.800  0.6454  0.6473  2.3235
   51MOL0     H 6842  -0.542   4.052   8.949  0.4981  2.1472 -0.5328
   51MOL0     H 6843  -0.784   4.091   8.946 -0.7156  0.1055 -1.2262
   51MOL0     H 6844  -0.743   3.918   8.988 -1.1585  0.4074 -0.4849
   51MOL0     H 6845  -0.982   3.910   8.592 -0.7135  0.0070 -0.6244
   51MOL0     H 6846  -1.150   3.896   8.455 -1.7844  3.2804 -0.4738
   51MOL0     H 6847  -1.279   3.782   8.514 -0.5710 -0.9385  4.6797
   51MOL0     H 6848  -1.315   3.941   8.506  0.2878 -0.1858 -0.6411
   51MOL0     H 6849  -1.659   3.988   8.927 -2.6548  0.6423  2.1278
   51MOL0     H 6850  -1.889   3.932   8.925 -0.2468  0.0296 -1.1903
   51MOL0     H 6851  -2.008   3.814   8.758  0.7514 -1.2980 -1.8185
   51MOL0     H 6852  -2.099   3.673   8.746  4.4900 -1.3621 -1.1475
   51MOL0     H 6853  -2.208   3.739   8.971 -1.1178  0.4013 -0.2401
   51MOL0     H 6854  -2.151   3.904   8.929  2.2030 -1.3433  1.7589
   51MOL0     H 6855  -2.340   3.732   8.780  1.0026 -0.2201 -0.5435
   51MOL0     H 6856  -2.271   3.868   8.702  1.3572 -0.6906  0.5000
   51MOL0     H 6857  -2.422   3.879   8.971  0.7671 -0.6026 -1.2328
   51MOL0     H 6858  -2.344   4.016   8.890 -1.0381  0.9851  1.2140
   51MOL0     H 6859  -2.506   3.937   8.682  0.3609 -1.8326 -0.4971
   51MOL0     H 6860  -2.566   4.045   8.815 -1.4739 -0.5907  0.1957
   51MOL0     H 6861  -2.594   3.741   8.788  1.3568  0.4934  0.7376
   51MOL0     H 6862  -2.638   3.822   8.935  3.6822  1.5142  1.0861
   51MOL0     H 6863  -2.840   3.795   8.764 -0.3956 -0.2881 -2.7566
   51MOL0     H 6864  -2.762   3.920   8.666  0.0010  0.0767  0.3604
   51MOL0     H 6865  -2.783   4.087   8.862  0.7799  0.4471  3.5970
   51MOL0     H 6866  -2.816   3.952   8.963 -2.9880  0.3574  0.7882
   51MOL0     H 6867  -1.786   3.519   8.942  1.6812 -0.8352 -0.1995
   51MOL0     H 6868  -1.541   3.570   8.926  2.0177  1.6463 -2.5197
   51MOL0     H 6869  -1.228   3.926   9.008  0.7209 -0.2559  0.3586
   51MOL0     H 6870  -1.013   3.969   9.024 -1.2081  2.0906 -0.5944
   51MOL0     H 6871   0.827   4.034   8.927 -3.2575  3.7967 -2.3538
   51MOL0     H 6872   1.053   4.071   8.906  2.7618 -1.1811  1.5702
   51MOL0     H 6873   1.408   4.329   9.152 -1.4781 -1.1097  0.3684
   51MOL0     H 6874   1.626   4.445   9.145  0.4052  0.7362 -0.0060
   51MOL0     H 6875   1.769   4.585   8.970  1.3481  0.4857 -1.0841
   51MOL0     H 6876   1.849   4.503   9.108  1.3001 -2.6428  0.1000
   51MOL0     H 6877   2.019   4.660   8.983  2.8044 -0.9287  0.9308
   51MOL0     H 6878   1.981   4.571   8.835 -1.6412 -1.6140  0.4251
   51MOL0     H 6879   2.066   4.367   8.923  0.1042  0.7620 -0.5762
   51MOL0     H 6880   2.115   4.448   9.072  0.4780  0.1495  0.0306
   51MOL0     H 6881   2.227   4.512   8.774 -0.1909 -0.6345  0.0600
   51MOL0     H 6882   2.302   4.404   8.883  0.4791 -0.3717  1.1221
   51MOL0     H 6883   2.421   4.798   9.020 -0.4074  1.7880 -2.8258
   51MOL0     H 6884   1.720   4.227   8.788 -1.1716  0.1059 -1.1201
   51MOL0     H 6885   1.521   4.097   8.812  1.1935 -1.1532  0.3903
   52MOL0     O 6886   4.772   2.215   3.780  0.1368  0.7387 -0.0167
   52MOL0     C 6887   4.833   2.245   3.677 -0.3603  0.2696  1.0081
   52MOL0     O 6888   4.779   2.267   3.554  0.2959  0.1045 -0.3072
   52MOL0     C 6889   4.644   2.249   3.536  1.1021  0.1702 -0.8049
   52MOL0     C 6890   4.602   2.183   3.420  0.5143 -0.5849  0.6291
   52MOL0     C 6891   4.458   2.170   3.390 -0.5167  0.8437  0.0659
   52MOL0     C 6892   4.365   2.229   3.477 -0.2197 -0.0982  1.1020
   52MOL0     O 6893   4.230   2.226   3.452 -0.4322  0.1053 -0.2685
   52MOL0     C 6894   4.174   2.153   3.347 -0.4001  0.1997  0.5570
   52MOL0     C 6895   4.035   2.211   3.328  0.6508 -0.6926  0.2156
   52MOL0     C 6896   3.938   2.120   3.395  0.5922  0.4652  0.2985
   52MOL0     C 6897   3.871   2.011   3.312 -0.4890  0.0687  0.0334
   52MOL0     C 6898   3.745   1.964   3.378  1.1164  0.9315  0.1389
   52MOL0     C 6899   3.613   2.020   3.320 -0.7860 -0.1431 -0.4585
   52MOL0     C 6900   3.582   1.979   3.169  0.9535 -0.9468  0.3713
   52MOL0     C 6901   3.438   1.970   3.134  0.2974  0.9476 -0.0049
   52MOL0     N 6902   3.370   2.090   3.185 -0.4972 -0.0972  0.2540
   52MOL0     C 6903   3.400   2.217   3.149 -0.4645  0.0734 -0.6151
   52MOL0     C 6904   3.311   2.292   3.212  0.1380  0.1402  0.0547
   52MOL0     C 6905   3.316   2.440   3.230 -0.1110  0.1264 -0.0696
   52MOL0     C 6906   3.241   2.502   3.112  0.1611 -0.3243  0.8526
   52MOL0     C 6907   3.251   2.660   3.132  0.0788 -0.3814 -0.7891
   52MOL0     C 6908   3.161   2.743   3.040 -0.3571  0.3424 -0.4826
   52MOL0     O 6909   3.028   2.704   3.054 -0.5171  0.5922  0.3906
   52MOL0     C 6910   2.923   2.757   2.987 -0.2041  0.2545 -0.0910
   52MOL0     C 6911   2.931   2.877   2.920  0.1219  0.1523  0.4533
   52MOL0     C 6912   2.825   2.934   2.841 -1.0349  0.2272 -0.5490
   52MOL0     C 6913   2.851   3.066   2.776  0.3329  0.3461  0.2845
   52MOL0     C 6914   2.702   2.865   2.843  0.1094  0.1327 -0.1874
   52MOL0     C 6915   2.582   2.914   2.776 -0.0531 -0.2426 -0.6368
   52MOL0     O 6916   2.469   2.943   2.854  0.2871 -0.4941  0.0368
   52MOL0     C 6917   2.345   2.947   2.783  0.6315 -0.0731 -0.2655
   52MOL0     C 6918   2.280   2.825   2.750 -0.1811  0.1758 -0.4083
   52MOL0     C 6919   2.162   2.823   2.680  0.0241 -0.5385 -0.4647
   52MOL0     C 6920   2.096   2.947   2.627 -0.3289  0.1860 -1.4249
   52MOL0     O 6921   1.973   2.960   2.562 -0.1784  0.5245  0.6551
   52MOL0     C 6922   1.895   2.842   2.566 -0.3084  0.3803 -0.6624
   52MOL0     C 6923   1.767   2.856   2.471 -0.5201  0.7003 -0.3433
   52MOL0     C 6924   1.699   2.719   2.466 -0.2925  0.3251  0.4195
   52MOL0     C 6925   1.561   2.728   2.391 -0.1669  0.1489  0.2338
   52MOL0     C 6926   1.481   2.603   2.392 -0.8741 -0.2783  1.2125
   52MOL0     C 6927   1.343   2.607   2.331 -0.0804 -0.3596 -0.7017
   52MOL0     C 6928   1.276   2.473   2.347  0.1398  1.4460  0.5062
   52MOL0     C 6929   1.149   2.455   2.271  1.1223 -0.2934 -0.3719
   52MOL0    Cl 6930   1.036   2.560   2.353  0.1321  0.3849  0.1982
   52MOL0     C 6931   2.164   3.063   2.664 -0.1931  0.2103  0.2291
   52MOL0     C 6932   2.283   3.061   2.737  0.2813  0.2253 -0.5499
   52MOL0     O 6933   2.592   2.925   2.655  0.3130 -0.2162 -0.3843
   52MOL0     C 6934   2.691   2.755   2.919 -0.5390 -0.5434  0.6380
   52MOL0     C 6935   2.793   2.694   2.985 -0.5488  0.4412  0.4586
   52MOL0     N 6936   3.236   2.209   3.293 -0.6777  0.6860  0.1709
   52MOL0     N 6937   3.268   2.085   3.270  0.3703  0.2300  0.0441
   52MOL0     C 6938   4.409   2.292   3.593 -1.0833  0.1883  1.0592
   52MOL0     C 6939   4.550   2.309   3.621 -0.3711  1.0096  0.3708
   52MOL0     C 6940   4.977   2.256   3.708 -0.2761 -0.3795 -0.3709
   52MOL0     C 6941   5.027   2.234   3.835 -0.3009  0.4837 -0.4337
   52MOL0     C 6942   5.159   2.220   3.857 -0.6605  0.1612  0.3596
   52MOL0     C 6943   5.258   2.233   3.758 -0.2188  0.3049 -0.5275
   52MOL0     O 6944   5.393   2.231   3.793 -0.1940  0.0742  0.0369
   52MOL0     C 6945   5.484   2.236   3.680  0.0001 -0.1106 -0.4012
   52MOL0     C 6946   5.629   2.192   3.712 -0.3969  0.0026  0.5171
   52MOL0     C 6947   5.703   2.274   3.811  0.0258 -0.6345 -1.1687
   52MOL0     C 6948   5.852   2.261   3.804  1.1323 -0.1040  0.2001
   52MOL0     C 6949   5.893   2.134   3.856 -0.9461  0.2220 -0.8431
   52MOL0     C 6950   5.931   2.042   3.921 -0.0666 -0.5137  0.7228
   52MOL0     C 6951   5.206   2.265   3.630  0.6358  0.6263  0.4389
   52MOL0     C 6952   5.068   2.272   3.605 -0.0529 -0.9309 -0.2689
   52MOL0     H 6953   4.668   2.151   3.340  1.9474 -1.4817  2.1200
   52MOL0     H 6954   4.429   2.127   3.295 -0.4534  0.1059  0.3680
   52MOL0     H 6955   4.224   2.175   3.252 -0.5320  5.0207  1.3344
   52MOL0     H 6956   4.167   2.049   3.379 -1.9713  0.3060  0.6668
   52MOL0     H 6957   4.019   2.303   3.386 -0.3800  0.5256 -1.8990
   52MOL0     H 6958   4.016   2.218   3.221  1.3625  0.0713  0.1309
   52MOL0     H 6959   3.983   2.092   3.491 -1.9396 -0.5724  1.2932
   52MOL0     H 6960   3.855   2.179   3.437 -0.7506  0.3029 -1.9706
   52MOL0     H 6961   3.860   2.049   3.210  0.4727 -2.6336 -1.1595
   52MOL0     H 6962   3.941   1.928   3.301 -2.7904 -1.7821 -1.5534
   52MOL0     H 6963   3.733   1.855   3.371 -0.5086  0.9940  1.2926
   52MOL0     H 6964   3.745   1.988   3.484  1.4744 -1.9310  0.8650
   52MOL0     H 6965   3.538   1.979   3.389 -0.7196 -0.4863 -0.5873
   52MOL0     H 6966   3.613   2.128   3.333  1.3242 -0.1940  0.2384
   52MOL0     H 6967   3.625   2.052   3.100 -0.3321  0.4260  0.9778
   52MOL0     H 6968   3.628   1.881   3.152 -1.2608 -1.9339 -0.3778
   52MOL0     H 6969   3.391   1.875   3.162 -0.1091  0.7242 -1.3902
   52MOL0     H 6970   3.429   1.965   3.025 -0.0251 -0.1409  0.0616
   52MOL0     H 6971   3.489   2.258   3.100 -1.4557  0.7173 -1.9419
   52MOL0     H 6972   3.266   2.469   3.323  1.1076 -0.4786  0.8051
   52MOL0     H 6973   3.414   2.488   3.239  0.1702 -0.0139 -1.9920
   52MOL0     H 6974   3.137   2.471   3.126  0.2255  0.8405  4.9270
   52MOL0     H 6975   3.274   2.469   3.012  0.3212  1.9501  0.0869
   52MOL0     H 6976   3.359   2.676   3.124 -0.2212  1.7773 -1.2708
   52MOL0     H 6977   3.206   2.692   3.227  0.6694  0.6589 -0.8456
   52MOL0     H 6978   3.191   2.732   2.935  1.9391  0.7839  0.0725
   52MOL0     H 6979   3.168   2.851   3.059 -2.7508  0.7747 -1.6560
   52MOL0     H 6980   3.028   2.923   2.907  0.5470 -0.3649  1.6506
   52MOL0     H 6981   2.919   3.042   2.694  0.8458 -1.5135  1.2043
   52MOL0     H 6982   2.759   3.119   2.750 -0.3915 -0.0872  1.8052
   52MOL0     H 6983   2.898   3.131   2.851  0.7954  2.2053 -1.5334
   52MOL0     H 6984   2.322   2.730   2.782  1.0230  0.4363 -1.1976
   52MOL0     H 6985   2.110   2.730   2.661 -1.1206 -0.0548  0.2097
   52MOL0     H 6986   1.952   2.751   2.544  0.2976 -0.4255  3.5103
   52MOL0     H 6987   1.866   2.848   2.671  1.9787 -0.9637  0.1065
   52MOL0     H 6988   1.694   2.930   2.502  1.8392  3.0809 -0.1168
   52MOL0     H 6989   1.798   2.883   2.370  2.3015  0.1211  0.2687
   52MOL0     H 6990   1.678   2.673   2.563 -1.3357 -0.6655 -0.2626
   52MOL0     H 6991   1.757   2.648   2.406  1.4172  2.6933 -0.8976
   52MOL0     H 6992   1.502   2.809   2.434 -0.0720 -0.9515  2.5662
   52MOL0     H 6993   1.583   2.754   2.286 -1.5949 -1.4925 -0.5021
   52MOL0     H 6994   1.473   2.579   2.498 -1.7509  3.7286  2.2039
   52MOL0     H 6995   1.540   2.524   2.344 -3.9345 -2.3918  0.6099
   52MOL0     H 6996   1.290   2.687   2.383  2.0473  0.5247  0.2121
   52MOL0     H 6997   1.347   2.641   2.227  1.5452  2.2343  0.0958
   52MOL0     H 6998   1.259   2.441   2.450  0.1731 -1.3097 -0.2503
   52MOL0     H 6999   1.347   2.397   2.312 -1.1555  0.9632 -1.2212
   52MOL0     H 7000   1.115   2.351   2.278  1.3052 -0.2324  3.0360
   52MOL0     H 7001   1.158   2.493   2.169 -1.0163  3.1530  0.5704
   52MOL0     H 7002   2.123   3.159   2.636 -1.4894 -0.0817  1.0209
   52MOL0     H 7003   2.335   3.153   2.761  1.9665 -0.6790 -0.5487
   52MOL0     H 7004   2.591   2.714   2.912 -0.1680 -1.5599  1.0504
   52MOL0     H 7005   2.768   2.600   3.032 -2.3391  0.7091  0.1260
   52MOL0     H 7006   4.340   2.347   3.656 -3.5610  0.3152 -1.5302
   52MOL0     H 7007   4.568   2.371   3.709 -1.0172  1.4627  0.1843
   52MOL0     H 7008   4.962   2.228   3.922 -0.4072 -0.2406 -0.5552
   52MOL0     H 7009   5.209   2.198   3.951  1.7300  0.1901 -0.8313
   52MOL0     H 7010   5.454   2.155   3.613  1.1688 -0.2806 -0.7424
   52MOL0     H 7011   5.485   2.335   3.633  0.4511 -1.1527 -2.7755
   52MOL0     H 7012   5.694   2.188   3.624  1.1071  1.3639  1.4873
   52MOL0     H 7013   5.631   2.088   3.748  4.9629  0.6290  3.0766
   52MOL0     H 7014   5.667   2.241   3.909  1.7808  1.3081  0.2351
   52MOL0     H 7015   5.676   2.379   3.796  0.2862 -0.0522  1.7161
   52MOL0     H 7016   5.892   2.342   3.867 -1.3951  1.1976  0.2488
   52MOL0     H 7017   5.886   2.281   3.702 -3.2114  2.9054 -0.9465
   52MOL0     H 7018   5.971   1.966   3.986 -0.6370 -0.5413  1.0406
   52MOL0     H 7019   5.263   2.255   3.539  0.7376  2.5850  0.2549
   52MOL0     H 7020   5.041   2.300   3.504  1.5659  0.6247 -0.3165
   53MOL0     O 7021   6.455   0.810   3.966  0.4013  0.3931 -0.3003
   53MOL0     C 7022   6.511   0.704   3.937  0.2432 -0.4099 -0.5063
   53MOL0     O 7023   6.457   0.571   3.939 -0.0530  0.8544 -0.5427
   53MOL0     C 7024   6.322   0.558   3.967 -0.2564 -0.0505  0.2784
   53MOL0     C 7025   6.274   0.516   4.093 -0.2309  0.5839  0.9979
   53MOL0     C 7026   6.139   0.514   4.108  0.2301 -0.1688  0.0349
   53MOL0     C 7027   6.043   0.553   4.004  0.2547 -0.3199 -1.4742
   53MOL0     O 7028   5.903   0.534   4.026  0.0090  0.5290  0.5293
   53MOL0     C 7029   5.815   0.641   3.987  0.5601  0.5163 -0.2913
   53MOL0     C 7030   5.670   0.602   3.992 -0.3221 -0.0613  0.0230
   53MOL0     C 7031   5.567   0.708   3.942 -1.0113  0.8974  0.4079
   53MOL0     C 7032   5.543   0.805   4.056 -0.8522 -0.1269 -0.7549
   53MOL0     C 7033   5.421   0.893   4.039 -0.0917 -0.0797 -0.1282
   53MOL0     C 7034   5.289   0.819   4.069  0.3915 -0.1482 -0.5441
   53MOL0     C 7035   5.170   0.911   4.048  0.1614 -0.5312  0.1771
   53MOL0     C 7036   5.037   0.841   4.020 -0.2057 -0.2768 -0.6180
   53MOL0     N 7037   4.931   0.938   4.017 -0.0131 -0.4929 -0.3435
   53MOL0     C 7038   4.870   0.987   4.131 -0.0201  0.6300  0.2424
   53MOL0     C 7039   4.770   1.063   4.078 -0.6972  0.0780  0.4340
   53MOL0     C 7040   4.670   1.159   4.157 -0.8978 -0.3334 -0.3892
   53MOL0     C 7041   4.539   1.188   4.074  0.1255  0.1392 -0.3488
   53MOL0     C 7042   4.454   1.074   4.042 -0.0632  0.9582 -0.2735
   53MOL0     C 7043   4.330   1.105   3.954  0.5789 -0.1457 -0.0548
   53MOL0     O 7044   4.238   1.175   4.041  0.2322  0.0126 -1.1599
   53MOL0     C 7045   4.105   1.132   4.045  0.3723 -0.1368 -0.1423
   53MOL0     C 7046   4.056   1.066   4.160  0.6483 -0.4970  0.9371
   53MOL0     C 7047   3.923   1.017   4.166  0.4821  0.3185 -0.5073
   53MOL0     C 7048   3.879   0.928   4.281  0.2416 -0.3420  1.2226
   53MOL0     C 7049   3.831   1.048   4.062  0.0573 -0.1465  1.1168
   53MOL0     C 7050   3.682   1.005   4.059 -0.2501  0.2601  0.3804
   53MOL0     O 7051   3.635   0.987   3.936  0.5990 -0.2852  0.1527
   53MOL0     C 7052   3.503   0.961   3.912  0.9898 -0.3564 -0.3174
   53MOL0     C 7053   3.394   1.050   3.936 -0.4441 -0.0554  0.1158
   53MOL0     C 7054   3.261   1.010   3.898 -0.8225 -0.2975 -0.4883
   53MOL0     C 7055   3.228   0.894   3.836 -0.7133 -0.0744 -0.1157
   53MOL0     O 7056   3.103   0.859   3.796 -0.1321 -0.2373  0.0162
   53MOL0     C 7057   3.091   0.758   3.687  0.0081 -1.1683 -0.4714
   53MOL0     C 7058   2.952   0.781   3.630 -0.4562  0.5435  0.1760
   53MOL0     C 7059   2.932   0.675   3.510  0.6888  0.7889 -0.7351
   53MOL0     C 7060   2.978   0.741   3.380  0.1515  1.2403  0.5325
   53MOL0     C 7061   2.911   0.689   3.255 -0.2688  0.4879 -0.5844
   53MOL0     C 7062   2.890   0.540   3.247 -0.0342 -0.7487 -0.7390
   53MOL0     C 7063   2.833   0.505   3.108 -0.4497  0.6187 -0.3998
   53MOL0     C 7064   2.857   0.360   3.086  0.0646  0.0067  0.3508
   53MOL0    Cl 7065   2.738   0.292   2.970  0.0077  0.1321  0.3416
   53MOL0     C 7066   3.339   0.808   3.803 -0.6208 -0.4998 -1.1061
   53MOL0     C 7067   3.470   0.845   3.841  0.0522 -0.1275  0.2109
   53MOL0     O 7068   3.615   0.985   4.156 -0.3650 -0.5606 -0.8602
   53MOL0     C 7069   3.872   1.131   3.960  0.1468  0.7230 -0.7579
   53MOL0     C 7070   4.010   1.160   3.943  0.5272 -0.3448  0.5831
   53MOL0     N 7071   4.778   1.063   3.945  0.0275 -0.5289  0.0364
   53MOL0     N 7072   4.891   0.998   3.908  0.2767  0.4158  0.2990
   53MOL0     C 7073   6.092   0.599   3.887  1.1881  0.6359  0.2966
   53MOL0     C 7074   6.232   0.605   3.870 -0.1749  0.4129  0.1270
   53MOL0     C 7075   6.653   0.716   3.922 -0.0987 -0.6114 -0.6609
   53MOL0     C 7076   6.727   0.598   3.938  0.3024  0.4519 -0.1760
   53MOL0     C 7077   6.864   0.608   3.940 -0.4642  0.0771  0.5891
   53MOL0     C 7078   6.934   0.729   3.909  0.1426  0.0612  0.0133
   53MOL0     O 7079   7.071   0.711   3.907 -0.4250 -0.9030 -0.2866
   53MOL0     C 7080   7.151   0.834   3.883 -0.1420 -0.4277 -0.0099
   53MOL0     C 7081   7.298   0.829   3.915  0.3307  0.4784  0.4697
   53MOL0     C 7082   7.365   0.716   3.835  0.3253  0.0182  0.1343
   53MOL0     C 7083   7.503   0.659   3.889  0.0006  0.2019  0.2122
   53MOL0     C 7084   7.615   0.762   3.871 -0.1545  0.2302 -0.3414
   53MOL0     C 7085   7.698   0.840   3.845 -0.4740  0.4378 -0.2809
   53MOL0     C 7086   6.863   0.841   3.876 -0.4139  0.3107  0.2428
   53MOL0     C 7087   6.729   0.831   3.894 -0.2652 -0.2643 -0.6121
   53MOL0     H 7088   6.349   0.493   4.169  1.0426  0.3335 -0.2857
   53MOL0     H 7089   6.088   0.478   4.197 -3.4648  1.9362 -0.9827
   53MOL0     H 7090   5.834   0.721   4.060 -2.1810 -0.6792  1.8950
   53MOL0     H 7091   5.836   0.678   3.887 -3.7493  0.7277 -1.3086
   53MOL0     H 7092   5.651   0.524   3.918  0.0754  0.8089 -1.0248
   53MOL0     H 7093   5.635   0.568   4.090 -0.0032  0.2404  0.2443
   53MOL0     H 7094   5.619   0.761   3.862 -1.4408 -1.5355 -1.6065
   53MOL0     H 7095   5.475   0.659   3.908  0.5469 -1.4990 -0.6551
   53MOL0     H 7096   5.522   0.757   4.152 -1.8215  2.3001  0.3296
   53MOL0     H 7097   5.637   0.859   4.069  0.2842 -2.1207 -0.2271
   53MOL0     H 7098   5.429   0.977   4.108  0.8617  0.1676 -0.5182
   53MOL0     H 7099   5.416   0.939   3.940  0.2570  1.6787  0.6384
   53MOL0     H 7100   5.287   0.737   3.997  0.9475 -0.2182 -0.4855
   53MOL0     H 7101   5.285   0.786   4.174  0.0946  4.2628  1.0335
   53MOL0     H 7102   5.145   0.958   4.143  0.5590 -0.4053  0.2183
   53MOL0     H 7103   5.186   0.972   3.959  0.0012 -1.5267 -0.5622
   53MOL0     H 7104   5.005   0.767   4.095 -1.2624 -0.9080 -1.6571
   53MOL0     H 7105   5.044   0.787   3.925  1.2446 -0.4811 -0.4197
   53MOL0     H 7106   4.894   0.966   4.235 -0.1739  0.0371  0.1611
   53MOL0     H 7107   4.654   1.111   4.254 -1.4072  1.3566  0.3995
   53MOL0     H 7108   4.722   1.253   4.176  0.2458 -1.2131  1.0185
   53MOL0     H 7109   4.572   1.232   3.979 -0.6731  1.0711 -0.2144
   53MOL0     H 7110   4.480   1.259   4.133 -0.7325 -2.1168  1.6463
   53MOL0     H 7111   4.426   1.021   4.134 -0.0791  0.7898 -0.3739
   53MOL0     H 7112   4.513   1.005   3.981 -1.3783  1.3702 -2.1069
   53MOL0     H 7113   4.285   1.014   3.912 -2.5948  1.0179  0.4899
   53MOL0     H 7114   4.356   1.177   3.875 -0.1634 -2.5590 -2.6470
   53MOL0     H 7115   4.122   1.042   4.243 -0.5591 -0.5581  1.8937
   53MOL0     H 7116   3.962   0.870   4.323  0.6392  0.0012  0.9179
   53MOL0     H 7117   3.838   0.991   4.361 -2.0505  3.3757 -2.4830
   53MOL0     H 7118   3.803   0.855   4.254 -0.0619  0.0509  1.0055
   53MOL0     H 7119   3.405   1.144   3.988 -3.0283 -1.0575  2.7535
   53MOL0     H 7120   3.187   1.085   3.924  1.3148  1.0818  2.1634
   53MOL0     H 7121   3.158   0.782   3.604  0.4197  2.6569  0.7790
   53MOL0     H 7122   3.102   0.658   3.729  0.4442 -0.4435  1.2479
   53MOL0     H 7123   2.876   0.761   3.706 -0.8065  0.0312 -0.2990
   53MOL0     H 7124   2.949   0.884   3.592 -3.1843  0.6671  0.5502
   53MOL0     H 7125   2.825   0.655   3.505 -0.0191  3.5833  1.0587
   53MOL0     H 7126   2.983   0.580   3.530 -0.1160  0.4333 -0.3284
   53MOL0     H 7127   2.958   0.849   3.383  2.2299  1.6668  0.4069
   53MOL0     H 7128   3.087   0.732   3.372  0.1831  2.6106 -1.8329
   53MOL0     H 7129   2.960   0.730   3.166  0.3508 -1.6315 -1.2774
   53MOL0     H 7130   2.806   0.720   3.257 -0.9389 -1.5163 -1.9337
   53MOL0     H 7131   2.986   0.489   3.265  0.5424  0.2607 -0.8470
   53MOL0     H 7132   2.817   0.505   3.320 -0.1028 -1.1890 -1.0159
   53MOL0     H 7133   2.889   0.558   3.030  1.0066 -1.5875 -0.9781
   53MOL0     H 7134   2.728   0.533   3.100 -0.2976  0.8433 -1.8934
   53MOL0     H 7135   2.870   0.296   3.174 -0.8539  0.2833  0.6973
   53MOL0     H 7136   2.953   0.354   3.033  0.5052 -1.6423  1.2316
   53MOL0     H 7137   3.318   0.722   3.739 -0.6189  0.2259 -2.1053
   53MOL0     H 7138   3.549   0.781   3.802 -0.2453 -0.4984  0.2142
   53MOL0     H 7139   3.804   1.178   3.889  0.4346 -1.1060 -2.3244
   53MOL0     H 7140   4.041   1.218   3.857  1.4646 -3.2067 -1.1686
   53MOL0     H 7141   6.023   0.631   3.809  1.4959  3.3539  1.0182
   53MOL0     H 7142   6.263   0.665   3.786 -1.1353  2.0976  0.9247
   53MOL0     H 7143   6.683   0.500   3.955 -0.0516  0.4387 -1.1108
   53MOL0     H 7144   6.928   0.521   3.948 -1.2080 -0.7871 -1.9532
   53MOL0     H 7145   7.137   0.859   3.777 -2.5326 -3.4525 -0.5560
   53MOL0     H 7146   7.106   0.916   3.940 -1.2615  0.2072 -1.7163
   53MOL0     H 7147   7.317   0.810   4.021 -1.0908  2.3333  1.1131
   53MOL0     H 7148   7.340   0.929   3.898  0.4003  0.3660 -0.0459
   53MOL0     H 7149   7.379   0.744   3.730 -0.3933  0.6630  0.1923
   53MOL0     H 7150   7.290   0.637   3.837 -0.3613  0.6710  0.9665
   53MOL0     H 7151   7.526   0.568   3.832 -3.5071 -0.5424 -0.2519
   53MOL0     H 7152   7.490   0.608   3.984  2.9990 -3.3608 -1.0599
   53MOL0     H 7153   7.781   0.900   3.813 -1.6132  1.9218 -0.5676
   53MOL0     H 7154   6.904   0.939   3.855  0.4223  0.0013  0.3751
   53MOL0     H 7155   6.681   0.929   3.895 -2.7326 -1.3298  2.6444
   54MOL0     O 7156   9.243   4.325   3.121  0.1009 -0.3458 -0.6207
   54MOL0     C 7157   9.267   4.445   3.114 -0.3173 -0.5607  0.6630
   54MOL0     O 7158   9.175   4.549   3.124 -0.0823  0.4132  0.4571
   54MOL0     C 7159   9.046   4.506   3.149  0.8739  0.3685  0.2540
   54MOL0     C 7160   8.999   4.422   3.245  0.3850  0.2234  0.5757
   54MOL0     C 7161   8.863   4.387   3.257  0.4332 -0.5019 -0.0767
   54MOL0     C 7162   8.773   4.442   3.168 -1.0385 -0.0396  0.1379
   54MOL0     O 7163   8.643   4.404   3.152  0.2053 -0.2496 -0.2591
   54MOL0     C 7164   8.617   4.258   3.135  0.6351 -0.0065 -0.4105
   54MOL0     C 7165   8.488   4.239   3.065  0.8418  0.4940  0.3158
   54MOL0     C 7166   8.359   4.223   3.152  0.4920  0.4115 -0.1433
   54MOL0     C 7167   8.235   4.191   3.067 -0.2657 -0.5918 -0.1069
   54MOL0     C 7168   8.111   4.170   3.161  0.0944  0.6420  0.4122
   54MOL0     C 7169   7.987   4.175   3.076  0.2632 -0.4024 -0.9271
   54MOL0     C 7170   7.850   4.161   3.140  0.2711 -0.2350  0.1309
   54MOL0     C 7171   7.818   4.289   3.222  0.4662  0.3921  0.1707
   54MOL0     N 7172   7.680   4.280   3.274 -0.7179 -0.0996 -0.3482
   54MOL0     C 7173   7.616   4.158   3.314 -0.5344 -0.4490 -0.7402
   54MOL0     C 7174   7.494   4.210   3.351 -0.5739 -0.3207 -0.0664
   54MOL0     C 7175   7.373   4.126   3.414 -0.2197 -0.0559  0.6795
   54MOL0     C 7176   7.247   4.209   3.435 -0.2045  0.1381  0.6531
   54MOL0     C 7177   7.129   4.124   3.493  0.3443  0.5824  0.3694
   54MOL0     C 7178   7.016   4.225   3.526  0.1692 -0.3638 -0.5488
   54MOL0     O 7179   6.890   4.158   3.553  0.1654  0.4113  0.3141
   54MOL0     C 7180   6.775   4.227   3.581  0.2606 -0.2920  0.3686
   54MOL0     C 7181   6.772   4.366   3.593  0.0370 -0.0293 -0.1668
   54MOL0     C 7182   6.661   4.430   3.643  1.1376  0.0231 -0.0037
   54MOL0     C 7183   6.669   4.581   3.649  0.1101 -0.7719  0.3496
   54MOL0     C 7184   6.546   4.359   3.685  0.3211  0.7842  0.2897
   54MOL0     C 7185   6.438   4.419   3.765  0.5695 -0.0014  0.2284
   54MOL0     O 7186   6.311   4.362   3.744 -0.1528 -0.4237  0.1623
   54MOL0     C 7187   6.191   4.420   3.779 -0.8254 -0.9372 -0.2856
   54MOL0     C 7188   6.169   4.556   3.792  0.7259  0.5757 -0.3957
   54MOL0     C 7189   6.042   4.602   3.808  0.1787  0.3103 -0.3593
   54MOL0     C 7190   5.935   4.520   3.824  0.1712 -0.9005 -0.0030
   54MOL0     O 7191   5.819   4.578   3.835  0.1992 -0.6339  0.4326
   54MOL0     C 7192   5.719   4.505   3.917 -0.9328  0.5261  0.4045
   54MOL0     C 7193   5.633   4.616   3.960 -0.8607 -0.2554  0.8255
   54MOL0     C 7194   5.509   4.579   4.038 -1.0385  0.7013  0.1556
   54MOL0     C 7195   5.450   4.712   4.074 -1.0554 -0.3033 -0.0574
   54MOL0     C 7196   5.316   4.705   4.142 -0.6030  0.7128 -0.3828
   54MOL0     C 7197   5.217   4.594   4.107  0.9020 -0.5627 -0.3305
   54MOL0     C 7198   5.093   4.578   4.200  0.6733 -0.2883 -0.2026
   54MOL0     C 7199   5.008   4.706   4.192 -0.3278  0.1187  0.0497
   54MOL0    Cl 7200   4.870   4.707   4.304  0.3291  0.0039  0.2530
   54MOL0     C 7201   5.954   4.383   3.796 -0.5355 -0.1190  0.6214
   54MOL0     C 7202   6.080   4.335   3.779 -0.3634 -0.3852 -0.7532
   54MOL0     O 7203   6.469   4.493   3.857  0.7813 -0.5877 -0.0595
   54MOL0     C 7204   6.546   4.218   3.662 -0.3261  0.4542 -0.4637
   54MOL0     C 7205   6.663   4.159   3.613  0.1396  0.4666  0.4020
   54MOL0     N 7206   7.489   4.348   3.320 -0.1391 -0.0404 -0.4945
   54MOL0     N 7207   7.605   4.389   3.278  0.6033  0.3164  0.5778
   54MOL0     C 7208   8.818   4.523   3.063 -0.3511  0.6478 -0.6858
   54MOL0     C 7209   8.957   4.546   3.051  0.2213 -0.1475  0.4581
   54MOL0     C 7210   9.413   4.483   3.086  0.7298  0.1994  0.0196
   54MOL0     C 7211   9.450   4.615   3.091  0.5600  0.5507 -0.7934
   54MOL0     C 7212   9.583   4.648   3.058  0.3369  0.3612 -0.5044
   54MOL0     C 7213   9.682   4.554   3.013  0.6950 -0.3122  0.5190
   54MOL0     O 7214   9.815   4.589   2.994 -0.1338 -0.1922 -0.7012
   54MOL0     C 7215   9.918   4.505   2.941  0.9135  0.0347  0.0990
   54MOL0     C 7216   9.936   4.531   2.790 -1.2147 -0.4777  0.1974
   54MOL0     C 7217  10.053   4.463   2.724 -0.6592 -0.2145  0.4660
   54MOL0     C 7218  10.088   4.523   2.591 -0.1913 -1.4332  0.7930
   54MOL0     C 7219  10.179   4.640   2.615  0.7267 -0.3169  0.6655
   54MOL0     C 7220  10.249   4.748   2.615 -0.5029  0.2900 -0.2439
   54MOL0     C 7221   9.639   4.420   3.006  0.3782  0.2260  0.2533
   54MOL0     C 7222   9.503   4.388   3.045 -0.3623  0.0392 -0.3636
   54MOL0     H 7223   9.076   4.388   3.314  1.8288  1.9206 -0.1293
   54MOL0     H 7224   8.842   4.316   3.337 -2.4478  1.5883  1.1787
   54MOL0     H 7225   8.695   4.209   3.076  1.7024  0.9075  0.2023
   54MOL0     H 7226   8.625   4.215   3.235  3.2737  0.7190 -0.2331
   54MOL0     H 7227   8.458   4.326   3.006 -1.0068  0.3040  0.9131
   54MOL0     H 7228   8.495   4.150   3.003  0.9743  0.8726 -0.2228
   54MOL0     H 7229   8.366   4.145   3.228 -0.5169  1.7868  1.4214
   54MOL0     H 7230   8.350   4.323   3.196  3.7542 -0.0749  1.9500
   54MOL0     H 7231   8.205   4.275   3.003 -0.7699 -0.5040  0.2370
   54MOL0     H 7232   8.248   4.102   3.005  0.1474 -1.0993  0.6952
   54MOL0     H 7233   8.124   4.081   3.224 -0.0019  0.4084  0.1025
   54MOL0     H 7234   8.102   4.247   3.238 -0.6957 -0.6509  1.6867
   54MOL0     H 7235   7.986   4.270   3.022  1.9386 -1.6046 -3.2068
   54MOL0     H 7236   8.004   4.094   3.005  1.9693 -1.9310  1.0851
   54MOL0     H 7237   7.768   4.154   3.068 -0.2198  0.7853  0.5684
   54MOL0     H 7238   7.852   4.077   3.210  2.7722  2.6245  3.9158
   54MOL0     H 7239   7.836   4.384   3.170  2.3885  0.8123  1.4539
   54MOL0     H 7240   7.888   4.291   3.307 -2.3025  0.2645  2.6213
   54MOL0     H 7241   7.661   4.060   3.322  2.0021  0.7090  0.8000
   54MOL0     H 7242   7.343   4.040   3.353 -0.8363  0.0466  0.8318
   54MOL0     H 7243   7.413   4.084   3.507  3.1959 -0.3514 -0.7738
   54MOL0     H 7244   7.219   4.250   3.338  2.4354  3.7979  1.2262
   54MOL0     H 7245   7.262   4.300   3.495 -0.9831 -0.4608  1.8165
   54MOL0     H 7246   7.154   4.073   3.586 -2.0590 -1.0439  0.2025
   54MOL0     H 7247   7.094   4.051   3.420  0.3441  0.2338  0.7179
   54MOL0     H 7248   7.000   4.296   3.444 -0.6464 -0.5169 -0.5332
   54MOL0     H 7249   7.056   4.283   3.610  1.1907 -2.5152  0.5237
   54MOL0     H 7250   6.857   4.429   3.567 -0.7700  0.4875 -1.6691
   54MOL0     H 7251   6.613   4.622   3.565 -1.2411  2.2442  2.5444
   54MOL0     H 7252   6.634   4.629   3.741 -2.2918  1.9650 -1.8212
   54MOL0     H 7253   6.772   4.617   3.644  0.1585 -0.6970  1.4525
   54MOL0     H 7254   6.255   4.622   3.783  1.8284 -1.0832 -3.6563
   54MOL0     H 7255   6.024   4.709   3.805 -1.6100  0.0249 -1.3352
   54MOL0     H 7256   5.658   4.436   3.859 -1.5051 -0.3230  1.9535
   54MOL0     H 7257   5.754   4.463   4.012 -1.1016  1.2834  0.8147
   54MOL0     H 7258   5.698   4.679   4.022  1.5450 -0.4427 -1.3135
   54MOL0     H 7259   5.614   4.677   3.871  0.6409 -1.0343 -0.0692
   54MOL0     H 7260   5.533   4.525   4.130  1.5555 -0.7952 -1.2519
   54MOL0     H 7261   5.440   4.526   3.971  0.6904  0.5842 -1.6361
   54MOL0     H 7262   5.517   4.760   4.146 -2.0754  0.5264  0.3632
   54MOL0     H 7263   5.449   4.783   3.991  1.7877  0.8590  0.8052
   54MOL0     H 7264   5.274   4.800   4.111  2.6612  2.1088 -0.9044
   54MOL0     H 7265   5.342   4.718   4.248  1.1974  0.8012 -0.8125
   54MOL0     H 7266   5.182   4.607   4.004 -0.7882 -1.1948  0.1193
   54MOL0     H 7267   5.266   4.496   4.112  1.1515 -0.3989  0.6823
   54MOL0     H 7268   5.111   4.541   4.302 -2.7055 -0.1330  0.5550
   54MOL0     H 7269   5.036   4.500   4.149  2.4789 -1.9357  0.1897
   54MOL0     H 7270   4.972   4.710   4.089  1.9939 -0.2762 -0.8336
   54MOL0     H 7271   5.079   4.785   4.217  1.2126 -0.0397 -3.3695
   54MOL0     H 7272   5.869   4.316   3.786 -0.6097  0.2604 -1.9267
   54MOL0     H 7273   6.098   4.228   3.777 -0.4250 -0.4874  1.5155
   54MOL0     H 7274   6.476   4.138   3.685 -0.2129  0.5306  0.1772
   54MOL0     H 7275   6.659   4.050   3.618 -2.4037  0.4262 -1.0372
   54MOL0     H 7276   8.738   4.566   3.003 -2.7628  1.1680  2.6349
   54MOL0     H 7277   8.998   4.594   2.963 -2.2745  0.2984 -0.5424
   54MOL0     H 7278   9.380   4.690   3.124 -2.1631 -2.3763  0.5832
   54MOL0     H 7279   9.618   4.750   3.051 -1.5251  1.1319  0.6626
   54MOL0     H 7280  10.011   4.519   2.996  1.0343 -1.7909  0.4466
   54MOL0     H 7281   9.893   4.400   2.957 -0.3305  0.1328 -0.9608
   54MOL0     H 7282   9.944   4.639   2.780 -0.1246 -0.3898  1.7172
   54MOL0     H 7283   9.845   4.497   2.739 -0.0557 -4.5246  0.4323
   54MOL0     H 7284  10.037   4.359   2.697 -1.6000  0.7381 -3.2425
   54MOL0     H 7285  10.135   4.485   2.794  0.7871  3.5180 -2.0493
   54MOL0     H 7286   9.999   4.555   2.536  0.0047  1.8224  2.1626
   54MOL0     H 7287  10.151   4.449   2.541 -0.3375 -4.6719  4.8913
   54MOL0     H 7288  10.298   4.842   2.621  3.9193 -1.7306 -0.6616
   54MOL0     H 7289   9.695   4.335   2.969 -1.6142 -0.8075 -0.5464
   54MOL0     H 7290   9.470   4.285   3.039  0.5773 -0.1849 -2.8243
   55MOL0     O 7291   0.962   4.393   4.775 -0.5127  0.0748  0.0014
   55MOL0     C 7292   1.007   4.295   4.716  0.1729 -0.4061  0.4501
   55MOL0     O 7293   0.954   4.171   4.714  0.2221  0.7154  0.2303
   55MOL0     C 7294   0.823   4.139   4.728  0.7420 -0.6961  0.1567
   55MOL0     C 7295   0.718   4.225   4.728 -0.1475 -0.4225  0.4301
   55MOL0     C 7296   0.585   4.192   4.747  0.9422 -0.3469  0.3773
   55MOL0     C 7297   0.560   4.059   4.788 -0.7422 -0.0335  0.4319
   55MOL0     O 7298   0.444   4.007   4.830 -1.2696 -0.1262 -0.6754
   55MOL0     C 7299   0.331   4.096   4.850 -0.2920  0.4513  1.0584
   55MOL0     C 7300   0.257   4.116   4.719 -0.3910 -0.3341  0.3959
   55MOL0     C 7301   0.202   3.989   4.657 -0.3959  0.8249 -0.2312
   55MOL0     C 7302   0.079   3.932   4.732 -0.1370  0.5251  1.0021
   55MOL0     C 7303  -0.002   3.822   4.661 -0.0173 -0.1213 -0.0764
   55MOL0     C 7304  -0.130   3.788   4.741 -0.1830 -0.1912  0.2861
   55MOL0     C 7305  -0.235   3.902   4.723 -0.2854 -0.8105 -0.1806
   55MOL0     C 7306  -0.379   3.851   4.746 -0.0374  0.4877 -0.0788
   55MOL0     N 7307  -0.476   3.955   4.712  0.4075 -0.6327 -0.3228
   55MOL0     C 7308  -0.592   3.993   4.781  0.2792 -0.3708  0.3550
   55MOL0     C 7309  -0.658   4.088   4.703  0.0040 -0.3179  1.0864
   55MOL0     C 7310  -0.796   4.130   4.750 -0.4894 -0.4396  0.7346
   55MOL0     C 7311  -0.782   4.186   4.885 -0.8588  0.1323 -0.3383
   55MOL0     C 7312  -0.887   4.297   4.907  0.6374 -1.1649 -0.6575
   55MOL0     C 7313  -1.037   4.251   4.917 -0.7770  0.5240 -0.2828
   55MOL0     O 7314  -1.117   4.351   4.856  0.6256  0.0433  0.3455
   55MOL0     C 7315  -1.256   4.341   4.839 -0.2532 -0.0029  0.5268
   55MOL0     C 7316  -1.324   4.223   4.839  0.0556  0.3349  0.1746
   55MOL0     C 7317  -1.459   4.217   4.821 -0.0128  0.4270  0.2981
   55MOL0     C 7318  -1.522   4.082   4.820  0.1146 -0.0375 -0.9903
   55MOL0     C 7319  -1.534   4.334   4.804 -0.0944 -0.3267 -0.0385
   55MOL0     C 7320  -1.678   4.322   4.784 -0.3328 -0.2382 -0.4338
   55MOL0     O 7321  -1.751   4.270   4.896  0.0205  0.2590  0.3523
   55MOL0     C 7322  -1.884   4.253   4.893 -0.7741  0.4972 -0.5191
   55MOL0     C 7323  -1.943   4.198   4.787  0.8154  0.2044  0.6172
   55MOL0     C 7324  -2.087   4.186   4.794 -0.0297  0.0340 -0.0072
   55MOL0     C 7325  -2.167   4.229   4.908  0.4213 -0.1988  0.2569
   55MOL0     O 7326  -2.298   4.196   4.928  0.4832  1.1947  0.7986
   55MOL0     C 7327  -2.364   4.130   4.816  0.1956 -1.9336  0.2151
   55MOL0     C 7328  -2.496   4.070   4.877  0.6560 -0.2294  0.2488
   55MOL0     C 7329  -2.594   4.178   4.915 -0.3460  0.9428  0.1105
   55MOL0     C 7330  -2.712   4.124   4.997 -0.3972 -0.4687  0.0135
   55MOL0     C 7331  -2.799   4.249   5.044 -0.4875  1.1773  0.6300
   55MOL0     C 7332  -2.896   4.194   5.149 -0.2131 -0.6719 -0.2143
   55MOL0     C 7333  -2.966   4.315   5.222 -0.8089  0.7647 -0.2865
   55MOL0     C 7334  -3.098   4.282   5.301  0.1151 -1.2722  0.2174
   55MOL0    Cl 7335  -3.237   4.217   5.199  0.1403  0.0728  0.6155
   55MOL0     C 7336  -2.098   4.291   5.009  0.1136 -0.4811 -1.0225
   55MOL0     C 7337  -1.956   4.307   5.006 -0.3009  0.8186  0.9029
   55MOL0     O 7338  -1.732   4.371   4.686  0.6102 -0.5783 -0.3684
   55MOL0     C 7339  -1.468   4.459   4.802 -0.5049 -0.5045  0.0953
   55MOL0     C 7340  -1.334   4.462   4.820  0.1657 -0.1789  0.2047
   55MOL0     N 7341  -0.605   4.089   4.574 -0.0733 -0.4645  0.7575
   55MOL0     N 7342  -0.499   4.013   4.592 -0.1327  0.1595 -0.4340
   55MOL0     C 7343   0.663   3.969   4.801 -0.4254  0.5117  0.0951
   55MOL0     C 7344   0.797   4.012   4.770 -0.0006 -0.0477 -0.3189
   55MOL0     C 7345   1.147   4.298   4.666  0.7313  0.2350  0.0045
   55MOL0     C 7346   1.186   4.236   4.541  0.4431 -0.3036  0.5782
   55MOL0     C 7347   1.318   4.246   4.493 -0.0860 -0.3536 -0.3089
   55MOL0     C 7348   1.412   4.321   4.557  1.1441 -0.8227  0.1773
   55MOL0     O 7349   1.537   4.314   4.505 -0.0285  0.4184 -0.1461
   55MOL0     C 7350   1.553   4.405   4.389  0.2360  0.7876 -0.1423
   55MOL0     C 7351   1.546   4.549   4.438  0.1200 -0.5999 -0.7323
   55MOL0     C 7352   1.647   4.582   4.548  0.8092  0.4101  0.1051
   55MOL0     C 7353   1.791   4.542   4.525  0.2663 -0.2703 -0.8011
   55MOL0     C 7354   1.861   4.628   4.431  0.8512 -0.0905 -0.6076
   55MOL0     C 7355   1.900   4.720   4.370 -0.5328  0.2705  0.1809
   55MOL0     C 7356   1.385   4.362   4.689  0.2988  0.2868 -0.1393
   55MOL0     C 7357   1.250   4.368   4.730 -0.5231 -0.2654 -0.8783
   55MOL0     H 7358   0.743   4.327   4.698 -1.3282 -0.8675 -2.3623
   55MOL0     H 7359   0.515   4.274   4.739 -0.3636 -1.3879  0.5900
   55MOL0     H 7360   0.268   4.040   4.920  0.0555 -3.5827 -1.5421
   55MOL0     H 7361   0.353   4.190   4.901 -0.5523 -0.8231  3.7133
   55MOL0     H 7362   0.197   4.207   4.723  0.0668  0.0336 -0.6815
   55MOL0     H 7363   0.323   4.134   4.634  0.7029 -0.1503  1.2578
   55MOL0     H 7364   0.173   4.008   4.554 -1.7083  1.1273  0.1778
   55MOL0     H 7365   0.285   3.918   4.655 -1.4701 -0.4944  0.3344
   55MOL0     H 7366   0.122   3.887   4.822  4.3725  0.9535 -0.7229
   55MOL0     H 7367   0.013   4.014   4.764  0.7406  1.1369  1.2863
   55MOL0     H 7368  -0.025   3.850   4.558 -0.1383 -1.7271 -0.5076
   55MOL0     H 7369   0.064   3.735   4.662 -1.4054 -1.2173 -1.2852
   55MOL0     H 7370  -0.177   3.700   4.696  2.3439 -0.3566 -2.2733
   55MOL0     H 7371  -0.106   3.765   4.845 -0.4532 -2.7240 -0.1517
   55MOL0     H 7372  -0.206   3.976   4.798 -0.7532 -0.8850  0.0801
   55MOL0     H 7373  -0.228   3.941   4.622  0.6179  0.7046  0.4346
   55MOL0     H 7374  -0.396   3.816   4.848 -1.7469  0.2646 -0.4080
   55MOL0     H 7375  -0.401   3.769   4.677 -0.0887  0.7268 -0.3503
   55MOL0     H 7376  -0.622   3.966   4.881  2.9901  2.0214  1.9688
   55MOL0     H 7377  -0.847   4.197   4.681 -2.6626 -1.9800  0.7261
   55MOL0     H 7378  -0.856   4.038   4.748  1.7042 -2.0975  3.5739
   55MOL0     H 7379  -0.687   4.235   4.907 -1.4367  1.5169 -0.7639
   55MOL0     H 7380  -0.792   4.110   4.963 -2.2234  0.0235 -0.5829
   55MOL0     H 7381  -0.875   4.383   4.841 -0.5099 -0.3533  0.1653
   55MOL0     H 7382  -0.871   4.346   5.003 -2.9586 -2.3123  0.6935
   55MOL0     H 7383  -1.074   4.246   5.020  1.5115  1.1718  0.6493
   55MOL0     H 7384  -1.040   4.147   4.883 -3.0242 -1.0645  4.0442
   55MOL0     H 7385  -1.261   4.135   4.847  0.9068  0.9832  0.9172
   55MOL0     H 7386  -1.603   4.069   4.749 -0.2047 -2.4578 -0.2988
   55MOL0     H 7387  -1.452   3.998   4.811  1.2270  0.5309  1.3920
   55MOL0     H 7388  -1.563   4.076   4.922  2.4506 -0.3022  0.0144
   55MOL0     H 7389  -1.876   4.165   4.708  1.4876 -1.5946  1.8692
   55MOL0     H 7390  -2.138   4.147   4.706  2.3102  0.5037 -1.6882
   55MOL0     H 7391  -2.396   4.192   4.732  1.2036 -1.0082  0.4864
   55MOL0     H 7392  -2.300   4.051   4.776  1.4228 -0.5215 -0.7270
   55MOL0     H 7393  -2.542   4.020   4.791  0.9515 -0.8451  0.4470
   55MOL0     H 7394  -2.482   3.996   4.956 -1.3047 -2.1837 -1.1072
   55MOL0     H 7395  -2.634   4.227   4.825 -1.2098 -0.3585 -0.2462
   55MOL0     H 7396  -2.544   4.253   4.976  0.3781  0.0737  0.6076
   55MOL0     H 7397  -2.766   4.053   4.933  0.8229 -0.2605 -1.2906
   55MOL0     H 7398  -2.667   4.067   5.079  1.9665 -1.3884 -1.7909
   55MOL0     H 7399  -2.854   4.287   4.958  0.2731  1.8281  0.4201
   55MOL0     H 7400  -2.732   4.326   5.083  1.6251  0.6033 -1.6187
   55MOL0     H 7401  -2.970   4.131   5.099 -0.5194  0.7801 -1.6810
   55MOL0     H 7402  -2.843   4.135   5.224  2.2856  1.5510 -0.0798
   55MOL0     H 7403  -2.993   4.376   5.135 -0.2825 -1.7800 -2.3883
   55MOL0     H 7404  -2.899   4.374   5.285  0.3628 -0.5258 -0.2611
   55MOL0     H 7405  -3.134   4.380   5.335  2.5963  0.5964 -2.0648
   55MOL0     H 7406  -3.075   4.216   5.385 -0.2011 -2.9222 -0.9425
   55MOL0     H 7407  -2.148   4.322   5.101  2.6755 -0.4384  0.4426
   55MOL0     H 7408  -1.901   4.351   5.089 -1.6816 -0.8650  2.7875
   55MOL0     H 7409  -1.514   4.557   4.794 -0.9207 -0.7029 -0.0121
   55MOL0     H 7410  -1.274   4.552   4.829 -1.6489  0.9748  1.4609
   55MOL0     H 7411   0.641   3.866   4.827  1.2241 -0.0949 -0.7607
   55MOL0     H 7412   0.863   3.926   4.763 -2.5124 -1.9744 -1.7817
   55MOL0     H 7413   1.109   4.186   4.483  1.1989 -1.4743  0.5481
   55MOL0     H 7414   1.356   4.199   4.403 -0.3485 -2.5343  0.6490
   55MOL0     H 7415   1.652   4.378   4.350  0.8854 -1.7858  2.8158
   55MOL0     H 7416   1.487   4.394   4.302  2.4532  1.0952 -1.9539
   55MOL0     H 7417   1.445   4.572   4.471  0.0299 -0.0931 -1.3375
   55MOL0     H 7418   1.562   4.620   4.356 -5.0880  0.3936 -1.2204
   55MOL0     H 7419   1.604   4.542   4.640 -0.3919  2.7150  0.6219
   55MOL0     H 7420   1.635   4.690   4.566 -1.0302  0.4161 -0.9273
   55MOL0     H 7421   1.798   4.442   4.482  1.1827 -0.2672 -0.6938
   55MOL0     H 7422   1.845   4.543   4.621  1.3951 -0.2830 -1.4143
   55MOL0     H 7423   1.927   4.786   4.291 -1.2183  0.4080  0.0574
   55MOL0     H 7424   1.455   4.409   4.757  1.1733  0.9210 -1.4432
   55MOL0     H 7425   1.218   4.412   4.823  0.0465 -1.1983 -0.2298
   56MOL0     O 7426   1.947   4.638  11.011  0.5388 -0.7155 -0.0052
   56MOL0     C 7427   1.996   4.660  10.904  0.5792  0.2694  0.4870
   56MOL0     O 7428   1.943   4.629  10.781  0.3929  0.1783  0.0335
   56MOL0     C 7429   1.825   4.564  10.761  0.2321 -0.2829 -0.3565
   56MOL0     C 7430   1.708   4.568  10.847 -0.2325 -0.4996 -0.3733
   56MOL0     C 7431   1.590   4.500  10.808 -0.5456  0.2491  0.0650
   56MOL0     C 7432   1.590   4.423  10.690  0.0133  0.3036  1.1319
   56MOL0     O 7433   1.492   4.347  10.633 -0.2573  0.2850 -0.4339
   56MOL0     C 7434   1.350   4.378  10.627 -0.3421 -0.3071 -0.2112
   56MOL0     C 7435   1.273   4.302  10.515  0.0394  0.0120  0.2375
   56MOL0     C 7436   1.256   4.159  10.547  0.2571  1.5497  0.2671
   56MOL0     C 7437   1.114   4.112  10.514  1.0113 -0.5679 -0.5503
   56MOL0     C 7438   1.080   3.967  10.550  0.6431 -0.2321  0.3101
   56MOL0     C 7439   0.961   3.924  10.469  0.2106 -0.1509 -0.7060
   56MOL0     C 7440   0.938   3.779  10.492  0.1338  0.5492 -0.0496
   56MOL0     C 7441   0.784   3.751  10.455  0.0241 -0.4145 -0.3646
   56MOL0     N 7442   0.686   3.784  10.559 -0.0896  0.3640 -0.3441
   56MOL0     C 7443   0.554   3.778  10.542  0.3671 -0.2345  0.1104
   56MOL0     C 7444   0.507   3.797  10.666  0.5951 -0.1537 -0.3921
   56MOL0     C 7445   0.359   3.778  10.709 -0.6585  0.6281  0.6778
   56MOL0     C 7446   0.309   3.636  10.709  0.2710  0.3107 -0.2026
   56MOL0     C 7447   0.186   3.609  10.789  0.9614 -0.6801 -0.4989
   56MOL0     C 7448   0.051   3.659  10.740  0.1880  0.2476 -1.2083
   56MOL0     O 7449  -0.055   3.644  10.835  0.2986  0.4037 -0.1546
   56MOL0     C 7450  -0.190   3.691  10.811  0.2039  1.5589  0.3498
   56MOL0     C 7451  -0.232   3.727  10.689 -0.8907  0.5929 -0.6221
   56MOL0     C 7452  -0.365   3.762  10.657 -0.4176  1.1347  0.3195
   56MOL0     C 7453  -0.414   3.780  10.512  0.3144 -0.3508 -0.2985
   56MOL0     C 7454  -0.452   3.787  10.770  0.6374  0.3657  0.7964
   56MOL0     C 7455  -0.593   3.844  10.760  0.0830  0.4651  0.3964
   56MOL0     O 7456  -0.645   3.861  10.628  1.1568  0.1629 -0.1953
   56MOL0     C 7457  -0.772   3.912  10.609 -0.2452  0.8617 -0.8803
   56MOL0     C 7458  -0.832   4.008  10.687  0.3269  0.4754 -0.1625
   56MOL0     C 7459  -0.968   4.040  10.670 -0.1320 -0.1560  0.6016
   56MOL0     C 7460  -1.037   3.990  10.557  0.2059 -0.3761 -0.9917
   56MOL0     O 7461  -1.164   4.021  10.521  0.3909  0.6982  0.0540
   56MOL0     C 7462  -1.249   4.091  10.616  0.0753 -0.4003 -0.7109
   56MOL0     C 7463  -1.388   4.086  10.564 -0.6852 -0.3314  0.3633
   56MOL0     C 7464  -1.489   4.104  10.673 -0.3688 -0.2661 -0.2115
   56MOL0     C 7465  -1.624   4.133  10.612  0.1939 -0.4500 -1.1209
   56MOL0     C 7466  -1.734   4.134  10.720  0.0178 -0.0011 -0.1588
   56MOL0     C 7467  -1.870   4.129  10.655 -0.9349  0.4985 -1.1358
   56MOL0     C 7468  -1.905   4.260  10.596  0.4361 -0.0387  0.0411
   56MOL0     C 7469  -2.039   4.248  10.522  0.0927 -0.6754 -0.1416
   56MOL0    Cl 7470  -2.081   4.418  10.456 -0.2325 -0.0577 -0.5110
   56MOL0     C 7471  -0.975   3.899  10.476  0.3032  1.0167 -0.9084
   56MOL0     C 7472  -0.845   3.855  10.497  0.9389 -0.4832 -0.4679
   56MOL0     O 7473  -0.654   3.863  10.869 -0.5487  0.1409 -0.2864
   56MOL0     C 7474  -0.407   3.749  10.901  0.2032  0.6139  0.0763
   56MOL0     C 7475  -0.280   3.705  10.918 -0.5214  0.9980 -0.4925
   56MOL0     N 7476   0.618   3.804  10.749 -0.1495  0.2989 -0.3011
   56MOL0     N 7477   0.724   3.800  10.692 -0.1763  0.3618  0.8063
   56MOL0     C 7478   1.695   4.431  10.603 -0.3894  0.1628  0.8476
   56MOL0     C 7479   1.809   4.514  10.633  0.6513  0.3913 -0.2465
   56MOL0     C 7480   2.134   4.708  10.912 -0.3204  0.2058  0.0525
   56MOL0     C 7481   2.225   4.678  10.808  0.9429  0.8302  0.1480
   56MOL0     C 7482   2.348   4.735  10.819  0.1625  0.3049  0.0872
   56MOL0     C 7483   2.396   4.793  10.942  0.0613  0.8414 -0.5584
   56MOL0     O 7484   2.517   4.855  10.941  0.2261  0.1269 -0.7990
   56MOL0     C 7485   2.576   4.906  11.060 -0.0097  0.6699  0.3548
   56MOL0     C 7486   2.715   4.973  11.051 -0.3445  0.2717 -0.0746
   56MOL0     C 7487   2.816   4.895  10.976  0.7709  0.2258  0.2356
   56MOL0     C 7488   2.863   4.949  10.841  0.5207 -0.1460 -0.1686
   56MOL0     C 7489   2.922   5.087  10.852 -0.0434  0.5948 -0.0487
   56MOL0     C 7490   2.989   5.194  10.859  0.2617  0.7092 -0.1091
   56MOL0     C 7491   2.315   4.784  11.054 -0.2310  0.0580 -0.6708
   56MOL0     C 7492   2.182   4.759  11.034 -0.4944 -1.0547 -0.6125
   56MOL0     H 7493   1.710   4.613  10.946  0.1378  1.1884 -1.1116
   56MOL0     H 7494   1.505   4.505  10.876  0.7480  0.2513  1.7556
   56MOL0     H 7495   1.299   4.357  10.721 -1.0968  0.9956 -0.2973
   56MOL0     H 7496   1.341   4.485  10.607  0.4889 -0.5037 -1.8032
   56MOL0     H 7497   1.179   4.353  10.493  0.0263 -0.5622 -1.0716
   56MOL0     H 7498   1.318   4.312  10.416 -1.2557 -4.4489 -1.0232
   56MOL0     H 7499   1.324   4.103  10.482 -1.2282 -1.0639  0.8028
   56MOL0     H 7500   1.276   4.141  10.653  0.5290 -0.0103 -0.0231
   56MOL0     H 7501   1.034   4.169  10.561 -0.0447  1.0105 -3.9952
   56MOL0     H 7502   1.107   4.128  10.406  1.8706 -1.1813 -0.7116
   56MOL0     H 7503   1.163   3.900  10.526  0.1269  0.1059 -2.7741
   56MOL0     H 7504   1.057   3.962  10.657 -1.9378 -0.0673 -0.1674
   56MOL0     H 7505   0.875   3.990  10.486  0.5527 -0.0916  0.9680
   56MOL0     H 7506   0.981   3.934  10.362 -2.5561  1.8865 -1.1560
   56MOL0     H 7507   1.011   3.724  10.433 -1.4481 -1.3611 -0.3293
   56MOL0     H 7508   0.951   3.738  10.593  2.3584  3.8329  1.1938
   56MOL0     H 7509   0.771   3.644  10.437 -1.2510 -0.7454  2.1142
   56MOL0     H 7510   0.757   3.815  10.370 -0.3111  0.9621  0.7385
   56MOL0     H 7511   0.495   3.759  10.453 -0.4282  1.0005  0.3436
   56MOL0     H 7512   0.356   3.828  10.805  1.6406 -1.0234  1.6843
   56MOL0     H 7513   0.294   3.835  10.641 -2.0959 -1.7016 -0.0448
   56MOL0     H 7514   0.387   3.582  10.764 -1.3674  0.2154  2.2041
   56MOL0     H 7515   0.299   3.595  10.608 -0.3909  0.5418 -0.2340
   56MOL0     H 7516   0.197   3.654  10.888  0.4018 -1.5668 -0.0163
   56MOL0     H 7517   0.172   3.501  10.804 -0.2528 -0.1105  3.8827
   56MOL0     H 7518   0.028   3.607  10.646  2.6785  2.0598 -2.9350
   56MOL0     H 7519   0.061   3.766  10.718 -1.3425  1.1566  1.9138
   56MOL0     H 7520  -0.164   3.745  10.607  0.8092  2.0254  1.0020
   56MOL0     H 7521  -0.339   3.737  10.445 -0.4766 -0.7901 -0.9179
   56MOL0     H 7522  -0.508   3.725  10.496 -1.4590  1.6949  2.1418
   56MOL0     H 7523  -0.438   3.883  10.484 -0.7123 -0.2310  0.8995
   56MOL0     H 7524  -0.772   4.050  10.768 -1.5744 -1.1586  2.2609
   56MOL0     H 7525  -1.025   4.094  10.745 -1.7265 -0.4181 -0.3705
   56MOL0     H 7526  -1.246   4.032  10.708  0.3242 -0.2084 -0.5967
   56MOL0     H 7527  -1.226   4.196  10.638 -1.5739  0.1943 -1.6080
   56MOL0     H 7528  -1.399   4.163  10.488  0.9860 -0.0581  0.3589
   56MOL0     H 7529  -1.402   3.987  10.520 -2.0663 -0.4694  1.0568
   56MOL0     H 7530  -1.477   4.195  10.733 -2.7741  1.3774 -2.0318
   56MOL0     H 7531  -1.492   4.014  10.735  0.5377 -0.5735 -0.5968
   56MOL0     H 7532  -1.611   4.216  10.542  1.4117 -1.8730 -2.6656
   56MOL0     H 7533  -1.645   4.045  10.551  0.2358 -0.3992 -1.2079
   56MOL0     H 7534  -1.722   4.224  10.781 -0.3801  0.6631 -1.0400
   56MOL0     H 7535  -1.710   4.045  10.779  2.5096  0.5995 -0.1644
   56MOL0     H 7536  -1.875   4.053  10.577  0.7747  2.5345 -3.4339
   56MOL0     H 7537  -1.936   4.101  10.737 -0.8596 -0.5867 -1.4325
   56MOL0     H 7538  -1.829   4.304  10.531 -0.5109  3.1484  0.9048
   56MOL0     H 7539  -1.926   4.334  10.675 -0.5206 -1.5032  1.2113
   56MOL0     H 7540  -2.119   4.209  10.585 -1.8761  1.5203 -1.1278
   56MOL0     H 7541  -2.042   4.177  10.439 -0.8781 -0.9855  0.1488
   56MOL0     H 7542  -1.031   3.856  10.392  0.0035  1.9838 -1.2149
   56MOL0     H 7543  -0.791   3.787  10.431  0.6891 -0.2855 -0.8747
   56MOL0     H 7544  -0.465   3.762  10.992  0.7080 -0.4276  0.5483
   56MOL0     H 7545  -0.239   3.672  11.013 -0.8171 -0.3471 -0.8041
   56MOL0     H 7546   1.696   4.383  10.505  0.1279  3.1940 -0.7579
   56MOL0     H 7547   1.892   4.512  10.562  3.1115  1.0968  2.4146
   56MOL0     H 7548   2.196   4.633  10.714  0.3040 -3.4821  2.1757
   56MOL0     H 7549   2.416   4.739  10.734  0.0507 -0.7514 -0.0581
   56MOL0     H 7550   2.512   4.981  11.105  1.0819  2.8469 -1.4983
   56MOL0     H 7551   2.588   4.819  11.126  0.8292  3.0761  3.6102
   56MOL0     H 7552   2.747   4.991  11.155 -2.4091 -2.5230  1.1701
   56MOL0     H 7553   2.696   5.070  11.003 -2.1117 -1.0887 -2.3126
   56MOL0     H 7554   2.774   4.795  10.964  0.2764  0.4269  0.2565
   56MOL0     H 7555   2.905   4.884  11.039  0.7550 -2.5396 -0.1098
   56MOL0     H 7556   2.776   4.954  10.775 -0.6697 -0.2542  1.3378
   56MOL0     H 7557   2.930   4.873  10.799 -1.5651 -2.0340 -0.2695
   56MOL0     H 7558   3.036   5.286  10.889  1.6041 -0.4535  1.5306
   56MOL0     H 7559   2.352   4.812  11.152 -1.3612 -1.4510  0.2376
   56MOL0     H 7560   2.113   4.765  11.117 -0.4558 -3.6025 -0.3119
   57MOL0     O 7561   5.457   3.486   3.907 -0.0091  0.3676 -0.4823
   57MOL0     C 7562   5.498   3.595   3.928  0.0785  0.4189 -0.5760
   57MOL0     O 7563   5.414   3.692   3.976  0.0344 -0.0212 -0.5896
   57MOL0     C 7564   5.276   3.676   3.998 -1.0758 -0.2493 -0.1424
   57MOL0     C 7565   5.210   3.559   4.028  0.0846  0.1428  0.3757
   57MOL0     C 7566   5.075   3.560   4.054  0.3045  0.4369  0.1180
   57MOL0     C 7567   4.999   3.684   4.066 -0.2392  0.5228  0.1974
   57MOL0     O 7568   4.874   3.683   4.110  0.3018 -0.2253  0.0501
   57MOL0     C 7569   4.785   3.752   4.026 -0.7328 -0.1570  0.8233
   57MOL0     C 7570   4.643   3.698   4.056 -0.6436  0.3928 -0.5778
   57MOL0     C 7571   4.538   3.744   3.954  0.1869 -0.5806  0.0613
   57MOL0     C 7572   4.528   3.896   3.943 -0.3477 -0.3087  0.2186
   57MOL0     C 7573   4.421   3.918   3.834 -0.7339  0.1429  0.5180
   57MOL0     C 7574   4.275   3.928   3.880  0.1024  0.4476  0.0844
   57MOL0     C 7575   4.186   3.934   3.756 -0.0249  0.2121 -0.1763
   57MOL0     C 7576   4.054   3.982   3.808 -0.1230  0.0114 -0.4617
   57MOL0     N 7577   3.951   3.965   3.715 -0.6015  0.1426 -0.3593
   57MOL0     C 7578   3.906   3.854   3.646 -0.5510  1.0362  0.8569
   57MOL0     C 7579   3.790   3.896   3.578 -0.9073 -0.0528  0.4598
   57MOL0     C 7580   3.676   3.808   3.532  0.0395  0.2337 -0.5951
   57MOL0     C 7581   3.537   3.872   3.569 -0.4508  0.6765  0.0348
   57MOL0     C 7582   3.428   3.759   3.587  0.5019  0.3328  0.0522
   57MOL0     C 7583   3.289   3.831   3.601  0.0324  0.3703 -0.8406
   57MOL0     O 7584   3.199   3.734   3.652  0.7314  0.4235  0.2473
   57MOL0     C 7585   3.083   3.720   3.579 -0.2802 -0.4001 -0.5838
   57MOL0     C 7586   3.012   3.604   3.566  0.8997 -0.4931 -0.3047
   57MOL0     C 7587   2.897   3.588   3.484  0.7797 -0.0318  0.1138
   57MOL0     C 7588   2.827   3.462   3.481  0.9112 -0.6243  0.6810
   57MOL0     C 7589   2.844   3.708   3.423  0.1979  0.5383 -0.5532
   57MOL0     C 7590   2.726   3.709   3.339 -0.3245  1.0448 -0.5175
   57MOL0     O 7591   2.684   3.829   3.300  0.2170  0.0490  0.1487
   57MOL0     C 7592   2.575   3.834   3.219  0.0372 -0.6195 -0.3141
   57MOL0     C 7593   2.441   3.849   3.271 -1.3791 -0.6850  0.8212
   57MOL0     C 7594   2.339   3.858   3.176 -0.4928 -0.0273  0.4757
   57MOL0     C 7595   2.358   3.844   3.032  0.0153 -0.5817 -0.2057
   57MOL0     O 7596   2.263   3.833   2.929  0.2325  0.3460 -0.1380
   57MOL0     C 7597   2.114   3.842   2.944  0.0100 -0.0192  0.1059
   57MOL0     C 7598   2.067   3.992   2.966 -0.2624  0.8704  0.6333
   57MOL0     C 7599   2.098   4.091   2.848 -0.0925  0.1354 -0.6382
   57MOL0     C 7600   2.245   4.123   2.814 -0.3179 -0.3437 -0.1941
   57MOL0     C 7601   2.248   4.239   2.719 -0.7848 -0.1463  0.0514
   57MOL0     C 7602   2.201   4.214   2.576 -0.5806  0.0316  0.3633
   57MOL0     C 7603   2.207   4.337   2.483 -1.0058 -0.1055  0.0613
   57MOL0     C 7604   2.113   4.324   2.359 -0.8157 -0.2627  0.3937
   57MOL0    Cl 7605   2.083   4.493   2.293 -0.1785  0.0931  0.0339
   57MOL0     C 7606   2.491   3.840   2.992 -0.6174  0.2080  0.4441
   57MOL0     C 7607   2.601   3.836   3.075  0.7930 -0.7831  1.2041
   57MOL0     O 7608   2.669   3.602   3.307 -0.2434  0.4337  0.2718
   57MOL0     C 7609   2.913   3.831   3.443 -0.1563  0.2059  0.5954
   57MOL0     C 7610   3.031   3.831   3.512 -0.3210 -0.3696 -0.2896
   57MOL0     N 7611   3.779   4.033   3.595 -0.4678 -0.5966  0.4421
   57MOL0     N 7612   3.871   4.072   3.677  0.2292 -0.1363  0.1432
   57MOL0     C 7613   5.066   3.801   4.041 -0.5152  0.2079 -0.0021
   57MOL0     C 7614   5.200   3.791   4.001 -0.6121 -0.8771 -0.1723
   57MOL0     C 7615   5.638   3.624   3.898 -0.8880 -0.4207 -0.1722
   57MOL0     C 7616   5.693   3.754   3.909  0.5210  0.1857  0.0743
   57MOL0     C 7617   5.826   3.774   3.866 -0.6213 -0.3213 -0.0906
   57MOL0     C 7618   5.910   3.675   3.824  0.1785  0.7314  0.5477
   57MOL0     O 7619   6.041   3.710   3.783 -0.0092 -0.0291 -0.8135
   57MOL0     C 7620   6.135   3.598   3.786 -0.3399 -0.8652 -0.3000
   57MOL0     C 7621   6.279   3.650   3.778  0.8066 -0.4423  0.0260
   57MOL0     C 7622   6.383   3.544   3.767  0.8423  0.5467 -0.1263
   57MOL0     C 7623   6.522   3.588   3.759  0.4885 -0.6677  0.7320
   57MOL0     C 7624   6.557   3.675   3.869 -0.3651  0.2088 -0.0330
   57MOL0     C 7625   6.588   3.738   3.967 -0.2956  0.3523 -0.4325
   57MOL0     C 7626   5.863   3.546   3.824 -0.1619 -0.3113 -0.3895
   57MOL0     C 7627   5.728   3.523   3.864 -0.0613  1.0461 -0.1295
   57MOL0     H 7628   5.263   3.466   4.016 -0.4771 -0.0234 -1.0541
   57MOL0     H 7629   5.019   3.467   4.048  0.3435  0.4974 -2.7869
   57MOL0     H 7630   4.780   3.860   4.045 -2.1575 -0.0917  0.1915
   57MOL0     H 7631   4.819   3.718   3.927  1.5795 -1.0090  1.8261
   57MOL0     H 7632   4.642   3.588   4.057 -2.5026  0.2643  3.2447
   57MOL0     H 7633   4.603   3.714   4.157  0.6180 -0.2995  0.0770
   57MOL0     H 7634   4.585   3.712   3.860  3.0006 -1.0019  1.4969
   57MOL0     H 7635   4.444   3.695   3.979  0.0396  0.0051  0.6721
   57MOL0     H 7636   4.495   3.947   4.033  2.1544  3.8576 -0.9224
   57MOL0     H 7637   4.619   3.944   3.906 -0.6868 -0.4331 -0.8143
   57MOL0     H 7638   4.435   4.013   3.782 -1.5827  0.9174  1.6612
   57MOL0     H 7639   4.430   3.839   3.759 -0.1942 -0.2203  0.9662
   57MOL0     H 7640   4.245   3.845   3.945  2.4444 -1.3226 -0.9677
   57MOL0     H 7641   4.264   4.019   3.939  1.9548  0.9564 -0.2979
   57MOL0     H 7642   4.226   3.998   3.677 -0.4952 -0.7527 -1.2155
   57MOL0     H 7643   4.178   3.838   3.705  1.5813 -0.0517 -0.0059
   57MOL0     H 7644   4.054   4.088   3.835 -0.0334  0.5873 -2.5536
   57MOL0     H 7645   4.036   3.937   3.907  0.9721 -1.5445 -0.9307
   57MOL0     H 7646   3.933   3.749   3.657 -3.6106 -0.3097 -2.5602
   57MOL0     H 7647   3.678   3.785   3.425 -0.5233  1.0010 -0.7842
   57MOL0     H 7648   3.682   3.717   3.591 -1.8969 -0.2443 -1.0783
   57MOL0     H 7649   3.499   3.939   3.491 -2.9408 -1.6285 -0.8998
   57MOL0     H 7650   3.543   3.936   3.657 -1.2200  1.8707 -0.7453
   57MOL0     H 7651   3.448   3.702   3.678  1.0640  1.8374  0.8981
   57MOL0     H 7652   3.423   3.692   3.501  1.0750 -1.0197  1.0368
   57MOL0     H 7653   3.277   3.867   3.499  0.6975 -1.7935 -1.7323
   57MOL0     H 7654   3.293   3.912   3.675  1.6216 -1.6132  1.4243
   57MOL0     H 7655   3.048   3.520   3.624 -2.3313 -1.0885  1.0970
   57MOL0     H 7656   2.836   3.419   3.381 -0.6337  1.1442 -0.2704
   57MOL0     H 7657   2.862   3.396   3.561  1.1459  2.4266  3.3079
   57MOL0     H 7658   2.719   3.472   3.500  0.7082  1.5650 -1.2413
   57MOL0     H 7659   2.440   3.856   3.380  1.9547 -1.0790  0.9873
   57MOL0     H 7660   2.237   3.872   3.210 -1.2178 -0.5387 -1.3348
   57MOL0     H 7661   2.074   3.799   2.852  1.6350  0.0044 -0.6442
   57MOL0     H 7662   2.085   3.782   3.031 -1.9052 -3.1048 -2.4939
   57MOL0     H 7663   1.962   3.972   2.992  0.0417 -1.9613  0.0622
   57MOL0     H 7664   2.119   4.035   3.052  1.1696 -1.1300  0.8465
   57MOL0     H 7665   2.042   4.180   2.875 -0.3856 -0.7588  2.0014
   57MOL0     H 7666   2.051   4.052   2.757  3.5295 -3.3668 -1.2904
   57MOL0     H 7667   2.299   4.150   2.905  1.5575 -3.9706 -0.0489
   57MOL0     H 7668   2.294   4.035   2.771 -0.3881 -0.5815  0.2160
   57MOL0     H 7669   2.355   4.258   2.714 -0.7159  0.4352  2.4377
   57MOL0     H 7670   2.197   4.325   2.764 -0.0266  0.1731  0.3218
   57MOL0     H 7671   2.268   4.137   2.536 -0.4859 -0.7496  1.9549
   57MOL0     H 7672   2.102   4.168   2.586 -0.2985 -1.3962 -2.4785
   57MOL0     H 7673   2.310   4.358   2.455 -0.9498  0.2223  0.5063
   57MOL0     H 7674   2.163   4.417   2.543 -0.3926 -1.3748  2.3199
   57MOL0     H 7675   2.021   4.281   2.398 -0.0065 -0.4791  2.1512
   57MOL0     H 7676   2.160   4.265   2.280  0.5138  0.6381  0.4865
   57MOL0     H 7677   2.518   3.831   2.887  0.3252  0.1340  0.6859
   57MOL0     H 7678   2.703   3.836   3.038 -0.1729 -0.6812 -1.7913
   57MOL0     H 7679   2.878   3.922   3.395 -1.3997 -1.4478 -1.8437
   57MOL0     H 7680   3.084   3.926   3.505 -1.0791 -0.0122 -1.2847
   57MOL0     H 7681   5.018   3.899   4.047 -1.7548 -0.4474  1.8186
   57MOL0     H 7682   5.230   3.894   3.988 -2.4188  0.1330  2.6671
   57MOL0     H 7683   5.636   3.835   3.951  2.6236  1.6479  0.2789
   57MOL0     H 7684   5.862   3.876   3.877 -1.0592 -0.1262 -0.4010
   57MOL0     H 7685   6.129   3.548   3.883  0.0811  1.2457  0.8599
   57MOL0     H 7686   6.107   3.528   3.706  0.2599 -0.8511 -0.5198
   57MOL0     H 7687   6.297   3.710   3.867 -0.2203  0.8065 -0.5674
   57MOL0     H 7688   6.291   3.725   3.699  3.3533  0.6720  1.3570
   57MOL0     H 7689   6.351   3.490   3.677 -0.2583  2.2197 -0.7952
   57MOL0     H 7690   6.377   3.482   3.857 -2.4331  1.3238  0.3029
   57MOL0     H 7691   6.539   3.647   3.669 -0.3531  1.7055  2.0503
   57MOL0     H 7692   6.584   3.498   3.760 -1.9520 -2.4438  1.3897
   57MOL0     H 7693   6.600   3.771   4.069 -1.7811  2.6516 -0.9289
   57MOL0     H 7694   5.930   3.463   3.799  0.1655  0.3420 -1.7647
   57MOL0     H 7695   5.696   3.420   3.876  1.4797  0.7101  1.5788
   58MOL0     O 7696   1.897  10.202   5.756  0.4938 -0.5842 -0.1739
   58MOL0     C 7697   1.949  10.300   5.720 -0.0033 -0.2323  0.2404
   58MOL0     O 7698   1.897  10.394   5.641  0.2977  0.0734  0.8868
   58MOL0     C 7699   1.762  10.408   5.632  0.2409  0.6771  0.2791
   58MOL0     C 7700   1.671  10.415   5.743  0.6801  0.2873  0.6809
   58MOL0     C 7701   1.531  10.439   5.715 -0.0360 -0.0508 -0.3596
   58MOL0     C 7702   1.483  10.456   5.585 -0.5261  0.3168  0.3603
   58MOL0     O 7703   1.358  10.496   5.555  0.6973  0.5132  0.9070
   58MOL0     C 7704   1.251  10.461   5.642 -0.7970 -0.1670 -0.3138
   58MOL0     C 7705   1.126  10.440   5.563  0.0318  0.1652 -0.9847
   58MOL0     C 7706   1.022  10.371   5.651 -0.6295 -0.4160 -0.5792
   58MOL0     C 7707   0.909  10.314   5.575  0.5242 -0.3570  0.3048
   58MOL0     C 7708   0.798  10.258   5.666 -0.2437 -0.0664 -0.0660
   58MOL0     C 7709   0.680  10.216   5.574  0.6109  0.2839  0.0125
   58MOL0     C 7710   0.585  10.141   5.672  0.8338  0.1713  0.6281
   58MOL0     C 7711   0.479  10.244   5.738 -0.2649  0.0835  0.1042
   58MOL0     N 7712   0.390  10.162   5.819  0.6930 -0.6467  0.2662
   58MOL0     C 7713   0.289  10.081   5.773  0.3440  0.9192  0.0860
   58MOL0     C 7714   0.238  10.036   5.893 -0.0020 -0.2392  0.3034
   58MOL0     C 7715   0.139   9.927   5.909  0.0168  0.0375  0.0148
   58MOL0     C 7716  -0.004   9.989   5.918 -0.5109  0.5898  0.3678
   58MOL0     C 7717  -0.033  10.032   6.059 -0.0211  0.6389 -0.2706
   58MOL0     C 7718  -0.158  10.125   6.068  0.4779  0.2164  0.7733
   58MOL0     O 7719  -0.268  10.036   6.057  0.2261  0.1295 -0.7181
   58MOL0     C 7720  -0.391  10.094   6.081 -0.4615  0.6560 -1.0777
   58MOL0     C 7721  -0.420  10.223   6.114 -0.0052 -1.1143  0.7901
   58MOL0     C 7722  -0.551  10.274   6.146  0.2505  0.0852 -0.3333
   58MOL0     C 7723  -0.566  10.423   6.158 -0.0409  0.3538  0.3830
   58MOL0     C 7724  -0.657  10.178   6.169 -0.4056  0.1389  0.6284
   58MOL0     C 7725  -0.798  10.214   6.186  0.7805  0.8354 -0.0947
   58MOL0     O 7726  -0.842  10.341   6.162  0.5250 -0.2766 -0.2154
   58MOL0     C 7727  -0.971  10.390   6.181  0.7705 -0.3042  0.4023
   58MOL0     C 7728  -0.986  10.532   6.190  0.4019  0.4906 -0.1321
   58MOL0     C 7729  -1.110  10.601   6.212 -0.3039 -0.0751 -0.6295
   58MOL0     C 7730  -1.224  10.527   6.221 -0.8922 -0.6750  1.1282
   58MOL0     O 7731  -1.352  10.575   6.241 -0.6006  0.3310  0.3304
   58MOL0     C 7732  -1.371  10.718   6.221 -1.2977  0.2103  0.7289
   58MOL0     C 7733  -1.521  10.759   6.233 -0.9501  0.1953 -0.2094
   58MOL0     C 7734  -1.590  10.696   6.364  0.3342  0.6323  0.5057
   58MOL0     C 7735  -1.743  10.702   6.344  0.3708  0.7889 -0.3733
   58MOL0     C 7736  -1.813  10.680   6.478  0.4086 -0.1336  0.3751
   58MOL0     C 7737  -1.959  10.616   6.450 -0.2519 -0.3856  0.0019
   58MOL0     C 7738  -2.032  10.642   6.582  0.6110  0.7712  0.4991
   58MOL0     C 7739  -2.176  10.582   6.580 -0.2740  0.0897 -0.8555
   58MOL0    Cl 7740  -2.258  10.602   6.731  0.0567 -0.3066 -0.0246
   58MOL0     C 7741  -1.211  10.387   6.207  0.2307 -0.4626 -0.8438
   58MOL0     C 7742  -1.090  10.317   6.179  0.1135  0.0311 -0.7141
   58MOL0     O 7743  -0.867  10.127   6.228 -0.3322 -0.0436  0.4204
   58MOL0     C 7744  -0.622  10.039   6.153  0.0977 -0.3650  0.4452
   58MOL0     C 7745  -0.493   9.998   6.108  0.5862 -0.3430  0.4889
   58MOL0     N 7746   0.312  10.093   5.998  0.3999 -0.3627 -0.3112
   58MOL0     N 7747   0.400  10.171   5.954 -0.0698  0.5583 -0.7033
   58MOL0     C 7748   1.575  10.439   5.477  0.0354  0.4674  0.1164
   58MOL0     C 7749   1.712  10.421   5.499 -0.3264  0.9717 -0.3439
   58MOL0     C 7750   2.089  10.317   5.753 -0.8650 -0.4322 -0.0929
   58MOL0     C 7751   2.165  10.233   5.846 -0.0958  0.0004  0.3080
   58MOL0     C 7752   2.302  10.258   5.881 -0.1670  0.1709 -0.0551
   58MOL0     C 7753   2.363  10.374   5.832 -0.8179  0.0931  0.4993
   58MOL0     O 7754   2.497  10.400   5.863  0.0055 -0.5204 -1.0939
   58MOL0     C 7755   2.576  10.505   5.816 -0.6282  0.0609 -0.4008
   58MOL0     C 7756   2.603  10.609   5.931 -0.6251  0.8435  0.9517
   58MOL0     C 7757   2.716  10.556   6.026  1.5583 -0.5499 -0.0549
   58MOL0     C 7758   2.706  10.641   6.151 -0.0249  0.0014  0.4924
   58MOL0     C 7759   2.791  10.588   6.263 -0.3749 -0.7292  0.5269
   58MOL0     C 7760   2.870  10.549   6.345 -0.5951 -0.0663  0.4882
   58MOL0     C 7761   2.287  10.466   5.756 -0.0117 -0.6791  0.6516
   58MOL0     C 7762   2.154  10.440   5.719  0.4359  0.8565  1.0243
   58MOL0     H 7763   1.710  10.422   5.844 -3.5511 -1.2908  2.6382
   58MOL0     H 7764   1.464  10.438   5.800  0.2432  1.1619 -0.1063
   58MOL0     H 7765   1.272  10.367   5.694  0.8199  0.2843 -0.0796
   58MOL0     H 7766   1.235  10.545   5.709  2.4598  0.3991 -0.0527
   58MOL0     H 7767   1.102  10.533   5.511  0.5068 -0.0953 -1.6941
   58MOL0     H 7768   1.157  10.381   5.476  0.8255  0.7053 -1.0746
   58MOL0     H 7769   1.083  10.289   5.691 -1.2013  0.3751  2.0922
   58MOL0     H 7770   0.999  10.450   5.723  3.7104  0.0548  0.5840
   58MOL0     H 7771   0.858  10.385   5.509 -1.9867 -2.5540 -0.2801
   58MOL0     H 7772   0.948  10.242   5.503  3.1849  1.7980 -0.6193
   58MOL0     H 7773   0.835  10.169   5.717 -1.1346 -0.1209  0.5073
   58MOL0     H 7774   0.754  10.324   5.741 -0.7243  1.4474 -1.5993
   58MOL0     H 7775   0.640  10.301   5.517  0.5955  1.8999  2.2757
   58MOL0     H 7776   0.722  10.155   5.494  2.2124  1.2161  0.0905
   58MOL0     H 7777   0.522  10.074   5.613 -1.2711  2.2062  0.4182
   58MOL0     H 7778   0.642  10.083   5.745  0.9279 -0.9745 -0.3237
   58MOL0     H 7779   0.436  10.303   5.655  0.2167  2.6046  1.5302
   58MOL0     H 7780   0.516  10.321   5.806  0.8379 -0.2847 -0.0639
   58MOL0     H 7781   0.283  10.034   5.675 -1.1981 -0.5622  0.8521
   58MOL0     H 7782   0.141   9.852   5.829 -1.1996  2.0561 -2.0103
   58MOL0     H 7783   0.159   9.880   6.006 -2.1144  0.1557  0.5590
   58MOL0     H 7784  -0.075   9.912   5.885 -0.0587  0.1800  0.3371
   58MOL0     H 7785  -0.008  10.076   5.852  1.3393 -0.0217 -0.6205
   58MOL0     H 7786   0.052  10.096   6.086 -0.9155  0.2456  4.2276
   58MOL0     H 7787  -0.038   9.949   6.130 -0.5695  0.9133  0.0224
   58MOL0     H 7788  -0.171  10.184   5.977 -1.0287 -0.7229  0.3484
   58MOL0     H 7789  -0.162  10.193   6.154 -0.3159  0.9439  0.1839
   58MOL0     H 7790  -0.342  10.297   6.109 -1.1718  0.2964  2.2460
   58MOL0     H 7791  -0.603  10.449   6.258  0.4264 -1.7762  1.1527
   58MOL0     H 7792  -0.467  10.464   6.134  0.6480 -0.4917  1.6870
   58MOL0     H 7793  -0.642  10.461   6.088  1.0104  0.5573 -0.6764
   58MOL0     H 7794  -0.890  10.582   6.190  2.3175 -2.7768  2.6083
   58MOL0     H 7795  -1.108  10.708   6.233 -0.0217 -0.4445  1.4948
   58MOL0     H 7796  -1.304  10.763   6.295 -0.3879  1.6622 -0.9243
   58MOL0     H 7797  -1.337  10.741   6.120  1.2284 -0.5525  1.3238
   58MOL0     H 7798  -1.516  10.869   6.230  1.1709  0.1553  0.3545
   58MOL0     H 7799  -1.572  10.727   6.142  0.0278 -0.9593 -0.3800
   58MOL0     H 7800  -1.555  10.758   6.447 -0.6579  0.3466  1.1593
   58MOL0     H 7801  -1.552  10.594   6.371 -0.8344 -0.2909 -3.6303
   58MOL0     H 7802  -1.780  10.794   6.297  0.7651 -0.1193 -2.5705
   58MOL0     H 7803  -1.771  10.627   6.270 -0.1208  1.1375 -0.5470
   58MOL0     H 7804  -1.831  10.780   6.518  1.9838 -0.9666  3.4871
   58MOL0     H 7805  -1.756  10.617   6.547  1.0694 -0.6731 -0.6407
   58MOL0     H 7806  -2.001  10.661   6.360  0.0683  0.5365  0.3032
   58MOL0     H 7807  -1.955  10.508   6.432 -0.7092 -0.2515 -0.9734
   58MOL0     H 7808  -2.034  10.748   6.609 -1.8951  1.3228 -1.4491
   58MOL0     H 7809  -1.977  10.577   6.652  2.1857 -1.0627 -2.2454
   58MOL0     H 7810  -2.181  10.475   6.558 -0.0382 -0.2588  0.7113
   58MOL0     H 7811  -2.237  10.629   6.502 -0.4264  4.2121  1.4744
   58MOL0     H 7812  -1.303  10.331   6.218  0.1900 -0.1086  0.9490
   58MOL0     H 7813  -1.101  10.211   6.163  0.2878  0.1277 -1.5176
   58MOL0     H 7814  -0.702   9.965   6.159 -1.4473  1.1770 -0.3418
   58MOL0     H 7815  -0.478   9.890   6.106 -1.9818 -0.7754  0.9106
   58MOL0     H 7816   1.543  10.451   5.374  0.6894 -0.5483 -0.2212
   58MOL0     H 7817   1.774  10.420   5.410  0.3497  2.4825  0.0770
   58MOL0     H 7818   2.119  10.142   5.885 -2.9721  0.5814 -1.3894
   58MOL0     H 7819   2.358  10.191   5.944  1.3709 -0.2690 -1.8113
   58MOL0     H 7820   2.670  10.461   5.781 -1.6686 -2.7758  0.1124
   58MOL0     H 7821   2.542  10.563   5.730  2.0577  1.1405 -0.8576
   58MOL0     H 7822   2.509  10.635   5.980 -1.7342  2.3393 -1.7271
   58MOL0     H 7823   2.644  10.700   5.887 -0.8881  0.4816 -0.0769
   58MOL0     H 7824   2.818  10.542   5.987  2.5547  1.0033  1.8083
   58MOL0     H 7825   2.691  10.453   6.053 -0.6564  0.1773  0.8337
   58MOL0     H 7826   2.604  10.647   6.190 -0.0039 -0.5033  0.6269
   58MOL0     H 7827   2.748  10.738   6.123  2.2529 -1.0682 -0.0374
   58MOL0     H 7828   2.942  10.510   6.415 -0.6669 -1.6083 -0.2452
   58MOL0     H 7829   2.333  10.557   5.718 -3.4689  0.8319 -0.2516
   58MOL0     H 7830   2.108  10.502   5.643 -1.7662 -0.4705  1.1760
   59MOL0     O 7831   0.475   0.716   0.763  0.5153  0.7801 -0.2868
   59MOL0     C 7832   0.583   0.658   0.753  0.2467 -0.7838 -0.0056
   59MOL0     O 7833   0.597   0.525   0.726 -0.5711 -0.1857 -0.1283
   59MOL0     C 7834   0.476   0.458   0.728 -0.4862  0.9889 -1.0513
   59MOL0     C 7835   0.376   0.463   0.636  0.1538  0.0410  0.4148
   59MOL0     C 7836   0.264   0.375   0.646 -0.4497 -0.4188  0.7025
   59MOL0     C 7837   0.255   0.282   0.750 -0.3660 -0.3747 -0.4834
   59MOL0     O 7838   0.155   0.187   0.747  0.2776  0.0059 -0.0481
   59MOL0     C 7839   0.112   0.125   0.868 -0.0294 -0.2344 -0.0442
   59MOL0     C 7840  -0.033   0.055   0.837 -0.3414 -0.0397  0.3644
   59MOL0     C 7841  -0.135   0.164   0.832  0.8560  0.0710  0.3667
   59MOL0     C 7842  -0.165   0.229   0.975 -0.4124 -0.3018  0.0104
   59MOL0     C 7843  -0.274   0.335   0.950  0.2521 -0.3441  0.8148
   59MOL0     C 7844  -0.290   0.404   1.085  0.6015  0.0152 -0.5663
   59MOL0     C 7845  -0.398   0.509   1.082  0.4388  0.3464 -0.0109
   59MOL0     C 7846  -0.344   0.639   1.022  0.2246 -0.5050 -0.4536
   59MOL0     N 7847  -0.453   0.735   1.005  0.3080  0.4619  1.3006
   59MOL0     C 7848  -0.568   0.715   0.929  0.7471  0.4023 -0.1266
   59MOL0     C 7849  -0.656   0.810   0.962 -0.7275  0.0017 -0.0328
   59MOL0     C 7850  -0.804   0.797   0.921 -0.1775  0.0432  0.1510
   59MOL0     C 7851  -0.886   0.714   1.020 -0.1693 -0.2678  0.0026
   59MOL0     C 7852  -1.038   0.722   0.992  0.0879  0.7792 -0.4029
   59MOL0     C 7853  -1.116   0.639   1.101 -0.6407  0.2771  0.3349
   59MOL0     O 7854  -1.100   0.496   1.079 -0.1323  0.6993  0.4103
   59MOL0     C 7855  -1.218   0.423   1.083  0.7393 -0.8140  0.1043
   59MOL0     C 7856  -1.302   0.408   0.970 -0.1483  0.3649  0.9681
   59MOL0     C 7857  -1.418   0.330   0.979 -0.1921 -0.2049 -0.9088
   59MOL0     C 7858  -1.479   0.291   0.844 -0.5787  0.8020 -0.6452
   59MOL0     C 7859  -1.455   0.282   1.109  0.4324 -1.0348  0.4443
   59MOL0     C 7860  -1.584   0.211   1.130  0.1875 -0.2860 -0.1466
   59MOL0     O 7861  -1.625   0.115   1.044 -0.9550 -0.7306 -0.9801
   59MOL0     C 7862  -1.734   0.036   1.073  0.6651  0.6216  0.9310
   59MOL0     C 7863  -1.728  -0.098   1.122 -0.3930 -1.3845  0.7886
   59MOL0     C 7864  -1.840  -0.182   1.122 -0.0483 -0.3388  0.0617
   59MOL0     C 7865  -1.973  -0.125   1.103 -1.1377 -0.1635 -0.3773
   59MOL0     O 7866  -2.077  -0.199   1.074  0.4348 -0.3652 -0.0206
   59MOL0     C 7867  -2.142  -0.251   1.191  0.4201  0.3436  0.9010
   59MOL0     C 7868  -2.285  -0.197   1.173  0.1686 -0.4015  1.3984
   59MOL0     C 7869  -2.343  -0.188   1.019  0.0763 -0.1815 -0.7606
   59MOL0     C 7870  -2.475  -0.125   1.024 -0.6322  0.7975 -0.0918
   59MOL0     C 7871  -2.555  -0.120   0.888 -0.4275  0.1035  0.2008
   59MOL0     C 7872  -2.674  -0.026   0.902  0.7508 -0.2136  0.5364
   59MOL0     C 7873  -2.792  -0.078   0.819  0.5003 -0.0472  0.0771
   59MOL0     C 7874  -2.898   0.038   0.802 -0.7347  0.5760 -0.0684
   59MOL0    Cl 7875  -3.010   0.037   0.934 -0.2868  0.1321  0.1574
   59MOL0     C 7876  -1.985   0.012   1.066 -0.4717  0.9052 -0.1543
   59MOL0     C 7877  -1.864   0.089   1.053  0.3354  0.2475 -0.2980
   59MOL0     O 7878  -1.638   0.242   1.236  0.2833  0.0794  0.8384
   59MOL0     C 7879  -1.374   0.302   1.216  0.0751  0.4175  0.6076
   59MOL0     C 7880  -1.259   0.370   1.210 -0.0831  0.0847  0.3093
   59MOL0     N 7881  -0.603   0.883   1.061  0.5282 -0.0499  0.1400
   59MOL0     N 7882  -0.483   0.850   1.078 -0.6304 -0.0645  0.3611
   59MOL0     C 7883   0.340   0.292   0.856  0.3116 -0.1077 -0.0597
   59MOL0     C 7884   0.452   0.374   0.845  0.3541  0.0289 -0.5041
   59MOL0     C 7885   0.706   0.725   0.784  0.1687 -0.9039 -0.2292
   59MOL0     C 7886   0.817   0.656   0.831 -1.2797  0.0689 -0.8885
   59MOL0     C 7887   0.932   0.728   0.863 -0.0299 -0.4932 -0.7036
   59MOL0     C 7888   0.941   0.866   0.854 -0.6273 -0.6616  0.3352
   59MOL0     O 7889   1.058   0.936   0.892 -1.1320  0.3182 -0.3434
   59MOL0     C 7890   1.076   1.078   0.876  0.0549 -0.1193  0.3741
   59MOL0     C 7891   1.099   1.125   0.730  0.1201 -0.5632  0.1720
   59MOL0     C 7892   1.202   1.040   0.652  0.3248 -0.6369  0.3330
   59MOL0     C 7893   1.336   1.107   0.616 -0.3646 -0.4475 -0.3968
   59MOL0     C 7894   1.402   1.166   0.738  0.0342  0.2565  0.1799
   59MOL0     C 7895   1.465   1.215   0.829  0.2220  0.0912 -0.1592
   59MOL0     C 7896   0.828   0.942   0.808  0.5960 -0.1607  0.4457
   59MOL0     C 7897   0.708   0.866   0.778 -0.1956 -1.1554  0.5300
   59MOL0     H 7898   0.393   0.534   0.555  2.6337  0.4521  1.1950
   59MOL0     H 7899   0.180   0.365   0.577 -0.8266  0.6630  0.9898
   59MOL0     H 7900   0.183   0.048   0.899 -0.8461 -0.2589  1.9234
   59MOL0     H 7901   0.101   0.192   0.954 -0.1103  1.0950 -1.0520
   59MOL0     H 7902  -0.026   0.009   0.738 -0.9354  2.5585 -0.9596
   59MOL0     H 7903  -0.065  -0.020   0.910 -1.0607 -0.3305 -0.2425
   59MOL0     H 7904  -0.099   0.241   0.763 -0.6128 -0.4647 -1.0480
   59MOL0     H 7905  -0.225   0.129   0.781  0.7385 -1.0000  1.2715
   59MOL0     H 7906  -0.215   0.156   1.040 -1.4984 -1.7986 -2.3754
   59MOL0     H 7907  -0.079   0.269   1.030 -2.7273  0.7178  3.1844
   59MOL0     H 7908  -0.242   0.411   0.879  0.3495 -0.5795  0.6065
   59MOL0     H 7909  -0.369   0.289   0.922 -0.1577 -0.6013  2.5073
   59MOL0     H 7910  -0.334   0.329   1.151  1.5357  0.2413  0.3220
   59MOL0     H 7911  -0.201   0.447   1.131  0.5877 -0.5877  0.0301
   59MOL0     H 7912  -0.484   0.471   1.026  3.0128 -1.2664 -3.2450
   59MOL0     H 7913  -0.417   0.534   1.187 -2.8363  0.3678 -0.5143
   59MOL0     H 7914  -0.299   0.622   0.924  0.9435  0.6927 -0.3570
   59MOL0     H 7915  -0.267   0.690   1.081  0.4434 -2.0571  0.6559
   59MOL0     H 7916  -0.602   0.637   0.861  1.9219 -0.4250  0.1857
   59MOL0     H 7917  -0.852   0.895   0.920 -1.4716 -0.4310  3.5383
   59MOL0     H 7918  -0.811   0.738   0.829  1.6394  0.0944 -0.0690
   59MOL0     H 7919  -0.870   0.753   1.121 -2.4767  0.6220  0.0819
   59MOL0     H 7920  -0.856   0.608   1.020  1.7613  0.2481 -0.3122
   59MOL0     H 7921  -1.068   0.679   0.896  0.2030  0.7219 -0.4138
   59MOL0     H 7922  -1.076   0.824   0.991 -2.6134 -0.1237  0.9685
   59MOL0     H 7923  -1.222   0.660   1.088 -1.0647  1.0508  4.0977
   59MOL0     H 7924  -1.084   0.667   1.201  2.7209 -0.4560 -0.3839
   59MOL0     H 7925  -1.271   0.430   0.868 -1.4943 -0.0348  0.4463
   59MOL0     H 7926  -1.411   0.308   0.759 -0.0286 -0.2371 -0.4370
   59MOL0     H 7927  -1.498   0.183   0.844  0.4698  0.5996 -0.4710
   59MOL0     H 7928  -1.567   0.356   0.838 -0.3436  1.3239  1.0878
   59MOL0     H 7929  -1.629  -0.139   1.141  0.3291 -0.6830 -1.1276
   59MOL0     H 7930  -1.840  -0.289   1.144 -2.1682 -0.2401  0.8208
   59MOL0     H 7931  -2.128  -0.359   1.176  2.9448  0.4098  2.3296
   59MOL0     H 7932  -2.102  -0.204   1.281  0.7700  1.8416 -0.0127
   59MOL0     H 7933  -2.347  -0.268   1.229  1.2998 -2.4109  0.2174
   59MOL0     H 7934  -2.290  -0.099   1.222 -0.6940  0.2861 -0.0067
   59MOL0     H 7935  -2.349  -0.286   0.970 -0.1716 -0.6900  0.2522
   59MOL0     H 7936  -2.279  -0.122   0.960  1.0595  0.4200  0.8814
   59MOL0     H 7937  -2.537  -0.186   1.090  1.6419  1.1151  2.5367
   59MOL0     H 7938  -2.459  -0.025   1.067 -0.5181  0.6768  0.1490
   59MOL0     H 7939  -2.594  -0.220   0.864 -1.3084  0.6804 -0.8441
   59MOL0     H 7940  -2.481  -0.086   0.816 -1.5493 -3.0226 -2.6811
   59MOL0     H 7941  -2.704  -0.017   1.007  1.6992  1.1219  0.7283
   59MOL0     H 7942  -2.644   0.078   0.882 -2.1063  0.4837 -0.5964
   59MOL0     H 7943  -2.841  -0.164   0.864 -2.0121  0.1164 -2.0987
   59MOL0     H 7944  -2.764  -0.111   0.718 -2.1472 -3.4022  0.2709
   59MOL0     H 7945  -2.966   0.029   0.717 -0.1239 -2.4494 -0.3521
   59MOL0     H 7946  -2.843   0.132   0.797  0.1895 -0.0124 -1.2669
   59MOL0     H 7947  -2.082   0.052   1.038 -0.3353  1.2588 -0.1271
   59MOL0     H 7948  -1.869   0.184   1.000 -0.1043  0.6206  0.3987
   59MOL0     H 7949  -1.408   0.261   1.311 -0.9740 -0.4214 -0.1118
   59MOL0     H 7950  -1.193   0.370   1.296 -1.1469 -2.4002  1.1902
   59MOL0     H 7951   0.335   0.230   0.945  0.0243 -2.2679 -1.5031
   59MOL0     H 7952   0.521   0.382   0.929  1.3157  1.0861 -1.3666
   59MOL0     H 7953   0.817   0.548   0.841  0.5338 -0.0614 -1.9122
   59MOL0     H 7954   1.020   0.675   0.898 -1.1592 -1.2881  1.0431
   59MOL0     H 7955   0.990   1.127   0.923 -0.5841 -1.1380  0.2962
   59MOL0     H 7956   1.157   1.111   0.941 -0.3179 -2.5920  2.2067
   59MOL0     H 7957   1.141   1.226   0.741  2.8332 -1.3377 -2.0543
   59MOL0     H 7958   1.003   1.141   0.680 -0.5737  2.4611  2.1670
   59MOL0     H 7959   1.159   0.998   0.561  0.1030  0.3793 -0.0370
   59MOL0     H 7960   1.217   0.947   0.709  1.6153 -0.8729 -0.3401
   59MOL0     H 7961   1.324   1.191   0.547  0.1502  0.1827  0.2732
   59MOL0     H 7962   1.405   1.032   0.576  2.3694  0.3703  2.4159
   59MOL0     H 7963   1.520   1.259   0.910  0.3761  0.9928 -0.7387
   59MOL0     H 7964   0.827   1.049   0.792 -0.5296 -0.1097  0.7940
   59MOL0     H 7965   0.629   0.933   0.747  0.8518 -0.0013  0.2759
   60MOL0     O 7966   8.141   5.576   3.277  0.5270  0.1471  0.7355
   60MOL0     C 7967   8.214   5.570   3.185 -0.1725  0.4787  0.6279
   60MOL0     O 7968   8.172   5.567   3.052  0.3581 -0.0432  0.1687
   60MOL0     C 7969   8.040   5.584   3.022 -0.0593 -0.7852 -0.2978
   60MOL0     C 7970   7.994   5.520   2.911 -0.5002  1.4122 -0.0718
   60MOL0     C 7971   7.863   5.538   2.878 -0.1382 -1.2808  0.5793
   60MOL0     C 7972   7.775   5.629   2.947 -0.2265  0.2079 -0.3883
   60MOL0     O 7973   7.643   5.634   2.910  0.3574  0.4350  0.1450
   60MOL0     C 7974   7.542   5.710   2.969  0.3084 -0.6041  0.1089
   60MOL0     C 7975   7.555   5.847   2.899  0.0706  0.0949 -0.1636
   60MOL0     C 7976   7.453   5.951   2.948  0.6233 -0.1959  1.1275
   60MOL0     C 7977   7.468   6.077   2.869 -0.0893  0.2599 -0.1621
   60MOL0     C 7978   7.380   6.184   2.925  0.5358  0.4202 -0.1141
   60MOL0     C 7979   7.238   6.176   2.881  0.0552  0.0848 -0.6571
   60MOL0     C 7980   7.150   6.271   2.958  0.3353  0.4669  0.0730
   60MOL0     C 7981   7.001   6.248   2.927  0.1677  0.0075 -0.3759
   60MOL0     N 7982   6.899   6.331   2.995  0.0517  0.1795  0.4514
   60MOL0     C 7983   6.883   6.469   3.001  0.5014 -0.1373 -0.0233
   60MOL0     C 7984   6.798   6.497   3.101  0.0120 -0.0665  0.1065
   60MOL0     C 7985   6.768   6.635   3.148 -0.1792  0.0709  0.3243
   60MOL0     C 7986   6.652   6.696   3.064 -1.3380  0.2198 -0.4367
   60MOL0     C 7987   6.524   6.636   3.105 -0.3284 -0.3496 -0.0239
   60MOL0     C 7988   6.399   6.694   3.036 -0.5755  0.1486 -0.0548
   60MOL0     O 7989   6.286   6.610   3.067  0.3415  0.9002  0.3530
   60MOL0     C 7990   6.162   6.650   3.030  0.1558  0.8598 -0.0530
   60MOL0     C 7991   6.119   6.768   2.974 -0.2886  0.2250 -0.0822
   60MOL0     C 7992   5.993   6.792   2.921 -0.8689  0.2555 -0.3949
   60MOL0     C 7993   5.972   6.924   2.851 -0.0285 -0.2089  0.1984
   60MOL0     C 7994   5.889   6.701   2.937 -0.3862 -0.7208 -0.7065
   60MOL0     C 7995   5.751   6.725   2.898  1.4102 -0.0088  0.2340
   60MOL0     O 7996   5.663   6.632   2.941 -0.3244 -0.2331  0.2257
   60MOL0     C 7997   5.523   6.643   2.912 -0.2427 -0.1415  0.4924
   60MOL0     C 7998   5.446   6.762   2.915  0.2059  0.0933 -0.3351
   60MOL0     C 7999   5.313   6.771   2.888 -0.1319  0.3878  0.3709
   60MOL0     C 8000   5.241   6.658   2.847  0.3972 -0.0395  0.3272
   60MOL0     O 8001   5.109   6.660   2.809 -0.1627 -0.2017  0.5550
   60MOL0     C 8002   5.029   6.539   2.826  0.1871 -0.6704  1.0008
   60MOL0     C 8003   4.878   6.540   2.790  0.0087  1.0711  0.0508
   60MOL0     C 8004   4.807   6.598   2.912 -0.7205  0.3756 -0.0380
   60MOL0     C 8005   4.665   6.644   2.876 -0.0670  0.1020  0.8531
   60MOL0     C 8006   4.567   6.529   2.862 -0.6668  0.0493 -0.3977
   60MOL0     C 8007   4.441   6.581   2.797  0.0087 -0.1415 -0.3557
   60MOL0     C 8008   4.334   6.464   2.815  0.1664 -0.1633 -0.3978
   60MOL0     C 8009   4.196   6.517   2.757  0.3033 -0.8148  0.4625
   60MOL0    Cl 8010   4.064   6.401   2.795  0.3111  0.2194 -0.1947
   60MOL0     C 8011   5.312   6.536   2.842 -0.1656  0.9432 -0.5920
   60MOL0     C 8012   5.450   6.527   2.875  0.6124  0.3928  0.0667
   60MOL0     O 8013   5.715   6.815   2.825  0.8728  0.1635  1.0578
   60MOL0     C 8014   5.916   6.583   3.014 -0.4354 -0.1496 -0.4294
   60MOL0     C 8015   6.055   6.567   3.066 -1.0084  0.2173 -0.3559
   60MOL0     N 8016   6.764   6.382   3.166  0.0100 -0.3871 -0.0825
   60MOL0     N 8017   6.829   6.284   3.106 -0.4238 -0.0836  0.2101
   60MOL0     C 8018   7.827   5.701   3.055  0.4988 -0.1212 -1.1628
   60MOL0     C 8019   7.955   5.683   3.086  0.3840 -0.1951 -0.0274
   60MOL0     C 8020   8.351   5.576   3.211  0.0297  0.6186  0.1353
   60MOL0     C 8021   8.447   5.497   3.142 -0.1361 -0.4147  0.2509
   60MOL0     C 8022   8.585   5.513   3.163 -0.0640 -0.8947 -0.4376
   60MOL0     C 8023   8.631   5.603   3.270  0.6976  0.3893  1.0197
   60MOL0     O 8024   8.761   5.623   3.306  0.1635 -0.0938  0.4272
   60MOL0     C 8025   8.863   5.583   3.217 -0.6327  0.3068  0.5826
   60MOL0     C 8026   9.002   5.617   3.266 -0.7407 -0.2583  0.0065
   60MOL0     C 8027   9.029   5.773   3.239 -0.2064 -0.9772 -0.1630
   60MOL0     C 8028   9.160   5.820   3.289 -0.2973 -0.3904  0.0382
   60MOL0     C 8029   9.165   5.807   3.438  0.5092 -0.5524 -0.1172
   60MOL0     C 8030   9.172   5.789   3.555 -1.1883  0.1358  0.9514
   60MOL0     C 8031   8.537   5.671   3.343  0.5022 -0.3455 -0.4758
   60MOL0     C 8032   8.396   5.656   3.310 -0.5384 -1.0163 -0.0871
   60MOL0     H 8033   8.066   5.455   2.863 -0.3831  0.2560  1.6033
   60MOL0     H 8034   7.835   5.486   2.787 -1.3562 -0.9604  0.7466
   60MOL0     H 8035   7.449   5.667   2.933  0.8747 -1.6055 -0.1961
   60MOL0     H 8036   7.541   5.722   3.077  2.2984 -0.4916  0.1545
   60MOL0     H 8037   7.657   5.882   2.916  0.2901  0.3414 -1.8041
   60MOL0     H 8038   7.540   5.830   2.792  2.8574 -1.6520 -0.3617
   60MOL0     H 8039   7.353   5.908   2.940 -1.0064  3.5054 -0.9495
   60MOL0     H 8040   7.475   5.969   3.054 -1.4790  0.7581  1.4634
   60MOL0     H 8041   7.571   6.112   2.869  0.8438 -2.1448  2.2318
   60MOL0     H 8042   7.444   6.064   2.763  0.2156  3.1689 -0.6820
   60MOL0     H 8043   7.371   6.179   3.033 -0.1795  1.6490 -0.0911
   60MOL0     H 8044   7.412   6.286   2.905 -2.3202  1.2155 -1.2159
   60MOL0     H 8045   7.238   6.213   2.778 -0.1655  2.1832  0.0479
   60MOL0     H 8046   7.211   6.071   2.896  0.7653  0.0633  0.6291
   60MOL0     H 8047   7.164   6.253   3.065  0.7651  3.7057  0.6745
   60MOL0     H 8048   7.169   6.377   2.938 -0.6762  0.2023 -2.8572
   60MOL0     H 8049   6.981   6.144   2.955 -0.9059  0.7207  1.7769
   60MOL0     H 8050   6.997   6.260   2.819  0.5474 -1.6215 -0.5876
   60MOL0     H 8051   6.938   6.544   2.944  2.1654 -2.1402 -1.2488
   60MOL0     H 8052   6.738   6.633   3.254 -3.9149 -1.8206 -0.6034
   60MOL0     H 8053   6.858   6.697   3.154  0.5022 -1.0081  2.6970
   60MOL0     H 8054   6.669   6.665   2.960 -0.3607 -2.0423  0.3252
   60MOL0     H 8055   6.662   6.804   3.075  2.6350 -0.1803  2.2210
   60MOL0     H 8056   6.512   6.632   3.213  0.9485 -1.9519  0.0890
   60MOL0     H 8057   6.536   6.536   3.062 -1.4810 -0.1241 -0.9244
   60MOL0     H 8058   6.416   6.698   2.928 -0.4245 -2.3349 -0.1720
   60MOL0     H 8059   6.380   6.797   3.066  1.2342 -0.0491  2.0041
   60MOL0     H 8060   6.192   6.849   2.969  0.6909 -0.5394  1.2154
   60MOL0     H 8061   5.975   6.904   2.744  0.6868 -0.8125  0.3199
   60MOL0     H 8062   5.876   6.972   2.869  0.6021  1.1783 -0.0049
   60MOL0     H 8063   6.062   6.984   2.869 -0.7730  1.2098 -0.6347
   60MOL0     H 8064   5.496   6.858   2.925 -0.5358  0.8621 -3.0779
   60MOL0     H 8065   5.258   6.865   2.890  0.9191  1.1029 -1.5929
   60MOL0     H 8066   5.059   6.455   2.763 -2.1258 -0.4389 -0.5387
   60MOL0     H 8067   5.036   6.523   2.934  0.1864  2.4605  1.5539
   60MOL0     H 8068   4.864   6.602   2.701  0.3932  0.6492 -0.3073
   60MOL0     H 8069   4.824   6.446   2.774 -0.1440  1.2535 -0.5212
   60MOL0     H 8070   4.862   6.686   2.944 -1.5478  1.3728 -1.2740
   60MOL0     H 8071   4.800   6.528   2.996 -0.0255  1.9322  1.3517
   60MOL0     H 8072   4.632   6.714   2.954  0.8129  0.8162  0.6054
   60MOL0     H 8073   4.666   6.708   2.787 -2.3502  2.4370  2.3355
   60MOL0     H 8074   4.564   6.481   2.960 -0.2298  0.7097 -0.0572
   60MOL0     H 8075   4.608   6.454   2.794 -2.1081  1.0747 -2.4954
   60MOL0     H 8076   4.409   6.676   2.840  0.5663  0.3274 -0.9586
   60MOL0     H 8077   4.476   6.592   2.693  2.3326  1.6877  0.5169
   60MOL0     H 8078   4.322   6.444   2.922  0.2886  0.3494 -0.2836
   60MOL0     H 8079   4.359   6.373   2.762  0.6112  1.1923 -2.6244
   60MOL0     H 8080   4.209   6.528   2.649 -2.2274  0.6548  0.2175
   60MOL0     H 8081   4.174   6.617   2.796  0.4575  0.0985 -1.6594
   60MOL0     H 8082   5.260   6.442   2.829  3.1216 -1.3921  1.6495
   60MOL0     H 8083   5.508   6.435   2.874  0.2810  0.1863 -0.4904
   60MOL0     H 8084   5.832   6.520   3.040  0.8735 -1.8540 -0.1020
   60MOL0     H 8085   6.064   6.488   3.141 -1.1690  1.7189  1.3071
   60MOL0     H 8086   7.767   5.769   3.113  2.7568  0.5712  0.4721
   60MOL0     H 8087   7.991   5.737   3.173 -0.8393 -0.0271  0.3914
   60MOL0     H 8088   8.404   5.434   3.065 -2.4431  2.2676 -0.8400
   60MOL0     H 8089   8.663   5.458   3.111 -0.4054 -0.7809 -1.0762
   60MOL0     H 8090   8.874   5.476   3.197  0.2160  0.3688  0.6997
   60MOL0     H 8091   8.837   5.628   3.120 -0.6358  0.4834  0.6660
   60MOL0     H 8092   9.075   5.564   3.205 -0.9624 -1.1518  0.5023
   60MOL0     H 8093   9.023   5.592   3.371  1.8903 -0.9795 -0.6278
   60MOL0     H 8094   8.953   5.831   3.292 -0.3487 -0.5274 -0.8443
   60MOL0     H 8095   9.019   5.786   3.130 -1.7423 -1.7057 -0.1391
   60MOL0     H 8096   9.176   5.920   3.248 -0.1795 -1.5231 -2.8714
   60MOL0     H 8097   9.241   5.755   3.253  0.6306  0.6941  0.1115
   60MOL0     H 8098   9.164   5.762   3.658 -3.2693 -0.7220  0.6075
   60MOL0     H 8099   8.572   5.741   3.418  1.3757 -0.2221 -0.9862
   60MOL0     H 8100   8.330   5.728   3.357 -2.1161 -1.4840 -1.4703
   61MOL0     O 8101   7.630   6.657  11.024  0.3808 -0.0929 -0.6840
   61MOL0     C 8102   7.652   6.558  11.092  0.0657 -0.5748  1.4724
   61MOL0     O 8103   7.553   6.480  11.151  1.0065  0.0684  0.8254
   61MOL0     C 8104   7.438   6.479  11.082 -0.0188  0.9492 -0.2219
   61MOL0     C 8105   7.428   6.446  10.946  0.3725  0.1649 -0.1580
   61MOL0     C 8106   7.303   6.438  10.891 -0.0555  0.2512 -0.2873
   61MOL0     C 8107   7.194   6.472  10.958  0.2172 -0.0217  0.4620
   61MOL0     O 8108   7.076   6.474  10.887  1.2453  0.2753 -0.0646
   61MOL0     C 8109   6.955   6.459  10.959 -0.4849  0.1713 -0.2614
   61MOL0     C 8110   6.827   6.495  10.875  0.3408  0.2944  1.2412
   61MOL0     C 8111   6.816   6.650  10.841  0.0325 -0.5597  0.0220
   61MOL0     C 8112   6.677   6.696  10.788  0.8495  1.0738  0.6330
   61MOL0     C 8113   6.653   6.846  10.794  0.0268  0.3489 -0.7279
   61MOL0     C 8114   6.515   6.883  10.746  0.0580  0.3942  0.3034
   61MOL0     C 8115   6.495   7.027  10.785 -0.8388  0.8420 -0.1162
   61MOL0     C 8116   6.367   7.084  10.717  0.2397 -0.5973 -0.0096
   61MOL0     N 8117   6.352   7.215  10.779 -0.1667  0.0127  0.7565
   61MOL0     C 8118   6.268   7.262  10.876 -0.5522 -0.3165 -0.4827
   61MOL0     C 8119   6.288   7.396  10.890 -0.5245 -0.7241  0.2408
   61MOL0     C 8120   6.238   7.492  10.999  0.2699  0.7204  0.2543
   61MOL0     C 8121   6.095   7.538  10.976  0.0264 -0.0918 -0.0380
   61MOL0     C 8122   6.053   7.670  11.054 -0.9492 -0.1869  0.3419
   61MOL0     C 8123   5.897   7.705  11.058 -0.1260  0.1639  0.9016
   61MOL0     O 8124   5.869   7.727  10.912 -0.4201  0.6409  0.1600
   61MOL0     C 8125   5.749   7.774  10.880 -0.2661 -0.5605 -0.0907
   61MOL0     C 8126   5.677   7.704  10.780 -0.5152  0.5342 -0.4587
   61MOL0     C 8127   5.547   7.733  10.754  0.9573  0.0603  0.4093
   61MOL0     C 8128   5.481   7.645  10.656  0.8238 -0.2835  0.1319
   61MOL0     C 8129   5.489   7.852  10.809  0.8455  0.5115 -1.6393
   61MOL0     C 8130   5.358   7.904  10.781  0.7706  0.8014  0.0984
   61MOL0     O 8131   5.297   7.848  10.678 -0.0131 -0.0605  0.3437
   61MOL0     C 8132   5.160   7.855  10.669  0.4848 -0.3091  0.0979
   61MOL0     C 8133   5.097   7.977  10.637  0.4224  0.4247  0.2517
   61MOL0     C 8134   4.960   7.977  10.620  0.8711  0.2977 -0.0749
   61MOL0     C 8135   4.881   7.863  10.650 -0.5890  0.3170  0.4353
   61MOL0     O 8136   4.747   7.872  10.658 -0.2051  0.5096  0.0669
   61MOL0     C 8137   4.666   7.755  10.644 -0.8249  0.2608 -0.5519
   61MOL0     C 8138   4.534   7.824  10.596 -0.2098  0.1419 -0.3380
   61MOL0     C 8139   4.446   7.719  10.543  0.4291 -0.2872  0.1255
   61MOL0     C 8140   4.307   7.783  10.535 -0.2705  0.0075 -0.1137
   61MOL0     C 8141   4.187   7.681  10.518 -0.4681 -0.0320  0.2237
   61MOL0     C 8142   4.057   7.750  10.474 -0.0009 -0.1051  0.7634
   61MOL0     C 8143   4.006   7.867  10.558  0.9847 -0.3854  0.0105
   61MOL0     C 8144   3.868   7.920  10.511 -0.0743  0.1348  0.1529
   61MOL0    Cl 8145   3.745   7.807  10.550 -0.4365 -0.0171  0.0572
   61MOL0     C 8146   4.948   7.749  10.693  0.0387  0.3178 -0.3603
   61MOL0     C 8147   5.083   7.735  10.681 -0.5249 -0.2840 -0.1610
   61MOL0     O 8148   5.317   8.004  10.839 -0.3921 -0.2703 -0.2313
   61MOL0     C 8149   5.570   7.928  10.900 -0.1690 -0.2537  0.6212
   61MOL0     C 8150   5.696   7.890  10.948  0.4466  1.0753  0.1151
   61MOL0     N 8151   6.386   7.438  10.804 -0.0640 -0.0122  0.2176
   61MOL0     N 8152   6.417   7.329  10.738  0.5814  0.0658  0.3814
   61MOL0     C 8153   7.209   6.514  11.092  0.3959  0.0090  0.3171
   61MOL0     C 8154   7.334   6.511  11.155  0.9992 -0.1866 -0.1569
   61MOL0     C 8155   7.788   6.509  11.119  0.4459 -0.4704 -0.5684
   61MOL0     C 8156   7.894   6.572  11.050  0.2496  0.7415 -0.6432
   61MOL0     C 8157   8.027   6.542  11.076 -0.0568 -0.5128 -0.9357
   61MOL0     C 8158   8.059   6.436  11.168 -0.2322  0.0273  0.2843
   61MOL0     O 8159   8.191   6.406  11.187 -0.4296 -0.1145  0.9901
   61MOL0     C 8160   8.214   6.271  11.215 -0.5316  0.0807 -0.1377
   61MOL0     C 8161   8.203   6.180  11.096 -0.0922 -0.1658  0.2546
   61MOL0     C 8162   8.240   6.029  11.125 -0.0144 -0.3352  0.6687
   61MOL0     C 8163   8.295   5.974  10.997 -0.2234  0.6185  0.0011
   61MOL0     C 8164   8.194   5.946  10.895  0.9594  0.2706  0.1336
   61MOL0     C 8165   8.098   5.941  10.825  0.5250 -0.0948  0.0766
   61MOL0     C 8166   7.956   6.383  11.241 -0.2814 -0.2288 -0.3703
   61MOL0     C 8167   7.826   6.417  11.218 -0.0577 -0.6592  0.2041
   61MOL0     H 8168   7.522   6.424  10.897  1.8709  1.7219  1.8224
   61MOL0     H 8169   7.293   6.419  10.785  1.0695 -1.7764 -0.0636
   61MOL0     H 8170   6.941   6.358  10.999  1.7763 -0.0272  0.1501
   61MOL0     H 8171   6.956   6.527  11.044 -1.0279 -1.8916  1.4744
   61MOL0     H 8172   6.832   6.441  10.780 -1.7503  1.2229  0.5519
   61MOL0     H 8173   6.736   6.463  10.927  0.2343  1.5535  1.8700
   61MOL0     H 8174   6.833   6.708  10.932  1.5012  0.7113 -1.0023
   61MOL0     H 8175   6.889   6.677  10.764 -0.2023 -0.7650 -0.2768
   61MOL0     H 8176   6.662   6.662  10.685  0.8102  2.2401  0.2371
   61MOL0     H 8177   6.602   6.648  10.851  0.6067 -0.8412 -1.0355
   61MOL0     H 8178   6.666   6.884  10.896 -0.8182  2.0180 -1.2067
   61MOL0     H 8179   6.734   6.899  10.744 -0.6334  2.8945  0.7214
   61MOL0     H 8180   6.513   6.857  10.640 -2.3241 -1.7986  0.8009
   61MOL0     H 8181   6.435   6.825  10.791  1.6356  0.1954  3.0615
   61MOL0     H 8182   6.492   7.034  10.894 -0.6920 -0.6450  0.0028
   61MOL0     H 8183   6.582   7.074  10.739 -0.0534 -0.5428 -0.0830
   61MOL0     H 8184   6.277   7.029  10.745 -0.3116  0.3518  0.1259
   61MOL0     H 8185   6.380   7.088  10.608  2.4276 -0.1142  0.2151
   61MOL0     H 8186   6.205   7.201  10.940 -0.0836 -1.0277 -0.6789
   61MOL0     H 8187   6.258   7.431  11.087  1.3764 -1.7443 -1.5688
   61MOL0     H 8188   6.303   7.579  10.986  0.8488  0.4378  1.1463
   61MOL0     H 8189   6.021   7.459  10.993 -1.6719  1.0655 -1.5436
   61MOL0     H 8190   6.074   7.565  10.871 -1.2412 -2.6252 -0.4996
   61MOL0     H 8191   6.110   7.754  11.014 -1.3818 -0.5661 -1.1519
   61MOL0     H 8192   6.089   7.662  11.157  0.8616  1.0802 -0.1405
   61MOL0     H 8193   5.881   7.792  11.122  0.4796  1.1298 -0.2172
   61MOL0     H 8194   5.831   7.628  11.100  0.7922 -0.9232  0.4100
   61MOL0     H 8195   5.727   7.616  10.741 -1.0370  0.7874 -1.7502
   61MOL0     H 8196   5.383   7.614  10.694  0.4416  1.6569  0.8265
   61MOL0     H 8197   5.470   7.698  10.561  1.2850  0.8518  0.6986
   61MOL0     H 8198   5.538   7.553  10.640 -0.0988 -1.1370  1.5300
   61MOL0     H 8199   5.153   8.068  10.619 -0.0826  0.3747 -1.7279
   61MOL0     H 8200   4.906   8.067  10.593  0.3058 -0.3241 -1.1017
   61MOL0     H 8201   4.705   7.690  10.565  4.8062 -0.2418  2.1682
   61MOL0     H 8202   4.656   7.699  10.738  1.5331 -1.0756 -1.0167
   61MOL0     H 8203   4.480   7.867  10.681  0.4570 -1.4222  0.9240
   61MOL0     H 8204   4.551   7.898  10.517 -0.1764  2.9119  2.0908
   61MOL0     H 8205   4.451   7.630  10.606  1.7548 -2.3879 -2.6951
   61MOL0     H 8206   4.482   7.694  10.443 -0.4271  0.9504 -0.5133
   61MOL0     H 8207   4.269   7.837  10.622 -1.3793  0.7207 -1.0152
   61MOL0     H 8208   4.297   7.844  10.444 -1.4334 -0.9458 -0.6500
   61MOL0     H 8209   4.183   7.626  10.612  1.0967 -0.4634  0.0711
   61MOL0     H 8210   4.220   7.611  10.441 -0.6013 -1.0825  1.1077
   61MOL0     H 8211   4.071   7.794  10.376 -0.8934  1.0842  1.1468
   61MOL0     H 8212   3.980   7.671  10.469 -0.0374 -0.2257  2.4361
   61MOL0     H 8213   4.073   7.949  10.532  2.4017 -2.0313 -1.8952
   61MOL0     H 8214   4.011   7.829  10.660 -2.3955 -2.0649 -0.2871
   61MOL0     H 8215   3.864   7.931  10.402  0.3744 -2.1695 -0.1499
   61MOL0     H 8216   3.840   8.016  10.556 -2.6626  0.2288 -1.4418
   61MOL0     H 8217   4.890   7.665  10.729  3.2657 -2.2467 -0.6749
   61MOL0     H 8218   5.120   7.634  10.698 -1.6050 -0.9125 -1.3121
   61MOL0     H 8219   5.537   8.023  10.941 -1.6293 -1.4217  2.2953
   61MOL0     H 8220   5.739   7.949  11.028  0.9272  0.4757  0.3080
   61MOL0     H 8221   7.123   6.544  11.151  0.4593  1.0051 -0.0650
   61MOL0     H 8222   7.343   6.540  11.260  0.7916  0.1092 -0.2184
   61MOL0     H 8223   7.866   6.651  10.980  2.3194  1.7022 -0.4577
   61MOL0     H 8224   8.108   6.585  11.017  0.8940  0.0682  0.7200
   61MOL0     H 8225   8.319   6.260  11.246 -0.1811  3.2380  0.1448
   61MOL0     H 8226   8.155   6.238  11.302  1.0671 -2.3961  0.1174
   61MOL0     H 8227   8.266   6.233  11.023 -0.9669 -1.5080 -1.5562
   61MOL0     H 8228   8.104   6.175  11.050 -0.6939 -0.5124  1.5504
   61MOL0     H 8229   8.150   5.974  11.154 -0.0655  0.4460  2.0979
   61MOL0     H 8230   8.316   6.011  11.202  1.6960  2.3494 -0.2481
   61MOL0     H 8231   8.354   5.884  11.018  1.9861  1.1508 -3.2760
   61MOL0     H 8232   8.365   6.051  10.962 -2.0243  1.7222 -1.3438
   61MOL0     H 8233   8.021   5.925  10.752  0.1638 -2.2463  0.8708
   61MOL0     H 8234   7.980   6.324  11.329 -0.8698  1.9839  1.3562
   61MOL0     H 8235   7.753   6.354  11.267  0.3161 -1.0067  0.3189
   62MOL0     O 8236   7.090   4.131   7.926 -0.0270 -0.1972 -0.1044
   62MOL0     C 8237   7.084   4.253   7.944 -0.1384  0.6899 -0.5527
   62MOL0     O 8238   6.970   4.315   7.994  0.2608 -0.3444 -0.1956
   62MOL0     C 8239   6.860   4.234   7.995  0.4533  0.3495  0.7935
   62MOL0     C 8240   6.785   4.238   7.876 -0.0002  0.7645 -0.2768
   62MOL0     C 8241   6.675   4.157   7.857 -0.2444  0.1914  0.4119
   62MOL0     C 8242   6.627   4.077   7.965  0.0758 -0.7865 -0.1420
   62MOL0     O 8243   6.507   4.008   7.963  1.0912 -0.2581  0.1565
   62MOL0     C 8244   6.405   4.035   7.865  0.5765  0.5875  0.4830
   62MOL0     C 8245   6.317   3.905   7.855  0.3438 -0.2291 -0.7074
   62MOL0     C 8246   6.201   3.918   7.764  0.1115 -0.1685  0.7694
   62MOL0     C 8247   6.098   3.813   7.794  0.4738  0.1644 -0.0451
   62MOL0     C 8248   5.972   3.819   7.708 -0.2986  0.1454 -0.7015
   62MOL0     C 8249   5.859   3.726   7.757 -0.9120  0.2018 -0.2450
   62MOL0     C 8250   5.734   3.757   7.682 -0.3699  0.3224  0.1946
   62MOL0     C 8251   5.626   3.647   7.696 -0.7406 -0.1872 -0.1509
   62MOL0     N 8252   5.492   3.701   7.664  0.5983 -0.2264  0.2964
   62MOL0     C 8253   5.416   3.654   7.550 -0.4421  0.8111  0.4486
   62MOL0     C 8254   5.286   3.688   7.582 -0.2385  0.7217 -0.8756
   62MOL0     C 8255   5.175   3.661   7.482  0.6723  0.2983 -0.2255
   62MOL0     C 8256   5.038   3.662   7.558  0.1041  0.1618  0.5402
   62MOL0     C 8257   4.927   3.719   7.459 -0.0583 -0.6593 -0.3868
   62MOL0     C 8258   4.782   3.685   7.489 -0.6193 -0.9084 -0.3921
   62MOL0     O 8259   4.709   3.716   7.370  0.5945  0.5679  0.5761
   62MOL0     C 8260   4.572   3.703   7.374 -0.9401  0.3878  0.2509
   62MOL0     C 8261   4.496   3.638   7.479  1.0865  0.4645  0.1277
   62MOL0     C 8262   4.359   3.616   7.467 -0.6660 -0.6235  1.1737
   62MOL0     C 8263   4.300   3.541   7.584 -0.8566  0.2837  0.1318
   62MOL0     C 8264   4.290   3.656   7.353  0.2302 -1.1802  0.6364
   62MOL0     C 8265   4.143   3.633   7.338 -0.1864 -0.2589 -0.8379
   62MOL0     O 8266   4.065   3.643   7.451 -0.1889 -0.0937 -0.3102
   62MOL0     C 8267   3.932   3.661   7.440  0.1232 -0.9173 -0.4383
   62MOL0     C 8268   3.846   3.558   7.486  0.0495 -0.8028 -0.1134
   62MOL0     C 8269   3.706   3.576   7.484 -0.0529 -0.1877  0.3320
   62MOL0     C 8270   3.651   3.698   7.447 -0.2503 -0.3667 -1.4495
   62MOL0     O 8271   3.514   3.711   7.466 -0.4475 -0.4310  0.5908
   62MOL0     C 8272   3.448   3.825   7.408 -0.4853  0.6738 -0.5975
   62MOL0     C 8273   3.319   3.831   7.484 -0.0804  0.7051  0.1584
   62MOL0     C 8274   3.219   3.930   7.426  0.0501 -0.4910  0.7764
   62MOL0     C 8275   3.111   3.951   7.524 -0.2199 -0.5759 -0.0387
   62MOL0     C 8276   2.985   4.023   7.466  0.1684 -0.2144 -0.0032
   62MOL0     C 8277   2.882   4.054   7.575  0.3961 -0.4675 -0.4151
   62MOL0     C 8278   2.742   4.055   7.519  0.3746  0.0184 -0.8150
   62MOL0     C 8279   2.627   4.078   7.622 -0.0883  0.0677 -0.1385
   62MOL0    Cl 8280   2.487   4.099   7.521  0.1278 -0.0697 -0.2585
   62MOL0     C 8281   3.738   3.799   7.402  0.4854 -0.3852  0.1391
   62MOL0     C 8282   3.881   3.779   7.389  0.6311  0.3183  0.4709
   62MOL0     O 8283   4.099   3.633   7.223 -0.9540  0.0069  0.1458
   62MOL0     C 8284   4.365   3.713   7.248 -0.5050 -0.8621 -0.6683
   62MOL0     C 8285   4.502   3.732   7.264  0.5364 -0.1634 -0.4016
   62MOL0     N 8286   5.276   3.760   7.697 -0.4855 -0.0681 -0.2467
   62MOL0     N 8287   5.406   3.763   7.750 -0.4213 -0.5815 -0.1577
   62MOL0     C 8288   6.701   4.079   8.081 -0.5307 -1.1901  0.6777
   62MOL0     C 8289   6.814   4.154   8.096  0.2522 -0.4332  0.3837
   62MOL0     C 8290   7.211   4.326   7.943  0.2209  0.3676  0.1255
   62MOL0     C 8291   7.338   4.256   7.937 -0.5514  0.3732 -0.7539
   62MOL0     C 8292   7.457   4.325   7.935 -0.3997  0.1094 -0.4535
   62MOL0     C 8293   7.453   4.466   7.925  0.4780 -0.6452  0.4335
   62MOL0     O 8294   7.576   4.527   7.911  0.0766  0.7003 -0.3121
   62MOL0     C 8295   7.582   4.644   7.828  0.6794  0.4308  0.6738
   62MOL0     C 8296   7.711   4.642   7.745 -0.0362  0.0830 -0.3184
   62MOL0     C 8297   7.841   4.655   7.833 -0.9685  0.1259  0.5626
   62MOL0     C 8298   7.962   4.663   7.748 -1.2899  0.1353 -0.0480
   62MOL0     C 8299   7.987   4.560   7.651 -0.5334  0.1766 -0.6717
   62MOL0     C 8300   8.007   4.474   7.562  0.0798  0.0506 -0.5697
   62MOL0     C 8301   7.322   4.527   7.917 -0.3380 -0.7710  0.4784
   62MOL0     C 8302   7.202   4.460   7.925 -0.2454  0.4093  0.2188
   62MOL0     H 8303   6.819   4.302   7.795 -2.8074  1.7665 -0.7721
   62MOL0     H 8304   6.623   4.161   7.762  0.3189 -0.0692  0.0876
   62MOL0     H 8305   6.344   4.122   7.887  0.4603  0.4275  0.7976
   62MOL0     H 8306   6.442   4.047   7.762 -3.8785 -0.9472 -1.6002
   62MOL0     H 8307   6.376   3.817   7.832 -0.8683 -1.5976  1.1397
   62MOL0     H 8308   6.275   3.885   7.954  1.1306 -1.6791 -0.6413
   62MOL0     H 8309   6.156   4.017   7.776  1.9359  0.7848  0.1361
   62MOL0     H 8310   6.236   3.908   7.661 -0.4879 -1.3617  0.6680
   62MOL0     H 8311   6.125   3.707   7.780 -3.4306 -1.6674  3.9078
   62MOL0     H 8312   6.069   3.808   7.899 -2.6157 -1.7703 -0.8623
   62MOL0     H 8313   5.947   3.925   7.699  2.5050  0.7455 -3.1967
   62MOL0     H 8314   5.997   3.786   7.607  0.8251  0.2300 -0.4690
   62MOL0     H 8315   5.886   3.620   7.748  1.0804  0.5421  0.9483
   62MOL0     H 8316   5.838   3.757   7.860  0.3952 -0.5986  0.2844
   62MOL0     H 8317   5.687   3.839   7.736  2.4210  1.5846  0.8875
   62MOL0     H 8318   5.740   3.782   7.575 -3.0940 -1.4604 -0.4851
   62MOL0     H 8319   5.628   3.613   7.800 -0.7740  0.3304  0.0208
   62MOL0     H 8320   5.665   3.569   7.629  2.4163  0.7477  0.4890
   62MOL0     H 8321   5.442   3.585   7.470 -1.3239  1.4649 -0.4255
   62MOL0     H 8322   5.171   3.733   7.399 -2.1945  2.3957  1.5675
   62MOL0     H 8323   5.179   3.562   7.436 -2.4673  0.2774 -0.7159
   62MOL0     H 8324   5.035   3.734   7.641  2.4708  0.5646  0.3463
   62MOL0     H 8325   5.017   3.560   7.592  3.0604 -0.2153  1.5679
   62MOL0     H 8326   4.953   3.682   7.360  0.8297 -0.9398 -0.0550
   62MOL0     H 8327   4.937   3.827   7.470  0.1705 -0.8645  1.8253
   62MOL0     H 8328   4.742   3.745   7.570 -1.0718 -1.3805 -0.2596
   62MOL0     H 8329   4.760   3.578   7.499 -1.5318 -0.8015 -1.1568
   62MOL0     H 8330   4.543   3.600   7.569  2.1541 -1.7257 -1.2836
   62MOL0     H 8331   4.233   3.596   7.651 -0.0338  0.0344  1.1728
   62MOL0     H 8332   4.220   3.480   7.540 -1.2050  0.1268  0.9708
   62MOL0     H 8333   4.362   3.472   7.641 -0.0961 -0.6535 -1.7332
   62MOL0     H 8334   3.898   3.468   7.518  3.5102  0.7008 -1.0619
   62MOL0     H 8335   3.638   3.507   7.531 -0.8399 -0.1981 -0.7639
   62MOL0     H 8336   3.498   3.921   7.425  0.6837 -0.0560  0.1883
   62MOL0     H 8337   3.428   3.808   7.302  1.6139 -2.4663 -0.6272
   62MOL0     H 8338   3.277   3.730   7.475  0.9981  0.2986 -0.5588
   62MOL0     H 8339   3.334   3.856   7.589 -3.0071  1.7164  0.4357
   62MOL0     H 8340   3.184   3.888   7.332 -0.0491  0.5926  0.3163
   62MOL0     H 8341   3.269   4.025   7.405 -1.0976 -0.0845 -0.2327
   62MOL0     H 8342   3.073   3.855   7.559 -0.9684  0.1494  1.2022
   62MOL0     H 8343   3.143   4.009   7.611 -1.6439 -1.4307  1.1037
   62MOL0     H 8344   2.957   3.974   7.372  2.8274  1.9613 -2.1013
   62MOL0     H 8345   3.017   4.119   7.423  3.2072 -1.3105 -0.4309
   62MOL0     H 8346   2.892   3.984   7.658  1.3321  1.5696  1.2789
   62MOL0     H 8347   2.902   4.146   7.630  0.7699 -1.2217  0.7496
   62MOL0     H 8348   2.726   3.953   7.482 -1.2803 -0.1111  0.1740
   62MOL0     H 8349   2.725   4.123   7.435 -0.8089 -0.5561 -1.0550
   62MOL0     H 8350   2.648   4.170   7.677 -0.7220  0.2064 -0.1204
   62MOL0     H 8351   2.605   3.991   7.685  2.5707 -1.3655 -1.0247
   62MOL0     H 8352   3.703   3.895   7.366  2.1320 -0.1296 -0.8623
   62MOL0     H 8353   3.940   3.859   7.346 -1.3451  1.7185  0.2128
   62MOL0     H 8354   4.321   3.749   7.155 -1.2919  3.7315  1.1836
   62MOL0     H 8355   4.551   3.780   7.180  0.3502  0.4369 -0.1775
   62MOL0     H 8356   6.663   4.028   8.169  1.0945 -2.3702  0.7400
   62MOL0     H 8357   6.854   4.157   8.197  1.3841 -2.1293  0.0314
   62MOL0     H 8358   7.337   4.148   7.930  2.8458 -0.0735  2.4732
   62MOL0     H 8359   7.553   4.274   7.927 -0.9012 -0.6421 -1.9878
   62MOL0     H 8360   7.496   4.641   7.760  0.5334  0.8498  0.8391
   62MOL0     H 8361   7.574   4.733   7.891 -0.5064  1.2933 -0.6402
   62MOL0     H 8362   7.714   4.724   7.673  0.1383  0.2624 -0.1075
   62MOL0     H 8363   7.707   4.549   7.687 -2.0110  1.4402 -2.5214
   62MOL0     H 8364   7.847   4.578   7.910 -0.9896 -1.1248 -0.6452
   62MOL0     H 8365   7.843   4.754   7.879 -1.2701  0.0755  0.6873
   62MOL0     H 8366   8.039   4.666   7.826  2.2403 -4.2640 -2.8962
   62MOL0     H 8367   7.969   4.758   7.695 -0.8334  0.0129 -0.2100
   62MOL0     H 8368   8.007   4.411   7.475  1.3876 -0.2054 -0.4154
   62MOL0     H 8369   7.324   4.635   7.905 -1.9238 -0.7068  0.5849
   62MOL0     H 8370   7.107   4.513   7.918 -2.1207 -2.4818  2.0182
   63MOL0     O 8371   0.027   4.104   8.716 -0.6024 -0.6981 -0.6980
   63MOL0     C 8372   0.137   4.057   8.756 -0.0595  0.5249 -0.9202
   63MOL0     O 8373   0.155   3.931   8.815  0.4717  0.2941 -0.0136
   63MOL0     C 8374   0.071   3.831   8.783  0.6198 -0.0973  0.1704
   63MOL0     C 8375   0.043   3.792   8.651 -0.1053  0.6547  0.4466
   63MOL0     C 8376  -0.042   3.686   8.628  0.2115  0.5923 -0.0254
   63MOL0     C 8377  -0.102   3.616   8.736  0.2071  1.1722  0.0790
   63MOL0     O 8378  -0.188   3.510   8.725 -0.3992  0.2415 -0.5237
   63MOL0     C 8379  -0.218   3.454   8.594 -0.4967 -0.2473 -0.3026
   63MOL0     C 8380  -0.332   3.351   8.596  0.7171 -0.5547  0.1469
   63MOL0     C 8381  -0.468   3.412   8.629 -1.5190  0.7470  0.2407
   63MOL0     C 8382  -0.505   3.501   8.515 -0.6983 -0.3053  0.2140
   63MOL0     C 8383  -0.643   3.571   8.524 -0.7229 -0.6563  0.0781
   63MOL0     C 8384  -0.668   3.679   8.426 -0.1789  0.0488  0.0168
   63MOL0     C 8385  -0.818   3.699   8.391 -0.4589 -0.6558 -1.2261
   63MOL0     C 8386  -0.880   3.587   8.310 -1.0715  0.8343  0.1123
   63MOL0     N 8387  -0.985   3.624   8.221 -0.7915 -0.1235 -0.1243
   63MOL0     C 8388  -1.098   3.682   8.257  0.1755  0.2909  0.2323
   63MOL0     C 8389  -1.172   3.675   8.137 -0.4863 -0.3407 -0.1102
   63MOL0     C 8390  -1.307   3.733   8.122  0.3497 -0.5075 -0.0772
   63MOL0     C 8391  -1.422   3.640   8.141  0.0237 -0.2049 -0.3436
   63MOL0     C 8392  -1.554   3.723   8.117  0.4257  0.2351  0.3567
   63MOL0     C 8393  -1.671   3.626   8.109  0.2153  0.0337  0.1407
   63MOL0     O 8394  -1.790   3.706   8.096  0.7230 -0.4364 -0.5503
   63MOL0     C 8395  -1.915   3.644   8.078 -0.3960  0.0930 -0.1467
   63MOL0     C 8396  -1.932   3.506   8.086  0.0352  0.4604 -0.3418
   63MOL0     C 8397  -2.063   3.451   8.078 -0.2702 -0.6944  0.7203
   63MOL0     C 8398  -2.063   3.299   8.088 -0.6059 -0.1369 -0.0123
   63MOL0     C 8399  -2.178   3.540   8.056 -0.1324 -0.3681 -0.5803
   63MOL0     C 8400  -2.318   3.492   8.041 -0.0368 -0.8425 -0.1392
   63MOL0     O 8401  -2.419   3.593   8.061  0.0713 -0.1636  0.5058
   63MOL0     C 8402  -2.553   3.565   8.046  0.4463 -0.2322  0.3150
   63MOL0     C 8403  -2.648   3.668   8.039 -0.2457  0.6043  0.2230
   63MOL0     C 8404  -2.780   3.639   8.010 -0.2302  0.2410 -0.3518
   63MOL0     C 8405  -2.829   3.513   8.004  0.1077 -0.1413  0.1684
   63MOL0     O 8406  -2.965   3.479   7.974 -0.2163  0.0917 -0.1818
   63MOL0     C 8407  -3.061   3.592   7.977  1.1125  0.2303  0.1053
   63MOL0     C 8408  -3.210   3.540   7.990 -0.7089  0.6658  0.3833
   63MOL0     C 8409  -3.303   3.635   8.075  0.4548 -0.2046  0.2185
   63MOL0     C 8410  -3.443   3.597   8.030  0.3908  0.4687 -0.6021
   63MOL0     C 8411  -3.547   3.687   8.080  0.1132  0.0274  0.0568
   63MOL0     C 8412  -3.555   3.700   8.229 -0.3874 -0.5816  0.1292
   63MOL0     C 8413  -3.543   3.576   8.311  0.3767 -0.4648 -0.3481
   63MOL0     C 8414  -3.575   3.605   8.458 -0.7707 -0.3962  1.2896
   63MOL0    Cl 8415  -3.759   3.647   8.476  0.5233  0.2012  0.1190
   63MOL0     C 8416  -2.748   3.407   8.025  0.3138  0.1394  0.0728
   63MOL0     C 8417  -2.607   3.431   8.049  0.6397 -0.4685 -0.0808
   63MOL0     O 8418  -2.338   3.375   8.018 -0.1009 -0.5326  0.2180
   63MOL0     C 8419  -2.158   3.682   8.053 -0.1294  0.5369  0.0371
   63MOL0     C 8420  -2.023   3.731   8.064 -0.2814 -0.4915 -0.0262
   63MOL0     N 8421  -1.094   3.615   8.041  0.2859 -0.0905 -0.2926
   63MOL0     N 8422  -0.981   3.585   8.094 -0.1698  0.2215 -0.2044
   63MOL0     C 8423  -0.069   3.643   8.866 -0.9593 -0.0144 -0.0198
   63MOL0     C 8424   0.020   3.750   8.889  0.1659  0.4708 -0.2762
   63MOL0     C 8425   0.258   4.141   8.740 -0.0037 -0.0223  0.4269
   63MOL0     C 8426   0.246   4.274   8.756  1.2166 -1.2263  0.2045
   63MOL0     C 8427   0.362   4.348   8.734 -0.1049 -0.1244  0.2468
   63MOL0     C 8428   0.482   4.299   8.684 -0.0717 -0.7322 -0.2206
   63MOL0     O 8429   0.582   4.394   8.655 -0.1523  0.1146 -0.0314
   63MOL0     C 8430   0.704   4.344   8.595  0.3429 -0.3733  0.3029
   63MOL0     C 8431   0.787   4.455   8.544  0.6129  0.1118  0.0647
   63MOL0     C 8432   0.925   4.419   8.502 -0.0900 -0.2511 -0.6776
   63MOL0     C 8433   0.949   4.429   8.348  1.1824  0.9336 -0.1103
   63MOL0     C 8434   1.078   4.364   8.306  0.0333 -0.3408  0.2550
   63MOL0     C 8435   1.178   4.309   8.264 -0.3930  0.3369  0.3111
   63MOL0     C 8436   0.495   4.161   8.684 -0.6510  0.4891 -0.3566
   63MOL0     C 8437   0.383   4.084   8.709 -0.6477  0.7311 -0.5690
   63MOL0     H 8438   0.092   3.845   8.571  2.3452  0.4802  1.7346
   63MOL0     H 8439  -0.060   3.666   8.522  0.7697  1.8627 -0.3747
   63MOL0     H 8440  -0.232   3.534   8.521 -1.0484 -0.3220 -0.2871
   63MOL0     H 8441  -0.127   3.407   8.556 -0.1509  1.4658 -1.7298
   63MOL0     H 8442  -0.346   3.320   8.492  1.6052  2.3815 -0.9316
   63MOL0     H 8443  -0.315   3.262   8.657 -1.0354 -0.9149  0.1645
   63MOL0     H 8444  -0.534   3.326   8.641 -0.6188 -0.0329 -0.2249
   63MOL0     H 8445  -0.464   3.467   8.724 -0.1170  2.1635 -0.5839
   63MOL0     H 8446  -0.438   3.587   8.515  0.1749 -0.9764 -0.3775
   63MOL0     H 8447  -0.488   3.452   8.419  0.3096 -3.4190  1.8482
   63MOL0     H 8448  -0.723   3.497   8.509 -0.7405 -1.1194  2.1408
   63MOL0     H 8449  -0.662   3.611   8.624 -3.7033 -1.4478 -0.0780
   63MOL0     H 8450  -0.624   3.775   8.454  0.1878 -0.2776  0.5888
   63MOL0     H 8451  -0.624   3.658   8.328 -0.6036  1.0427 -0.3931
   63MOL0     H 8452  -0.871   3.722   8.484  2.7257  0.3051  0.5244
   63MOL0     H 8453  -0.824   3.791   8.333 -1.5000 -1.6804 -2.7969
   63MOL0     H 8454  -0.916   3.511   8.380 -0.3296  1.4222  1.1650
   63MOL0     H 8455  -0.811   3.535   8.243 -2.8016 -0.0794 -1.0353
   63MOL0     H 8456  -1.109   3.712   8.361  3.4311  1.6783  0.3175
   63MOL0     H 8457  -1.313   3.806   8.203  2.7362  0.7719 -0.9675
   63MOL0     H 8458  -1.321   3.798   8.035 -1.7979 -1.1507 -0.2725
   63MOL0     H 8459  -1.405   3.606   8.243  2.6659  0.9618 -0.3199
   63MOL0     H 8460  -1.424   3.550   8.079 -2.6895 -1.0501  0.8183
   63MOL0     H 8461  -1.549   3.770   8.018 -1.9011  1.7458  0.8723
   63MOL0     H 8462  -1.565   3.795   8.198 -0.3668 -0.0108  0.4764
   63MOL0     H 8463  -1.668   3.572   8.204  0.1690  2.0681  1.3488
   63MOL0     H 8464  -1.665   3.577   8.011  2.0732 -0.7084  0.5734
   63MOL0     H 8465  -1.851   3.440   8.117  0.2432  1.4989  1.4355
   63MOL0     H 8466  -2.150   3.255   8.137 -1.8084  0.5238 -1.4637
   63MOL0     H 8467  -2.059   3.264   7.984 -1.7501  2.6062 -1.0715
   63MOL0     H 8468  -1.975   3.251   8.131 -0.0331 -0.8228 -1.8497
   63MOL0     H 8469  -2.633   3.776   8.042  0.6452  0.6182  5.5664
   63MOL0     H 8470  -2.842   3.723   7.979 -1.8219 -0.4356  0.8145
   63MOL0     H 8471  -3.035   3.670   8.048  1.3823  0.2236  0.0152
   63MOL0     H 8472  -3.048   3.648   7.885  1.6654  0.3410  0.2485
   63MOL0     H 8473  -3.253   3.528   7.890  1.6834 -0.6628 -0.5617
   63MOL0     H 8474  -3.216   3.449   8.050 -0.1653 -0.4014 -1.1231
   63MOL0     H 8475  -3.287   3.742   8.061  0.2332 -0.1841  0.1122
   63MOL0     H 8476  -3.289   3.613   8.181  1.8256 -2.8151 -0.4088
   63MOL0     H 8477  -3.449   3.594   7.921  1.2513 -3.3262 -0.6952
   63MOL0     H 8478  -3.457   3.491   8.054  4.7845 -1.1524 -3.8891
   63MOL0     H 8479  -3.644   3.648   8.046 -0.0601 -0.0927  0.6659
   63MOL0     H 8480  -3.525   3.786   8.041 -2.9368  1.2781  1.1867
   63MOL0     H 8481  -3.465   3.756   8.253 -0.7668  0.8975 -1.6876
   63MOL0     H 8482  -3.641   3.763   8.253 -0.1616 -0.0311 -0.4894
   63MOL0     H 8483  -3.445   3.528   8.308 -0.1194 -1.4662 -0.6969
   63MOL0     H 8484  -3.623   3.516   8.267 -0.0846  0.3447 -0.6340
   63MOL0     H 8485  -3.518   3.693   8.489 -0.8223 -0.0983  0.5632
   63MOL0     H 8486  -3.541   3.511   8.503 -3.5129 -3.0415 -1.5871
   63MOL0     H 8487  -2.800   3.313   8.012 -0.2400  0.3704  0.5705
   63MOL0     H 8488  -2.547   3.343   8.070  0.4128 -0.2621  1.5253
   63MOL0     H 8489  -2.233   3.747   8.011 -0.0031 -0.5528 -2.0376
   63MOL0     H 8490  -1.990   3.829   8.032  0.5685 -1.4035 -2.1837
   63MOL0     H 8491  -0.131   3.595   8.941 -3.0490 -0.4383 -1.9193
   63MOL0     H 8492   0.047   3.782   8.989 -0.0136  1.8989 -0.6743
   63MOL0     H 8493   0.152   4.319   8.788  1.2035 -0.0173 -1.4552
   63MOL0     H 8494   0.367   4.453   8.763  0.2365 -0.6277  2.1103
   63MOL0     H 8495   0.758   4.276   8.662  1.1470 -3.0605 -2.8211
   63MOL0     H 8496   0.675   4.278   8.513  0.2477  0.3396 -0.2549
   63MOL0     H 8497   0.773   4.527   8.626 -3.1350 -1.5254  1.1053
   63MOL0     H 8498   0.732   4.488   8.456  0.5596 -0.4579 -0.1189
   63MOL0     H 8499   0.945   4.318   8.539 -2.2462 -0.5288 -0.1623
   63MOL0     H 8500   0.994   4.491   8.549 -0.7439  0.8337 -1.3278
   63MOL0     H 8501   0.954   4.536   8.326  2.0133  1.5548  2.5892
   63MOL0     H 8502   0.866   4.383   8.295  0.6948  1.9072 -0.1959
   63MOL0     H 8503   1.274   4.265   8.246 -0.5949 -0.5736  1.3660
   63MOL0     H 8504   0.596   4.128   8.665 -0.6957  1.3686 -2.4223
   63MOL0     H 8505   0.387   3.976   8.696  0.7690  0.9154 -1.8545
   64MOL0     O 8506   2.434   7.676   5.732 -0.4687 -0.7994  0.0593
   64MOL0     C 8507   2.458   7.604   5.630 -0.8116  0.4917 -0.2127
   64MOL0     O 8508   2.373   7.573   5.534  0.1184 -0.0707 -0.1553
   64MOL0     C 8509   2.240   7.609   5.538 -0.5488 -0.7637  0.8992
   64MOL0     C 8510   2.178   7.662   5.428 -0.3529 -0.0980  0.0819
   64MOL0     C 8511   2.047   7.699   5.432  0.7960 -0.2438  0.4396
   64MOL0     C 8512   1.973   7.694   5.556 -0.6003  0.1294  1.0939
   64MOL0     O 8513   1.845   7.748   5.551 -0.3547 -0.1571 -0.1654
   64MOL0     C 8514   1.772   7.780   5.670  0.4258  1.2098 -0.1591
   64MOL0     C 8515   1.719   7.650   5.733 -0.6247 -0.4087 -0.0125
   64MOL0     C 8516   1.590   7.606   5.652  0.5581 -0.9475 -0.3116
   64MOL0     C 8517   1.551   7.473   5.708 -0.1512  0.0011  0.6535
   64MOL0     C 8518   1.414   7.436   5.655  0.1220  0.2395 -0.0459
   64MOL0     C 8519   1.404   7.410   5.498 -0.2610 -0.9498  0.1510
   64MOL0     C 8520   1.250   7.387   5.462 -0.0508  0.4656  0.6053
   64MOL0     C 8521   1.243   7.316   5.323 -0.5194 -0.0253  0.3177
   64MOL0     N 8522   1.102   7.297   5.285  0.5548 -0.4204  0.1230
   64MOL0     C 8523   0.991   7.362   5.341  0.4475 -0.3390 -0.7734
   64MOL0     C 8524   0.891   7.329   5.262 -0.6575 -0.5224 -0.2198
   64MOL0     C 8525   0.747   7.378   5.274  0.0496  0.4393  0.1808
   64MOL0     C 8526   0.662   7.377   5.148 -0.3079 -1.1596 -0.0098
   64MOL0     C 8527   0.611   7.238   5.107 -0.8598  0.6328  0.0647
   64MOL0     C 8528   0.502   7.199   5.206 -0.3899  0.6952  0.4723
   64MOL0     O 8529   0.379   7.252   5.161  0.3655  0.3586 -0.4261
   64MOL0     C 8530   0.270   7.222   5.239  0.2326  0.5293  0.8259
   64MOL0     C 8531   0.155   7.279   5.197  0.1991  0.6850 -0.3059
   64MOL0     C 8532   0.029   7.246   5.243  0.1444  0.2857  0.1070
   64MOL0     C 8533  -0.080   7.316   5.173  0.2603 -0.7467 -1.0503
   64MOL0     C 8534   0.019   7.139   5.335 -1.3331 -0.1248 -0.3077
   64MOL0     C 8535  -0.111   7.072   5.379 -0.0947  0.3888 -1.5005
   64MOL0     O 8536  -0.229   7.124   5.332  0.3812  0.4143 -0.0278
   64MOL0     C 8537  -0.347   7.066   5.371  0.5190  0.1357 -0.0904
   64MOL0     C 8538  -0.415   6.967   5.300  0.6472  0.5902  0.3082
   64MOL0     C 8539  -0.538   6.914   5.354 -0.4404  0.1385  0.0751
   64MOL0     C 8540  -0.588   6.955   5.476  0.6982 -1.2345  0.2359
   64MOL0     O 8541  -0.714   6.916   5.525 -0.1488  0.0016 -0.2490
   64MOL0     C 8542  -0.789   6.816   5.457  0.4381 -0.3252 -0.3853
   64MOL0     C 8543  -0.926   6.810   5.516 -0.3692  0.0167  0.3077
   64MOL0     C 8544  -1.016   6.709   5.440  0.3037 -0.0280 -0.0611
   64MOL0     C 8545  -1.163   6.728   5.484 -1.3310 -0.4695  0.1696
   64MOL0     C 8546  -1.265   6.617   5.457 -0.5107  0.0516  0.4161
   64MOL0     C 8547  -1.405   6.642   5.517  0.0597  0.0330  0.1554
   64MOL0     C 8548  -1.499   6.529   5.470  0.5479 -1.2762  0.3983
   64MOL0     C 8549  -1.646   6.565   5.524 -0.5390  0.7466  0.4731
   64MOL0    Cl 8550  -1.653   6.536   5.703 -0.1238  0.0878 -0.2839
   64MOL0     C 8551  -0.527   7.063   5.533 -0.7372 -0.1332  0.3072
   64MOL0     C 8552  -0.405   7.116   5.485  0.6378 -0.6544  0.1450
   64MOL0     O 8553  -0.099   6.987   5.471  0.3189  0.2981 -0.1151
   64MOL0     C 8554   0.141   7.077   5.382  0.9335  0.1368 -0.0871
   64MOL0     C 8555   0.260   7.123   5.336 -0.2127 -0.4223  0.0318
   64MOL0     N 8556   0.946   7.243   5.163 -0.2823  0.1296 -0.9465
   64MOL0     N 8557   1.067   7.230   5.174 -0.3928  0.2982 -0.4900
   64MOL0     C 8558   2.032   7.641   5.665  0.1837  0.1538 -0.9154
   64MOL0     C 8559   2.161   7.589   5.656 -0.6301  0.2104  0.0699
   64MOL0     C 8560   2.601   7.554   5.626 -0.3651  0.2679 -0.1528
   64MOL0     C 8561   2.658   7.510   5.504  0.4647 -0.8778  0.0400
   64MOL0     C 8562   2.771   7.428   5.512 -0.7344 -0.3243 -0.2348
   64MOL0     C 8563   2.849   7.414   5.629  0.2171  0.9216 -0.1894
   64MOL0     O 8564   2.952   7.323   5.642  0.0924 -0.2112  0.0244
   64MOL0     C 8565   2.986   7.228   5.533 -0.4688 -0.4730 -0.9972
   64MOL0     C 8566   3.121   7.160   5.562 -0.4380 -0.3668  0.4620
   64MOL0     C 8567   3.233   7.259   5.572 -0.0022 -0.2281 -0.4302
   64MOL0     C 8568   3.365   7.204   5.504 -0.6477  0.5815  0.2687
   64MOL0     C 8569   3.460   7.167   5.608 -0.4304 -0.7201  0.8169
   64MOL0     C 8570   3.554   7.144   5.681 -0.7798 -0.1745  0.2187
   64MOL0     C 8571   2.801   7.472   5.743 -0.8868  0.3535  0.0305
   64MOL0     C 8572   2.676   7.537   5.748  0.3118 -0.0718 -0.7359
   64MOL0     H 8573   2.240   7.677   5.341  2.6155 -1.9948  1.6838
   64MOL0     H 8574   1.988   7.745   5.353  0.5864  1.1913  1.3838
   64MOL0     H 8575   1.847   7.816   5.741  0.2084 -0.7981  1.1688
   64MOL0     H 8576   1.694   7.852   5.641 -0.4764  0.1228 -0.4943
   64MOL0     H 8577   1.790   7.569   5.719 -1.3114 -0.5774 -3.4055
   64MOL0     H 8578   1.703   7.669   5.840  2.6226  0.8771  0.3515
   64MOL0     H 8579   1.513   7.684   5.661 -0.3536 -1.7429 -1.0141
   64MOL0     H 8580   1.606   7.597   5.544 -3.2211 -0.1194 -1.0982
   64MOL0     H 8581   1.625   7.404   5.666 -1.5134 -0.9480 -0.2410
   64MOL0     H 8582   1.554   7.468   5.818 -2.6264 -1.2925  0.7235
   64MOL0     H 8583   1.381   7.342   5.700  0.1210 -0.1551 -0.8424
   64MOL0     H 8584   1.345   7.515   5.686  2.9631  2.0731  2.1043
   64MOL0     H 8585   1.445   7.501   5.454  1.2968 -1.2598  0.8658
   64MOL0     H 8586   1.465   7.325   5.464 -0.0087 -0.8188  0.2764
   64MOL0     H 8587   1.207   7.321   5.538 -0.1671 -1.4685 -1.0724
   64MOL0     H 8588   1.201   7.483   5.445 -2.4502 -0.8226 -0.0971
   64MOL0     H 8589   1.297   7.221   5.325 -1.4767 -0.6117 -0.4298
   64MOL0     H 8590   1.294   7.377   5.248 -0.7477  0.4964  0.5828
   64MOL0     H 8591   0.987   7.431   5.425 -1.6239  1.2133 -2.0538
   64MOL0     H 8592   0.704   7.315   5.352  2.7785 -1.1284  0.5255
   64MOL0     H 8593   0.746   7.481   5.312 -0.5621  0.1959  0.8512
   64MOL0     H 8594   0.712   7.433   5.068 -0.5234  0.6560  1.0630
   64MOL0     H 8595   0.573   7.439   5.162 -0.7056 -1.6299 -0.4218
   64MOL0     H 8596   0.692   7.165   5.102 -2.8212 -1.9196  2.5466
   64MOL0     H 8597   0.570   7.232   5.006  2.7582  0.5429 -1.5571
   64MOL0     H 8598   0.522   7.228   5.309 -0.8785  3.0271 -0.0463
   64MOL0     H 8599   0.484   7.091   5.209 -1.5871  0.8484 -0.4366
   64MOL0     H 8600   0.174   7.349   5.115  0.1816  1.7017  0.5363
   64MOL0     H 8601  -0.172   7.342   5.225 -0.2818 -1.5505 -1.5867
   64MOL0     H 8602  -0.049   7.415   5.138  1.9378  0.1521  2.5136
   64MOL0     H 8603  -0.114   7.253   5.091  1.2832  0.2625 -2.3028
   64MOL0     H 8604  -0.376   6.939   5.203 -1.8716 -2.8091  0.0942
   64MOL0     H 8605  -0.599   6.845   5.297  0.4013  0.4779 -1.2884
   64MOL0     H 8606  -0.794   6.847   5.352  0.3482  0.1614 -0.2413
   64MOL0     H 8607  -0.744   6.717   5.449 -0.8010 -1.2025  2.3870
   64MOL0     H 8608  -0.937   6.787   5.622 -0.6123  2.0557  0.7607
   64MOL0     H 8609  -0.979   6.905   5.504 -3.0382 -1.1185  2.1938
   64MOL0     H 8610  -0.985   6.608   5.467  1.2634 -0.0754 -1.2777
   64MOL0     H 8611  -1.009   6.717   5.331 -0.4143 -0.0940 -0.1197
   64MOL0     H 8612  -1.152   6.731   5.593  2.8648 -1.9063 -0.0441
   64MOL0     H 8613  -1.195   6.819   5.432 -4.7268 -1.8057 -0.3365
   64MOL0     H 8614  -1.230   6.529   5.513 -0.3074  0.5233  1.0475
   64MOL0     H 8615  -1.268   6.613   5.348 -1.0438  3.3153  0.2203
   64MOL0     H 8616  -1.398   6.657   5.625  0.1842 -1.3174  0.3540
   64MOL0     H 8617  -1.443   6.741   5.491  3.1801  1.3210  0.1420
   64MOL0     H 8618  -1.466   6.438   5.520  0.7611 -0.7381  1.2633
   64MOL0     H 8619  -1.492   6.510   5.363 -0.4180 -3.2025  0.6399
   64MOL0     H 8620  -1.715   6.501   5.470  0.2731  1.1497 -1.1235
   64MOL0     H 8621  -1.676   6.668   5.502 -2.1151  0.1979 -0.0273
   64MOL0     H 8622  -0.561   7.107   5.627 -2.2780  1.6865 -1.0065
   64MOL0     H 8623  -0.354   7.196   5.538  0.0430 -0.2436  0.0962
   64MOL0     H 8624   0.141   6.992   5.450  0.1316  0.2267  0.0351
   64MOL0     H 8625   0.349   7.079   5.381  1.3396  3.7726  1.5863
   64MOL0     H 8626   1.993   7.656   5.765 -1.5162 -0.3837 -1.4590
   64MOL0     H 8627   2.218   7.548   5.739  2.5574  2.6061 -0.7435
   64MOL0     H 8628   2.608   7.526   5.410  0.3964 -0.3041  0.1723
   64MOL0     H 8629   2.793   7.367   5.426 -1.5065 -0.9124 -0.0246
   64MOL0     H 8630   2.904   7.155   5.528 -0.5213 -1.0500  3.9027
   64MOL0     H 8631   2.998   7.281   5.438  1.0101  0.2797 -0.4075
   64MOL0     H 8632   3.135   7.091   5.478  1.9710 -0.1603  0.6212
   64MOL0     H 8633   3.109   7.105   5.655 -2.7189 -0.4157  0.2051
   64MOL0     H 8634   3.243   7.278   5.679  0.5032  2.5018 -0.9041
   64MOL0     H 8635   3.217   7.352   5.516 -1.2371 -0.6458 -0.7945
   64MOL0     H 8636   3.408   7.287   5.447 -0.3160  0.9079  0.9910
   64MOL0     H 8637   3.347   7.119   5.437  1.6484  0.8269 -0.7392
   64MOL0     H 8638   3.641   7.132   5.743 -0.9613 -1.0479  0.3239
   64MOL0     H 8639   2.867   7.467   5.829  1.6784  1.9690 -1.6942
   64MOL0     H 8640   2.647   7.577   5.844 -1.8937 -1.5425 -0.7204
   65MOL0     O 8641   7.845   6.205   2.147 -0.3221 -0.1313  0.1299
   65MOL0     C 8642   7.881   6.089   2.176  0.2104  0.7476 -0.7838
   65MOL0     O 8643   7.810   5.975   2.146  0.1276  0.6678 -0.0283
   65MOL0     C 8644   7.702   5.993   2.060  0.4772 -0.1139  0.0146
   65MOL0     C 8645   7.574   6.037   2.100  1.1099 -0.2011  0.6396
   65MOL0     C 8646   7.468   6.035   2.009  0.3272 -0.2235 -0.4382
   65MOL0     C 8647   7.480   6.000   1.876  0.0193  0.5226  0.0576
   65MOL0     O 8648   7.377   6.020   1.793 -0.2616  0.1869  0.3603
   65MOL0     C 8649   7.373   5.994   1.651  0.1652 -0.0631 -0.1637
   65MOL0     C 8650   7.245   5.924   1.611  0.0688 -0.0300  0.0534
   65MOL0     C 8651   7.121   6.012   1.646 -0.1221 -0.0685  0.4237
   65MOL0     C 8652   6.994   5.939   1.622  0.3768 -0.0638 -0.4105
   65MOL0     C 8653   6.877   6.006   1.688 -0.1350 -0.8973 -0.3432
   65MOL0     C 8654   6.752   5.930   1.634  0.3042  0.1836  0.0294
   65MOL0     C 8655   6.628   6.016   1.625 -0.4074  0.0591 -0.0265
   65MOL0     C 8656   6.586   6.053   1.771  0.5802 -0.4216  0.6415
   65MOL0     N 8657   6.437   6.023   1.769 -0.3283  0.2726  0.2784
   65MOL0     C 8658   6.392   5.891   1.775  0.1979 -0.1296 -0.5626
   65MOL0     C 8659   6.252   5.913   1.756 -0.5714 -0.2123 -0.8474
   65MOL0     C 8660   6.153   5.805   1.742 -0.5287  0.2221  0.7617
   65MOL0     C 8661   6.099   5.765   1.875  0.1800  0.5027  0.7627
   65MOL0     C 8662   6.008   5.643   1.888  0.5940 -1.0970  0.1612
   65MOL0     C 8663   5.861   5.669   1.832 -0.4987 -0.2003 -0.1187
   65MOL0     O 8664   5.789   5.556   1.889  0.2511 -0.3541 -0.3396
   65MOL0     C 8665   5.649   5.565   1.898 -0.7871  0.2426 -0.3982
   65MOL0     C 8666   5.575   5.534   2.014 -1.0307 -0.3799  0.5287
   65MOL0     C 8667   5.437   5.552   2.021 -0.3984 -0.2291 -0.7966
   65MOL0     C 8668   5.371   5.523   2.158 -0.5322 -0.0479 -0.4374
   65MOL0     C 8669   5.366   5.604   1.905 -0.3910 -0.2849 -0.3129
   65MOL0     C 8670   5.219   5.631   1.906 -0.3296  0.4513  0.8470
   65MOL0     O 8671   5.143   5.625   2.016  0.0973 -0.5911  0.1593
   65MOL0     C 8672   5.005   5.641   2.012 -0.5408  0.6167  0.7309
   65MOL0     C 8673   4.942   5.709   2.112 -0.1923 -0.5533 -0.2026
   65MOL0     C 8674   4.804   5.740   2.097 -0.0509  0.9433  0.2850
   65MOL0     C 8675   4.724   5.671   1.998  0.0360 -0.1359  0.2471
   65MOL0     O 8676   4.589   5.667   2.006  0.0347  0.2094 -0.5326
   65MOL0     C 8677   4.529   5.770   2.080 -0.4570  0.0509  1.1393
   65MOL0     C 8678   4.383   5.757   2.048 -0.4451  1.0873  0.1660
   65MOL0     C 8679   4.308   5.866   2.134 -0.0880 -1.0727  0.9595
   65MOL0     C 8680   4.158   5.857   2.127  0.7309 -0.2262 -0.5871
   65MOL0     C 8681   4.083   5.928   2.245 -0.1532  0.0998 -0.8497
   65MOL0     C 8682   3.942   5.879   2.248  0.2578  0.3808 -0.5102
   65MOL0     C 8683   3.863   5.924   2.369 -0.4911  1.0754  0.3553
   65MOL0     C 8684   3.723   5.857   2.383 -0.0920 -0.2698 -0.5280
   65MOL0    Cl 8685   3.628   5.858   2.229  0.7620 -0.8416 -0.4061
   65MOL0     C 8686   4.796   5.600   1.901 -0.4501 -0.7267  0.1312
   65MOL0     C 8687   4.936   5.583   1.908  0.7552  0.7372  0.4104
   65MOL0     O 8688   5.180   5.677   1.799  0.0611  0.0737  0.2883
   65MOL0     C 8689   5.440   5.619   1.782 -0.6888  0.2447 -0.7197
   65MOL0     C 8690   5.581   5.601   1.785  0.0282  0.1448  0.1229
   65MOL0     N 8691   6.222   6.047   1.744  0.1398 -0.9935  0.2326
   65MOL0     N 8692   6.332   6.108   1.748  0.2893 -0.1505 -0.1781
   65MOL0     C 8693   7.608   5.954   1.838  0.0848 -0.7569 -0.4880
   65MOL0     C 8694   7.714   5.949   1.930  0.6923  0.1460 -0.5143
   65MOL0     C 8695   8.017   6.058   2.237 -1.4464  0.4314 -0.4043
   65MOL0     C 8696   8.065   5.923   2.229 -0.5799  0.3635  0.0766
   65MOL0     C 8697   8.181   5.883   2.294 -0.3956 -0.0604  0.1886
   65MOL0     C 8698   8.264   5.978   2.355  0.2032 -0.5729 -1.0247
   65MOL0     O 8699   8.373   5.922   2.415  0.6141 -0.4543 -0.3084
   65MOL0     C 8700   8.475   6.004   2.469 -0.2172 -0.7417 -0.5103
   65MOL0     C 8701   8.426   6.092   2.587 -0.9142  0.7561 -0.1003
   65MOL0     C 8702   8.549   6.139   2.676  0.4764 -0.3371 -0.1521
   65MOL0     C 8703   8.520   6.266   2.746  0.3861  0.3562  0.0076
   65MOL0     C 8704   8.390   6.267   2.819  0.6141  0.3230  0.9917
   65MOL0     C 8705   8.284   6.279   2.871 -0.2190  0.3942 -0.8210
   65MOL0     C 8706   8.228   6.120   2.340 -0.0615  0.9705 -0.1597
   65MOL0     C 8707   8.105   6.157   2.282 -0.6600  0.4888  0.3906
   65MOL0     H 8708   7.562   6.064   2.204  1.7248 -1.4535  1.0580
   65MOL0     H 8709   7.375   6.083   2.036  1.4254  3.0718 -2.0309
   65MOL0     H 8710   7.388   6.088   1.597  1.2981 -0.7528 -1.0890
   65MOL0     H 8711   7.461   5.943   1.611  1.4667  1.2577  0.8457
   65MOL0     H 8712   7.243   5.915   1.502 -1.4153 -0.4177  0.0855
   65MOL0     H 8713   7.229   5.825   1.654 -0.5605 -0.7749 -1.8186
   65MOL0     H 8714   7.126   6.051   1.749  0.2961  0.4162  0.2285
   65MOL0     H 8715   7.124   6.100   1.581 -1.5068 -1.0158 -0.9849
   65MOL0     H 8716   6.987   5.922   1.514  1.8524 -0.9733 -0.3951
   65MOL0     H 8717   6.991   5.840   1.669 -1.4785  0.1658  0.0080
   65MOL0     H 8718   6.865   6.000   1.796 -0.6633  0.3944 -0.3037
   65MOL0     H 8719   6.866   6.112   1.660 -0.8682 -1.3323 -1.8286
   65MOL0     H 8720   6.757   5.882   1.535 -2.8115 -2.0850  0.7932
   65MOL0     H 8721   6.737   5.837   1.690  0.6742 -0.1904 -0.4810
   65MOL0     H 8722   6.662   6.103   1.569  2.3918 -0.9888 -0.1302
   65MOL0     H 8723   6.550   5.957   1.575  1.0327 -0.5676 -1.6147
   65MOL0     H 8724   6.610   6.157   1.792 -2.0745 -0.1192  2.7309
   65MOL0     H 8725   6.628   5.985   1.847  0.9665  0.1161  0.9137
   65MOL0     H 8726   6.446   5.806   1.815  3.9913  1.0887 -2.5599
   65MOL0     H 8727   6.069   5.837   1.679  1.7957  2.2143 -1.5744
   65MOL0     H 8728   6.195   5.717   1.693  0.5375 -0.7090  3.2079
   65MOL0     H 8729   6.049   5.848   1.926 -0.4408  1.2587 -0.9959
   65MOL0     H 8730   6.183   5.749   1.943  0.3108 -2.0477  0.0831
   65MOL0     H 8731   6.007   5.630   1.997 -0.2753 -0.8175  0.1940
   65MOL0     H 8732   6.064   5.562   1.842  0.6297 -0.3444 -1.1632
   65MOL0     H 8733   5.858   5.668   1.723 -1.8119 -0.3606 -0.0890
   65MOL0     H 8734   5.824   5.767   1.865  0.5130 -0.3692  1.6153
   65MOL0     H 8735   5.627   5.505   2.104 -0.4336 -1.3856 -0.1180
   65MOL0     H 8736   5.283   5.459   2.147 -0.9369  0.2643  0.8757
   65MOL0     H 8737   5.432   5.462   2.225  2.1920  1.9933 -0.8800
   65MOL0     H 8738   5.340   5.615   2.209 -1.7418 -1.7174  2.0104
   65MOL0     H 8739   5.003   5.748   2.192 -1.8687  1.2215  0.2877
   65MOL0     H 8740   4.752   5.794   2.176 -0.0686 -1.2718  1.8634
   65MOL0     H 8741   4.536   5.771   2.190  0.2016  3.2649  1.1927
   65MOL0     H 8742   4.557   5.869   2.041 -3.4744  2.0389  3.5215
   65MOL0     H 8743   4.347   5.775   1.947 -3.9223 -1.8822  0.6513
   65MOL0     H 8744   4.365   5.655   2.086  3.2227  1.1005  2.5141
   65MOL0     H 8745   4.351   5.957   2.091  2.1948 -2.0238  1.0996
   65MOL0     H 8746   4.344   5.865   2.238  3.4297  0.5138 -0.0940
   65MOL0     H 8747   4.125   5.899   2.031  0.1360  0.9411  0.1089
   65MOL0     H 8748   4.124   5.753   2.129  0.2278 -0.1138  3.0789
   65MOL0     H 8749   4.076   6.036   2.229 -1.8519  0.1202 -0.1651
   65MOL0     H 8750   4.129   5.902   2.340 -3.3740 -2.6570  0.1748
   65MOL0     H 8751   3.896   5.920   2.158  0.3377 -0.6270 -1.0241
   65MOL0     H 8752   3.934   5.770   2.247 -3.7166  0.5095 -1.4257
   65MOL0     H 8753   3.854   6.033   2.359  0.4565  0.9441 -2.9376
   65MOL0     H 8754   3.914   5.912   2.466  1.3406  0.8787 -0.5870
   65MOL0     H 8755   3.665   5.905   2.462 -0.1158  0.0763 -0.7529
   65MOL0     H 8756   3.746   5.756   2.420 -1.2911  0.0028  1.0984
   65MOL0     H 8757   4.747   5.533   1.832  0.5067 -2.9104  1.4598
   65MOL0     H 8758   4.985   5.525   1.830  0.6091  2.4292 -1.0154
   65MOL0     H 8759   5.397   5.652   1.688 -1.7839  1.2176  0.1003
   65MOL0     H 8760   5.640   5.625   1.697  0.7780 -0.1250  0.5513
   65MOL0     H 8761   7.624   5.924   1.735  3.3028 -1.3340  0.0776
   65MOL0     H 8762   7.804   5.901   1.893  0.4244 -0.1359 -0.7985
   65MOL0     H 8763   8.001   5.845   2.188 -0.0409 -0.0606  0.0313
   65MOL0     H 8764   8.211   5.778   2.296  1.6027  0.4297  3.2968
   65MOL0     H 8765   8.541   5.929   2.513  0.2889  1.0054  1.8719
   65MOL0     H 8766   8.526   6.076   2.405  2.8524 -0.8238  1.6335
   65MOL0     H 8767   8.372   6.023   2.652  0.9287  0.7015  1.4539
   65MOL0     H 8768   8.368   6.176   2.548 -0.6660  0.0344 -2.1540
   65MOL0     H 8769   8.636   6.161   2.614 -0.5063 -1.3089 -1.9759
   65MOL0     H 8770   8.584   6.067   2.751  1.8938  0.3783 -0.0925
   65MOL0     H 8771   8.533   6.343   2.670  1.5237 -0.0034 -0.1833
   65MOL0     H 8772   8.606   6.292   2.807 -0.1294  3.8429 -0.5532
   65MOL0     H 8773   8.184   6.276   2.909 -0.2863  0.9800 -0.9482
   65MOL0     H 8774   8.283   6.203   2.383  0.4735  0.4122  0.2597
   65MOL0     H 8775   8.086   6.263   2.265 -0.8988  0.6084  1.3421
   66MOL0     O 8776   9.160   5.378   0.771 -0.1395 -0.2883 -0.3580
   66MOL0     C 8777   9.232   5.406   0.874 -0.0501  0.0684 -0.2311
   66MOL0     O 8778   9.192   5.466   0.992  0.5015  0.6130  0.0328
   66MOL0     C 8779   9.060   5.472   1.018  0.5353  0.2733 -0.8829
   66MOL0     C 8780   8.956   5.384   0.977  0.4340 -0.1171 -0.6608
   66MOL0     C 8781   8.818   5.404   1.005  0.6088  0.0694 -0.2680
   66MOL0     C 8782   8.775   5.516   1.072 -0.5427  0.2031  0.3045
   66MOL0     O 8783   8.643   5.530   1.077  0.2173 -0.4203  0.4105
   66MOL0     C 8784   8.587   5.658   1.120  0.4916 -0.2113 -0.3496
   66MOL0     C 8785   8.436   5.657   1.119 -0.6818 -0.5927  0.2256
   66MOL0     C 8786   8.375   5.554   1.221  0.2906  1.5372 -0.1264
   66MOL0     C 8787   8.393   5.606   1.366 -0.6739  0.4249  0.5624
   66MOL0     C 8788   8.357   5.488   1.464 -0.4817  0.4503  0.2919
   66MOL0     C 8789   8.211   5.437   1.461  0.2184 -0.3498  0.6455
   66MOL0     C 8790   8.185   5.311   1.541 -0.4032 -0.4880  0.3028
   66MOL0     C 8791   8.034   5.273   1.505 -0.7561 -0.3966 -0.1453
   66MOL0     N 8792   7.944   5.372   1.572  0.7776  0.0520  1.0225
   66MOL0     C 8793   7.920   5.391   1.703 -0.6332  0.1778 -0.4116
   66MOL0     C 8794   7.826   5.488   1.713 -0.0906 -0.5108 -0.6298
   66MOL0     C 8795   7.755   5.546   1.836 -0.2220  0.1450  0.0364
   66MOL0     C 8796   7.679   5.433   1.907  0.5713 -0.2023  0.3525
   66MOL0     C 8797   7.602   5.496   2.019 -0.0069 -0.4797 -0.1444
   66MOL0     C 8798   7.526   5.385   2.096 -0.2810  0.6793 -0.2709
   66MOL0     O 8799   7.449   5.436   2.209  0.4347 -0.1461 -0.4377
   66MOL0     C 8800   7.311   5.421   2.208 -0.5273 -0.4039  0.4570
   66MOL0     C 8801   7.217   5.375   2.116  0.6070  0.3045  0.1483
   66MOL0     C 8802   7.085   5.353   2.147 -0.7939  0.2911  0.2504
   66MOL0     C 8803   7.011   5.268   2.045  0.2122  0.8771 -0.3940
   66MOL0     C 8804   7.033   5.415   2.264 -0.3132  0.7790  0.0020
   66MOL0     C 8805   6.883   5.422   2.298 -0.6633 -0.0572 -0.1225
   66MOL0     O 8806   6.857   5.450   2.431  0.3459 -0.0496  0.6175
   66MOL0     C 8807   6.725   5.487   2.465  1.0085  0.0004 -0.0191
   66MOL0     C 8808   6.691   5.619   2.467  0.2234  0.4259 -0.1035
   66MOL0     C 8809   6.568   5.652   2.512 -0.4036  1.1688 -0.6054
   66MOL0     C 8810   6.477   5.559   2.567  1.3653  0.0646 -0.2493
   66MOL0     O 8811   6.358   5.594   2.632 -0.4935  0.4850 -0.2336
   66MOL0     C 8812   6.315   5.728   2.613  0.3705  0.1465 -0.4242
   66MOL0     C 8813   6.175   5.745   2.678  0.0316 -0.0646 -0.1748
   66MOL0     C 8814   6.071   5.663   2.605 -0.5234 -0.3919 -0.3181
   66MOL0     C 8815   5.935   5.663   2.679 -0.0899 -0.9191 -0.5632
   66MOL0     C 8816   5.821   5.593   2.603 -0.6146  0.2723  0.0949
   66MOL0     C 8817   5.695   5.614   2.675 -0.1537 -0.0264  0.0621
   66MOL0     C 8818   5.592   5.524   2.614 -0.3243  0.1369 -0.6254
   66MOL0     C 8819   5.450   5.567   2.655 -0.1209  0.1375  0.3216
   66MOL0    Cl 8820   5.322   5.481   2.564 -0.2922 -0.2448  0.3790
   66MOL0     C 8821   6.516   5.425   2.561 -0.1245  0.2723  0.5159
   66MOL0     C 8822   6.635   5.389   2.499  0.4343 -1.0313 -0.6345
   66MOL0     O 8823   6.805   5.420   2.206 -0.1695  0.9514  0.0538
   66MOL0     C 8824   7.122   5.475   2.358  0.8598  1.0522  0.4819
   66MOL0     C 8825   7.259   5.478   2.328  0.0762  0.6283  0.1719
   66MOL0     N 8826   7.788   5.523   1.583 -0.7270  0.2844  0.1656
   66MOL0     N 8827   7.851   5.449   1.501  0.3110 -0.1255  0.7663
   66MOL0     C 8828   8.884   5.603   1.118 -0.0606  0.4010  0.8993
   66MOL0     C 8829   9.016   5.578   1.097 -0.2611  0.1015 -0.5428
   66MOL0     C 8830   9.374   5.368   0.865 -0.2891  0.7511  0.5522
   66MOL0     C 8831   9.417   5.285   0.760  0.1304 -0.1174  0.8253
   66MOL0     C 8832   9.551   5.245   0.758  0.2855 -0.2854  0.2022
   66MOL0     C 8833   9.649   5.299   0.849 -0.5880  0.0722  0.7308
   66MOL0     O 8834   9.781   5.257   0.829 -0.2777 -0.7830 -0.3238
   66MOL0     C 8835   9.881   5.295   0.925 -0.9155  0.8270 -0.7945
   66MOL0     C 8836  10.021   5.249   0.870  0.6470  0.0104  0.6089
   66MOL0     C 8837  10.136   5.290   0.962 -0.5856  0.5775 -0.1329
   66MOL0     C 8838  10.181   5.427   0.942  0.0597 -1.3008  0.0577
   66MOL0     C 8839  10.297   5.472   1.021  0.2032  0.1607  0.1416
   66MOL0     C 8840  10.392   5.482   1.089 -0.1861 -1.0518 -0.3014
   66MOL0     C 8841   9.601   5.387   0.948  0.5624 -0.4437 -0.5178
   66MOL0     C 8842   9.467   5.417   0.955 -0.3294 -0.3113 -0.9169
   66MOL0     H 8843   8.974   5.295   0.918  0.9638  0.1041 -0.8429
   66MOL0     H 8844   8.744   5.330   0.977  1.2712 -1.2769  1.3608
   66MOL0     H 8845   8.618   5.667   1.224 -1.8099 -4.1782  0.8676
   66MOL0     H 8846   8.622   5.738   1.053 -2.9204  1.6968 -0.0739
   66MOL0     H 8847   8.402   5.754   1.156 -4.4435 -1.3533 -0.8146
   66MOL0     H 8848   8.399   5.644   1.017 -1.4972 -0.9115  0.5591
   66MOL0     H 8849   8.272   5.535   1.189  0.3130 -0.9304  1.0036
   66MOL0     H 8850   8.419   5.454   1.213  0.5259  1.5818  0.5210
   66MOL0     H 8851   8.496   5.633   1.387 -1.1597  3.4340 -0.4377
   66MOL0     H 8852   8.326   5.691   1.385  0.6437  0.8583  3.9011
   66MOL0     H 8853   8.408   5.394   1.442 -4.0079 -1.9059  1.3229
   66MOL0     H 8854   8.379   5.533   1.561 -1.0061  2.0311 -0.2917
   66MOL0     H 8855   8.142   5.518   1.485  0.8205  0.6248 -0.7427
   66MOL0     H 8856   8.193   5.418   1.354  0.6082  0.7366  0.3679
   66MOL0     H 8857   8.256   5.235   1.507 -0.0939  0.1691 -0.5331
   66MOL0     H 8858   8.205   5.319   1.648 -2.2826 -0.4455  0.6922
   66MOL0     H 8859   8.014   5.175   1.550 -2.2275 -0.2955 -0.5312
   66MOL0     H 8860   8.019   5.277   1.397 -1.4148  0.1590 -0.0423
   66MOL0     H 8861   7.975   5.344   1.784  0.5047  2.5757  0.2915
   66MOL0     H 8862   7.829   5.580   1.909 -0.4225 -3.4228  2.1763
   66MOL0     H 8863   7.696   5.630   1.799  1.8541  0.3689 -3.2006
   66MOL0     H 8864   7.758   5.367   1.944  0.0439 -0.8393  0.3553
   66MOL0     H 8865   7.614   5.391   1.829  2.1035 -1.3343 -0.3712
   66MOL0     H 8866   7.524   5.562   1.982 -1.2145  0.7841  4.0441
   66MOL0     H 8867   7.664   5.556   2.087 -2.2383  0.7543  0.9299
   66MOL0     H 8868   7.593   5.312   2.141 -1.6284 -0.7749 -0.5177
   66MOL0     H 8869   7.470   5.330   2.020 -0.2356 -0.2595  0.3578
   66MOL0     H 8870   7.246   5.332   2.020  0.6751  1.1494 -0.2156
   66MOL0     H 8871   6.981   5.350   1.979  0.6590  1.2427 -0.1458
   66MOL0     H 8872   7.079   5.190   2.009 -0.7227 -0.1090 -0.0682
   66MOL0     H 8873   6.919   5.222   2.082  0.9118 -0.2431 -0.0148
   66MOL0     H 8874   6.768   5.688   2.435 -0.0834 -0.4711 -3.0604
   66MOL0     H 8875   6.555   5.759   2.503  1.7646  1.2682 -3.8755
   66MOL0     H 8876   6.388   5.786   2.670  1.1724 -1.7821  0.6238
   66MOL0     H 8877   6.309   5.766   2.511 -0.6388  1.2747  0.0350
   66MOL0     H 8878   6.166   5.708   2.781 -0.0827 -2.2553 -0.9203
   66MOL0     H 8879   6.157   5.852   2.661  0.4290  0.1058  0.4513
   66MOL0     H 8880   6.102   5.559   2.594 -0.4991 -0.5698  1.2705
   66MOL0     H 8881   6.048   5.703   2.505 -1.4157 -0.7409 -0.2567
   66MOL0     H 8882   5.942   5.617   2.777  1.1178  0.3444 -0.0086
   66MOL0     H 8883   5.909   5.768   2.692 -0.9021 -0.9717 -1.6206
   66MOL0     H 8884   5.841   5.488   2.579 -3.7887  0.1160 -2.5042
   66MOL0     H 8885   5.805   5.648   2.510 -0.7565  0.8893  0.4762
   66MOL0     H 8886   5.715   5.592   2.780  1.4702  0.2115 -0.1714
   66MOL0     H 8887   5.675   5.721   2.682 -0.8475 -0.1119 -0.5890
   66MOL0     H 8888   5.612   5.424   2.656  0.9991  0.8408  0.5344
   66MOL0     H 8889   5.598   5.515   2.505 -0.8663 -0.7371 -0.5931
   66MOL0     H 8890   5.433   5.670   2.623  0.8831  0.7778  1.7781
   66MOL0     H 8891   5.446   5.558   2.764 -0.0361  0.1722  0.3276
   66MOL0     H 8892   6.451   5.346   2.597  0.7464 -1.2854 -1.1694
   66MOL0     H 8893   6.665   5.285   2.489  0.4602 -1.1497  0.4629
   66MOL0     H 8894   7.081   5.533   2.439  0.2655  0.4476  0.6261
   66MOL0     H 8895   7.336   5.514   2.396  1.5420 -2.1940  0.1581
   66MOL0     H 8896   8.856   5.691   1.175  0.7651 -0.4811  2.7440
   66MOL0     H 8897   9.085   5.639   1.155  0.7147 -2.7850  1.5510
   66MOL0     H 8898   9.347   5.258   0.681  1.9885  1.2957 -1.4420
   66MOL0     H 8899   9.588   5.184   0.676  1.0377 -0.9177  0.9930
   66MOL0     H 8900   9.882   5.402   0.946  0.5824  0.6006  0.4572
   66MOL0     H 8901   9.875   5.241   1.020  1.0501 -4.2036 -3.1418
   66MOL0     H 8902  10.032   5.293   0.770 -1.8180  1.1179  0.7527
   66MOL0     H 8903  10.028   5.142   0.854 -3.1953 -0.3571  0.5073
   66MOL0     H 8904  10.221   5.227   0.933 -0.9548 -0.5747  1.1960
   66MOL0     H 8905  10.115   5.284   1.069 -0.4030 -2.6558 -0.1922
   66MOL0     H 8906  10.093   5.486   0.970  1.6412  1.0288  0.4544
   66MOL0     H 8907  10.205   5.460   0.840 -1.9833  0.5201  0.0661
   66MOL0     H 8908  10.476   5.495   1.155 -0.1177 -0.7959 -0.4377
   66MOL0     H 8909   9.670   5.428   1.021  0.5051  0.6005 -1.0394
   66MOL0     H 8910   9.443   5.485   1.036  2.3833  0.8886 -1.0355
   67MOL0     O 8911   3.172   3.770   2.923  0.6774  0.0296  0.5597
   67MOL0     C 8912   3.160   3.778   2.790  0.3186  0.7321 -1.1932
   67MOL0     O 8913   3.094   3.689   2.713 -0.1824  0.1797 -0.0088
   67MOL0     C 8914   2.981   3.621   2.767  0.1699  0.0939  0.1424
   67MOL0     C 8915   2.959   3.496   2.712 -0.5490 -0.9836 -0.2677
   67MOL0     C 8916   2.847   3.422   2.760 -0.7820  0.5537 -0.0088
   67MOL0     C 8917   2.775   3.458   2.873  0.3826  0.5887 -0.2313
   67MOL0     O 8918   2.672   3.367   2.899 -0.1431  0.2243 -0.3578
   67MOL0     C 8919   2.603   3.402   3.020 -0.2949 -0.0279  0.6485
   67MOL0     C 8920   2.510   3.286   3.056 -0.8492  0.6777 -0.2281
   67MOL0     C 8921   2.588   3.162   3.110 -0.6356 -0.1974 -0.7086
   67MOL0     C 8922   2.622   3.200   3.258 -0.1129  0.3370 -0.8693
   67MOL0     C 8923   2.667   3.075   3.333  0.0228  0.1397 -0.5948
   67MOL0     C 8924   2.824   3.074   3.323 -0.2503 -0.0875  0.2562
   67MOL0     C 8925   2.892   2.971   3.407  0.6414  0.0147 -0.9820
   67MOL0     C 8926   3.041   2.966   3.404 -0.3468  1.6626 -0.1647
   67MOL0     N 8927   3.076   2.860   3.502 -0.2578 -0.2699 -0.5321
   67MOL0     C 8928   3.107   2.724   3.488  0.3808  0.1573  0.3997
   67MOL0     C 8929   3.167   2.685   3.602 -0.5332  0.2590 -0.6095
   67MOL0     C 8930   3.213   2.543   3.632 -0.7588 -0.7695  0.7542
   67MOL0     C 8931   3.168   2.496   3.769  0.9065 -0.1597  0.3023
   67MOL0     C 8932   3.018   2.522   3.808  0.7478 -0.7636  0.6747
   67MOL0     C 8933   2.920   2.456   3.703 -0.0436  0.7802  0.0656
   67MOL0     O 8934   2.949   2.327   3.676 -0.2687 -0.0829 -0.2558
   67MOL0     C 8935   2.853   2.251   3.604  0.7802 -0.4897 -0.1838
   67MOL0     C 8936   2.899   2.157   3.512 -0.4119 -0.5691 -1.0608
   67MOL0     C 8937   2.818   2.063   3.444 -0.3414  0.3347  0.5422
   67MOL0     C 8938   2.890   1.949   3.373  0.5251 -0.1281  0.3272
   67MOL0     C 8939   2.675   2.084   3.445 -0.1017  0.0473  0.3849
   67MOL0     C 8940   2.587   2.017   3.349  0.2896  0.3221 -0.3489
   67MOL0     O 8941   2.480   2.094   3.297 -1.0541 -0.0051  0.1984
   67MOL0     C 8942   2.400   2.039   3.208 -0.6399  0.9182 -0.3494
   67MOL0     C 8943   2.263   2.071   3.233 -1.5132  0.1807 -0.2738
   67MOL0     C 8944   2.172   2.036   3.143  0.2793 -1.1049  1.4105
   67MOL0     C 8945   2.211   1.958   3.030  0.3346  0.1944 -0.7038
   67MOL0     O 8946   2.105   1.914   2.950  0.0895 -0.1703 -0.5300
   67MOL0     C 8947   2.125   1.795   2.877 -0.0691  0.5938  0.3284
   67MOL0     C 8948   1.997   1.721   2.842 -0.2302 -0.3416 -0.3009
   67MOL0     C 8949   1.895   1.813   2.780  0.3339 -0.0218 -0.8076
   67MOL0     C 8950   1.759   1.747   2.767  0.4995  0.3343  0.0210
   67MOL0     C 8951   1.653   1.854   2.751 -0.2492 -0.3485  0.5718
   67MOL0     C 8952   1.509   1.809   2.750  0.4656  0.6650  0.4156
   67MOL0     C 8953   1.495   1.709   2.622  0.1395 -0.4056 -0.3012
   67MOL0     C 8954   1.348   1.679   2.598  0.2240  0.6324 -0.0047
   67MOL0    Cl 8955   1.259   1.826   2.575 -0.1243  0.1541 -0.1699
   67MOL0     C 8956   2.348   1.942   2.997  1.0969  0.0811 -0.4549
   67MOL0     C 8957   2.444   1.988   3.081  0.3244 -0.5730 -0.5685
   67MOL0     O 8958   2.611   1.897   3.323 -0.0053  0.4634  0.3478
   67MOL0     C 8959   2.626   2.196   3.508 -0.0982  0.4467  0.1778
   67MOL0     C 8960   2.714   2.275   3.590  1.1994  0.7483  0.4406
   67MOL0     N 8961   3.170   2.787   3.692  0.3936  0.0998  0.1753
   67MOL0     N 8962   3.116   2.890   3.625  1.3110 -0.1569 -0.1431
   67MOL0     C 8963   2.820   3.573   2.938  0.1675 -0.5289 -0.4705
   67MOL0     C 8964   2.912   3.665   2.877  0.3709  0.1008 -0.5136
   67MOL0     C 8965   3.262   3.874   2.731 -0.0547 -0.0284 -0.0346
   67MOL0     C 8966   3.327   3.968   2.813  1.2569 -0.6080 -0.5096
   67MOL0     C 8967   3.423   4.052   2.757 -0.3997 -0.4157  1.3265
   67MOL0     C 8968   3.469   4.036   2.619  0.4540 -0.3907  0.0260
   67MOL0     O 8969   3.569   4.113   2.566  0.1634  0.3108 -0.4100
   67MOL0     C 8970   3.699   4.075   2.625  0.2135 -0.4506  0.8674
   67MOL0     C 8971   3.744   3.929   2.615  0.0729 -0.0520  0.0263
   67MOL0     C 8972   3.760   3.874   2.469 -0.2151  0.5717 -0.7651
   67MOL0     C 8973   3.785   3.726   2.466 -0.6707  0.3577 -1.1003
   67MOL0     C 8974   3.915   3.691   2.541 -0.6782 -0.5081 -0.2412
   67MOL0     C 8975   4.017   3.658   2.601  0.3478  0.4457 -0.1669
   67MOL0     C 8976   3.402   3.943   2.541  0.4882 -0.1281 -0.4267
   67MOL0     C 8977   3.296   3.865   2.593 -0.3764  0.0752 -0.2802
   67MOL0     H 8978   3.027   3.464   2.633 -0.5067  0.1632 -0.7099
   67MOL0     H 8979   2.829   3.332   2.703  1.6510 -0.4544  0.6703
   67MOL0     H 8980   2.668   3.423   3.105 -0.8388 -1.1136  1.3504
   67MOL0     H 8981   2.535   3.478   2.981 -2.4648 -1.5557  1.2342
   67MOL0     H 8982   2.433   3.306   3.131  0.3844 -0.9978  1.6066
   67MOL0     H 8983   2.461   3.252   2.965  1.7035 -0.7509 -1.1922
   67MOL0     H 8984   2.524   3.073   3.106 -3.4286  1.6031  0.5373
   67MOL0     H 8985   2.685   3.152   3.061  0.5299  1.5767  1.0809
   67MOL0     H 8986   2.699   3.277   3.265 -0.0562  0.3428 -1.5743
   67MOL0     H 8987   2.529   3.228   3.309 -0.0999 -2.8177  1.1541
   67MOL0     H 8988   2.642   3.077   3.439  0.4785 -3.6680 -0.2714
   67MOL0     H 8989   2.637   2.985   3.279 -3.2050  2.0549 -2.2519
   67MOL0     H 8990   2.856   3.075   3.218  2.1618  0.1716  0.9354
   67MOL0     H 8991   2.851   3.171   3.365 -0.3864 -1.1670  3.0357
   67MOL0     H 8992   2.868   2.988   3.512  0.6302 -0.0871 -0.9679
   67MOL0     H 8993   2.843   2.875   3.385 -1.1135  0.8800 -0.9642
   67MOL0     H 8994   3.091   3.058   3.435  3.0976 -0.2707  0.5336
   67MOL0     H 8995   3.065   2.940   3.301 -1.9016  1.0833 -0.4077
   67MOL0     H 8996   3.089   2.655   3.406  1.0338  0.5307 -0.0641
   67MOL0     H 8997   3.180   2.463   3.566  0.7337 -0.6587 -0.1835
   67MOL0     H 8998   3.323   2.537   3.634 -0.8305 -2.6554  3.6060
   67MOL0     H 8999   3.233   2.541   3.844  2.2051 -1.1712 -0.1776
   67MOL0     H 9000   3.194   2.391   3.780 -0.1632 -0.3737  0.9455
   67MOL0     H 9001   2.989   2.626   3.827 -3.3348 -1.6178  0.0453
   67MOL0     H 9002   3.011   2.472   3.905  2.4919 -1.1806  0.6233
   67MOL0     H 9003   2.923   2.512   3.609  0.5521 -2.1153 -1.7446
   67MOL0     H 9004   2.816   2.461   3.736 -0.3870 -0.8483 -0.6895
   67MOL0     H 9005   3.006   2.158   3.496 -0.6014 -1.3374 -2.5355
   67MOL0     H 9006   2.893   1.964   3.265 -2.5288 -3.4613 -0.4421
   67MOL0     H 9007   2.991   1.964   3.412  0.5860  0.0881  0.0884
   67MOL0     H 9008   2.857   1.848   3.400 -0.7147  0.5887  1.6652
   67MOL0     H 9009   2.240   2.133   3.318  1.8255 -1.8632  2.3744
   67MOL0     H 9010   2.071   2.072   3.161 -0.6111 -3.7365  2.1155
   67MOL0     H 9011   2.183   1.814   2.786 -0.1660  0.0370  0.1468
   67MOL0     H 9012   2.188   1.732   2.941 -1.6548 -1.0161  0.4042
   67MOL0     H 9013   2.019   1.643   2.768  0.6172  0.5532 -1.0176
   67MOL0     H 9014   1.962   1.668   2.931 -0.4483  0.7409  0.2681
   67MOL0     H 9015   1.917   1.846   2.678 -0.7529  2.3148 -0.3618
   67MOL0     H 9016   1.879   1.905   2.837 -0.3825 -0.4551 -0.2923
   67MOL0     H 9017   1.762   1.677   2.683  2.0903 -0.0193  0.3404
   67MOL0     H 9018   1.731   1.687   2.853 -0.5013 -2.1006 -1.8798
   67MOL0     H 9019   1.675   1.912   2.661  1.3346 -1.3389  0.2894
   67MOL0     H 9020   1.659   1.920   2.838  0.2846 -0.2062  0.4301
   67MOL0     H 9021   1.491   1.753   2.843 -2.2219  0.7525  0.0169
   67MOL0     H 9022   1.442   1.895   2.748  0.2538  0.5506  1.7111
   67MOL0     H 9023   1.536   1.609   2.638 -4.1246 -2.1619  1.0661
   67MOL0     H 9024   1.543   1.760   2.538 -0.3132 -0.2596 -0.4762
   67MOL0     H 9025   1.309   1.616   2.679  1.4530  0.1221  0.2180
   67MOL0     H 9026   1.348   1.620   2.506  0.9413  0.4708  0.0899
   67MOL0     H 9027   2.382   1.899   2.903  0.7077 -1.7249  0.1900
   67MOL0     H 9028   2.550   1.977   3.062  0.5030 -0.6145  0.3654
   67MOL0     H 9029   2.518   2.204   3.508 -0.3670 -0.3850  4.7777
   67MOL0     H 9030   2.673   2.360   3.644  0.5701  0.0846  1.0280
   67MOL0     H 9031   2.761   3.601   3.025 -0.8277 -1.0836 -0.9485
   67MOL0     H 9032   2.930   3.759   2.928  1.8032  0.1918 -1.1265
   67MOL0     H 9033   3.296   3.980   2.916  0.5847 -1.4346 -0.6015
   67MOL0     H 9034   3.487   4.118   2.814  0.2112  0.4220 -0.2833
   67MOL0     H 9035   3.774   4.139   2.577  0.9864  1.2081  4.0154
   67MOL0     H 9036   3.712   4.112   2.727  0.4507 -0.5984  0.8916
   67MOL0     H 9037   3.668   3.870   2.668  0.6534 -2.3714 -1.5689
   67MOL0     H 9038   3.844   3.920   2.656 -0.4455 -0.1731  1.3190
   67MOL0     H 9039   3.831   3.934   2.411  2.4385 -1.8880 -0.2603
   67MOL0     H 9040   3.668   3.888   2.412 -0.8950  0.2615  0.2162
   67MOL0     H 9041   3.787   3.692   2.362 -0.2905 -4.3250  0.2002
   67MOL0     H 9042   3.708   3.674   2.523  0.0416  2.9881  2.6321
   67MOL0     H 9043   4.121   3.639   2.618  0.4203 -0.9244 -1.8172
   67MOL0     H 9044   3.440   3.939   2.439  0.1057  3.3421 -0.8298
   67MOL0     H 9045   3.242   3.793   2.533  0.9106 -2.3937  1.3748
   68MOL0     O 9046   8.457   7.704   1.231 -0.1381  0.2508  0.1813
   68MOL0     C 9047   8.447   7.766   1.123  0.1165  0.2288  0.1082
   68MOL0     O 9048   8.333   7.826   1.082 -0.2755  0.6477  0.2108
   68MOL0     C 9049   8.235   7.861   1.173  0.1262  0.6567  0.3174
   68MOL0     C 9050   8.101   7.863   1.125 -0.2940  0.0114 -0.9791
   68MOL0     C 9051   7.997   7.907   1.210  0.2221  0.9332 -0.0664
   68MOL0     C 9052   8.033   7.950   1.345 -0.8664  0.3738  0.3688
   68MOL0     O 9053   7.947   7.991   1.443  0.3428  0.2872 -0.2189
   68MOL0     C 9054   7.815   7.951   1.419  0.4314  1.0318  0.5298
   68MOL0     C 9055   7.724   7.981   1.534 -0.6911 -0.1000 -0.6165
   68MOL0     C 9056   7.713   8.129   1.550 -0.4804  1.3238  0.0039
   68MOL0     C 9057   7.617   8.152   1.661  0.1957 -0.3458  0.6911
   68MOL0     C 9058   7.602   8.292   1.708  0.3954  0.2653 -0.4530
   68MOL0     C 9059   7.486   8.313   1.817 -0.6716  0.4207 -0.3023
   68MOL0     C 9060   7.527   8.238   1.949  0.2308 -0.4849  0.5478
   68MOL0     C 9061   7.437   8.294   2.052  0.0316  0.1851 -0.6113
   68MOL0     N 9062   7.423   8.231   2.179 -0.2707 -0.6426  0.1118
   68MOL0     C 9063   7.469   8.106   2.210  0.3103  0.0064 -0.0264
   68MOL0     C 9064   7.477   8.113   2.344 -0.3194 -0.8062  0.6641
   68MOL0     C 9065   7.551   8.015   2.434  1.2393  0.0598  0.2068
   68MOL0     C 9066   7.454   7.894   2.461  0.6667 -0.2892 -0.4209
   68MOL0     C 9067   7.339   7.924   2.564  0.3076 -0.9577  0.2274
   68MOL0     C 9068   7.268   7.796   2.596  0.1938  0.3744 -0.2382
   68MOL0     O 9069   7.171   7.807   2.699  0.0417  0.2738 -0.8407
   68MOL0     C 9070   7.064   7.894   2.676  0.2124  0.0931 -0.1555
   68MOL0     C 9071   7.010   7.944   2.789 -0.6520  0.0114 -0.5800
   68MOL0     C 9072   6.898   8.025   2.784 -0.5983 -0.3520 -0.1344
   68MOL0     C 9073   6.846   8.077   2.920 -0.1517  0.4733 -0.4151
   68MOL0     C 9074   6.831   8.052   2.657 -0.2423 -0.6740  0.5225
   68MOL0     C 9075   6.708   8.134   2.637 -1.6351  0.2538 -0.1786
   68MOL0     O 9076   6.599   8.070   2.602  0.1822  0.0516  0.0949
   68MOL0     C 9077   6.483   8.148   2.598  0.2531  0.4228 -0.0627
   68MOL0     C 9078   6.412   8.156   2.480  0.3527  0.5398 -0.8557
   68MOL0     C 9079   6.290   8.229   2.470 -1.0489  0.2240  1.0385
   68MOL0     C 9080   6.237   8.297   2.577 -0.3810  0.2080  0.0213
   68MOL0     O 9081   6.118   8.367   2.578 -0.3663  0.4507 -0.4798
   68MOL0     C 9082   6.042   8.382   2.455 -0.5500 -0.0623 -0.6609
   68MOL0     C 9083   5.927   8.479   2.508 -0.1770 -0.3395 -0.0496
   68MOL0     C 9084   5.821   8.488   2.399 -0.3012  0.4359 -0.9629
   68MOL0     C 9085   5.729   8.604   2.428 -0.4012  0.0814  0.1737
   68MOL0     C 9086   5.591   8.601   2.359 -0.3273 -0.3233 -0.1015
   68MOL0     C 9087   5.519   8.734   2.377 -0.1507  0.8446 -0.3286
   68MOL0     C 9088   5.379   8.720   2.323  0.3587  0.9324 -0.8991
   68MOL0     C 9089   5.306   8.844   2.350  0.2451  1.0481  0.2563
   68MOL0    Cl 9090   5.126   8.823   2.345 -0.1306  0.1175  0.0207
   68MOL0     C 9091   6.308   8.292   2.693  0.2008 -0.4918 -0.3363
   68MOL0     C 9092   6.424   8.210   2.709  0.0551 -0.5738 -0.0616
   68MOL0     O 9093   6.712   8.259   2.650  0.3941  0.5849  0.2742
   68MOL0     C 9094   6.891   8.003   2.540  0.4299 -0.2130  0.6382
   68MOL0     C 9095   7.002   7.928   2.551 -0.1196  0.5317 -0.1592
   68MOL0     N 9096   7.423   8.232   2.383  0.1269 -0.4342  0.2635
   68MOL0     N 9097   7.394   8.305   2.283 -0.4226 -0.0919 -0.5133
   68MOL0     C 9098   8.170   7.944   1.387  0.4594 -0.0010 -0.1558
   68MOL0     C 9099   8.262   7.914   1.296 -0.1092  0.6895  0.4892
   68MOL0     C 9100   8.571   7.785   1.038  1.5841 -0.2316 -1.0971
   68MOL0     C 9101   8.554   7.855   0.915  0.3610  0.6211 -0.7029
   68MOL0     C 9102   8.669   7.876   0.839  0.3079  0.7768 -0.6691
   68MOL0     C 9103   8.796   7.828   0.881  0.8506  0.6616  0.0910
   68MOL0     O 9104   8.893   7.869   0.791 -0.3848  0.2952  0.0212
   68MOL0     C 9105   9.031   7.876   0.832 -0.2262  0.6606 -0.1345
   68MOL0     C 9106   9.111   7.885   0.710  0.0342  0.9862  0.3725
   68MOL0     C 9107   9.084   8.024   0.641  0.7522  0.2399  0.5192
   68MOL0     C 9108   9.166   8.044   0.515  0.4122  0.2229 -0.0321
   68MOL0     C 9109   9.302   8.073   0.552 -0.5625  0.0533 -0.2904
   68MOL0     C 9110   9.419   8.083   0.570 -0.3618  0.3085  1.2696
   68MOL0     C 9111   8.811   7.753   1.001  0.5151 -0.2185  0.0888
   68MOL0     C 9112   8.691   7.734   1.080 -0.6272  0.9007  0.2552
   68MOL0     H 9113   8.082   7.839   1.021  1.0005  1.5175 -1.6074
   68MOL0     H 9114   7.902   7.903   1.158  0.9164 -2.1381 -1.3455
   68MOL0     H 9115   7.766   8.012   1.343 -1.4357  0.1022  0.9096
   68MOL0     H 9116   7.807   7.847   1.386 -0.0162  0.7761  1.4143
   68MOL0     H 9117   7.627   7.932   1.525 -0.4096 -0.6155 -0.9312
   68MOL0     H 9118   7.762   7.934   1.626 -2.3293 -0.7718 -0.2558
   68MOL0     H 9119   7.814   8.161   1.575  0.9784 -3.1641  0.7888
   68MOL0     H 9120   7.671   8.180   1.463 -1.6776 -0.7029 -0.6740
   68MOL0     H 9121   7.516   8.113   1.643  0.6617 -1.1039 -0.3227
   68MOL0     H 9122   7.652   8.084   1.739  1.7100 -1.2380 -0.7044
   68MOL0     H 9123   7.698   8.330   1.747  0.5416 -0.8094  0.2705
   68MOL0     H 9124   7.575   8.348   1.618  3.4174  0.3533 -1.4360
   68MOL0     H 9125   7.457   8.416   1.840  0.4383  0.6014  0.3387
   68MOL0     H 9126   7.389   8.274   1.785 -0.6498  0.3693 -0.3062
   68MOL0     H 9127   7.501   8.134   1.928  1.7870 -0.9070  0.6692
   68MOL0     H 9128   7.634   8.246   1.966  0.3632 -0.7305 -0.1522
   68MOL0     H 9129   7.337   8.287   2.008 -0.6267 -2.2629  1.0921
   68MOL0     H 9130   7.464   8.398   2.072 -1.1889  0.5404 -0.7524
   68MOL0     H 9131   7.508   8.028   2.145  2.5952 -2.6829  4.1572
   68MOL0     H 9132   7.643   7.980   2.388  0.1735 -2.0025 -0.4744
   68MOL0     H 9133   7.586   8.065   2.525  2.4645  0.0710 -0.2579
   68MOL0     H 9134   7.523   7.814   2.492 -2.7552 -3.2202  0.3499
   68MOL0     H 9135   7.409   7.861   2.367  0.6268 -2.5278  0.3274
   68MOL0     H 9136   7.258   7.987   2.526 -2.7219 -4.8773 -0.4696
   68MOL0     H 9137   7.385   7.975   2.649  2.5758 -1.6605 -0.5004
   68MOL0     H 9138   7.338   7.715   2.619 -0.3066 -0.6060 -1.9854
   68MOL0     H 9139   7.218   7.770   2.502 -0.3254 -0.8945  0.3754
   68MOL0     H 9140   7.055   7.919   2.885  1.0238  0.2296 -1.2810
   68MOL0     H 9141   6.760   8.145   2.914 -1.5680 -1.3208 -1.3798
   68MOL0     H 9142   6.810   7.989   2.974 -0.7798  0.9180 -0.0993
   68MOL0     H 9143   6.932   8.117   2.975  0.1006 -0.9808  0.3006
   68MOL0     H 9144   6.441   8.102   2.390  0.2718  1.4926 -1.4669
   68MOL0     H 9145   6.229   8.231   2.380 -1.2614  0.9771  1.1961
   68MOL0     H 9146   6.092   8.439   2.377  0.6752 -2.4241 -1.7030
   68MOL0     H 9147   6.009   8.284   2.419  0.6443  0.3000 -2.8544
   68MOL0     H 9148   5.876   8.447   2.599 -1.4626  3.1054  0.5727
   68MOL0     H 9149   5.967   8.576   2.539 -1.0966 -0.7806  2.8188
   68MOL0     H 9150   5.761   8.396   2.394  2.5181 -1.5255 -1.2135
   68MOL0     H 9151   5.883   8.499   2.310 -1.9743 -0.4035 -2.2866
   68MOL0     H 9152   5.716   8.617   2.536  0.7008 -0.7079  0.4252
   68MOL0     H 9153   5.782   8.697   2.403  0.4696  0.0638  1.8218
   68MOL0     H 9154   5.535   8.520   2.407  1.2205 -0.2687  1.9363
   68MOL0     H 9155   5.602   8.586   2.251  0.7561  0.4045 -0.1138
   68MOL0     H 9156   5.514   8.760   2.483  2.2617  2.1696 -0.4678
   68MOL0     H 9157   5.576   8.816   2.332 -1.4817  1.2889 -1.2555
   68MOL0     H 9158   5.334   8.633   2.371 -0.5431  1.8419 -0.0527
   68MOL0     H 9159   5.386   8.703   2.215  1.6369 -1.4101 -0.5163
   68MOL0     H 9160   5.327   8.906   2.263  1.4107  1.4403  0.8050
   68MOL0     H 9161   5.339   8.888   2.444  0.4536  2.8402 -0.6161
   68MOL0     H 9162   6.269   8.344   2.780 -1.3275 -0.5230 -0.9717
   68MOL0     H 9163   6.479   8.190   2.800 -0.2915  2.7435  1.0160
   68MOL0     H 9164   6.841   8.019   2.445 -0.2813  0.7705  1.1527
   68MOL0     H 9165   7.044   7.886   2.460 -1.3669  1.5147 -1.2194
   68MOL0     H 9166   8.203   7.982   1.484 -1.2955  2.6417 -0.4870
   68MOL0     H 9167   8.368   7.923   1.315  0.2244 -2.6865  0.9368
   68MOL0     H 9168   8.457   7.886   0.879 -1.0735 -3.1425 -0.6276
   68MOL0     H 9169   8.660   7.935   0.749  0.4016 -0.2110 -1.3511
   68MOL0     H 9170   9.051   7.967   0.891 -3.2797  1.6681 -0.5051
   68MOL0     H 9171   9.051   7.791   0.898 -1.3331  0.4549 -0.0484
   68MOL0     H 9172   9.093   7.799   0.645 -0.9283 -0.3543  2.3054
   68MOL0     H 9173   9.218   7.878   0.733 -0.4703  0.8855  2.9993
   68MOL0     H 9174   9.095   8.103   0.716 -0.0771 -1.2057  2.2625
   68MOL0     H 9175   8.978   8.030   0.616  0.5059 -0.8258  1.2073
   68MOL0     H 9176   9.133   8.129   0.455 -0.2680 -0.0959 -0.1187
   68MOL0     H 9177   9.154   7.950   0.460 -3.8740  0.8998 -0.5931
   68MOL0     H 9178   9.524   8.098   0.585 -0.4416  0.0265  2.1841
   68MOL0     H 9179   8.908   7.714   1.031  1.1651  1.6957  0.6376
   68MOL0     H 9180   8.701   7.665   1.163 -2.3546  0.4772  0.1361
   69MOL0     O 9181   5.091   3.077   4.353  0.1867  0.3648  0.5345
   69MOL0     C 9182   5.101   2.956   4.366  0.6416  0.7341  0.5219
   69MOL0     O 9183   4.993   2.873   4.393  0.1844  0.2320  0.6175
   69MOL0     C 9184   4.863   2.914   4.381 -0.6136  0.0683  0.0393
   69MOL0     C 9185   4.803   3.015   4.295 -0.3569  0.6559  0.4359
   69MOL0     C 9186   4.667   3.026   4.297  1.1987 -0.5960 -0.3247
   69MOL0     C 9187   4.585   2.939   4.371 -0.5812  0.4120  0.3872
   69MOL0     O 9188   4.455   2.960   4.376 -1.1125  0.2440  0.6965
   69MOL0     C 9189   4.359   2.851   4.373  0.2702  0.7617 -0.4489
   69MOL0     C 9190   4.218   2.893   4.322  0.3935 -0.2218 -0.1398
   69MOL0     C 9191   4.131   2.928   4.441  0.9150 -0.1691 -0.2114
   69MOL0     C 9192   3.987   2.950   4.386  0.0961 -0.5623 -0.0733
   69MOL0     C 9193   3.882   2.997   4.478 -0.8831 -0.2785 -0.0951
   69MOL0     C 9194   3.751   2.980   4.410 -0.1403 -0.1023  0.3361
   69MOL0     C 9195   3.635   3.046   4.475 -0.0792 -0.4655 -0.6150
   69MOL0     C 9196   3.509   2.989   4.404 -1.0451  0.1010 -0.4418
   69MOL0     N 9197   3.385   3.048   4.457 -1.1815 -0.0238  0.4150
   69MOL0     C 9198   3.331   3.031   4.582 -0.3407 -0.0188  0.4684
   69MOL0     C 9199   3.229   3.117   4.598  0.1626 -0.0782  0.1560
   69MOL0     C 9200   3.167   3.154   4.724 -0.2369  0.1407 -0.0383
   69MOL0     C 9201   3.021   3.129   4.742  0.2895 -0.3136 -0.3704
   69MOL0     C 9202   2.988   3.157   4.888  0.3058  0.2664  0.5039
   69MOL0     C 9203   2.837   3.154   4.892 -0.2481  0.0270  0.8929
   69MOL0     O 9204   2.796   3.173   5.030  0.1386 -0.2094  0.1828
   69MOL0     C 9205   2.664   3.209   5.054 -0.0761 -0.5912 -0.4601
   69MOL0     C 9206   2.560   3.202   4.967 -0.2370  0.5016 -0.9172
   69MOL0     C 9207   2.438   3.270   4.990  0.4021  0.2730  0.1217
   69MOL0     C 9208   2.340   3.268   4.881 -0.1052 -0.2917  0.1714
   69MOL0     C 9209   2.423   3.344   5.106  0.9384 -0.0374 -0.4507
   69MOL0     C 9210   2.295   3.407   5.159  0.2766 -0.0465  0.2356
   69MOL0     O 9211   2.300   3.509   5.255 -1.1868  0.0424 -0.5617
   69MOL0     C 9212   2.186   3.571   5.292 -0.1703  0.1115  0.1042
   69MOL0     C 9213   2.079   3.502   5.348  0.1903  0.4415 -0.3713
   69MOL0     C 9214   1.970   3.572   5.395  0.2117 -0.0797 -0.2942
   69MOL0     C 9215   1.958   3.707   5.381  0.3684  0.0600 -0.4286
   69MOL0     O 9216   1.849   3.778   5.419 -0.1838  0.1170  0.1570
   69MOL0     C 9217   1.818   3.911   5.372  0.3107 -0.1945  0.1919
   69MOL0     C 9218   1.672   3.956   5.407 -0.2669  0.3088 -0.1824
   69MOL0     C 9219   1.645   3.931   5.557 -0.9158 -0.2219 -0.1527
   69MOL0     C 9220   1.546   4.019   5.622 -0.3943 -0.0707 -0.3640
   69MOL0     C 9221   1.403   4.020   5.561 -0.3274 -0.3899 -0.4927
   69MOL0     C 9222   1.312   4.094   5.651 -0.7644  0.0626  0.4026
   69MOL0     C 9223   1.169   4.114   5.595 -0.6668  1.2917  0.2096
   69MOL0     C 9224   1.097   4.202   5.698  0.3362  0.2732  0.7058
   69MOL0    Cl 9225   0.964   4.285   5.602 -0.4315  0.3949  0.2289
   69MOL0     C 9226   2.067   3.783   5.331 -0.4192  0.0746 -0.5626
   69MOL0     C 9227   2.180   3.712   5.290  0.2983  0.2953  0.2329
   69MOL0     O 9228   2.193   3.369   5.105  0.2340 -0.2688 -0.5691
   69MOL0     C 9229   2.522   3.337   5.203  0.2009  0.1991 -0.2302
   69MOL0     C 9230   2.646   3.285   5.169 -0.2248 -0.7097 -0.1651
   69MOL0     N 9231   3.202   3.175   4.475 -0.4909  0.7608 -0.0717
   69MOL0     N 9232   3.295   3.125   4.397 -0.4257 -0.6664 -0.5290
   69MOL0     C 9233   4.645   2.831   4.439 -0.7821  0.7219  0.5615
   69MOL0     C 9234   4.780   2.829   4.447 -0.0396 -0.0681 -0.3253
   69MOL0     C 9235   5.236   2.905   4.365  0.5747  0.7655 -0.2003
   69MOL0     C 9236   5.348   2.984   4.343 -0.4009 -0.4329 -0.1345
   69MOL0     C 9237   5.478   2.949   4.381 -0.0319  0.0745 -0.1150
   69MOL0     C 9238   5.496   2.811   4.417 -1.0651 -0.2915  0.3550
   69MOL0     O 9239   5.624   2.781   4.453  0.5218  0.2283 -0.4411
   69MOL0     C 9240   5.707   2.716   4.346  0.0618 -0.4880 -1.0691
   69MOL0     C 9241   5.846   2.760   4.352  0.3081  0.1542  0.3327
   69MOL0     C 9242   5.856   2.913   4.331 -0.8479 -0.3421  0.4176
   69MOL0     C 9243   5.997   2.949   4.287  0.6561 -0.4870  0.6519
   69MOL0     C 9244   6.012   3.092   4.255  1.0339  0.4986  0.1248
   69MOL0     C 9245   6.023   3.207   4.215  1.0403 -0.3112 -1.0312
   69MOL0     C 9246   5.395   2.720   4.406  0.2939  0.8205 -0.6837
   69MOL0     C 9247   5.267   2.767   4.388 -0.5022 -0.3331  0.5023
   69MOL0     H 9248   4.863   3.079   4.231  1.0826 -0.4414  0.6460
   69MOL0     H 9249   4.620   3.104   4.237  1.5235 -1.2762 -1.5026
   69MOL0     H 9250   4.389   2.776   4.300  4.0514  2.2735 -0.6869
   69MOL0     H 9251   4.345   2.797   4.468 -0.3159 -0.2659 -1.1018
   69MOL0     H 9252   4.230   2.966   4.242  3.1294 -2.3484 -1.8399
   69MOL0     H 9253   4.168   2.807   4.275  0.0477  0.1446 -0.4503
   69MOL0     H 9254   4.125   2.849   4.517 -0.3805 -1.1168 -1.2308
   69MOL0     H 9255   4.159   3.018   4.495 -0.7132  0.0210  0.3796
   69MOL0     H 9256   4.003   3.021   4.304  0.6618 -0.7313 -0.1138
   69MOL0     H 9257   3.957   2.854   4.344  1.5809 -1.4361  0.7832
   69MOL0     H 9258   3.890   2.947   4.575  0.1751 -1.7957 -0.9416
   69MOL0     H 9259   3.911   3.102   4.490  2.5595 -1.0792 -0.2782
   69MOL0     H 9260   3.752   2.996   4.302  0.6193  1.9350  0.5872
   69MOL0     H 9261   3.738   2.873   4.428 -0.3129 -0.0888  0.2899
   69MOL0     H 9262   3.641   3.029   4.583 -0.3130  0.5495 -0.4326
   69MOL0     H 9263   3.633   3.154   4.456 -3.5515  0.1339  2.1126
   69MOL0     H 9264   3.513   2.881   4.423  0.7319 -0.0439 -1.3628
   69MOL0     H 9265   3.511   3.000   4.295  2.2837 -2.4782 -0.8074
   69MOL0     H 9266   3.363   2.973   4.668 -1.4149  0.2327  1.0515
   69MOL0     H 9267   3.220   3.088   4.793  5.0225  1.6136 -2.1301
   69MOL0     H 9268   3.200   3.257   4.741 -0.5947  0.6761 -2.2297
   69MOL0     H 9269   3.004   3.029   4.701  0.4822  0.6934 -3.0930
   69MOL0     H 9270   2.968   3.189   4.669  0.4199 -1.5686 -1.5380
   69MOL0     H 9271   3.031   3.252   4.921 -1.5388  0.6101  2.0951
   69MOL0     H 9272   3.030   3.073   4.945  1.8626 -1.9227 -3.4434
   69MOL0     H 9273   2.799   3.053   4.870  0.5818 -0.0993 -0.0138
   69MOL0     H 9274   2.798   3.221   4.815  2.5828  0.0559 -0.6368
   69MOL0     H 9275   2.577   3.145   4.876 -0.1312 -3.1271  1.1937
   69MOL0     H 9276   2.242   3.228   4.909 -0.4566  2.6257  3.8196
   69MOL0     H 9277   2.331   3.365   4.833  0.5093  0.9988  2.5198
   69MOL0     H 9278   2.384   3.211   4.799  0.7255  0.4942  0.0562
   69MOL0     H 9279   2.080   3.395   5.362 -0.0475  0.5203  0.3110
   69MOL0     H 9280   1.885   3.535   5.451  0.4701  1.8481  1.4996
   69MOL0     H 9281   1.884   3.986   5.418  1.0997 -0.6934 -0.1104
   69MOL0     H 9282   1.827   3.910   5.263 -1.1893 -1.7382  0.0395
   69MOL0     H 9283   1.655   4.059   5.376 -0.7593 -0.1228 -1.4303
   69MOL0     H 9284   1.609   3.885   5.353  0.8474 -1.6153  0.9418
   69MOL0     H 9285   1.734   3.938   5.621  0.0532  1.5273 -1.6128
   69MOL0     H 9286   1.612   3.827   5.571 -0.3998 -0.3703 -0.0347
   69MOL0     H 9287   1.531   3.984   5.725  1.3013 -0.1344 -0.1039
   69MOL0     H 9288   1.583   4.122   5.616  3.8042 -1.2179  1.7137
   69MOL0     H 9289   1.367   3.920   5.537 -1.6085 -0.2936  0.9175
   69MOL0     H 9290   1.405   4.074   5.465 -0.0855 -0.7265 -0.6793
   69MOL0     H 9291   1.314   4.031   5.740  2.1686 -0.1099  0.2932
   69MOL0     H 9292   1.351   4.195   5.668  0.5126 -0.6408  1.8415
   69MOL0     H 9293   1.129   4.016   5.568  1.0847  0.2151  1.3294
   69MOL0     H 9294   1.181   4.178   5.507  1.9915  0.0423 -0.4535
   69MOL0     H 9295   1.165   4.274   5.745 -1.6623  0.5404  3.4761
   69MOL0     H 9296   1.053   4.134   5.772 -2.8111 -1.9117 -2.7870
   69MOL0     H 9297   2.050   3.890   5.333 -2.2877 -0.1749  2.0695
   69MOL0     H 9298   2.258   3.771   5.242 -0.6065 -0.2008 -1.9747
   69MOL0     H 9299   2.511   3.379   5.302  0.6944  2.6617 -1.1519
   69MOL0     H 9300   2.731   3.285   5.236  0.4772  1.6640 -0.9426
   69MOL0     H 9301   4.592   2.753   4.493  1.5118 -1.3861 -0.0398
   69MOL0     H 9302   4.824   2.748   4.503  0.2589 -1.2768 -2.2010
   69MOL0     H 9303   5.332   3.084   4.304 -0.1585 -1.1155 -2.0561
   69MOL0     H 9304   5.560   3.019   4.375  1.0652 -1.3106 -3.1955
   69MOL0     H 9305   5.691   2.610   4.366 -2.8627  0.0223 -0.1039
   69MOL0     H 9306   5.664   2.738   4.247 -2.2709 -3.4091 -0.8360
   69MOL0     H 9307   5.894   2.707   4.270 -1.0948 -1.6944  0.6543
   69MOL0     H 9308   5.896   2.730   4.445  2.9946 -0.3950 -1.1774
   69MOL0     H 9309   5.821   2.966   4.421  1.4790 -0.3883  1.4297
   69MOL0     H 9310   5.786   2.935   4.249 -0.7784 -3.6599 -0.6740
   69MOL0     H 9311   6.031   2.886   4.205 -0.7295  1.2605 -1.3750
   69MOL0     H 9312   6.080   2.924   4.353 -1.1544 -0.7744  2.9313
   69MOL0     H 9313   6.009   3.308   4.182 -2.9331 -0.2486  0.3210
   69MOL0     H 9314   5.427   2.621   4.438 -0.4855  1.3704  2.1003
   69MOL0     H 9315   5.181   2.700   4.386 -0.2653 -0.6253 -0.1215
   70MOL0     O 9316  10.851   2.354   1.634  0.3327 -0.5030  0.2986
   70MOL0     C 9317  10.922   2.392   1.541  0.4789 -0.0966  0.5872
   70MOL0     O 9318  10.868   2.428   1.422  0.1189 -0.8406 -0.5688
   70MOL0     C 9319  10.734   2.438   1.402  0.2326 -0.2289  0.4175
   70MOL0     C 9320  10.685   2.573   1.420  0.2153  0.3621  0.0633
   70MOL0     C 9321  10.547   2.594   1.395 -0.9984 -0.4599  0.8237
   70MOL0     C 9322  10.466   2.486   1.345 -0.5809 -1.6331  0.2291
   70MOL0     O 9323  10.333   2.489   1.305  0.2064  1.1881 -0.9807
   70MOL0     C 9324  10.250   2.606   1.326  0.5924  0.2136  0.0956
   70MOL0     C 9325  10.114   2.594   1.253 -1.0283  0.3839  0.2848
   70MOL0     C 9326  10.016   2.694   1.314  0.8336  0.5242  0.0464
   70MOL0     C 9327   9.879   2.655   1.255  0.2982  0.3132  0.3189
   70MOL0     C 9328   9.776   2.761   1.292 -0.4281 -0.2524  0.8744
   70MOL0     C 9329   9.651   2.764   1.201 -0.4452 -0.7070 -0.2101
   70MOL0     C 9330   9.550   2.871   1.244 -0.4387  0.3144 -0.2981
   70MOL0     C 9331   9.483   2.824   1.374  0.0649  0.3324  0.1950
   70MOL0     N 9332   9.369   2.913   1.404 -0.1639  0.0182  0.9339
   70MOL0     C 9333   9.259   2.917   1.323  0.7676 -0.2172  0.5426
   70MOL0     C 9334   9.185   3.019   1.372 -0.1815 -0.4067 -0.2461
   70MOL0     C 9335   9.064   3.081   1.306 -0.7453  0.0209 -0.1729
   70MOL0     C 9336   8.941   3.117   1.397  0.1815 -0.1505  0.0044
   70MOL0     C 9337   8.962   3.235   1.484  0.2113  0.0757  0.1053
   70MOL0     C 9338   8.839   3.283   1.574  0.4309  0.5965  0.6435
   70MOL0     O 9339   8.749   3.358   1.493  0.6264 -0.0937  0.0411
   70MOL0     C 9340   8.622   3.365   1.535  0.2854 -0.6753 -0.1699
   70MOL0     C 9341   8.532   3.375   1.438 -0.3587 -0.2684  0.7080
   70MOL0     C 9342   8.389   3.360   1.453  0.1556 -0.8609 -0.3923
   70MOL0     C 9343   8.316   3.355   1.322  0.0618 -1.0967  0.0780
   70MOL0     C 9344   8.332   3.321   1.578  0.6078 -0.2602 -1.3710
   70MOL0     C 9345   8.193   3.288   1.613  0.2019  0.0104 -0.0617
   70MOL0     O 9346   8.173   3.208   1.716  0.0173 -0.6869 -1.2103
   70MOL0     C 9347   8.046   3.182   1.763  0.1684 -0.0215  0.1666
   70MOL0     C 9348   7.981   3.053   1.754  0.1057  0.5024  0.1829
   70MOL0     C 9349   7.847   3.031   1.796 -0.3912 -0.3262 -0.3015
   70MOL0     C 9350   7.774   3.140   1.857 -0.1509 -1.2658 -0.8250
   70MOL0     O 9351   7.645   3.110   1.889  0.1631 -0.6051 -0.3108
   70MOL0     C 9352   7.550   3.211   1.907 -0.6898  0.1692  0.1245
   70MOL0     C 9353   7.410   3.160   1.888  0.0431  0.8144 -0.5175
   70MOL0     C 9354   7.302   3.246   1.961 -0.7688  0.0558  0.2358
   70MOL0     C 9355   7.174   3.162   1.953  1.0746 -0.4005  0.1077
   70MOL0     C 9356   7.067   3.233   2.038  0.0559  0.6778  0.1000
   70MOL0     C 9357   6.941   3.151   2.075  0.2177  0.2137 -0.4204
   70MOL0     C 9358   6.865   3.077   1.960  0.3602 -0.2616 -0.3999
   70MOL0     C 9359   6.817   3.147   1.840 -0.1280 -0.0634  1.4273
   70MOL0    Cl 9360   6.683   3.260   1.869  0.3400 -0.0732  0.0068
   70MOL0     C 9361   7.842   3.265   1.877  0.2004 -0.7308  0.6331
   70MOL0     C 9362   7.971   3.284   1.825  0.0893  0.9292  0.5733
   70MOL0     O 9363   8.106   3.329   1.540 -0.1871 -0.3009  0.0099
   70MOL0     C 9364   8.427   3.315   1.683  0.4342 -0.3181  0.0466
   70MOL0     C 9365   8.566   3.337   1.663  0.2671 -0.9767 -0.9562
   70MOL0     N 9366   9.238   3.047   1.493  0.0553 -0.3060  0.1769
   70MOL0     N 9367   9.346   2.982   1.513 -0.2271 -0.4584 -0.3392
   70MOL0     C 9368  10.518   2.361   1.344  0.1931  0.3316  0.2805
   70MOL0     C 9369  10.654   2.335   1.361  0.5393 -0.2423 -0.3235
   70MOL0     C 9370  11.072   2.404   1.551  0.0751  0.2992  0.4375
   70MOL0     C 9371  11.144   2.482   1.464 -0.4438 -0.3251  0.6485
   70MOL0     C 9372  11.283   2.497   1.477 -0.1668  0.4714  0.7484
   70MOL0     C 9373  11.349   2.415   1.573  0.3959  0.4101  0.1929
   70MOL0     O 9374  11.489   2.418   1.563 -0.0857  0.0491  0.3439
   70MOL0     C 9375  11.558   2.378   1.681  0.1237 -0.4879  0.4226
   70MOL0     C 9376  11.700   2.433   1.651  0.2536  1.0591  0.5571
   70MOL0     C 9377  11.788   2.407   1.772 -1.4743  0.2106 -0.4658
   70MOL0     C 9378  11.921   2.492   1.783 -0.2276  0.1591  1.0531
   70MOL0     C 9379  12.007   2.482   1.910 -0.1816  0.3820  0.5626
   70MOL0     C 9380  12.075   2.480   2.013  0.0983 -0.5582 -0.0552
   70MOL0     C 9381  11.279   2.323   1.656  0.5522 -0.3242  0.0250
   70MOL0     C 9382  11.140   2.322   1.642 -0.4781  0.5267 -0.7274
   70MOL0     H 9383  10.755   2.651   1.448  0.1178  0.1961  0.7883
   70MOL0     H 9384  10.505   2.693   1.407 -1.0354 -0.3511 -0.0842
   70MOL0     H 9385  10.232   2.618   1.434  5.6145  0.1891  1.1692
   70MOL0     H 9386  10.313   2.691   1.299 -1.1096  1.4189 -0.2537
   70MOL0     H 9387  10.124   2.602   1.144  1.7452 -0.8034  0.3660
   70MOL0     H 9388  10.081   2.490   1.261 -0.3975  0.2098  0.6811
   70MOL0     H 9389  10.008   2.674   1.422 -1.2545  0.3802 -0.1021
   70MOL0     H 9390  10.055   2.794   1.296 -0.5648  1.2483  0.8616
   70MOL0     H 9391   9.882   2.668   1.146  0.9136 -0.2831  0.2563
   70MOL0     H 9392   9.847   2.554   1.280  1.8909 -0.2932  0.0573
   70MOL0     H 9393   9.753   2.738   1.396  1.0786 -0.8758  1.1030
   70MOL0     H 9394   9.829   2.856   1.276  1.5481 -1.8052 -3.2288
   70MOL0     H 9395   9.663   2.786   1.095  0.3725 -1.7750 -0.3587
   70MOL0     H 9396   9.609   2.663   1.204  0.4875 -1.1153 -0.5441
   70MOL0     H 9397   9.597   2.969   1.258  2.6665 -0.5335 -3.3809
   70MOL0     H 9398   9.471   2.872   1.170 -1.8200 -3.6193  0.8766
   70MOL0     H 9399   9.552   2.832   1.459 -0.2532  2.2066  0.3254
   70MOL0     H 9400   9.448   2.720   1.374 -0.8015  0.4827  3.5779
   70MOL0     H 9401   9.255   2.883   1.220 -1.1193 -0.7118  0.7575
   70MOL0     H 9402   9.105   3.175   1.267  0.4886 -0.5265 -0.2185
   70MOL0     H 9403   9.024   3.021   1.225 -2.4135  1.1922 -0.2684
   70MOL0     H 9404   8.919   3.028   1.457 -2.0266 -0.0703 -0.6048
   70MOL0     H 9405   8.857   3.129   1.328 -2.0062 -1.8795  2.1747
   70MOL0     H 9406   8.995   3.320   1.424  0.9042 -0.4082 -0.2074
   70MOL0     H 9407   9.037   3.202   1.556 -0.6238 -2.2409  0.0097
   70MOL0     H 9408   8.865   3.345   1.661 -3.4446  1.8060  1.1403
   70MOL0     H 9409   8.780   3.199   1.611  1.5974 -1.2255 -1.4175
   70MOL0     H 9410   8.569   3.390   1.337  0.8305  1.0155  1.3024
   70MOL0     H 9411   8.378   3.325   1.238 -1.3877 -0.1821 -1.3725
   70MOL0     H 9412   8.240   3.277   1.327  1.4977 -2.5420  0.2935
   70MOL0     H 9413   8.274   3.455   1.309  1.4262 -0.2231  1.8420
   70MOL0     H 9414   8.020   2.965   1.705  0.3659 -0.9120  2.7379
   70MOL0     H 9415   7.814   2.928   1.801  1.6716 -0.9795  2.4018
   70MOL0     H 9416   7.560   3.263   2.003  2.0442 -2.0967  1.1822
   70MOL0     H 9417   7.562   3.285   1.827  2.4025 -0.2208  0.1069
   70MOL0     H 9418   7.398   3.152   1.780  1.6872  2.2325 -0.8428
   70MOL0     H 9419   7.398   3.059   1.930  1.6467  1.4404  1.5917
   70MOL0     H 9420   7.289   3.343   1.913  0.6149 -0.7484 -1.9539
   70MOL0     H 9421   7.337   3.260   2.063 -0.1610 -0.5272  0.1178
   70MOL0     H 9422   7.141   3.158   1.849 -2.5294  1.2773  1.0173
   70MOL0     H 9423   7.184   3.062   1.997 -3.5383 -0.4774  1.5370
   70MOL0     H 9424   7.054   3.334   1.997 -1.6268  0.3256 -0.3034
   70MOL0     H 9425   7.118   3.260   2.131  3.3109  0.1061 -1.3601
   70MOL0     H 9426   6.966   3.069   2.143  1.8606 -1.4834 -2.9082
   70MOL0     H 9427   6.867   3.215   2.125 -1.2850 -0.7057 -1.3735
   70MOL0     H 9428   6.779   3.023   2.000 -0.1450  1.3881  0.8509
   70MOL0     H 9429   6.929   2.993   1.931  2.5110  0.2520  2.3936
   70MOL0     H 9430   6.778   3.073   1.771  1.6611  0.3239 -0.0668
   70MOL0     H 9431   6.903   3.178   1.780 -0.8570 -4.1941 -2.2625
   70MOL0     H 9432   7.791   3.354   1.913 -0.2383 -1.6251  2.3173
   70MOL0     H 9433   8.017   3.382   1.835 -1.7965  1.9271 -0.0967
   70MOL0     H 9434   8.389   3.285   1.780 -2.0562 -1.8696 -1.2773
   70MOL0     H 9435   8.635   3.326   1.747 -2.4170  2.2363  2.0237
   70MOL0     H 9436  10.451   2.280   1.317  1.1010 -1.2171  2.3296
   70MOL0     H 9437  10.699   2.237   1.348 -2.9497 -1.9840 -0.3114
   70MOL0     H 9438  11.110   2.531   1.373  2.3424  0.5145 -0.0344
   70MOL0     H 9439  11.333   2.557   1.403 -0.4783 -0.9633 -0.7042
   70MOL0     H 9440  11.520   2.438   1.765 -2.4892  3.2627 -3.0436
   70MOL0     H 9441  11.549   2.269   1.690 -1.3457 -0.8606 -3.6887
   70MOL0     H 9442  11.683   2.540   1.642 -2.6861  0.5729 -0.5785
   70MOL0     H 9443  11.748   2.395   1.560 -1.6268  1.4921 -0.6581
   70MOL0     H 9444  11.811   2.301   1.787 -2.2820  0.0448 -0.3132
   70MOL0     H 9445  11.745   2.431   1.870  1.4436  2.8575  0.3115
   70MOL0     H 9446  11.900   2.599   1.777  0.6798  0.2541 -2.0873
   70MOL0     H 9447  11.978   2.461   1.695 -2.2094 -3.6330  0.8520
   70MOL0     H 9448  12.136   2.463   2.100  0.7429  0.2202 -0.3440
   70MOL0     H 9449  11.332   2.256   1.722  0.6612  0.2574  0.5406
   70MOL0     H 9450  11.077   2.253   1.698 -0.8913  1.2028 -0.3523
   71MOL0     O 9451   1.928   1.214   8.429 -0.1826  0.1545 -0.1135
   71MOL0     C 9452   1.899   1.167   8.537 -0.0692 -0.5736  0.0388
   71MOL0     O 9453   1.800   1.083   8.559  0.4147  0.4728 -0.2967
   71MOL0     C 9454   1.705   1.061   8.467 -0.4967  0.2632  0.4718
   71MOL0     C 9455   1.584   1.134   8.470  0.1213 -1.0562 -0.5643
   71MOL0     C 9456   1.485   1.107   8.381  0.1057  0.1079  0.3581
   71MOL0     C 9457   1.505   1.011   8.282 -0.3527  1.3349 -0.7055
   71MOL0     O 9458   1.414   0.972   8.187 -0.5858  0.0345 -0.8781
   71MOL0     C 9459   1.281   1.012   8.210 -1.5036 -0.8991  0.9116
   71MOL0     C 9460   1.194   0.950   8.095  0.2014  0.1708  1.2910
   71MOL0     C 9461   1.051   1.014   8.071  0.2542  0.3564  0.1493
   71MOL0     C 9462   0.968   0.911   7.991  0.3178 -0.0924 -0.1133
   71MOL0     C 9463   0.815   0.945   7.992  0.1417  0.6200  0.8711
   71MOL0     C 9464   0.779   1.056   7.891  0.2958 -0.3241  0.7050
   71MOL0     C 9465   0.627   1.094   7.908 -0.2727  0.4200  0.3917
   71MOL0     C 9466   0.537   0.975   7.856 -0.2402  0.1391  0.4897
   71MOL0     N 9467   0.407   1.030   7.872  0.7180  0.3254  0.7972
   71MOL0     C 9468   0.325   1.006   7.970 -0.3948 -1.1633  0.8862
   71MOL0     C 9469   0.206   1.053   7.926 -0.7491 -0.0655 -0.5401
   71MOL0     C 9470   0.088   1.047   8.013  0.6284 -0.3502 -0.0660
   71MOL0     C 9471   0.055   0.903   8.056  0.2113  1.3425 -0.2943
   71MOL0     C 9472  -0.090   0.870   8.081 -0.4641  1.2085  0.7950
   71MOL0     C 9473  -0.160   0.935   8.199 -0.0021  0.2788 -0.1966
   71MOL0     O 9474  -0.294   0.890   8.232  0.4063 -0.1007 -0.1606
   71MOL0     C 9475  -0.409   0.954   8.186  0.1315  0.5259  0.1443
   71MOL0     C 9476  -0.406   1.042   8.074  0.3458  0.2696 -0.4382
   71MOL0     C 9477  -0.530   1.097   8.029 -0.1215 -0.0818 -0.1759
   71MOL0     C 9478  -0.514   1.185   7.904  1.0512  0.5456  0.7529
   71MOL0     C 9479  -0.649   1.066   8.099  0.6178 -0.8753 -0.6845
   71MOL0     C 9480  -0.780   1.123   8.057  0.0458 -0.9532 -0.5646
   71MOL0     O 9481  -0.874   1.130   8.160 -0.3792  0.2923  0.2834
   71MOL0     C 9482  -1.002   1.151   8.129  0.8195 -1.3379 -0.3587
   71MOL0     C 9483  -1.066   1.244   8.215  0.1522  0.6316  0.5487
   71MOL0     C 9484  -1.205   1.271   8.190  0.2753  0.0469  0.8384
   71MOL0     C 9485  -1.280   1.210   8.084 -0.9059 -1.0417  0.8785
   71MOL0     O 9486  -1.409   1.233   8.045 -0.2217  0.0270 -0.2802
   71MOL0     C 9487  -1.457   1.355   8.087  0.3617  0.0911  0.1286
   71MOL0     C 9488  -1.586   1.387   8.015 -0.1939  0.9533 -0.0371
   71MOL0     C 9489  -1.709   1.307   8.041 -0.5586 -0.1211 -0.1643
   71MOL0     C 9490  -1.826   1.356   7.952  0.5494 -0.0968 -0.5806
   71MOL0     C 9491  -1.957   1.296   7.999  0.5037  0.6386  0.5841
   71MOL0     C 9492  -2.076   1.306   7.896 -0.8596 -0.4613 -0.5046
   71MOL0     C 9493  -2.132   1.447   7.900  0.0903 -0.5617  0.3748
   71MOL0     C 9494  -2.230   1.472   7.776  0.2571  0.6211  0.0669
   71MOL0    Cl 9495  -2.336   1.334   7.729 -0.1220  0.0094 -0.7450
   71MOL0     C 9496  -1.210   1.121   7.997 -0.1602 -0.2496 -0.5204
   71MOL0     C 9497  -1.070   1.094   8.019  0.0300  1.0326 -0.3547
   71MOL0     O 9498  -0.798   1.161   7.942  0.6947  0.7803  0.1393
   71MOL0     C 9499  -0.650   0.976   8.206 -0.3950 -0.4814  0.7947
   71MOL0     C 9500  -0.535   0.916   8.240  0.2042  0.4863  0.4106
   71MOL0     N 9501   0.219   1.106   7.798  0.7561  0.1185  0.3671
   71MOL0     N 9502   0.339   1.083   7.774  0.1422  0.1239  0.6836
   71MOL0     C 9503   1.622   0.940   8.282 -0.0899  0.0685  0.1081
   71MOL0     C 9504   1.726   0.964   8.368  0.3029 -0.0792 -1.0582
   71MOL0     C 9505   2.009   1.171   8.624  1.0358 -0.3461  0.3917
   71MOL0     C 9506   2.009   1.080   8.727  1.0260  0.3419  0.4820
   71MOL0     C 9507   2.117   1.076   8.816 -0.0900  0.4436 -0.1412
   71MOL0     C 9508   2.230   1.161   8.803 -0.8915  0.3062  1.3768
   71MOL0     O 9509   2.335   1.168   8.890  0.3831  0.1450  0.3140
   71MOL0     C 9510   2.352   1.077   8.994 -0.0615  0.3405  0.3152
   71MOL0     C 9511   2.453   1.140   9.094 -0.1650 -0.4974  0.0763
   71MOL0     C 9512   2.473   1.037   9.209 -0.1559  0.1760  0.0852
   71MOL0     C 9513   2.568   1.085   9.314 -0.2669 -0.5717 -0.2233
   71MOL0     C 9514   2.599   0.977   9.408  0.3284  0.1414 -0.1951
   71MOL0     C 9515   2.628   0.872   9.465  0.0701 -0.1245 -0.2923
   71MOL0     C 9516   2.223   1.262   8.698  0.2407  0.2722 -1.0162
   71MOL0     C 9517   2.110   1.267   8.620  0.3267 -0.5387  0.2773
   71MOL0     H 9518   1.558   1.206   8.548  2.4231 -1.4933  0.7030
   71MOL0     H 9519   1.390   1.159   8.383 -0.5886 -0.9228 -2.0388
   71MOL0     H 9520   1.255   0.969   8.307  0.1117 -1.3792  1.1588
   71MOL0     H 9521   1.273   1.121   8.211  0.2109 -0.7066 -0.6629
   71MOL0     H 9522   1.249   0.966   8.001  1.0774 -2.1662  1.3437
   71MOL0     H 9523   1.181   0.845   8.122 -2.1190  0.8587  3.1737
   71MOL0     H 9524   0.988   1.056   8.150 -0.1007  2.5250 -1.2171
   71MOL0     H 9525   1.069   1.096   8.001  1.4052  0.3125  0.3683
   71MOL0     H 9526   1.002   0.908   7.888 -1.2453  0.8642 -0.7011
   71MOL0     H 9527   0.972   0.815   8.044 -3.5051  1.0176  2.6983
   71MOL0     H 9528   0.758   0.854   7.969 -1.5240  1.9092 -0.3905
   71MOL0     H 9529   0.781   0.970   8.093 -0.0970 -0.2500  1.0161
   71MOL0     H 9530   0.832   1.152   7.902 -0.9287  0.2931  1.3910
   71MOL0     H 9531   0.793   1.016   7.790 -0.5442  0.6706  0.1637
   71MOL0     H 9532   0.599   1.117   8.011 -2.3633 -1.3764  0.2855
   71MOL0     H 9533   0.614   1.189   7.855  1.1732  0.3880 -0.0763
   71MOL0     H 9534   0.549   0.879   7.907  1.1028 -1.5355 -2.6893
   71MOL0     H 9535   0.558   0.955   7.750  0.9838  0.6661  0.6065
   71MOL0     H 9536   0.347   0.942   8.054 -2.2981 -1.8351  0.9038
   71MOL0     H 9537   0.111   1.105   8.103 -1.2993 -0.9153  0.8356
   71MOL0     H 9538  -0.001   1.086   7.962 -0.4125 -4.8988 -2.1780
   71MOL0     H 9539   0.105   0.874   8.148 -3.6465  1.5195  2.0493
   71MOL0     H 9540   0.101   0.835   7.984 -2.3429  1.0306 -1.7286
   71MOL0     H 9541  -0.089   0.762   8.100  0.5269  1.1223  0.3194
   71MOL0     H 9542  -0.143   0.891   7.988  0.6969 -0.1318 -0.2215
   71MOL0     H 9543  -0.150   1.043   8.183  2.4257 -0.0128 -0.9848
   71MOL0     H 9544  -0.096   0.899   8.279  1.2691 -2.1816 -2.1873
   71MOL0     H 9545  -0.311   1.069   8.030  1.4470  0.1144  1.7201
   71MOL0     H 9546  -0.558   1.282   7.930 -2.4282 -0.3569 -1.1091
   71MOL0     H 9547  -0.408   1.205   7.884  0.9455  0.2157 -0.1616
   71MOL0     H 9548  -0.574   1.142   7.823 -0.0136  0.0248  1.7899
   71MOL0     H 9549  -1.014   1.278   8.303 -1.2885 -2.0871  2.6011
   71MOL0     H 9550  -1.261   1.344   8.249 -2.4589  0.5784 -2.1175
   71MOL0     H 9551  -1.475   1.363   8.195  2.7981  1.4239  0.4833
   71MOL0     H 9552  -1.393   1.435   8.052 -0.7744 -0.1491 -2.7263
   71MOL0     H 9553  -1.606   1.493   8.034  1.5452  1.7399 -2.2398
   71MOL0     H 9554  -1.566   1.364   7.910 -2.3211 -4.0353  0.3654
   71MOL0     H 9555  -1.730   1.318   8.148 -0.8684  0.3780 -0.2716
   71MOL0     H 9556  -1.697   1.200   8.020  0.5757  0.2875 -1.7917
   71MOL0     H 9557  -1.831   1.465   7.962  0.5496  0.0294 -1.7715
   71MOL0     H 9558  -1.803   1.345   7.846 -0.2634 -0.8222 -0.6961
   71MOL0     H 9559  -1.991   1.338   8.095 -1.4538 -1.1180  0.7334
   71MOL0     H 9560  -1.940   1.188   8.010 -2.2175 -0.0064 -0.6648
   71MOL0     H 9561  -2.039   1.285   7.796 -0.3543 -0.2966 -0.3573
   71MOL0     H 9562  -2.149   1.228   7.918 -0.2121 -1.4409 -1.6996
   71MOL0     H 9563  -2.054   1.524   7.899 -0.1904 -0.2616 -1.1776
   71MOL0     H 9564  -2.194   1.464   7.989 -3.1233 -1.4685 -1.5066
   71MOL0     H 9565  -2.173   1.512   7.692  0.9686 -1.3631 -0.4604
   71MOL0     H 9566  -2.307   1.543   7.808 -0.0746  0.8810 -1.2415
   71MOL0     H 9567  -1.267   1.074   7.918 -3.0617 -0.6160  1.6331
   71MOL0     H 9568  -1.011   1.036   7.949 -0.0164  0.8526 -0.2434
   71MOL0     H 9569  -0.745   0.945   8.248 -0.8683  1.3160  1.1451
   71MOL0     H 9570  -0.531   0.831   8.307  0.6236 -0.2440 -0.5216
   71MOL0     H 9571   1.631   0.856   8.214 -1.5453  0.4473 -0.5761
   71MOL0     H 9572   1.807   0.892   8.361  0.9566  0.6870 -1.5780
   71MOL0     H 9573   1.923   1.015   8.738  1.3286 -0.6449 -2.1634
   71MOL0     H 9574   2.116   0.999   8.893 -0.3596  1.4904  0.9289
   71MOL0     H 9575   2.253   1.055   9.034 -1.4065  1.9009 -1.9054
   71MOL0     H 9576   2.379   0.979   8.954 -2.2388  0.0245 -0.4916
   71MOL0     H 9577   2.425   1.237   9.137  2.5939  1.3542 -1.9512
   71MOL0     H 9578   2.551   1.160   9.050 -0.0569  2.6767  1.4338
   71MOL0     H 9579   2.520   0.948   9.166  0.0047  0.1161  0.3788
   71MOL0     H 9580   2.382   1.005   9.260  1.7386 -1.7740  2.5191
   71MOL0     H 9581   2.537   1.167   9.379  0.4697 -0.5333  0.0988
   71MOL0     H 9582   2.660   1.119   9.265 -1.0010  1.3138 -0.3746
   71MOL0     H 9583   2.642   0.772   9.502 -1.5127 -1.1446 -2.2173
   71MOL0     H 9584   2.298   1.340   8.690 -0.5916  1.6029  2.5888
   71MOL0     H 9585   2.117   1.344   8.543 -1.9894 -0.0810  0.4453
   72MOL0     O 9586   5.379   8.358   4.822 -0.0619 -0.4043 -0.1887
   72MOL0     C 9587   5.388   8.246   4.874 -0.1738 -0.3024 -0.3860
   72MOL0     O 9588   5.302   8.206   4.976 -0.0201 -0.2720  0.7273
   72MOL0     C 9589   5.181   8.275   4.989 -0.9205 -0.6351  0.2073
   72MOL0     C 9590   5.180   8.412   5.014 -0.8798 -0.2605 -0.1094
   72MOL0     C 9591   5.063   8.489   4.998 -0.1856 -0.3509  0.7573
   72MOL0     C 9592   4.942   8.422   4.965  0.4853 -0.1658 -0.3438
   72MOL0     O 9593   4.825   8.477   4.937  0.0600 -0.3017 -0.2893
   72MOL0     C 9594   4.806   8.601   5.009  0.9146  0.3063 -0.1760
   72MOL0     C 9595   4.651   8.628   5.021 -0.1396  0.4154  0.7060
   72MOL0     C 9596   4.594   8.510   5.107 -0.1994 -0.0302 -0.9838
   72MOL0     C 9597   4.449   8.478   5.078  0.0189  0.2086  0.2139
   72MOL0     C 9598   4.386   8.382   5.182 -0.3007  0.5607  0.2096
   72MOL0     C 9599   4.250   8.348   5.145 -0.3912  0.1201  0.8583
   72MOL0     C 9600   4.177   8.266   5.257  0.4665 -0.8083  0.4102
   72MOL0     C 9601   4.037   8.217   5.208  0.1284 -0.1708  0.0871
   72MOL0     N 9602   3.938   8.319   5.163 -0.2701 -0.2164 -0.7177
   72MOL0     C 9603   3.827   8.312   5.085  0.0620  0.8173 -1.5695
   72MOL0     C 9604   3.747   8.412   5.122 -0.1259 -0.8970  0.8876
   72MOL0     C 9605   3.611   8.423   5.070  0.1202 -0.8401 -0.7163
   72MOL0     C 9606   3.603   8.494   4.941  0.4561  0.2400 -0.7915
   72MOL0     C 9607   3.661   8.421   4.822 -0.2076 -0.5141  0.8985
   72MOL0     C 9608   3.616   8.479   4.692  0.5984  0.4181 -0.4916
   72MOL0     O 9609   3.620   8.627   4.679  0.6382 -0.3585  0.0350
   72MOL0     C 9610   3.503   8.697   4.685 -0.4628  0.1606 -0.2073
   72MOL0     C 9611   3.372   8.644   4.695 -0.7622 -0.0584 -0.9459
   72MOL0     C 9612   3.261   8.734   4.707 -0.3166  0.5626  0.9986
   72MOL0     C 9613   3.131   8.662   4.698 -0.0244 -0.3738  0.3830
   72MOL0     C 9614   3.285   8.878   4.707  0.3080 -0.1392 -0.1937
   72MOL0     C 9615   3.171   8.973   4.713 -0.8249 -0.2957 -0.0259
   72MOL0     O 9616   3.046   8.931   4.719 -0.4410  0.6559  0.4268
   72MOL0     C 9617   2.943   9.021   4.718  0.1352 -0.2008  0.6575
   72MOL0     C 9618   2.890   9.087   4.826 -0.2156 -0.3535 -0.3241
   72MOL0     C 9619   2.771   9.166   4.821 -0.3148 -0.5695  0.5501
   72MOL0     C 9620   2.694   9.168   4.706 -0.4162 -0.9705 -0.4025
   72MOL0     O 9621   2.577   9.235   4.714  0.2336 -0.1595 -0.3488
   72MOL0     C 9622   2.467   9.209   4.631  0.3911 -1.2778  0.3662
   72MOL0     C 9623   2.331   9.291   4.659  0.2079 -0.0618 -0.1315
   72MOL0     C 9624   2.248   9.309   4.530  0.1961 -0.1803  0.6101
   72MOL0     C 9625   2.110   9.358   4.583 -0.0691  0.2362  0.1253
   72MOL0     C 9626   2.019   9.419   4.481  0.3057 -0.3957 -0.6582
   72MOL0     C 9627   1.877   9.463   4.544 -0.2795  0.2022  0.2810
   72MOL0     C 9628   1.789   9.533   4.439 -0.2408 -1.3267 -0.4543
   72MOL0     C 9629   1.648   9.563   4.499 -0.4285 -0.6358 -0.8363
   72MOL0    Cl 9630   1.560   9.694   4.416 -0.2655 -0.1217 -0.4549
   72MOL0     C 9631   2.744   9.098   4.596  0.3487  0.2258  0.1591
   72MOL0     C 9632   2.868   9.030   4.600 -0.2217  0.3867  0.1407
   72MOL0     O 9633   3.200   9.097   4.702 -0.5968 -0.2080 -0.1259
   72MOL0     C 9634   3.413   8.924   4.713 -0.0454 -0.0043 -0.1738
   72MOL0     C 9635   3.518   8.836   4.693  0.1090 -0.2109 -0.0572
   72MOL0     N 9636   3.812   8.488   5.215  0.9010 -0.2506 -0.3627
   72MOL0     N 9637   3.923   8.428   5.233 -0.3316  0.2835 -0.1003
   72MOL0     C 9638   4.943   8.276   4.948  0.5831 -0.0815  0.9131
   72MOL0     C 9639   5.060   8.209   4.969 -0.8722  1.3921 -0.1784
   72MOL0     C 9640   5.512   8.167   4.843  0.1861  0.8291  0.5575
   72MOL0     C 9641   5.543   8.056   4.916  0.0474 -0.6072 -0.6282
   72MOL0     C 9642   5.663   7.980   4.894  0.6021 -1.1355  0.2858
   72MOL0     C 9643   5.738   8.010   4.786 -0.2709 -0.5266 -0.1469
   72MOL0     O 9644   5.845   7.922   4.767 -0.1609 -0.2422 -0.5979
   72MOL0     C 9645   5.935   7.920   4.661  0.3365  0.2424 -0.5347
   72MOL0     C 9646   6.039   8.036   4.661  0.3752  0.4576 -0.4966
   72MOL0     C 9647   6.152   8.022   4.558 -0.5332  0.1484  0.4155
   72MOL0     C 9648   6.261   8.135   4.572 -0.0644 -0.3994  0.8378
   72MOL0     C 9649   6.395   8.084   4.526  0.0179 -0.1216 -1.2176
   72MOL0     C 9650   6.504   8.036   4.510 -0.2493 -0.0336 -0.2136
   72MOL0     C 9651   5.706   8.122   4.700  0.1588 -0.1580 -0.1548
   72MOL0     C 9652   5.593   8.196   4.734  0.2140 -0.3360  0.4461
   72MOL0     H 9653   5.275   8.458   5.041 -1.2964  0.2497  0.5113
   72MOL0     H 9654   5.071   8.594   5.023 -1.8443 -0.1396  0.5393
   72MOL0     H 9655   4.848   8.610   5.110  1.5764  2.4542 -0.5961
   72MOL0     H 9656   4.845   8.691   4.963  2.2715  0.7953  1.8047
   72MOL0     H 9657   4.646   8.723   5.074  1.1653  1.2799 -0.6146
   72MOL0     H 9658   4.600   8.636   4.924  2.0344 -2.1034 -0.8102
   72MOL0     H 9659   4.657   8.421   5.102  0.0053  0.1629 -1.8964
   72MOL0     H 9660   4.595   8.557   5.206 -1.9443  1.1485 -1.4951
   72MOL0     H 9661   4.393   8.572   5.075 -0.2414  0.0843  0.9653
   72MOL0     H 9662   4.440   8.443   4.975  1.9817  0.3128 -0.0403
   72MOL0     H 9663   4.439   8.291   5.213 -1.4115  0.4988  2.0900
   72MOL0     H 9664   4.380   8.435   5.278  1.2614 -0.8225  1.1351
   72MOL0     H 9665   4.188   8.435   5.119 -0.9134 -0.1291  1.2342
   72MOL0     H 9666   4.259   8.288   5.054  1.0201  3.0669 -1.0997
   72MOL0     H 9667   4.238   8.181   5.290  1.9899 -0.1998 -0.7052
   72MOL0     H 9668   4.166   8.334   5.342  0.0558 -1.8155  1.2010
   72MOL0     H 9669   3.995   8.154   5.287 -0.2765 -0.1208 -0.0855
   72MOL0     H 9670   4.057   8.162   5.116  0.2086  1.8649 -1.1793
   72MOL0     H 9671   3.807   8.239   5.007 -0.9476 -0.3651 -0.2564
   72MOL0     H 9672   3.571   8.323   5.053 -2.2641 -0.5146  2.0784
   72MOL0     H 9673   3.541   8.469   5.140  1.8159  0.2959  0.3051
   72MOL0     H 9674   3.641   8.596   4.948 -4.1473  2.1486  0.5978
   72MOL0     H 9675   3.495   8.512   4.932  0.7360  1.7174 -1.5194
   72MOL0     H 9676   3.634   8.315   4.824 -0.7801 -0.3953 -0.0635
   72MOL0     H 9677   3.770   8.428   4.828  0.2855 -3.6448 -1.6861
   72MOL0     H 9678   3.529   8.431   4.647  1.1423 -1.4416  0.3310
   72MOL0     H 9679   3.695   8.456   4.619  0.9020  0.6044 -0.2250
   72MOL0     H 9680   3.356   8.537   4.697 -1.2486 -0.1255 -3.9382
   72MOL0     H 9681   3.137   8.554   4.678 -0.5903 -0.1060 -1.4275
   72MOL0     H 9682   3.092   8.672   4.799  2.1353  0.2615  1.2018
   72MOL0     H 9683   3.065   8.695   4.617 -0.9301 -1.2281  0.7498
   72MOL0     H 9684   2.943   9.099   4.921 -0.5579  4.1190 -0.4722
   72MOL0     H 9685   2.743   9.217   4.913  3.3788  1.2300  0.8258
   72MOL0     H 9686   2.482   9.238   4.527 -3.0596 -0.3888  0.0024
   72MOL0     H 9687   2.441   9.104   4.645  2.0990 -1.5038  2.4710
   72MOL0     H 9688   2.280   9.242   4.742 -0.4457  2.2345  0.9133
   72MOL0     H 9689   2.363   9.391   4.691  1.2076 -0.3704 -0.1562
   72MOL0     H 9690   2.245   9.220   4.467 -2.3099 -2.0202  3.0668
   72MOL0     H 9691   2.286   9.394   4.472 -2.8332 -0.3886 -1.9917
   72MOL0     H 9692   2.062   9.269   4.625  0.3603 -0.5341 -0.9620
   72MOL0     H 9693   2.122   9.438   4.656 -1.0727  1.7826 -1.3227
   72MOL0     H 9694   1.994   9.348   4.402 -2.8344 -1.7587  1.3718
   72MOL0     H 9695   2.059   9.514   4.445 -0.8436  0.0548 -0.7978
   72MOL0     H 9696   1.816   9.391   4.600  0.3915  1.5223  2.8708
   72MOL0     H 9697   1.906   9.539   4.616 -0.6596  0.4680  0.1523
   72MOL0     H 9698   1.772   9.478   4.346  0.5097  0.6360 -1.8086
   72MOL0     H 9699   1.834   9.629   4.413  0.7267 -1.2020  1.4716
   72MOL0     H 9700   1.659   9.595   4.603 -0.4406  0.2370 -1.0935
   72MOL0     H 9701   1.582   9.478   4.518 -0.9072 -0.1695 -0.3725
   72MOL0     H 9702   2.680   9.090   4.509  0.8464 -1.6393 -0.0645
   72MOL0     H 9703   2.907   8.969   4.519  0.7456 -0.3554  1.1351
   72MOL0     H 9704   3.425   9.031   4.715  1.8873 -0.1832 -0.3693
   72MOL0     H 9705   3.614   8.886   4.682 -0.9832  2.1596  0.5588
   72MOL0     H 9706   4.846   8.227   4.947  1.3266 -1.5892  0.2364
   72MOL0     H 9707   5.062   8.100   4.977 -3.8700  1.0777 -2.0934
   72MOL0     H 9708   5.477   8.022   4.996  1.5309  0.0805  0.9458
   72MOL0     H 9709   5.696   7.894   4.952  0.4511 -1.7659 -0.5362
   72MOL0     H 9710   5.987   7.824   4.663  0.5679  0.3710 -0.3602
   72MOL0     H 9711   5.888   7.921   4.562  0.8754 -2.9337 -0.9348
   72MOL0     H 9712   6.086   8.050   4.758  0.8090  0.3521 -0.6902
   72MOL0     H 9713   5.984   8.127   4.637 -1.7974 -1.1834 -2.2441
   72MOL0     H 9714   6.118   8.013   4.455  1.6931  0.3680 -0.3997
   72MOL0     H 9715   6.210   7.932   4.580  3.3895  2.2874 -0.1058
   72MOL0     H 9716   6.262   8.187   4.668 -0.4293 -1.5465  1.4829
   72MOL0     H 9717   6.224   8.208   4.498  1.1118  0.0345  0.6578
   72MOL0     H 9718   6.588   7.973   4.488 -0.2754 -0.3805  0.6155
   72MOL0     H 9719   5.771   8.153   4.619 -0.8930 -0.0523 -0.9756
   72MOL0     H 9720   5.570   8.289   4.683 -1.6444  1.0080  3.4354
   73MOL0     O 9721   3.724   8.459   1.969  0.1714  0.9671  0.1146
   73MOL0     C 9722   3.817   8.430   2.047 -0.7102  1.1339 -0.2741
   73MOL0     O 9723   3.795   8.346   2.154 -0.0055  0.2083  0.0990
   73MOL0     C 9724   3.672   8.313   2.208 -0.0818 -0.2666 -0.2750
   73MOL0     C 9725   3.543   8.364   2.163 -0.2071 -0.8470 -0.4225
   73MOL0     C 9726   3.428   8.319   2.224 -0.2190 -0.4287  0.1491
   73MOL0     C 9727   3.431   8.213   2.315  0.1238  0.3815  0.4565
   73MOL0     O 9728   3.312   8.162   2.363 -0.3553 -0.4307 -0.2209
   73MOL0     C 9729   3.192   8.155   2.280  0.6379  0.6367  0.2551
   73MOL0     C 9730   3.078   8.144   2.383 -0.5559  0.0763 -0.2160
   73MOL0     C 9731   2.944   8.163   2.311  0.2850 -0.5357  0.5760
   73MOL0     C 9732   2.834   8.160   2.413 -0.0982  0.0382 -0.5729
   73MOL0     C 9733   2.699   8.163   2.343 -0.1379 -0.5066  0.0568
   73MOL0     C 9734   2.596   8.167   2.462  0.1275  1.3500 -0.4937
   73MOL0     C 9735   2.454   8.120   2.416 -0.3233 -0.4574 -0.4797
   73MOL0     C 9736   2.360   8.080   2.528 -0.6962 -0.2586  0.0700
   73MOL0     N 9737   2.233   8.040   2.466  0.9023  1.0830 -0.3886
   73MOL0     C 9738   2.168   7.922   2.486  0.3697  1.0876 -0.7318
   73MOL0     C 9739   2.050   7.935   2.422 -0.0175 -0.1237 -0.1306
   73MOL0     C 9740   1.942   7.828   2.432  0.0992  0.1524  0.0314
   73MOL0     C 9741   1.900   7.801   2.284  0.3153 -0.6457  0.1225
   73MOL0     C 9742   1.821   7.672   2.270 -0.8683  1.4829 -1.0033
   73MOL0     C 9743   1.706   7.653   2.369 -0.4645 -0.1918 -0.6376
   73MOL0     O 9744   1.622   7.771   2.374  0.4803  0.2972 -0.4843
   73MOL0     C 9745   1.482   7.760   2.401  0.2701 -0.0524  0.2827
   73MOL0     C 9746   1.419   7.652   2.455 -0.3568  0.7723  0.3252
   73MOL0     C 9747   1.281   7.656   2.487 -0.3727  0.2826 -0.1884
   73MOL0     C 9748   1.226   7.529   2.553 -0.6937 -0.2793  0.1184
   73MOL0     C 9749   1.205   7.779   2.468  0.4629 -0.3550 -0.4258
   73MOL0     C 9750   1.064   7.796   2.501  0.4700  0.1433 -0.2807
   73MOL0     O 9751   0.987   7.857   2.404  0.1902 -0.3712  0.7121
   73MOL0     C 9752   0.855   7.841   2.412  0.3227 -0.2662  0.0339
   73MOL0     C 9753   0.766   7.957   2.411  0.2839  0.2894 -0.0681
   73MOL0     C 9754   0.626   7.954   2.383 -0.2788 -0.0172  0.6335
   73MOL0     C 9755   0.569   7.828   2.374 -0.8793 -0.4562 -0.6693
   73MOL0     O 9756   0.434   7.800   2.359 -0.2909 -0.0915  0.2651
   73MOL0     C 9757   0.359   7.909   2.306  0.5826  0.6014 -0.2922
   73MOL0     C 9758   0.225   7.862   2.253 -0.1807 -0.3987  0.9954
   73MOL0     C 9759   0.125   7.827   2.373  0.3479 -0.4286  0.3085
   73MOL0     C 9760  -0.012   7.814   2.315 -0.0769  0.3722  0.4526
   73MOL0     C 9761  -0.102   7.765   2.436 -0.0172 -0.8471  1.1771
   73MOL0     C 9762  -0.245   7.809   2.426 -0.8468 -0.4721  0.1594
   73MOL0     C 9763  -0.315   7.748   2.302  0.1750 -0.4850 -0.8936
   73MOL0     C 9764  -0.429   7.658   2.350 -0.4680 -0.6109  0.3439
   73MOL0    Cl 9765  -0.553   7.732   2.456  0.3824 -0.0946 -0.1127
   73MOL0     C 9766   0.652   7.712   2.388  0.8940 -0.0136 -0.6263
   73MOL0     C 9767   0.789   7.720   2.401 -0.6252 -0.1356 -0.0124
   73MOL0     O 9768   1.026   7.761   2.614  0.1958  0.7634 -0.2373
   73MOL0     C 9769   1.279   7.885   2.409  0.4063  0.2105 -0.7867
   73MOL0     C 9770   1.414   7.874   2.378  0.0885 -0.7374  0.1624
   73MOL0     N 9771   2.050   8.066   2.368  0.0568  0.4880 -0.3179
   73MOL0     N 9772   2.155   8.127   2.400  0.3599 -0.0496  0.3564
   73MOL0     C 9773   3.555   8.163   2.356 -0.1436 -0.5767  0.0830
   73MOL0     C 9774   3.669   8.216   2.305  0.1559 -0.3985  0.6130
   73MOL0     C 9775   3.958   8.460   2.017 -0.2734 -0.3399  0.1399
   73MOL0     C 9776   4.064   8.386   2.081 -0.1413  0.4066 -0.2351
   73MOL0     C 9777   4.194   8.417   2.049  0.4001  0.0442  0.1160
   73MOL0     C 9778   4.229   8.523   1.970  0.1531 -0.1621 -0.5535
   73MOL0     O 9779   4.359   8.549   1.951 -0.0107  0.0936  0.1204
   73MOL0     C 9780   4.461   8.459   1.999  0.0541  0.0743  0.1486
   73MOL0     C 9781   4.484   8.471   2.148  0.0347  0.1076 -0.0062
   73MOL0     C 9782   4.583   8.589   2.153 -0.0130  0.2594 -0.2632
   73MOL0     C 9783   4.593   8.658   2.290  0.3703  0.2115  0.5134
   73MOL0     C 9784   4.470   8.729   2.335  0.3121 -0.3514 -0.6679
   73MOL0     C 9785   4.368   8.780   2.373 -0.6416  0.3631 -0.3453
   73MOL0     C 9786   4.133   8.594   1.908  0.1349  0.0146 -0.0628
   73MOL0     C 9787   3.997   8.567   1.931 -0.5167 -0.0030  0.2636
   73MOL0     H 9788   3.530   8.442   2.088 -0.1118 -0.4501 -0.0262
   73MOL0     H 9789   3.338   8.361   2.181 -0.0943  1.6879  1.7442
   73MOL0     H 9790   3.180   8.248   2.224 -2.0859 -0.8217 -1.8165
   73MOL0     H 9791   3.201   8.067   2.215 -1.9579  0.5855 -0.1448
   73MOL0     H 9792   3.081   8.047   2.434 -2.2685 -0.0720 -0.3166
   73MOL0     H 9793   3.083   8.233   2.446 -0.1454 -0.3637  0.3848
   73MOL0     H 9794   2.949   8.262   2.265  3.2296  0.1611  2.1702
   73MOL0     H 9795   2.923   8.083   2.239 -0.4092 -0.8179  1.0851
   73MOL0     H 9796   2.832   8.075   2.481 -1.7918  0.5126  0.0125
   73MOL0     H 9797   2.840   8.247   2.479  0.4181  0.3722 -1.0390
   73MOL0     H 9798   2.686   8.253   2.282  0.6199  0.8242  1.7531
   73MOL0     H 9799   2.693   8.070   2.286  0.7187  0.0968 -1.0753
   73MOL0     H 9800   2.631   8.098   2.540  0.9607  0.1760 -1.8511
   73MOL0     H 9801   2.587   8.267   2.507 -0.5264  0.6998  0.9091
   73MOL0     H 9802   2.408   8.200   2.357 -3.4929 -0.8760  1.2092
   73MOL0     H 9803   2.456   8.029   2.355 -1.1698 -1.6756  1.2223
   73MOL0     H 9804   2.346   8.161   2.600 -0.4018 -0.6442  0.5629
   73MOL0     H 9805   2.407   8.002   2.587 -2.8157  0.0556  2.3443
   73MOL0     H 9806   2.205   7.842   2.548 -1.8483  0.0229 -0.6643
   73MOL0     H 9807   1.991   7.736   2.465  0.9299 -0.7211 -3.2750
   73MOL0     H 9808   1.867   7.858   2.506 -0.2903 -2.3994  0.7666
   73MOL0     H 9809   1.983   7.803   2.213 -1.2774  4.0647 -2.0120
   73MOL0     H 9810   1.839   7.886   2.253  1.0102  0.0292  0.5591
   73MOL0     H 9811   1.895   7.592   2.278 -1.6501  0.5929 -2.2219
   73MOL0     H 9812   1.788   7.662   2.166 -0.5105  0.9284 -1.0678
   73MOL0     H 9813   1.747   7.635   2.469 -1.0143  0.0526 -0.3704
   73MOL0     H 9814   1.660   7.558   2.339  0.1821 -1.9083  3.1650
   73MOL0     H 9815   1.471   7.559   2.469 -1.5105 -0.4035 -2.5334
   73MOL0     H 9816   1.258   7.525   2.657 -3.7391  2.9386  1.4013
   73MOL0     H 9817   1.119   7.512   2.538 -0.6184  0.6865 -1.9272
   73MOL0     H 9818   1.273   7.441   2.507  0.9527  0.2288  0.7828
   73MOL0     H 9819   0.809   8.053   2.441  0.5671 -0.0576  0.6657
   73MOL0     H 9820   0.559   8.038   2.367  0.1721  0.1559 -0.3905
   73MOL0     H 9821   0.352   7.978   2.389  0.5280  0.1386  0.0928
   73MOL0     H 9822   0.407   7.966   2.226 -0.7458  0.2529 -1.3820
   73MOL0     H 9823   0.185   7.952   2.204  0.5346 -0.2345  0.7090
   73MOL0     H 9824   0.240   7.777   2.187  3.2293 -0.2117  1.3692
   73MOL0     H 9825   0.127   7.895   2.459  2.6179  1.8288 -1.3382
   73MOL0     H 9826   0.155   7.737   2.427  1.6123  0.5381  1.2945
   73MOL0     H 9827  -0.036   7.914   2.277  1.0837 -0.1050 -1.6680
   73MOL0     H 9828  -0.015   7.753   2.225  0.0533  2.2140 -0.8420
   73MOL0     H 9829  -0.061   7.798   2.532 -0.7429  1.7753  0.6397
   73MOL0     H 9830  -0.109   7.656   2.442 -3.2446 -0.7886 -0.0606
   73MOL0     H 9831  -0.292   7.788   2.522 -0.7851 -1.7540 -0.0819
   73MOL0     H 9832  -0.252   7.917   2.408  0.0414 -0.6276 -1.2891
   73MOL0     H 9833  -0.256   7.673   2.249  0.1077 -1.0340 -0.2043
   73MOL0     H 9834  -0.357   7.824   2.236 -1.0575 -0.4546 -0.1047
   73MOL0     H 9835  -0.386   7.580   2.414  0.1333  1.0512  2.0454
   73MOL0     H 9836  -0.480   7.597   2.275 -1.6226 -1.7659  1.9911
   73MOL0     H 9837   0.591   7.622   2.400  0.4818  0.0209 -2.2216
   73MOL0     H 9838   0.861   7.639   2.395  3.6412  2.7740  4.0615
   73MOL0     H 9839   1.227   7.978   2.387  0.3743  0.4061  0.0799
   73MOL0     H 9840   1.459   7.964   2.338 -2.8175  0.6424 -0.2911
   73MOL0     H 9841   3.560   8.073   2.417  0.9604 -1.0727 -0.7194
   73MOL0     H 9842   3.768   8.179   2.332  0.9471  1.3486  0.2513
   73MOL0     H 9843   4.043   8.299   2.142  1.3681 -1.2416 -1.9297
   73MOL0     H 9844   4.256   8.337   2.091 -1.0516 -1.4338 -0.4524
   73MOL0     H 9845   4.439   8.352   1.984  0.0692  0.0903  0.0026
   73MOL0     H 9846   4.556   8.480   1.949 -0.3008 -3.3836 -2.3833
   73MOL0     H 9847   4.534   8.381   2.183  4.3820  2.2102 -0.2154
   73MOL0     H 9848   4.389   8.495   2.196  0.4762  2.0509 -0.0169
   73MOL0     H 9849   4.560   8.666   2.079  0.3908  0.7804  0.1433
   73MOL0     H 9850   4.683   8.552   2.128 -0.3890 -1.2378  0.2983
   73MOL0     H 9851   4.679   8.725   2.288 -0.2931  1.0700 -0.5577
   73MOL0     H 9852   4.617   8.575   2.356 -2.1594 -0.8227  0.2616
   73MOL0     H 9853   4.273   8.826   2.391 -1.2394  0.1480 -2.6801
   73MOL0     H 9854   4.155   8.677   1.841  0.4127 -1.0805 -1.3915
   73MOL0     H 9855   3.925   8.630   1.880  1.4907 -0.1489 -3.0267
   74MOL0     O 9856   9.709   1.006   0.323 -0.3008 -0.1217 -0.0930
   74MOL0     C 9857   9.755   0.907   0.275  0.6137  0.4616  0.6278
   74MOL0     O 9858   9.686   0.803   0.215  0.4530 -0.1247  0.1249
   74MOL0     C 9859   9.549   0.798   0.222 -0.2535 -0.7868 -0.3038
   74MOL0     C 9860   9.500   0.697   0.302 -0.1010 -0.3465  0.0149
   74MOL0     C 9861   9.359   0.673   0.301 -0.2716 -0.4569 -0.9144
   74MOL0     C 9862   9.271   0.765   0.237  0.2876 -1.0516 -0.0094
   74MOL0     O 9863   9.137   0.730   0.242  0.2057  0.2735 -0.4104
   74MOL0     C 9864   9.039   0.829   0.230 -0.5310 -0.7333 -0.8041
   74MOL0     C 9865   8.904   0.770   0.264  0.0369  0.5448 -0.1060
   74MOL0     C 9866   8.792   0.862   0.241 -0.5914  1.1473 -0.7500
   74MOL0     C 9867   8.652   0.807   0.231 -0.3666  0.0475  0.0390
   74MOL0     C 9868   8.551   0.922   0.193  0.0004  0.6972 -0.1751
   74MOL0     C 9869   8.417   0.882   0.130 -0.4800 -0.4331  0.0550
   74MOL0     C 9870   8.434   0.807   0.006  0.0164  0.6167 -0.0333
   74MOL0     C 9871   8.311   0.795  -0.091 -0.7817 -0.1926  0.0216
   74MOL0     N 9872   8.360   0.736  -0.210  0.1454  0.6168  0.6561
   74MOL0     C 9873   8.338   0.599  -0.230  0.3255 -0.3234 -0.2350
   74MOL0     C 9874   8.412   0.580  -0.346  0.4306  0.3758 -0.2923
   74MOL0     C 9875   8.430   0.448  -0.403  0.4703 -0.0108  0.0901
   74MOL0     C 9876   8.288   0.389  -0.436 -0.6193  0.0209 -0.2467
   74MOL0     C 9877   8.307   0.254  -0.506  0.3343 -0.8168  0.0532
   74MOL0     C 9878   8.177   0.188  -0.560  0.5429 -0.0394  0.8985
   74MOL0     O 9879   8.113   0.140  -0.446 -0.6481 -0.1014 -0.0203
   74MOL0     C 9880   7.993   0.080  -0.466  0.8015  0.7748  0.0208
   74MOL0     C 9881   7.925   0.056  -0.348  0.7150  0.7453 -0.4403
   74MOL0     C 9882   7.793   0.007  -0.342  0.3996  0.8497 -0.0868
   74MOL0     C 9883   7.730   0.015  -0.205 -0.0807 -0.1014 -0.3569
   74MOL0     C 9884   7.730  -0.021  -0.465 -0.2814  0.4684 -0.7564
   74MOL0     C 9885   7.587  -0.061  -0.470  0.7328  0.8193  0.7700
   74MOL0     O 9886   7.514  -0.027  -0.580 -0.2151  0.4327  0.2432
   74MOL0     C 9887   7.385  -0.067  -0.595  0.0784 -0.7293 -0.5397
   74MOL0     C 9888   7.278  -0.004  -0.521 -0.0249  0.4636 -0.0652
   74MOL0     C 9889   7.143  -0.035  -0.533 -1.2775  1.2060  0.0256
   74MOL0     C 9890   7.103  -0.131  -0.631  0.3925  0.7342 -0.4375
   74MOL0     O 9891   6.969  -0.158  -0.656 -0.5662  0.5421 -0.7416
   74MOL0     C 9892   6.914  -0.245  -0.748  0.2482 -0.5557  0.3896
   74MOL0     C 9893   6.760  -0.252  -0.729  0.0647 -0.0505 -0.2470
   74MOL0     C 9894   6.698  -0.109  -0.747  0.0576  0.6508 -0.7398
   74MOL0     C 9895   6.546  -0.119  -0.775  0.3217 -0.2669 -0.2499
   74MOL0     C 9896   6.474   0.021  -0.773 -0.1878  0.1353  0.0890
   74MOL0     C 9897   6.530   0.122  -0.873  0.4483 -0.7535 -0.6458
   74MOL0     C 9898   6.458   0.262  -0.855 -0.2724  0.5035 -0.0722
   74MOL0     C 9899   6.389   0.309  -0.987 -0.2131 -0.1087 -0.1549
   74MOL0    Cl 9900   6.506   0.297  -1.129  0.3636 -0.2986 -0.2715
   74MOL0     C 9901   7.209  -0.197  -0.698  0.2046  0.5093  0.8288
   74MOL0     C 9902   7.347  -0.168  -0.681  0.9956 -0.1671 -0.1218
   74MOL0     O 9903   7.539  -0.112  -0.375 -0.1110  0.3654  0.0325
   74MOL0     C 9904   7.797  -0.005  -0.590 -0.0348 -0.7485 -0.2875
   74MOL0     C 9905   7.929   0.043  -0.588  0.3584 -0.0409 -0.1279
   74MOL0     N 9906   8.467   0.699  -0.389  0.9308  0.5237 -0.6730
   74MOL0     N 9907   8.426   0.793  -0.315 -0.2207  0.5790  0.1616
   74MOL0     C 9908   9.324   0.878   0.161  0.0446  0.2801  0.1811
   74MOL0     C 9909   9.461   0.893   0.161 -0.2549  0.0195  0.2033
   74MOL0     C 9910   9.899   0.897   0.259 -0.6626 -0.0699 -0.8615
   74MOL0     C 9911   9.958   0.803   0.176 -0.0747 -0.5078  0.3390
   74MOL0     C 9912  10.095   0.805   0.152  0.8732  0.0344 -0.5502
   74MOL0     C 9913  10.191   0.897   0.210 -0.5345 -0.1468  0.4520
   74MOL0     O 9914  10.331   0.885   0.166  0.0952  0.3157 -0.1341
   74MOL0     C 9915  10.408   0.987   0.230 -0.4366  0.1364  0.7741
   74MOL0     C 9916  10.548   0.991   0.177 -0.4085 -0.0856  0.8961
   74MOL0     C 9917  10.627   0.859   0.205 -0.6102  0.6466  0.4277
   74MOL0     C 9918  10.747   0.847   0.107  0.3235 -0.3107  0.0457
   74MOL0     C 9919  10.831   0.741   0.155 -0.2802 -0.1309  0.1458
   74MOL0     C 9920  10.914   0.659   0.181  0.0735  0.5605  0.1435
   74MOL0     C 9921  10.133   0.985   0.301 -0.8187 -0.1413  0.8428
   74MOL0     C 9922   9.990   0.991   0.320 -0.7015  0.1328 -0.1007
   74MOL0     H 9923   9.567   0.628   0.352  0.1912 -1.0980 -1.3750
   74MOL0     H 9924   9.330   0.576   0.339 -2.3953  1.0282  1.5434
   74MOL0     H 9925   9.072   0.908   0.299  1.3353 -1.2793 -1.0221
   74MOL0     H 9926   9.040   0.869   0.128 -2.2347  0.6525 -0.3289
   74MOL0     H 9927   8.888   0.676   0.210  0.6865 -0.0926  0.7815
   74MOL0     H 9928   8.893   0.744   0.370 -1.3303 -0.7213 -0.5166
   74MOL0     H 9929   8.794   0.937   0.320 -1.6519  2.0381 -1.5380
   74MOL0     H 9930   8.817   0.923   0.153  1.6114  4.0216  1.6703
   74MOL0     H 9931   8.661   0.738   0.147  1.2139 -0.0583  0.2682
   74MOL0     H 9932   8.628   0.769   0.331 -0.0820  0.0545  0.1084
   74MOL0     H 9933   8.530   0.987   0.279  1.2943  0.8627  0.0330
   74MOL0     H 9934   8.603   0.984   0.119  0.6784 -1.5326 -1.6425
   74MOL0     H 9935   8.356   0.826   0.202  3.4839 -0.4691  3.8110
   74MOL0     H 9936   8.365   0.976   0.109  1.2586  1.0459  1.9140
   74MOL0     H 9937   8.521   0.843  -0.050 -0.4630  1.9503  0.0332
   74MOL0     H 9938   8.448   0.703   0.036 -0.7786  1.0690  2.1075
   74MOL0     H 9939   8.281   0.897  -0.116 -1.5657 -1.0649 -3.0226
   74MOL0     H 9940   8.229   0.738  -0.046  0.0792 -2.5272 -1.1876
   74MOL0     H 9941   8.285   0.528  -0.166  0.7428  0.0909  0.5930
   74MOL0     H 9942   8.490   0.455  -0.494 -0.6915  0.3052 -0.6775
   74MOL0     H 9943   8.471   0.378  -0.330 -2.9710 -2.2998  0.0770
   74MOL0     H 9944   8.238   0.459  -0.503  0.6997  2.4640  1.1754
   74MOL0     H 9945   8.220   0.379  -0.351  1.1149  3.2262  1.7159
   74MOL0     H 9946   8.349   0.180  -0.437 -1.0755 -1.1240  0.6016
   74MOL0     H 9947   8.384   0.269  -0.583 -0.4800  4.1173 -0.1631
   74MOL0     H 9948   8.196   0.107  -0.631 -0.5516 -0.1570  0.7088
   74MOL0     H 9949   8.127   0.270  -0.613 -1.0923  0.2611  2.7622
   74MOL0     H 9950   7.980   0.076  -0.257 -1.7318  0.4967  1.1728
   74MOL0     H 9951   7.714  -0.082  -0.159 -1.1414  0.7860  1.2521
   74MOL0     H 9952   7.799   0.058  -0.131  1.8410 -0.5836 -1.8016
   74MOL0     H 9953   7.633   0.066  -0.208  0.4857  1.2470  1.5394
   74MOL0     H 9954   7.305   0.077  -0.454  0.7378 -0.0313  0.2384
   74MOL0     H 9955   7.070   0.012  -0.468 -4.6953 -1.0838 -1.8085
   74MOL0     H 9956   6.943  -0.212  -0.848 -4.4072 -0.7277 -1.2766
   74MOL0     H 9957   6.947  -0.349  -0.738 -3.9309 -2.5857 -3.3621
   74MOL0     H 9958   6.715  -0.325  -0.797  1.5528 -0.8862 -0.3794
   74MOL0     H 9959   6.728  -0.286  -0.630 -1.4399  0.0381 -0.6754
   74MOL0     H 9960   6.743  -0.054  -0.830  0.9256  1.7062  0.4039
   74MOL0     H 9961   6.719  -0.054  -0.655  0.3011  0.0075 -0.4026
   74MOL0     H 9962   6.533  -0.168  -0.872  2.1606  0.1913 -0.7762
   74MOL0     H 9963   6.501  -0.180  -0.696  0.8102  1.3651  1.3706
   74MOL0     H 9964   6.489   0.056  -0.670  1.0851  3.7987 -1.1972
   74MOL0     H 9965   6.367   0.009  -0.792 -0.5496  2.2237  0.5917
   74MOL0     H 9966   6.635   0.142  -0.849 -0.1801 -0.4517  2.3171
   74MOL0     H 9967   6.528   0.076  -0.972  1.9131 -1.2699 -0.4602
   74MOL0     H 9968   6.531   0.335  -0.818  0.7835 -0.8077  0.5050
   74MOL0     H 9969   6.380   0.251  -0.778 -0.1288 -0.9956 -0.1035
   74MOL0     H 9970   6.347   0.410  -0.980  2.0935  1.0530 -2.0022
   74MOL0     H 9971   6.321   0.227  -1.012  0.0268 -0.9313  1.7452
   74MOL0     H 9972   7.181  -0.277  -0.766 -1.1342 -1.1479  3.1650
   74MOL0     H 9973   7.425  -0.227  -0.728  3.6832  0.0861  3.5450
   74MOL0     H 9974   7.741  -0.026  -0.680  0.3615 -2.3668 -0.1849
   74MOL0     H 9975   7.986   0.058  -0.679 -0.6262 -0.9834 -0.9228
   74MOL0     H 9976   9.258   0.946   0.109 -1.6644 -0.9685  0.6127
   74MOL0     H 9977   9.504   0.981   0.115 -0.1648 -1.4305 -2.7498
   74MOL0     H 9978   9.899   0.724   0.133 -1.1819  0.7940 -0.6116
   74MOL0     H 9979  10.142   0.716   0.111 -1.2036 -1.3488 -0.0859
   74MOL0     H 9980  10.359   1.082   0.205 -0.7294 -0.0741  0.5406
   74MOL0     H 9981  10.410   0.973   0.338 -0.8440  2.1234  1.0833
   74MOL0     H 9982  10.600   1.073   0.226  2.2056 -0.8948 -0.3527
   74MOL0     H 9983  10.538   1.015   0.071 -0.4364  4.1097  1.7009
   74MOL0     H 9984  10.573   0.765   0.186  1.5953 -0.0409 -3.5417
   74MOL0     H 9985  10.666   0.852   0.307 -0.2988 -1.4554  0.2174
   74MOL0     H 9986  10.806   0.939   0.098  1.7265 -1.3825 -3.0750
   74MOL0     H 9987  10.708   0.832   0.006  0.8903  0.7358 -0.3446
   74MOL0     H 9988  10.991   0.591   0.210  2.1600  1.6977 -2.3379
   74MOL0     H 9989  10.190   1.065   0.345  1.5117 -0.0413 -2.0725
   74MOL0     H 9990   9.945   1.067   0.383  0.5808  2.6593 -2.0131
   75MOL0     O 9991  10.289   2.626   1.713 -0.1080  0.1592 -1.0514
   75MOL0     C 9992  10.352   2.730   1.694 -0.0967 -0.2191  0.1393
   75MOL0     O 9993  10.295   2.853   1.668 -0.2433  0.6359  0.0359
   75MOL0     C 9994  10.161   2.860   1.648  0.1995 -0.5535 -0.2913
   75MOL0     C 9995  10.057   2.813   1.730 -0.3871 -0.3736  0.5757
   75MOL0     C 9996   9.924   2.852   1.696 -0.5081 -0.3052 -0.1995
   75MOL0     C 9997   9.902   2.942   1.592  0.4715 -0.5838  0.1937
   75MOL0     O 9998   9.766   2.958   1.570 -0.0709 -0.4990 -0.4716
   75MOL0     C 9999   9.729   3.087   1.514  0.1986 -0.6650 -0.4705
   75MOL0     C10000   9.722   3.189   1.627 -0.8042  0.3788  0.5135
   75MOL0     C10001   9.634   3.309   1.596 -0.7242 -0.8413 -0.4576
   75MOL0     C10002   9.494   3.290   1.654 -0.8203  0.7520 -0.3307
   75MOL0     C10003   9.398   3.405   1.658  0.4265 -0.1350  0.8213
   75MOL0     C10004   9.258   3.352   1.695 -0.3441 -0.3679  0.3069
   75MOL0     C10005   9.160   3.472   1.720  0.2820 -0.1983  0.5269
   75MOL0     C10006   9.143   3.574   1.598 -0.8983  0.3953 -0.6103
   75MOL0     N10007   9.008   3.629   1.601 -0.1803 -0.7818 -0.1810
   75MOL0     C10008   8.904   3.613   1.514  0.4272  0.1723  0.3531
   75MOL0     C10009   8.802   3.688   1.569  0.8075 -0.2597  0.4644
   75MOL0     C10010   8.665   3.717   1.510  0.4511  0.3023  0.2209
   75MOL0     C10011   8.561   3.719   1.622  0.0337  0.2930  0.9089
   75MOL0     C10012   8.408   3.733   1.587 -0.2494 -0.7083  0.5078
   75MOL0     C10013   8.340   3.743   1.722 -0.0838 -0.2712  0.9944
   75MOL0     O10014   8.200   3.777   1.700  0.0753  0.2920  0.3513
   75MOL0     C10015   8.106   3.731   1.788 -0.9225  0.3067  0.4827
   75MOL0     C10016   8.130   3.675   1.912  0.5601  0.5630 -0.0426
   75MOL0     C10017   8.027   3.633   1.999 -0.0079  0.3935  0.1505
   75MOL0     C10018   8.081   3.553   2.116  0.0122  0.4002  0.1128
   75MOL0     C10019   7.892   3.637   1.965 -0.0503 -0.5831  0.4038
   75MOL0     C10020   7.783   3.606   2.061 -0.0707 -0.1108 -0.5086
   75MOL0     O10021   7.663   3.563   2.019  0.0833  0.1571  0.6441
   75MOL0     C10022   7.566   3.559   2.114 -0.2487 -0.2772  0.7394
   75MOL0     C10023   7.546   3.443   2.191  0.3435  0.1366 -0.1019
   75MOL0     C10024   7.425   3.427   2.266 -0.3255 -0.3499 -1.2608
   75MOL0     C10025   7.330   3.525   2.271  1.3172  1.2923  1.0314
   75MOL0     O10026   7.220   3.494   2.351 -0.5985  0.3163 -0.0542
   75MOL0     C10027   7.094   3.548   2.313  0.5625  0.0719  0.0449
   75MOL0     C10028   6.987   3.501   2.414 -0.4117 -0.0367 -0.4981
   75MOL0     C10029   6.846   3.552   2.377 -0.2189  0.0524 -0.0470
   75MOL0     C10030   6.729   3.465   2.419 -0.1616 -0.3715  0.1391
   75MOL0     C10031   6.652   3.504   2.545 -0.1657 -0.2345  0.1783
   75MOL0     C10032   6.516   3.431   2.565 -0.5289  0.3208 -0.8494
   75MOL0     C10033   6.528   3.280   2.569 -0.0673  0.4188 -0.5099
   75MOL0     C10034   6.402   3.208   2.624 -0.7004  0.3657  0.1730
   75MOL0    Cl10035   6.400   3.226   2.809  0.4416 -0.2500  0.2158
   75MOL0     C10036   7.351   3.641   2.194 -0.5049 -0.3741  0.6562
   75MOL0     C10037   7.457   3.659   2.107 -1.0272  0.1782  0.4623
   75MOL0     O10038   7.808   3.626   2.180  0.5593 -0.2499 -0.6685
   75MOL0     C10039   7.865   3.695   1.839 -0.8753 -0.8741  0.0301
   75MOL0     C10040   7.967   3.738   1.751 -0.0580 -0.0360  0.1310
   75MOL0     N10041   8.854   3.745   1.684 -0.1300  0.2373 -0.9048
   75MOL0     N10042   8.964   3.707   1.707 -0.8621  0.0636 -1.0233
   75MOL0     C10043  10.006   2.977   1.503  1.0261  0.0507 -0.1835
   75MOL0     C10044  10.134   2.930   1.538  0.2537 -0.4091  0.1687
   75MOL0     C10045  10.500   2.730   1.720  0.1068 -0.5459 -0.0653
   75MOL0     C10046  10.574   2.846   1.690  0.6311 -0.4971 -0.0397
   75MOL0     C10047  10.708   2.839   1.700 -1.2051  0.1410 -0.2250
   75MOL0     C10048  10.777   2.732   1.751 -0.2171  0.3864 -0.3292
   75MOL0     O10049  10.909   2.741   1.769  0.0110 -0.6517  0.4128
   75MOL0     C10050  10.985   2.659   1.851  0.0599  0.8514 -0.4507
   75MOL0     C10051  11.125   2.713   1.860  1.1323 -0.5465 -0.4428
   75MOL0     C10052  11.213   2.610   1.940  0.3710 -0.6414  0.1497
   75MOL0     C10053  11.362   2.662   1.922  1.6162  0.4104 -0.0090
   75MOL0     C10054  11.451   2.565   1.991 -0.9082 -0.4381  0.5770
   75MOL0     C10055  11.513   2.477   2.050 -0.1154  0.3073 -0.0951
   75MOL0     C10056  10.703   2.615   1.786  0.2507  0.6311 -1.3004
   75MOL0     C10057  10.564   2.610   1.771  0.1148 -0.6489 -0.4777
   75MOL0     H10058  10.078   2.750   1.816 -3.6637 -0.1471  1.7026
   75MOL0     H10059   9.836   2.818   1.749 -0.8102 -0.7945 -0.9914
   75MOL0     H10060   9.783   3.113   1.422 -0.3617 -2.0977 -1.2359
   75MOL0     H10061   9.626   3.071   1.479 -0.0247  1.2685 -0.8051
   75MOL0     H10062   9.695   3.145   1.723 -0.9772 -0.8801 -0.0936
   75MOL0     H10063   9.825   3.220   1.646 -1.2374  0.4544  3.0772
   75MOL0     H10064   9.670   3.402   1.641 -3.6397 -0.8814  2.3076
   75MOL0     H10065   9.626   3.335   1.490 -3.0356 -0.8981 -0.3434
   75MOL0     H10066   9.454   3.206   1.596 -0.6485  2.3866 -2.9679
   75MOL0     H10067   9.497   3.251   1.756  0.4387 -1.4428 -1.1477
   75MOL0     H10068   9.431   3.485   1.725  2.6359 -0.7669  0.5701
   75MOL0     H10069   9.387   3.451   1.560  1.9954 -0.6133  0.3862
   75MOL0     H10070   9.235   3.270   1.626  1.7953 -0.5542 -0.2379
   75MOL0     H10071   9.275   3.323   1.799  2.1091  1.3287  0.4534
   75MOL0     H10072   9.065   3.425   1.746 -0.3734  2.1269  2.6586
   75MOL0     H10073   9.188   3.529   1.809 -1.4928  0.6739  0.5624
   75MOL0     H10074   9.151   3.503   1.514  0.9130 -2.1665  1.5540
   75MOL0     H10075   9.225   3.646   1.598  0.7150 -1.2651  2.3711
   75MOL0     H10076   8.894   3.541   1.434 -0.7979  1.2826 -0.5433
   75MOL0     H10077   8.659   3.818   1.469 -0.8213  0.2499  0.2351
   75MOL0     H10078   8.637   3.642   1.436 -2.3847 -0.6546  2.0972
   75MOL0     H10079   8.588   3.805   1.684  1.2387  0.3870  0.2962
   75MOL0     H10080   8.569   3.629   1.684  0.3302  0.3554  0.9631
   75MOL0     H10081   8.376   3.639   1.541 -0.8174 -1.7970  2.9790
   75MOL0     H10082   8.381   3.820   1.527 -2.0877 -0.0621  2.1383
   75MOL0     H10083   8.375   3.832   1.776  0.7372 -0.7439  1.2572
   75MOL0     H10084   8.349   3.651   1.779 -1.7859 -0.0606  1.6731
   75MOL0     H10085   8.228   3.659   1.955 -0.3790 -3.7257  1.0080
   75MOL0     H10086   8.147   3.476   2.076  0.0318 -0.2546  1.3772
   75MOL0     H10087   8.133   3.614   2.190 -1.0944 -0.1136  1.3672
   75MOL0     H10088   8.003   3.494   2.165  2.3787 -2.6934  0.4236
   75MOL0     H10089   7.628   3.372   2.194  1.1327  1.0619  0.8787
   75MOL0     H10090   7.405   3.333   2.317 -2.8237  1.5103  1.5388
   75MOL0     H10091   7.084   3.657   2.307 -0.8575 -0.0717 -0.5495
   75MOL0     H10092   7.065   3.503   2.218  0.2110  0.7005 -0.1532
   75MOL0     H10093   6.971   3.393   2.417 -0.5680 -0.0001  1.1323
   75MOL0     H10094   7.011   3.522   2.519  0.6793 -1.8115 -0.3407
   75MOL0     H10095   6.837   3.562   2.269 -0.1023  1.4562  0.0552
   75MOL0     H10096   6.831   3.654   2.416 -0.7668 -0.5610  1.4354
   75MOL0     H10097   6.655   3.463   2.338 -1.5993  1.0194  1.3573
   75MOL0     H10098   6.763   3.363   2.439 -0.8017 -0.5717  0.2227
   75MOL0     H10099   6.623   3.609   2.531  1.5295  0.0614 -1.4726
   75MOL0     H10100   6.703   3.498   2.642 -0.6755  4.2886  0.9591
   75MOL0     H10101   6.476   3.472   2.659 -2.6671  0.2853 -1.6831
   75MOL0     H10102   6.440   3.451   2.489 -0.6314 -3.0587 -1.8010
   75MOL0     H10103   6.607   3.246   2.636  2.6689 -0.2296 -3.7879
   75MOL0     H10104   6.560   3.242   2.471 -0.1518  1.1593 -0.8310
   75MOL0     H10105   6.412   3.099   2.616  3.6069  0.5732  0.4590
   75MOL0     H10106   6.307   3.240   2.581 -1.4711  0.0902  1.6277
   75MOL0     H10107   7.272   3.715   2.190 -0.5533 -0.1413  3.7612
   75MOL0     H10108   7.465   3.729   2.024 -4.3004 -1.9056 -1.8322
   75MOL0     H10109   7.762   3.716   1.812 -0.2827  2.4398 -0.1752
   75MOL0     H10110   7.939   3.776   1.654  0.8340 -1.7863 -0.8657
   75MOL0     H10111   9.977   3.040   1.420  0.1312 -1.4263 -1.0299
   75MOL0     H10112  10.217   2.969   1.480  1.1986  1.6258  2.7019
   75MOL0     H10113  10.523   2.928   1.641  0.0786 -1.0500 -0.4217
   75MOL0     H10114  10.777   2.919   1.676 -1.8914  0.0098 -2.9437
   75MOL0     H10115  10.946   2.649   1.953  2.4762 -0.6225  0.4311
   75MOL0     H10116  11.003   2.556   1.821  1.2868  0.4721  1.3870
   75MOL0     H10117  11.122   2.811   1.907  4.5210  0.4120 -1.8749
   75MOL0     H10118  11.167   2.726   1.759  0.9926 -1.6587 -0.6607
   75MOL0     H10119  11.200   2.507   1.904 -1.7086 -1.4816  2.9334
   75MOL0     H10120  11.180   2.602   2.044 -0.5606  1.2016  0.0347
   75MOL0     H10121  11.373   2.763   1.962  0.2671  0.8552 -0.6786
   75MOL0     H10122  11.377   2.670   1.814  0.9157 -1.6228 -0.2912
   75MOL0     H10123  11.568   2.405   2.106  0.0152 -0.0704 -0.6963
   75MOL0     H10124  10.746   2.520   1.817 -1.9626 -0.4161 -1.2595
   75MOL0     H10125  10.515   2.517   1.800  1.2723 -1.1263 -0.0178
   76MOL0     O10126   3.292   9.653   4.600  0.2240  0.4875 -0.1282
   76MOL0     C10127   3.301   9.529   4.607  0.8617  0.4794 -0.2846
   76MOL0     O10128   3.221   9.440   4.541  0.5459  0.2247 -0.8072
   76MOL0     C10129   3.108   9.490   4.478  0.2504  0.6649  1.2694
   76MOL0     C10130   2.980   9.452   4.521 -0.1493 -0.3659 -0.0034
   76MOL0     C10131   2.867   9.488   4.455 -0.0246 -0.2335 -0.0446
   76MOL0     C10132   2.870   9.557   4.332  0.5067 -0.3895 -0.2593
   76MOL0     O10133   2.757   9.591   4.263 -0.9153  0.5750 -0.5017
   76MOL0     C10134   2.657   9.493   4.242  0.6916 -0.4257 -0.2722
   76MOL0     C10135   2.554   9.562   4.154  1.0404 -0.6760  0.2399
   76MOL0     C10136   2.425   9.479   4.136  0.0292  1.5804  0.6705
   76MOL0     C10137   2.308   9.560   4.103  0.0330  0.9628  0.2525
   76MOL0     C10138   2.183   9.473   4.067 -0.2285  0.2035 -0.7463
   76MOL0     C10139   2.053   9.553   4.068  0.3988 -0.2317  0.2740
   76MOL0     C10140   1.930   9.468   4.070  0.8196 -0.0342  0.1485
   76MOL0     C10141   1.806   9.558   4.045  0.2634 -0.8293 -0.8689
   76MOL0     N10142   1.685   9.480   4.021  0.6073  0.9521 -0.9716
   76MOL0     C10143   1.680   9.380   3.928 -0.2573  0.1597 -1.0357
   76MOL0     C10144   1.569   9.312   3.961 -0.1052 -1.0427  0.1142
   76MOL0     C10145   1.509   9.198   3.885 -0.2863 -0.1926  0.0328
   76MOL0     C10146   1.556   9.205   3.734  0.2376  0.5331  0.0580
   76MOL0     C10147   1.478   9.118   3.627  0.6522 -0.2399 -0.0356
   76MOL0     C10148   1.321   9.112   3.627  0.8106  0.3227  0.3611
   76MOL0     O10149   1.265   9.068   3.749 -0.3718 -0.1968  0.1424
   76MOL0     C10150   1.140   9.103   3.781 -0.7480 -0.1227 -0.7695
   76MOL0     C10151   1.115   9.120   3.921  0.3803 -0.3765  0.0498
   76MOL0     C10152   0.983   9.126   3.966  0.2986  0.0637 -0.2300
   76MOL0     C10153   0.961   9.118   4.115  0.2027 -0.4754 -0.6394
   76MOL0     C10154   0.873   9.145   3.874 -0.0128  0.1597 -0.1086
   76MOL0     C10155   0.738   9.165   3.916  1.1752 -0.0663 -0.4011
   76MOL0     O10156   0.692   9.096   4.016  0.3847  0.0667  0.3120
   76MOL0     C10157   0.555   9.100   4.039  0.8433  0.0446  0.1820
   76MOL0     C10158   0.477   9.002   3.977 -0.6599  0.3371  1.2006
   76MOL0     C10159   0.348   8.984   4.019 -0.9078  0.0147  0.4020
   76MOL0     C10160   0.289   9.070   4.111  0.5844 -0.1657  0.3255
   76MOL0     O10161   0.158   9.050   4.144  0.3169 -0.3309 -0.4199
   76MOL0     C10162   0.079   9.164   4.204  0.3093  0.7102 -0.0349
   76MOL0     C10163  -0.058   9.124   4.224  0.7803 -0.6287 -0.7090
   76MOL0     C10164  -0.143   9.230   4.287  0.2818  0.2118  0.2088
   76MOL0     C10165  -0.294   9.215   4.270  0.0490 -0.2230  0.2196
   76MOL0     C10166  -0.357   9.142   4.392  0.7959  0.9568  0.6037
   76MOL0     C10167  -0.340   8.990   4.379  0.2443 -0.1335 -0.1053
   76MOL0     C10168  -0.452   8.919   4.471  0.0959 -0.4990  0.2286
   76MOL0     C10169  -0.449   8.947   4.624  0.7343  0.6747 -0.2929
   76MOL0    Cl10170  -0.587   8.860   4.695 -0.0016  0.2340 -0.3617
   76MOL0     C10171   0.371   9.174   4.162 -0.4100  0.9399 -0.1744
   76MOL0     C10172   0.501   9.187   4.131  0.4634 -0.9979 -0.3931
   76MOL0     O10173   0.661   9.238   3.849  0.1128 -0.3929  1.0946
   76MOL0     C10174   0.900   9.136   3.734  0.0101 -0.2791  0.0911
   76MOL0     C10175   1.033   9.113   3.694  0.2849  0.2281  0.0376
   76MOL0     N10176   1.501   9.386   4.054  0.9782  0.3235 -0.2299
   76MOL0     N10177   1.573   9.478   4.101  0.0362  0.3007 -0.0470
   76MOL0     C10178   2.999   9.596   4.284 -0.3744  0.0827 -0.9028
   76MOL0     C10179   3.116   9.564   4.360 -0.3458 -0.0419 -0.7659
   76MOL0     C10180   3.419   9.474   4.667  0.2105 -0.1652 -0.7281
   76MOL0     C10181   3.521   9.555   4.713 -0.2020  0.4889 -0.7572
   76MOL0     C10182   3.632   9.503   4.778  0.0666  0.0317 -1.4129
   76MOL0     C10183   3.633   9.367   4.803  0.1988  0.7550 -0.4950
   76MOL0     O10184   3.742   9.312   4.865  0.3826  0.3116 -0.3721
   76MOL0     C10185   3.836   9.384   4.939 -0.7918  0.1889  0.1558
   76MOL0     C10186   3.780   9.449   5.074 -0.1722  0.1340 -0.0024
   76MOL0     C10187   3.716   9.353   5.176  0.8061  0.7440 -0.4513
   76MOL0     C10188   3.819   9.264   5.250 -0.8110 -0.1900 -0.6001
   76MOL0     C10189   3.868   9.324   5.372  1.1908 -0.7576  0.3357
   76MOL0     C10190   3.923   9.363   5.472 -0.2161 -1.2689  0.7189
   76MOL0     C10191   3.532   9.283   4.760 -0.2007  0.4500 -0.1269
   76MOL0     C10192   3.429   9.335   4.683  0.1417  0.2015  0.3373
   76MOL0     H10193   2.972   9.399   4.615 -1.8486  1.0956  0.7388
   76MOL0     H10194   2.769   9.465   4.498 -0.7922  0.6245 -1.2771
   76MOL0     H10195   2.697   9.408   4.186 -2.5166 -2.9899  1.0058
   76MOL0     H10196   2.605   9.452   4.329 -0.8153 -3.5763 -2.4576
   76MOL0     H10197   2.522   9.661   4.185  1.2200 -0.1832 -1.1002
   76MOL0     H10198   2.597   9.576   4.055 -2.3682 -1.1666 -1.4526
   76MOL0     H10199   2.435   9.407   4.055 -0.4919  2.2064  0.0388
   76MOL0     H10200   2.401   9.422   4.227 -0.0859  1.4137  0.5367
   76MOL0     H10201   2.282   9.614   4.195 -2.3389 -2.6122  1.8969
   76MOL0     H10202   2.336   9.635   4.029 -0.8792  1.6110  0.5437
   76MOL0     H10203   2.194   9.428   3.968  0.8508  1.9152 -1.4607
   76MOL0     H10204   2.172   9.391   4.138  0.8879  0.0719 -0.6969
   76MOL0     H10205   2.054   9.609   4.162  1.0421 -0.6900  0.5400
   76MOL0     H10206   2.060   9.627   3.988  2.9449  3.0977  3.2608
   76MOL0     H10207   1.935   9.391   3.993  0.7596 -1.2627  1.3295
   76MOL0     H10208   1.926   9.418   4.167 -0.3989  0.0172  0.1386
   76MOL0     H10209   1.826   9.620   3.957 -1.7626 -0.3587 -1.0358
   76MOL0     H10210   1.781   9.625   4.128  1.1416 -1.0228 -0.4373
   76MOL0     H10211   1.754   9.359   3.851  2.4441  1.3202  1.0793
   76MOL0     H10212   1.533   9.103   3.933 -0.0073  0.3264  0.9564
   76MOL0     H10213   1.400   9.194   3.890 -0.3490 -0.5090 -1.2837
   76MOL0     H10214   1.661   9.177   3.736  0.2533  0.4972 -0.9429
   76MOL0     H10215   1.540   9.304   3.692  2.3864  0.1870 -1.7458
   76MOL0     H10216   1.511   9.013   3.629  0.5691 -0.2601  0.2353
   76MOL0     H10217   1.500   9.150   3.525 -1.3176  0.8326 -0.1582
   76MOL0     H10218   1.277   9.049   3.550 -2.0232  1.0567  1.2754
   76MOL0     H10219   1.285   9.215   3.615 -1.6864 -0.2694  1.9598
   76MOL0     H10220   1.196   9.113   3.993  0.5237 -0.5849 -0.1278
   76MOL0     H10221   1.051   9.078   4.164  1.6355  0.0572 -2.6774
   76MOL0     H10222   0.930   9.216   4.152 -1.5303 -1.7567  1.5539
   76MOL0     H10223   0.883   9.051   4.152  2.4186 -4.2947 -2.2599
   76MOL0     H10224   0.513   8.932   3.902  2.0124 -0.6301  3.2322
   76MOL0     H10225   0.281   8.914   3.970  0.8945 -2.6321  1.4555
   76MOL0     H10226   0.120   9.197   4.300 -0.8258  2.6619 -0.1686
   76MOL0     H10227   0.084   9.246   4.132 -0.2360 -2.6415 -4.3019
   76MOL0     H10228  -0.103   9.110   4.125 -2.7429  2.6876  0.1626
   76MOL0     H10229  -0.061   9.035   4.286 -4.9788  0.5690  1.3508
   76MOL0     H10230  -0.116   9.326   4.241 -1.8074  1.8253  2.1073
   76MOL0     H10231  -0.109   9.252   4.389 -1.5864 -0.3380  0.9999
   76MOL0     H10232  -0.326   9.318   4.260  0.8513  0.3232  2.5508
   76MOL0     H10233  -0.315   9.169   4.173  1.0369  1.6658 -0.9308
   76MOL0     H10234  -0.465   9.158   4.385  0.2943 -2.2930 -0.8619
   76MOL0     H10235  -0.309   9.184   4.480  3.7539  1.0766 -0.9542
   76MOL0     H10236  -0.345   8.955   4.276 -1.1902 -0.0623 -0.0749
   76MOL0     H10237  -0.241   8.968   4.422 -0.8301 -1.6461  1.7779
   76MOL0     H10238  -0.442   8.810   4.468  2.1468 -0.3639  0.5791
   76MOL0     H10239  -0.549   8.954   4.437  0.0149  0.7086  1.5788
   76MOL0     H10240  -0.464   9.053   4.646  1.7847  0.7548  0.0953
   76MOL0     H10241  -0.353   8.910   4.659  2.0838  3.8826 -0.2434
   76MOL0     H10242   0.333   9.227   4.249  0.0408 -1.7473  1.7692
   76MOL0     H10243   0.564   9.265   4.172 -0.8634  0.6709 -1.4181
   76MOL0     H10244   0.811   9.160   3.676 -0.4779 -2.1999 -0.0221
   76MOL0     H10245   1.056   9.111   3.588 -1.2180 -0.2921 -0.3046
   76MOL0     H10246   3.005   9.654   4.193 -2.4702  4.1684  1.2994
   76MOL0     H10247   3.219   9.591   4.340 -0.1334 -0.5028 -0.3050
   76MOL0     H10248   3.537   9.661   4.697  1.4111  0.3155 -0.5297
   76MOL0     H10249   3.709   9.571   4.813 -1.1869  1.5877 -1.5785
   76MOL0     H10250   3.917   9.315   4.964  0.7368  0.9929 -2.2015
   76MOL0     H10251   3.888   9.455   4.872 -3.5269  0.3865 -1.9212
   76MOL0     H10252   3.711   9.531   5.051  1.3851  0.6782 -3.4137
   76MOL0     H10253   3.870   9.495   5.115 -0.5000  0.7365  0.0518
   76MOL0     H10254   3.675   9.269   5.120 -0.2877 -1.1670  2.9279
   76MOL0     H10255   3.638   9.395   5.241 -1.7964 -1.0462 -2.2382
   76MOL0     H10256   3.903   9.241   5.185 -1.8404 -2.3228 -1.2604
   76MOL0     H10257   3.777   9.169   5.284  0.2842 -0.9060 -1.2094
   76MOL0     H10258   3.972   9.395   5.562 -0.1385  1.2957 -0.1768
   76MOL0     H10259   3.545   9.181   4.795 -0.9341  0.4360  0.1219
   76MOL0     H10260   3.342   9.276   4.657  0.4869 -0.8373  1.4745
   77MOL0     O10261   9.182   0.289   6.178 -0.4816  0.2545  0.0681
   77MOL0     C10262   9.294   0.256   6.140  0.4628 -0.2642  0.5740
   77MOL0     O10263   9.320   0.173   6.036 -0.4599  0.8875  0.3648
   77MOL0     C10264   9.233   0.072   5.994 -0.2825 -0.5366 -0.4620
   77MOL0     C10265   9.285  -0.021   5.896 -0.0991  0.1992  0.1480
   77MOL0     C10266   9.210  -0.138   5.855 -0.4255 -0.1244 -0.7793
   77MOL0     C10267   9.081  -0.168   5.905 -0.3166 -0.6258  0.1830
   77MOL0     O10268   9.011  -0.284   5.873 -0.5390  0.0337  0.1399
   77MOL0     C10269   9.043  -0.347   5.745 -0.7194  1.0193  0.1000
   77MOL0     C10270   8.948  -0.467   5.722 -0.1737  0.3096 -0.1348
   77MOL0     C10271   8.798  -0.430   5.695 -0.1811 -1.0194  0.1439
   77MOL0     C10272   8.709  -0.545   5.643 -0.2061 -0.4730  1.0821
   77MOL0     C10273   8.568  -0.509   5.683 -0.1977 -0.4141  0.6579
   77MOL0     C10274   8.471  -0.610   5.622  0.6108 -0.4451 -0.2339
   77MOL0     C10275   8.330  -0.608   5.682  0.1485  0.5813  0.0769
   77MOL0     C10276   8.244  -0.488   5.640 -0.7406  0.4120 -0.0944
   77MOL0     N10277   8.100  -0.496   5.673  0.6936 -0.3699  0.1964
   77MOL0     C10278   8.043  -0.532   5.797 -1.1711  0.2089 -0.1864
   77MOL0     C10279   7.915  -0.522   5.769 -0.0477  0.1596 -0.5434
   77MOL0     C10280   7.809  -0.536   5.872 -0.4086  0.0409  0.7238
   77MOL0     C10281   7.801  -0.406   5.968 -0.2385  0.5996  0.1531
   77MOL0     C10282   7.672  -0.410   6.055 -0.0655 -0.5366 -1.0034
   77MOL0     C10283   7.650  -0.287   6.143 -0.1031 -0.2680 -0.2709
   77MOL0     O10284   7.578  -0.315   6.275  0.4731 -0.0416 -0.4835
   77MOL0     C10285   7.444  -0.344   6.263  0.4792  0.2161 -0.1333
   77MOL0     C10286   7.395  -0.414   6.367  0.4339 -0.5733  0.0809
   77MOL0     C10287   7.260  -0.456   6.376  0.1654 -0.5833  0.3351
   77MOL0     C10288   7.228  -0.538   6.499  0.1238 -0.5268 -0.4188
   77MOL0     C10289   7.163  -0.423   6.272  0.3867  0.1413  0.6658
   77MOL0     C10290   7.015  -0.455   6.263 -0.1316 -0.4743 -0.2995
   77MOL0     O10291   6.931  -0.371   6.193 -0.1956 -0.3972  0.1744
   77MOL0     C10292   6.791  -0.396   6.199 -0.5727  0.2720 -0.2901
   77MOL0     C10293   6.720  -0.393   6.322 -0.4705  0.4133  0.0381
   77MOL0     C10294   6.584  -0.424   6.317 -0.2630  0.1356 -0.2563
   77MOL0     C10295   6.514  -0.434   6.197  0.3683  0.3715  0.4942
   77MOL0     O10296   6.376  -0.431   6.209 -0.1783 -0.0144  0.3618
   77MOL0     C10297   6.296  -0.476   6.104 -0.4368 -0.3851 -0.3125
   77MOL0     C10298   6.158  -0.492   6.156  0.5953 -1.3243 -0.2631
   77MOL0     C10299   6.104  -0.371   6.224  0.6170  0.4081 -0.5820
   77MOL0     C10300   5.962  -0.382   6.255 -0.7195  0.3664 -0.5128
   77MOL0     C10301   5.909  -0.249   6.314 -0.2495  1.0096 -0.0815
   77MOL0     C10302   5.767  -0.208   6.278  0.0400 -0.9262  0.1965
   77MOL0     C10303   5.664  -0.263   6.368  0.1574 -0.6051  0.1720
   77MOL0     C10304   5.533  -0.204   6.341  0.0905  0.0171 -0.0058
   77MOL0    Cl10305   5.440  -0.279   6.208 -0.4406  0.1404  0.5588
   77MOL0     C10306   6.585  -0.448   6.079 -0.2272  0.9435 -0.6216
   77MOL0     C10307   6.722  -0.425   6.080 -0.0225  0.2994  0.0343
   77MOL0     O10308   6.979  -0.558   6.314  0.2218  0.5810  0.1699
   77MOL0     C10309   7.212  -0.343   6.168 -0.5256 -0.0784  0.6372
   77MOL0     C10310   7.351  -0.307   6.158  0.0276  0.5199 -0.1144
   77MOL0     N10311   7.897  -0.475   5.648  0.2579 -0.5698 -0.0742
   77MOL0     N10312   8.007  -0.447   5.587 -0.2114 -0.4399 -0.8516
   77MOL0     C10313   9.030  -0.073   5.999 -0.1491 -0.6605  0.2428
   77MOL0     C10314   9.103   0.046   6.036  0.7500  0.6047 -0.3970
   77MOL0     C10315   9.408   0.319   6.210 -1.1300  0.0933 -0.6609
   77MOL0     C10316   9.391   0.418   6.311  0.5582  0.0865  1.1187
   77MOL0     C10317   9.504   0.466   6.376  0.3462 -0.0862 -0.1008
   77MOL0     C10318   9.632   0.436   6.329 -0.4098 -0.4447 -0.3599
   77MOL0     O10319   9.736   0.507   6.392  1.0529 -0.5631  0.1569
   77MOL0     C10320   9.866   0.468   6.359 -0.8366  0.2386 -0.3968
   77MOL0     C10321   9.958   0.590   6.340 -0.4440 -0.2881 -0.3468
   77MOL0     C10322   9.952   0.698   6.450  0.2034  0.4038 -0.4032
   77MOL0     C10323  10.034   0.823   6.423  0.0246 -0.1143 -0.2500
   77MOL0     C10324  10.054   0.900   6.548 -0.4590  0.1180 -0.0722
   77MOL0     C10325  10.074   0.978   6.640  0.2093 -1.2532  0.3177
   77MOL0     C10326   9.653   0.340   6.230  0.1157  0.6301  0.6334
   77MOL0     C10327   9.537   0.277   6.174 -0.1561 -0.2587 -0.3796
   77MOL0     H10328   9.386  -0.006   5.859 -0.7625  1.2342 -1.3516
   77MOL0     H10329   9.262  -0.216   5.801  0.3176 -2.7888  3.2791
   77MOL0     H10330   9.039  -0.266   5.671 -4.6018  3.7474  2.8668
   77MOL0     H10331   9.145  -0.386   5.742 -0.8448  0.6974  0.0097
   77MOL0     H10332   8.975  -0.519   5.629 -1.7201 -1.2896  0.2595
   77MOL0     H10333   8.952  -0.543   5.801  0.6517 -0.7701 -1.1777
   77MOL0     H10334   8.748  -0.385   5.781 -2.1342 -1.0566 -0.9262
   77MOL0     H10335   8.808  -0.346   5.625  3.4969  0.4394  2.1476
   77MOL0     H10336   8.707  -0.554   5.534 -3.0893  2.9816  0.6360
   77MOL0     H10337   8.730  -0.642   5.688  0.4636 -1.5177 -1.3355
   77MOL0     H10338   8.552  -0.500   5.791 -0.9893  1.9450  0.4062
   77MOL0     H10339   8.540  -0.411   5.642 -0.4507 -0.5603  0.4801
   77MOL0     H10340   8.458  -0.593   5.515 -4.4451 -2.7209 -0.2631
   77MOL0     H10341   8.506  -0.713   5.632  1.2175 -0.1344  1.2805
   77MOL0     H10342   8.280  -0.700   5.650 -3.9555  1.5505  2.9797
   77MOL0     H10343   8.334  -0.610   5.791  2.3347  1.2294  0.0620
   77MOL0     H10344   8.260  -0.480   5.533 -0.9950  0.7356 -0.1105
   77MOL0     H10345   8.283  -0.395   5.683 -1.9755  2.0540 -2.3501
   77MOL0     H10346   8.083  -0.565   5.892  1.2314  0.6939 -0.9673
   77MOL0     H10347   7.712  -0.545   5.821 -0.0492  0.7785 -0.1041
   77MOL0     H10348   7.830  -0.624   5.933  1.1513 -0.1190 -0.0057
   77MOL0     H10349   7.806  -0.319   5.901  0.4219 -1.5370 -2.7956
   77MOL0     H10350   7.892  -0.413   6.028  0.5388  0.9482 -0.9349
   77MOL0     H10351   7.684  -0.500   6.117  1.4926 -0.7694 -1.5927
   77MOL0     H10352   7.579  -0.411   5.996 -0.8102  3.7357 -0.1692
   77MOL0     H10353   7.593  -0.211   6.088  0.7091  0.3460 -0.2886
   77MOL0     H10354   7.748  -0.242   6.160  1.6014 -4.5381  3.1065
   77MOL0     H10355   7.450  -0.445   6.455  0.8409  1.9060  0.7633
   77MOL0     H10356   7.134  -0.501   6.539  0.0024 -0.6913 -0.5491
   77MOL0     H10357   7.219  -0.641   6.463  0.0652 -0.5506 -0.3356
   77MOL0     H10358   7.308  -0.526   6.573 -0.9155  0.7311  0.5441
   77MOL0     H10359   6.772  -0.376   6.416 -2.2919  0.2885  1.1195
   77MOL0     H10360   6.527  -0.414   6.409  1.4399  0.7661  0.7880
   77MOL0     H10361   6.305  -0.406   6.020 -0.9620 -0.3097 -0.3090
   77MOL0     H10362   6.334  -0.572   6.068 -0.0523 -0.0215 -0.8913
   77MOL0     H10363   6.096  -0.535   6.076  1.9270 -1.8541 -1.0559
   77MOL0     H10364   6.165  -0.575   6.227  0.1379 -0.6869  0.5420
   77MOL0     H10365   6.116  -0.290   6.151 -0.6003 -0.6808 -2.0679
   77MOL0     H10366   6.156  -0.347   6.317 -0.2642 -0.0426  0.0413
   77MOL0     H10367   5.900  -0.430   6.178 -1.3318  1.1045 -0.4880
   77MOL0     H10368   5.954  -0.458   6.334  0.3660 -0.6277 -1.3235
   77MOL0     H10369   5.963  -0.162   6.275  0.9755  0.6297  0.6968
   77MOL0     H10370   5.924  -0.253   6.422  1.9893 -1.6420 -0.4003
   77MOL0     H10371   5.766  -0.099   6.287  0.3261 -0.6695 -2.1856
   77MOL0     H10372   5.744  -0.229   6.173  1.0701  0.9197 -0.4526
   77MOL0     H10373   5.688  -0.242   6.473  1.3959  4.2998 -0.8914
   77MOL0     H10374   5.662  -0.373   6.360  1.1535 -0.7417  1.4222
   77MOL0     H10375   5.542  -0.098   6.316 -0.9666  0.4134  1.1749
   77MOL0     H10376   5.472  -0.226   6.429 -0.6406  0.3234 -0.4240
   77MOL0     H10377   6.543  -0.470   5.981 -0.0672 -3.3184  0.0700
   77MOL0     H10378   6.779  -0.439   5.990 -1.6145 -0.3634 -0.9235
   77MOL0     H10379   7.139  -0.305   6.096 -1.5193 -2.7663  0.0750
   77MOL0     H10380   7.385  -0.249   6.073 -0.5610  2.1349  0.7116
   77MOL0     H10381   8.934  -0.097   6.044  0.3798 -2.4530  0.4772
   77MOL0     H10382   9.057   0.097   6.121  1.0329  0.8849 -0.4116
   77MOL0     H10383   9.290   0.434   6.347 -0.5121 -0.6470 -1.2767
   77MOL0     H10384   9.486   0.528   6.463 -2.6993  2.1407 -2.1078
   77MOL0     H10385   9.915   0.412   6.440 -0.3081  0.5948 -0.4656
   77MOL0     H10386   9.880   0.425   6.260  0.5197  1.0853 -0.6020
   77MOL0     H10387   9.931   0.640   6.247 -0.9112 -3.2099 -1.9061
   77MOL0     H10388  10.060   0.553   6.328  0.2410  1.4505 -0.0833
   77MOL0     H10389   9.994   0.653   6.541  1.9890 -0.3019 -1.5384
   77MOL0     H10390   9.848   0.721   6.476  0.2701  0.3291 -0.0580
   77MOL0     H10391   9.981   0.878   6.345 -1.7666 -1.8472 -0.3282
   77MOL0     H10392  10.130   0.802   6.375  1.1226  3.2497  0.1421
   77MOL0     H10393  10.097   1.050   6.716  0.7576 -1.8797  0.7570
   77MOL0     H10394   9.741   0.304   6.177 -1.4047  0.0681 -1.6537
   77MOL0     H10395   9.550   0.191   6.109  1.2950 -1.4472  1.3691
   78MOL0     O10396   0.329   9.271   1.980  0.4188  0.0420  0.1678
   78MOL0     C10397   0.374   9.219   1.876  0.0548  0.2805 -0.7857
   78MOL0     O10398   0.302   9.196   1.761 -0.6843  0.3280  0.3846
   78MOL0     C10399   0.184   9.259   1.765 -0.4220  0.5127  1.4204
   78MOL0     C10400   0.153   9.399   1.761 -0.2914 -0.7771  0.6638
   78MOL0     C10401   0.029   9.451   1.778  0.2724 -0.7695 -1.0109
   78MOL0     C10402  -0.078   9.367   1.783  0.5528  0.3662 -0.0865
   78MOL0     O10403  -0.208   9.413   1.805 -0.2288 -0.6728  0.0968
   78MOL0     C10404  -0.267   9.487   1.701  0.4750 -1.0220 -0.2059
   78MOL0     C10405  -0.364   9.397   1.623  0.1090  0.2300 -0.7670
   78MOL0     C10406  -0.464   9.484   1.543 -0.0302 -0.3822 -0.3447
   78MOL0     C10407  -0.562   9.401   1.460 -0.2175  0.4282  0.3528
   78MOL0     C10408  -0.695   9.396   1.523  0.5924 -0.7037 -0.6410
   78MOL0     C10409  -0.796   9.323   1.437  0.3617 -0.1317  0.4213
   78MOL0     C10410  -0.946   9.353   1.469 -0.7874 -0.6943  0.5225
   78MOL0     C10411  -1.031   9.288   1.358 -0.5725 -0.7121  0.4296
   78MOL0     N10412  -1.175   9.310   1.386  0.8450  0.8178 -0.3325
   78MOL0     C10413  -1.254   9.197   1.402  0.3909 -0.3976 -0.5496
   78MOL0     C10414  -1.368   9.248   1.441 -0.0675 -0.4188 -0.4391
   78MOL0     C10415  -1.485   9.152   1.470  0.8597  0.1686 -0.1752
   78MOL0     C10416  -1.567   9.223   1.578 -0.0872  0.0525 -0.3324
   78MOL0     C10417  -1.698   9.150   1.602 -0.8043 -0.2378  0.2097
   78MOL0     C10418  -1.797   9.211   1.700  0.7481 -0.3774 -0.4373
   78MOL0     O10419  -1.849   9.328   1.650 -0.2823  0.5377  0.8542
   78MOL0     C10420  -1.976   9.335   1.601 -0.7403 -0.5245  0.3741
   78MOL0     C10421  -2.052   9.426   1.669  0.6034  0.3029 -0.1842
   78MOL0     C10422  -2.181   9.449   1.625  0.0548 -0.0091  0.2012
   78MOL0     C10423  -2.256   9.532   1.723  0.6646 -0.0669 -0.0783
   78MOL0     C10424  -2.230   9.390   1.505  0.0508 -0.1450  0.0356
   78MOL0     C10425  -2.373   9.411   1.451 -0.5577 -0.2427  0.6067
   78MOL0     O10426  -2.463   9.492   1.514  0.1841 -0.4002  0.2329
   78MOL0     C10427  -2.595   9.494   1.469 -0.2590  0.3093 -0.1093
   78MOL0     C10428  -2.685   9.498   1.581 -0.5529  0.1888 -0.4470
   78MOL0     C10429  -2.819   9.487   1.554  0.5108  0.2603  0.5221
   78MOL0     C10430  -2.873   9.476   1.419 -0.1724  0.0795 -0.5252
   78MOL0     O10431  -3.007   9.460   1.391  0.2141 -0.0311 -0.0345
   78MOL0     C10432  -3.099   9.431   1.495 -0.6141  0.7449 -0.6853
   78MOL0     C10433  -3.154   9.560   1.551 -0.0078  0.4550 -0.6514
   78MOL0     C10434  -3.264   9.600   1.458  0.7544  0.0688  0.2079
   78MOL0     C10435  -3.360   9.720   1.503 -0.1265 -0.1703 -0.0329
   78MOL0     C10436  -3.448   9.763   1.382 -0.5816  0.8137 -0.2514
   78MOL0     C10437  -3.563   9.663   1.354 -0.6007  0.5161  0.4162
   78MOL0     C10438  -3.629   9.702   1.223  0.0422 -0.5304 -0.4647
   78MOL0     C10439  -3.774   9.656   1.198  0.4087  0.3497  0.1582
   78MOL0    Cl10440  -3.764   9.482   1.143  0.2390  0.0356 -0.0407
   78MOL0     C10441  -2.783   9.480   1.310  0.2068  0.3818  0.3034
   78MOL0     C10442  -2.645   9.496   1.339  0.3368 -0.5790  0.2859
   78MOL0     O10443  -2.389   9.357   1.341 -0.4215 -0.7575  0.4390
   78MOL0     C10444  -2.153   9.294   1.445  0.0815 -0.8467 -0.0617
   78MOL0     C10445  -2.025   9.268   1.484 -0.5093 -0.4991  0.5804
   78MOL0     N10446  -1.367   9.382   1.429  0.3688  0.0790 -0.6122
   78MOL0     N10447  -1.242   9.420   1.413 -0.3781 -0.0200 -0.3119
   78MOL0     C10448  -0.060   9.226   1.778 -0.8300  0.8068  0.2162
   78MOL0     C10449   0.076   9.165   1.765  0.2593 -1.1553 -0.9147
   78MOL0     C10450   0.521   9.199   1.874  0.0589 -0.3013  0.1807
   78MOL0     C10451   0.587   9.129   1.775 -0.3196 -0.1579 -0.3744
   78MOL0     C10452   0.727   9.127   1.776  0.3547  0.4222 -0.4707
   78MOL0     C10453   0.806   9.204   1.863 -0.2930 -0.2672 -0.5013
   78MOL0     O10454   0.949   9.215   1.860 -0.1904 -0.1581  0.0428
   78MOL0     C10455   1.029   9.122   1.786 -0.3934 -0.1024 -0.8143
   78MOL0     C10456   1.181   9.155   1.811 -0.3798  0.1312  0.7420
   78MOL0     C10457   1.226   9.269   1.728  0.1475 -0.0278 -0.7372
   78MOL0     C10458   1.219   9.405   1.810  0.3626  0.4922 -0.0028
   78MOL0     C10459   1.324   9.409   1.908  0.0707  1.3362  0.1768
   78MOL0     C10460   1.423   9.411   1.972  0.1079 -1.1888  0.4267
   78MOL0     C10461   0.733   9.284   1.958 -0.1417  0.4379 -0.3702
   78MOL0     C10462   0.602   9.267   1.978 -0.4665  0.1308 -0.0916
   78MOL0     H10463   0.238   9.467   1.760 -0.0499 -1.0740  0.8402
   78MOL0     H10464   0.005   9.553   1.807 -1.1836 -1.5373  0.6741
   78MOL0     H10465  -0.325   9.566   1.749  1.7100 -0.2478  0.0785
   78MOL0     H10466  -0.196   9.534   1.632 -1.7429  0.2128 -1.7668
   78MOL0     H10467  -0.315   9.331   1.551 -0.0151  2.8882 -3.4904
   78MOL0     H10468  -0.418   9.341   1.700 -0.8207  0.7867 -0.9971
   78MOL0     H10469  -0.532   9.543   1.606 -0.3484 -0.5414 -0.5342
   78MOL0     H10470  -0.421   9.546   1.464  0.0115  2.7895  1.9512
   78MOL0     H10471  -0.563   9.445   1.360 -0.9597  1.9532  1.0121
   78MOL0     H10472  -0.513   9.304   1.446 -0.5853 -0.0859  2.3719
   78MOL0     H10473  -0.691   9.334   1.613  1.7784  0.6872  0.3060
   78MOL0     H10474  -0.732   9.497   1.539 -0.1058 -0.7766 -1.7091
   78MOL0     H10475  -0.776   9.348   1.332  4.1568 -1.7538  0.5891
   78MOL0     H10476  -0.777   9.218   1.460  1.4098  0.0608  0.4842
   78MOL0     H10477  -0.970   9.322   1.571 -1.8992 -0.6723  0.2777
   78MOL0     H10478  -0.965   9.460   1.469  1.4317 -0.2438  0.1946
   78MOL0     H10479  -1.013   9.180   1.348 -1.9568 -0.9467  0.2644
   78MOL0     H10480  -1.005   9.331   1.261  3.6400  0.0119  1.7131
   78MOL0     H10481  -1.219   9.095   1.408  0.6239 -0.2136  2.4838
   78MOL0     H10482  -1.537   9.124   1.378 -0.5928  0.5635  0.4954
   78MOL0     H10483  -1.439   9.061   1.511 -0.4972 -0.1067  0.8088
   78MOL0     H10484  -1.588   9.320   1.533  3.7168  0.5229 -1.3555
   78MOL0     H10485  -1.506   9.234   1.669 -2.5575  1.4844  1.2778
   78MOL0     H10486  -1.670   9.051   1.639  1.2524  0.2624  0.1234
   78MOL0     H10487  -1.743   9.137   1.504 -0.9902 -0.4512  0.3231
   78MOL0     H10488  -1.756   9.249   1.794 -1.4647  2.7901 -0.5967
   78MOL0     H10489  -1.875   9.139   1.724  0.3423  0.0125 -0.5853
   78MOL0     H10490  -2.019   9.470   1.762  1.0528  0.1145 -0.2527
   78MOL0     H10491  -2.190   9.565   1.803 -1.1756  1.7807  0.7752
   78MOL0     H10492  -2.313   9.616   1.681  0.4374  1.0919  2.3875
   78MOL0     H10493  -2.334   9.470   1.768  1.0481 -0.4911  0.0047
   78MOL0     H10494  -2.649   9.497   1.684 -1.5135 -0.4610 -0.1039
   78MOL0     H10495  -2.891   9.493   1.636  1.8019  1.8401  1.6153
   78MOL0     H10496  -3.173   9.367   1.447  1.2352 -0.8201 -1.5736
   78MOL0     H10497  -3.051   9.362   1.565 -2.7931 -0.8887 -0.6989
   78MOL0     H10498  -3.187   9.538   1.653  0.7656 -0.6823 -0.6184
   78MOL0     H10499  -3.076   9.635   1.563 -0.5345  0.7351  1.2842
   78MOL0     H10500  -3.326   9.512   1.435 -1.2934  1.5312 -0.1129
   78MOL0     H10501  -3.221   9.633   1.363 -2.5878  2.6307 -0.5968
   78MOL0     H10502  -3.424   9.684   1.584 -1.5367  1.0966 -0.5179
   78MOL0     H10503  -3.310   9.812   1.537 -2.1882  1.4507 -1.1105
   78MOL0     H10504  -3.382   9.779   1.296 -0.8740  1.8928 -0.2899
   78MOL0     H10505  -3.492   9.862   1.398 -0.1648  1.0348 -0.4709
   78MOL0     H10506  -3.526   9.561   1.337  0.3103  0.4988  2.2547
   78MOL0     H10507  -3.635   9.666   1.437  1.2643  0.2971  2.1071
   78MOL0     H10508  -3.575   9.656   1.139 -0.2551  0.9376 -1.5140
   78MOL0     H10509  -3.636   9.810   1.208 -0.3240 -0.5067 -0.1242
   78MOL0     H10510  -3.817   9.723   1.123  3.4253 -0.5196 -2.5713
   78MOL0     H10511  -3.837   9.660   1.287 -0.3209 -3.6185 -0.0348
   78MOL0     H10512  -2.826   9.472   1.210  0.9717  0.8019 -0.0739
   78MOL0     H10513  -2.579   9.484   1.253  0.1804  1.8398 -0.2393
   78MOL0     H10514  -2.193   9.246   1.356  0.7837 -2.8040  0.6363
   78MOL0     H10515  -1.972   9.196   1.422 -2.1424  0.2362 -1.7870
   78MOL0     H10516  -0.150   9.166   1.783 -0.9184  0.9695  0.6757
   78MOL0     H10517   0.095   9.059   1.778  0.1970 -1.3117 -1.9814
   78MOL0     H10518   0.529   9.078   1.699 -2.4821 -2.6905  2.7270
   78MOL0     H10519   0.782   9.064   1.706 -0.8862 -0.4747 -0.6664
   78MOL0     H10520   1.014   9.022   1.827 -2.3569  1.5186  2.9340
   78MOL0     H10521   0.998   9.125   1.681 -0.6425  2.3888 -0.7251
   78MOL0     H10522   1.242   9.070   1.779 -2.4278 -0.9749 -0.4382
   78MOL0     H10523   1.193   9.169   1.919  3.0474  0.3496  0.4348
   78MOL0     H10524   1.166   9.276   1.637 -1.3074 -1.9036  0.0151
   78MOL0     H10525   1.329   9.256   1.694  1.0059  2.8369  0.3833
   78MOL0     H10526   1.124   9.402   1.865  0.1225  0.0161 -0.4421
   78MOL0     H10527   1.214   9.491   1.742 -4.9628  0.2063 -0.4235
   78MOL0     H10528   1.517   9.426   2.022  0.7058  1.5174 -1.2952
   78MOL0     H10529   0.783   9.356   2.022  1.0495  1.4417 -2.3564
   78MOL0     H10530   0.557   9.330   2.054  1.1278 -1.4033  2.2329
   79MOL0     O10531   8.718   2.208  10.026  0.2115  0.5023 -0.2151
   79MOL0     C10532   8.737   2.299  10.106  0.7229  0.1187  0.3285
   79MOL0     O10533   8.650   2.340  10.207 -0.1609  0.0792  0.0997
   79MOL0     C10534   8.531   2.275  10.221  0.5588 -0.0987 -0.3753
   79MOL0     C10535   8.507   2.207  10.341 -0.2418  0.3448 -0.0297
   79MOL0     C10536   8.379   2.143  10.365  0.0286 -0.6031 -0.2783
   79MOL0     C10537   8.297   2.125  10.258  0.4084 -0.1960 -0.3025
   79MOL0     O10538   8.182   2.055  10.272 -0.3609  0.0921 -0.1268
   79MOL0     C10539   8.078   2.122  10.342  0.1224  0.6431 -0.2390
   79MOL0     C10540   7.953   2.041  10.317 -0.0265  0.1723  0.1212
   79MOL0     C10541   7.838   2.090  10.405  0.1822 -0.1690  0.5052
   79MOL0     C10542   7.724   1.987  10.409 -0.0814  0.8141 -0.0354
   79MOL0     C10543   7.607   2.012  10.504  0.7033  0.8089 -0.2183
   79MOL0     C10544   7.519   1.886  10.516 -0.6813 -0.6879 -0.1428
   79MOL0     C10545   7.411   1.913  10.619  0.3658  0.3441  0.1962
   79MOL0     C10546   7.309   2.021  10.571  0.5488  0.1076 -0.2132
   79MOL0     N10547   7.224   2.043  10.690  0.1331  0.0697 -0.6987
   79MOL0     C10548   7.133   1.955  10.743 -0.3779  0.5355  0.3339
   79MOL0     C10549   7.096   1.994  10.861  0.8911 -0.4158  0.2771
   79MOL0     C10550   6.984   1.955  10.949 -0.0091  0.7304 -0.7036
   79MOL0     C10551   6.860   2.035  10.914 -0.2482 -0.5027  0.2231
   79MOL0     C10552   6.741   2.018  11.014  1.0343  0.1658 -0.2032
   79MOL0     C10553   6.615   2.095  10.967 -0.0617 -0.4264 -0.4851
   79MOL0     O10554   6.578   2.204  11.055 -0.4807 -1.3626 -0.0725
   79MOL0     C10555   6.493   2.184  11.163  0.1871 -0.1498 -0.0154
   79MOL0     C10556   6.417   2.290  11.203  1.1540  0.4185  0.0928
   79MOL0     C10557   6.325   2.289  11.314 -0.6981 -0.2519 -0.4235
   79MOL0     C10558   6.252   2.422  11.342 -0.1175  0.8423  0.3828
   79MOL0     C10559   6.310   2.171  11.384  0.3532  0.2546 -1.0659
   79MOL0     C10560   6.220   2.152  11.500  0.1123  0.8959 -1.2046
   79MOL0     O10561   6.243   2.034  11.569  0.5087  0.0987  0.3906
   79MOL0     C10562   6.176   2.030  11.694 -0.0762 -0.1176 -0.2448
   79MOL0     C10563   6.051   1.964  11.698  0.4314  0.1718  0.7183
   79MOL0     C10564   5.987   1.939  11.821 -0.5812  0.2358  1.0616
   79MOL0     C10565   6.050   1.964  11.940 -0.4245  0.4007 -0.1792
   79MOL0     O10566   5.995   1.934  12.064 -0.5905 -0.2416  1.1984
   79MOL0     C10567   6.001   1.796  12.110 -0.2453  0.3004  0.0881
   79MOL0     C10568   5.903   1.798  12.233  0.3660 -0.2430 -0.4645
   79MOL0     C10569   5.755   1.807  12.186  1.0946  0.3722  0.5376
   79MOL0     C10570   5.645   1.809  12.290  0.3559 -0.3138 -0.1268
   79MOL0     C10571   5.504   1.781  12.233  1.0670  0.2709  1.1826
   79MOL0     C10572   5.469   1.876  12.124  0.1858  0.4599 -0.6131
   79MOL0     C10573   5.437   2.012  12.161  0.0135  0.6560  0.0331
   79MOL0     C10574   5.289   2.030  12.216 -0.4915  0.2867  0.0413
   79MOL0    Cl10575   5.155   2.010  12.091  0.5495  0.1791  0.0510
   79MOL0     C10576   6.177   2.026  11.934 -0.1698  0.1896  0.2365
   79MOL0     C10577   6.243   2.063  11.813  0.2414  0.1811  0.0693
   79MOL0     O10578   6.142   2.243  11.535  0.6760  0.2350 -0.5176
   79MOL0     C10579   6.388   2.063  11.346  0.3073  0.1327 -1.2636
   79MOL0     C10580   6.471   2.066  11.228 -0.5578 -0.0809 -0.9030
   79MOL0     N10581   7.175   2.104  10.886  0.4540 -0.5132  0.0837
   79MOL0     N10582   7.242   2.141  10.784 -0.0070  0.8391  0.2279
   79MOL0     C10583   8.331   2.176  10.127  0.0909 -0.1232 -0.5785
   79MOL0     C10584   8.446   2.257  10.120  0.3520 -0.2118  0.0079
   79MOL0     C10585   8.864   2.369  10.088  0.7091  0.5967 -0.1235
   79MOL0     C10586   8.895   2.474  10.172 -0.2562  0.4487  0.2771
   79MOL0     C10587   9.020   2.541  10.162  0.0636  0.2666  0.3312
   79MOL0     C10588   9.121   2.488  10.086 -0.3892  0.2485  0.0611
   79MOL0     O10589   9.245   2.544  10.097  0.6401 -0.2689 -0.0995
   79MOL0     C10590   9.366   2.479  10.057 -0.0421  0.0632  0.7167
   79MOL0     C10591   9.395   2.512   9.915 -0.1915 -0.8516  0.2903
   79MOL0     C10592   9.444   2.654   9.890  0.4140 -0.5299 -0.0539
   79MOL0     C10593   9.597   2.665   9.877 -0.7050 -0.7259  0.1974
   79MOL0     C10594   9.667   2.672  10.002 -0.4347  0.4253  0.6774
   79MOL0     C10595   9.746   2.686  10.093 -0.1707  0.0824 -0.4501
   79MOL0     C10596   9.090   2.384   9.998  0.5434  0.1050  0.3362
   79MOL0     C10597   8.960   2.320   9.998  0.3471  0.1589 -0.4084
   79MOL0     H10598   8.582   2.207  10.419 -1.1760 -1.1268  0.9376
   79MOL0     H10599   8.358   2.112  10.467  4.1729  2.4836  1.8500
   79MOL0     H10600   8.099   2.120  10.449 -1.3053 -0.6114  0.0470
   79MOL0     H10601   8.066   2.224  10.305  2.7626  2.0661  2.3728
   79MOL0     H10602   7.916   2.061  10.216  0.4647  1.5104  0.1760
   79MOL0     H10603   7.976   1.934  10.318  1.7810  0.3286 -3.9575
   79MOL0     H10604   7.873   2.113  10.506 -0.5614 -2.3602  1.3146
   79MOL0     H10605   7.801   2.188  10.371  0.4414 -0.4707 -0.7092
   79MOL0     H10606   7.686   1.980  10.307 -1.9433 -1.7681  0.7198
   79MOL0     H10607   7.766   1.890  10.437  0.7157  0.8108 -1.1730
   79MOL0     H10608   7.640   2.024  10.607 -0.2609 -3.6509  0.8102
   79MOL0     H10609   7.548   2.100  10.476 -1.7625 -0.8569 -0.6013
   79MOL0     H10610   7.468   1.871  10.420  1.3826  3.3901 -2.1450
   79MOL0     H10611   7.582   1.798  10.533  1.6666  0.7598 -0.8264
   79MOL0     H10612   7.358   1.822  10.648 -1.3973  1.8406  2.0054
   79MOL0     H10613   7.455   1.948  10.713  0.3758 -2.0210  1.1540
   79MOL0     H10614   7.238   1.974  10.502 -1.2472 -2.9051  3.2865
   79MOL0     H10615   7.352   2.116  10.541 -1.8341  1.2022 -0.4313
   79MOL0     H10616   7.100   1.871  10.683 -0.8919  0.8885  0.1250
   79MOL0     H10617   6.962   1.848  10.937  0.1365  0.4472  1.2285
   79MOL0     H10618   7.007   1.976  11.054  1.1288  0.5068 -0.8948
   79MOL0     H10619   6.823   2.014  10.814 -0.9467 -1.1787  0.6076
   79MOL0     H10620   6.896   2.138  10.919  0.1133 -0.6548  1.0958
   79MOL0     H10621   6.763   2.059  11.113 -0.0105  1.3462 -0.4400
   79MOL0     H10622   6.719   1.912  11.029 -1.0615  0.6074  0.2165
   79MOL0     H10623   6.527   2.034  10.946 -1.3850  1.0325  0.6297
   79MOL0     H10624   6.631   2.141  10.869 -1.3480  0.7857 -0.1603
   79MOL0     H10625   6.444   2.387  11.160 -2.8054  0.6247 -2.4582
   79MOL0     H10626   6.301   2.506  11.291  0.7759 -0.2927 -0.6830
   79MOL0     H10627   6.145   2.416  11.324  0.0549  0.5568 -0.5952
   79MOL0     H10628   6.268   2.454  11.446  0.2315  0.4723  0.4433
   79MOL0     H10629   6.000   1.940  11.605  3.1514  0.4546 -0.9395
   79MOL0     H10630   5.888   1.896  11.803  0.1799 -1.6374  1.1019
   79MOL0     H10631   5.956   1.728  12.037  2.5397 -1.2452 -0.3426
   79MOL0     H10632   6.102   1.756  12.126 -0.7970 -2.2641 -2.0075
   79MOL0     H10633   5.918   1.706  12.291  2.3884  0.8439  0.8578
   79MOL0     H10634   5.918   1.887  12.294 -3.0162  0.1826 -0.0826
   79MOL0     H10635   5.742   1.714  12.130 -2.9422  1.8247 -1.3759
   79MOL0     H10636   5.742   1.887  12.113  0.0634  0.1929  0.5050
   79MOL0     H10637   5.668   1.729  12.361 -0.1067  0.4973  0.9743
   79MOL0     H10638   5.645   1.905  12.341  2.6226 -1.4078  2.1893
   79MOL0     H10639   5.429   1.779  12.313  1.4670 -0.0829  1.5564
   79MOL0     H10640   5.497   1.677  12.203 -1.0641  1.1506 -1.7919
   79MOL0     H10641   5.541   1.865  12.043  0.3186 -1.8807 -0.2422
   79MOL0     H10642   5.378   1.828  12.088  0.0751 -0.0127  0.2685
   79MOL0     H10643   5.428   2.073  12.070 -2.4132 -1.2290 -1.0931
   79MOL0     H10644   5.506   2.043  12.240  0.5025 -1.9631  0.7199
   79MOL0     H10645   5.289   2.131  12.258 -2.4243  0.8303 -1.1534
   79MOL0     H10646   5.258   1.958  12.292 -0.4510 -0.6464 -0.8061
   79MOL0     H10647   6.231   2.051  12.024 -2.1071  3.0941  0.7268
   79MOL0     H10648   6.345   2.100  11.823  0.7523 -0.9282 -0.8561
   79MOL0     H10649   6.382   1.971  11.402 -0.4251 -0.8699 -2.9094
   79MOL0     H10650   6.540   1.984  11.213  2.4896  2.2608 -0.7521
   79MOL0     H10651   8.279   2.162  10.033 -0.2206  0.4316 -0.4946
   79MOL0     H10652   8.466   2.279  10.015  1.2435 -0.3532  0.1374
   79MOL0     H10653   8.824   2.529  10.234  0.3452  2.1063 -0.4339
   79MOL0     H10654   9.042   2.634  10.213 -2.1761 -0.0255  2.0023
   79MOL0     H10655   9.446   2.510  10.125  0.0962 -0.8675  0.9907
   79MOL0     H10656   9.362   2.370  10.062  1.9910 -0.2844 -2.5821
   79MOL0     H10657   9.302   2.490   9.861 -0.1391 -0.9194  0.2293
   79MOL0     H10658   9.472   2.454   9.865  0.2571  1.6443 -2.1782
   79MOL0     H10659   9.407   2.721   9.968  0.7690 -1.9607  1.4045
   79MOL0     H10660   9.381   2.677   9.803 -1.0159 -0.3826  0.9799
   79MOL0     H10661   9.632   2.760   9.835  1.6102 -0.2698  2.8791
   79MOL0     H10662   9.644   2.579   9.827 -1.4379  0.1324 -2.0990
   79MOL0     H10663   9.808   2.702  10.179 -1.4172  2.2672  0.0942
   79MOL0     H10664   9.156   2.333   9.929 -2.3586 -2.5902 -0.6707
   79MOL0     H10665   8.938   2.233   9.937  0.7972  0.6121 -1.2330
   80MOL0     O10666   3.230   3.183   6.772  0.9852 -0.0657 -0.3569
   80MOL0     C10667   3.344   3.193   6.829 -0.2569  0.5348  0.4047
   80MOL0     O10668   3.380   3.135   6.949 -0.3616 -0.0247 -0.4897
   80MOL0     C10669   3.280   3.076   7.009  0.1941  0.3139 -0.4761
   80MOL0     C10670   3.231   3.146   7.120 -0.5653  0.3933 -0.8466
   80MOL0     C10671   3.124   3.086   7.192 -0.0801  0.1700 -0.4935
   80MOL0     C10672   3.074   2.957   7.162 -0.1903  0.9523  0.9794
   80MOL0     O10673   2.983   2.903   7.247 -0.0071  0.0724 -0.4407
   80MOL0     C10674   2.878   2.813   7.212  0.5603  0.7915  0.4189
   80MOL0     C10675   2.774   2.786   7.320  0.2239 -0.3850 -0.3075
   80MOL0     C10676   2.651   2.695   7.278 -0.0728  0.6563 -0.0155
   80MOL0     C10677   2.552   2.684   7.401  0.5630 -0.1855  0.8511
   80MOL0     C10678   2.405   2.666   7.350 -0.6083  0.0715  1.2071
   80MOL0     C10679   2.301   2.657   7.466 -0.6098  1.0367  0.0857
   80MOL0     C10680   2.164   2.629   7.413  0.3848 -0.4199 -0.0793
   80MOL0     C10681   2.093   2.753   7.353  0.1152  0.0625 -0.0716
   80MOL0     N10682   1.949   2.745   7.348 -0.1358  0.5978  0.3571
   80MOL0     C10683   1.876   2.640   7.342  0.3221  0.8793  0.1284
   80MOL0     C10684   1.744   2.675   7.370  0.3100 -0.2034  0.1041
   80MOL0     C10685   1.628   2.581   7.397 -0.7591 -0.1075 -0.1720
   80MOL0     C10686   1.565   2.539   7.259 -0.3848  0.3879 -0.5035
   80MOL0     C10687   1.503   2.660   7.173 -0.0316 -0.0269  0.1268
   80MOL0     C10688   1.397   2.736   7.251 -0.3314  0.5823  0.0173
   80MOL0     O10689   1.353   2.845   7.170  0.4103 -0.0189 -0.3643
   80MOL0     C10690   1.249   2.914   7.222 -0.5335 -0.3972 -0.4994
   80MOL0     C10691   1.242   2.964   7.355 -0.4494  0.2652 -0.1288
   80MOL0     C10692   1.135   3.038   7.396  0.0969 -0.7562  0.6883
   80MOL0     C10693   1.136   3.079   7.548 -0.3571  0.1024 -0.5350
   80MOL0     C10694   1.027   3.076   7.310 -0.2180  0.0728 -0.5362
   80MOL0     C10695   0.912   3.172   7.345  0.0840 -0.3051  0.0389
   80MOL0     O10696   0.826   3.199   7.238  0.2744 -0.1303 -0.3053
   80MOL0     C10697   0.702   3.246   7.260  0.4166  1.3385  0.1405
   80MOL0     C10698   0.626   3.219   7.371 -0.0396 -0.2406  0.4553
   80MOL0     C10699   0.491   3.248   7.378  0.3426  0.0161  0.9106
   80MOL0     C10700   0.424   3.307   7.266  0.1576  0.1114  0.0010
   80MOL0     O10701   0.287   3.326   7.282  0.8357 -0.0545  0.4586
   80MOL0     C10702   0.216   3.419   7.197  0.3713  0.1499 -0.0865
   80MOL0     C10703   0.078   3.423   7.264  0.0812  0.8732  0.5292
   80MOL0     C10704  -0.009   3.541   7.214 -0.5618 -0.2314 -0.9798
   80MOL0     C10705  -0.127   3.563   7.306 -0.1134  0.0405 -0.2918
   80MOL0     C10706  -0.217   3.670   7.261  0.0975 -0.1114 -0.2154
   80MOL0     C10707  -0.320   3.635   7.155 -0.1197  0.2825 -0.7423
   80MOL0     C10708  -0.417   3.756   7.126 -0.0478  0.2431 -0.3489
   80MOL0     C10709  -0.539   3.706   7.055 -0.0938 -0.0396  0.1439
   80MOL0    Cl10710  -0.503   3.613   6.902 -0.2824  0.1428  0.0396
   80MOL0     C10711   0.504   3.347   7.158  0.1396  0.4030  0.1972
   80MOL0     C10712   0.638   3.309   7.157 -0.5688 -0.5065  0.0700
   80MOL0     O10713   0.903   3.226   7.454 -0.0998  0.9154 -0.7257
   80MOL0     C10714   1.031   3.032   7.178  0.0462  0.8353  0.4069
   80MOL0     C10715   1.141   2.941   7.138  1.2293  0.5666  0.0664
   80MOL0     N10716   1.747   2.810   7.394  0.3549 -0.1022  0.4474
   80MOL0     N10717   1.870   2.845   7.388 -0.1517 -0.3956  0.2916
   80MOL0     C10718   3.121   2.890   7.040 -0.1415 -0.2567 -1.0126
   80MOL0     C10719   3.225   2.955   6.969  0.4064  0.1432 -0.4163
   80MOL0     C10720   3.454   3.259   6.749  0.5680 -0.0868  0.0865
   80MOL0     C10721   3.423   3.335   6.633  0.1893 -0.5818 -0.9636
   80MOL0     C10722   3.524   3.364   6.547  0.3767  0.6472 -0.2918
   80MOL0     C10723   3.653   3.328   6.575  0.3468 -0.2109  1.1182
   80MOL0     O10724   3.749   3.348   6.483 -0.6433  0.6301  0.8192
   80MOL0     C10725   3.760   3.243   6.385  0.3021  0.3649 -0.1437
   80MOL0     C10726   3.900   3.254   6.324 -0.0136 -0.5028  0.5407
   80MOL0     C10727   3.912   3.381   6.246  0.1867  0.7407 -0.2913
   80MOL0     C10728   4.045   3.379   6.170  0.3989 -0.4398  0.0694
   80MOL0     C10729   4.076   3.494   6.085  0.1360 -0.0873 -0.1209
   80MOL0     C10730   4.115   3.581   6.014 -0.4109 -0.2534  0.4824
   80MOL0     C10731   3.691   3.287   6.703  0.9266  0.5493 -0.2793
   80MOL0     C10732   3.589   3.237   6.785 -0.1352  0.5265 -0.3613
   80MOL0     H10733   3.271   3.238   7.163 -1.2338 -0.5273  1.9723
   80MOL0     H10734   3.092   3.131   7.286 -1.4112  0.6162 -1.1337
   80MOL0     H10735   2.831   2.870   7.131 -0.5073  1.0002  1.1759
   80MOL0     H10736   2.906   2.712   7.181 -0.8107  0.4874  0.1260
   80MOL0     H10737   2.826   2.736   7.402 -0.8285 -0.7757  0.1300
   80MOL0     H10738   2.736   2.880   7.361  0.3009 -0.2604 -0.5169
   80MOL0     H10739   2.591   2.739   7.198 -3.4885  0.9180  2.4523
   80MOL0     H10740   2.673   2.593   7.246 -3.3160 -0.3175  0.4459
   80MOL0     H10741   2.576   2.595   7.460 -1.3248 -2.0030 -0.9360
   80MOL0     H10742   2.546   2.776   7.459 -0.3701 -0.7577  1.7007
   80MOL0     H10743   2.389   2.752   7.284  0.5506  0.5443  1.5001
   80MOL0     H10744   2.397   2.580   7.283 -0.1499  1.8624 -1.2980
   80MOL0     H10745   2.334   2.572   7.527  0.6037  2.0010  0.8108
   80MOL0     H10746   2.298   2.746   7.528 -1.2518 -0.5011  2.3770
   80MOL0     H10747   2.154   2.542   7.347  1.6721 -0.6033 -0.0629
   80MOL0     H10748   2.111   2.603   7.505 -0.2968  5.7249  1.7402
   80MOL0     H10749   2.122   2.750   7.248  0.4818  3.5297 -0.1830
   80MOL0     H10750   2.131   2.850   7.386  0.9435  0.4775 -2.1085
   80MOL0     H10751   1.921   2.543   7.325  0.5724  1.1598 -0.8708
   80MOL0     H10752   1.676   2.499   7.452  4.7214  2.3052 -0.7121
   80MOL0     H10753   1.553   2.634   7.457  1.6411  1.9840  1.2051
   80MOL0     H10754   1.490   2.462   7.279  1.1553 -0.8698  0.6257
   80MOL0     H10755   1.641   2.489   7.198  3.1746  1.2755  2.8503
   80MOL0     H10756   1.446   2.615   7.092 -0.5449  4.8835 -2.6110
   80MOL0     H10757   1.584   2.726   7.141  1.3720 -0.1942  2.9535
   80MOL0     H10758   1.426   2.775   7.349  0.2479  1.4419 -0.4813
   80MOL0     H10759   1.313   2.667   7.263 -0.8123  1.2809  0.7645
   80MOL0     H10760   1.319   2.946   7.430 -1.2072 -0.8700  0.4029
   80MOL0     H10761   1.202   3.010   7.602 -1.6928  0.4676  1.6730
   80MOL0     H10762   1.166   3.183   7.564 -2.5170  1.0309 -2.0981
   80MOL0     H10763   1.037   3.066   7.592  0.9360 -2.0005  2.0168
   80MOL0     H10764   0.680   3.178   7.456  2.3390  1.5630 -0.1057
   80MOL0     H10765   0.416   3.224   7.452 -1.8508  0.1761 -1.1316
   80MOL0     H10766   0.262   3.518   7.200 -1.9156  1.2720  0.8813
   80MOL0     H10767   0.217   3.380   7.095 -1.1571  0.1616 -0.1260
   80MOL0     H10768   0.015   3.335   7.244  2.5135 -1.2716  1.7673
   80MOL0     H10769   0.088   3.415   7.372 -0.3367 -1.7571  0.4573
   80MOL0     H10770  -0.041   3.519   7.111  0.1602  1.2050 -1.5529
   80MOL0     H10771   0.050   3.633   7.221 -3.0794  1.3967  0.3187
   80MOL0     H10772  -0.188   3.473   7.318 -0.8619  0.7791  1.6396
   80MOL0     H10773  -0.083   3.589   7.403  0.5268  0.4561 -0.6796
   80MOL0     H10774  -0.151   3.745   7.216 -0.8384  1.1041  0.3634
   80MOL0     H10775  -0.268   3.717   7.346 -1.5659 -0.0273 -1.2203
   80MOL0     H10776  -0.271   3.604   7.062  0.7244 -1.0714  0.1073
   80MOL0     H10777  -0.376   3.550   7.196  1.5849  0.4476  2.2846
   80MOL0     H10778  -0.361   3.837   7.079  1.2970  0.4216  1.4861
   80MOL0     H10779  -0.454   3.795   7.221  2.3744 -0.9965  1.1755
   80MOL0     H10780  -0.587   3.798   7.021  0.8270  0.9614  1.4250
   80MOL0     H10781  -0.611   3.657   7.122 -0.8683  1.0294  0.1125
   80MOL0     H10782   0.464   3.386   7.065  1.4178 -2.1137 -1.5432
   80MOL0     H10783   0.685   3.318   7.059 -1.1385 -2.6158 -0.4291
   80MOL0     H10784   0.953   3.066   7.111 -0.5912  1.4861  1.4591
   80MOL0     H10785   1.138   2.892   7.041 -5.3855  0.9583 -0.3501
   80MOL0     H10786   3.069   2.797   7.021  1.2176 -1.7122  1.8085
   80MOL0     H10787   3.251   2.907   6.875 -1.7292  1.7524 -1.9279
   80MOL0     H10788   3.317   3.349   6.611 -0.5436 -0.7971  2.0112
   80MOL0     H10789   3.500   3.422   6.458 -0.4325 -0.4480 -0.8061
   80MOL0     H10790   3.749   3.151   6.442 -1.2739  0.4912 -0.2106
   80MOL0     H10791   3.680   3.253   6.311 -1.4740  2.1527  1.8840
   80MOL0     H10792   3.930   3.167   6.265  1.4150  0.6642 -0.5690
   80MOL0     H10793   3.973   3.265   6.405  0.2772 -2.0631  0.5183
   80MOL0     H10794   3.910   3.462   6.319  1.7522  0.9996 -0.5090
   80MOL0     H10795   3.830   3.400   6.176  0.7852  0.6475 -1.0357
   80MOL0     H10796   4.051   3.286   6.112 -1.4925  0.7982 -2.3229
   80MOL0     H10797   4.126   3.373   6.243  0.0947 -0.2366  0.4234
   80MOL0     H10798   4.146   3.658   5.946 -0.5487  0.5713  1.3154
   80MOL0     H10799   3.797   3.271   6.717  0.9816 -1.1317 -2.2109
   80MOL0     H10800   3.614   3.174   6.870  1.4076 -1.1314 -1.9729
   81MOL0     O10801   7.426   6.453   3.575 -0.3782  0.4026 -0.5281
   81MOL0     C10802   7.427   6.332   3.537 -0.1924 -0.4110  0.3351
   81MOL0     O10803   7.311   6.255   3.519 -0.2709 -0.2446  0.5801
   81MOL0     C10804   7.189   6.304   3.553 -0.2091 -0.0141 -0.6357
   81MOL0     C10805   7.105   6.314   3.455 -0.1478 -0.8734  1.0424
   81MOL0     C10806   6.972   6.354   3.486 -0.4688 -0.0155  0.5076
   81MOL0     C10807   6.930   6.373   3.615  0.3606 -0.3139  0.3977
   81MOL0     O10808   6.801   6.392   3.648  0.3026 -0.1642 -0.3786
   81MOL0     C10809   6.723   6.484   3.567  0.3144  0.2597 -0.5480
   81MOL0     C10810   6.581   6.489   3.611  0.8664  0.0246 -1.0045
   81MOL0     C10811   6.493   6.565   3.516  0.1553  0.1631  0.0544
   81MOL0     C10812   6.349   6.565   3.582 -0.5334 -0.3545 -0.7197
   81MOL0     C10813   6.241   6.626   3.485  0.1432  0.1051  0.2927
   81MOL0     C10814   6.276   6.770   3.459  0.5184 -0.1091  0.5728
   81MOL0     C10815   6.193   6.842   3.355  0.2903  0.9636  0.1774
   81MOL0     C10816   6.044   6.880   3.418 -0.1540 -0.2822 -0.1530
   81MOL0     N10817   5.946   6.942   3.315  0.0015  0.1718 -0.3085
   81MOL0     C10818   5.959   7.069   3.265  0.9325  0.5308 -0.1973
   81MOL0     C10819   5.844   7.094   3.202 -0.1155  0.1067 -0.1837
   81MOL0     C10820   5.808   7.207   3.117  0.6565  0.2286 -0.4830
   81MOL0     C10821   5.690   7.285   3.167 -0.5614  0.4343  0.3067
   81MOL0     C10822   5.561   7.216   3.146  0.2969 -0.1856  0.3521
   81MOL0     C10823   5.448   7.315   3.144 -0.8857 -0.2147  0.1456
   81MOL0     O10824   5.380   7.317   3.264 -0.1984 -0.1816 -0.5475
   81MOL0     C10825   5.248   7.349   3.255 -0.0791  0.3187  1.0172
   81MOL0     C10826   5.199   7.453   3.169 -1.1719 -1.1145 -0.0053
   81MOL0     C10827   5.058   7.466   3.149 -0.0202  0.2278  0.4826
   81MOL0     C10828   5.022   7.567   3.042 -0.0908  0.3577  0.6850
   81MOL0     C10829   4.970   7.383   3.218 -0.6334 -0.1715 -0.5615
   81MOL0     C10830   4.820   7.396   3.215 -1.0149  0.0158 -0.6646
   81MOL0     O10831   4.766   7.457   3.109  0.1234 -0.7121 -0.8295
   81MOL0     C10832   4.637   7.497   3.126 -0.3240 -0.1557  0.4804
   81MOL0     C10833   4.525   7.419   3.092 -0.2806 -0.8708 -0.2195
   81MOL0     C10834   4.391   7.465   3.115 -0.5966 -0.3237 -0.0989
   81MOL0     C10835   4.371   7.595   3.156  0.3521 -0.4365 -0.6159
   81MOL0     O10836   4.251   7.664   3.156  0.2911 -0.4793 -0.0996
   81MOL0     C10837   4.134   7.604   3.097 -0.0816 -0.6844  0.2128
   81MOL0     C10838   4.037   7.719   3.066  0.2631 -0.2565 -0.2403
   81MOL0     C10839   4.080   7.789   2.933 -0.0573 -0.0812 -0.1005
   81MOL0     C10840   3.999   7.912   2.921 -0.0545 -1.0933 -0.0302
   81MOL0     C10841   3.995   7.970   2.783 -0.1314  0.3192  0.7851
   81MOL0     C10842   3.890   7.904   2.682  0.3655 -0.7187  0.7222
   81MOL0     C10843   3.859   7.997   2.557 -1.0700 -0.0730 -0.5600
   81MOL0     C10844   3.987   8.002   2.470 -1.0443 -0.4441 -0.4297
   81MOL0    Cl10845   4.040   7.844   2.407  0.7147 -0.0048 -0.2156
   81MOL0     C10846   4.484   7.669   3.194  0.5062 -0.3818 -0.4944
   81MOL0     C10847   4.612   7.624   3.176 -0.2024 -0.8775  0.0810
   81MOL0     O10848   4.757   7.341   3.304  0.0149  0.8642  0.9335
   81MOL0     C10849   5.028   7.302   3.309  0.0571  0.4963 -0.5004
   81MOL0     C10850   5.159   7.286   3.332  0.9972  0.3571  0.3156
   81MOL0     N10851   5.767   6.987   3.214 -0.5326  0.2629  1.0930
   81MOL0     N10852   5.822   6.900   3.294 -0.1610 -0.8004 -0.5762
   81MOL0     C10853   7.017   6.354   3.715 -0.2424  0.5677  0.3700
   81MOL0     C10854   7.147   6.320   3.683  0.1032 -0.9281 -0.3597
   81MOL0     C10855   7.552   6.254   3.517 -0.3040  0.4190  0.5163
   81MOL0     C10856   7.678   6.308   3.520 -0.8711 -1.4086  0.7480
   81MOL0     C10857   7.796   6.233   3.501  0.2821 -0.6574 -0.4774
   81MOL0     C10858   7.788   6.099   3.481 -0.7181 -0.2231 -0.4857
   81MOL0     O10859   7.903   6.027   3.476 -0.1231 -0.0641 -0.0364
   81MOL0     C10860   7.918   5.947   3.360 -0.3551  0.3452 -0.4991
   81MOL0     C10861   7.932   6.028   3.222 -0.0145 -0.1528  0.2654
   81MOL0     C10862   8.035   6.140   3.205  0.6885  0.1169 -0.5407
   81MOL0     C10863   8.176   6.088   3.236  0.7758  0.0228  0.1521
   81MOL0     C10864   8.224   5.971   3.160  0.2851 -0.4799 -0.7240
   81MOL0     C10865   8.282   5.883   3.100  0.4270 -0.1209  0.3065
   81MOL0     C10866   7.669   6.038   3.476  0.2101 -1.5826 -0.5701
   81MOL0     C10867   7.547   6.114   3.491 -0.1092 -1.6219 -0.5022
   81MOL0     H10868   7.127   6.292   3.351 -2.5137  0.4895  0.1818
   81MOL0     H10869   6.912   6.365   3.397  2.4615  0.0558 -1.5812
   81MOL0     H10870   6.779   6.578   3.567 -2.3358  1.9537 -2.0962
   81MOL0     H10871   6.725   6.448   3.464 -2.0809 -1.5934 -0.0672
   81MOL0     H10872   6.538   6.389   3.621  1.3021  0.0441  2.0697
   81MOL0     H10873   6.575   6.529   3.713 -1.3815 -0.2363 -0.9749
   81MOL0     H10874   6.535   6.664   3.500  2.7054 -0.6670  1.0812
   81MOL0     H10875   6.482   6.514   3.420  1.4792  2.5555 -1.4592
   81MOL0     H10876   6.320   6.465   3.616 -1.6153  0.9326  2.5636
   81MOL0     H10877   6.360   6.636   3.665  1.6269  1.2713 -2.2683
   81MOL0     H10878   6.248   6.572   3.390  0.4550 -1.2826  1.0742
   81MOL0     H10879   6.146   6.611   3.536  0.1342  2.2065  0.9682
   81MOL0     H10880   6.267   6.830   3.550  2.5707 -0.0610  0.8025
   81MOL0     H10881   6.381   6.777   3.430  0.0026  0.8170 -1.1789
   81MOL0     H10882   6.232   6.939   3.322 -1.5402  1.6078 -0.2283
   81MOL0     H10883   6.180   6.775   3.269  1.3476  1.9364 -0.7879
   81MOL0     H10884   6.050   6.941   3.508 -1.4789  0.3571 -0.4795
   81MOL0     H10885   6.005   6.787   3.461  0.3791  0.9002  3.1375
   81MOL0     H10886   6.046   7.134   3.274  0.9497  0.3746  1.0453
   81MOL0     H10887   5.892   7.277   3.124  1.1087 -0.3332 -0.1919
   81MOL0     H10888   5.791   7.176   3.014 -2.3594  0.6151 -0.1839
   81MOL0     H10889   5.701   7.379   3.112  0.0814 -0.9207 -1.9727
   81MOL0     H10890   5.704   7.304   3.274  1.0006  1.7040 -0.0909
   81MOL0     H10891   5.539   7.152   3.232 -1.0500 -0.0319  0.1366
   81MOL0     H10892   5.565   7.162   3.051 -0.3842 -3.0434  1.8514
   81MOL0     H10893   5.384   7.280   3.063 -0.6444 -0.8276  0.2114
   81MOL0     H10894   5.478   7.418   3.124 -0.3816  0.2482  2.8985
   81MOL0     H10895   5.266   7.524   3.122 -1.1421 -1.2429 -0.1528
   81MOL0     H10896   4.967   7.646   3.094  0.3933  4.0313 -3.7063
   81MOL0     H10897   5.113   7.605   2.994  1.2876 -2.4781  0.8038
   81MOL0     H10898   4.965   7.533   2.956  0.0867 -0.7354  0.9868
   81MOL0     H10899   4.549   7.317   3.064 -0.2306 -0.8694 -0.1816
   81MOL0     H10900   4.310   7.396   3.092 -1.7211  0.7308  0.5756
   81MOL0     H10901   4.154   7.553   3.002  0.6394  0.4284 -0.2600
   81MOL0     H10902   4.078   7.537   3.162 -1.1979  0.5530  0.5706
   81MOL0     H10903   3.932   7.690   3.070 -0.1205  1.1092  0.2453
   81MOL0     H10904   4.051   7.789   3.149  2.0691  0.4524 -1.0758
   81MOL0     H10905   4.067   7.715   2.853 -0.8460 -0.9467  0.8050
   81MOL0     H10906   4.184   7.823   2.930 -0.7089  2.0350 -0.6955
   81MOL0     H10907   3.896   7.896   2.954 -0.5252  0.0641 -0.8806
   81MOL0     H10908   4.037   7.992   2.985 -1.4963  0.7984 -1.3912
   81MOL0     H10909   4.093   7.975   2.736 -0.6268 -0.4195 -0.3537
   81MOL0     H10910   3.973   8.077   2.788  1.0734  0.5581  1.3374
   81MOL0     H10911   3.917   7.803   2.650  1.2955 -0.1691 -0.2547
   81MOL0     H10912   3.796   7.897   2.738  0.8719  0.4654  1.7612
   81MOL0     H10913   3.816   8.093   2.586 -2.4995 -0.8881  0.1436
   81MOL0     H10914   3.779   7.955   2.495 -2.5530  0.5699  0.8430
   81MOL0     H10915   4.074   8.035   2.526 -0.3904 -0.1581 -1.5737
   81MOL0     H10916   3.962   8.073   2.391  0.2625 -0.8757 -1.2560
   81MOL0     H10917   4.472   7.768   3.238  0.3892  0.4064 -2.2182
   81MOL0     H10918   4.696   7.686   3.203 -3.3586  2.4547  3.4113
   81MOL0     H10919   4.970   7.231   3.367 -1.3505  1.3701 -0.7949
   81MOL0     H10920   5.196   7.210   3.400 -1.5861 -0.4337  0.9473
   81MOL0     H10921   6.990   6.358   3.820  2.2496  0.0066  1.1132
   81MOL0     H10922   7.221   6.299   3.759  0.1807 -1.8721 -0.6737
   81MOL0     H10923   7.692   6.415   3.529 -0.3524 -1.2672 -1.3109
   81MOL0     H10924   7.890   6.287   3.509 -0.6678  0.8554  1.3770
   81MOL0     H10925   8.002   5.877   3.371  0.6147  1.5830  0.3009
   81MOL0     H10926   7.830   5.883   3.352 -0.8139  0.3332  3.0469
   81MOL0     H10927   7.835   6.076   3.207  0.1546  1.8299  4.1501
   81MOL0     H10928   7.957   5.961   3.139  1.1778  0.4134  0.1419
   81MOL0     H10929   8.009   6.224   3.269  0.4614  0.7607 -1.4574
   81MOL0     H10930   8.024   6.187   3.107  0.7518 -0.9627 -1.0797
   81MOL0     H10931   8.191   6.074   3.343 -1.3672  0.7863  0.5976
   81MOL0     H10932   8.226   6.180   3.204 -2.1928  1.9194  0.5501
   81MOL0     H10933   8.329   5.809   3.040  2.0892  0.8278  0.3809
   81MOL0     H10934   7.668   5.931   3.457 -1.2066 -1.4685 -1.2771
   81MOL0     H10935   7.455   6.058   3.479 -0.7880 -0.1359 -2.8057
   82MOL0     O10936   7.482   2.290   8.609 -0.3970 -0.0106  0.4426
   82MOL0     C10937   7.569   2.374   8.589  0.2906 -0.1635  0.6693
   82MOL0     O10938   7.598   2.439   8.465  0.3733  0.8990 -0.7568
   82MOL0     C10939   7.516   2.402   8.361 -0.1987  0.1523 -0.3951
   82MOL0     C10940   7.378   2.422   8.363  0.5171 -0.0327  0.7823
   82MOL0     C10941   7.302   2.372   8.254 -0.2704 -0.0451  0.8485
   82MOL0     C10942   7.371   2.334   8.136  0.1821 -0.2658  0.1935
   82MOL0     O10943   7.278   2.303   8.038 -0.8944 -0.3224 -1.0831
   82MOL0     C10944   7.325   2.266   7.911 -0.3010  0.7622  0.9613
   82MOL0     C10945   7.216   2.207   7.825  0.0449 -0.5082 -0.1812
   82MOL0     C10946   7.104   2.309   7.797  0.7684 -0.2379  0.6054
   82MOL0     C10947   6.981   2.236   7.729  0.2789 -0.1985  0.2822
   82MOL0     C10948   6.871   2.337   7.675 -0.0172 -0.0758  0.3307
   82MOL0     C10949   6.747   2.258   7.635 -0.4749 -0.9290  0.0519
   82MOL0     C10950   6.648   2.341   7.561  0.1807 -0.6809 -0.3317
   82MOL0     C10951   6.525   2.257   7.531 -0.0427  0.0825  0.0711
   82MOL0     N10952   6.423   2.351   7.481  0.1122 -0.1561 -0.1049
   82MOL0     C10953   6.325   2.410   7.559  0.3477  0.1424 -0.5120
   82MOL0     C10954   6.263   2.504   7.483  0.0804  0.1138 -1.2578
   82MOL0     C10955   6.159   2.614   7.518  0.0634 -1.2004  0.5543
   82MOL0     C10956   6.028   2.556   7.541  0.1139  0.1501 -1.1298
   82MOL0     C10957   5.928   2.650   7.614  0.2598 -0.1086 -0.3232
   82MOL0     C10958   5.785   2.618   7.592  1.0165  0.3808 -0.7944
   82MOL0     O10959   5.750   2.509   7.680  0.1674 -0.8600  0.6499
   82MOL0     C10960   5.614   2.491   7.697 -0.3055  0.7180 -0.3598
   82MOL0     C10961   5.519   2.515   7.592 -0.5919  0.1786 -0.0740
   82MOL0     C10962   5.390   2.476   7.602 -0.1274  0.2414  0.1471
   82MOL0     C10963   5.303   2.511   7.484 -0.6844  0.0023 -0.0558
   82MOL0     C10964   5.351   2.405   7.718 -0.7342 -0.1388 -0.5393
   82MOL0     C10965   5.213   2.357   7.736  0.7852 -1.1514 -0.0903
   82MOL0     O10966   5.130   2.358   7.630  0.3175  0.5036 -0.7038
   82MOL0     C10967   5.002   2.296   7.620  0.1895  0.7840  0.3737
   82MOL0     C10968   4.907   2.351   7.532  0.4338  1.2207 -0.0904
   82MOL0     C10969   4.774   2.299   7.536 -0.2905 -0.5992  0.8826
   82MOL0     C10970   4.734   2.185   7.616 -0.0078 -0.2473  0.0151
   82MOL0     O10971   4.610   2.136   7.623  0.0240  0.5017 -0.0854
   82MOL0     C10972   4.499   2.223   7.631 -0.7199 -0.3813 -0.4160
   82MOL0     C10973   4.386   2.146   7.701 -0.0207 -0.2898 -0.0978
   82MOL0     C10974   4.411   2.126   7.851 -0.8279  0.1722  0.9213
   82MOL0     C10975   4.286   2.067   7.923 -0.1201  0.7248  0.4097
   82MOL0     C10976   4.256   1.925   7.866 -0.1319  0.9131  0.9104
   82MOL0     C10977   4.138   1.866   7.933  0.3420  0.3521 -1.1020
   82MOL0     C10978   4.135   1.715   7.894  0.3167  0.1794  0.3845
   82MOL0     C10979   4.054   1.632   7.983  0.0482  0.4824 -0.2989
   82MOL0    Cl10980   4.037   1.472   7.894  0.0872 -0.3777 -0.1178
   82MOL0     C10981   4.837   2.139   7.701 -0.4090  0.8994  0.3140
   82MOL0     C10982   4.965   2.190   7.699 -0.6298  0.1320  0.1689
   82MOL0     O10983   5.174   2.319   7.847 -0.7681  0.2092 -0.0097
   82MOL0     C10984   5.444   2.375   7.821 -0.2407 -0.2017 -0.6289
   82MOL0     C10985   5.576   2.419   7.812 -0.2896 -0.2278  0.7016
   82MOL0     N10986   6.325   2.493   7.359  0.1035 -0.0516  0.1529
   82MOL0     N10987   6.418   2.406   7.359 -0.1587 -0.4862 -0.0598
   82MOL0     C10988   7.511   2.338   8.132  0.0890  1.0030 -0.3037
   82MOL0     C10989   7.580   2.361   8.245  0.1511 -0.1789  0.1302
   82MOL0     C10990   7.649   2.422   8.709 -0.0758  0.1685 -0.1212
   82MOL0     C10991   7.609   2.387   8.845 -0.1849 -0.2930 -0.2299
   82MOL0     C10992   7.680   2.442   8.953 -0.2347 -0.2130  0.0265
   82MOL0     C10993   7.802   2.505   8.935  0.2706  0.0438 -0.3516
   82MOL0     O10994   7.855   2.566   9.052  0.2952 -0.4497 -0.0038
   82MOL0     C10995   7.997   2.534   9.071 -0.1876  0.6662 -0.2562
   82MOL0     C10996   8.010   2.395   9.135  0.3079 -0.4233 -0.3653
   82MOL0     C10997   7.965   2.384   9.284  0.2361 -0.3854 -0.3897
   82MOL0     C10998   8.066   2.444   9.381 -0.4222 -0.2597  0.5924
   82MOL0     C10999   8.030   2.440   9.523  0.6704 -0.1561 -1.0799
   82MOL0     C11000   8.010   2.417   9.639 -0.0936  0.3404 -0.3912
   82MOL0     C11001   7.848   2.534   8.807  0.2256 -0.4046  0.4229
   82MOL0     C11002   7.773   2.486   8.690 -0.3584  0.0730 -0.1101
   82MOL0     H11003   7.330   2.475   8.444  2.2284  1.4195  0.9060
   82MOL0     H11004   7.196   2.395   8.256 -0.4197 -0.7569  1.5677
   82MOL0     H11005   7.366   2.355   7.861  0.8119  0.6354  1.6182
   82MOL0     H11006   7.407   2.195   7.911 -1.6132 -0.8211  0.4885
   82MOL0     H11007   7.266   2.172   7.734  1.1900  0.6092 -0.0102
   82MOL0     H11008   7.180   2.119   7.879 -0.3902  0.2144  0.7392
   82MOL0     H11009   7.060   2.362   7.882 -1.2034 -0.0457 -0.4735
   82MOL0     H11010   7.140   2.381   7.723  1.5886  0.1794  1.3904
   82MOL0     H11011   7.019   2.180   7.644  1.3832  0.1772  0.5091
   82MOL0     H11012   6.946   2.164   7.805  1.3240  0.1506  1.1236
   82MOL0     H11013   6.852   2.410   7.754 -0.4283 -1.6353  1.7425
   82MOL0     H11014   6.901   2.385   7.582 -1.9815 -4.5333 -2.9619
   82MOL0     H11015   6.782   2.184   7.562 -0.2818 -1.2009  0.4162
   82MOL0     H11016   6.713   2.207   7.725  1.4761 -0.1648  1.2872
   82MOL0     H11017   6.631   2.426   7.627  1.1607  0.5047 -1.5415
   82MOL0     H11018   6.691   2.394   7.476 -2.2023  1.0397 -0.5680
   82MOL0     H11019   6.498   2.202   7.621 -0.8488  0.5897  0.1480
   82MOL0     H11020   6.547   2.194   7.444  3.8234  0.9025  0.2702
   82MOL0     H11021   6.308   2.384   7.663  3.3083  0.3355  0.1294
   82MOL0     H11022   6.196   2.669   7.604 -1.5734  0.4187  0.2666
   82MOL0     H11023   6.169   2.670   7.425  0.4349 -1.8784  0.1722
   82MOL0     H11024   6.027   2.472   7.611 -0.2038  2.9407  2.5441
   82MOL0     H11025   5.994   2.515   7.446 -0.6931 -0.0229 -0.7778
   82MOL0     H11026   5.937   2.749   7.570 -0.7774  0.0936 -0.1031
   82MOL0     H11027   5.947   2.659   7.722  1.8256  3.4367 -0.7801
   82MOL0     H11028   5.765   2.597   7.487  0.3199  0.0659 -0.6063
   82MOL0     H11029   5.737   2.713   7.618  1.4181  0.2989  0.3031
   82MOL0     H11030   5.550   2.566   7.502 -3.1087  0.6938 -0.7206
   82MOL0     H11031   5.363   2.558   7.406 -0.6371  0.8357  0.4695
   82MOL0     H11032   5.253   2.424   7.440 -3.2902  0.8877  0.9137
   82MOL0     H11033   5.226   2.589   7.496  0.3858  1.3372 -1.4572
   82MOL0     H11034   4.929   2.444   7.481  0.1974  0.5554 -1.4340
   82MOL0     H11035   4.701   2.357   7.481 -1.8517 -1.5515  1.8701
   82MOL0     H11036   4.520   2.321   7.675  0.4851 -0.7055 -0.2377
   82MOL0     H11037   4.479   2.227   7.524  2.3725 -0.7470 -1.1179
   82MOL0     H11038   4.285   2.188   7.697 -0.1154 -0.1114  2.5927
   82MOL0     H11039   4.385   2.049   7.650  0.4650 -1.1352  1.4342
   82MOL0     H11040   4.438   2.215   7.907  2.6643 -0.2436  0.1688
   82MOL0     H11041   4.500   2.063   7.865 -1.1582 -0.3501  0.7148
   82MOL0     H11042   4.304   2.062   8.031  0.4055  0.9252  0.3333
   82MOL0     H11043   4.199   2.133   7.916  0.1159  1.4684  3.2339
   82MOL0     H11044   4.342   1.859   7.882 -0.4280 -0.0528 -1.0422
   82MOL0     H11045   4.234   1.917   7.759 -0.7486  1.3592  0.9978
   82MOL0     H11046   4.149   1.883   8.041 -0.9101 -0.2152 -0.8729
   82MOL0     H11047   4.050   1.916   7.892 -0.8726  0.1242  1.0712
   82MOL0     H11048   4.234   1.670   7.900  0.5995  0.8600  0.9418
   82MOL0     H11049   4.114   1.709   7.787 -0.0119 -0.0640  0.4629
   82MOL0     H11050   3.953   1.671   8.002 -1.5065 -3.8024  1.4509
   82MOL0     H11051   4.099   1.617   8.082 -0.9857 -0.0888  0.1026
   82MOL0     H11052   4.808   2.063   7.772 -1.4419 -1.3538 -2.3493
   82MOL0     H11053   5.037   2.146   7.768  0.0849 -0.0915 -0.7087
   82MOL0     H11054   5.416   2.310   7.904  2.0467  0.2252  0.5540
   82MOL0     H11055   5.655   2.394   7.882  1.0147 -0.4455 -0.7934
   82MOL0     H11056   7.554   2.296   8.042 -0.9655 -2.0786  0.4799
   82MOL0     H11057   7.688   2.350   8.254  0.7388  2.5990 -2.2015
   82MOL0     H11058   7.520   2.328   8.861 -1.4162  1.3466 -0.6975
   82MOL0     H11059   7.645   2.419   9.053 -0.0282 -1.4411 -0.1614
   82MOL0     H11060   8.038   2.527   8.970 -0.1191  2.6266 -0.4189
   82MOL0     H11061   8.057   2.607   9.127  2.0428 -1.0304 -0.2988
   82MOL0     H11062   8.112   2.355   9.126  1.4428  2.4292 -1.3647
   82MOL0     H11063   7.940   2.326   9.087  1.5371 -0.3291 -2.4552
   82MOL0     H11064   7.946   2.286   9.329  2.1024 -1.5155 -1.8956
   82MOL0     H11065   7.878   2.450   9.292 -0.8938 -1.4421 -2.7546
   82MOL0     H11066   8.080   2.551   9.361  0.7457 -0.3167  1.0224
   82MOL0     H11067   8.161   2.394   9.364 -1.1497 -1.0941 -1.2685
   82MOL0     H11068   7.976   2.396   9.739  2.7298 -1.0371  0.3779
   82MOL0     H11069   7.936   2.598   8.805 -1.2533  1.7404  0.7526
   82MOL0     H11070   7.808   2.508   8.589  0.1662 -1.3104 -0.2601
   83MOL0     O11071   8.161   2.945  11.048  0.4874  0.2226 -0.6319
   83MOL0     C11072   8.192   2.826  11.043  0.5698  0.1376 -0.5480
   83MOL0     O11073   8.109   2.718  11.029  0.3744  0.0102 -0.4251
   83MOL0     C11074   7.978   2.745  11.032 -0.3298  0.4679  0.4307
   83MOL0     C11075   7.905   2.695  10.926  0.0594 -0.2953 -0.4115
   83MOL0     C11076   7.773   2.710  10.916  0.3701 -0.7601  0.5407
   83MOL0     C11077   7.707   2.794  11.015 -0.5657 -0.2705  0.1817
   83MOL0     O11078   7.571   2.811  11.002  0.9113  0.2246 -0.3701
   83MOL0     C11079   7.505   2.879  11.116 -0.2719 -0.9160  0.1083
   83MOL0     C11080   7.346   2.878  11.090 -0.1702  0.3468  0.0820
   83MOL0     C11081   7.283   2.921  11.216 -0.7385 -0.8527 -0.2264
   83MOL0     C11082   7.133   2.920  11.188  0.3287  0.9265 -0.1108
   83MOL0     C11083   7.063   2.955  11.317 -0.2697 -0.3693 -0.0599
   83MOL0     C11084   6.911   2.923  11.309 -0.0746 -0.8466 -0.6443
   83MOL0     C11085   6.840   2.943  11.442  0.7967 -0.0784 -0.2902
   83MOL0     C11086   6.697   2.998  11.398  0.5115  1.1563 -0.1420
   83MOL0     N11087   6.625   2.899  11.324 -0.8324  0.4575 -0.2946
   83MOL0     C11088   6.594   2.898  11.195  0.4083 -0.4085 -0.9571
   83MOL0     C11089   6.523   2.776  11.176 -0.4653 -0.0541  0.7562
   83MOL0     C11090   6.470   2.706  11.051 -0.0337 -0.4445 -0.4859
   83MOL0     C11091   6.331   2.754  11.015 -0.0816  0.4170 -0.3704
   83MOL0     C11092   6.320   2.903  10.986  0.0096  0.2062 -0.0171
   83MOL0     C11093   6.188   2.953  10.933 -0.1686  0.6711 -0.7681
   83MOL0     O11094   6.075   2.939  11.020  0.1066 -0.5731 -0.5294
   83MOL0     C11095   5.949   2.980  10.976 -0.1996 -0.6637 -0.3377
   83MOL0     C11096   5.925   3.027  10.844  0.0008  0.1677  0.1254
   83MOL0     C11097   5.794   3.057  10.803  0.4870  0.3075  0.0195
   83MOL0     C11098   5.784   3.117  10.668 -0.1344 -0.1404  0.1510
   83MOL0     C11099   5.683   3.038  10.890  0.1469 -0.3911 -0.3897
   83MOL0     C11100   5.535   3.074  10.857  0.6723 -0.4510  0.7287
   83MOL0     O11101   5.442   3.082  10.965 -0.5177 -0.6721  0.1647
   83MOL0     C11102   5.308   3.096  10.948  0.2036  0.5510  0.4720
   83MOL0     C11103   5.235   3.020  11.040  0.3979  0.2295 -0.2477
   83MOL0     C11104   5.095   3.009  11.031 -0.0361  0.8955  1.0794
   83MOL0     C11105   5.029   3.073  10.929 -0.1706 -0.4948 -0.3113
   83MOL0     O11106   4.892   3.087  10.929 -0.7212  0.0152  0.5263
   83MOL0     C11107   4.828   3.117  11.052 -1.1154  0.3643  0.0132
   83MOL0     C11108   4.704   3.193  11.034  0.3760 -0.1284  0.0169
   83MOL0     C11109   4.590   3.101  10.980 -0.3328 -0.1349  0.8541
   83MOL0     C11110   4.466   3.190  10.958 -0.2879 -0.1419  0.6942
   83MOL0     C11111   4.348   3.128  10.882  0.5983  0.1286 -0.0285
   83MOL0     C11112   4.367   3.136  10.727 -0.0811  0.0739 -0.1162
   83MOL0     C11113   4.235   3.155  10.642  0.0476  0.2158  0.6656
   83MOL0     C11114   4.134   3.045  10.661  0.4464 -0.4108 -0.0937
   83MOL0    Cl11115   3.983   3.104  10.595 -0.0820 -0.7010  0.3565
   83MOL0     C11116   5.099   3.159  10.841 -0.3490 -0.7310  0.4365
   83MOL0     C11117   5.242   3.167  10.847 -0.1672 -0.1408 -0.1804
   83MOL0     O11118   5.510   3.071  10.736  0.0996 -0.1962  0.0137
   83MOL0     C11119   5.710   2.989  11.023  0.3987 -0.2129  0.1020
   83MOL0     C11120   5.842   2.963  11.060 -0.1089  0.2264  0.3963
   83MOL0     N11121   6.526   2.714  11.300  0.0346 -0.5008 -0.2621
   83MOL0     N11122   6.586   2.791  11.396 -0.2882  0.8224 -0.3257
   83MOL0     C11123   7.774   2.856  11.121  0.2385  0.1340  0.0144
   83MOL0     C11124   7.910   2.832  11.124 -0.5077  0.1070 -0.6487
   83MOL0     C11125   8.332   2.802  11.055 -0.0393  0.4058  0.2143
   83MOL0     C11126   8.370   2.673  11.025  0.6136  0.1047  0.3010
   83MOL0     C11127   8.507   2.636  11.018 -0.8051  0.3912 -0.4728
   83MOL0     C11128   8.600   2.741  11.037 -0.2144 -0.3721  0.1175
   83MOL0     O11129   8.735   2.700  11.032 -0.0749 -0.3330  0.0727
   83MOL0     C11130   8.830   2.750  11.133 -0.1606  0.8778 -0.9012
   83MOL0     C11131   8.801   2.681  11.267 -0.7106  0.6432  0.6004
   83MOL0     C11132   8.835   2.534  11.273  0.1676  0.4425  0.5247
   83MOL0     C11133   8.989   2.508  11.279 -0.6991  0.5694 -0.3710
   83MOL0     C11134   9.020   2.364  11.277  0.3908  0.1103  0.3374
   83MOL0     C11135   9.051   2.247  11.291 -0.4124  0.4483 -1.3997
   83MOL0     C11136   8.561   2.875  11.071  0.7673 -0.1318  0.6077
   83MOL0     C11137   8.426   2.897  11.086  0.1190 -0.2357 -0.3136
   83MOL0     H11138   7.961   2.644  10.849 -0.7862  0.6496 -1.7009
   83MOL0     H11139   7.714   2.660  10.841 -1.5405 -1.1640  2.2182
   83MOL0     H11140   7.534   2.837  11.213 -2.0460  0.3400  1.2487
   83MOL0     H11141   7.538   2.983  11.105  1.0222 -1.2935  0.2654
   83MOL0     H11142   7.321   2.936  11.001  1.4203  1.3604  0.2486
   83MOL0     H11143   7.318   2.774  11.074  3.2110 -0.4445 -1.6634
   83MOL0     H11144   7.306   2.850  11.296  1.8052 -1.2676 -1.2223
   83MOL0     H11145   7.315   3.020  11.249 -1.0364 -1.5580  2.4089
   83MOL0     H11146   7.103   2.992  11.111 -2.8474  0.8130  0.8584
   83MOL0     H11147   7.112   2.823  11.143  2.1872  0.5282 -0.2016
   83MOL0     H11148   7.103   2.897  11.401  0.9079 -2.2572 -1.8327
   83MOL0     H11149   7.087   3.060  11.339  1.2395 -0.5364 -0.7465
   83MOL0     H11150   6.874   2.980  11.223 -4.0969 -0.5617  1.0254
   83MOL0     H11151   6.885   2.822  11.273 -0.3350 -1.4841  1.2532
   83MOL0     H11152   6.836   2.845  11.490  0.4246  0.0962  0.0350
   83MOL0     H11153   6.891   3.011  11.511  0.3450 -0.6245  0.6011
   83MOL0     H11154   6.706   3.091  11.340  0.8869 -0.2994 -2.5423
   83MOL0     H11155   6.635   3.015  11.486  1.2323  2.5623  0.1298
   83MOL0     H11156   6.627   2.969  11.121  1.9272  0.7593  0.7644
   83MOL0     H11157   6.536   2.727  10.967  0.3158 -1.2798 -0.4293
   83MOL0     H11158   6.464   2.598  11.068  0.8075 -0.3137  0.7266
   83MOL0     H11159   6.272   2.714  11.097 -0.9472 -2.3584 -2.2045
   83MOL0     H11160   6.309   2.698  10.924  2.2236 -2.6357  0.7573
   83MOL0     H11161   6.397   2.943  10.920  0.4132 -0.9068 -0.2451
   83MOL0     H11162   6.337   2.953  11.082 -3.3478  2.4004 -0.3781
   83MOL0     H11163   6.169   2.900  10.840 -2.6905 -0.0424  0.0731
   83MOL0     H11164   6.197   3.058  10.901  0.3789  0.5568 -1.0030
   83MOL0     H11165   6.001   3.039  10.767  0.8945 -1.4396  0.6957
   83MOL0     H11166   5.887   3.134  10.632 -0.4653 -0.5030 -1.0130
   83MOL0     H11167   5.739   3.052  10.593  1.3571 -1.3720  0.2897
   83MOL0     H11168   5.739   3.217  10.673  2.8998  1.2901  1.6476
   83MOL0     H11169   5.288   2.973  11.123  0.5555  1.0597  0.1282
   83MOL0     H11170   5.027   2.960  11.099 -1.2921  0.8388 -0.1802
   83MOL0     H11171   4.823   3.030  11.119 -2.1813 -1.0027 -1.7399
   83MOL0     H11172   4.887   3.194  11.101 -0.9479  1.7048 -2.1776
   83MOL0     H11173   4.670   3.245  11.124  1.3240 -1.8916  1.4466
   83MOL0     H11174   4.727   3.271  10.960  2.0634 -0.7443 -0.1488
   83MOL0     H11175   4.572   3.016  11.046  1.7818 -1.7990 -0.5687
   83MOL0     H11176   4.621   3.063  10.882  1.9582 -0.5483  1.6908
   83MOL0     H11177   4.430   3.208  11.060  0.4494 -1.8773  1.2936
   83MOL0     H11178   4.502   3.286  10.919  0.0532  0.7606  3.0701
   83MOL0     H11179   4.254   3.182  10.898  1.9515  2.7252 -0.3305
   83MOL0     H11180   4.328   3.029  10.925 -0.4886  0.8090  1.0922
   83MOL0     H11181   4.425   3.220  10.687 -3.1882  1.0935 -3.0116
   83MOL0     H11182   4.418   3.045  10.694 -0.5667  0.9378 -3.6329
   83MOL0     H11183   4.268   3.162  10.537 -0.0339 -1.4658  0.4974
   83MOL0     H11184   4.188   3.250  10.668 -2.6280 -1.5298  2.6410
   83MOL0     H11185   4.112   3.019  10.765 -0.8544 -0.0810 -0.2633
   83MOL0     H11186   4.161   2.951  10.612 -3.5470 -2.3790  1.0637
   83MOL0     H11187   5.037   3.217  10.773  1.1626  1.6268  0.9267
   83MOL0     H11188   5.293   3.228  10.773 -2.8051 -0.0514 -2.0742
   83MOL0     H11189   5.626   2.984  11.092 -1.2939 -1.6690 -1.9239
   83MOL0     H11190   5.863   2.909  11.152 -0.4521  0.1950  0.4577
   83MOL0     H11191   7.737   2.918  11.202  2.1070 -0.8561  1.7562
   83MOL0     H11192   7.972   2.885  11.196  0.7653 -1.6654 -0.3622
   83MOL0     H11193   8.294   2.601  10.995 -1.4244  1.7506  1.2302
   83MOL0     H11194   8.535   2.533  11.000 -1.0561  0.6417 -2.4428
   83MOL0     H11195   8.936   2.736  11.112 -0.4102  1.6189 -2.8748
   83MOL0     H11196   8.810   2.856  11.147 -0.6606  0.8416 -1.2846
   83MOL0     H11197   8.696   2.696  11.294 -0.5102 -1.9931  3.4985
   83MOL0     H11198   8.860   2.738  11.339  1.4541  0.8338 -1.2511
   83MOL0     H11199   8.787   2.470  11.198  0.7741 -0.4918  0.9213
   83MOL0     H11200   8.799   2.495  11.369  0.0275  1.5275  0.9285
   83MOL0     H11201   9.027   2.547  11.374  1.4381 -0.7269 -0.6090
   83MOL0     H11202   9.048   2.557  11.201 -0.9596  1.8116  0.1815
   83MOL0     H11203   9.069   2.144  11.313 -0.9826  0.8098  1.0637
   83MOL0     H11204   8.637   2.950  11.092  1.7334 -0.0805 -2.4341
   83MOL0     H11205   8.402   3.003  11.100  0.1551 -0.0366 -1.6571
   84MOL0     O11206   8.060   3.949  10.342 -0.0293  0.4351  0.6103
   84MOL0     C11207   8.123   3.943  10.239  0.1347 -0.3665 -0.2955
   84MOL0     O11208   8.071   3.905  10.123  0.1846  0.1785 -0.8676
   84MOL0     C11209   7.971   3.811  10.134 -0.6621  0.0823  0.3207
   84MOL0     C11210   8.009   3.680  10.114  0.6624 -0.2974 -0.9339
   84MOL0     C11211   7.909   3.582  10.119 -0.3769 -0.2836 -0.1922
   84MOL0     C11212   7.771   3.617  10.115 -0.5134 -0.0503  0.5239
   84MOL0     O11213   7.677   3.515  10.105 -0.3991  0.4330  0.0279
   84MOL0     C11214   7.538   3.548  10.096 -0.3533 -0.4515 -1.0493
   84MOL0     C11215   7.468   3.423  10.035 -0.0804  0.3343  0.2074
   84MOL0     C11216   7.321   3.436  10.052  0.7224 -0.0008  0.6692
   84MOL0     C11217   7.248   3.301  10.044 -0.5719  0.2598  0.1923
   84MOL0     C11218   7.097   3.328  10.040  0.5519  0.6706 -0.6285
   84MOL0     C11219   7.028   3.190  10.021  0.2994  0.2908 -0.0405
   84MOL0     C11220   6.879   3.220  10.015  0.4435  0.8366  0.1185
   84MOL0     C11221   6.799   3.090  10.021 -0.3803 -0.4046  0.1241
   84MOL0     N11222   6.651   3.100  10.033 -0.9746  0.3178  0.3373
   84MOL0     C11223   6.576   3.202   9.987 -0.0650  1.7455  0.5663
   84MOL0     C11224   6.448   3.170  10.003  0.3080  0.4371 -1.3915
   84MOL0     C11225   6.324   3.258   9.965 -0.4746 -0.9426  0.3746
   84MOL0     C11226   6.192   3.204  10.020  0.9861  0.3251 -0.3790
   84MOL0     C11227   6.086   3.306   9.989 -0.0110 -0.0556  0.0104
   84MOL0     C11228   5.951   3.238   9.979  0.1688 -0.6729 -0.2759
   84MOL0     O11229   5.860   3.345   9.952 -0.2013 -0.1503  0.2313
   84MOL0     C11230   5.719   3.316   9.957 -0.0610  0.0298  0.4884
   84MOL0     C11231   5.632   3.428   9.954 -0.0817 -0.0185  0.0482
   84MOL0     C11232   5.496   3.419   9.958  1.1570 -0.2092  0.2437
   84MOL0     C11233   5.409   3.541   9.953 -0.9391  0.3939  0.2580
   84MOL0     C11234   5.434   3.293   9.968  0.8423  0.8334  0.4337
   84MOL0     C11235   5.292   3.271  10.004 -1.0496 -0.1455  0.0256
   84MOL0     O11236   5.217   3.200   9.921  0.1790 -0.3878  0.7370
   84MOL0     C11237   5.088   3.173   9.959  0.3407 -0.5822 -0.4843
   84MOL0     C11238   5.051   3.102  10.070 -0.2077  0.0626  0.3133
   84MOL0     C11239   4.911   3.074  10.093  0.4430  0.0688 -0.4932
   84MOL0     C11240   4.813   3.116  10.002 -0.1597  0.1799 -0.3872
   84MOL0     O11241   4.683   3.086  10.041  0.3257 -0.2460  0.1230
   84MOL0     C11242   4.573   3.117   9.950 -0.8924 -0.2089 -0.1402
   84MOL0     C11243   4.514   3.263   9.976  0.8667 -0.7428  0.0064
   84MOL0     C11244   4.377   3.273   9.910  0.7552 -0.7613 -0.2287
   84MOL0     C11245   4.302   3.406   9.953 -0.2724  0.4194  0.3193
   84MOL0     C11246   4.165   3.439   9.884  0.8933  0.2860  0.3357
   84MOL0     C11247   4.105   3.582   9.912 -0.2583  0.3545  0.4457
   84MOL0     C11248   3.984   3.611   9.825 -0.2858  0.3490 -0.3920
   84MOL0     C11249   3.913   3.737   9.881  0.7699  0.7185 -0.7334
   84MOL0    Cl11250   3.772   3.756   9.763 -0.2454 -0.4820 -0.2842
   84MOL0     C11251   4.855   3.194   9.887 -0.2008  0.1400 -1.2814
   84MOL0     C11252   4.988   3.225   9.878  0.2993  0.1310  0.2969
   84MOL0     O11253   5.254   3.338  10.099  0.5595  0.3929 -0.1966
   84MOL0     C11254   5.520   3.179   9.967  0.0726  0.2647 -0.2880
   84MOL0     C11255   5.663   3.191   9.966  0.2353 -0.6702 -0.3959
   84MOL0     N11256   6.449   3.043  10.066  0.5092 -0.2874  0.0400
   84MOL0     N11257   6.573   3.011  10.094 -0.0173 -0.9335  0.0784
   84MOL0     C11258   7.736   3.755  10.126 -0.6529  0.2876 -0.7899
   84MOL0     C11259   7.837   3.850  10.128  0.5717  0.2651 -0.2111
   84MOL0     C11260   8.266   3.983  10.243  0.4405  0.5114  0.0730
   84MOL0     C11261   8.309   4.070  10.342  1.0819  0.7153  0.1951
   84MOL0     C11262   8.434   4.111  10.364  0.3797 -0.2017  0.8015
   84MOL0     C11263   8.537   4.060  10.282 -0.9938  0.3549 -0.6748
   84MOL0     O11264   8.669   4.092  10.296  0.6062  0.4430 -0.1675
   84MOL0     C11265   8.716   4.160  10.409  0.8022  0.3542  0.3555
   84MOL0     C11266   8.868   4.180  10.405 -0.1871 -0.5276 -0.1792
   84MOL0     C11267   8.917   4.273  10.297 -0.0214 -0.1446 -0.0944
   84MOL0     C11268   8.902   4.429  10.308 -0.2958  0.1193  0.9208
   84MOL0     C11269   8.763   4.464  10.281  0.6103 -0.3519  0.0220
   84MOL0     C11270   8.653   4.501  10.250 -0.8822 -1.0623 -0.2544
   84MOL0     C11271   8.499   3.962  10.189  0.0392  0.3991 -0.6049
   84MOL0     C11272   8.365   3.926  10.167  0.6436 -0.1439 -0.8267
   84MOL0     H11273   8.112   3.657  10.091  0.1266 -1.9394 -1.8669
   84MOL0     H11274   7.934   3.477  10.113  0.8518 -0.2218  2.3693
   84MOL0     H11275   7.501   3.576  10.194 -0.5929  3.1225 -2.0421
   84MOL0     H11276   7.504   3.632  10.036  0.9806  1.7391  1.1137
   84MOL0     H11277   7.484   3.406   9.928 -3.6194  0.7752 -0.5089
   84MOL0     H11278   7.517   3.336  10.079  0.2570  0.3437 -0.1346
   84MOL0     H11279   7.299   3.478  10.151 -1.8720  0.6601 -0.0943
   84MOL0     H11280   7.282   3.515   9.987  1.4364  0.6887  1.0562
   84MOL0     H11281   7.286   3.259   9.951  2.7499  2.9152  0.1725
   84MOL0     H11282   7.279   3.221  10.112 -1.0992 -1.3573 -1.3960
   84MOL0     H11283   7.069   3.369  10.138 -0.3217 -0.9588 -0.1537
   84MOL0     H11284   7.073   3.395   9.957 -0.0676 -1.0830 -1.9212
   84MOL0     H11285   7.065   3.155   9.924  2.1836  4.1352 -0.8880
   84MOL0     H11286   7.046   3.113  10.097 -0.8683 -0.9058 -0.9123
   84MOL0     H11287   6.843   3.292  10.089  0.7919  0.4207  0.7034
   84MOL0     H11288   6.864   3.256   9.913  1.8707 -1.9901 -1.2093
   84MOL0     H11289   6.829   3.021  10.100  2.0645 -1.0561 -1.2723
   84MOL0     H11290   6.826   3.041   9.927  2.0838  1.6935 -0.3786
   84MOL0     H11291   6.615   3.290   9.936  0.3735  0.3889 -1.5891
   84MOL0     H11292   6.352   3.351  10.015  0.8112 -1.4796  0.7017
   84MOL0     H11293   6.316   3.267   9.856  0.6414  1.8658  0.4319
   84MOL0     H11294   6.221   3.190  10.125  3.2166  0.2208 -0.9695
   84MOL0     H11295   6.171   3.108   9.972  1.0365  0.2396 -0.2311
   84MOL0     H11296   6.104   3.361   9.897 -3.4675  0.8206 -0.2920
   84MOL0     H11297   6.082   3.382  10.067 -1.7267 -1.0134  0.9387
   84MOL0     H11298   5.923   3.197  10.076 -2.1928 -2.2492 -1.5116
   84MOL0     H11299   5.953   3.156   9.906  0.3410  0.8150 -2.0189
   84MOL0     H11300   5.672   3.529   9.950 -0.4977  0.3123  2.7447
   84MOL0     H11301   5.319   3.537   9.891  0.4005  1.0605 -1.8254
   84MOL0     H11302   5.379   3.566  10.056 -3.3211 -2.5144  0.4120
   84MOL0     H11303   5.475   3.621   9.920  2.9484 -3.1475 -1.4107
   84MOL0     H11304   5.126   3.058  10.136 -0.4426 -0.7447  0.0559
   84MOL0     H11305   4.882   3.023  10.184  1.1632  1.0781  0.3222
   84MOL0     H11306   4.618   3.105   9.851 -1.2055 -0.2509 -0.2772
   84MOL0     H11307   4.494   3.045   9.972 -0.1659 -0.8390  0.4328
   84MOL0     H11308   4.509   3.278  10.085 -0.5692  0.4369 -0.1817
   84MOL0     H11309   4.585   3.340   9.946  1.8276 -0.4849  2.6778
   84MOL0     H11310   4.320   3.184   9.938  1.0706 -1.6504 -2.2341
   84MOL0     H11311   4.400   3.283   9.803  3.2068 -1.4314  0.1813
   84MOL0     H11312   4.296   3.400  10.062  0.6922 -2.1552  0.3077
   84MOL0     H11313   4.370   3.490   9.933  2.1123 -1.8284 -1.7639
   84MOL0     H11314   4.089   3.365   9.912  0.7920  0.7400  1.3022
   84MOL0     H11315   4.175   3.418   9.777 -1.8346 -0.7668  0.2126
   84MOL0     H11316   4.078   3.582  10.018 -0.2390 -0.6492  0.4607
   84MOL0     H11317   4.175   3.664   9.894 -1.5452  1.1191 -1.3806
   84MOL0     H11318   3.907   3.534   9.835 -2.0410  2.0346 -0.2311
   84MOL0     H11319   4.018   3.625   9.722  2.1373  2.2843  0.5626
   84MOL0     H11320   3.988   3.817   9.883  2.3977 -0.7385  0.6178
   84MOL0     H11321   3.878   3.733   9.985  0.6895  2.3600 -0.6753
   84MOL0     H11322   4.784   3.207   9.806 -1.3332 -0.6070 -0.4391
   84MOL0     H11323   5.018   3.272   9.784  0.9394 -2.6841 -1.0011
   84MOL0     H11324   5.474   3.083   9.989 -0.0080  0.5338  0.7681
   84MOL0     H11325   5.717   3.097   9.978  0.2558 -0.6218 -0.0922
   84MOL0     H11326   7.633   3.791  10.129 -2.0178 -3.1075 -2.2627
   84MOL0     H11327   7.825   3.958  10.120 -2.4008 -0.1036 -2.1923
   84MOL0     H11328   8.229   4.114  10.401 -0.5751 -0.5746 -0.9913
   84MOL0     H11329   8.441   4.188  10.440 -2.2281  0.6908  0.2222
   84MOL0     H11330   8.673   4.260  10.421  1.4398  0.5687  0.8942
   84MOL0     H11331   8.692   4.097  10.495  0.7427 -2.4699 -1.6114
   84MOL0     H11332   8.915   4.081  10.393  0.8900 -0.2977  1.7208
   84MOL0     H11333   8.911   4.218  10.499  3.0338  1.0108 -2.0997
   84MOL0     H11334   8.895   4.226  10.200  0.4180 -1.7045  0.5329
   84MOL0     H11335   9.024   4.254  10.299  0.2626  1.4380  1.1420
   84MOL0     H11336   8.965   4.460  10.224  0.0498  0.5182  1.3218
   84MOL0     H11337   8.944   4.470  10.400  2.1919  1.7322 -0.8173
   84MOL0     H11338   8.559   4.534  10.210  0.1219  1.4088 -0.7676
   84MOL0     H11339   8.569   3.924  10.116 -1.1155  0.7858 -1.9745
   84MOL0     H11340   8.341   3.847  10.096 -2.1685 -0.0872 -0.0682
   85MOL0     O11341   2.811   1.218   2.114  0.9295  0.1976 -0.1951
   85MOL0     C11342   2.881   1.153   2.033 -0.2662  0.5678 -0.8843
   85MOL0     O11343   2.850   1.079   1.927  0.2486  0.1390 -0.4510
   85MOL0     C11344   2.706   1.076   1.917 -0.3427 -0.6088 -0.3330
   85MOL0     C11345   2.631   0.981   1.975 -0.1586  0.0352 -0.5153
   85MOL0     C11346   2.498   0.982   1.967  0.1666  0.9423  0.5215
   85MOL0     C11347   2.428   1.074   1.882 -0.4025  0.2211  0.0244
   85MOL0     O11348   2.296   1.050   1.896 -0.3562 -0.3723 -0.0765
   85MOL0     C11349   2.212   1.151   1.844  0.2321 -0.4325 -0.3482
   85MOL0     C11350   2.171   1.110   1.703 -0.3430  0.0120  0.6629
   85MOL0     C11351   2.042   1.186   1.664 -0.5317  0.2987 -0.0536
   85MOL0     C11352   1.928   1.099   1.708 -0.3221 -0.5161  0.1145
   85MOL0     C11353   1.806   1.143   1.642  0.5398  0.7810  0.5296
   85MOL0     C11354   1.686   1.055   1.678  0.4327 -0.4838  0.4168
   85MOL0     C11355   1.554   1.127   1.647 -0.6654  0.2402  0.5042
   85MOL0     C11356   1.426   1.042   1.641  0.3446 -0.0320 -0.4215
   85MOL0     N11357   1.314   1.113   1.573 -0.3611  1.0734  0.4231
   85MOL0     C11358   1.188   1.062   1.543  0.5496  0.4085  0.0560
   85MOL0     C11359   1.122   1.160   1.480  0.7841 -0.3520  0.1836
   85MOL0     C11360   0.975   1.156   1.433 -0.9963 -0.5058 -0.3400
   85MOL0     C11361   0.906   1.261   1.511  0.3342  0.0553  0.2488
   85MOL0     C11362   0.766   1.278   1.462 -0.2508  0.0402 -0.3509
   85MOL0     C11363   0.701   1.396   1.519 -0.3533 -0.4987 -0.0244
   85MOL0     O11364   0.633   1.356   1.641 -0.5871  0.3013 -0.5272
   85MOL0     C11365   0.507   1.312   1.641 -0.0647  0.4886 -0.2084
   85MOL0     C11366   0.408   1.343   1.540 -0.3503 -0.7412 -0.7387
   85MOL0     C11367   0.275   1.312   1.558 -0.1790  0.0634  0.0809
   85MOL0     C11368   0.171   1.371   1.457  0.1995 -0.3691  0.1631
   85MOL0     C11369   0.233   1.231   1.669  0.2748  0.1532 -0.0438
   85MOL0     C11370   0.088   1.191   1.701  0.4135 -0.7392  0.4390
   85MOL0     O11371  -0.012   1.207   1.612  0.2816  0.1794 -0.5621
   85MOL0     C11372  -0.142   1.186   1.665 -0.9086  0.2019  0.1496
   85MOL0     C11373  -0.227   1.295   1.679 -0.9419  0.1118  0.0040
   85MOL0     C11374  -0.352   1.280   1.728  0.2814  0.7144  0.8196
   85MOL0     C11375  -0.399   1.157   1.773 -0.7070  0.1774 -0.5720
   85MOL0     O11376  -0.522   1.133   1.806  0.3482  0.1478 -0.3210
   85MOL0     C11377  -0.632   1.222   1.788  0.4716  0.4014 -0.0566
   85MOL0     C11378  -0.740   1.179   1.882 -0.0652 -0.0767  0.6815
   85MOL0     C11379  -0.848   1.277   1.908  0.7590  0.0068 -0.3738
   85MOL0     C11380  -0.946   1.205   2.006 -0.4308 -0.0464 -0.5522
   85MOL0     C11381  -1.074   1.275   2.046  0.7239  0.6250 -0.5696
   85MOL0     C11382  -1.061   1.365   2.173 -0.0083  0.6203 -0.5023
   85MOL0     C11383  -1.045   1.293   2.305 -0.3431  0.5368  0.0771
   85MOL0     C11384  -1.083   1.382   2.423  0.1157  0.0574  0.1593
   85MOL0    Cl11385  -0.955   1.513   2.423 -0.3772 -0.0157  0.1656
   85MOL0     C11386  -0.305   1.050   1.776 -0.3246 -0.1067 -0.2202
   85MOL0     C11387  -0.182   1.060   1.719 -0.2553  0.3850 -0.0610
   85MOL0     O11388   0.069   1.152   1.818  0.5332 -0.6124 -0.0603
   85MOL0     C11389   0.332   1.196   1.766 -0.1869  1.1031 -1.2098
   85MOL0     C11390   0.466   1.240   1.756 -0.2166 -0.4983 -0.4719
   85MOL0     N11391   1.206   1.273   1.493  0.2911 -0.2080  0.6859
   85MOL0     N11392   1.315   1.241   1.542 -0.7863  0.2105 -0.7955
   85MOL0     C11393   2.503   1.184   1.832 -0.5177 -0.3602 -0.3962
   85MOL0     C11394   2.644   1.190   1.856 -0.0373 -0.3708  0.0252
   85MOL0     C11395   3.020   1.136   2.085 -0.2097  0.3359 -0.0876
   85MOL0     C11396   3.090   1.023   2.042 -0.4537  0.5122 -0.0639
   85MOL0     C11397   3.217   1.004   2.102 -0.7010  0.9267 -0.1438
   85MOL0     C11398   3.267   1.089   2.200 -0.9621  0.0284  0.3642
   85MOL0     O11399   3.394   1.080   2.264  0.5094 -0.0271 -0.1815
   85MOL0     C11400   3.467   0.961   2.248 -0.7418  0.5132  0.1349
   85MOL0     C11401   3.563   0.957   2.363  0.4972 -0.3446 -0.1012
   85MOL0     C11402   3.673   1.073   2.358 -0.1435  1.0143 -0.2397
   85MOL0     C11403   3.787   1.057   2.461 -0.3532 -0.0301  0.3312
   85MOL0     C11404   3.888   0.962   2.418  0.2463  0.3403  0.0243
   85MOL0     C11405   3.984   0.892   2.399 -0.0050 -0.8808  0.4325
   85MOL0     C11406   3.197   1.205   2.230 -0.0936 -0.4588  0.4717
   85MOL0     C11407   3.076   1.227   2.167  0.0937 -0.6852  0.6352
   85MOL0     H11408   2.690   0.901   2.021  2.9075  2.4352  0.0876
   85MOL0     H11409   2.433   0.912   2.018 -0.3679  1.0283 -0.0241
   85MOL0     H11410   2.119   1.158   1.900  1.0394  1.3664  0.8543
   85MOL0     H11411   2.259   1.249   1.854 -1.7137  0.6382 -1.1456
   85MOL0     H11412   2.254   1.150   1.643 -1.6568  3.5151  0.9553
   85MOL0     H11413   2.158   1.001   1.702 -0.2636  0.0021 -0.4586
   85MOL0     H11414   2.028   1.289   1.698  2.9102  0.7719  0.2609
   85MOL0     H11415   2.027   1.191   1.556  1.4177  0.5346 -0.3603
   85MOL0     H11416   1.928   0.992   1.685 -0.2819 -1.0589  2.4337
   85MOL0     H11417   1.919   1.110   1.816 -0.5688 -0.3385  0.0769
   85MOL0     H11418   1.783   1.247   1.665  0.9632  0.9399  0.2498
   85MOL0     H11419   1.824   1.145   1.534 -0.8258  1.2410  0.2932
   85MOL0     H11420   1.699   0.966   1.616  0.0812  0.7262 -1.4512
   85MOL0     H11421   1.695   1.038   1.786 -1.0552  0.8249  0.7863
   85MOL0     H11422   1.540   1.216   1.709  0.3762  2.4893 -2.2866
   85MOL0     H11423   1.547   1.170   1.546  2.1489 -0.7145 -0.1872
   85MOL0     H11424   1.410   1.005   1.743 -0.7405 -1.8728 -1.2178
   85MOL0     H11425   1.450   0.949   1.588  2.5749 -0.1855  0.7176
   85MOL0     H11426   1.164   0.957   1.560  1.3923  0.2398  0.2618
   85MOL0     H11427   0.965   1.179   1.326  0.8620  0.8215 -0.2789
   85MOL0     H11428   0.940   1.053   1.444 -4.6758  0.6062 -0.2195
   85MOL0     H11429   0.964   1.349   1.480 -0.6934 -0.0821 -2.3524
   85MOL0     H11430   0.902   1.242   1.619 -1.1050 -0.9958  0.0316
   85MOL0     H11431   0.699   1.193   1.481 -0.2760  0.2510  0.5257
   85MOL0     H11432   0.763   1.303   1.356 -0.7360 -0.6427 -0.5051
   85MOL0     H11433   0.632   1.441   1.447  1.5930  0.7528 -1.1698
   85MOL0     H11434   0.771   1.474   1.549 -0.2614  0.7932 -3.2613
   85MOL0     H11435   0.436   1.409   1.459  0.1005 -1.1365 -0.9097
   85MOL0     H11436   0.076   1.392   1.508 -1.2252 -3.4278 -0.9510
   85MOL0     H11437   0.209   1.465   1.416 -0.8277 -1.7076 -4.5001
   85MOL0     H11438   0.152   1.301   1.375  1.0533  0.2050 -0.5325
   85MOL0     H11439  -0.197   1.395   1.649 -0.0035 -0.1472  0.0512
   85MOL0     H11440  -0.420   1.364   1.739 -4.2465 -2.6836  1.8115
   85MOL0     H11441  -0.611   1.328   1.802 -0.4011  0.5499  0.1557
   85MOL0     H11442  -0.674   1.196   1.690  0.4165  1.7945 -0.4223
   85MOL0     H11443  -0.788   1.091   1.839 -1.4722  0.4228  1.1500
   85MOL0     H11444  -0.693   1.139   1.972  3.3411  0.4890 -0.7092
   85MOL0     H11445  -0.897   1.292   1.811  2.7606  1.6790 -1.1862
   85MOL0     H11446  -0.804   1.368   1.950 -0.1819  0.9713 -1.4133
   85MOL0     H11447  -0.980   1.112   1.960  0.9161 -0.9387  0.1765
   85MOL0     H11448  -0.898   1.175   2.100  0.1266  1.7102 -0.2433
   85MOL0     H11449  -1.146   1.195   2.065  3.4958 -1.5326  1.7134
   85MOL0     H11450  -1.115   1.330   1.960 -0.0486 -3.3421 -2.9852
   85MOL0     H11451  -0.981   1.438   2.161  1.3186 -0.7387 -0.1502
   85MOL0     H11452  -1.149   1.431   2.171 -2.6326 -2.6491 -1.2395
   85MOL0     H11453  -0.943   1.257   2.316 -1.7418 -4.1535 -0.2343
   85MOL0     H11454  -1.105   1.201   2.307 -2.6207  1.9406  0.3500
   85MOL0     H11455  -1.071   1.339   2.523 -0.6844 -0.6068 -0.0216
   85MOL0     H11456  -1.184   1.422   2.413 -0.3214 -1.1424 -0.4263
   85MOL0     H11457  -0.334   0.957   1.824  2.5736 -0.9649  0.1033
   85MOL0     H11458  -0.104   0.986   1.730 -0.1924  0.3404 -0.7780
   85MOL0     H11459   0.295   1.142   1.852 -0.0515 -0.5903 -2.1743
   85MOL0     H11460   0.542   1.212   1.828 -2.1862 -0.0513  1.9082
   85MOL0     H11461   2.445   1.250   1.769 -1.0663  0.3466  0.8118
   85MOL0     H11462   2.707   1.266   1.810 -0.2767  0.1630  0.5785
   85MOL0     H11463   3.057   0.946   1.973  0.0451  1.4790 -1.4166
   85MOL0     H11464   3.272   0.916   2.071 -1.2598  1.1293 -1.8093
   85MOL0     H11465   3.407   0.870   2.245  1.5311 -1.0796 -0.4157
   85MOL0     H11466   3.527   0.948   2.157 -1.4736 -0.4461 -0.2307
   85MOL0     H11467   3.616   0.862   2.350 -1.9547 -2.0744  1.6265
   85MOL0     H11468   3.510   0.949   2.459 -1.2491 -1.5897 -1.1216
   85MOL0     H11469   3.638   1.176   2.374  0.1933  0.7405  2.7024
   85MOL0     H11470   3.717   1.060   2.259  0.6929 -1.7809  0.4176
   85MOL0     H11471   3.737   1.021   2.552  0.6119 -1.2689  0.4015
   85MOL0     H11472   3.830   1.156   2.480 -0.1210  0.0620 -0.6513
   85MOL0     H11473   4.074   0.837   2.383  1.1984  1.2089 -0.3370
   85MOL0     H11474   3.230   1.269   2.311  0.4475  0.2974 -0.3309
   85MOL0     H11475   3.038   1.326   2.193  3.5115  0.4260  1.9346
   86MOL0     O11476  10.008  10.395   7.470  0.0447 -0.3201 -0.0963
   86MOL0     C11477  10.031  10.484   7.539  0.6269 -0.3584  0.2327
   86MOL0     O11478   9.940  10.557   7.617 -0.3607 -0.3582  0.1163
   86MOL0     C11479   9.816  10.530   7.586 -0.1263  0.3954 -0.2056
   86MOL0     C11480   9.735  10.605   7.502 -1.2634  0.4297  0.2288
   86MOL0     C11481   9.606  10.559   7.476 -0.6624 -0.2284  0.4652
   86MOL0     C11482   9.549  10.451   7.537  0.1477  0.6158 -0.4405
   86MOL0     O11483   9.418  10.408   7.529  0.1995 -0.7590  0.0025
   86MOL0     C11484   9.313  10.495   7.471  0.1726  0.1460 -0.4286
   86MOL0     C11485   9.188  10.407   7.468  0.0913  0.4495  0.3734
   86MOL0     C11486   9.144  10.399   7.615 -0.1031 -0.7238  0.9548
   86MOL0     C11487   9.028  10.303   7.633 -1.3604  0.1126  0.4377
   86MOL0     C11488   9.006  10.273   7.782 -0.1266 -0.3692  0.1909
   86MOL0     C11489   8.955  10.131   7.822  0.9340 -0.6321 -0.5933
   86MOL0     C11490   8.801  10.105   7.785  0.6218 -0.7720 -0.1101
   86MOL0     C11491   8.721  10.190   7.884  0.1737  0.1447 -0.3933
   86MOL0     N11492   8.579  10.146   7.889  0.0283 -0.4098 -0.1798
   86MOL0     C11493   8.491  10.169   7.786 -0.2844  0.4160  0.0016
   86MOL0     C11494   8.367  10.141   7.848 -1.1278 -0.2869  0.1444
   86MOL0     C11495   8.234  10.164   7.778 -0.4318  0.9364  0.3584
   86MOL0     C11496   8.102  10.117   7.843 -0.2932 -0.5845 -0.0497
   86MOL0     C11497   8.042  10.238   7.912  0.3839  0.0238 -0.4578
   86MOL0     C11498   7.929  10.198   7.996  1.2007 -0.1890  0.4753
   86MOL0     O11499   7.871  10.310   8.050  0.3110  0.2782  0.2291
   86MOL0     C11500   7.787  10.296   8.158 -0.2626 -0.1198  0.4581
   86MOL0     C11501   7.725  10.183   8.214  0.9217  0.1083  0.2848
   86MOL0     C11502   7.638  10.201   8.330 -0.6423  1.0304  0.0063
   86MOL0     C11503   7.577  10.064   8.372 -1.2875  0.5804  1.0417
   86MOL0     C11504   7.601  10.328   8.368  0.8689 -0.1051 -0.5490
   86MOL0     C11505   7.494  10.364   8.471 -0.0953  1.1597  0.0050
   86MOL0     O11506   7.402  10.269   8.497  0.6507  0.6173  0.1141
   86MOL0     C11507   7.300  10.309   8.578  0.2411 -1.1621 -0.5541
   86MOL0     C11508   7.322  10.320   8.714 -0.1133 -0.1716 -0.5110
   86MOL0     C11509   7.212  10.355   8.798 -0.1479  1.0882 -0.0321
   86MOL0     C11510   7.087  10.388   8.738 -0.4394  0.2025  0.2131
   86MOL0     O11511   6.984  10.438   8.808  0.2158  0.3004  0.5083
   86MOL0     C11512   6.880  10.337   8.847 -0.5777  0.9074 -0.5113
   86MOL0     C11513   6.783  10.281   8.745 -0.5832 -0.8484 -0.7939
   86MOL0     C11514   6.663  10.391   8.741 -0.2814 -0.1657 -0.5344
   86MOL0     C11515   6.575  10.381   8.617  0.2561 -0.4013  0.1943
   86MOL0     C11516   6.467  10.493   8.626 -0.0194  0.2913  1.1896
   86MOL0     C11517   6.375  10.485   8.499  0.6645  0.2799  0.0258
   86MOL0     C11518   6.263  10.579   8.529 -1.3452  0.3826 -0.7315
   86MOL0     C11519   6.183  10.596   8.409  0.9457 -0.7333 -0.4992
   86MOL0    Cl11520   6.058  10.722   8.447  0.0004 -0.0704  0.1375
   86MOL0     C11521   7.072  10.383   8.597  0.3680  0.4543  0.2038
   86MOL0     C11522   7.176  10.347   8.517 -0.3565  0.0843  0.0080
   86MOL0     O11523   7.494  10.479   8.511  0.2009  0.1134  0.4515
   86MOL0     C11524   7.661  10.440   8.306 -0.2686  0.5736  0.8700
   86MOL0     C11525   7.752  10.411   8.200  0.3536 -0.3361 -0.0504
   86MOL0     N11526   8.379  10.107   7.975  0.3137 -0.1569 -0.5142
   86MOL0     N11527   8.508  10.106   8.002 -0.0932 -0.6237 -0.4716
   86MOL0     C11528   9.631  10.373   7.614  0.4323  0.8499 -0.4673
   86MOL0     C11529   9.762  10.411   7.631  0.9256  0.0662 -0.7267
   86MOL0     C11530  10.176  10.505   7.559 -0.7427 -0.8140  0.3087
   86MOL0     C11531  10.277  10.450   7.471  1.0730  0.6273 -0.3854
   86MOL0     C11532  10.409  10.486   7.481 -0.4607 -0.3132  0.4671
   86MOL0     C11533  10.450  10.577   7.578  0.0020 -0.5104 -0.7662
   86MOL0     O11534  10.588  10.607   7.600 -0.5053  0.8173 -0.1225
   86MOL0     C11535  10.671  10.621   7.479 -0.4166 -0.3284  1.3694
   86MOL0     C11536  10.746  10.751   7.490 -0.2322 -0.6617 -0.2435
   86MOL0     C11537  10.833  10.771   7.616 -0.5283  0.8872  0.0681
   86MOL0     C11538  10.904  10.909   7.631 -0.3849  0.2899  0.8190
   86MOL0     C11539  10.988  10.945   7.514  0.9002 -0.6447  0.3924
   86MOL0     C11540  11.040  10.967   7.405  0.6927 -0.3266 -0.5284
   86MOL0     C11541  10.350  10.626   7.667  0.4822  0.0563  0.5381
   86MOL0     C11542  10.212  10.594   7.656 -0.1663  0.9192 -0.0628
   86MOL0     H11543   9.765  10.701   7.459 -0.0435 -1.8936 -4.8672
   86MOL0     H11544   9.545  10.625   7.415  0.7284  0.0248 -0.7192
   86MOL0     H11545   9.293  10.584   7.532 -0.4066  0.5231 -1.1568
   86MOL0     H11546   9.335  10.530   7.370 -0.0539 -0.1071 -0.5674
   86MOL0     H11547   9.113  10.461   7.408  1.5715  0.9059 -1.1440
   86MOL0     H11548   9.205  10.308   7.425  0.9306  0.9258 -0.4195
   86MOL0     H11549   9.236  10.368   7.667  0.3898  0.5949  0.9008
   86MOL0     H11550   9.117  10.494   7.661  0.5301  0.6284 -1.3491
   86MOL0     H11551   8.938  10.353   7.595 -0.5016  0.5422 -1.1381
   86MOL0     H11552   9.045  10.208   7.580 -2.4036  0.5922 -0.8289
   86MOL0     H11553   9.105  10.294   7.824  0.5626  0.8011 -1.8917
   86MOL0     H11554   8.939  10.353   7.815  0.4211  0.0092  0.3878
   86MOL0     H11555   9.027  10.063   7.776  2.1385  0.5539 -0.5274
   86MOL0     H11556   8.972  10.129   7.930  1.2780 -0.6984 -0.6472
   86MOL0     H11557   8.773  10.132   7.683 -0.6997  0.1405  0.4704
   86MOL0     H11558   8.774   9.999   7.793  0.0726 -0.5059  4.2037
   86MOL0     H11559   8.725  10.293   7.846  3.4471 -0.4702 -2.0483
   86MOL0     H11560   8.769  10.194   7.983 -1.5775 -2.5299  0.6793
   86MOL0     H11561   8.512  10.216   7.691  0.0291  2.7505  1.1705
   86MOL0     H11562   8.216  10.269   7.752 -1.1503  0.4017 -1.4397
   86MOL0     H11563   8.250  10.108   7.686  0.0491 -0.3264  1.1898
   86MOL0     H11564   8.116  10.039   7.917  1.6013  1.4208  1.8650
   86MOL0     H11565   8.030  10.080   7.769 -0.3462  0.3783 -0.5001
   86MOL0     H11566   8.005  10.310   7.839  2.1537 -1.1318 -2.6086
   86MOL0     H11567   8.116  10.289   7.974 -0.9134  0.9517  0.3817
   86MOL0     H11568   7.955  10.135   8.082  1.0601  2.0801  2.2779
   86MOL0     H11569   7.857  10.142   7.937 -2.1740 -1.3562  5.0918
   86MOL0     H11570   7.731  10.085   8.169 -0.3906  1.2978 -2.7173
   86MOL0     H11571   7.477  10.041   8.335 -0.7875 -0.8859  0.5092
   86MOL0     H11572   7.634   9.977   8.338 -2.4057 -0.2247  1.1594
   86MOL0     H11573   7.557  10.048   8.478 -1.4662  0.3964  0.9825
   86MOL0     H11574   7.417  10.293   8.760 -0.3043 -0.3555 -0.2187
   86MOL0     H11575   7.225  10.355   8.905 -1.9681  0.7982  0.2111
   86MOL0     H11576   6.941  10.256   8.887  1.9401  2.3053 -1.2900
   86MOL0     H11577   6.834  10.375   8.939  0.8065  1.8297 -0.1684
   86MOL0     H11578   6.828  10.279   8.645  0.4807  1.6052 -0.4448
   86MOL0     H11579   6.743  10.183   8.770 -0.8309 -0.3770  0.7330
   86MOL0     H11580   6.711  10.489   8.748 -0.0512 -0.2422 -1.0598
   86MOL0     H11581   6.603  10.374   8.832 -0.6160 -1.5292 -0.9765
   86MOL0     H11582   6.634  10.379   8.525 -1.2198  1.3104 -0.8609
   86MOL0     H11583   6.520  10.286   8.623 -0.6887  0.0354 -1.1577
   86MOL0     H11584   6.521  10.588   8.628  1.3284 -0.4258  0.4743
   86MOL0     H11585   6.412  10.471   8.718 -0.1771  0.7938  1.2170
   86MOL0     H11586   6.420  10.510   8.402 -0.6938 -0.2818 -0.7756
   86MOL0     H11587   6.335  10.384   8.497 -1.1962  0.9236  1.6077
   86MOL0     H11588   6.305  10.676   8.557  0.2302 -1.0598  2.3623
   86MOL0     H11589   6.189  10.548   8.603 -2.2200 -1.5892 -2.3434
   86MOL0     H11590   6.123  10.509   8.382 -1.3457  0.1057  1.5063
   86MOL0     H11591   6.255  10.627   8.333  3.2662 -1.6860  1.1850
   86MOL0     H11592   6.979  10.408   8.546 -0.6876 -1.7426  0.9468
   86MOL0     H11593   7.155  10.345   8.410 -0.4440 -1.7031  0.0355
   86MOL0     H11594   7.628  10.542   8.317  0.5542  1.1610 -1.4698
   86MOL0     H11595   7.794  10.498   8.151  1.3464 -1.8595 -2.0418
   86MOL0     H11596   9.580  10.286   7.653  1.1115  0.7377  0.1923
   86MOL0     H11597   9.824  10.338   7.683  0.5124  0.7157  0.7460
   86MOL0     H11598  10.243  10.389   7.388 -3.9994  1.9545  0.3821
   86MOL0     H11599  10.481  10.443   7.412 -0.1155  1.1930 -0.1502
   86MOL0     H11600  10.738  10.535   7.481  0.7914  0.5957  1.4251
   86MOL0     H11601  10.614  10.619   7.385  2.4715  0.9559 -0.5627
   86MOL0     H11602  10.674  10.834   7.484  2.6687  2.1209  0.7503
   86MOL0     H11603  10.809  10.763   7.401 -2.1869 -0.5925 -1.6855
   86MOL0     H11604  10.910  10.694   7.612 -1.0914  0.3364 -0.3604
   86MOL0     H11605  10.766  10.756   7.701  0.5475 -2.0233  0.5140
   86MOL0     H11606  10.973  10.905   7.716  2.2940  1.0936 -1.1972
   86MOL0     H11607  10.828  10.986   7.647 -1.1073 -0.2705  0.1703
   86MOL0     H11608  11.087  10.971   7.309  0.1030  3.3201 -0.7978
   86MOL0     H11609  10.391  10.693   7.742  1.1936 -1.9993  2.0973
   86MOL0     H11610  10.139  10.649   7.715 -0.1327  0.7370  0.1480
   87MOL0     O11611   6.669   8.873   7.510  0.4820  0.6026  0.5715
   87MOL0     C11612   6.597   8.802   7.433  0.2715 -0.0625  0.2428
   87MOL0     O11613   6.464   8.818   7.416 -0.4374 -0.1908 -0.6879
   87MOL0     C11614   6.392   8.912   7.496  0.2776 -0.0085  0.0809
   87MOL0     C11615   6.374   8.894   7.637  0.5540  0.3958 -0.0332
   87MOL0     C11616   6.299   8.981   7.715 -0.2207 -0.7351  1.2027
   87MOL0     C11617   6.237   9.087   7.656  0.1508  0.6981 -0.3619
   87MOL0     O11618   6.150   9.163   7.734  0.0327  0.1089  0.0217
   87MOL0     C11619   6.214   9.267   7.817  0.1652  0.3221  0.1717
   87MOL0     C11620   6.143   9.270   7.954  0.2112 -0.3760 -0.1580
   87MOL0     C11621   6.022   9.363   7.960 -0.1740  0.1732 -0.1191
   87MOL0     C11622   5.957   9.384   8.102  0.4063 -1.2247 -0.2454
   87MOL0     C11623   5.814   9.457   8.088 -0.6071 -0.2378  0.0225
   87MOL0     C11624   5.763   9.505   8.224  0.1149  0.3602 -0.1039
   87MOL0     C11625   5.617   9.548   8.211 -0.2278 -1.3375 -0.0864
   87MOL0     C11626   5.585   9.648   8.094  0.5573 -0.4839 -1.0108
   87MOL0     N11627   5.441   9.667   8.069 -0.2633 -0.5625 -0.6230
   87MOL0     C11628   5.342   9.716   8.147 -0.3914 -0.5317 -1.2534
   87MOL0     C11629   5.224   9.710   8.073 -0.2452  0.1318 -0.7161
   87MOL0     C11630   5.089   9.775   8.105  0.0334  0.1060  0.5011
   87MOL0     C11631   4.967   9.679   8.071 -0.4271 -0.1500 -0.1742
   87MOL0     C11632   4.840   9.748   8.021  0.4184  0.2788  0.3051
   87MOL0     C11633   4.725   9.644   8.009  0.1058  0.4160  0.5840
   87MOL0     O11634   4.609   9.724   7.992 -1.1256  0.2295 -0.0748
   87MOL0     C11635   4.482   9.673   8.011  0.1409  0.3832  0.0248
   87MOL0     C11636   4.438   9.539   8.010  0.6799  0.1871  0.4144
   87MOL0     C11637   4.300   9.506   8.021  1.0151 -0.1685  0.4059
   87MOL0     C11638   4.262   9.360   8.006 -0.1931 -0.8627 -0.4207
   87MOL0     C11639   4.204   9.612   8.039 -0.4079  0.1572  0.3953
   87MOL0     C11640   4.059   9.591   8.053  0.1807  0.7070  0.2795
   87MOL0     O11641   4.003   9.481   7.981  0.4591 -0.2855  0.1574
   87MOL0     C11642   3.871   9.448   8.005  1.0338 -1.7162  0.6053
   87MOL0     C11643   3.811   9.446   8.136  1.0255 -0.3534  0.7058
   87MOL0     C11644   3.670   9.420   8.158 -0.4769  0.9922 -0.6227
   87MOL0     C11645   3.589   9.381   8.050 -0.1759 -0.2056  0.3129
   87MOL0     O11646   3.458   9.342   8.057  0.6082  0.5055  0.7002
   87MOL0     C11647   3.406   9.346   8.195 -0.3725 -0.4729  0.1491
   87MOL0     C11648   3.257   9.318   8.189  0.0059  0.3451 -0.1937
   87MOL0     C11649   3.197   9.254   8.315 -0.0220 -0.3649  0.1768
   87MOL0     C11650   3.042   9.261   8.295 -0.2542  0.2361 -1.0858
   87MOL0     C11651   2.973   9.152   8.380 -1.4108 -0.1909  0.7818
   87MOL0     C11652   2.822   9.163   8.377  0.6841 -0.1913  0.6551
   87MOL0     C11653   2.760   9.080   8.492 -0.3905  0.2662 -0.4125
   87MOL0     C11654   2.605   9.062   8.464 -1.5776 -0.0637  0.1348
   87MOL0    Cl11655   2.541   8.937   8.573  0.2723 -0.2374 -0.4192
   87MOL0     C11656   3.653   9.363   7.927  0.0024 -0.8684  0.1236
   87MOL0     C11657   3.790   9.401   7.904  0.1292  0.3127  0.0603
   87MOL0     O11658   4.001   9.661   8.136  0.1349 -0.5036 -0.0879
   87MOL0     C11659   4.247   9.746   8.047 -0.1923 -0.5400  0.7424
   87MOL0     C11660   4.382   9.773   8.029 -0.2398 -1.3061  0.4558
   87MOL0     N11661   5.250   9.650   7.955  0.2446  0.3419 -0.1411
   87MOL0     N11662   5.374   9.624   7.952  0.4888  0.0469  0.1900
   87MOL0     C11663   6.248   9.107   7.517  0.6772  0.0807 -0.3311
   87MOL0     C11664   6.328   9.020   7.437  0.3230 -0.5561  0.7873
   87MOL0     C11665   6.657   8.695   7.341 -0.7045 -0.6089  0.5180
   87MOL0     C11666   6.572   8.614   7.268  0.4559  0.1948 -0.2753
   87MOL0     C11667   6.623   8.523   7.176  0.4037 -0.1360 -0.0680
   87MOL0     C11668   6.756   8.513   7.152  0.4483 -0.4501 -1.1624
   87MOL0     O11669   6.818   8.434   7.059 -1.0894  0.0485  0.0903
   87MOL0     C11670   6.734   8.361   6.965  0.1394  0.5203  0.0629
   87MOL0     C11671   6.819   8.262   6.886 -0.9797 -0.9718  0.4176
   87MOL0     C11672   6.913   8.339   6.781 -0.7996  0.5919  0.3175
   87MOL0     C11673   6.869   8.308   6.642 -0.5851  0.1161 -0.1558
   87MOL0     C11674   6.734   8.367   6.623 -0.7649  0.5556  0.9477
   87MOL0     C11675   6.626   8.412   6.594 -0.1280  0.8419 -0.0554
   87MOL0     C11676   6.846   8.596   7.225  0.6120 -0.5146  0.3802
   87MOL0     C11677   6.797   8.687   7.319 -0.4303  0.8306  0.4393
   87MOL0     H11678   6.409   8.808   7.694 -3.3289 -0.5357  1.2349
   87MOL0     H11679   6.286   8.955   7.819 -0.5991 -2.4454  0.7598
   87MOL0     H11680   6.322   9.250   7.812 -0.0978 -1.2654 -3.7916
   87MOL0     H11681   6.210   9.365   7.768 -0.1134 -0.3707 -1.2531
   87MOL0     H11682   6.112   9.168   7.979 -2.9861  0.8254  1.1976
   87MOL0     H11683   6.220   9.314   8.019 -0.0673  2.3890 -1.5542
   87MOL0     H11684   6.048   9.463   7.924  1.3523 -0.2916 -0.3970
   87MOL0     H11685   5.950   9.323   7.889 -0.7242  2.1810 -0.7646
   87MOL0     H11686   5.950   9.287   8.153 -1.4979 -0.9061  0.1864
   87MOL0     H11687   6.017   9.445   8.170 -0.6074 -1.1086  0.5735
   87MOL0     H11688   5.835   9.546   8.027  5.4237 -0.4463  1.1237
   87MOL0     H11689   5.744   9.389   8.038  1.1364 -1.7390 -0.4979
   87MOL0     H11690   5.767   9.431   8.304 -1.0441 -2.3175 -2.3424
   87MOL0     H11691   5.821   9.586   8.269  0.3733  0.0993  0.0303
   87MOL0     H11692   5.551   9.462   8.195 -0.4189 -1.0890 -0.6759
   87MOL0     H11693   5.593   9.590   8.309  2.2894 -1.8025  0.7938
   87MOL0     H11694   5.640   9.622   8.003  2.3452 -1.0611  0.1857
   87MOL0     H11695   5.631   9.743   8.124  0.2806 -1.4168  2.8297
   87MOL0     H11696   5.355   9.757   8.247 -0.8088  1.0044 -1.7950
   87MOL0     H11697   5.086   9.811   8.208 -2.2628 -0.0968  0.5439
   87MOL0     H11698   5.082   9.865   8.043 -1.1184  0.4800  1.1461
   87MOL0     H11699   4.946   9.640   8.172  4.0208  1.5668  1.6640
   87MOL0     H11700   5.003   9.600   8.004  0.6865 -0.4353  0.7374
   87MOL0     H11701   4.858   9.791   7.923  0.8208 -0.5501  0.0093
   87MOL0     H11702   4.802   9.818   8.096 -1.4867 -1.5427  1.1664
   87MOL0     H11703   4.715   9.574   8.092 -1.8228  0.7058  0.6505
   87MOL0     H11704   4.732   9.578   7.922 -1.1382  1.5129 -0.3899
   87MOL0     H11705   4.507   9.455   8.008  0.6464  0.1469  1.0189
   87MOL0     H11706   4.192   9.320   8.079 -0.3531 -1.3769 -0.8539
   87MOL0     H11707   4.221   9.342   7.906  1.4758 -1.3064 -1.0767
   87MOL0     H11708   4.355   9.303   8.000  0.6664  0.5847 -1.7171
   87MOL0     H11709   3.872   9.479   8.220  1.1452  2.4815 -0.3689
   87MOL0     H11710   3.640   9.420   8.262 -0.4226  0.5662 -0.6039
   87MOL0     H11711   3.450   9.267   8.257 -2.0827 -1.3110  0.3426
   87MOL0     H11712   3.422   9.446   8.236 -0.1916  1.3566 -3.9303
   87MOL0     H11713   3.213   9.407   8.143  3.6081  1.5911 -1.5777
   87MOL0     H11714   3.246   9.233   8.121  1.9357 -0.0029 -0.1213
   87MOL0     H11715   3.228   9.315   8.401 -2.4873  1.8503 -0.3739
   87MOL0     H11716   3.235   9.152   8.321 -2.0685 -1.3586 -2.2478
   87MOL0     H11717   3.006   9.360   8.327  2.8430  0.0026  4.0894
   87MOL0     H11718   3.007   9.243   8.192 -1.2693  1.3055 -0.9546
   87MOL0     H11719   3.012   9.174   8.480 -2.0589 -1.8135  1.4164
   87MOL0     H11720   3.012   9.056   8.347 -1.0968  0.2867 -0.2997
   87MOL0     H11721   2.795   9.269   8.392 -0.7756 -0.4672  0.1729
   87MOL0     H11722   2.784   9.126   8.282  0.4263 -0.3519  0.8187
   87MOL0     H11723   2.774   9.138   8.583 -1.6349  1.6152 -1.0383
   87MOL0     H11724   2.796   8.977   8.505 -0.4446  0.2136 -0.6756
   87MOL0     H11725   2.600   9.012   8.367  3.3794 -0.3943 -0.2227
   87MOL0     H11726   2.543   9.152   8.463 -3.1670 -1.0776 -2.8216
   87MOL0     H11727   3.596   9.328   7.841  0.3715  0.5336 -0.7328
   87MOL0     H11728   3.832   9.398   7.804  1.1925  1.2565  0.4633
   87MOL0     H11729   4.177   9.828   8.062  2.6543  2.2676 -0.1828
   87MOL0     H11730   4.416   9.876   8.024 -3.2581 -0.2300  0.0007
   87MOL0     H11731   6.187   9.182   7.469  0.9278  0.0884 -0.6417
   87MOL0     H11732   6.341   9.020   7.329  2.4142  1.3803  0.9622
   87MOL0     H11733   6.466   8.595   7.284  0.8629 -1.2761  0.9141
   87MOL0     H11734   6.550   8.457   7.131  1.2431 -1.4267  0.4170
   87MOL0     H11735   6.663   8.301   7.021 -0.3023  1.4880  0.5676
   87MOL0     H11736   6.695   8.440   6.900  0.3000 -0.0159 -0.7025
   87MOL0     H11737   6.759   8.180   6.845  0.4033 -2.1005  0.5765
   87MOL0     H11738   6.881   8.222   6.966  0.3185  2.8544  1.5642
   87MOL0     H11739   7.009   8.287   6.789 -0.4274  0.9304 -1.6747
   87MOL0     H11740   6.930   8.446   6.795  1.2137  0.0673  2.4660
   87MOL0     H11741   6.859   8.202   6.615 -0.4066  0.3364 -1.1098
   87MOL0     H11742   6.942   8.357   6.578 -0.1267 -1.5263 -0.9351
   87MOL0     H11743   6.530   8.454   6.569  0.1484  1.9238  0.6416
   87MOL0     H11744   6.954   8.604   7.211  0.6101 -3.3765 -2.1735
   87MOL0     H11745   6.869   8.751   7.370  1.5600 -1.0631  0.1625
   88MOL0     O11746   1.513  10.263   8.678 -0.2462 -0.1583 -0.0956
   88MOL0     C11747   1.529  10.265   8.795  0.7523  0.1068 -0.8070
   88MOL0     O11748   1.423  10.267   8.891 -0.4347  0.1463 -0.2467
   88MOL0     C11749   1.295  10.262   8.837 -0.5119  1.2310 -0.5572
   88MOL0     C11750   1.212  10.151   8.859 -0.2307 -0.2456 -0.5339
   88MOL0     C11751   1.078  10.138   8.805 -1.0938 -0.0682 -0.0821
   88MOL0     C11752   1.023  10.246   8.736  0.2734 -1.0020  0.3917
   88MOL0     O11753   0.894  10.236   8.695 -0.4000  0.7600  0.1251
   88MOL0     C11754   0.823  10.348   8.652 -0.2836 -0.7406 -0.2601
   88MOL0     C11755   0.689  10.309   8.614 -0.5592 -0.1289  0.5375
   88MOL0     C11756   0.580  10.416   8.607 -0.2431  0.9727 -0.3304
   88MOL0     C11757   0.468  10.375   8.514  0.0911  0.1284  0.5626
   88MOL0     C11758   0.358  10.479   8.495  0.0267  0.2492  1.0696
   88MOL0     C11759   0.266  10.484   8.616 -0.0958  0.0404 -0.1063
   88MOL0     C11760   0.139  10.556   8.574 -0.1699 -1.0215  0.6550
   88MOL0     C11761   0.040  10.596   8.691 -1.0580 -0.7467  0.0792
   88MOL0     N11762  -0.060  10.691   8.629 -0.1418  0.3437  0.3352
   88MOL0     C11763  -0.164  10.652   8.547 -0.3750  0.5333 -0.2311
   88MOL0     C11764  -0.225  10.769   8.513  0.9290 -0.1390  0.5041
   88MOL0     C11765  -0.336  10.775   8.410 -1.7233 -0.1269  0.4516
   88MOL0     C11766  -0.314  10.885   8.304 -0.5192  0.1433 -0.5826
   88MOL0     C11767  -0.329  11.031   8.343  0.1883  0.8022  0.1252
   88MOL0     C11768  -0.461  11.047   8.424 -0.0162 -0.4363 -0.0664
   88MOL0     O11769  -0.479  11.185   8.433  0.2687 -0.1451 -0.7981
   88MOL0     C11770  -0.578  11.233   8.515 -0.1606  0.3045 -0.7274
   88MOL0     C11771  -0.592  11.367   8.537 -0.4442 -0.5072  0.0756
   88MOL0     C11772  -0.689  11.427   8.620 -0.0802  0.2897  0.3322
   88MOL0     C11773  -0.692  11.586   8.628  0.4382  1.1888  0.6830
   88MOL0     C11774  -0.790  11.340   8.675 -0.2983  0.1359  0.0594
   88MOL0     C11775  -0.892  11.386   8.775  0.0817 -0.2990 -0.0546
   88MOL0     O11776  -0.974  11.284   8.819 -0.2191 -0.3787  1.0346
   88MOL0     C11777  -1.074  11.308   8.906  0.2340 -0.5404 -0.2303
   88MOL0     C11778  -1.177  11.395   8.868  0.4607  0.1124 -0.5609
   88MOL0     C11779  -1.267  11.442   8.955  0.3191  0.0568  0.6130
   88MOL0     C11780  -1.269  11.394   9.085 -0.5708  0.8151 -0.2247
   88MOL0     O11781  -1.366  11.418   9.172  0.6782  0.7568  0.1387
   88MOL0     C11782  -1.497  11.469   9.131 -0.1385  0.0244 -0.1039
   88MOL0     C11783  -1.588  11.456   9.254 -0.4814 -0.3845  0.5404
   88MOL0     C11784  -1.738  11.441   9.224 -0.4979  0.1843 -0.1512
   88MOL0     C11785  -1.815  11.469   9.349 -0.1034  0.3461 -0.3248
   88MOL0     C11786  -1.962  11.451   9.323  0.5617 -0.4141  0.0945
   88MOL0     C11787  -2.060  11.515   9.429  0.3952 -0.3530 -0.3652
   88MOL0     C11788  -2.210  11.503   9.382  0.5284  0.4035  0.2502
   88MOL0     C11789  -2.275  11.613   9.463 -0.1133 -0.1622 -0.8309
   88MOL0    Cl11790  -2.442  11.641   9.411  0.1951  0.1671  0.2473
   88MOL0     C11791  -1.168  11.312   9.128 -0.1560 -0.6268  0.3494
   88MOL0     C11792  -1.069  11.273   9.042 -0.6610  0.6695  0.7803
   88MOL0     O11793  -0.904  11.504   8.809 -0.0733  0.7382  0.6922
   88MOL0     C11794  -0.789  11.207   8.635 -1.3287  0.0142 -0.4004
   88MOL0     C11795  -0.678  11.155   8.560  0.5372  0.2231  0.1364
   88MOL0     N11796  -0.165  10.871   8.582  0.8235 -0.2511 -0.5957
   88MOL0     N11797  -0.069  10.822   8.654  0.1038 -0.1196 -0.5796
   88MOL0     C11798   1.105  10.351   8.708  0.1235  0.1438  0.1901
   88MOL0     C11799   1.232  10.362   8.756  0.0180 -0.1124  0.5087
   88MOL0     C11800   1.663  10.240   8.840  0.1486 -0.4658 -1.6156
   88MOL0     C11801   1.775  10.254   8.754 -0.3537  0.8413  0.0690
   88MOL0     C11802   1.909  10.223   8.794  0.5008 -1.2348 -0.6295
   88MOL0     C11803   1.930  10.184   8.930 -0.6550  0.0034 -0.2510
   88MOL0     O11804   2.057  10.149   8.974 -0.4382  0.1215 -0.4131
   88MOL0     C11805   2.166  10.242   8.950  0.6871 -0.6245  0.1078
   88MOL0     C11806   2.241  10.269   9.076  0.2669 -0.0336  0.3880
   88MOL0     C11807   2.276  10.143   9.162 -0.3302 -0.0775 -0.4102
   88MOL0     C11808   2.361  10.032   9.083 -0.1566  0.3361 -0.0466
   88MOL0     C11809   2.490  10.057   9.138  0.1714  0.3518  0.4455
   88MOL0     C11810   2.603  10.060   9.174  0.6908  0.4940  0.7708
   88MOL0     C11811   1.818  10.164   9.013  0.3083 -0.2682  0.8663
   88MOL0     C11812   1.686  10.190   8.965  1.0924  0.5964 -0.8689
   88MOL0     H11813   1.246  10.070   8.923  0.3166  2.3162  2.6986
   88MOL0     H11814   1.017  10.052   8.832 -0.2981  0.1821  2.9595
   88MOL0     H11815   0.822  10.429   8.725  4.1264 -0.3260 -0.3684
   88MOL0     H11816   0.871  10.396   8.566 -1.5235  1.8240  0.3772
   88MOL0     H11817   0.703  10.264   8.515  1.0003  3.1019 -0.8480
   88MOL0     H11818   0.645  10.231   8.678 -1.1104 -0.4330 -0.1911
   88MOL0     H11819   0.543  10.420   8.710  0.5867 -0.7474  0.0652
   88MOL0     H11820   0.616  10.514   8.574  0.4008  0.9848  0.3646
   88MOL0     H11821   0.514  10.356   8.416  2.0662  1.7640  1.1091
   88MOL0     H11822   0.428  10.276   8.537 -0.8156  0.1692 -0.6893
   88MOL0     H11823   0.406  10.577   8.485  0.5813 -0.1545 -0.6742
   88MOL0     H11824   0.296  10.460   8.406  1.9528  0.0793 -0.2954
   88MOL0     H11825   0.238  10.393   8.668 -0.4702  0.7234  0.9169
   88MOL0     H11826   0.333  10.538   8.683  1.1441  0.1791 -1.3919
   88MOL0     H11827   0.172  10.650   8.528  0.4550 -0.9198  1.2920
   88MOL0     H11828   0.085  10.499   8.498  1.8008  0.9708 -2.4939
   88MOL0     H11829   0.105  10.656   8.755  0.5721 -0.6341 -1.6100
   88MOL0     H11830  -0.010  10.512   8.741  1.3827 -2.2740  0.1521
   88MOL0     H11831  -0.177  10.549   8.513 -2.0964 -0.3038  2.6354
   88MOL0     H11832  -0.334  10.678   8.359  2.3416 -0.2435  0.4993
   88MOL0     H11833  -0.430  10.781   8.464 -1.3803  2.5420  0.8778
   88MOL0     H11834  -0.399  10.872   8.237 -0.4147 -0.1839 -0.6569
   88MOL0     H11835  -0.216  10.873   8.256 -0.6943 -3.1427 -0.3644
   88MOL0     H11836  -0.323  11.078   8.244  0.3109 -2.0009 -1.2737
   88MOL0     H11837  -0.241  11.068   8.396  1.6572 -0.2044 -1.4948
   88MOL0     H11838  -0.438  11.004   8.522  0.1906 -0.0746  0.0474
   88MOL0     H11839  -0.547  11.001   8.374 -1.4693  3.1905 -1.2239
   88MOL0     H11840  -0.522  11.441   8.500 -1.2344  0.3351  0.2390
   88MOL0     H11841  -0.696  11.627   8.729  0.5875 -1.1570  1.7024
   88MOL0     H11842  -0.599  11.628   8.589  1.1159 -0.0429  0.9228
   88MOL0     H11843  -0.780  11.616   8.571  0.2306 -1.9144 -0.7856
   88MOL0     H11844  -1.176  11.434   8.767 -0.7536  0.1879 -0.5565
   88MOL0     H11845  -1.337  11.516   8.919  0.0312 -0.0621  0.9222
   88MOL0     H11846  -1.500  11.574   9.100 -2.7267  0.5253  1.5483
   88MOL0     H11847  -1.541  11.409   9.051 -1.8168  0.9986  0.0334
   88MOL0     H11848  -1.548  11.375   9.315  0.8818  1.3230  2.0557
   88MOL0     H11849  -1.571  11.547   9.313 -0.7232  0.5861 -0.8230
   88MOL0     H11850  -1.748  11.342   9.179  0.6908  0.4403 -1.0495
   88MOL0     H11851  -1.780  11.501   9.143 -4.1085 -0.0213  1.4112
   88MOL0     H11852  -1.782  11.402   9.429 -3.1244  1.3868  1.9922
   88MOL0     H11853  -1.796  11.572   9.382  4.8493 -0.1296 -1.0366
   88MOL0     H11854  -1.983  11.345   9.311  1.7779 -0.5272 -1.3625
   88MOL0     H11855  -1.982  11.499   9.226 -2.3628 -1.5967  0.0206
   88MOL0     H11856  -2.064  11.470   9.528 -2.3714 -1.0526 -0.7110
   88MOL0     H11857  -2.030  11.619   9.446  3.5161 -1.2581  0.2960
   88MOL0     H11858  -2.253  11.406   9.406 -3.4406  1.1872 -2.5627
   88MOL0     H11859  -2.215  11.527   9.275 -1.3845 -2.6567 -0.4486
   88MOL0     H11860  -2.212  11.701   9.448 -1.2503  0.5021 -1.8323
   88MOL0     H11861  -2.276  11.588   9.570  0.6784 -1.9974 -1.2124
   88MOL0     H11862  -1.183  11.261   9.222 -1.3745  0.5620  0.8175
   88MOL0     H11863  -0.993  11.200   9.066  1.2332  1.4520 -2.3032
   88MOL0     H11864  -0.860  11.131   8.668  0.1989 -2.0413 -1.6529
   88MOL0     H11865  -0.684  11.048   8.541  0.6939  0.1523  0.4939
   88MOL0     H11866   1.077  10.442   8.657 -0.6048 -0.2332 -0.0866
   88MOL0     H11867   1.282  10.452   8.720  1.5919 -0.8516  0.7717
   88MOL0     H11868   1.760  10.291   8.653  1.3633  2.2175  0.2749
   88MOL0     H11869   1.993  10.231   8.726  0.5937 -2.3622 -0.6661
   88MOL0     H11870   2.234  10.208   8.871 -0.2703 -1.1483 -0.5132
   88MOL0     H11871   2.122  10.340   8.930  1.3159  0.0519  1.8815
   88MOL0     H11872   2.187  10.338   9.141  1.0625  0.4350  0.5607
   88MOL0     H11873   2.332  10.328   9.059 -1.0179  1.4678 -1.9294
   88MOL0     H11874   2.183  10.103   9.202  0.2457 -0.7563  0.2935
   88MOL0     H11875   2.338  10.180   9.244  0.7151 -1.0843 -0.7049
   88MOL0     H11876   2.367  10.046   8.975 -0.3258  1.1077  0.0382
   88MOL0     H11877   2.320   9.933   9.108 -0.8747  0.7877  0.6053
   88MOL0     H11878   2.704  10.066   9.208  1.0455 -0.0664 -0.1490
   88MOL0     H11879   1.828  10.136   9.118  1.2904 -0.9166  0.6160
   88MOL0     H11880   1.615  10.166   9.043  3.2393 -3.3297  0.1393
   89MOL0     O11881   3.203   4.150   3.607  0.4177 -0.6986 -1.0339
   89MOL0     C11882   3.199   4.249   3.676  0.8250  1.0069  0.4447
   89MOL0     O11883   3.084   4.305   3.716  0.9116 -0.0776  0.1561
   89MOL0     C11884   2.957   4.259   3.687 -0.6213  0.2935  0.5947
   89MOL0     C11885   2.912   4.181   3.583 -0.0499 -0.0111  0.1401
   89MOL0     C11886   2.779   4.141   3.564 -0.1396  0.0331  0.4600
   89MOL0     C11887   2.682   4.187   3.648  0.2772  0.0680  0.6310
   89MOL0     O11888   2.550   4.154   3.634  0.2094 -0.1082 -0.2890
   89MOL0     C11889   2.487   4.174   3.508  0.8417  0.6627  0.1463
   89MOL0     C11890   2.330   4.158   3.512  0.7782  0.3570  0.8822
   89MOL0     C11891   2.255   4.280   3.586  0.4621 -0.3544  0.7499
   89MOL0     C11892   2.187   4.252   3.715 -1.1774 -0.6681 -0.0601
   89MOL0     C11893   2.117   4.376   3.772  0.3739 -1.0066  0.0455
   89MOL0     C11894   2.095   4.373   3.922 -0.1066 -0.0966  1.0083
   89MOL0     C11895   2.034   4.507   3.976 -1.1691  0.2908  0.8691
   89MOL0     C11896   2.001   4.500   4.121 -0.2201  0.4993 -0.5718
   89MOL0     N11897   1.957   4.365   4.173 -0.3895 -0.3040 -0.5613
   89MOL0     C11898   2.027   4.276   4.249 -0.0797 -0.0386  0.2650
   89MOL0     C11899   1.930   4.192   4.299 -0.8907 -0.2677  0.1986
   89MOL0     C11900   1.945   4.080   4.396 -0.3327 -0.0861 -0.1571
   89MOL0     C11901   1.818   4.059   4.479 -0.0395  0.5740  0.2162
   89MOL0     C11902   1.841   3.937   4.567  0.0592  0.1634 -0.3256
   89MOL0     C11903   1.722   3.919   4.666 -0.9697 -0.1108  0.1029
   89MOL0     O11904   1.594   3.939   4.613  0.3667  0.1393 -0.6475
   89MOL0     C11905   1.490   3.852   4.657  0.5202  0.2045  0.2774
   89MOL0     C11906   1.382   3.918   4.718 -1.0288  1.0832  0.4307
   89MOL0     C11907   1.276   3.845   4.769 -0.4148  0.3433 -0.9722
   89MOL0     C11908   1.171   3.926   4.838 -1.0422  0.0166  0.1809
   89MOL0     C11909   1.278   3.702   4.753 -0.2849  0.0396  0.3084
   89MOL0     C11910   1.164   3.612   4.806 -0.5440 -0.6895  0.3456
   89MOL0     O11911   1.084   3.669   4.899  0.0999 -0.8378 -0.1342
   89MOL0     C11912   0.951   3.645   4.906  0.6718  0.3751 -0.3997
   89MOL0     C11913   0.890   3.686   5.013 -0.1755  0.5298 -1.0665
   89MOL0     C11914   0.753   3.660   5.032  0.2995 -0.4090  0.3192
   89MOL0     C11915   0.685   3.586   4.932  0.1740 -0.2797  1.0051
   89MOL0     O11916   0.549   3.564   4.952  0.2692 -0.2297 -0.5820
   89MOL0     C11917   0.459   3.561   4.845  0.3903  0.2473 -0.0805
   89MOL0     C11918   0.333   3.633   4.887  0.2175  0.1932  0.7592
   89MOL0     C11919   0.245   3.534   4.971  0.4540  0.4577 -0.2364
   89MOL0     C11920   0.132   3.457   4.904 -0.1150  0.3561  0.4092
   89MOL0     C11921   0.027   3.398   5.005 -0.3317 -0.1614  0.5260
   89MOL0     C11922  -0.088   3.317   4.947  0.6075 -0.5657 -0.0161
   89MOL0     C11923  -0.144   3.387   4.817 -0.4638 -1.4506  0.7145
   89MOL0     C11924  -0.265   3.323   4.756  0.2332 -0.2783 -1.0752
   89MOL0    Cl11925  -0.385   3.442   4.701 -0.0100 -0.1811 -0.1085
   89MOL0     C11926   0.749   3.540   4.817 -0.7089 -0.3621 -0.2884
   89MOL0     C11927   0.883   3.573   4.808  0.0852 -0.2187  0.1315
   89MOL0     O11928   1.163   3.492   4.771  0.8422  0.2432  0.1891
   89MOL0     C11929   1.388   3.637   4.685  0.5596 -0.3870  0.3792
   89MOL0     C11930   1.492   3.715   4.632  0.3096  0.0433 -0.5765
   89MOL0     N11931   1.814   4.219   4.233 -0.2005  0.0981  0.6027
   89MOL0     N11932   1.831   4.315   4.157  0.8082 -0.6442  0.4201
   89MOL0     C11933   2.719   4.251   3.759  0.2100 -0.0687 -0.1685
   89MOL0     C11934   2.853   4.286   3.781 -0.5197 -0.1270  0.5860
   89MOL0     C11935   3.325   4.272   3.745  0.4818  0.9998 -0.9036
   89MOL0     C11936   3.449   4.221   3.713 -0.2884  0.5064 -0.1978
   89MOL0     C11937   3.552   4.221   3.808  0.0560 -0.4053  0.3429
   89MOL0     C11938   3.547   4.298   3.924 -0.3070  0.4737 -1.0702
   89MOL0     O11939   3.647   4.322   4.011 -0.3871  0.3323 -0.0920
   89MOL0     C11940   3.760   4.235   4.012  0.7356 -0.0638  0.2188
   89MOL0     C11941   3.885   4.310   4.048 -0.4895 -0.1865  0.0956
   89MOL0     C11942   3.992   4.228   4.118  0.7039  0.0352  0.0774
   89MOL0     C11943   4.137   4.291   4.126 -0.3115  1.2759  0.2456
   89MOL0     C11944   4.194   4.318   3.990 -0.2438  0.2745  0.7559
   89MOL0     C11945   4.233   4.328   3.874  0.2691 -0.9027  0.5299
   89MOL0     C11946   3.430   4.366   3.941 -0.0940 -0.6878  0.2095
   89MOL0     C11947   3.321   4.352   3.863  0.3469  0.1040  0.5634
   89MOL0     H11948   2.986   4.155   3.508 -0.8227 -3.4294  0.3739
   89MOL0     H11949   2.759   4.080   3.476 -0.9540  0.4469  0.3396
   89MOL0     H11950   2.512   4.272   3.466  0.9865  0.3422 -0.5158
   89MOL0     H11951   2.526   4.095   3.443  1.4589  2.0324 -1.2265
   89MOL0     H11952   2.282   4.162   3.414  0.8111  0.4126  0.8684
   89MOL0     H11953   2.294   4.067   3.561 -3.3282  0.2788 -1.8351
   89MOL0     H11954   2.328   4.360   3.603 -0.8140  0.7985  0.9948
   89MOL0     H11955   2.189   4.330   3.514  0.3814 -0.4281  0.7736
   89MOL0     H11956   2.112   4.175   3.695 -1.2522 -0.5777 -0.1318
   89MOL0     H11957   2.262   4.212   3.784  1.7160  2.0273 -1.4396
   89MOL0     H11958   2.180   4.464   3.752 -1.6209  1.0428  2.1619
   89MOL0     H11959   2.021   4.396   3.724 -0.2589 -3.1206  0.3701
   89MOL0     H11960   2.031   4.295   3.963 -2.8325  1.5644  0.1768
   89MOL0     H11961   2.194   4.365   3.969  0.3902 -1.0455 -0.1612
   89MOL0     H11962   2.091   4.596   3.948 -1.6235  0.8059  1.5181
   89MOL0     H11963   1.939   4.522   3.923 -0.5572 -0.0590 -0.3504
   89MOL0     H11964   1.923   4.571   4.150 -1.4947 -1.3911  0.8103
   89MOL0     H11965   2.089   4.535   4.176 -0.7640  1.7796 -0.4840
   89MOL0     H11966   2.134   4.275   4.267  0.7982 -1.8825 -3.8363
   89MOL0     H11967   1.961   3.988   4.339 -1.6201 -1.2733  1.3169
   89MOL0     H11968   2.026   4.115   4.461 -0.2939 -3.3959  1.7840
   89MOL0     H11969   1.737   4.039   4.409  0.6612 -3.0152  0.2290
   89MOL0     H11970   1.799   4.151   4.536  1.5458  1.3353 -0.4124
   89MOL0     H11971   1.931   3.950   4.628 -0.3370 -0.5684  0.4299
   89MOL0     H11972   1.849   3.848   4.504  1.2210  0.6612 -0.9193
   89MOL0     H11973   1.735   3.981   4.755 -0.9929  0.4445 -0.2776
   89MOL0     H11974   1.725   3.814   4.698 -1.7607 -0.3096 -0.4265
   89MOL0     H11975   1.382   4.026   4.731  1.6826  0.9446  2.5810
   89MOL0     H11976   1.162   3.912   4.947  0.8056  2.0296  0.6524
   89MOL0     H11977   1.198   4.032   4.832 -0.6375 -0.1430 -1.0568
   89MOL0     H11978   1.077   3.921   4.783 -1.3743 -1.0432  0.8101
   89MOL0     H11979   0.944   3.753   5.079  1.9948 -0.2100 -2.0004
   89MOL0     H11980   0.696   3.693   5.119 -0.8047  1.9993 -1.2269
   89MOL0     H11981   0.503   3.615   4.760  2.6779  2.5315  2.3614
   89MOL0     H11982   0.427   3.462   4.813 -3.0622  1.7306 -1.7638
   89MOL0     H11983   0.360   3.706   4.963  0.5618 -0.2800  1.0961
   89MOL0     H11984   0.276   3.682   4.807  0.4217  2.3427  1.8667
   89MOL0     H11985   0.185   3.594   5.041 -0.2179  0.5333 -0.8662
   89MOL0     H11986   0.296   3.461   5.034 -1.6571  2.2252  3.9078
   89MOL0     H11987   0.076   3.515   4.829  0.6874 -0.4690 -0.8719
   89MOL0     H11988   0.168   3.376   4.840 -2.0963 -0.5311  0.3347
   89MOL0     H11989  -0.011   3.490   5.050  2.0558  1.5378 -0.6906
   89MOL0     H11990   0.073   3.332   5.079 -0.7728 -1.9686 -0.7396
   89MOL0     H11991  -0.064   3.212   4.928 -0.2797 -0.5648 -1.2046
   89MOL0     H11992  -0.162   3.319   5.028  1.7140 -0.7788  1.0368
   89MOL0     H11993  -0.073   3.384   4.733 -2.9642  0.2605 -1.6310
   89MOL0     H11994  -0.159   3.494   4.832  0.0285 -1.5600  2.1349
   89MOL0     H11995  -0.303   3.252   4.830 -2.2845  0.9917 -1.0423
   89MOL0     H11996  -0.250   3.265   4.665  1.1941 -0.4642 -0.8193
   89MOL0     H11997   0.712   3.479   4.736  2.9863 -2.1820 -0.7928
   89MOL0     H11998   0.935   3.523   4.727 -2.6259 -2.7772 -0.1917
   89MOL0     H11999   1.385   3.529   4.671 -0.7045 -0.3509  0.3323
   89MOL0     H12000   1.575   3.659   4.590  0.0374  0.4159 -1.6474
   89MOL0     H12001   2.638   4.268   3.830 -0.7149  0.4791 -1.3036
   89MOL0     H12002   2.886   4.330   3.874  1.1457 -0.5739  0.2287
   89MOL0     H12003   3.459   4.167   3.620  0.3387 -2.1395  1.3113
   89MOL0     H12004   3.642   4.167   3.780  1.9322  1.7460  1.8261
   89MOL0     H12005   3.747   4.145   4.072 -0.3740 -0.2625 -0.3123
   89MOL0     H12006   3.783   4.182   3.919 -2.0419 -0.5040 -0.2858
   89MOL0     H12007   3.850   4.382   4.123 -1.7045 -1.2869  0.6365
   89MOL0     H12008   3.925   4.371   3.966  1.4332  1.1612  1.9490
   89MOL0     H12009   3.993   4.126   4.079 -0.8004 -0.9856  2.5342
   89MOL0     H12010   3.965   4.222   4.223  1.8731  0.4018  0.4120
   89MOL0     H12011   4.204   4.230   4.188 -2.0830  0.3280  1.3167
   89MOL0     H12012   4.126   4.392   4.167 -2.9450  1.7240 -1.3117
   89MOL0     H12013   4.276   4.329   3.776  0.1433 -1.3774  0.4665
   89MOL0     H12014   3.423   4.436   4.024 -1.2498 -0.0215 -0.4327
   89MOL0     H12015   3.231   4.406   3.893  0.7403  0.9406  0.2664
   90MOL0     O12016   3.494  10.243  11.084  0.0764  0.1379  0.2786
   90MOL0     C12017   3.439  10.301  10.992  0.8205 -0.3498 -0.0261
   90MOL0     O12018   3.311  10.282  10.952  0.6872  0.3222  0.1138
   90MOL0     C12019   3.217  10.233  11.046  0.3771 -0.0187 -0.1729
   90MOL0     C12020   3.182  10.309  11.158  0.1519 -0.4256 -0.2533
   90MOL0     C12021   3.085  10.265  11.247  0.2102  0.3439  0.7015
   90MOL0     C12022   3.008  10.156  11.219  0.3934  0.4822 -0.2747
   90MOL0     O12023   2.907  10.120  11.302 -1.0280  0.3726 -0.5320
   90MOL0     C12024   2.791  10.191  11.265  0.4856  0.3964 -1.2468
   90MOL0     C12025   2.697  10.120  11.169 -0.2929 -0.0579 -0.6971
   90MOL0     C12026   2.603  10.218  11.085  0.5269  0.0189 -0.3926
   90MOL0     C12027   2.517  10.312  11.178  0.0968  0.6070 -0.0782
   90MOL0     C12028   2.422  10.398  11.085  0.0105 -0.0480 -0.2680
   90MOL0     C12029   2.298  10.462  11.158 -0.0930  0.8672 -0.2980
   90MOL0     C12030   2.340  10.544  11.284 -0.8582  0.5045  0.8247
   90MOL0     C12031   2.219  10.607  11.353 -0.5662 -0.0204 -0.5306
   90MOL0     N12032   2.157  10.714  11.271 -0.0922  0.0087  0.1069
   90MOL0     C12033   2.212  10.825  11.223 -0.0374 -0.3910  0.3666
   90MOL0     C12034   2.124  10.877  11.136 -0.8309 -0.1428 -0.2572
   90MOL0     C12035   2.144  10.989  11.044  0.0895  0.1154  0.3272
   90MOL0     C12036   2.063  10.980  10.910  0.3384 -0.2070 -0.2097
   90MOL0     C12037   2.098  11.103  10.829  0.6932  0.3653  0.1695
   90MOL0     C12038   2.027  11.131  10.694  0.1384 -0.9461 -0.3694
   90MOL0     O12039   2.088  11.050  10.597  0.9995 -0.4067  0.3414
   90MOL0     C12040   2.006  11.024  10.486 -0.0960  0.0160  0.0468
   90MOL0     C12041   2.023  10.910  10.411 -0.7140 -0.3020  0.0317
   90MOL0     C12042   1.942  10.893  10.297  0.3080  0.5681  0.1149
   90MOL0     C12043   1.961  10.763  10.217 -0.1169 -0.1414 -0.7551
   90MOL0     C12044   1.835  10.980  10.268 -0.4418 -0.6739  0.0578
   90MOL0     C12045   1.732  10.957  10.165 -0.6714 -0.1982  0.4780
   90MOL0     O12046   1.611  10.990  10.203  0.0193  0.1378  1.2871
   90MOL0     C12047   1.509  10.959  10.116  0.3389 -0.2720  0.8679
   90MOL0     C12048   1.487  10.833  10.064 -0.8589  0.4779 -1.3134
   90MOL0     C12049   1.370  10.803   9.996  0.8886  0.2650 -0.5109
   90MOL0     C12050   1.264  10.890   9.983 -0.1680 -0.8334  0.6853
   90MOL0     O12051   1.156  10.839   9.904 -0.2964 -0.1691 -0.0711
   90MOL0     C12052   1.035  10.912   9.892  0.1765 -0.1787 -0.2431
   90MOL0     C12053   0.935  10.843   9.814  0.9315 -1.1476 -0.2014
   90MOL0     C12054   0.801  10.916   9.828  0.0146  0.5510 -0.8996
   90MOL0     C12055   0.687  10.837   9.771 -0.1397  0.9335 -0.3595
   90MOL0     C12056   0.546  10.894   9.795 -0.5327  0.9735  0.2252
   90MOL0     C12057   0.436  10.819   9.725 -0.3346 -0.1640  0.5257
   90MOL0     C12058   0.312  10.900   9.709 -0.2037 -0.2462  0.0283
   90MOL0     C12059   0.197  10.815   9.659  0.1224 -0.5905  0.5093
   90MOL0    Cl12060   0.038  10.905   9.658  0.3054 -0.1836  0.1475
   90MOL0     C12061   1.282  11.016  10.039  0.0162 -0.0327  0.6281
   90MOL0     C12062   1.404  11.050  10.098 -0.7749 -0.2635 -0.2811
   90MOL0     O12063   1.764  10.919  10.048  0.2783  0.1418  0.0645
   90MOL0     C12064   1.826  11.093  10.347  0.4187 -0.1305  0.3569
   90MOL0     C12065   1.912  11.117  10.451  0.6120  0.5375  0.3578
   90MOL0     N12066   2.017  10.801  11.140 -0.1254  0.5318 -0.1138
   90MOL0     N12067   2.032  10.707  11.230 -0.7406 -0.2297  0.3985
   90MOL0     C12068   3.031  10.089  11.101 -0.6589 -0.5139 -0.6870
   90MOL0     C12069   3.144  10.119  11.018  0.1938 -0.2777 -0.0991
   90MOL0     C12070   3.531  10.388  10.912 -0.5320  0.7645  0.1797
   90MOL0     C12071   3.626  10.470  10.977 -0.5644  0.1399 -0.3306
   90MOL0     C12072   3.714  10.564  10.917  0.6036 -0.1001  0.3171
   90MOL0     C12073   3.706  10.581  10.780  0.1712  0.4776 -0.5656
   90MOL0     O12074   3.776  10.667  10.698 -0.2404  0.1827  0.4499
   90MOL0     C12075   3.880  10.745  10.763 -0.5533 -0.3896  0.4323
   90MOL0     C12076   3.931  10.850  10.656 -0.5145  0.4858  0.7443
   90MOL0     C12077   4.087  10.887  10.667 -0.0559 -0.7532 -1.0249
   90MOL0     C12078   4.135  11.003  10.572 -0.1209 -0.1507 -0.9531
   90MOL0     C12079   4.263  11.060  10.618 -0.9222  0.7753 -0.3792
   90MOL0     C12080   4.378  11.108  10.635  0.7975  0.1941 -0.1932
   90MOL0     C12081   3.603  10.509  10.713 -0.4063 -0.0591  0.1721
   90MOL0     C12082   3.520  10.411  10.773  0.3515 -0.0073  0.5250
   90MOL0     H12083   3.236  10.400  11.182  0.3300 -0.2803 -1.1800
   90MOL0     H12084   3.060  10.327  11.333  0.8646  0.0749  1.0920
   90MOL0     H12085   2.735  10.205  11.358  1.0699 -1.0903 -0.6364
   90MOL0     H12086   2.810  10.295  11.234 -0.4489  0.7150 -0.7715
   90MOL0     H12087   2.756  10.062  11.098  2.4015  1.3265  0.2549
   90MOL0     H12088   2.633  10.053  11.226  1.9482  0.7883  3.1821
   90MOL0     H12089   2.663  10.271  11.010  0.3370  1.7059  0.5884
   90MOL0     H12090   2.530  10.153  11.036  1.9507 -2.3308  0.4682
   90MOL0     H12091   2.447  10.257  11.242 -0.9169 -1.0000 -2.4555
   90MOL0     H12092   2.586  10.371  11.240 -0.0717  0.8262 -0.0967
   90MOL0     H12093   2.476  10.467  11.021  1.0604 -0.2168  0.4086
   90MOL0     H12094   2.375  10.336  11.008  1.4236 -1.1425 -0.2961
   90MOL0     H12095   2.237  10.522  11.090 -0.6065  0.7186  0.0236
   90MOL0     H12096   2.232  10.379  11.185  0.8674  0.4949  0.9923
   90MOL0     H12097   2.378  10.475  11.361  2.4595  1.6745  0.3922
   90MOL0     H12098   2.417  10.615  11.255  1.9124 -2.2446  0.9158
   90MOL0     H12099   2.250  10.659  11.444 -0.9120 -1.0813  0.2010
   90MOL0     H12100   2.156  10.523  11.383  0.0698 -0.1313  0.5321
   90MOL0     H12101   2.307  10.875  11.239 -0.2773 -0.2813  1.5392
   90MOL0     H12102   2.121  11.078  11.104 -2.2554 -0.9304  1.0822
   90MOL0     H12103   2.250  10.989  11.017  0.4844 -0.3952  1.8311
   90MOL0     H12104   1.956  10.967  10.929  0.2893  0.8331  0.2685
   90MOL0     H12105   2.092  10.891  10.853 -0.4107 -0.1408 -0.6956
   90MOL0     H12106   2.204  11.086  10.807  0.7242 -0.7975  1.1352
   90MOL0     H12107   2.095  11.190  10.895  3.6346  2.9987 -2.7692
   90MOL0     H12108   2.042  11.237  10.676 -0.8258 -0.9324 -1.1877
   90MOL0     H12109   1.920  11.110  10.707  0.3186 -0.8610  1.5336
   90MOL0     H12110   2.095  10.833  10.437 -0.8356 -0.8201 -1.0929
   90MOL0     H12111   1.963  10.675  10.283 -1.1282  0.2819 -0.1317
   90MOL0     H12112   1.881  10.740  10.146 -0.0642 -0.7705 -0.6178
   90MOL0     H12113   2.053  10.769  10.159  1.0078  0.2852  1.0049
   90MOL0     H12114   1.572  10.767  10.077 -0.1675  1.3294 -1.4175
   90MOL0     H12115   1.363  10.700   9.962 -0.8558  0.7289 -1.6798
   90MOL0     H12116   1.002  10.928   9.995  1.0048 -1.2368  0.2049
   90MOL0     H12117   1.051  11.006   9.837 -0.5668  1.7987  2.6943
   90MOL0     H12118   0.960  10.832   9.708 -0.5808  3.6873 -1.3244
   90MOL0     H12119   0.918  10.747   9.864 -0.1460 -0.8108  0.1085
   90MOL0     H12120   0.811  11.012   9.777 -0.6818  1.4607  0.6039
   90MOL0     H12121   0.772  10.922   9.933 -0.1770 -0.1978 -0.9001
   90MOL0     H12122   0.709  10.831   9.664  1.3242 -3.1349 -0.0104
   90MOL0     H12123   0.693  10.735   9.810 -1.0855  0.5613 -1.1192
   90MOL0     H12124   0.530  10.994   9.754 -0.4295  1.3978  1.1991
   90MOL0     H12125   0.526  10.900   9.902 -2.7152 -1.3283  0.0398
   90MOL0     H12126   0.464  10.783   9.625 -2.0269  1.4125 -0.5859
   90MOL0     H12127   0.423  10.723   9.776  0.3762 -0.4030  0.2825
   90MOL0     H12128   0.332  10.984   9.641  1.3532  0.0039  0.7589
   90MOL0     H12129   0.286  10.937   9.809 -1.4990  0.8761 -0.6910
   90MOL0     H12130   0.185  10.722   9.716 -0.9094 -0.8008 -0.0215
   90MOL0     H12131   0.228  10.782   9.559  0.6351 -3.1823  1.4231
   90MOL0     H12132   1.203  11.090  10.027 -0.1109 -0.6208 -3.1246
   90MOL0     H12133   1.415  11.144  10.152 -0.4847 -0.9076  0.8287
   90MOL0     H12134   1.748  11.163  10.317  0.7155 -0.6926 -1.9265
   90MOL0     H12135   1.896  11.208  10.507 -2.3953  1.3922 -1.6431
   90MOL0     H12136   2.974   9.997  11.092  0.3998 -1.2582 -0.0876
   90MOL0     H12137   3.155  10.065  10.924 -2.0711 -0.0754 -0.5413
   90MOL0     H12138   3.633  10.471  11.085 -3.2211  0.6565 -0.0912
   90MOL0     H12139   3.770  10.635  10.977 -0.1797 -0.2861  1.3099
   90MOL0     H12140   3.848  10.791  10.857 -1.0442 -0.9515  0.5420
   90MOL0     H12141   3.963  10.677  10.784 -0.9217 -0.5042  1.6023
   90MOL0     H12142   3.870  10.939  10.673  0.9924  1.7829 -0.3253
   90MOL0     H12143   3.914  10.811  10.555  1.8228  1.3562 -0.0694
   90MOL0     H12144   4.150  10.799  10.653  1.1697  0.2163 -1.8828
   90MOL0     H12145   4.091  10.919  10.771 -2.5682 -1.6411 -0.5809
   90MOL0     H12146   4.063  11.084  10.584 -0.3841 -0.3059 -1.4411
   90MOL0     H12147   4.136  10.974  10.467 -0.1613 -1.6755 -0.5615
   90MOL0     H12148   4.463  11.170  10.660 -0.6368  1.8115  0.9306
   90MOL0     H12149   3.566  10.537  10.615 -2.4128 -2.0451  0.2603
   90MOL0     H12150   3.438  10.370  10.716  0.3204  2.2207 -1.1782
   91MOL0     O12151   0.162   7.122   2.445 -0.4483 -0.3191  0.0364
   91MOL0     C12152   0.187   7.135   2.566 -0.1950  0.2014 -0.9272
   91MOL0     O12153   0.110   7.089   2.673 -0.0448 -0.1526  0.0479
   91MOL0     C12154  -0.000   7.010   2.646  0.1945  0.5229 -0.7815
   91MOL0     C12155   0.004   6.897   2.559 -0.3033  0.1552 -0.3638
   91MOL0     C12156  -0.109   6.821   2.551 -0.2956  0.1790 -0.1532
   91MOL0     C12157  -0.213   6.839   2.630  0.4142 -0.3364 -0.3948
   91MOL0     O12158  -0.309   6.753   2.594 -0.1471 -0.1912 -0.2639
   91MOL0     C12159  -0.404   6.712   2.690  0.1292  0.1776  0.1867
   91MOL0     C12160  -0.517   6.619   2.646 -1.2782  0.2598  0.7495
   91MOL0     C12161  -0.635   6.678   2.567 -0.2814 -0.3798 -0.1882
   91MOL0     C12162  -0.595   6.743   2.431 -0.8830 -0.5520 -0.4601
   91MOL0     C12163  -0.712   6.735   2.333  0.0617 -0.1391  0.5724
   91MOL0     C12164  -0.829   6.836   2.357 -0.9723 -0.4218 -0.6288
   91MOL0     C12165  -0.916   6.851   2.237 -0.2002 -0.1846  0.3491
   91MOL0     C12166  -1.049   6.908   2.282 -0.3682  0.5926 -0.3147
   91MOL0     N12167  -1.150   6.806   2.318  0.3385  0.8917 -0.2053
   91MOL0     C12168  -1.194   6.695   2.240 -0.1847  0.0735  0.4256
   91MOL0     C12169  -1.273   6.616   2.320  0.1688  0.2290 -0.1664
   91MOL0     C12170  -1.328   6.482   2.279  0.3136  0.3364  0.1711
   91MOL0     C12171  -1.458   6.484   2.194 -0.1918  0.2416  0.1293
   91MOL0     C12172  -1.578   6.562   2.246 -0.1434  0.7259  0.0379
   91MOL0     C12173  -1.673   6.601   2.142  0.1299  0.2088 -0.0393
   91MOL0     O12174  -1.730   6.485   2.083 -0.3505 -0.5924 -0.3989
   91MOL0     C12175  -1.865   6.495   2.054  0.2903  0.3283 -0.4467
   91MOL0     C12176  -1.912   6.502   1.920  0.0354 -1.0996  0.2424
   91MOL0     C12177  -2.050   6.508   1.892  0.1098  0.0030  0.4434
   91MOL0     C12178  -2.083   6.520   1.756  0.1946 -0.3161 -0.4378
   91MOL0     C12179  -2.143   6.497   2.000  0.6940  0.0916 -0.3646
   91MOL0     C12180  -2.290   6.505   1.983  1.0287 -0.0292  0.7890
   91MOL0     O12181  -2.381   6.426   2.050  0.3497 -0.2937 -0.2093
   91MOL0     C12182  -2.510   6.396   2.012 -0.3537  0.7115 -0.0380
   91MOL0     C12183  -2.593   6.353   2.114 -0.7083  0.4739  1.2712
   91MOL0     C12184  -2.719   6.298   2.080 -0.3907 -0.5325 -0.6413
   91MOL0     C12185  -2.771   6.310   1.951 -0.2988  0.1078 -0.2914
   91MOL0     O12186  -2.897   6.273   1.912 -0.0885 -0.7512 -0.3567
   91MOL0     C12187  -2.991   6.222   2.005  0.1534  0.1903 -1.2304
   91MOL0     C12188  -3.118   6.184   1.938 -1.3254 -0.0182 -0.5853
   91MOL0     C12189  -3.197   6.301   1.893 -0.2019 -0.1014 -1.2738
   91MOL0     C12190  -3.324   6.259   1.813  1.2487 -0.2934 -0.6257
   91MOL0     C12191  -3.438   6.366   1.836 -0.0753  0.4466 -0.2115
   91MOL0     C12192  -3.575   6.325   1.774  1.2361 -0.4269  0.2275
   91MOL0     C12193  -3.695   6.425   1.782 -0.2031 -0.3948 -0.3430
   91MOL0     C12194  -3.832   6.362   1.750 -0.1168  0.6975 -0.4515
   91MOL0    Cl12195  -3.943   6.498   1.732  0.3741 -0.5908  0.6150
   91MOL0     C12196  -2.687   6.364   1.859 -0.1419 -0.1365  0.3278
   91MOL0     C12197  -2.562   6.407   1.882  0.0235 -0.1121  0.1994
   91MOL0     O12198  -2.333   6.581   1.900  0.5361  0.2187  0.8773
   91MOL0     C12199  -2.096   6.470   2.130  0.1848 -1.0503  1.1457
   91MOL0     C12200  -1.955   6.471   2.157  1.2769  0.3319 -0.2801
   91MOL0     N12201  -1.264   6.680   2.446  0.0328 -0.2403  0.6089
   91MOL0     N12202  -1.205   6.792   2.442 -0.3756  0.0653 -0.3343
   91MOL0     C12203  -0.229   6.941   2.721  0.0275 -0.0715 -0.0013
   91MOL0     C12204  -0.112   7.026   2.728  0.0736 -0.0794  0.2807
   91MOL0     C12205   0.290   7.223   2.595  0.1090 -1.2597  0.3868
   91MOL0     C12206   0.364   7.285   2.492  0.5740  0.5590 -0.1000
   91MOL0     C12207   0.484   7.343   2.522 -0.4352  0.5589  0.8682
   91MOL0     C12208   0.527   7.372   2.650 -0.3784 -1.4903 -0.5377
   91MOL0     O12209   0.640   7.451   2.645  0.5499  0.4685 -0.0841
   91MOL0     C12210   0.654   7.559   2.745  0.2019  0.6988 -1.2084
   91MOL0     C12211   0.729   7.508   2.877  0.1750  0.9808  0.2490
   91MOL0     C12212   0.885   7.503   2.858 -0.8673  0.0016  0.1845
   91MOL0     C12213   0.976   7.497   2.987  0.4455  0.1394  0.7027
   91MOL0     C12214   1.110   7.471   2.948 -0.3036 -0.2070 -0.2375
   91MOL0     C12215   1.226   7.456   2.926  0.0606  0.4650 -0.5166
   91MOL0     C12216   0.450   7.325   2.761 -0.0042  0.5227  0.5977
   91MOL0     C12217   0.334   7.247   2.731 -0.4086  0.0763  0.1153
   91MOL0     H12218   0.093   6.879   2.500  1.7898  0.3457  2.5332
   91MOL0     H12219  -0.098   6.734   2.486 -0.1943 -1.4164  1.9020
   91MOL0     H12220  -0.343   6.675   2.773  0.6980  0.9664  0.1315
   91MOL0     H12221  -0.467   6.794   2.725 -1.4099 -1.3320  1.1067
   91MOL0     H12222  -0.472   6.532   2.598 -5.0169 -0.1383 -2.5165
   91MOL0     H12223  -0.561   6.575   2.736  0.0790  0.8609  1.7480
   91MOL0     H12224  -0.699   6.590   2.563  0.6517 -1.1052  0.3231
   91MOL0     H12225  -0.697   6.753   2.617  0.4319 -1.1401  1.9249
   91MOL0     H12226  -0.559   6.843   2.457 -1.6412 -0.2786 -0.4457
   91MOL0     H12227  -0.506   6.695   2.389 -0.1900 -0.5832  0.9964
   91MOL0     H12228  -0.678   6.757   2.231 -0.2918  1.0550  0.6929
   91MOL0     H12229  -0.754   6.635   2.334  1.1861 -0.6208  1.1405
   91MOL0     H12230  -0.884   6.793   2.441 -0.3852 -2.3016 -1.1549
   91MOL0     H12231  -0.783   6.931   2.385 -2.8479  1.0596 -2.2080
   91MOL0     H12232  -0.870   6.920   2.166  1.4333  0.0731  1.5937
   91MOL0     H12233  -0.936   6.751   2.197  2.6747  0.1725 -2.3812
   91MOL0     H12234  -1.096   6.964   2.201 -0.2978  0.9684 -0.1002
   91MOL0     H12235  -1.034   6.970   2.371 -1.1923  1.3423 -0.6772
   91MOL0     H12236  -1.165   6.677   2.137  1.7710  1.6665  0.6410
   91MOL0     H12237  -1.246   6.426   2.233  1.4927 -0.6241  3.1842
   91MOL0     H12238  -1.351   6.439   2.377  0.8640 -0.0447  0.1403
   91MOL0     H12239  -1.492   6.384   2.166  0.0507  0.2314 -0.1383
   91MOL0     H12240  -1.436   6.534   2.099  1.8436  1.4941  1.1840
   91MOL0     H12241  -1.540   6.658   2.281  0.5868  1.3301 -2.2242
   91MOL0     H12242  -1.633   6.508   2.324  1.3295  0.1740  0.7305
   91MOL0     H12243  -1.624   6.654   2.060  0.2426  0.4197  0.1639
   91MOL0     H12244  -1.741   6.670   2.192 -1.4449 -0.8393 -0.6695
   91MOL0     H12245  -1.832   6.509   1.848 -1.8946  1.4855 -1.8565
   91MOL0     H12246  -2.100   6.625   1.730  1.9834  0.1332  0.0611
   91MOL0     H12247  -1.993   6.490   1.702 -0.0123  0.5883 -1.3145
   91MOL0     H12248  -2.165   6.452   1.728 -0.3371  0.4042 -0.6603
   91MOL0     H12249  -2.556   6.348   2.216 -2.3302 -0.0833  1.8766
   91MOL0     H12250  -2.783   6.270   2.162  1.1736  0.1856  0.8818
   91MOL0     H12251  -2.951   6.133   2.054 -2.1700  0.7796  2.0743
   91MOL0     H12252  -3.010   6.296   2.084 -0.5216 -1.6116  0.3795
   91MOL0     H12253  -3.082   6.123   1.854 -1.1937  1.0687 -1.3431
   91MOL0     H12254  -3.163   6.113   2.007 -0.0505  0.5236  0.8566
   91MOL0     H12255  -3.133   6.362   1.828  2.1163 -2.6923 -1.5964
   91MOL0     H12256  -3.228   6.356   1.982 -1.8453 -3.3759  0.3680
   91MOL0     H12257  -3.291   6.265   1.709  1.6866  3.8819 -0.4211
   91MOL0     H12258  -3.371   6.165   1.844 -2.1525  1.4411  0.0357
   91MOL0     H12259  -3.401   6.458   1.791  0.7191 -0.7000 -2.0436
   91MOL0     H12260  -3.455   6.382   1.943  0.3893  1.1392 -0.2369
   91MOL0     H12261  -3.558   6.320   1.666 -0.2167  1.2697 -0.1294
   91MOL0     H12262  -3.615   6.228   1.804 -1.2938  0.1881 -0.9264
   91MOL0     H12263  -3.673   6.511   1.717  0.0325  1.0810  1.6023
   91MOL0     H12264  -3.701   6.465   1.883  1.1480 -0.8927 -0.0453
   91MOL0     H12265  -3.853   6.290   1.829  1.3910  0.4233 -0.2596
   91MOL0     H12266  -3.822   6.301   1.660 -1.4738  0.8732 -0.7394
   91MOL0     H12267  -2.721   6.365   1.756  0.3517 -0.0676  0.1644
   91MOL0     H12268  -2.505   6.460   1.805  0.5617 -0.1032  0.5978
   91MOL0     H12269  -2.169   6.459   2.210 -0.6991 -0.3373  0.4598
   91MOL0     H12270  -1.911   6.426   2.246  0.2187  0.7654  0.4944
   91MOL0     H12271  -0.308   6.968   2.790 -0.1256 -0.8176  0.1224
   91MOL0     H12272  -0.108   7.112   2.795  1.8584 -0.0559  0.1672
   91MOL0     H12273   0.343   7.278   2.385  0.5594  3.0896 -0.3367
   91MOL0     H12274   0.536   7.391   2.439  1.1921  0.0950  1.5728
   91MOL0     H12275   0.711   7.639   2.698  1.3224  0.2920 -0.5591
   91MOL0     H12276   0.555   7.593   2.777 -0.9489 -1.3893 -2.3194
   91MOL0     H12277   0.693   7.410   2.910  1.1871  0.3446 -0.5059
   91MOL0     H12278   0.715   7.581   2.958  0.1247  0.8642  0.3456
   91MOL0     H12279   0.913   7.591   2.799  1.7543 -0.2605  0.9319
   91MOL0     H12280   0.912   7.416   2.797  2.0090  0.6592  0.3901
   91MOL0     H12281   0.939   7.433   3.069 -0.9550 -0.5664 -0.4352
   91MOL0     H12282   0.975   7.595   3.035 -0.2391  0.2847  0.3942
   91MOL0     H12283   1.332   7.451   2.914  0.2298  0.8396  0.6679
   91MOL0     H12284   0.475   7.358   2.862 -0.9048 -0.9543  1.3289
   91MOL0     H12285   0.274   7.221   2.818 -0.5313  0.9757  0.3143
   92MOL0     O12286   7.932   3.850   7.410 -0.1209  0.4545 -0.0801
   92MOL0     C12287   7.930   3.919   7.511  0.4532  0.5360 -0.1883
   92MOL0     O12288   7.821   3.975   7.562  0.4363 -0.4943  0.0036
   92MOL0     C12289   7.691   3.922   7.540  0.1340  0.4203  0.5526
   92MOL0     C12290   7.657   3.804   7.469 -0.4231 -0.3513 -0.4170
   92MOL0     C12291   7.520   3.771   7.449  0.5605 -0.9527 -0.3244
   92MOL0     C12292   7.418   3.853   7.489 -0.4927 -0.1050  0.3674
   92MOL0     O12293   7.294   3.822   7.449 -0.0870 -0.2739 -0.1641
   92MOL0     C12294   7.176   3.875   7.529 -0.0804  0.4014  0.9534
   92MOL0     C12295   7.046   3.850   7.448 -0.3629 -0.4854  0.0754
   92MOL0     C12296   7.025   3.698   7.454 -0.2354  0.6423 -0.4029
   92MOL0     C12297   6.898   3.655   7.371 -0.2473  0.2548 -0.1373
   92MOL0     C12298   6.821   3.543   7.440 -0.4720 -0.4759  0.0141
   92MOL0     C12299   6.900   3.425   7.508  0.7393  0.0425  0.4604
   92MOL0     C12300   6.800   3.317   7.557 -0.4001  0.0959  0.2240
   92MOL0     C12301   6.765   3.225   7.449  0.0483  0.4326  0.0034
   92MOL0     N12302   6.655   3.132   7.497  0.4000 -0.1368  0.2958
   92MOL0     C12303   6.626   3.010   7.441 -0.3891  0.0776  0.2143
   92MOL0     C12304   6.510   2.963   7.500 -0.2575  0.3363 -0.0766
   92MOL0     C12305   6.437   2.841   7.451  0.0708  0.2365  0.3687
   92MOL0     C12306   6.349   2.881   7.330 -1.2113 -0.4998 -0.3782
   92MOL0     C12307   6.233   2.974   7.382  0.2945  0.0634 -0.0162
   92MOL0     C12308   6.134   3.013   7.276 -0.1545  0.5233  0.5225
   92MOL0     O12309   6.190   3.120   7.196 -0.5526  0.4465  0.2189
   92MOL0     C12310   6.217   3.231   7.270  0.6959 -1.4718 -0.2925
   92MOL0     C12311   6.110   3.322   7.285 -0.5813 -0.6243  1.7399
   92MOL0     C12312   6.134   3.451   7.346  0.5705 -0.1355 -0.2081
   92MOL0     C12313   6.013   3.546   7.361  0.0933 -0.0936 -0.0206
   92MOL0     C12314   6.273   3.482   7.387 -0.2412  0.3776  0.0775
   92MOL0     C12315   6.313   3.610   7.453 -0.2643  0.0786 -0.5908
   92MOL0     O12316   6.442   3.631   7.474 -0.3045 -0.3357  0.2545
   92MOL0     C12317   6.493   3.758   7.505 -0.0079  0.2438  0.7402
   92MOL0     C12318   6.574   3.777   7.609 -0.2661  0.4284 -0.4783
   92MOL0     C12319   6.656   3.891   7.628  0.5725 -0.1350 -0.1056
   92MOL0     C12320   6.671   3.977   7.518  0.5562 -0.6020  0.3818
   92MOL0     O12321   6.763   4.083   7.527  0.0879 -0.4524  0.0378
   92MOL0     C12322   6.804   4.155   7.409  0.2030 -0.5241 -0.5617
   92MOL0     C12323   6.888   4.270   7.453  0.0995  0.1141  0.7020
   92MOL0     C12324   7.036   4.243   7.507  0.4872 -0.5830  0.0986
   92MOL0     C12325   7.089   4.361   7.583  0.4188 -0.4555  0.2266
   92MOL0     C12326   7.247   4.347   7.585 -0.8237  0.4946  0.1190
   92MOL0     C12327   7.318   4.371   7.454  0.3106 -0.4279  0.3889
   92MOL0     C12328   7.457   4.437   7.453 -0.2846  0.1672 -0.0220
   92MOL0     C12329   7.564   4.338   7.511  0.9517 -0.8587 -1.1596
   92MOL0    Cl12330   7.719   4.403   7.464  0.0901  0.3844 -0.0711
   92MOL0     C12331   6.603   3.948   7.403 -0.1895 -0.3536 -0.7500
   92MOL0     C12332   6.516   3.837   7.396  1.2971  0.7559 -0.3332
   92MOL0     O12333   6.228   3.692   7.489 -0.0407  0.7614  0.6383
   92MOL0     C12334   6.368   3.385   7.374 -0.2168 -0.0458 -0.2306
   92MOL0     C12335   6.343   3.256   7.312  0.6129  0.3183 -0.0548
   92MOL0     N12336   6.470   3.061   7.587 -0.5645 -1.3602 -0.8410
   92MOL0     N12337   6.555   3.159   7.578 -0.6643  0.5406 -0.1103
   92MOL0     C12338   7.448   3.982   7.554 -0.2701 -0.0088  0.1717
   92MOL0     C12339   7.586   4.005   7.578  0.5266 -1.1573 -0.3356
   92MOL0     C12340   8.046   3.929   7.599  0.0962 -0.0482  0.1856
   92MOL0     C12341   8.044   4.016   7.708  0.1770 -0.0914  0.2118
   92MOL0     C12342   8.158   4.030   7.789  0.4686 -1.0247  0.7958
   92MOL0     C12343   8.273   3.961   7.765 -0.1216 -0.1196  1.4103
   92MOL0     O12344   8.387   3.975   7.838  0.1109 -0.1851 -0.3067
   92MOL0     C12345   8.425   4.108   7.879  0.1621  0.7875 -0.5784
   92MOL0     C12346   8.537   4.166   7.805 -0.1113  0.7769 -0.2351
   92MOL0     C12347   8.684   4.107   7.830  0.8379  1.2983  0.7502
   92MOL0     C12348   8.799   4.202   7.823  1.3681 -0.1104  0.1442
   92MOL0     C12349   8.803   4.269   7.695 -1.1813  0.3829  0.2017
   92MOL0     C12350   8.809   4.314   7.586  0.4204  0.1529  0.4143
   92MOL0     C12351   8.276   3.873   7.649 -0.9975  0.2995 -0.3542
   92MOL0     C12352   8.163   3.863   7.562  0.3564 -1.4042  0.7577
   92MOL0     H12353   7.738   3.738   7.440 -0.1928  0.9211 -2.9453
   92MOL0     H12354   7.505   3.678   7.395  0.9078 -2.5867  2.2353
   92MOL0     H12355   7.178   3.829   7.629  3.1038  0.0309  0.8185
   92MOL0     H12356   7.178   3.984   7.540  3.3646  1.0936 -3.5860
   92MOL0     H12357   6.964   3.909   7.488 -0.0981  0.3747 -0.6121
   92MOL0     H12358   7.051   3.880   7.343 -0.4410  3.1100  0.9949
   92MOL0     H12359   7.119   3.651   7.425  0.8749  2.2124  0.5096
   92MOL0     H12360   7.012   3.664   7.557 -1.7948 -2.7865 -1.6007
   92MOL0     H12361   6.829   3.737   7.349 -0.7118  0.0726  0.6151
   92MOL0     H12362   6.935   3.629   7.271 -0.8714  2.8924 -1.1419
   92MOL0     H12363   6.749   3.593   7.506  0.1105  0.7470 -0.2376
   92MOL0     H12364   6.756   3.505   7.361 -1.8033  0.0901  0.7973
   92MOL0     H12365   6.976   3.376   7.448 -0.2289 -1.8065  0.6578
   92MOL0     H12366   6.953   3.462   7.596  2.7457  0.0969 -0.7238
   92MOL0     H12367   6.844   3.260   7.639  0.0367  1.2322  0.7987
   92MOL0     H12368   6.713   3.371   7.594 -1.8032 -1.8603 -0.0578
   92MOL0     H12369   6.851   3.166   7.417 -1.3452 -0.0695 -3.1558
   92MOL0     H12370   6.732   3.280   7.361  1.4971  0.9629 -0.2347
   92MOL0     H12371   6.684   2.959   7.365  0.5622 -3.0989  2.8351
   92MOL0     H12372   6.516   2.768   7.428  0.8530  1.4822 -1.0071
   92MOL0     H12373   6.372   2.799   7.529  1.5777 -2.6910  0.2160
   92MOL0     H12374   6.311   2.792   7.278 -1.6292  0.3752 -1.6390
   92MOL0     H12375   6.411   2.936   7.259 -2.2053  1.4281  0.1778
   92MOL0     H12376   6.273   3.060   7.436 -0.5679 -0.5929  1.7482
   92MOL0     H12377   6.174   2.921   7.458  0.9778  0.3882  0.7601
   92MOL0     H12378   6.040   3.048   7.319 -0.2842 -0.3953  1.0181
   92MOL0     H12379   6.121   2.926   7.212 -0.5346  0.7399  0.3049
   92MOL0     H12380   6.013   3.306   7.240  0.6855  0.4683 -1.6551
   92MOL0     H12381   5.926   3.507   7.308 -0.8708 -0.7952  1.9778
   92MOL0     H12382   5.986   3.558   7.467  0.3157 -1.3089  0.1824
   92MOL0     H12383   6.048   3.644   7.326  3.1697  0.1926  3.2944
   92MOL0     H12384   6.580   3.705   7.690 -0.2417 -1.1862 -1.8557
   92MOL0     H12385   6.719   3.900   7.717 -0.8520  1.4815  0.7801
   92MOL0     H12386   6.859   4.082   7.349  0.8427  1.5289 -2.6153
   92MOL0     H12387   6.719   4.177   7.344 -0.9743  1.1733  1.4400
   92MOL0     H12388   6.890   4.343   7.373  4.0762 -0.2009  0.3012
   92MOL0     H12389   6.827   4.315   7.532  1.0049 -0.2212  1.6332
   92MOL0     H12390   7.104   4.225   7.423 -0.3739  0.7716 -0.9329
   92MOL0     H12391   7.033   4.156   7.573  2.6192 -1.2004 -0.5507
   92MOL0     H12392   7.055   4.457   7.543  1.5187 -0.0668  0.1951
   92MOL0     H12393   7.058   4.361   7.687 -2.4667 -1.6007 -0.5424
   92MOL0     H12394   7.281   4.252   7.628  0.6510  0.7110 -0.4906
   92MOL0     H12395   7.277   4.430   7.649 -2.3266  0.6552  0.6394
   92MOL0     H12396   7.315   4.281   7.391  3.9819 -0.2755 -0.2178
   92MOL0     H12397   7.253   4.440   7.399  0.0734 -1.9155 -1.3122
   92MOL0     H12398   7.450   4.523   7.520  0.6491  0.1880  0.0660
   92MOL0     H12399   7.492   4.477   7.357  1.1015  0.4789  0.5809
   92MOL0     H12400   7.544   4.241   7.463 -0.2002 -0.1975 -2.0691
   92MOL0     H12401   7.569   4.327   7.620  2.3605 -3.1080 -1.3831
   92MOL0     H12402   6.616   4.010   7.315  1.0862  0.7617  0.1983
   92MOL0     H12403   6.455   3.811   7.310 -0.9632 -0.1366  1.4318
   92MOL0     H12404   6.470   3.397   7.409  0.9031 -2.1309 -2.4762
   92MOL0     H12405   6.428   3.190   7.301 -1.5462 -2.6265 -0.3062
   92MOL0     H12406   7.378   4.062   7.574 -2.0132 -1.6258  0.8458
   92MOL0     H12407   7.615   4.095   7.633 -1.9982 -0.1740 -0.4806
   92MOL0     H12408   7.958   4.078   7.734  0.5695 -1.1991  5.0352
   92MOL0     H12409   8.158   4.098   7.874  0.4131 -1.5137  1.1937
   92MOL0     H12410   8.340   4.176   7.866 -1.9553 -1.7981 -1.1145
   92MOL0     H12411   8.440   4.106   7.987  1.8683 -0.4647 -0.8051
   92MOL0     H12412   8.558   4.271   7.828  0.2138  0.6390  0.1184
   92MOL0     H12413   8.519   4.166   7.698  0.2131 -0.3032 -0.3088
   92MOL0     H12414   8.695   4.033   7.750  2.6104  3.3358 -1.0222
   92MOL0     H12415   8.678   4.047   7.921 -0.3035  0.7720  0.3511
   92MOL0     H12416   8.892   4.151   7.848  0.9127 -0.1679  1.8140
   92MOL0     H12417   8.798   4.279   7.900  3.7187 -2.3487  2.5996
   92MOL0     H12418   8.801   4.344   7.484  2.3119 -2.9116 -0.7716
   92MOL0     H12419   8.370   3.821   7.632 -0.9887  0.0201  0.4898
   92MOL0     H12420   8.170   3.810   7.468 -1.5658 -0.9008  0.2741
   93MOL0     O12421   6.926  11.065   0.070  0.9086 -0.1238 -0.3383
   93MOL0     C12422   6.922  11.111  -0.041  0.0139  0.5879 -0.1764
   93MOL0     O12423   7.023  11.120  -0.127  0.6266 -0.1062  0.6319
   93MOL0     C12424   7.144  11.052  -0.103  0.2148 -0.0553 -0.8848
   93MOL0     C12425   7.261  11.131  -0.105 -0.4006  0.5964  0.1845
   93MOL0     C12426   7.389  11.081  -0.075  0.0997  0.4445  0.7281
   93MOL0     C12427   7.400  10.949  -0.020 -0.0369  0.7419 -0.6090
   93MOL0     O12428   7.519  10.891   0.020  0.1590  0.3327 -0.0030
   93MOL0     C12429   7.645  10.930  -0.044  0.3398  0.1672 -0.7322
   93MOL0     C12430   7.736  10.811  -0.071  0.5367  0.5938 -0.7563
   93MOL0     C12431   7.852  10.835  -0.172  0.8393  0.0441  0.0761
   93MOL0     C12432   7.963  10.920  -0.108  0.9324 -0.0046  0.1571
   93MOL0     C12433   8.066  10.953  -0.212  0.6744 -0.4580 -0.3433
   93MOL0     C12434   8.192  11.014  -0.154 -0.1449 -0.7380 -0.5412
   93MOL0     C12435   8.291  11.030  -0.273 -0.6029 -0.2424  0.4396
   93MOL0     C12436   8.297  11.167  -0.338 -0.7163 -0.3074  0.3423
   93MOL0     N12437   8.351  11.263  -0.248  0.3555  0.5634  0.1472
   93MOL0     C12438   8.266  11.355  -0.192 -0.2867  0.8570 -0.6490
   93MOL0     C12439   8.344  11.445  -0.138 -0.2628 -0.3534 -0.8482
   93MOL0     C12440   8.313  11.569  -0.056  0.3770  0.4478  0.0512
   93MOL0     C12441   8.235  11.537   0.072 -0.3966  0.6524 -0.6799
   93MOL0     C12442   8.168  11.662   0.136 -0.1401 -0.7290  0.7363
   93MOL0     C12443   8.047  11.717   0.058 -0.1547 -1.0133 -0.0168
   93MOL0     O12444   7.940  11.622   0.083  0.2891 -1.0041 -0.7045
   93MOL0     C12445   7.829  11.682   0.144 -0.1196  0.9794  0.1885
   93MOL0     C12446   7.836  11.737   0.271  0.6542 -0.1925 -0.2346
   93MOL0     C12447   7.724  11.773   0.346  0.1966  0.0570 -0.1446
   93MOL0     C12448   7.742  11.819   0.488  0.4459 -0.2606  0.1347
   93MOL0     C12449   7.595  11.769   0.279 -0.5615  0.2754  1.0763
   93MOL0     C12450   7.476  11.812   0.338 -0.6518  0.2841  0.5602
   93MOL0     O12451   7.383  11.714   0.366  0.1431 -0.1510  0.5186
   93MOL0     C12452   7.292  11.742   0.457 -0.8765 -1.1925 -0.5013
   93MOL0     C12453   7.160  11.748   0.409 -0.5234 -0.8258 -0.1054
   93MOL0     C12454   7.054  11.757   0.494  0.5391  0.0085  0.4580
   93MOL0     C12455   7.084  11.777   0.639 -0.2668  0.8471  0.5761
   93MOL0     O12456   6.985  11.804   0.734 -0.4670  0.1050 -0.5057
   93MOL0     C12457   6.859  11.856   0.679  0.9371  0.2932 -0.4942
   93MOL0     C12458   6.762  11.883   0.800 -0.5421 -0.9515  0.1628
   93MOL0     C12459   6.630  11.971   0.778  0.2816  0.9139 -0.1283
   93MOL0     C12460   6.676  12.105   0.732  0.3893 -0.0999 -0.3109
   93MOL0     C12461   6.567  12.211   0.743 -0.2814  0.3304  0.0987
   93MOL0     C12462   6.456  12.200   0.640 -0.2195 -0.9422 -0.0155
   93MOL0     C12463   6.501  12.190   0.496  1.1472 -0.1544  0.4862
   93MOL0     C12464   6.395  12.172   0.393 -0.6271 -0.2954  0.0648
   93MOL0    Cl12465   6.281  12.034   0.440  0.3666 -0.4666 -0.6565
   93MOL0     C12466   7.210  11.772   0.685  0.0859 -0.0993  0.3601
   93MOL0     C12467   7.320  11.743   0.597  0.2939  0.5398 -1.0500
   93MOL0     O12468   7.460  11.931   0.348 -0.3227  0.6661 -0.1014
   93MOL0     C12469   7.590  11.704   0.157  0.0287  0.2195 -0.4727
   93MOL0     C12470   7.703  11.666   0.089  0.4924 -0.8276 -0.1395
   93MOL0     N12471   8.474  11.407  -0.168  0.5836 -0.7076 -0.3447
   93MOL0     N12472   8.478  11.289  -0.226 -0.0261  0.4211 -0.2496
   93MOL0     C12473   7.280  10.871  -0.005 -0.2216  0.7263 -0.2697
   93MOL0     C12474   7.157  10.922  -0.045 -0.7792  1.2048 -0.5391
   93MOL0     C12475   6.796  11.158  -0.103  0.2311 -0.4562  0.5018
   93MOL0     C12476   6.672  11.130  -0.047 -0.0100 -0.7283 -0.4266
   93MOL0     C12477   6.554  11.174  -0.098  0.5169  0.1153  0.4468
   93MOL0     C12478   6.546  11.238  -0.227  0.3081 -0.7885 -0.4104
   93MOL0     O12479   6.421  11.273  -0.283 -0.3181 -0.2799  0.1618
   93MOL0     C12480   6.289  11.232  -0.250 -0.7493 -0.1726 -0.4143
   93MOL0     C12481   6.186  11.216  -0.360  0.7411  1.0372  0.1344
   93MOL0     C12482   6.243  11.138  -0.482 -0.6403  0.6321 -0.2553
   93MOL0     C12483   6.147  11.134  -0.591 -0.0969 -1.1492  0.5608
   93MOL0     C12484   6.126  11.267  -0.657  0.4003  0.0491  0.4338
   93MOL0     C12485   6.112  11.374  -0.707 -0.3237 -0.5571 -0.2441
   93MOL0     C12486   6.663  11.251  -0.295 -0.0962  0.0258 -0.6906
   93MOL0     C12487   6.788  11.219  -0.228  0.2983 -0.7444 -0.2269
   93MOL0     H12488   7.261  11.232  -0.146  3.4614 -0.2314 -2.4416
   93MOL0     H12489   7.472  11.152  -0.081  0.6789 -0.0364  2.3038
   93MOL0     H12490   7.619  10.974  -0.141  0.1844  0.6600 -0.4686
   93MOL0     H12491   7.691  11.001   0.026 -2.0895 -1.2680  2.5258
   93MOL0     H12492   7.779  10.771   0.021  1.3237  1.0078 -0.9340
   93MOL0     H12493   7.665  10.741  -0.115  0.2602  1.4295 -1.7062
   93MOL0     H12494   7.893  10.737  -0.198 -0.8947 -0.1855 -2.0806
   93MOL0     H12495   7.829  10.870  -0.273  0.2878 -1.5762 -0.3754
   93MOL0     H12496   7.924  11.012  -0.063  2.6182  1.0352 -0.4027
   93MOL0     H12497   8.011  10.858  -0.031  0.7052  0.0364  0.3304
   93MOL0     H12498   8.082  10.863  -0.274 -0.0531  1.5764 -3.7455
   93MOL0     H12499   8.020  11.023  -0.283 -0.5666  0.5977  1.4482
   93MOL0     H12500   8.167  11.112  -0.111  2.1997 -0.3090  0.0329
   93MOL0     H12501   8.229  10.958  -0.068 -1.4583  0.5510  0.9172
   93MOL0     H12502   8.386  10.996  -0.232 -1.5156 -1.2634  1.8229
   93MOL0     H12503   8.268  10.949  -0.342 -1.4567 -0.5359  1.0429
   93MOL0     H12504   8.196  11.198  -0.368 -0.3656 -1.9103 -2.8607
   93MOL0     H12505   8.365  11.168  -0.423 -1.4046 -1.3564 -0.2501
   93MOL0     H12506   8.160  11.338  -0.175 -0.2769  2.9582  2.4457
   93MOL0     H12507   8.405  11.621  -0.028  0.2747  0.9198 -0.4862
   93MOL0     H12508   8.255  11.638  -0.118  0.1609  0.2054 -0.0187
   93MOL0     H12509   8.296  11.492   0.151 -1.1015 -0.1316 -0.5685
   93MOL0     H12510   8.162  11.461   0.041  0.5420 -2.1130  3.1458
   93MOL0     H12511   8.242  11.743   0.131 -2.9228  1.9278 -2.2406
   93MOL0     H12512   8.122  11.652   0.234 -0.2083 -2.4366  0.5639
   93MOL0     H12513   8.069  11.722  -0.049 -0.5011  2.6210 -0.0518
   93MOL0     H12514   8.020  11.820   0.083  1.4335  0.3170 -3.2348
   93MOL0     H12515   7.937  11.745   0.310  0.5214  0.0365  0.0683
   93MOL0     H12516   7.747  11.928   0.486 -0.3299 -0.0841  2.9316
   93MOL0     H12517   7.663  11.783   0.554  1.8820 -1.3111  1.3723
   93MOL0     H12518   7.841  11.791   0.527  1.1121 -0.1435 -1.4018
   93MOL0     H12519   7.137  11.754   0.304 -2.1610  0.5806  0.2936
   93MOL0     H12520   6.956  11.751   0.447  0.7616  2.2593 -0.4106
   93MOL0     H12521   6.879  11.947   0.623 -3.0736  0.6567 -1.6393
   93MOL0     H12522   6.808  11.785   0.613  0.0062  0.3530  0.1492
   93MOL0     H12523   6.738  11.785   0.842  3.6884 -1.5416  1.6625
   93MOL0     H12524   6.810  11.927   0.887 -1.7212 -2.1476  1.4792
   93MOL0     H12525   6.568  11.977   0.867 -0.3788 -2.3418 -0.2557
   93MOL0     H12526   6.564  11.919   0.708  0.9663  0.8253 -0.7252
   93MOL0     H12527   6.759  12.135   0.796  0.4649  0.5028 -0.6881
   93MOL0     H12528   6.720  12.105   0.632 -3.3004 -0.6398 -2.1233
   93MOL0     H12529   6.610  12.312   0.737 -1.1953  0.7725  0.7995
   93MOL0     H12530   6.529  12.204   0.845  0.2813  1.3083  0.3920
   93MOL0     H12531   6.404  12.109   0.672 -0.4201  0.8928  6.0504
   93MOL0     H12532   6.388  12.284   0.653  1.3183  0.2856  0.4160
   93MOL0     H12533   6.564  12.100   0.496  1.8024  0.2729  2.0569
   93MOL0     H12534   6.566  12.270   0.459  0.5761 -0.0862 -0.3944
   93MOL0     H12535   6.432  12.161   0.291 -0.8143  1.2544 -0.1960
   93MOL0     H12536   6.330  12.260   0.386  0.7815  0.8610  0.9390
   93MOL0     H12537   7.221  11.785   0.792 -1.9935 -0.1787  0.6188
   93MOL0     H12538   7.417  11.718   0.637 -0.4670  0.2745  0.7468
   93MOL0     H12539   7.498  11.683   0.104 -0.9541  2.2970  0.2974
   93MOL0     H12540   7.695  11.621  -0.009 -0.5874 -2.4744  0.6443
   93MOL0     H12541   7.301  10.777   0.044  4.2328  1.6554  0.0534
   93MOL0     H12542   7.074  10.853  -0.034  1.2296 -1.1836  0.7966
   93MOL0     H12543   6.669  11.083   0.051 -1.1020 -0.0849 -0.1370
   93MOL0     H12544   6.454  11.155  -0.060  0.2901  0.7873  0.2021
   93MOL0     H12545   6.313  11.137  -0.202  3.5387 -0.6336 -2.9804
   93MOL0     H12546   6.242  11.298  -0.177 -3.1027 -0.4960 -1.5383
   93MOL0     H12547   6.141  11.311  -0.390 -1.2553 -0.1956 -1.0011
   93MOL0     H12548   6.100  11.158  -0.323  0.7624 -0.5238 -2.0363
   93MOL0     H12549   6.286  11.043  -0.448 -1.4673  0.1372 -0.5858
   93MOL0     H12550   6.324  11.200  -0.521  0.4706 -0.1880  0.6610
   93MOL0     H12551   6.050  11.089  -0.567 -2.2638  0.4991 -3.9596
   93MOL0     H12552   6.190  11.059  -0.658 -1.4758 -1.0627 -0.4795
   93MOL0     H12553   6.087  11.461  -0.765 -0.8981 -1.1693 -0.9391
   93MOL0     H12554   6.666  11.303  -0.390  0.5871  2.5686  0.6121
   93MOL0     H12555   6.878  11.249  -0.281 -1.0304  1.0137 -1.6232
   94MOL0     O12556   8.769   6.931   6.595 -0.2551 -0.3572 -0.9237
   94MOL0     C12557   8.713   6.825   6.612 -0.4776 -0.9119  0.1234
   94MOL0     O12558   8.753   6.703   6.560  0.0242  0.9336 -0.0325
   94MOL0     C12559   8.857   6.688   6.472 -0.2894  0.8777  0.4569
   94MOL0     C12560   8.926   6.793   6.403 -0.1650  0.4294  0.2130
   94MOL0     C12561   9.026   6.753   6.311  0.1260 -0.7567 -0.3209
   94MOL0     C12562   9.054   6.617   6.284  1.0019 -0.3686 -0.2808
   94MOL0     O12563   9.149   6.559   6.209 -0.1035 -0.7039  0.1323
   94MOL0     C12564   9.206   6.638   6.104 -0.1533 -0.4034  0.4324
   94MOL0     C12565   9.105   6.632   5.991  0.2227  0.2102  0.6172
   94MOL0     C12566   9.136   6.723   5.865 -0.4006  0.3149  0.0415
   94MOL0     C12567   9.222   6.658   5.758  0.1512 -0.0838 -0.9878
   94MOL0     C12568   9.251   6.758   5.644 -0.6658 -0.4475 -0.3297
   94MOL0     C12569   9.130   6.791   5.551 -0.2837 -0.0315 -0.3419
   94MOL0     C12570   9.093   6.942   5.542  0.2983 -0.2915  0.2597
   94MOL0     C12571   8.986   6.981   5.432 -0.0056 -0.1496  0.4912
   94MOL0     N12572   8.865   6.901   5.434 -0.4397  0.2037  0.4577
   94MOL0     C12573   8.840   6.797   5.349 -0.3885 -0.0786  0.5932
   94MOL0     C12574   8.713   6.754   5.388  0.0018 -1.1010 -0.4737
   94MOL0     C12575   8.646   6.639   5.321 -0.5781 -0.6658  0.3304
   94MOL0     C12576   8.493   6.633   5.333  0.2591 -0.6250  0.1028
   94MOL0     C12577   8.429   6.521   5.256 -0.2231 -0.1175  0.0133
   94MOL0     C12578   8.284   6.494   5.301  0.5216 -0.6117  0.2630
   94MOL0     O12579   8.214   6.615   5.274  0.0965  0.1575  0.4342
   94MOL0     C12580   8.080   6.613   5.252 -0.9081  0.1467 -0.3080
   94MOL0     C12581   7.989   6.525   5.312 -0.4161 -0.3641  0.0854
   94MOL0     C12582   7.850   6.559   5.290  0.3353 -0.1105 -0.0314
   94MOL0     C12583   7.757   6.472   5.367 -0.4826  0.0759 -0.4643
   94MOL0     C12584   7.815   6.663   5.207  0.0727 -0.0874  0.0044
   94MOL0     C12585   7.675   6.696   5.186  0.0347 -0.4350  0.6014
   94MOL0     O12586   7.640   6.819   5.188  0.2158 -0.4355  0.2800
   94MOL0     C12587   7.507   6.847   5.205 -0.2609  0.3649  0.3730
   94MOL0     C12588   7.434   6.811   5.315 -0.7513  0.4098 -0.3548
   94MOL0     C12589   7.295   6.843   5.325 -0.6647  0.1035 -0.0184
   94MOL0     C12590   7.233   6.905   5.220  0.1345 -0.5011 -0.4159
   94MOL0     O12591   7.102   6.919   5.228  0.2574 -0.0257  0.6525
   94MOL0     C12592   7.042   7.027   5.153  0.4680  0.1736  0.5716
   94MOL0     C12593   6.889   7.042   5.174 -0.7162 -0.0688  0.2078
   94MOL0     C12594   6.852   7.058   5.320 -0.7542 -0.2532 -0.5404
   94MOL0     C12595   6.705   7.072   5.334  0.0575  0.3323  0.0901
   94MOL0     C12596   6.647   7.064   5.477  0.0648  0.8098  0.5833
   94MOL0     C12597   6.695   7.176   5.567  0.2033 -1.1535 -0.0710
   94MOL0     C12598   6.614   7.174   5.705  0.2733 -0.4113 -0.7143
   94MOL0     C12599   6.694   7.122   5.820 -0.5444 -0.2232 -0.2222
   94MOL0    Cl12600   6.598   7.130   5.978  0.0186  0.0994  0.4454
   94MOL0     C12601   7.304   6.931   5.110  0.5457 -0.1897 -0.2705
   94MOL0     C12602   7.439   6.912   5.101 -0.2804 -0.0808  0.4831
   94MOL0     O12603   7.596   6.601   5.177  0.6288  0.0379  0.3021
   94MOL0     C12604   7.909   6.738   5.133  0.4580 -0.1193 -0.3225
   94MOL0     C12605   8.044   6.713   5.160  0.1009  0.1621 -0.3066
   94MOL0     N12606   8.679   6.832   5.500  0.4730  0.3150 -0.0268
   94MOL0     N12607   8.769   6.915   5.523 -0.2768  0.3702 -0.1844
   94MOL0     C12608   8.975   6.515   6.348 -1.0093  0.0773  1.2410
   94MOL0     C12609   8.882   6.561   6.437  0.4051 -0.2148 -0.9424
   94MOL0     C12610   8.596   6.824   6.703  0.7968  0.7677  0.0919
   94MOL0     C12611   8.558   6.704   6.779 -0.6441 -0.5431  0.0125
   94MOL0     C12612   8.448   6.697   6.855 -0.5608  0.3142  0.0265
   94MOL0     C12613   8.372   6.820   6.882 -0.0821  0.3468 -0.3959
   94MOL0     O12614   8.263   6.813   6.970  0.7954  0.8478 -0.0908
   94MOL0     C12615   8.194   6.935   7.005 -0.5329 -0.6433 -0.1040
   94MOL0     C12616   8.112   6.906   7.135 -0.3697  0.3116  0.4564
   94MOL0     C12617   8.058   7.034   7.205 -0.9657 -0.8918  0.3763
   94MOL0     C12618   7.958   6.992   7.309 -0.6601 -0.3022  0.6292
   94MOL0     C12619   7.925   7.102   7.398 -0.1467  0.0666 -0.5190
   94MOL0     C12620   7.888   7.197   7.457  0.5430 -0.3512 -0.1607
   94MOL0     C12621   8.404   6.939   6.812  0.0099  0.1117  0.1563
   94MOL0     C12622   8.520   6.944   6.731 -0.1281 -0.1409 -0.6382
   94MOL0     H12623   8.904   6.898   6.413 -0.7892  0.4954 -1.4906
   94MOL0     H12624   9.096   6.826   6.274 -0.7499  0.3735  0.1684
   94MOL0     H12625   9.227   6.740   6.136 -1.1926 -0.1029  0.2017
   94MOL0     H12626   9.301   6.595   6.072 -1.7907 -2.2338 -2.4495
   94MOL0     H12627   9.105   6.526   5.964  0.5421  0.1585  0.8115
   94MOL0     H12628   9.008   6.670   6.025  0.8890 -0.0647  3.0727
   94MOL0     H12629   9.048   6.772   5.822 -1.5191 -0.7168  1.0802
   94MOL0     H12630   9.203   6.800   5.906  1.2551 -0.5063 -1.0071
   94MOL0     H12631   9.306   6.630   5.823 -0.6896  0.5182  0.3966
   94MOL0     H12632   9.185   6.561   5.722 -0.1160  0.2894 -1.7412
   94MOL0     H12633   9.290   6.848   5.694  3.5551 -1.9321 -0.5470
   94MOL0     H12634   9.343   6.737   5.588  0.6418  1.2564  1.0537
   94MOL0     H12635   9.154   6.745   5.454  1.3634 -2.1671  0.9875
   94MOL0     H12636   9.037   6.749   5.589  0.7214 -1.2835  0.7910
   94MOL0     H12637   9.049   6.966   5.639 -0.4006  0.3247 -0.1975
   94MOL0     H12638   9.187   6.997   5.534  1.4601 -2.1168  0.7933
   94MOL0     H12639   9.029   6.963   5.333  1.2875  1.8102  0.6556
   94MOL0     H12640   8.954   7.084   5.448 -0.9273 -0.0178 -1.8402
   94MOL0     H12641   8.894   6.760   5.262  0.6204 -3.3913  2.4550
   94MOL0     H12642   8.674   6.628   5.216 -2.3204  0.7733 -0.3406
   94MOL0     H12643   8.687   6.554   5.376 -0.1757 -0.1116  0.8977
   94MOL0     H12644   8.465   6.728   5.284 -1.4798 -1.5883 -0.8675
   94MOL0     H12645   8.455   6.633   5.435  0.4737  1.0386  0.2162
   94MOL0     H12646   8.492   6.431   5.265 -1.9187 -1.4849 -1.1604
   94MOL0     H12647   8.424   6.549   5.150  0.7353  1.5030  0.3631
   94MOL0     H12648   8.275   6.472   5.408 -0.2741  0.3111  0.4013
   94MOL0     H12649   8.236   6.422   5.233  1.0601  0.2384 -1.0597
   94MOL0     H12650   8.012   6.453   5.390 -0.7153  0.3786  0.8790
   94MOL0     H12651   7.803   6.439   5.461 -2.1549 -0.0924  0.3301
   94MOL0     H12652   7.667   6.530   5.390  0.0126 -0.1284  2.3948
   94MOL0     H12653   7.734   6.389   5.300  1.1889  1.5672 -3.0710
   94MOL0     H12654   7.491   6.758   5.391 -1.9048 -0.7174 -0.2437
   94MOL0     H12655   7.234   6.813   5.410 -0.8195  0.1066 -0.1276
   94MOL0     H12656   7.099   7.116   5.178  0.2879  0.2930  0.5576
   94MOL0     H12657   7.052   7.015   5.044 -3.3195 -1.4221  0.2370
   94MOL0     H12658   6.845   7.134   5.134 -2.8409 -0.4455  1.4810
   94MOL0     H12659   6.842   6.958   5.121  2.4118 -1.0835 -1.2030
   94MOL0     H12660   6.899   7.142   5.371 -0.3394  0.3990 -1.9257
   94MOL0     H12661   6.876   6.966   5.373 -1.3315 -0.3282 -0.4084
   94MOL0     H12662   6.663   7.155   5.275  1.1155  0.3341 -0.6834
   94MOL0     H12663   6.664   6.984   5.284  1.4940 -0.4853  0.3295
   94MOL0     H12664   6.688   6.974   5.524  2.5119 -0.3462 -3.2278
   94MOL0     H12665   6.538   7.069   5.485  0.1416  0.2270  2.5450
   94MOL0     H12666   6.804   7.170   5.578  0.5528  2.9526  0.5759
   94MOL0     H12667   6.675   7.278   5.533  1.9591  0.1524  2.5107
   94MOL0     H12668   6.523   7.113   5.694  0.3804 -0.7297  0.0777
   94MOL0     H12669   6.576   7.272   5.734  1.5199 -0.2340  0.4074
   94MOL0     H12670   6.794   7.166   5.828  0.5649 -2.2970 -1.7710
   94MOL0     H12671   6.715   7.018   5.793 -1.3847  0.3121 -3.2422
   94MOL0     H12672   7.263   6.975   5.020 -1.1925 -0.3751  0.3896
   94MOL0     H12673   7.495   6.952   5.018 -1.5196 -2.1304 -1.4509
   94MOL0     H12674   7.879   6.822   5.071  1.8637  0.8544  0.2612
   94MOL0     H12675   8.109   6.772   5.095 -0.6429 -0.2376 -1.4589
   94MOL0     H12676   9.006   6.414   6.324  1.5021  1.0719 -0.0035
   94MOL0     H12677   8.822   6.483   6.484  2.2351  0.3505  2.6164
   94MOL0     H12678   8.624   6.620   6.762 -0.1652 -0.0275 -0.7863
   94MOL0     H12679   8.427   6.611   6.917 -0.1311  1.4457  1.8095
   94MOL0     H12680   8.273   7.002   7.040 -1.4750  0.3636  0.1833
   94MOL0     H12681   8.143   6.987   6.923  0.9376 -0.4803 -0.9563
   94MOL0     H12682   8.176   6.855   7.207 -0.3430  1.2127  1.0858
   94MOL0     H12683   8.027   6.846   7.102  1.2876 -0.0888 -3.8517
   94MOL0     H12684   8.019   7.098   7.125  1.4733 -1.4493 -1.3802
   94MOL0     H12685   8.150   7.088   7.229 -1.1412  0.7344 -2.2353
   94MOL0     H12686   7.995   6.914   7.376 -1.6794  0.0773  1.6518
   94MOL0     H12687   7.871   6.956   7.254 -1.5159 -0.6485  2.1577
   94MOL0     H12688   7.853   7.280   7.515  0.3449 -0.4243 -0.1730
   94MOL0     H12689   8.359   7.037   6.823  1.1423  0.8523 -1.3269
   94MOL0     H12690   8.550   7.041   6.693  0.0754 -0.6531 -1.8094
   95MOL0     O12691   2.554   1.704   3.842 -0.7449  0.3867 -0.4072
   95MOL0     C12692   2.659   1.668   3.902 -0.2676  0.4939  0.3532
   95MOL0     O12693   2.688   1.543   3.953 -0.5483  0.5910 -0.2447
   95MOL0     C12694   2.596   1.446   3.932 -0.1666  0.5156 -0.3285
   95MOL0     C12695   2.524   1.426   3.809 -0.1523 -0.1273 -0.1346
   95MOL0     C12696   2.428   1.320   3.793 -0.5021  0.2887 -0.0109
   95MOL0     C12697   2.393   1.244   3.909  0.3992 -0.2650  1.0395
   95MOL0     O12698   2.296   1.145   3.895 -0.1270 -0.1520 -0.2995
   95MOL0     C12699   2.187   1.154   3.993  0.3886  0.3674 -0.1623
   95MOL0     C12700   2.084   1.043   3.975 -1.0519 -0.1127 -0.3299
   95MOL0     C12701   2.007   1.065   3.846 -0.3671 -0.0595 -0.2260
   95MOL0     C12702   1.966   0.928   3.782  0.9423 -0.6208  0.4269
   95MOL0     C12703   1.835   0.891   3.841 -0.5286 -0.2367  0.2959
   95MOL0     C12704   1.798   0.747   3.819  0.0095 -1.5186  0.0722
   95MOL0     C12705   1.651   0.737   3.834  0.5536 -1.2773 -0.0422
   95MOL0     C12706   1.597   0.603   3.811 -0.3360  0.4636  0.2163
   95MOL0     N12707   1.473   0.599   3.740  0.4463 -0.1514 -0.5696
   95MOL0     C12708   1.358   0.592   3.801  0.5345 -0.1734  0.7794
   95MOL0     C12709   1.270   0.589   3.693 -0.9187 -0.8604  0.3337
   95MOL0     C12710   1.116   0.604   3.703  0.1061  1.1900 -0.0619
   95MOL0     C12711   1.059   0.464   3.676 -0.3955 -0.2009  0.7425
   95MOL0     C12712   1.051   0.431   3.522 -0.1213 -0.0461  0.6123
   95MOL0     C12713   0.903   0.383   3.478 -0.0346 -0.3206 -0.1129
   95MOL0     O12714   0.887   0.253   3.527  0.3321 -0.6422 -0.4547
   95MOL0     C12715   0.796   0.176   3.461 -0.3361  0.7979  0.5459
   95MOL0     C12716   0.810   0.045   3.465 -0.3926 -0.1604  0.5121
   95MOL0     C12717   0.721  -0.052   3.417  0.1564 -0.2731 -0.1754
   95MOL0     C12718   0.766  -0.196   3.423 -0.2454  0.0799  0.1530
   95MOL0     C12719   0.600   0.000   3.359 -0.1042  0.2624 -0.2641
   95MOL0     C12720   0.480  -0.085   3.324  0.0130  0.2836 -0.7296
   95MOL0     O12721   0.375  -0.017   3.278  0.5208 -0.0059 -0.0983
   95MOL0     C12722   0.267  -0.088   3.234 -0.2370 -0.4592  0.0730
   95MOL0     C12723   0.142  -0.045   3.277 -0.3303 -0.1979  0.0034
   95MOL0     C12724   0.025  -0.109   3.238 -0.2725  0.5780 -0.1865
   95MOL0     C12725   0.024  -0.211   3.147 -0.0226  1.0933  0.0628
   95MOL0     O12726  -0.098  -0.265   3.116 -0.0931 -0.0707 -0.2537
   95MOL0     C12727  -0.116  -0.311   2.976  0.1396 -0.1894 -0.3580
   95MOL0     C12728  -0.262  -0.333   2.924 -0.3370 -0.0765  0.1644
   95MOL0     C12729  -0.340  -0.446   3.004  0.1622  0.0883 -0.2152
   95MOL0     C12730  -0.336  -0.580   2.930  0.3768  0.3410 -0.1078
   95MOL0     C12731  -0.459  -0.666   2.964  0.8726 -0.1175 -0.4856
   95MOL0     C12732  -0.451  -0.806   2.899  0.0607  0.5004 -0.3011
   95MOL0     C12733  -0.549  -0.901   2.958  0.7844  0.3475  0.5044
   95MOL0     C12734  -0.525  -1.046   2.909  0.2514 -0.3625 -0.3610
   95MOL0    Cl12735  -0.617  -1.156   3.012  0.5064 -0.2002 -0.0998
   95MOL0     C12736   0.149  -0.256   3.103 -0.4684 -0.2006  0.0107
   95MOL0     C12737   0.269  -0.191   3.142 -0.2747 -1.0526  0.5934
   95MOL0     O12738   0.491  -0.206   3.328 -0.5363  0.5058 -0.2102
   95MOL0     C12739   0.588   0.133   3.353 -0.0929 -0.1994 -0.1300
   95MOL0     C12740   0.675   0.219   3.404  0.1622  0.7751 -0.3705
   95MOL0     N12741   1.338   0.585   3.574 -0.6567  0.3209  0.8882
   95MOL0     N12742   1.464   0.597   3.603  0.0079 -0.3749  0.4458
   95MOL0     C12743   2.463   1.270   4.027 -0.3897 -0.1356 -0.2306
   95MOL0     C12744   2.556   1.370   4.042 -0.2926 -0.4515 -0.0377
   95MOL0     C12745   2.778   1.755   3.910 -0.8627  0.4032  0.0673
   95MOL0     C12746   2.875   1.728   4.014  0.3835 -0.0781 -0.4511
   95MOL0     C12747   2.986   1.817   4.015  0.2628  0.1084  0.2492
   95MOL0     C12748   3.011   1.925   3.927  0.6939 -1.1887  0.5431
   95MOL0     O12749   3.117   2.014   3.955 -0.1874 -0.4676  1.2682
   95MOL0     C12750   3.209   2.027   3.848 -0.1622  0.2251  0.5028
   95MOL0     C12751   3.301   1.909   3.861  0.4548  0.8985 -0.0154
   95MOL0     C12752   3.449   1.916   3.813  0.5780  0.2054 -0.5288
   95MOL0     C12753   3.462   1.939   3.663 -1.0208 -0.4931  0.9689
   95MOL0     C12754   3.445   2.083   3.616 -0.4259  0.6132 -0.1275
   95MOL0     C12755   3.416   2.195   3.583  0.0220  0.7360 -0.0661
   95MOL0     C12756   2.923   1.937   3.820  0.6132  0.2038 -0.4912
   95MOL0     C12757   2.799   1.865   3.820 -0.0936  0.2824  1.2521
   95MOL0     H12758   2.551   1.484   3.721 -2.7035  0.5317 -0.5418
   95MOL0     H12759   2.370   1.306   3.702 -0.8051  0.7812  0.0988
   95MOL0     H12760   2.228   1.142   4.093 -1.2568  0.4765  0.5637
   95MOL0     H12761   2.134   1.249   3.987 -1.9913 -0.7624  1.2289
   95MOL0     H12762   2.120   0.940   3.983 -1.4820 -0.1617  1.2411
   95MOL0     H12763   2.016   1.042   4.061  0.7293  0.4470  1.1430
   95MOL0     H12764   1.926   1.137   3.865  0.1913  1.1714 -2.2091
   95MOL0     H12765   2.054   1.111   3.759 -4.1670  3.8174 -0.5725
   95MOL0     H12766   1.947   0.932   3.675 -0.1529 -0.9727  0.5868
   95MOL0     H12767   2.045   0.857   3.807  1.3071 -0.3004  0.1933
   95MOL0     H12768   1.827   0.911   3.948  1.6810 -2.9675  1.1079
   95MOL0     H12769   1.757   0.949   3.790 -0.6319 -0.8050 -0.2101
   95MOL0     H12770   1.833   0.708   3.723 -0.0190 -2.1624  0.3171
   95MOL0     H12771   1.834   0.691   3.905 -1.5792 -1.0690  1.0780
   95MOL0     H12772   1.617   0.766   3.934 -0.2786 -0.6723 -0.4843
   95MOL0     H12773   1.602   0.813   3.773  2.5924 -1.6746 -2.3064
   95MOL0     H12774   1.585   0.540   3.899  0.1078 -0.7121 -0.5370
   95MOL0     H12775   1.672   0.540   3.762 -0.0663  0.3512  0.7658
   95MOL0     H12776   1.331   0.608   3.905  1.0896  0.7501  0.7854
   95MOL0     H12777   1.097   0.626   3.809  1.0071 -0.8272  0.5735
   95MOL0     H12778   1.073   0.683   3.641 -0.1306  0.5273 -0.7488
   95MOL0     H12779   0.961   0.462   3.724 -1.4538 -2.4880 -1.3271
   95MOL0     H12780   1.127   0.395   3.728  1.5451  0.9102 -0.2164
   95MOL0     H12781   1.134   0.369   3.488 -0.7210 -0.8434  0.5743
   95MOL0     H12782   1.056   0.525   3.466 -0.6773  0.9392  2.1383
   95MOL0     H12783   0.896   0.387   3.369  1.2906  3.1034 -0.1918
   95MOL0     H12784   0.829   0.447   3.527 -0.3595 -1.0056  0.3053
   95MOL0     H12785   0.906   0.023   3.512  0.3878 -0.9312 -1.3398
   95MOL0     H12786   0.796  -0.229   3.323 -2.0443 -0.4350 -0.2628
   95MOL0     H12787   0.846  -0.221   3.492 -0.6517 -1.2199  0.1743
   95MOL0     H12788   0.682  -0.261   3.448 -1.6377  2.0534  0.9549
   95MOL0     H12789   0.136   0.043   3.340  0.5984 -0.2066  0.1217
   95MOL0     H12790  -0.066  -0.075   3.286 -0.6825 -1.6481  0.7398
   95MOL0     H12791  -0.073  -0.234   2.912 -0.9005  1.1941  0.5568
   95MOL0     H12792  -0.063  -0.407   2.964 -2.2556 -1.7009  0.4550
   95MOL0     H12793  -0.304  -0.233   2.931 -0.0373  0.1562 -1.1774
   95MOL0     H12794  -0.254  -0.349   2.816  1.0231  1.8185 -0.0727
   95MOL0     H12795  -0.444  -0.419   3.022  0.0986 -0.1725 -0.1869
   95MOL0     H12796  -0.302  -0.468   3.104 -0.3696 -1.7454 -0.3878
   95MOL0     H12797  -0.340  -0.577   2.821 -1.6627  4.0545 -0.0954
   95MOL0     H12798  -0.244  -0.624   2.968 -0.3420  0.6981  2.2005
   95MOL0     H12799  -0.551  -0.616   2.934  0.0026 -0.3043  1.7269
   95MOL0     H12800  -0.461  -0.677   3.072 -2.3658 -1.1246 -0.5683
   95MOL0     H12801  -0.475  -0.790   2.794  1.1628 -1.2475 -0.8678
   95MOL0     H12802  -0.353  -0.854   2.904  1.3288  2.9924  1.0084
   95MOL0     H12803  -0.652  -0.871   2.941  1.5448  1.9232 -1.7360
   95MOL0     H12804  -0.524  -0.906   3.065  2.0959  0.5210  0.2286
   95MOL0     H12805  -0.422  -1.081   2.915  0.4292  0.2914  0.7704
   95MOL0     H12806  -0.570  -1.058   2.810  1.1268 -2.2727 -0.5733
   95MOL0     H12807   0.167  -0.337   3.032  0.1268 -1.5479  1.6196
   95MOL0     H12808   0.365  -0.222   3.101  0.1181  0.9556 -0.1258
   95MOL0     H12809   0.497   0.178   3.314 -2.5051 -2.4601  2.4768
   95MOL0     H12810   0.657   0.326   3.412  1.1323  0.9093  0.0889
   95MOL0     H12811   2.442   1.206   4.112 -1.8919 -0.4447 -0.7963
   95MOL0     H12812   2.599   1.398   4.138  3.3524  1.6422 -2.0645
   95MOL0     H12813   2.866   1.643   4.081 -0.1798 -2.1969 -3.0344
   95MOL0     H12814   3.059   1.794   4.092  0.6067  2.0279  0.5480
   95MOL0     H12815   3.164   2.049   3.751  2.2923  2.9352 -0.1503
   95MOL0     H12816   3.277   2.112   3.858  0.3862  0.6973 -4.4855
   95MOL0     H12817   3.258   1.826   3.805  0.4691  1.5772 -1.0469
   95MOL0     H12818   3.306   1.877   3.966 -0.8446  0.6675 -0.0119
   95MOL0     H12819   3.496   1.821   3.838  2.3679  1.3291  0.5659
   95MOL0     H12820   3.507   1.996   3.860  0.2096  0.2094 -0.0742
   95MOL0     H12821   3.394   1.873   3.609  0.9044 -2.5480  0.8955
   95MOL0     H12822   3.564   1.902   3.646 -1.5809 -2.1720  1.0471
   95MOL0     H12823   3.400   2.293   3.542 -1.6734  0.8519  0.7783
   95MOL0     H12824   2.929   2.025   3.757 -1.5414 -0.7533 -2.1579
   95MOL0     H12825   2.723   1.894   3.749  0.9827 -0.4255 -0.2582
   96MOL0     O12826   6.649   1.556  10.797  0.0401 -0.0905 -0.7986
   96MOL0     C12827   6.638   1.447  10.737 -0.5703  0.2908 -0.0376
   96MOL0     O12828   6.590   1.427  10.613  0.2372  0.3195  0.1549
   96MOL0     C12829   6.480   1.497  10.562 -0.3014  0.0621  0.5513
   96MOL0     C12830   6.433   1.425  10.449 -0.5335  0.0243 -0.6497
   96MOL0     C12831   6.323   1.489  10.380 -0.9421 -0.4805  0.3547
   96MOL0     C12832   6.291   1.625  10.394  0.5340 -0.2704 -0.4579
   96MOL0     O12833   6.208   1.677  10.296  0.6666  0.0011  0.7375
   96MOL0     C12834   6.158   1.807  10.305  0.8857  0.3421 -0.5555
   96MOL0     C12835   6.055   1.824  10.199 -0.4815 -0.2779  0.0061
   96MOL0     C12836   5.917   1.752  10.215  0.0641 -0.5155  0.4060
   96MOL0     C12837   5.923   1.597  10.193 -0.1445 -0.3864 -0.0228
   96MOL0     C12838   5.786   1.529  10.180 -0.3485 -0.3187 -0.5818
   96MOL0     C12839   5.703   1.538  10.311 -0.3734  0.2994 -0.2285
   96MOL0     C12840   5.580   1.451  10.304 -0.8234  0.1869  0.2149
   96MOL0     C12841   5.471   1.501  10.214  0.7869  0.7667  0.9299
   96MOL0     N12842   5.339   1.434  10.230 -0.5317  0.4780 -1.0188
   96MOL0     C12843   5.322   1.297  10.224  0.6715 -0.1746 -0.2708
   96MOL0     C12844   5.186   1.281  10.236 -0.4090  0.3936  0.5077
   96MOL0     C12845   5.107   1.162  10.255 -0.0591 -0.1264 -0.4244
   96MOL0     C12846   5.185   1.034  10.225  0.1922  0.0274  1.0380
   96MOL0     C12847   5.097   0.917  10.259 -0.0854  0.0661  0.0886
   96MOL0     C12848   5.143   0.790  10.178  0.1409 -0.1014  0.1167
   96MOL0     O12849   5.148   0.809  10.038  0.1723 -0.0509  0.0727
   96MOL0     C12850   5.029   0.823   9.967 -0.2394 -0.0444  0.2806
   96MOL0     C12851   5.038   0.825   9.829 -0.4432  0.7489  0.1445
   96MOL0     C12852   4.922   0.838   9.745 -0.9494  0.6362 -0.1831
   96MOL0     C12853   4.947   0.820   9.597 -0.0786 -0.2202 -0.1020
   96MOL0     C12854   4.795   0.855   9.808  0.4995  0.3991  0.3801
   96MOL0     C12855   4.671   0.857   9.738 -0.4059  0.7037 -0.2470
   96MOL0     O12856   4.563   0.821   9.805  0.4769  0.0773 -0.1942
   96MOL0     C12857   4.440   0.787   9.741 -0.4094 -0.1875 -0.2913
   96MOL0     C12858   4.440   0.676   9.654  0.0216 -0.0255 -0.7827
   96MOL0     C12859   4.323   0.635   9.589  0.1381  0.9471 -0.1780
   96MOL0     C12860   4.205   0.705   9.615 -0.3429 -0.3720 -1.5537
   96MOL0     O12861   4.086   0.678   9.552  1.1584  0.5033  0.2292
   96MOL0     C12862   4.051   0.544   9.546  0.9532  0.3077  0.5991
   96MOL0     C12863   3.897   0.539   9.567 -0.4284  0.1436 -0.1757
   96MOL0     C12864   3.880   0.556   9.717 -0.1397 -0.0871 -0.4986
   96MOL0     C12865   3.732   0.603   9.747 -0.1350  0.2108  0.5235
   96MOL0     C12866   3.630   0.492   9.730 -0.2148 -0.1775 -0.1574
   96MOL0     C12867   3.483   0.526   9.775  0.3115  0.2775 -0.8060
   96MOL0     C12868   3.464   0.540   9.934 -0.2659  0.6340  0.1890
   96MOL0     C12869   3.327   0.514   9.985  0.1704 -0.2468  0.1371
   96MOL0    Cl12870   3.281   0.343   9.916  0.0762  0.2369 -0.1829
   96MOL0     C12871   4.212   0.813   9.705  0.4930 -0.3063  0.1385
   96MOL0     C12872   4.324   0.858   9.763  0.7325  0.2626  1.0492
   96MOL0     O12873   4.671   0.892   9.619 -0.2564 -0.2765  0.1598
   96MOL0     C12874   4.784   0.856   9.952  0.3418  0.3158  0.5235
   96MOL0     C12875   4.896   0.822  10.022  0.2509 -0.6894 -1.0505
   96MOL0     N12876   5.128   1.412  10.229  1.1123  0.5932 -1.0871
   96MOL0     N12877   5.216   1.501  10.236  0.0852 -0.0918 -0.1472
   96MOL0     C12878   6.342   1.691  10.508 -0.0877 -0.3781  0.0834
   96MOL0     C12879   6.435   1.625  10.588 -0.6720  0.2375 -0.8338
   96MOL0     C12880   6.682   1.325  10.818 -0.4611 -1.0670  0.2076
   96MOL0     C12881   6.723   1.214  10.748 -0.1628  0.4360 -0.4544
   96MOL0     C12882   6.759   1.100  10.815 -0.6175  0.4289 -0.4864
   96MOL0     C12883   6.754   1.095  10.956 -0.2784 -0.4516 -1.2228
   96MOL0     O12884   6.806   0.990  11.031  1.5189  0.0206  0.1248
   96MOL0     C12885   6.811   0.861  10.964  0.1008  0.4465 -0.2791
   96MOL0     C12886   6.777   0.742  11.061 -0.5864  0.2310  0.1220
   96MOL0     C12887   6.630   0.701  11.081  0.0810 -1.1211  0.2605
   96MOL0     C12888   6.636   0.578  11.175 -0.3014  0.0594  0.5359
   96MOL0     C12889   6.629   0.456  11.088 -0.5750 -0.7205 -0.1292
   96MOL0     C12890   6.637   0.343  11.043 -0.3116 -0.4621 -0.2483
   96MOL0     C12891   6.708   1.215  11.025  1.1942  1.4232  0.6055
   96MOL0     C12892   6.668   1.330  10.952 -0.7110  0.2630 -0.5603
   96MOL0     H12893   6.463   1.328  10.412 -1.6324 -0.3823 -0.4991
   96MOL0     H12894   6.303   1.432  10.290  0.2470 -1.6979  0.8340
   96MOL0     H12895   6.119   1.829  10.405 -0.3050 -0.4457 -0.8306
   96MOL0     H12896   6.244   1.872  10.286 -0.5466  2.2072 -0.9621
   96MOL0     H12897   6.036   1.930  10.178 -0.5001 -0.2224  0.3016
   96MOL0     H12898   6.105   1.791  10.107 -0.1843 -1.0329  0.4297
   96MOL0     H12899   5.882   1.778  10.316  1.3752 -0.9654  0.9921
   96MOL0     H12900   5.841   1.783  10.143  1.6459  0.6653 -0.8128
   96MOL0     H12901   5.979   1.574  10.102  1.0356  1.9038  0.0571
   96MOL0     H12902   5.982   1.556  10.275 -0.4286  0.6248  0.7139
   96MOL0     H12903   5.731   1.556  10.089  0.5156 -1.4380 -1.4614
   96MOL0     H12904   5.802   1.422  10.171 -2.3576 -0.5666 -1.9518
   96MOL0     H12905   5.768   1.497  10.389 -0.7276  0.6837  0.2764
   96MOL0     H12906   5.672   1.638  10.341  0.6139  0.5083  0.1269
   96MOL0     H12907   5.606   1.349  10.273  1.2834  0.2087  1.6783
   96MOL0     H12908   5.546   1.454  10.408  3.1942  1.2719  1.7077
   96MOL0     H12909   5.502   1.488  10.110 -0.2536  2.3625  0.3809
   96MOL0     H12910   5.446   1.607  10.221  1.0279  1.1383 -2.2732
   96MOL0     H12911   5.400   1.222  10.217  0.5494 -0.7859  3.2671
   96MOL0     H12912   5.071   1.155  10.359  1.8467 -0.1086  0.2752
   96MOL0     H12913   5.021   1.175  10.189 -0.0646  0.7427 -0.2500
   96MOL0     H12914   5.284   1.022  10.268  1.0939  2.1276 -0.2914
   96MOL0     H12915   5.205   1.034  10.117  0.9583 -0.7158  1.1661
   96MOL0     H12916   4.989   0.936  10.251  0.0904  0.6720 -1.0404
   96MOL0     H12917   5.125   0.882  10.359  2.4215 -0.5339 -0.7559
   96MOL0     H12918   5.073   0.711  10.209 -5.2284  4.1560  0.4080
   96MOL0     H12919   5.243   0.754  10.206  0.9993  0.2757 -2.2550
   96MOL0     H12920   5.136   0.815   9.783 -0.0361  1.3325  0.8780
   96MOL0     H12921   4.899   0.904   9.545  1.3850  1.4094  1.0327
   96MOL0     H12922   5.055   0.817   9.580  0.2883  3.5101  0.6110
   96MOL0     H12923   4.900   0.729   9.561  0.6944 -0.7846  0.2881
   96MOL0     H12924   4.537   0.629   9.643  1.4946  2.9420 -1.6285
   96MOL0     H12925   4.320   0.544   9.531  1.8913 -0.0681  1.2444
   96MOL0     H12926   4.070   0.509   9.444  0.1687 -0.0412  0.5652
   96MOL0     H12927   4.107   0.478   9.613 -2.7416 -0.0462  3.6743
   96MOL0     H12928   3.848   0.620   9.513 -1.3761  0.3032  0.8935
   96MOL0     H12929   3.851   0.449   9.527 -1.9954  0.0312  1.7102
   96MOL0     H12930   3.955   0.624   9.759  1.3198 -2.5612  1.1856
   96MOL0     H12931   3.897   0.464   9.774  1.1764  0.3368 -0.1772
   96MOL0     H12932   3.720   0.640   9.849 -2.2208  0.1248  0.3486
   96MOL0     H12933   3.708   0.692   9.688  0.0496  1.1181  1.7775
   96MOL0     H12934   3.675   0.408   9.783 -2.6998 -1.2398  0.3764
   96MOL0     H12935   3.621   0.457   9.626  0.1534 -0.7258 -0.0083
   96MOL0     H12936   3.454   0.627   9.744 -0.7797  0.4139  0.5349
   96MOL0     H12937   3.412   0.453   9.736 -0.7039  0.5865  0.3610
   96MOL0     H12938   3.483   0.643   9.965 -0.1519  0.8533 -0.5751
   96MOL0     H12939   3.536   0.478   9.988 -0.8219  1.2660  1.7017
   96MOL0     H12940   3.247   0.578   9.946 -0.5973 -0.3441  1.4800
   96MOL0     H12941   3.317   0.519  10.094  0.1719 -0.1870  0.1347
   96MOL0     H12942   4.121   0.870   9.725  1.6537  1.7031 -0.0528
   96MOL0     H12943   4.314   0.940   9.834  0.4533  1.8574 -0.7660
   96MOL0     H12944   4.686   0.860   9.999 -0.4592  0.8348 -1.0978
   96MOL0     H12945   4.871   0.800  10.126 -2.1463  0.5227 -1.2876
   96MOL0     H12946   6.312   1.792  10.532  0.9072 -0.0799  0.1415
   96MOL0     H12947   6.488   1.682  10.664 -0.3919 -1.9009  0.6649
   96MOL0     H12948   6.715   1.214  10.640 -3.8540 -0.8000 -0.3237
   96MOL0     H12949   6.799   1.018  10.756  2.3773  2.8125 -2.0421
   96MOL0     H12950   6.731   0.857  10.889 -1.0329  0.9556  0.8766
   96MOL0     H12951   6.908   0.844  10.916  0.0202 -0.1336 -0.2383
   96MOL0     H12952   6.827   0.760  11.157  0.0346  0.5530 -0.2579
   96MOL0     H12953   6.829   0.657  11.017  1.5446  1.5169  0.0189
   96MOL0     H12954   6.582   0.666  10.990 -2.2022 -0.4523  1.1454
   96MOL0     H12955   6.573   0.784  11.125  1.8953  1.6089 -2.1398
   96MOL0     H12956   6.548   0.573  11.240 -0.1234 -2.8297  0.6922
   96MOL0     H12957   6.735   0.577  11.222 -0.9916 -1.5123  2.0689
   96MOL0     H12958   6.639   0.243  11.005 -0.3462 -1.0652  1.2527
   96MOL0     H12959   6.711   1.216  11.134  0.3307  0.5883  0.6488
   96MOL0     H12960   6.630   1.414  11.010 -0.8337  0.2540 -0.6252
   97MOL0     O12961   6.470   4.259   4.590  0.1075  0.6782 -0.0323
   97MOL0     C12962   6.415   4.358   4.552  0.5587 -0.3094 -0.1600
   97MOL0     O12963   6.276   4.374   4.545 -0.8966  0.1883  0.7189
   97MOL0     C12964   6.187   4.289   4.605  0.1386  0.8688 -0.4328
   97MOL0     C12965   6.214   4.178   4.696 -0.4689  0.4282  0.0978
   97MOL0     C12966   6.104   4.093   4.728 -0.4626  0.0068  0.0480
   97MOL0     C12967   5.970   4.114   4.695 -0.0725  0.6792 -0.6282
   97MOL0     O12968   5.877   4.025   4.738  0.7944 -0.3299 -0.0301
   97MOL0     C12969   5.746   4.031   4.676  0.1469 -0.6435 -0.3393
   97MOL0     C12970   5.668   3.903   4.691  0.7510  0.7642 -0.7556
   97MOL0     C12971   5.514   3.917   4.655 -0.5668 -0.4672 -1.3190
   97MOL0     C12972   5.432   3.788   4.664 -0.7755  0.1385  0.3691
   97MOL0     C12973   5.390   3.756   4.806  0.2612 -0.3692  0.1497
   97MOL0     C12974   5.261   3.679   4.820  0.0865 -0.3682 -0.0444
   97MOL0     C12975   5.235   3.636   4.966 -0.8957 -0.0067 -0.1491
   97MOL0     C12976   5.103   3.562   4.978  0.4578 -0.2073  0.4170
   97MOL0     N12977   4.987   3.656   4.986  0.6089 -1.4894 -0.3536
   97MOL0     C12978   4.872   3.666   4.911 -0.7070  0.1244  0.4360
   97MOL0     C12979   4.774   3.721   4.993 -0.2961 -0.7594  0.6155
   97MOL0     C12980   4.633   3.751   4.931 -0.3477  0.3850  0.7662
   97MOL0     C12981   4.525   3.701   5.038 -0.3910 -0.8617  1.0697
   97MOL0     C12982   4.384   3.732   4.994 -0.3419  0.0307 -0.4790
   97MOL0     C12983   4.286   3.651   5.083 -0.0610 -0.6467 -0.6709
   97MOL0     O12984   4.145   3.690   5.053 -0.3085  0.6452 -0.0623
   97MOL0     C12985   4.044   3.624   5.115 -0.6771 -0.0102 -0.4241
   97MOL0     C12986   3.920   3.639   5.053  0.3175  0.2055 -0.6393
   97MOL0     C12987   3.809   3.557   5.090  0.4429  0.0028  0.2770
   97MOL0     C12988   3.687   3.577   5.004 -0.1388  0.2602 -0.2933
   97MOL0     C12989   3.823   3.470   5.200  0.3434 -0.4095 -0.2015
   97MOL0     C12990   3.720   3.381   5.251 -0.4075  0.3486 -1.1397
   97MOL0     O12991   3.755   3.269   5.328 -0.0052 -0.0541 -0.1692
   97MOL0     C12992   3.654   3.174   5.365  0.0217 -0.7249  0.4679
   97MOL0     C12993   3.682   3.038   5.329 -0.2327 -1.4584  0.4294
   97MOL0     C12994   3.595   2.938   5.374  0.1405 -0.5214  0.5831
   97MOL0     C12995   3.472   2.965   5.441  0.1124 -0.7002  0.5223
   97MOL0     O12996   3.403   2.856   5.490 -0.6307 -0.2811  0.5250
   97MOL0     C12997   3.281   2.873   5.556  0.3513  0.2288 -0.5027
   97MOL0     C12998   3.243   2.737   5.606 -0.4333  0.4347  0.3032
   97MOL0     C12999   3.199   2.647   5.497 -0.7706 -0.8173  0.5271
   97MOL0     C13000   3.157   2.515   5.560 -0.1764 -0.1661 -0.1150
   97MOL0     C13001   3.179   2.398   5.471 -0.7401 -0.1194  0.3346
   97MOL0     C13002   3.087   2.407   5.351 -0.3194 -0.0229  0.5154
   97MOL0     C13003   3.118   2.296   5.257  0.2389  0.3965  0.2882
   97MOL0     C13004   3.033   2.292   5.129  0.4308  0.1965  1.0329
   97MOL0    Cl13005   2.865   2.239   5.170  0.4343 -0.0285 -0.2738
   97MOL0     C13006   3.445   3.104   5.467  0.0839  0.1452 -0.7427
   97MOL0     C13007   3.534   3.205   5.430 -0.4020  0.2610  0.7885
   97MOL0     O13008   3.604   3.399   5.221 -0.1610 -0.0324 -0.1929
   97MOL0     C13009   3.946   3.460   5.268 -0.3626  0.0163  0.8253
   97MOL0     C13010   4.056   3.540   5.225  0.2388 -0.4106 -0.2174
   97MOL0     N13011   4.837   3.758   5.113 -0.4411 -0.2995 -0.6377
   97MOL0     N13012   4.956   3.711   5.107  0.4080  0.1552  0.0222
   97MOL0     C13013   5.949   4.230   4.618 -0.1689  0.0917  0.0709
   97MOL0     C13014   6.050   4.309   4.579 -0.4768 -0.2102 -0.4013
   97MOL0     C13015   6.492   4.450   4.470  0.4538  0.1609  0.1458
   97MOL0     C13016   6.441   4.566   4.432 -0.3715  0.6121 -0.5031
   97MOL0     C13017   6.518   4.658   4.352 -0.1329 -0.3374  0.6108
   97MOL0     C13018   6.649   4.630   4.308  0.3340 -0.4668 -0.5670
   97MOL0     O13019   6.712   4.720   4.226  0.0910 -0.4796  0.4194
   97MOL0     C13020   6.846   4.702   4.185  0.1904 -0.1916 -0.2730
   97MOL0     C13021   6.860   4.602   4.068 -0.2586 -0.2775  0.0795
   97MOL0     C13022   6.998   4.594   4.007 -0.1209  0.4192 -0.1471
   97MOL0     C13023   7.117   4.569   4.113  0.6455 -0.4561 -0.2520
   97MOL0     C13024   7.069   4.452   4.199 -0.5537 -0.1495  0.3916
   97MOL0     C13025   7.033   4.349   4.261 -1.1010  0.0594 -0.0791
   97MOL0     C13026   6.704   4.511   4.359 -0.2127 -0.2424 -1.3503
   97MOL0     C13027   6.626   4.420   4.433  0.2306  0.2640 -0.9709
   97MOL0     H13028   6.314   4.143   4.720 -0.2383 -0.4960 -1.9655
   97MOL0     H13029   6.124   4.005   4.789 -0.2593 -0.2606 -0.3921
   97MOL0     H13030   5.680   4.110   4.713  0.5113 -0.4595 -0.0768
   97MOL0     H13031   5.760   4.062   4.572 -2.4707  1.8962 -0.0395
   97MOL0     H13032   5.714   3.822   4.635  0.4297  0.0661 -0.0176
   97MOL0     H13033   5.661   3.867   4.793  1.8775 -0.8920 -1.2304
   97MOL0     H13034   5.467   3.999   4.710  1.8576  0.6411 -0.8105
   97MOL0     H13035   5.522   3.943   4.549  0.2541 -1.6009 -1.5476
   97MOL0     H13036   5.350   3.797   4.592  1.2783  2.1608 -1.9010
   97MOL0     H13037   5.488   3.708   4.614 -1.2340  0.1459 -0.1812
   97MOL0     H13038   5.471   3.703   4.857 -0.3787  0.8014  2.5366
   97MOL0     H13039   5.377   3.849   4.861  0.0915 -0.4252  0.2042
   97MOL0     H13040   5.179   3.744   4.787  0.4039 -1.0496 -2.3845
   97MOL0     H13041   5.259   3.590   4.756 -0.8537  0.3271 -1.0289
   97MOL0     H13042   5.315   3.571   5.002  0.1371  2.3124  2.0239
   97MOL0     H13043   5.241   3.727   5.026 -1.4941  0.2819 -0.5113
   97MOL0     H13044   5.108   3.493   5.063 -0.0164 -2.5968 -1.3874
   97MOL0     H13045   5.077   3.495   4.895  0.3881 -1.5896  1.5234
   97MOL0     H13046   4.861   3.637   4.807  2.5674  0.0491 -0.0179
   97MOL0     H13047   4.617   3.858   4.913 -0.9469  0.0131 -1.1173
   97MOL0     H13048   4.618   3.708   4.832 -2.1925  2.0441  0.2622
   97MOL0     H13049   4.546   3.769   5.122  0.4224  0.3563 -0.0766
   97MOL0     H13050   4.538   3.598   5.072 -1.2400 -1.2846  0.1421
   97MOL0     H13051   4.361   3.721   4.888 -2.4344  1.2682 -0.2066
   97MOL0     H13052   4.361   3.839   5.002 -1.5948 -0.1164 -1.7214
   97MOL0     H13053   4.313   3.696   5.179  0.7339 -1.3443 -0.5572
   97MOL0     H13054   4.310   3.545   5.087  1.7519 -0.3072 -1.7399
   97MOL0     H13055   3.919   3.705   4.966 -0.7005 -0.7710 -1.3879
   97MOL0     H13056   3.615   3.498   4.981 -1.5934  1.6533 -0.6617
   97MOL0     H13057   3.626   3.654   5.052 -0.2183  0.3278 -0.5041
   97MOL0     H13058   3.730   3.616   4.911 -0.0090 -1.8624 -1.1809
   97MOL0     H13059   3.767   3.014   5.266  0.8681 -0.7569  1.5945
   97MOL0     H13060   3.610   2.833   5.350 -0.1757 -0.9619  2.2070
   97MOL0     H13061   3.296   2.947   5.636 -0.7972 -0.2208  0.1552
   97MOL0     H13062   3.203   2.908   5.488 -0.9164 -1.7870 -0.1476
   97MOL0     H13063   3.325   2.690   5.660  1.4975  1.9967 -1.0970
   97MOL0     H13064   3.161   2.759   5.675 -0.6329  3.8986 -0.8573
   97MOL0     H13065   3.265   2.643   5.411 -1.7257  0.0477 -0.2749
   97MOL0     H13066   3.105   2.690   5.459 -0.6238  0.2529  1.3035
   97MOL0     H13067   3.221   2.496   5.647  2.0610  1.3059 -1.3476
   97MOL0     H13068   3.052   2.525   5.592 -0.0859  2.8640 -0.4583
   97MOL0     H13069   3.153   2.311   5.533 -2.6925  1.0689  1.2541
   97MOL0     H13070   3.286   2.394   5.446 -0.1539  1.6397  2.2851
   97MOL0     H13071   2.983   2.392   5.381  0.2460 -2.0737  1.6385
   97MOL0     H13072   3.101   2.499   5.294  0.3081 -1.1781 -1.2760
   97MOL0     H13073   3.122   2.198   5.305 -0.9619  0.6091  0.8635
   97MOL0     H13074   3.219   2.315   5.220 -0.3807  3.2432 -0.2003
   97MOL0     H13075   3.083   2.231   5.054 -1.0555 -0.0775  0.2448
   97MOL0     H13076   3.035   2.393   5.087  2.1699 -0.1634  0.1235
   97MOL0     H13077   3.358   3.129   5.527  0.2577 -2.5442  0.8082
   97MOL0     H13078   3.499   3.308   5.443 -2.6728 -0.3500 -0.0753
   97MOL0     H13079   3.962   3.394   5.353 -2.8492 -2.5644 -0.5404
   97MOL0     H13080   4.152   3.524   5.274  1.2399  0.2175 -1.9016
   97MOL0     H13081   5.848   4.259   4.593 -0.8805  0.0788  2.6665
   97MOL0     H13082   6.020   4.397   4.523 -0.2694  0.0142 -0.1572
   97MOL0     H13083   6.336   4.589   4.446 -1.5272 -2.0676 -3.5409
   97MOL0     H13084   6.465   4.745   4.313  1.9305  0.2311 -1.0520
   97MOL0     H13085   6.872   4.801   4.145  1.9416 -0.6061 -0.2062
   97MOL0     H13086   6.916   4.667   4.260  1.6626  0.3856 -1.3365
   97MOL0     H13087   6.791   4.637   3.992 -0.7459  1.1578  1.1339
   97MOL0     H13088   6.830   4.500   4.095  1.6549 -0.4815  1.6904
   97MOL0     H13089   7.021   4.686   3.953  1.6180  0.4498  0.5509
   97MOL0     H13090   6.989   4.507   3.941  0.8309 -2.1013  2.7908
   97MOL0     H13091   7.127   4.653   4.183 -0.4401 -0.8235  0.3648
   97MOL0     H13092   7.209   4.542   4.061  0.3432 -0.2408 -0.9223
   97MOL0     H13093   7.015   4.256   4.311  3.7376 -1.1162 -0.0655
   97MOL0     H13094   6.808   4.485   4.344 -0.4775 -1.1042 -1.8054
   97MOL0     H13095   6.673   4.331   4.473 -0.6924  0.4954  0.6921
   98MOL0     O13096   9.552   1.826   6.549 -0.2241  0.2280 -1.0951
   98MOL0     C13097   9.645   1.839   6.478  0.1154  0.1155 -0.5011
   98MOL0     O13098   9.664   1.931   6.379 -0.4651 -0.2401  0.3845
   98MOL0     C13099   9.582   2.037   6.372  0.7231 -0.0552  0.0696
   98MOL0     C13100   9.616   2.157   6.437  0.9436 -0.0997  0.1583
   98MOL0     C13101   9.545   2.273   6.408  0.0104 -0.1758  0.0118
   98MOL0     C13102   9.438   2.275   6.318 -0.3382 -0.2343  0.4170
   98MOL0     O13103   9.361   2.382   6.287 -0.2518 -0.1356  0.2320
   98MOL0     C13104   9.405   2.507   6.339 -0.2340  0.5073 -0.5618
   98MOL0     C13105   9.297   2.617   6.302  0.9650  0.8451 -0.0211
   98MOL0     C13106   9.156   2.584   6.346  0.3093 -1.4905  0.1034
   98MOL0     C13107   9.056   2.678   6.290 -0.2283  1.0658  0.4426
   98MOL0     C13108   8.920   2.679   6.364 -0.1168 -0.3152 -0.1232
   98MOL0     C13109   8.933   2.754   6.497 -1.1106  0.3679  0.5864
   98MOL0     C13110   8.809   2.763   6.570  0.1892  0.5131  0.2534
   98MOL0     C13111   8.795   2.875   6.672 -0.1380  0.2113 -0.5061
   98MOL0     N13112   8.660   2.875   6.718 -0.0235 -0.3586 -0.1844
   98MOL0     C13113   8.614   2.834   6.843  0.3167  0.6568  0.3758
   98MOL0     C13114   8.480   2.862   6.846 -0.2150 -0.4200 -1.3472
   98MOL0     C13115   8.368   2.819   6.942 -0.5875  0.5017 -0.0087
   98MOL0     C13116   8.317   2.915   7.054 -0.1245  0.4044 -0.2069
   98MOL0     C13117   8.252   3.044   6.998  0.0826  0.0065  0.1550
   98MOL0     C13118   8.114   3.030   6.938  0.5705  0.5677 -0.2782
   98MOL0     O13119   8.048   3.155   6.898  0.1632  0.5480  0.0620
   98MOL0     C13120   7.921   3.138   6.838  0.6184  0.1682 -0.4193
   98MOL0     C13121   7.846   3.020   6.842  0.2943  0.8074  0.1160
   98MOL0     C13122   7.705   3.020   6.818  0.1897  0.3404  0.0341
   98MOL0     C13123   7.632   2.899   6.856  0.2896 -0.1164  0.9044
   98MOL0     C13124   7.652   3.136   6.758 -0.3133  0.0175  0.4000
   98MOL0     C13125   7.517   3.147   6.689  0.3471 -0.1516 -0.9382
   98MOL0     O13126   7.472   3.265   6.628 -0.4464  0.7135 -0.0170
   98MOL0     C13127   7.340   3.309   6.630 -0.2156  0.1752 -0.0868
   98MOL0     C13128   7.267   3.313   6.743  0.1148 -1.0630 -0.6912
   98MOL0     C13129   7.136   3.337   6.736 -0.3596  0.1616 -0.1699
   98MOL0     C13130   7.070   3.373   6.622  0.0600  0.6649 -0.2723
   98MOL0     O13131   6.939   3.401   6.643 -0.0835 -0.3878  0.0080
   98MOL0     C13132   6.848   3.387   6.530  0.5991 -0.3300 -0.6448
   98MOL0     C13133   6.721   3.308   6.548  0.8005  0.2321 -0.1066
   98MOL0     C13134   6.620   3.301   6.422 -0.4008  0.7171 -0.6073
   98MOL0     C13135   6.628   3.158   6.355  0.5251  0.8819  0.5481
   98MOL0     C13136   6.531   3.121   6.234 -0.1699  0.5971 -0.3171
   98MOL0     C13137   6.553   2.972   6.193  0.6877 -0.5814  0.7126
   98MOL0     C13138   6.422   2.919   6.115 -0.4583 -0.1816 -0.3549
   98MOL0     C13139   6.297   2.908   6.197 -0.1176  0.3907 -0.5562
   98MOL0    Cl13140   6.349   2.785   6.328  0.1086 -0.5142 -0.2415
   98MOL0     C13141   7.141   3.366   6.501 -0.4007  0.3067  0.3626
   98MOL0     C13142   7.278   3.343   6.508  0.1044 -0.3419  0.2586
   98MOL0     O13143   7.454   3.043   6.696  0.5242  0.3040 -0.0637
   98MOL0     C13144   7.736   3.245   6.735 -0.8504 -0.4660 -0.6274
   98MOL0     C13145   7.866   3.256   6.779  0.2458  0.0225 -0.2504
   98MOL0     N13146   8.468   2.936   6.729 -0.2566 -0.1639 -0.2778
   98MOL0     N13147   8.566   2.951   6.657 -0.2121 -0.0352 -0.9409
   98MOL0     C13148   9.415   2.159   6.247  0.2821 -0.3105  0.1845
   98MOL0     C13149   9.479   2.038   6.274 -1.5762 -0.3628 -0.7496
   98MOL0     C13150   9.735   1.721   6.465 -0.3125  0.8059  0.5060
   98MOL0     C13151   9.863   1.734   6.406 -0.6718 -0.0890  0.2481
   98MOL0     C13152   9.968   1.635   6.413  0.8034 -0.1729  0.5829
   98MOL0     C13153   9.927   1.511   6.466 -0.4617  0.4073  0.7570
   98MOL0     O13154  10.026   1.415   6.479  0.8908 -0.2072 -0.4117
   98MOL0     C13155  10.116   1.440   6.585  0.2077  0.3110 -0.2224
   98MOL0     C13156  10.224   1.329   6.589 -0.1012  0.1070 -0.2269
   98MOL0     C13157  10.322   1.334   6.705  0.2005 -0.2598  0.6151
   98MOL0     C13158  10.427   1.217   6.686 -0.7249  0.4111  0.3524
   98MOL0     C13159  10.535   1.236   6.786  0.3594 -0.1232 -0.8383
   98MOL0     C13160  10.620   1.246   6.873 -0.3135  0.4325 -0.0943
   98MOL0     C13161   9.797   1.488   6.511  0.0643 -0.2127  0.3642
   98MOL0     C13162   9.708   1.592   6.525 -0.3047 -0.7976 -0.7079
   98MOL0     H13163   9.693   2.158   6.513  0.0128 -0.5004  1.1303
   98MOL0     H13164   9.584   2.364   6.452  0.5991  0.7025 -2.2015
   98MOL0     H13165   9.409   2.492   6.447  0.1324  1.8516 -0.3741
   98MOL0     H13166   9.506   2.523   6.300  0.1111  0.6073  0.3511
   98MOL0     H13167   9.327   2.712   6.345  0.6057  1.5756 -1.3326
   98MOL0     H13168   9.296   2.624   6.193  4.1695 -1.6027 -0.3809
   98MOL0     H13169   9.134   2.484   6.308  1.3883 -1.9779  0.7249
   98MOL0     H13170   9.151   2.571   6.455 -0.4084 -1.4754  0.0798
   98MOL0     H13171   9.105   2.774   6.275  1.5270 -0.0275 -1.2649
   98MOL0     H13172   9.033   2.633   6.193 -0.9129 -2.5079  2.1123
   98MOL0     H13173   8.849   2.725   6.295 -0.7553 -1.8591 -0.5386
   98MOL0     H13174   8.886   2.578   6.386 -1.9007  0.0001 -1.2796
   98MOL0     H13175   9.001   2.701   6.564 -0.6030 -0.5679 -0.6368
   98MOL0     H13176   8.972   2.852   6.469 -5.0731  1.8385 -0.4137
   98MOL0     H13177   8.726   2.780   6.500  1.4134  3.1778 -0.6710
   98MOL0     H13178   8.794   2.669   6.624 -0.7081  0.3028 -0.3312
   98MOL0     H13179   8.819   2.972   6.628  0.4144  0.8989  1.2262
   98MOL0     H13180   8.860   2.852   6.757 -0.9075  0.4887  0.1638
   98MOL0     H13181   8.678   2.779   6.912  2.4090 -0.5491 -2.3116
   98MOL0     H13182   8.282   2.788   6.883 -0.0643  0.2737 -0.6626
   98MOL0     H13183   8.410   2.730   6.990  1.6954  2.0874  1.1156
   98MOL0     H13184   8.401   2.952   7.115 -0.6954  1.8994 -0.2831
   98MOL0     H13185   8.248   2.865   7.123 -0.2486 -2.0509 -1.9851
   98MOL0     H13186   8.314   3.087   6.919  3.7277 -1.1172  2.2054
   98MOL0     H13187   8.248   3.114   7.082 -0.0464  0.2178 -0.0246
   98MOL0     H13188   8.054   2.973   7.009  1.6997  0.1981  0.4010
   98MOL0     H13189   8.110   2.969   6.847 -1.4173  0.3475 -0.0870
   98MOL0     H13190   7.880   2.927   6.887  1.7544 -0.0077 -2.4786
   98MOL0     H13191   7.533   2.920   6.898  2.3310  1.8038  5.3991
   98MOL0     H13192   7.625   2.839   6.764  0.9054  1.4778 -0.2320
   98MOL0     H13193   7.689   2.852   6.936  2.7336  0.6075 -0.3289
   98MOL0     H13194   7.305   3.280   6.840 -2.4087 -0.9108  0.4365
   98MOL0     H13195   7.077   3.333   6.827 -0.0657  2.9791  0.2265
   98MOL0     H13196   6.823   3.487   6.494  0.1818 -0.3121 -0.3083
   98MOL0     H13197   6.895   3.333   6.447 -0.1095 -1.6186 -0.2298
   98MOL0     H13198   6.747   3.205   6.573  1.4289  0.0074 -1.5913
   98MOL0     H13199   6.664   3.361   6.625  0.6039 -1.0168  0.6242
   98MOL0     H13200   6.637   3.374   6.342  2.5065  2.1808  1.1629
   98MOL0     H13201   6.519   3.319   6.458 -1.3696 -0.4779 -2.5811
   98MOL0     H13202   6.732   3.141   6.325 -0.1095 -0.0192 -1.2793
   98MOL0     H13203   6.619   3.083   6.435 -0.0322  0.8711  0.4766
   98MOL0     H13204   6.539   3.181   6.144 -1.1446 -0.0506 -0.8514
   98MOL0     H13205   6.433   3.135   6.280  0.0521 -2.1890  1.2725
   98MOL0     H13206   6.640   2.964   6.126  1.1075  2.6408  0.6933
   98MOL0     H13207   6.577   2.911   6.280  0.4600  0.5588  1.6008
   98MOL0     H13208   6.450   2.824   6.069  0.3518 -0.5342  0.8229
   98MOL0     H13209   6.412   2.997   6.038  0.8488 -0.7038 -1.0805
   98MOL0     H13210   6.211   2.876   6.137  0.9044 -3.7491 -0.0895
   98MOL0     H13211   6.258   2.999   6.243  0.6111  1.3639 -1.7972
   98MOL0     H13212   7.099   3.392   6.404  1.2464 -0.4042 -0.5949
   98MOL0     H13213   7.339   3.341   6.418 -2.0068 -2.9625 -1.2346
   98MOL0     H13214   7.693   3.322   6.672  0.7531  1.0818  0.0923
   98MOL0     H13215   7.923   3.348   6.767  0.2451  0.2941  1.6170
   98MOL0     H13216   9.324   2.163   6.188 -0.3731  0.8608  1.2321
   98MOL0     H13217   9.449   1.951   6.218  1.5387 -1.9980 -0.0898
   98MOL0     H13218   9.888   1.826   6.356  0.0090  0.3742  1.4020
   98MOL0     H13219  10.069   1.655   6.379  0.3477  2.1317  0.4025
   98MOL0     H13220  10.160   1.539   6.565 -0.6136  0.7330  0.0577
   98MOL0     H13221  10.065   1.437   6.681  1.6629 -4.9367  0.7294
   98MOL0     H13222  10.286   1.330   6.499  1.8152  1.8579  1.0213
   98MOL0     H13223  10.170   1.235   6.596  0.1598 -0.3339 -2.9317
   98MOL0     H13224  10.266   1.329   6.799 -2.5149 -0.3438 -0.9216
   98MOL0     H13225  10.373   1.431   6.711 -0.9152  0.4002 -0.1948
   98MOL0     H13226  10.468   1.228   6.585  0.6635 -0.4164  0.8030
   98MOL0     H13227  10.388   1.117   6.704  0.9192 -0.0744  1.4682
   98MOL0     H13228  10.693   1.260   6.949 -2.3680 -1.7609  2.5065
   98MOL0     H13229   9.759   1.390   6.537 -2.2476  0.3293 -0.7504
   98MOL0     H13230   9.606   1.580   6.560  0.0983 -3.3659 -0.2046
   99MOL0     O13231   0.335   7.231  10.055 -0.0803  0.3912 -0.2465
   99MOL0     C13232   0.348   7.349  10.094  0.4103  0.9482  0.2674
   99MOL0     O13233   0.251   7.441  10.119  0.2430 -0.4377  0.3250
   99MOL0     C13234   0.117   7.411  10.116  0.6398 -0.9223 -0.2412
   99MOL0     C13235   0.022   7.478  10.208  0.0319 -0.0413  0.6136
   99MOL0     C13236  -0.114   7.432  10.208  0.4414 -0.0389  0.1084
   99MOL0     C13237  -0.159   7.338  10.113 -0.3783  1.3959  0.0814
   99MOL0     O13238  -0.288   7.286  10.120  0.0449 -0.3119  0.1834
   99MOL0     C13239  -0.385   7.382  10.157  0.2520 -0.3330  0.6522
   99MOL0     C13240  -0.525   7.366  10.108 -0.6142 -0.0417  0.7248
   99MOL0     C13241  -0.630   7.443  10.183  0.6242  0.5943 -0.9875
   99MOL0     C13242  -0.771   7.399  10.147 -0.7998 -0.9666 -0.0684
   99MOL0     C13243  -0.875   7.510  10.179 -0.5366  0.5108 -0.1356
   99MOL0     C13244  -1.021   7.463  10.135 -0.5494  0.2317  0.5146
   99MOL0     C13245  -1.104   7.587  10.098 -0.0330 -0.4262  0.0925
   99MOL0     C13246  -1.118   7.708  10.196 -0.0970  0.1288  0.4587
   99MOL0     N13247  -1.185   7.664  10.322  0.1801 -0.5265  0.2308
   99MOL0     C13248  -1.144   7.571  10.412 -0.3622 -0.2931 -0.7050
   99MOL0     C13249  -1.246   7.562  10.498  0.1889  0.1896 -0.5599
   99MOL0     C13250  -1.252   7.469  10.609  0.2423 -0.2656 -0.2828
   99MOL0     C13251  -1.324   7.344  10.575  1.0307  1.2362  0.4988
   99MOL0     C13252  -1.310   7.233  10.688 -0.3040  0.5221 -0.5362
   99MOL0     C13253  -1.193   7.154  10.657  0.2507  0.6652 -1.0833
   99MOL0     O13254  -1.075   7.233  10.692  0.2896 -0.0600 -0.7236
   99MOL0     C13255  -0.949   7.205  10.659 -0.3038  1.2985  0.1750
   99MOL0     C13256  -0.906   7.130  10.551 -0.7247 -0.2743  0.2642
   99MOL0     C13257  -0.770   7.124  10.497  0.8756  0.1356 -0.0912
   99MOL0     C13258  -0.727   7.033  10.386 -0.4880  0.1781 -0.2180
   99MOL0     C13259  -0.671   7.207  10.563  0.0425  0.0222  0.5433
   99MOL0     C13260  -0.533   7.208  10.522  0.2831 -0.0871  1.0600
   99MOL0     O13261  -0.436   7.188  10.620 -0.2914 -0.6165 -0.4804
   99MOL0     C13262  -0.295   7.189  10.602 -0.3303  0.2764 -0.0098
   99MOL0     C13263  -0.233   7.163  10.478 -0.1399  0.5647  0.8891
   99MOL0     C13264  -0.093   7.162  10.466 -0.6571 -0.4113 -0.2683
   99MOL0     C13265  -0.015   7.190  10.579 -0.0201 -0.4189  0.0966
   99MOL0     O13266   0.118   7.190  10.580  0.4112  0.5043  0.3277
   99MOL0     C13267   0.181   7.232  10.457  0.1283 -0.1054  0.2131
   99MOL0     C13268   0.310   7.304  10.498  0.6705 -0.1312  0.7025
   99MOL0     C13269   0.393   7.221  10.601  0.3863  0.2080 -0.7766
   99MOL0     C13270   0.525   7.289  10.624 -1.1617  0.5753  0.0832
   99MOL0     C13271   0.639   7.243  10.520  0.6094 -0.2164  0.8566
   99MOL0     C13272   0.767   7.322  10.543  0.2510 -1.1916 -0.5714
   99MOL0     C13273   0.896   7.270  10.473 -0.0814 -1.1755  0.2989
   99MOL0     C13274   1.014   7.374  10.489 -0.5713  0.0545  0.5575
   99MOL0    Cl13275   1.047   7.401  10.664 -0.0230 -0.7154  0.0135
   99MOL0     C13276  -0.072   7.224  10.704  0.1072 -0.7903  0.2420
   99MOL0     C13277  -0.214   7.223  10.712 -0.2685  0.4185 -0.6030
   99MOL0     O13278  -0.511   7.231  10.400  0.0843  0.0329 -0.5751
   99MOL0     C13279  -0.717   7.268  10.688 -0.1458  0.5004  0.0967
   99MOL0     C13280  -0.853   7.268  10.734  0.8301  0.0578 -0.4309
   99MOL0     N13281  -1.342   7.642  10.458  0.0944  0.6248  0.2540
   99MOL0     N13282  -1.304   7.713  10.357  1.0953  0.5686 -0.2070
   99MOL0     C13283  -0.072   7.299  10.008  0.3335 -0.0583  0.2283
   99MOL0     C13284   0.063   7.334  10.009  0.4427  0.9557 -0.5447
   99MOL0     C13285   0.484   7.392  10.113 -0.1814 -0.0158 -0.3450
   99MOL0     C13286   0.505   7.496  10.210 -0.4683 -0.6515  0.2994
   99MOL0     C13287   0.635   7.540  10.226  0.7433 -0.0550  0.1928
   99MOL0     C13288   0.743   7.474  10.163 -0.0392  0.2776  0.2572
   99MOL0     O13289   0.863   7.516  10.196 -0.2635 -0.1506 -0.2859
   99MOL0     C13290   0.892   7.656  10.179 -0.5569 -0.2880  0.1528
   99MOL0     C13291   1.045   7.675  10.156  0.2555  0.1276 -0.6691
   99MOL0     C13292   1.116   7.548  10.106  0.4864 -0.6187 -0.1314
   99MOL0     C13293   1.261   7.585  10.079  0.5212  0.5774 -0.6981
   99MOL0     C13294   1.328   7.636  10.201  0.0369  0.3170 -0.5991
   99MOL0     C13295   1.381   7.668  10.307 -0.2624 -0.2261  0.5367
   99MOL0     C13296   0.720   7.361  10.093 -0.1139 -0.1433  0.5794
   99MOL0     C13297   0.595   7.330  10.048 -0.1238  0.0369 -0.8563
   99MOL0     H13298   0.063   7.545  10.284  1.5413  2.2806 -2.0391
   99MOL0     H13299  -0.175   7.454  10.294  1.1530 -0.6850  0.7949
   99MOL0     H13300  -0.403   7.379  10.265 -3.7819  1.5353  0.2036
   99MOL0     H13301  -0.349   7.479  10.122  1.2969 -0.8959  0.1140
   99MOL0     H13302  -0.539   7.385  10.002 -0.9917 -2.1507  0.3526
   99MOL0     H13303  -0.539   7.258  10.108 -0.3693 -0.0806 -0.4387
   99MOL0     H13304  -0.623   7.424  10.291  0.0498  0.9224 -0.8913
   99MOL0     H13305  -0.619   7.552  10.176 -1.3041  0.8322 -0.7503
   99MOL0     H13306  -0.770   7.384  10.038 -0.6813  0.2302 -0.2408
   99MOL0     H13307  -0.794   7.308  10.203  2.2273 -0.6027  2.0302
   99MOL0     H13308  -0.875   7.535  10.285  2.2945  0.4270 -0.0414
   99MOL0     H13309  -0.839   7.595  10.121  1.5438 -0.8540 -0.9391
   99MOL0     H13310  -1.001   7.393  10.053 -0.2826 -2.3271  2.6431
   99MOL0     H13311  -1.051   7.406  10.223  1.3739 -0.7874  0.5603
   99MOL0     H13312  -1.059   7.628  10.007  1.3763  3.3819  2.2694
   99MOL0     H13313  -1.207   7.558  10.075 -0.5428  0.6848  0.8442
   99MOL0     H13314  -1.183   7.787  10.158 -1.6059  1.0608  4.4811
   99MOL0     H13315  -1.019   7.742  10.227  0.4063 -1.9896  1.4091
   99MOL0     H13316  -1.046   7.524  10.413  0.2106  0.8600 -1.0688
   99MOL0     H13317  -1.147   7.450  10.635  0.4524  0.2982 -0.6896
   99MOL0     H13318  -1.303   7.518  10.691  0.8169  2.1455 -1.2764
   99MOL0     H13319  -1.302   7.301  10.477 -0.1534  1.6465  0.0330
   99MOL0     H13320  -1.429   7.373  10.567  1.0538  1.1008 -0.2985
   99MOL0     H13321  -1.395   7.163  10.684  2.6109 -3.2667 -3.1636
   99MOL0     H13322  -1.304   7.268  10.792  2.8138  0.4249 -0.5990
   99MOL0     H13323  -1.201   7.129  10.551  0.5608  1.1017 -1.2102
   99MOL0     H13324  -1.194   7.063  10.718  0.7430  0.4677 -1.3608
   99MOL0     H13325  -0.992   7.092  10.497  0.4791 -1.3883 -0.9381
   99MOL0     H13326  -0.629   6.989  10.403 -0.7992 -0.0522  1.0326
   99MOL0     H13327  -0.806   6.958  10.378 -0.5188  0.3581 -2.2814
   99MOL0     H13328  -0.722   7.091  10.293 -1.4405  3.6020  1.7039
   99MOL0     H13329  -0.286   7.131  10.389  0.5129 -3.9635  1.9085
   99MOL0     H13330  -0.047   7.137  10.372  0.7438  0.6184  0.1024
   99MOL0     H13331   0.205   7.149  10.390 -2.3512  0.2026 -1.2189
   99MOL0     H13332   0.126   7.310  10.403  0.5604  0.2974  0.3570
   99MOL0     H13333   0.376   7.315  10.411  0.3589  0.2221  0.5068
   99MOL0     H13334   0.279   7.400  10.540 -0.8516 -1.7306  3.5362
   99MOL0     H13335   0.409   7.125  10.550 -2.5729 -1.2080  0.6953
   99MOL0     H13336   0.343   7.211  10.698  0.0080 -1.1092 -1.0899
   99MOL0     H13337   0.519   7.398  10.610 -0.5416  0.7643  1.1324
   99MOL0     H13338   0.565   7.259  10.722 -0.7288 -0.7985 -0.5008
   99MOL0     H13339   0.591   7.251  10.422  0.1554  1.2373  1.1668
   99MOL0     H13340   0.649   7.136  10.538  0.7991 -0.1223  1.3123
   99MOL0     H13341   0.750   7.428  10.521  1.2283 -0.8896  0.0628
   99MOL0     H13342   0.791   7.323  10.650  0.4334 -0.8641 -0.6166
   99MOL0     H13343   0.886   7.271  10.364  2.1262 -3.4024 -0.0053
   99MOL0     H13344   0.924   7.174  10.516  0.0332 -0.7634  1.1739
   99MOL0     H13345   0.998   7.464  10.430 -1.1488 -0.9046 -0.8125
   99MOL0     H13346   1.104   7.323  10.452 -0.9247 -0.0804 -0.1356
   99MOL0     H13347  -0.009   7.246  10.789  1.0066 -0.3339 -0.5337
   99MOL0     H13348  -0.263   7.233  10.808  2.3453 -1.3853  1.0436
   99MOL0     H13349  -0.651   7.318  10.758  3.2254 -1.0615 -1.7459
   99MOL0     H13350  -0.902   7.314  10.819  1.2829 -1.3888  0.6611
   99MOL0     H13351  -0.125   7.243   9.933  0.4351  1.1504 -0.7678
   99MOL0     H13352   0.130   7.302   9.930  1.1636  2.0002 -0.3715
   99MOL0     H13353   0.426   7.546  10.264 -0.0644  0.6898 -0.3030
   99MOL0     H13354   0.632   7.620  10.299 -0.2416 -0.6452  0.8162
   99MOL0     H13355   0.853   7.700  10.086  0.0168  0.0814  0.0826
   99MOL0     H13356   0.858   7.707  10.269 -0.0985 -1.5800  1.0798
   99MOL0     H13357   1.073   7.691  10.260 -3.1003 -2.3170  0.8188
   99MOL0     H13358   1.067   7.759  10.090  1.4801 -1.4514 -2.3561
   99MOL0     H13359   1.063   7.516  10.016 -0.9884  2.9140 -0.6875
   99MOL0     H13360   1.123   7.473  10.185 -0.9153 -0.8890 -0.2404
   99MOL0     H13361   1.286   7.663  10.007  0.6648  2.4235  1.2299
   99MOL0     H13362   1.305   7.494  10.037 -2.1964 -2.7527  2.8706
   99MOL0     H13363   1.418   7.706  10.400  1.8493  3.2205 -1.4883
   99MOL0     H13364   0.807   7.311  10.051 -1.3380  0.7871 -3.5429
   99MOL0     H13365   0.590   7.248   9.977 -0.6318  0.1253 -0.9283
  100MOL0     O13366   7.843   6.406  10.750 -0.1317  0.6422 -0.4995
  100MOL0     C13367   7.927   6.326  10.714  0.1443 -0.6096 -1.1780
  100MOL0     O13368   7.912   6.196  10.721  0.3652 -0.1051 -0.0703
  100MOL0     C13369   7.798   6.143  10.766 -0.2051  0.4232 -0.1683
  100MOL0     C13370   7.747   6.160  10.890  0.0638 -0.9815 -0.4300
  100MOL0     C13371   7.615   6.125  10.922 -0.6823 -0.1944 -0.9351
  100MOL0     C13372   7.537   6.059  10.836 -1.0204 -0.2011 -0.3741
  100MOL0     O13373   7.408   6.026  10.877  0.3023  0.6655 -0.1702
  100MOL0     C13374   7.308   6.042  10.771  0.0481 -0.3911 -0.4255
  100MOL0     C13375   7.165   6.052  10.826  0.7826  0.1765 -0.2350
  100MOL0     C13376   7.064   6.074  10.714 -0.4260 -0.6648 -0.0684
  100MOL0     C13377   6.911   6.094  10.759 -0.6869  0.4646  0.2864
  100MOL0     C13378   6.802   6.051  10.652 -0.1978 -1.0839  0.5335
  100MOL0     C13379   6.823   6.126  10.523 -0.1139 -0.0247 -0.1955
  100MOL0     C13380   6.714   6.074  10.429 -0.0180 -1.0041  0.0829
  100MOL0     C13381   6.765   6.112  10.295 -0.9186 -0.0796 -0.0513
  100MOL0     N13382   6.663   6.086  10.191 -0.7554 -1.0558 -0.5381
  100MOL0     C13383   6.567   6.174  10.160 -0.9125 -0.0998 -0.1085
  100MOL0     C13384   6.510   6.121  10.048  0.2296  0.0962 -0.6338
  100MOL0     C13385   6.391   6.178   9.966 -0.7443 -0.8537  0.0327
  100MOL0     C13386   6.265   6.092   9.986 -0.1952 -0.7174  0.1436
  100MOL0     C13387   6.153   6.161   9.917  0.5096  0.6901 -1.0490
  100MOL0     C13388   6.020   6.103   9.970 -0.3586 -0.0648 -0.0352
  100MOL0     O13389   5.913   6.200   9.949  0.8020  0.1766 -0.0814
  100MOL0     C13390   5.787   6.157   9.983  0.2991 -0.5805  0.1433
  100MOL0     C13391   5.733   6.223  10.092  0.3934  0.2542  0.1966
  100MOL0     C13392   5.597   6.202  10.133 -0.1805 -0.0128 -0.0536
  100MOL0     C13393   5.553   6.288  10.250  0.9807  0.0510  0.4090
  100MOL0     C13394   5.527   6.096  10.074 -0.2035  0.2316 -0.0483
  100MOL0     C13395   5.398   6.044  10.117 -0.1522 -0.4873 -0.3995
  100MOL0     O13396   5.383   5.911  10.097 -0.3958  0.8081  0.1185
  100MOL0     C13397   5.260   5.849  10.130 -0.9546 -0.6855  0.1284
  100MOL0     C13398   5.138   5.892  10.077 -0.7590 -0.8021 -0.1510
  100MOL0     C13399   5.019   5.848  10.131 -0.3460  0.2797 -0.1670
  100MOL0     C13400   5.020   5.740  10.222  0.6203  0.1798 -0.6870
  100MOL0     O13401   4.906   5.676  10.257  0.2425  0.4745 -0.3416
  100MOL0     C13402   4.867   5.714  10.392  0.2717 -0.5166 -0.2891
  100MOL0     C13403   4.748   5.650  10.451  0.9437 -0.3642  0.7463
  100MOL0     C13404   4.625   5.699  10.368 -0.0522 -0.1334 -0.2884
  100MOL0     C13405   4.494   5.689  10.442 -0.1121 -0.0232  0.1619
  100MOL0     C13406   4.373   5.660  10.342  0.5692 -0.4050 -0.2157
  100MOL0     C13407   4.245   5.661  10.427 -0.1669  1.2711 -0.3882
  100MOL0     C13408   4.126   5.655  10.336  0.0586 -0.1403  0.3347
  100MOL0     C13409   4.096   5.792  10.268  0.9252 -0.5581 -0.5491
  100MOL0    Cl13410   3.928   5.801  10.205 -0.0651 -0.0030 -0.1128
  100MOL0     C13411   5.137   5.690  10.276 -0.5501 -0.2651 -0.4211
  100MOL0     C13412   5.259   5.749  10.227  0.4304 -0.1657 -0.6686
  100MOL0     O13413   5.308   6.125  10.155  0.2402  0.4523  0.0594
  100MOL0     C13414   5.590   6.034   9.971  0.3617  0.0617 -0.0436
  100MOL0     C13415   5.712   6.064   9.916 -0.0367  0.2563 -0.5303
  100MOL0     N13416   6.565   5.996  10.022  0.0169 -0.7620 -0.0762
  100MOL0     N13417   6.659   5.978  10.108  0.0351 -0.4663  0.1869
  100MOL0     C13418   7.592   6.017  10.714 -0.6751  0.0281  0.1495
  100MOL0     C13419   7.723   6.069  10.679 -0.8270  0.9144  0.3760
  100MOL0     C13420   8.069   6.367  10.683  0.2922 -0.2079  0.8844
  100MOL0     C13421   8.157   6.280  10.607  1.1633  0.3312  0.1783
  100MOL0     C13422   8.279   6.330  10.574 -0.4822 -0.3624  0.0984
  100MOL0     C13423   8.327   6.460  10.603 -0.8090 -0.2874 -0.4233
  100MOL0     O13424   8.453   6.505  10.582 -0.1480 -0.1247  0.7027
  100MOL0     C13425   8.557   6.407  10.544  0.5623  0.0268 -0.8057
  100MOL0     C13426   8.586   6.418  10.399 -0.6555  0.5355  0.0117
  100MOL0     C13427   8.610   6.560  10.357 -0.0961 -0.6322 -0.3014
  100MOL0     C13428   8.649   6.574  10.209 -0.6412 -0.5725  0.5495
  100MOL0     C13429   8.741   6.468  10.152  0.3695  0.1247 -0.0256
  100MOL0     C13430   8.823   6.392  10.108  0.0001 -0.2553  0.9656
  100MOL0     C13431   8.242   6.543  10.674  0.0825  0.1991  0.0168
  100MOL0     C13432   8.117   6.492  10.715 -0.5430 -0.2841 -0.9416
  100MOL0     H13433   7.798   6.225  10.960  0.0430 -0.1810 -1.1450
  100MOL0     H13434   7.555   6.141  11.012  3.3658  1.5265  1.7344
  100MOL0     H13435   7.327   6.131  10.711  3.2105 -1.3780 -1.1220
  100MOL0     H13436   7.317   5.956  10.704 -0.7969  0.2681 -1.4034
  100MOL0     H13437   7.135   5.961  10.879  3.6059 -2.7327 -3.0903
  100MOL0     H13438   7.155   6.140  10.890  2.5847  0.3328 -0.1046
  100MOL0     H13439   7.105   6.159  10.660 -0.9504 -1.4806 -1.8198
  100MOL0     H13440   7.072   5.984  10.652 -3.0907 -1.2538  0.3270
  100MOL0     H13441   6.904   6.030  10.847  1.7553 -0.6361 -0.2376
  100MOL0     H13442   6.903   6.198  10.791  0.9942  0.2724  1.4784
  100MOL0     H13443   6.803   5.942  10.639 -1.3936 -0.9420 -1.1197
  100MOL0     H13444   6.710   6.088  10.699 -0.8229 -0.8247 -0.8605
  100MOL0     H13445   6.816   6.235  10.529  0.4182  0.0141 -0.2385
  100MOL0     H13446   6.924   6.105  10.486  0.6832 -1.6585  2.6265
  100MOL0     H13447   6.701   5.966  10.438  0.4076 -1.2865 -2.0035
  100MOL0     H13448   6.622   6.130  10.443  1.0471  0.5884  0.9888
  100MOL0     H13449   6.860   6.065  10.270 -1.9894 -1.1807 -2.2557
  100MOL0     H13450   6.783   6.220  10.288  0.2644 -0.3136 -0.9219
  100MOL0     H13451   6.551   6.267  10.214  1.9598 -0.4675  1.5863
  100MOL0     H13452   6.379   6.282   9.997 -1.9237 -0.8265 -0.4432
  100MOL0     H13453   6.426   6.184   9.863  0.8843 -0.2304  0.5922
  100MOL0     H13454   6.246   6.075  10.093 -1.5054  0.4198  0.1251
  100MOL0     H13455   6.272   5.987   9.957 -2.1365 -1.0363  0.6943
  100MOL0     H13456   6.160   6.159   9.808 -1.7203  0.8585 -1.2548
  100MOL0     H13457   6.150   6.261   9.963 -2.1440 -0.1200  0.8411
  100MOL0     H13458   6.044   6.082  10.075  1.7606 -2.8787 -0.9270
  100MOL0     H13459   6.007   6.009   9.916  0.1905 -0.8646  1.1663
  100MOL0     H13460   5.787   6.298  10.148  0.6564  1.1919 -1.2685
  100MOL0     H13461   5.614   6.378  10.256 -0.6185  1.0913  2.1399
  100MOL0     H13462   5.454   6.332  10.236  0.6922  0.5552  3.4517
  100MOL0     H13463   5.548   6.230  10.342  2.3378 -0.5786  0.1141
  100MOL0     H13464   5.141   5.975  10.008  0.3777 -0.3784  0.3737
  100MOL0     H13465   4.921   5.890  10.108 -0.6197 -0.5925 -0.6214
  100MOL0     H13466   4.953   5.708  10.460 -0.9995  2.8868  1.8837
  100MOL0     H13467   4.841   5.820  10.403  1.0290 -0.2034 -1.3666
  100MOL0     H13468   4.760   5.543  10.470 -0.2660 -0.3357  1.7789
  100MOL0     H13469   4.736   5.703  10.546  1.5099 -0.5225  0.9088
  100MOL0     H13470   4.621   5.630  10.283 -2.9689 -0.3263 -0.0642
  100MOL0     H13471   4.641   5.802  10.334 -1.4444  0.2050  0.0525
  100MOL0     H13472   4.498   5.614  10.522 -2.3893  0.4225  0.7924
  100MOL0     H13473   4.472   5.787  10.485  2.1955  0.0821  1.2321
  100MOL0     H13474   4.389   5.563  10.294 -0.2253 -0.0209 -1.2901
  100MOL0     H13475   4.366   5.735  10.263 -2.2234  1.5999  1.7254
  100MOL0     H13476   4.232   5.568  10.483 -4.5496  1.3806 -0.9036
  100MOL0     H13477   4.234   5.745  10.496 -1.2407 -0.3035  1.4503
  100MOL0     H13478   4.048   5.627  10.408  0.1946 -1.5599 -0.0474
  100MOL0     H13479   4.138   5.587  10.251  0.6672  1.1304 -0.6207
  100MOL0     H13480   4.173   5.805  10.192  2.2918  2.2582  1.1762
  100MOL0     H13481   4.099   5.876  10.337 -3.9152 -1.7259  1.4748
  100MOL0     H13482   5.145   5.606  10.343 -1.2616  1.4905  2.0156
  100MOL0     H13483   5.352   5.717  10.274  0.0332  2.0171  1.9014
  100MOL0     H13484   5.532   5.962   9.915 -1.8987  0.5925  1.5072
  100MOL0     H13485   5.747   6.001   9.835 -2.6888 -2.1137 -0.0020
  100MOL0     H13486   7.543   5.948  10.645  0.5197 -0.4841 -0.2047
  100MOL0     H13487   7.754   6.047  10.577 -4.7736  2.0194 -1.2385
  100MOL0     H13488   8.120   6.181  10.586  1.4171  0.1807  0.4286
  100MOL0     H13489   8.333   6.262  10.508  1.5074  0.6969  0.5476
  100MOL0     H13490   8.652   6.432  10.593 -2.3511  1.3140  5.1333
  100MOL0     H13491   8.527   6.306  10.573 -1.1886 -0.3033 -3.3829
  100MOL0     H13492   8.493   6.388  10.349 -0.9068  2.4069 -0.7163
  100MOL0     H13493   8.665   6.348  10.370 -0.6978  0.3998  0.2228
  100MOL0     H13494   8.694   6.600  10.414 -0.9974  1.7810 -0.5688
  100MOL0     H13495   8.514   6.611  10.365 -1.5758 -3.4667  1.8448
  100MOL0     H13496   8.708   6.663  10.189  0.0240 -1.3554 -1.1989
  100MOL0     H13497   8.562   6.580  10.143 -1.1196  1.0718  1.2959
  100MOL0     H13498   8.903   6.333  10.068  0.8875  0.2637  1.9240
  100MOL0     H13499   8.269   6.646  10.696  0.8477 -0.4542  2.3963
  100MOL0     H13500   8.049   6.549  10.776  0.7358 -0.6517  0.9231
  101MOL0     O13501   6.544   2.213   0.951  0.0731  0.3241 -0.1896
  101MOL0     C13502   6.645   2.220   0.879 -0.2934  0.0596  0.3080
  101MOL0     O13503   6.663   2.300   0.765  1.2622 -0.6227 -0.1521
  101MOL0     C13504   6.545   2.365   0.734 -0.2711  0.1109  0.4823
  101MOL0     C13505   6.478   2.319   0.628  0.4807  0.7256 -0.0446
  101MOL0     C13506   6.364   2.382   0.581  0.6003 -0.4547 -0.1412
  101MOL0     C13507   6.311   2.490   0.655 -0.1891 -0.2142  0.3309
  101MOL0     O13508   6.202   2.560   0.618  0.0621 -0.1827 -0.3827
  101MOL0     C13509   6.123   2.517   0.507 -1.2758 -0.0701 -0.4074
  101MOL0     C13510   5.999   2.595   0.488 -0.1077  1.1547 -0.6698
  101MOL0     C13511   5.905   2.529   0.386 -0.6032  0.2491 -0.5568
  101MOL0     C13512   5.786   2.618   0.389 -0.5445  0.3223  0.0494
  101MOL0     C13513   5.716   2.593   0.248 -0.1920  0.0824  0.3937
  101MOL0     C13514   5.570   2.640   0.268  0.5573  0.3881  1.0109
  101MOL0     C13515   5.477   2.597   0.160  0.3911  0.1064  0.4550
  101MOL0     C13516   5.510   2.671   0.031  0.7714  0.0218  0.7781
  101MOL0     N13517   5.478   2.815   0.054  0.1485 -0.4580  0.4680
  101MOL0     C13518   5.353   2.874   0.082 -0.1591  0.0768 -0.4721
  101MOL0     C13519   5.382   2.992   0.130  0.0398  0.2712  0.3220
  101MOL0     C13520   5.274   3.095   0.170  0.4956 -0.5636 -0.3756
  101MOL0     C13521   5.206   3.181   0.054  0.7534 -0.3363  0.3105
  101MOL0     C13522   5.310   3.272  -0.013 -0.0465  1.1823  0.6560
  101MOL0     C13523   5.228   3.357  -0.109  0.2924 -0.1290  0.2753
  101MOL0     O13524   5.117   3.427  -0.044 -0.2170  0.6635  0.5460
  101MOL0     C13525   5.011   3.463  -0.119  0.2495  0.2398 -0.0480
  101MOL0     C13526   4.901   3.505  -0.051 -0.0061  0.5363  0.7640
  101MOL0     C13527   4.775   3.533  -0.111 -0.0344 -0.0577  0.5751
  101MOL0     C13528   4.660   3.556  -0.017  0.7873  0.0804  0.0147
  101MOL0     C13529   4.768   3.527  -0.259  0.0102  0.6809  0.2909
  101MOL0     C13530   4.649   3.572  -0.335  0.7946  0.7907  0.0803
  101MOL0     O13531   4.522   3.576  -0.268  0.2386 -0.1067 -0.4741
  101MOL0     C13532   4.417   3.638  -0.341 -0.7103  0.5315  0.4224
  101MOL0     C13533   4.380   3.595  -0.471  0.2956  0.5564  0.2100
  101MOL0     C13534   4.278   3.662  -0.541 -0.1265  0.8877  0.2657
  101MOL0     C13535   4.231   3.781  -0.490 -0.8802 -0.4343 -0.4159
  101MOL0     O13536   4.138   3.850  -0.560 -0.2076  0.3509 -0.3739
  101MOL0     C13537   4.139   3.866  -0.703  0.0152  0.1618 -0.3994
  101MOL0     C13538   4.011   3.926  -0.766  0.1296  0.1666 -0.9445
  101MOL0     C13539   3.899   3.822  -0.741 -0.2729 -0.0553  0.6854
  101MOL0     C13540   3.921   3.694  -0.838 -0.7082  0.4071  0.5215
  101MOL0     C13541   3.790   3.623  -0.850  0.2852 -0.5606 -0.6459
  101MOL0     C13542   3.788   3.481  -0.905  0.7816  0.4722 -0.2043
  101MOL0     C13543   3.864   3.473  -1.042 -0.2002 -0.2392  0.0194
  101MOL0     C13544   3.881   3.327  -1.071 -0.6860 -0.0201  0.0153
  101MOL0    Cl13545   3.722   3.266  -1.113 -0.2691 -0.1011  0.4141
  101MOL0     C13546   4.268   3.818  -0.364 -0.5193 -0.8103 -0.6246
  101MOL0     C13547   4.359   3.744  -0.289 -0.3236 -0.1836 -0.3948
  101MOL0     O13548   4.670   3.609  -0.449  0.4040  0.4202 -0.3703
  101MOL0     C13549   4.883   3.486  -0.331  0.1337 -0.8496 -0.0615
  101MOL0     C13550   4.996   3.456  -0.254 -0.9010 -0.1041 -0.3889
  101MOL0     N13551   5.518   3.009   0.131 -0.3594 -0.4492  0.2885
  101MOL0     N13552   5.574   2.901   0.080 -0.3768 -0.3507 -0.0113
  101MOL0     C13553   6.382   2.546   0.763 -0.2252 -0.0120  0.8671
  101MOL0     C13554   6.503   2.485   0.797  0.6754 -0.1871 -0.0232
  101MOL0     C13555   6.776   2.167   0.934  0.0331  0.5083 -0.2102
  101MOL0     C13556   6.908   2.196   0.874  0.9051  0.9646  0.2340
  101MOL0     C13557   7.027   2.134   0.919  0.2464 -0.8629 -0.4020
  101MOL0     C13558   7.022   2.038   1.014  1.2309 -0.3763 -0.5621
  101MOL0     O13559   7.149   1.986   1.053 -0.4934 -0.3116  0.0696
  101MOL0     C13560   7.154   1.922   1.181  0.2068 -0.0481  0.4660
  101MOL0     C13561   7.296   1.858   1.204  0.9459  0.7814 -0.0123
  101MOL0     C13562   7.297   1.785   1.340  0.3278  0.0905 -0.3691
  101MOL0     C13563   7.432   1.731   1.373  0.3870 -0.6769 -0.1944
  101MOL0     C13564   7.423   1.613   1.456  0.1888 -0.7034  0.5419
  101MOL0     C13565   7.415   1.531   1.548 -0.5439  0.4232  0.0916
  101MOL0     C13566   6.898   2.007   1.073  0.1154 -0.3551 -0.8721
  101MOL0     C13567   6.776   2.072   1.031  0.1630 -0.3553 -0.2281
  101MOL0     H13568   6.511   2.230   0.575  0.1859  1.1374 -0.9419
  101MOL0     H13569   6.323   2.348   0.487  0.1085  1.7295 -0.7819
  101MOL0     H13570   6.179   2.514   0.414 -5.0198 -0.4843 -2.8549
  101MOL0     H13571   6.098   2.415   0.539  1.7397 -0.9785 -0.6438
  101MOL0     H13572   5.949   2.595   0.585  3.5126  1.1278  1.3924
  101MOL0     H13573   6.031   2.694   0.455 -0.3684  0.7025 -2.3549
  101MOL0     H13574   5.957   2.531   0.290 -1.7359  1.8130 -1.1765
  101MOL0     H13575   5.878   2.425   0.404 -1.1670  0.2065 -1.5804
  101MOL0     H13576   5.733   2.581   0.477  2.3817  0.1665  1.8790
  101MOL0     H13577   5.811   2.724   0.400 -0.5827  0.6403 -2.4077
  101MOL0     H13578   5.761   2.646   0.163 -2.9152  1.3927 -0.3294
  101MOL0     H13579   5.719   2.485   0.232  3.7584 -0.0347  0.9282
  101MOL0     H13580   5.535   2.601   0.364  1.1823 -0.7252  0.8105
  101MOL0     H13581   5.565   2.749   0.275 -1.1019  0.6667 -2.5592
  101MOL0     H13582   5.490   2.492   0.129 -0.6176  0.6343 -2.0510
  101MOL0     H13583   5.374   2.619   0.192  0.3538  1.0935 -0.3171
  101MOL0     H13584   5.445   2.620  -0.041 -1.5129 -1.8771  3.9352
  101MOL0     H13585   5.614   2.654  -0.001  0.1891 -1.4753 -0.4871
  101MOL0     H13586   5.258   2.828   0.056 -2.5788  3.0811  2.2303
  101MOL0     H13587   5.191   3.046   0.222 -0.4388  1.8000  0.4706
  101MOL0     H13588   5.320   3.167   0.238  0.4695 -2.1790  1.4623
  101MOL0     H13589   5.134   3.243   0.108  1.5811 -0.4848  1.6379
  101MOL0     H13590   5.149   3.127  -0.023  0.0260  0.7429  0.0610
  101MOL0     H13591   5.385   3.215  -0.069 -0.3453  0.8274  0.6135
  101MOL0     H13592   5.369   3.329   0.059  1.2744 -0.3805  0.8669
  101MOL0     H13593   5.195   3.285  -0.185 -2.6968  0.1463  1.1488
  101MOL0     H13594   5.300   3.433  -0.140  1.5432 -1.2204  0.3997
  101MOL0     H13595   4.907   3.504   0.058  0.6194 -1.6416  0.7466
  101MOL0     H13596   4.609   3.463   0.009  0.8283 -0.0856 -0.4949
  101MOL0     H13597   4.698   3.594   0.078 -2.2139 -1.6813  2.1067
  101MOL0     H13598   4.602   3.640  -0.058  2.1381  0.9691 -0.1313
  101MOL0     H13599   4.433   3.505  -0.499 -0.9270  0.4970 -2.2791
  101MOL0     H13600   4.248   3.614  -0.633 -4.2359  1.0278  1.3470
  101MOL0     H13601   4.225   3.927  -0.732 -0.8929  1.7146  0.1131
  101MOL0     H13602   4.151   3.772  -0.758 -3.1853 -0.9232  0.5570
  101MOL0     H13603   3.976   4.017  -0.718  0.4652  0.7677 -1.8264
  101MOL0     H13604   4.025   3.944  -0.872 -4.1714 -3.5715 -2.4954
  101MOL0     H13605   3.803   3.871  -0.762 -0.3246 -0.1587  0.6764
  101MOL0     H13606   3.898   3.790  -0.637  0.5656  0.3962  0.8372
  101MOL0     H13607   3.951   3.738  -0.934 -1.7723 -0.9149 -0.4623
  101MOL0     H13608   3.997   3.629  -0.794  0.9709  2.6489  1.1301
  101MOL0     H13609   3.717   3.683  -0.905  1.2971  0.7688 -0.5757
  101MOL0     H13610   3.753   3.613  -0.748  1.3169 -1.3397 -0.3368
  101MOL0     H13611   3.831   3.409  -0.835 -0.6474 -0.4624 -0.2534
  101MOL0     H13612   3.684   3.449  -0.918  1.0764 -1.3212  1.3753
  101MOL0     H13613   3.962   3.519  -1.027 -0.4495 -0.0601  1.1785
  101MOL0     H13614   3.817   3.525  -1.126 -2.9341  1.0827  2.1971
  101MOL0     H13615   3.922   3.262  -0.993 -0.6648 -3.0765 -2.3738
  101MOL0     H13616   3.956   3.312  -1.149 -0.3748 -2.8411  0.7430
  101MOL0     H13617   4.239   3.914  -0.320 -1.3267 -0.5234 -1.7370
  101MOL0     H13618   4.382   3.767  -0.185 -1.4487  0.2065 -0.2158
  101MOL0     H13619   4.879   3.470  -0.438  0.3909 -1.3239 -0.0007
  101MOL0     H13620   5.079   3.413  -0.311  1.5308  0.8387  2.1885
  101MOL0     H13621   6.337   2.631   0.812 -0.1236  1.1654 -0.9803
  101MOL0     H13622   6.531   2.525   0.894 -0.6881  5.1657 -1.5094
  101MOL0     H13623   6.915   2.270   0.795  0.0480 -0.1491 -0.9104
  101MOL0     H13624   7.119   2.169   0.874 -0.9223  2.0396 -0.7986
  101MOL0     H13625   7.131   1.989   1.265  1.6404 -0.3621  1.1449
  101MOL0     H13626   7.077   1.846   1.194 -2.4183  2.5101  0.7540
  101MOL0     H13627   7.370   1.938   1.211  1.3793  0.3961 -0.1522
  101MOL0     H13628   7.324   1.794   1.120  3.7561  1.1010  0.5987
  101MOL0     H13629   7.217   1.712   1.324  0.0196  0.7491 -2.0555
  101MOL0     H13630   7.272   1.864   1.412  2.4997  0.5839 -0.1076
  101MOL0     H13631   7.491   1.809   1.423 -3.0602  0.9251  1.6829
  101MOL0     H13632   7.478   1.693   1.281 -1.6663  1.3191 -2.1748
  101MOL0     H13633   7.396   1.472   1.635 -4.1277 -0.7220 -1.2671
  101MOL0     H13634   6.885   1.927   1.145  1.4130 -0.6761 -0.9709
  101MOL0     H13635   6.684   2.033   1.074 -0.2688  2.5853  1.8410
  102MOL0     O13636   3.818   7.342   5.894  0.8354 -0.1014 -0.6366
  102MOL0     C13637   3.938   7.334   5.866  0.0145 -0.2301 -0.7119
  102MOL0     O13638   4.001   7.382   5.751  0.5139  0.0693 -0.0891
  102MOL0     C13639   3.915   7.436   5.657  0.5627 -0.1156 -0.2347
  102MOL0     C13640   3.812   7.361   5.591  0.9620 -0.6249  0.1623
  102MOL0     C13641   3.724   7.408   5.494 -0.1247 -0.4420 -0.2982
  102MOL0     C13642   3.732   7.545   5.460  1.0931 -0.6951 -0.9833
  102MOL0     O13643   3.646   7.587   5.360 -0.6925 -1.0430  0.1201
  102MOL0     C13644   3.681   7.714   5.299  0.1004 -0.0711  0.1843
  102MOL0     C13645   3.606   7.731   5.170  0.6934  0.3868  0.0300
  102MOL0     C13646   3.454   7.735   5.180  0.2829 -0.1387  0.1487
  102MOL0     C13647   3.390   7.723   5.039  0.3901  1.0673  0.0389
  102MOL0     C13648   3.239   7.737   5.046  0.3884 -0.6025 -0.6672
  102MOL0     C13649   3.172   7.741   4.912  0.2371  0.5178  1.1181
  102MOL0     C13650   3.201   7.620   4.819  0.5609  0.2188 -1.1573
  102MOL0     C13651   3.140   7.494   4.891  0.2541 -0.3012  0.0591
  102MOL0     N13652   2.997   7.498   4.899  0.1923 -0.7026 -0.6999
  102MOL0     C13653   2.919   7.515   5.016 -0.0233  0.5019  0.4444
  102MOL0     C13654   2.786   7.500   4.980 -0.1517 -0.4204  0.2127
  102MOL0     C13655   2.678   7.501   5.092  0.5125 -0.1158  0.9866
  102MOL0     C13656   2.542   7.461   5.028 -0.0999  0.3041  0.4500
  102MOL0     C13657   2.436   7.463   5.142  0.0214  0.5951  0.8518
  102MOL0     C13658   2.292   7.453   5.096  0.3738  0.0309 -0.3453
  102MOL0     O13659   2.193   7.432   5.212 -0.5281  0.1566  0.8648
  102MOL0     C13660   2.070   7.381   5.194 -0.6104 -0.1842  0.2973
  102MOL0     C13661   1.987   7.353   5.299  0.2202 -0.4100  0.1961
  102MOL0     C13662   1.848   7.323   5.292 -0.0330  0.7995  0.4911
  102MOL0     C13663   1.770   7.299   5.418  0.5483 -0.2743  0.2863
  102MOL0     C13664   1.793   7.322   5.158  0.7144 -0.0247 -0.1084
  102MOL0     C13665   1.644   7.315   5.127 -0.0335 -0.5873  0.8381
  102MOL0     O13666   1.614   7.325   4.995 -0.1337 -0.5252  0.2743
  102MOL0     C13667   1.484   7.336   4.962  0.6379  0.5721  0.4792
  102MOL0     C13668   1.438   7.450   4.896  0.0771  0.0630 -0.6314
  102MOL0     C13669   1.302   7.461   4.878  0.0238 -0.7288 -0.0770
  102MOL0     C13670   1.217   7.356   4.903 -0.0342  0.3379  0.1897
  102MOL0     O13671   1.089   7.349   4.858 -0.1010  0.5656  0.3154
  102MOL0     C13672   1.017   7.465   4.842  0.1285  0.0585  0.4738
  102MOL0     C13673   0.865   7.417   4.809 -0.3356 -0.0052  0.2287
  102MOL0     C13674   0.767   7.522   4.782 -0.2316 -0.1748  0.1783
  102MOL0     C13675   0.617   7.468   4.769 -0.6355 -0.0867 -0.1760
  102MOL0     C13676   0.592   7.394   4.632 -0.3243 -0.2876  0.2772
  102MOL0     C13677   0.456   7.333   4.628 -0.2233  0.0442 -0.4127
  102MOL0     C13678   0.417   7.275   4.492  1.1209  0.3862  0.9864
  102MOL0     C13679   0.285   7.198   4.507 -0.5361 -0.7913  0.6072
  102MOL0    Cl13680   0.134   7.294   4.530  0.3267  0.5221 -0.2780
  102MOL0     C13681   1.265   7.237   4.959 -1.0604 -0.7516  1.2985
  102MOL0     C13682   1.398   7.230   4.996  0.0945  1.1600 -0.1752
  102MOL0     O13683   1.562   7.307   5.223  0.4670  0.2323 -0.6807
  102MOL0     C13684   1.877   7.339   5.057 -0.3644 -0.7872  0.3553
  102MOL0     C13685   2.010   7.375   5.070  0.2756 -0.1940 -0.0848
  102MOL0     N13686   2.790   7.489   4.842 -0.0933 -0.1042  0.5177
  102MOL0     N13687   2.911   7.490   4.797  0.3831  0.6286 -0.0267
  102MOL0     C13688   3.817   7.630   5.535  0.1012  0.1177 -0.5727
  102MOL0     C13689   3.914   7.573   5.624  0.3968  0.3160 -0.0359
  102MOL0     C13690   4.026   7.273   5.970 -0.8074  0.4290  0.2673
  102MOL0     C13691   3.971   7.237   6.090 -0.8842 -0.4334 -0.1317
  102MOL0     C13692   4.053   7.190   6.196  0.9716  0.0816 -0.6085
  102MOL0     C13693   4.187   7.162   6.174 -0.2889 -0.0495 -0.4358
  102MOL0     O13694   4.263   7.101   6.271  0.0314 -0.1397  0.1597
  102MOL0     C13695   4.301   7.194   6.374 -0.2668  0.0731 -0.1679
  102MOL0     C13696   4.417   7.136   6.455  0.2715  0.1366 -0.5523
  102MOL0     C13697   4.483   7.234   6.543  0.1001 -0.0614 -0.5270
  102MOL0     C13698   4.609   7.166   6.601  0.9418  0.4923 -0.1881
  102MOL0     C13699   4.661   7.269   6.689 -0.2997  0.0307 -0.3632
  102MOL0     C13700   4.704   7.360   6.760 -0.1631  0.0572  0.0810
  102MOL0     C13701   4.241   7.211   6.054 -0.5977  0.1311 -0.1642
  102MOL0     C13702   4.165   7.267   5.956 -1.1106 -0.1171 -0.2240
  102MOL0     H13703   3.811   7.255   5.616 -1.9751 -0.6646  0.2633
  102MOL0     H13704   3.650   7.343   5.448 -3.0207  1.0380  1.9202
  102MOL0     H13705   3.660   7.796   5.369 -4.5867 -1.5909  0.8861
  102MOL0     H13706   3.783   7.716   5.260 -1.3024  1.7161 -3.9927
  102MOL0     H13707   3.638   7.825   5.125  2.7239 -1.1464 -1.9872
  102MOL0     H13708   3.631   7.645   5.107  0.5405  1.6431 -1.8047
  102MOL0     H13709   3.417   7.656   5.245  0.5457 -2.3096 -2.1840
  102MOL0     H13710   3.430   7.828   5.232  1.4577  0.5313 -0.4494
  102MOL0     H13711   3.425   7.793   4.962  2.3181 -0.7280 -0.7949
  102MOL0     H13712   3.422   7.630   4.992 -1.3954  0.9083 -0.9591
  102MOL0     H13713   3.191   7.657   5.103 -0.5575 -0.1158 -0.7617
  102MOL0     H13714   3.234   7.835   5.093 -1.1619 -1.0296  0.1275
  102MOL0     H13715   3.067   7.762   4.931 -0.4085 -0.9851 -0.5619
  102MOL0     H13716   3.212   7.827   4.857 -0.8537  0.6338  0.4725
  102MOL0     H13717   3.150   7.643   4.725 -0.7829  0.6900 -0.3393
  102MOL0     H13718   3.310   7.614   4.806  0.9328 -0.0858  1.5954
  102MOL0     H13719   3.167   7.480   4.997 -0.3176  1.4815  0.4651
  102MOL0     H13720   3.173   7.409   4.831  1.4702  0.0561  0.1911
  102MOL0     H13721   2.963   7.533   5.114 -2.2234 -2.3914  2.1134
  102MOL0     H13722   2.706   7.436   5.176 -0.1211 -0.2755  1.0746
  102MOL0     H13723   2.664   7.599   5.140 -3.3826  1.7014 -3.1261
  102MOL0     H13724   2.560   7.362   4.985  0.2273  0.4252  0.3094
  102MOL0     H13725   2.515   7.524   4.943 -0.3751 -0.9876 -0.4370
  102MOL0     H13726   2.444   7.558   5.195 -0.9176  1.3505 -0.2912
  102MOL0     H13727   2.454   7.392   5.223  0.6102  0.7669  0.8805
  102MOL0     H13728   2.280   7.367   5.029  0.5907 -0.0811 -0.2413
  102MOL0     H13729   2.271   7.549   5.048  1.5881  3.0561  4.4488
  102MOL0     H13730   2.021   7.358   5.402 -2.2343 -2.6758  1.2571
  102MOL0     H13731   1.683   7.364   5.428  1.0175  0.4699 -0.3922
  102MOL0     H13732   1.725   7.200   5.402  0.2587 -0.1174  0.1229
  102MOL0     H13733   1.824   7.295   5.513 -1.8634 -0.4965  1.7500
  102MOL0     H13734   1.507   7.533   4.883  1.3104 -0.4827  1.7683
  102MOL0     H13735   1.267   7.558   4.844 -0.1554 -1.2598 -1.4710
  102MOL0     H13736   1.028   7.541   4.920  1.5379  1.8901 -1.4196
  102MOL0     H13737   1.053   7.516   4.752 -0.1359  1.3263  1.0646
  102MOL0     H13738   0.875   7.356   4.719  0.2838 -0.7337  0.7770
  102MOL0     H13739   0.824   7.344   4.880  2.1442 -1.8549 -0.0884
  102MOL0     H13740   0.809   7.577   4.697  0.9433 -2.0814 -0.5536
  102MOL0     H13741   0.748   7.584   4.870  0.6272 -0.0835  0.3122
  102MOL0     H13742   0.598   7.403   4.854 -1.8384 -0.1264 -0.4621
  102MOL0     H13743   0.563   7.563   4.776  2.9339  2.2765 -1.2523
  102MOL0     H13744   0.660   7.310   4.618 -1.6779 -1.7201  1.8704
  102MOL0     H13745   0.601   7.465   4.549  1.7822 -0.5640  0.2055
  102MOL0     H13746   0.449   7.258   4.708  1.4125 -0.0711 -0.3569
  102MOL0     H13747   0.391   7.418   4.652  0.8182  1.4206 -2.2638
  102MOL0     H13748   0.498   7.208   4.462  0.4547  0.1652 -0.3909
  102MOL0     H13749   0.393   7.354   4.421 -2.5732 -0.2831  1.2684
  102MOL0     H13750   0.294   7.124   4.586  3.5645 -2.2573 -0.9809
  102MOL0     H13751   0.282   7.134   4.418 -0.4106 -0.3006  0.2464
  102MOL0     H13752   1.198   7.153   4.950  0.4905 -1.8697 -0.7804
  102MOL0     H13753   1.430   7.141   5.050 -0.5157  1.3747  0.5536
  102MOL0     H13754   1.842   7.332   4.955 -2.0869  0.9783  0.7665
  102MOL0     H13755   2.059   7.405   4.979  2.4830  1.6457  1.6019
  102MOL0     H13756   3.835   7.737   5.526 -1.0169  0.6650  2.4490
  102MOL0     H13757   3.978   7.640   5.679  1.3727 -1.9847  1.8050
  102MOL0     H13758   3.865   7.235   6.113 -0.6866 -2.5726  0.8840
  102MOL0     H13759   4.006   7.149   6.285 -0.3685  0.8219 -0.9415
  102MOL0     H13760   4.339   7.290   6.338  1.6398 -1.0247 -1.2525
  102MOL0     H13761   4.221   7.206   6.447 -0.0962 -4.2602  1.0128
  102MOL0     H13762   4.492   7.093   6.389  0.0792  0.7346 -1.1712
  102MOL0     H13763   4.359   7.061   6.509 -1.4993  1.8269  0.0266
  102MOL0     H13764   4.399   7.265   6.606 -2.4008 -1.7329 -2.7850
  102MOL0     H13765   4.519   7.320   6.487  0.6313  0.8989  1.2048
  102MOL0     H13766   4.685   7.147   6.525 -0.2500  0.3711 -1.3873
  102MOL0     H13767   4.582   7.077   6.659 -2.7240  1.2593 -0.4455
  102MOL0     H13768   4.730   7.437   6.830 -0.3285 -1.8432  2.3350
  102MOL0     H13769   4.344   7.184   6.032 -2.0060 -2.5875 -4.9396
  102MOL0     H13770   4.217   7.299   5.867  0.5021  1.9482  1.3499
  103MOL0     O13771  10.415   6.012   6.686  0.2517  0.1722 -0.0492
  103MOL0     C13772  10.397   5.979   6.571  0.0057 -0.2570  0.9276
  103MOL0     O13773  10.478   6.009   6.461 -0.7034  0.1257 -0.2293
  103MOL0     C13774  10.600   6.069   6.483  0.8062 -0.8940  0.2029
  103MOL0     C13775  10.639   6.164   6.390 -0.0093 -0.2429 -0.1881
  103MOL0     C13776  10.767   6.214   6.384  0.1257  0.2557  0.6276
  103MOL0     C13777  10.862   6.171   6.479 -0.3845  0.2647 -0.0921
  103MOL0     O13778  10.987   6.206   6.450  0.3334  0.4786 -0.6249
  103MOL0     C13779  11.095   6.198   6.543  0.4789 -0.5653 -0.3168
  103MOL0     C13780  11.158   6.059   6.547 -0.7446 -0.0316  0.0408
  103MOL0     C13781  11.252   6.035   6.671  0.3324 -0.2143 -0.0223
  103MOL0     C13782  11.356   6.143   6.705 -0.0293  0.1841 -1.1028
  103MOL0     C13783  11.460   6.100   6.808 -0.9327  0.5120  0.0940
  103MOL0     C13784  11.545   6.201   6.880  0.1123 -0.3745 -0.0047
  103MOL0     C13785  11.611   6.309   6.788  0.0886  0.3129 -0.1841
  103MOL0     C13786  11.693   6.250   6.679 -0.8613 -0.4484 -0.0521
  103MOL0     N13787  11.785   6.346   6.611 -0.0051 -0.5682  0.5839
  103MOL0     C13788  11.729   6.443   6.536  0.4267 -0.3582  0.2234
  103MOL0     C13789  11.823   6.534   6.521 -0.3610  0.1697  0.4066
  103MOL0     C13790  11.810   6.667   6.447  0.2180 -0.4038 -0.3411
  103MOL0     C13791  11.706   6.667   6.331  1.0686  0.3820  0.0419
  103MOL0     C13792  11.663   6.815   6.285  0.6288  0.5894 -0.4446
  103MOL0     C13793  11.767   6.911   6.233  0.2129  1.0443  0.3728
  103MOL0     O13794  11.711   7.038   6.206 -0.2445  0.3115  0.0162
  103MOL0     C13795  11.794   7.140   6.214  0.2077 -0.6592  0.2014
  103MOL0     C13796  11.922   7.127   6.164  0.7636 -0.7255 -0.3336
  103MOL0     C13797  12.006   7.238   6.190  0.0529  0.3282  0.0420
  103MOL0     C13798  12.152   7.213   6.177 -0.0021  0.3789  0.0651
  103MOL0     C13799  11.958   7.361   6.252  0.0017 -0.7511 -1.3037
  103MOL0     C13800  12.038   7.478   6.262  0.0016  0.3065 -0.7398
  103MOL0     O13801  12.008   7.573   6.360 -0.5623 -0.4015  1.2249
  103MOL0     C13802  12.113   7.654   6.399  0.3409  0.2206  0.3888
  103MOL0     C13803  12.076   7.774   6.460  0.3791  0.3837  0.4075
  103MOL0     C13804  12.172   7.865   6.519 -0.0784 -0.0686  0.7759
  103MOL0     C13805  12.308   7.834   6.506 -0.7644 -0.2173  0.4106
  103MOL0     O13806  12.409   7.916   6.547 -0.4012 -0.9155 -0.0638
  103MOL0     C13807  12.381   7.975   6.675  0.7994 -0.1396 -0.5573
  103MOL0     C13808  12.512   8.041   6.716  0.2221 -0.1016  0.7245
  103MOL0     C13809  12.508   8.089   6.858 -0.2166  0.9254  0.5349
  103MOL0     C13810  12.462   8.235   6.867 -0.1316 -1.1695  0.2866
  103MOL0     C13811  12.551   8.350   6.826  0.2054 -0.2818  0.4458
  103MOL0     C13812  12.486   8.484   6.841  0.6598 -0.1448 -0.2225
  103MOL0     C13813  12.343   8.503   6.777  0.1397 -0.1790 -0.0046
  103MOL0     C13814  12.349   8.483   6.627 -0.5097 -0.5234  0.5602
  103MOL0    Cl13815  12.199   8.558   6.551  0.1708 -0.2568  0.2520
  103MOL0     C13816  12.344   7.724   6.432  0.5115  0.7243  0.4712
  103MOL0     C13817  12.251   7.628   6.388 -0.3639  0.0650  0.7390
  103MOL0     O13818  12.128   7.498   6.176  0.0864 -0.6641 -0.1792
  103MOL0     C13819  11.832   7.368   6.294  0.2631 -0.1064 -0.5477
  103MOL0     C13820  11.740   7.261   6.271 -1.0679  0.0109  0.6191
  103MOL0     N13821  11.942   6.481   6.569 -0.2024 -0.0901  0.2218
  103MOL0     N13822  11.918   6.370   6.627  0.3380  1.2126 -0.1455
  103MOL0     C13823  10.822   6.075   6.572  0.0941  0.0541 -0.9445
  103MOL0     C13824  10.688   6.035   6.589  0.3712  0.1951  1.2232
  103MOL0     C13825  10.268   5.908   6.543  0.1056  0.3149  0.4842
  103MOL0     C13826  10.241   5.878   6.410  0.1452 -0.2824 -0.3920
  103MOL0     C13827  10.134   5.794   6.376 -0.4733 -0.2100  0.0978
  103MOL0     C13828  10.048   5.751   6.476 -0.1445  0.2294  0.4191
  103MOL0     O13829   9.937   5.677   6.457 -0.3062 -0.3467  0.0730
  103MOL0     C13830   9.923   5.610   6.328  0.1572 -0.5012 -0.7048
  103MOL0     C13831   9.791   5.529   6.318  1.1197  0.5698 -0.6978
  103MOL0     C13832   9.760   5.447   6.446 -0.4344  0.3177  0.1431
  103MOL0     C13833   9.628   5.366   6.454  0.3620  0.3993  0.2687
  103MOL0     C13834   9.520   5.461   6.465  0.2691  0.3734 -0.2721
  103MOL0     C13835   9.428   5.543   6.474  0.0663 -0.4624  0.3264
  103MOL0     C13836  10.069   5.779   6.605 -0.4329  0.4794  0.8518
  103MOL0     C13837  10.184   5.861   6.644  0.9405  0.2861  0.5401
  103MOL0     H13838  10.576   6.187   6.305 -1.7278 -0.3447  1.0075
  103MOL0     H13839  10.791   6.284   6.304  1.1094  2.1771  2.4944
  103MOL0     H13840  11.169   6.270   6.508  1.1449 -1.3502 -0.5371
  103MOL0     H13841  11.061   6.228   6.642  2.3919 -1.3081  0.6132
  103MOL0     H13842  11.082   5.981   6.541 -1.1555  0.4735 -2.6274
  103MOL0     H13843  11.218   6.048   6.456  1.5688  0.5643  1.4182
  103MOL0     H13844  11.193   6.019   6.762  1.4772  0.5142  0.8858
  103MOL0     H13845  11.300   5.937   6.661  0.4396 -0.5681  2.8748
  103MOL0     H13846  11.412   6.176   6.617  0.3645  1.2825 -0.4685
  103MOL0     H13847  11.301   6.229   6.745 -2.4569 -0.1729 -3.4418
  103MOL0     H13848  11.419   6.036   6.886  2.4934 -0.1988  1.5190
  103MOL0     H13849  11.528   6.030   6.758 -0.8693  1.5497 -1.3266
  103MOL0     H13850  11.488   6.261   6.951 -0.1153 -0.3468 -0.2108
  103MOL0     H13851  11.618   6.152   6.944 -0.4403 -1.5162 -0.2232
  103MOL0     H13852  11.531   6.375   6.755 -0.7783  1.1218  3.1718
  103MOL0     H13853  11.674   6.372   6.850  0.1474 -0.2021  0.2878
  103MOL0     H13854  11.621   6.211   6.607 -0.7125 -0.1140 -0.3837
  103MOL0     H13855  11.752   6.175   6.733 -0.0430 -1.3619 -2.1260
  103MOL0     H13856  11.625   6.451   6.505  0.7825  1.7781 -0.5878
  103MOL0     H13857  11.790   6.748   6.518  0.7554 -2.6453  2.5717
  103MOL0     H13858  11.902   6.690   6.392 -0.0720  0.8838 -0.3266
  103MOL0     H13859  11.618   6.610   6.364  0.6942  0.9423  0.0208
  103MOL0     H13860  11.746   6.624   6.239  0.2780 -2.7046  1.0208
  103MOL0     H13861  11.607   6.870   6.362  1.3763 -0.3499  0.8187
  103MOL0     H13862  11.596   6.802   6.200  0.2484  0.1924 -0.0938
  103MOL0     H13863  11.805   6.855   6.148 -0.8008 -0.3622  0.8056
  103MOL0     H13864  11.852   6.910   6.303 -0.0390 -0.6773  0.6889
  103MOL0     H13865  11.955   7.031   6.127 -1.0912 -1.0473 -1.2677
  103MOL0     H13866  12.177   7.110   6.204 -0.3377 -1.5668 -5.6727
  103MOL0     H13867  12.182   7.223   6.073  2.0305  1.7027  0.7210
  103MOL0     H13868  12.206   7.284   6.240 -1.8753  0.4503  1.6925
  103MOL0     H13869  11.969   7.793   6.468 -0.5747 -4.0279  0.9410
  103MOL0     H13870  12.139   7.958   6.564 -3.7223 -0.0647 -1.4860
  103MOL0     H13871  12.297   8.045   6.678  1.3560  0.5254  0.0284
  103MOL0     H13872  12.362   7.901   6.753  0.6586  1.5033  1.0492
  103MOL0     H13873  12.585   7.959   6.721 -1.6151 -1.8507 -0.0304
  103MOL0     H13874  12.547   8.122   6.650  1.4850 -1.0433  0.1819
  103MOL0     H13875  12.605   8.085   6.910 -0.7124  1.7193  1.5470
  103MOL0     H13876  12.437   8.023   6.908  1.6304 -2.7737 -1.2827
  103MOL0     H13877  12.367   8.238   6.812 -0.5182  1.3869  0.9737
  103MOL0     H13878  12.438   8.249   6.973 -1.3455 -2.3804  0.2096
  103MOL0     H13879  12.581   8.350   6.721 -0.0996  2.6795  0.2784
  103MOL0     H13880  12.643   8.351   6.884 -0.8678  3.4168  2.3864
  103MOL0     H13881  12.465   8.498   6.947 -1.1733  0.0296 -0.5753
  103MOL0     H13882  12.541   8.571   6.804  0.2580  1.2942  2.2931
  103MOL0     H13883  12.289   8.595   6.800 -0.8441 -0.3315 -1.5675
  103MOL0     H13884  12.275   8.421   6.800  0.9055 -1.7371 -2.8513
  103MOL0     H13885  12.353   8.377   6.601 -0.3316 -0.5039  0.5088
  103MOL0     H13886  12.438   8.532   6.588 -0.5476 -0.4509  0.5631
  103MOL0     H13887  12.449   7.716   6.407  0.7916 -0.5753  1.8693
  103MOL0     H13888  12.290   7.536   6.346  0.7857  0.2567  1.3528
  103MOL0     H13889  11.802   7.455   6.351  0.8146 -0.4009  0.2009
  103MOL0     H13890  11.633   7.259   6.292 -1.2689 -1.6057 -0.3665
  103MOL0     H13891  10.897   6.044   6.644  0.3781  2.3112 -0.1937
  103MOL0     H13892  10.662   5.969   6.671 -2.1014 -0.7240 -0.1738
  103MOL0     H13893  10.302   5.925   6.334 -0.7187  1.1597 -0.2347
  103MOL0     H13894  10.121   5.773   6.270 -1.7555 -2.0153  0.5549
  103MOL0     H13895   9.930   5.670   6.237  1.5227  0.5564  0.0719
  103MOL0     H13896   9.999   5.532   6.330 -1.6401 -2.3459  0.8016
  103MOL0     H13897   9.805   5.453   6.240 -0.3080 -0.4334 -0.0109
  103MOL0     H13898   9.698   5.578   6.288 -1.0021 -1.0698  2.6689
  103MOL0     H13899   9.752   5.513   6.533  1.5768 -0.3920  0.9207
  103MOL0     H13900   9.846   5.381   6.455 -0.7729 -0.6729 -2.8188
  103MOL0     H13901   9.613   5.291   6.531 -1.5847 -1.0634 -1.4311
  103MOL0     H13902   9.608   5.314   6.360  0.4420  2.8641 -1.2032
  103MOL0     H13903   9.353   5.618   6.482  0.8271  0.3244  0.3042
  103MOL0     H13904  10.016   5.735   6.689  0.6449 -1.3705  0.5970
  103MOL0     H13905  10.191   5.902   6.745 -1.6886  0.7834  0.5951
  104MOL0     O13906   3.218   1.929   9.324  0.3532 -0.6552 -1.1358
  104MOL0     C13907   3.245   2.045   9.287 -0.5972  0.5549 -0.1785
  104MOL0     O13908   3.152   2.143   9.254 -0.2227 -0.5142  0.1853
  104MOL0     C13909   3.014   2.120   9.263 -0.6947 -0.0302  0.8302
  104MOL0     C13910   2.960   1.992   9.221 -0.2145 -0.2679 -1.0759
  104MOL0     C13911   2.827   1.977   9.222 -1.1050  0.1040  0.6897
  104MOL0     C13912   2.736   2.077   9.268 -0.5449  0.1142  0.3127
  104MOL0     O13913   2.597   2.063   9.288 -0.3402  0.4656 -1.0931
  104MOL0     C13914   2.539   1.939   9.255 -0.5484  0.5569 -0.6708
  104MOL0     C13915   2.401   1.919   9.301 -0.1687 -0.3977  0.0563
  104MOL0     C13916   2.318   2.042   9.291  0.0255 -0.3743  0.2570
  104MOL0     C13917   2.173   2.010   9.286  0.0062  0.1509 -0.2892
  104MOL0     C13918   2.117   1.972   9.150 -0.0889 -0.5760  0.6878
  104MOL0     C13919   1.964   1.945   9.158  0.1700 -0.7832 -0.5520
  104MOL0     C13920   1.924   1.830   9.247  1.7772 -0.7987  0.2295
  104MOL0     C13921   1.818   1.738   9.171  0.0128  0.9071  0.1144
  104MOL0     N13922   1.688   1.794   9.133  0.1256  0.4535 -0.2540
  104MOL0     C13923   1.646   1.830   9.004  0.3445  0.5534 -0.3116
  104MOL0     C13924   1.512   1.844   9.015 -0.7572 -0.2702 -0.3149
  104MOL0     C13925   1.429   1.882   8.892 -0.2412 -0.0051 -0.0800
  104MOL0     C13926   1.289   1.818   8.897  0.4094  0.2205  0.5077
  104MOL0     C13927   1.293   1.662   8.887 -0.7022 -0.0316 -0.3574
  104MOL0     C13928   1.163   1.589   8.876  0.7237  0.3527  0.3125
  104MOL0     O13929   1.082   1.632   8.765 -0.4733 -0.1471  0.3414
  104MOL0     C13930   0.970   1.557   8.753 -0.0353 -0.2577  0.5986
  104MOL0     C13931   0.845   1.617   8.748 -0.1998 -0.1553 -0.3075
  104MOL0     C13932   0.724   1.550   8.733  0.3638 -0.5045  0.8297
  104MOL0     C13933   0.586   1.622   8.724  0.4010 -0.9940 -0.0329
  104MOL0     C13934   0.738   1.407   8.718  0.6681 -0.3161  0.1932
  104MOL0     C13935   0.614   1.328   8.693 -0.1486  0.5070  0.5040
  104MOL0     O13936   0.597   1.214   8.770  0.1462  0.1151  0.7618
  104MOL0     C13937   0.468   1.155   8.786 -0.5644 -0.3871 -0.4985
  104MOL0     C13938   0.449   1.013   8.797 -0.1349 -0.0210  0.5962
  104MOL0     C13939   0.324   0.970   8.835  0.5351 -0.8012 -0.8917
  104MOL0     C13940   0.218   1.063   8.854 -0.2321  0.1726 -0.4141
  104MOL0     O13941   0.094   1.010   8.889 -0.1716  0.1477  0.0632
  104MOL0     C13942   0.000   1.077   8.966  0.6606  0.3688 -0.2032
  104MOL0     C13943  -0.120   0.977   8.993  0.7108 -0.5038  0.3384
  104MOL0     C13944  -0.248   1.065   9.020  0.9030 -0.0849  0.1563
  104MOL0     C13945  -0.363   0.975   9.070  0.2453 -0.7787 -0.2384
  104MOL0     C13946  -0.470   1.062   9.133  1.0062 -0.2072 -0.2752
  104MOL0     C13947  -0.582   0.969   9.201  0.5004  0.1544 -0.2270
  104MOL0     C13948  -0.705   1.052   9.244 -0.1333 -0.4768 -0.3742
  104MOL0     C13949  -0.813   0.962   9.302  0.3785  0.0943 -0.3726
  104MOL0    Cl13950  -0.779   0.909   9.470 -0.4674  0.1150 -0.4208
  104MOL0     C13951   0.236   1.198   8.829 -0.2241 -0.2067 -0.6489
  104MOL0     C13952   0.359   1.246   8.788 -0.6676 -0.5989 -0.2623
  104MOL0     O13953   0.536   1.364   8.599 -0.7413 -0.1064 -0.4654
  104MOL0     C13954   0.861   1.340   8.731  0.9627  0.1519  0.6124
  104MOL0     C13955   0.979   1.417   8.745 -0.3546 -0.3799  0.6168
  104MOL0     N13956   1.478   1.825   9.152  0.6701  0.2964 -0.3042
  104MOL0     N13957   1.574   1.787   9.223 -0.8368 -0.0745  0.3386
  104MOL0     C13958   2.785   2.195   9.297  0.2230 -0.3720 -0.4132
  104MOL0     C13959   2.921   2.222   9.290 -0.0232 -0.1797 -0.0604
  104MOL0     C13960   3.393   2.086   9.299  0.3973 -0.1993 -1.0417
  104MOL0     C13961   3.424   2.225   9.313 -0.1774  0.7557  0.2390
  104MOL0     C13962   3.554   2.268   9.312  0.1468 -0.2383 -0.1492
  104MOL0     C13963   3.659   2.179   9.289 -0.8963 -0.0579 -0.5614
  104MOL0     O13964   3.794   2.234   9.294  1.2013 -0.1583 -0.4818
  104MOL0     C13965   3.904   2.154   9.348 -0.2016 -0.3708  0.9244
  104MOL0     C13966   4.031   2.230   9.365  0.6001 -0.5188  0.5044
  104MOL0     C13967   4.070   2.332   9.250 -0.0770  0.1038 -0.2673
  104MOL0     C13968   4.222   2.343   9.256 -0.1466  0.1664  0.4992
  104MOL0     C13969   4.261   2.430   9.362  0.9131  0.0858  0.3466
  104MOL0     C13970   4.297   2.498   9.455  0.2138 -0.2438 -0.3643
  104MOL0     C13971   3.631   2.043   9.274 -0.4926  0.4566 -0.7341
  104MOL0     C13972   3.500   1.994   9.281  0.6412 -0.6129 -1.0237
  104MOL0     H13973   3.028   1.917   9.181  1.8944 -0.0029  1.6806
  104MOL0     H13974   2.787   1.885   9.182 -0.7973 -1.3080  3.4138
  104MOL0     H13975   2.540   1.931   9.146 -0.2208 -1.6316 -0.5690
  104MOL0     H13976   2.594   1.855   9.299 -2.1084 -0.6629 -0.9600
  104MOL0     H13977   2.360   1.839   9.238 -1.0142  0.9044 -1.0848
  104MOL0     H13978   2.407   1.892   9.407  0.5314 -2.8462 -0.5327
  104MOL0     H13979   2.333   2.113   9.373  1.3508  2.1926 -2.0247
  104MOL0     H13980   2.350   2.088   9.197 -0.6345  1.4786  0.8850
  104MOL0     H13981   2.157   1.923   9.349 -0.2577  0.1183 -0.3995
  104MOL0     H13982   2.125   2.103   9.320 -0.0446 -0.2962  0.9064
  104MOL0     H13983   2.130   2.042   9.067 -3.3607 -1.5034 -0.7744
  104MOL0     H13984   2.163   1.876   9.125  0.7527 -0.3512  1.3457
  104MOL0     H13985   1.912   2.036   9.188 -0.9584 -2.1800  2.1492
  104MOL0     H13986   1.932   1.911   9.059 -1.6779 -0.2615 -0.1726
  104MOL0     H13987   2.012   1.774   9.281  2.6611  1.7646  2.5357
  104MOL0     H13988   1.863   1.868   9.329 -0.8574 -2.2421 -0.9331
  104MOL0     H13989   1.791   1.649   9.228  1.6209  1.2218  1.4332
  104MOL0     H13990   1.864   1.687   9.086 -0.5034  2.1998 -0.9786
  104MOL0     H13991   1.698   1.821   8.909 -0.2563 -2.3497 -0.4540
  104MOL0     H13992   1.415   1.990   8.887  0.4312  0.2147  1.9696
  104MOL0     H13993   1.485   1.857   8.801  0.4898  0.2899  0.2794
  104MOL0     H13994   1.230   1.862   8.816 -0.2348  0.2494  0.9840
  104MOL0     H13995   1.242   1.841   8.993  0.3964 -0.0583  0.5701
  104MOL0     H13996   1.343   1.622   8.976  1.8896 -1.2877 -2.2389
  104MOL0     H13997   1.365   1.639   8.809  0.5029 -0.6412  0.8854
  104MOL0     H13998   1.106   1.611   8.966 -0.3743  0.5801 -0.4200
  104MOL0     H13999   1.176   1.480   8.875  1.9379  0.4808  0.0173
  104MOL0     H14000   0.851   1.725   8.749  2.1135 -0.2243 -0.8303
  104MOL0     H14001   0.540   1.621   8.625  0.1597 -1.7513  0.0825
  104MOL0     H14002   0.520   1.577   8.799  2.7049 -0.5147  2.4399
  104MOL0     H14003   0.600   1.727   8.752  1.2559 -1.2122  0.3946
  104MOL0     H14004   0.542   0.958   8.801  0.4750  0.8369 -0.8503
  104MOL0     H14005   0.304   0.864   8.851  0.7214 -0.3850  3.0649
  104MOL0     H14006   0.036   1.107   9.065 -0.2121  0.4839  0.0911
  104MOL0     H14007  -0.048   1.155   8.906 -2.6630 -2.7622 -1.9596
  104MOL0     H14008  -0.143   0.896   8.923  0.0568 -0.4149  0.4413
  104MOL0     H14009  -0.103   0.922   9.086  1.8223  0.8855  0.9822
  104MOL0     H14010  -0.290   1.113   8.931 -1.6703 -1.9232  0.2712
  104MOL0     H14011  -0.223   1.145   9.090 -0.8192  0.2553  0.4125
  104MOL0     H14012  -0.419   0.923   8.991 -1.5691 -0.5659  0.8522
  104MOL0     H14013  -0.326   0.911   9.150  1.9689 -0.4358 -0.7166
  104MOL0     H14014  -0.529   1.120   9.061  0.8446 -1.8505 -1.5324
  104MOL0     H14015  -0.426   1.135   9.201  0.4815 -0.6405  0.5387
  104MOL0     H14016  -0.608   0.911   9.112  0.2651  2.0154 -1.4494
  104MOL0     H14017  -0.557   0.915   9.292  2.7136  0.1655 -0.7764
  104MOL0     H14018  -0.734   1.115   9.159  1.6043  0.8742 -0.0254
  104MOL0     H14019  -0.675   1.127   9.317 -0.1302  1.5255 -2.3257
  104MOL0     H14020  -0.822   0.878   9.232  2.7179  0.4802 -1.2231
  104MOL0     H14021  -0.911   1.010   9.289  1.4197  2.3288 -0.4021
  104MOL0     H14022   0.161   1.273   8.847  1.3592  1.0430  1.0643
  104MOL0     H14023   0.371   1.353   8.775  2.7974 -0.7141  0.9893
  104MOL0     H14024   0.870   1.233   8.715 -3.6421 -0.2339 -0.8735
  104MOL0     H14025   1.079   1.378   8.725 -0.5134  0.4757 -2.2601
  104MOL0     H14026   2.712   2.271   9.324  0.7271 -0.5203  1.5086
  104MOL0     H14027   2.947   2.328   9.295 -0.2338 -0.1122 -0.3453
  104MOL0     H14028   3.340   2.292   9.305  0.2458  1.0472 -3.1720
  104MOL0     H14029   3.573   2.375   9.312  0.9025 -0.3371 -2.1861
  104MOL0     H14030   3.886   2.089   9.433 -4.7597  0.4941  0.8537
  104MOL0     H14031   3.930   2.086   9.266  1.8299  2.1246 -0.7056
  104MOL0     H14032   4.110   2.155   9.368 -0.5780 -2.0407 -2.4347
  104MOL0     H14033   4.018   2.280   9.462  0.8120 -0.8156  0.6875
  104MOL0     H14034   4.023   2.428   9.273  1.7666  0.8064  0.8262
  104MOL0     H14035   4.041   2.296   9.151 -0.3189 -0.9055  0.1616
  104MOL0     H14036   4.259   2.378   9.159  0.7757 -1.4470  0.2360
  104MOL0     H14037   4.274   2.249   9.278 -0.5526  0.0277  0.8622
  104MOL0     H14038   4.332   2.542   9.546  2.9898 -2.4082 -0.2431
  104MOL0     H14039   3.714   1.974   9.272 -0.6781  0.2558 -2.3751
  104MOL0     H14040   3.475   1.889   9.279  0.7955 -0.7566  1.5983
  105MOL0     O14041   5.710   2.283  10.324  0.3001  0.5245  1.0492
  105MOL0     C14042   5.794   2.217  10.400  0.3544 -0.2153 -0.3078
  105MOL0     O14043   5.767   2.113  10.482  0.4999  0.4898 -0.1895
  105MOL0     C14044   5.637   2.058  10.467 -0.2079  0.2416 -0.1813
  105MOL0     C14045   5.616   1.974  10.355  0.1684 -0.3859  1.0792
  105MOL0     C14046   5.496   1.898  10.350  0.2227 -0.0357  0.3175
  105MOL0     C14047   5.396   1.909  10.449 -0.1701 -0.2354 -0.5052
  105MOL0     O14048   5.281   1.831  10.441 -1.0021  0.6516  0.4033
  105MOL0     C14049   5.170   1.870  10.516  0.2114  0.4989  0.5815
  105MOL0     C14050   5.056   1.785  10.460  0.4238 -0.1718 -0.0053
  105MOL0     C14051   4.946   1.809  10.553  0.0501 -0.7611 -0.1230
  105MOL0     C14052   4.880   1.937  10.518  0.8320 -0.6700 -0.1173
  105MOL0     C14053   4.733   1.924  10.572  0.6071  0.6857  0.3374
  105MOL0     C14054   4.654   2.049  10.525 -0.7223 -0.0863 -0.3155
  105MOL0     C14055   4.519   2.013  10.478  0.3023  0.2696  0.3033
  105MOL0     C14056   4.436   2.138  10.448  0.6276 -0.8685  0.5522
  105MOL0     N14057   4.290   2.109  10.442  0.0680  0.0657 -0.1994
  105MOL0     C14058   4.225   2.032  10.346 -0.5625 -0.5718 -0.1455
  105MOL0     C14059   4.095   2.056  10.359 -0.2665  0.8567 -0.5171
  105MOL0     C14060   3.997   1.974  10.281  0.2219  0.1091 -0.3734
  105MOL0     C14061   3.941   1.847  10.361 -0.3665  0.3013  0.1676
  105MOL0     C14062   3.843   1.767  10.278  0.7048  0.7345  0.6740
  105MOL0     C14063   3.763   1.671  10.361 -0.2518  1.1232  0.4170
  105MOL0     O14064   3.693   1.579  10.283 -0.1170  0.3128  0.7339
  105MOL0     C14065   3.615   1.487  10.350  0.1638  0.0136 -0.7610
  105MOL0     C14066   3.532   1.403  10.270  0.1001 -0.5313 -0.7921
  105MOL0     C14067   3.434   1.316  10.324 -0.1703  0.3795 -0.0377
  105MOL0     C14068   3.367   1.239  10.224 -0.2181  0.3282 -0.4676
  105MOL0     C14069   3.425   1.308  10.467  0.4634 -0.0469 -1.1788
  105MOL0     C14070   3.348   1.207  10.544  0.4625 -0.0696  0.8885
  105MOL0     O14071   3.344   1.234  10.679 -0.0230 -0.5429  0.0147
  105MOL0     C14072   3.291   1.138  10.758  0.5373  0.2612  0.7779
  105MOL0     C14073   3.366   1.028  10.797 -0.1648  0.4500  0.2045
  105MOL0     C14074   3.314   0.925  10.876 -0.0840  0.1673  0.3108
  105MOL0     C14075   3.180   0.926  10.913 -0.2593  0.4215  0.1747
  105MOL0     O14076   3.130   0.823  10.980 -0.3115 -0.1795  0.2525
  105MOL0     C14077   2.989   0.813  11.010 -0.4267 -0.0796  0.2042
  105MOL0     C14078   2.955   0.681  11.066 -0.0853  0.2651 -0.5445
  105MOL0     C14079   2.811   0.664  11.101 -0.0193  0.4683 -0.2781
  105MOL0     C14080   2.778   0.514  11.131  0.2838 -0.3848 -0.4538
  105MOL0     C14081   2.749   0.433  11.002  0.0794  0.0073  0.2492
  105MOL0     C14082   2.698   0.293  11.031  0.0408  0.2441  0.7514
  105MOL0     C14083   2.808   0.193  11.037 -0.4293 -0.3184  0.5178
  105MOL0     C14084   2.866   0.157  10.901  1.2592 -0.0683  0.8113
  105MOL0    Cl14085   2.986   0.021  10.907  0.0794 -0.1006  0.4334
  105MOL0     C14086   3.109   1.040  10.884  0.7369 -0.9443 -0.3512
  105MOL0     C14087   3.166   1.147  10.818  1.0158  0.9410 -0.5780
  105MOL0     O14088   3.302   1.106  10.491  0.4776  0.2075  0.3708
  105MOL0     C14089   3.513   1.388  10.539  0.1760  0.3540  1.0586
  105MOL0     C14090   3.607   1.474  10.487 -0.0034 -0.5291 -1.1557
  105MOL0     N14091   4.082   2.134  10.471 -0.4077  0.3752 -0.6620
  105MOL0     N14092   4.195   2.177  10.520  0.3007  0.6322 -0.3699
  105MOL0     C14093   5.414   2.009  10.550 -0.9005  0.1318 -0.0550
  105MOL0     C14094   5.533   2.077  10.562 -0.4697 -0.7365  0.0886
  105MOL0     C14095   5.935   2.261  10.393  0.4154  0.2475  0.0933
  105MOL0     C14096   5.970   2.352  10.299 -0.2008  0.2377  0.2315
  105MOL0     C14097   6.101   2.393  10.279 -0.7140 -0.0259  0.3272
  105MOL0     C14098   6.205   2.345  10.363 -0.2818 -0.0029 -0.6845
  105MOL0     O14099   6.334   2.380  10.325 -0.3772  0.2001 -0.0824
  105MOL0     C14100   6.450   2.345  10.400 -1.2719 -0.4732 -0.8259
  105MOL0     C14101   6.503   2.475  10.472  0.1823 -0.0317  0.0729
  105MOL0     C14102   6.627   2.447  10.558  0.7121 -0.4078 -0.0390
  105MOL0     C14103   6.751   2.414  10.479  0.3852  0.5547  0.1443
  105MOL0     C14104   6.834   2.326  10.551 -1.2326 -0.0519 -0.6815
  105MOL0     C14105   6.917   2.264  10.627 -0.5248 -0.6163 -0.2045
  105MOL0     C14106   6.171   2.254  10.466 -0.4220  0.4875  0.4203
  105MOL0     C14107   6.036   2.216  10.482  0.6744 -0.3852 -0.4975
  105MOL0     H14108   5.702   1.974  10.288 -1.5050 -0.7343 -1.1692
  105MOL0     H14109   5.484   1.816  10.280  0.9414 -0.8998  1.1796
  105MOL0     H14110   5.189   1.851  10.622  1.5778  1.6947  0.5882
  105MOL0     H14111   5.151   1.977  10.501 -3.4788 -0.4231 -3.4481
  105MOL0     H14112   5.029   1.806  10.356  2.5359 -0.4605 -0.6549
  105MOL0     H14113   5.086   1.682  10.476  0.9582  0.2170  1.6277
  105MOL0     H14114   4.875   1.728  10.533 -0.5475 -1.0019  2.5673
  105MOL0     H14115   4.986   1.805  10.655  0.1065 -1.0452 -0.1571
  105MOL0     H14116   4.924   2.019  10.574  1.4608 -1.9603  1.3675
  105MOL0     H14117   4.884   1.969  10.413  0.4044  2.8296  0.8205
  105MOL0     H14118   4.682   1.836  10.533 -2.2932  1.1276  2.8055
  105MOL0     H14119   4.745   1.913  10.680  1.5355  1.8748  0.3723
  105MOL0     H14120   4.656   2.119  10.609  0.6545 -0.5415  0.0717
  105MOL0     H14121   4.704   2.093  10.438  1.5428  0.3956  1.1312
  105MOL0     H14122   4.517   1.943  10.394 -3.2962  2.9775 -2.1849
  105MOL0     H14123   4.469   1.953  10.555  2.3351 -1.0431  0.6910
  105MOL0     H14124   4.465   2.176  10.350  1.1527  2.4114  1.8500
  105MOL0     H14125   4.463   2.222  10.512 -0.8148  0.0666 -0.0210
  105MOL0     H14126   4.267   1.961  10.276  0.5862  0.3512 -0.4255
  105MOL0     H14127   3.909   2.035  10.259 -0.8610 -1.1506  0.3126
  105MOL0     H14128   4.038   1.939  10.186 -1.7687 -0.5095 -1.0472
  105MOL0     H14129   3.892   1.891  10.448 -2.9835  2.3070 -2.1196
  105MOL0     H14130   4.022   1.779  10.389 -0.9160 -1.0232 -1.2892
  105MOL0     H14131   3.891   1.708  10.200  0.7539  1.9946 -0.2827
  105MOL0     H14132   3.782   1.835  10.217 -0.1072 -0.3986  0.1918
  105MOL0     H14133   3.692   1.729  10.420 -0.5655  0.5085  0.6560
  105MOL0     H14134   3.830   1.618  10.429 -0.8751  1.0314  0.9654
  105MOL0     H14135   3.536   1.409  10.162 -1.0457  0.7613 -0.7979
  105MOL0     H14136   3.355   1.290  10.128 -1.7169  3.5040  1.2544
  105MOL0     H14137   3.412   1.139  10.223  0.1523  0.3649  2.7009
  105MOL0     H14138   3.267   1.223  10.265 -0.4356  1.4950 -0.5050
  105MOL0     H14139   3.468   1.004  10.771  0.3005  1.6474  0.8376
  105MOL0     H14140   3.367   0.834  10.903 -1.6616 -1.4066 -1.5764
  105MOL0     H14141   2.955   0.889  11.081 -2.4828 -0.0780 -0.6876
  105MOL0     H14142   2.928   0.819  10.919  0.5086 -1.1441 -0.5202
  105MOL0     H14143   2.982   0.605  10.991  0.4259  0.4110 -0.5124
  105MOL0     H14144   3.018   0.670  11.155  1.0421  0.7301 -1.2576
  105MOL0     H14145   2.745   0.703  11.022 -1.1844 -1.1300 -0.1413
  105MOL0     H14146   2.774   0.726  11.183  1.5242  1.0684  0.0036
  105MOL0     H14147   2.853   0.470  11.197  0.3893  0.6008  0.1065
  105MOL0     H14148   2.693   0.514  11.200  0.8843 -1.0654  0.2976
  105MOL0     H14149   2.833   0.434  10.932 -0.6242 -1.8830 -0.7051
  105MOL0     H14150   2.666   0.482  10.950  0.0831 -0.6489 -0.3939
  105MOL0     H14151   2.660   0.294  11.133  0.3612 -2.3663  0.9644
  105MOL0     H14152   2.628   0.257  10.955  1.7578 -1.5168 -0.1204
  105MOL0     H14153   2.784   0.104  11.097 -4.9606  1.1169  1.1429
  105MOL0     H14154   2.888   0.240  11.094  0.5703 -2.3151  0.8614
  105MOL0     H14155   2.909   0.251  10.867 -0.2159 -0.0866 -1.3381
  105MOL0     H14156   2.795   0.136  10.820  2.2684  2.2563 -0.7844
  105MOL0     H14157   3.009   1.063  10.918  0.8915  0.5076 -0.7880
  105MOL0     H14158   3.096   1.228  10.802 -2.9406 -1.7228  1.4833
  105MOL0     H14159   3.526   1.382  10.647 -0.2420  0.8316  1.1378
  105MOL0     H14160   3.671   1.533  10.552  0.7029 -0.9989 -1.4147
  105MOL0     H14161   5.340   2.027  10.628 -4.3377  0.8816 -3.2071
  105MOL0     H14162   5.563   2.148  10.638 -0.2622  2.4302 -2.7000
  105MOL0     H14163   5.893   2.396  10.235  0.1006 -0.3557 -0.5550
  105MOL0     H14164   6.127   2.464  10.201 -0.2368  1.6711  1.9463
  105MOL0     H14165   6.445   2.266  10.476  2.5732  0.4942  0.6705
  105MOL0     H14166   6.532   2.308  10.337  1.0937  1.8133  0.6796
  105MOL0     H14167   6.423   2.521  10.531  0.5417  1.4316 -0.5445
  105MOL0     H14168   6.523   2.545  10.390 -2.4707  1.6354  0.7255
  105MOL0     H14169   6.595   2.364  10.622 -1.4319  1.4317  1.4117
  105MOL0     H14170   6.650   2.536  10.616  2.6635  0.3913 -1.8980
  105MOL0     H14171   6.806   2.504  10.452  1.3142 -0.6494 -2.2171
  105MOL0     H14172   6.734   2.355  10.389  0.9034  0.5173  0.0724
  105MOL0     H14173   6.984   2.216  10.696 -1.4138  1.0073  1.8810
  105MOL0     H14174   6.248   2.206  10.525  1.5155  0.3528 -2.0561
  105MOL0     H14175   6.007   2.131  10.543  0.1781 -1.1114 -1.7208
  106MOL0     O14176   1.951   9.579  11.230  0.5728 -0.2604 -0.4492
  106MOL0     C14177   2.009   9.595  11.341  0.4805 -0.2654  1.0070
  106MOL0     O14178   1.957   9.655  11.455  0.0557 -0.0418 -0.6912
  106MOL0     C14179   1.821   9.689  11.461  0.1904 -0.6207  0.1907
  106MOL0     C14180   1.760   9.703  11.585 -0.2009  0.1719  0.1651
  106MOL0     C14181   1.629   9.737  11.609  0.1366 -0.3768 -0.1476
  106MOL0     C14182   1.543   9.760  11.503 -0.6928  0.1435  0.4903
  106MOL0     O14183   1.411   9.806  11.509 -0.3850 -0.2262  0.4019
  106MOL0     C14184   1.372   9.862  11.636 -0.0059 -0.4428 -0.9688
  106MOL0     C14185   1.224   9.897  11.635  0.9511 -0.4992  0.6944
  106MOL0     C14186   1.212  10.017  11.527 -0.0665  1.0151  0.0798
  106MOL0     C14187   1.065  10.058  11.523  0.4531  0.0059  0.4813
  106MOL0     C14188   1.051  10.189  11.441  0.6912 -0.4056 -0.6477
  106MOL0     C14189   1.112  10.309  11.521 -0.3535  0.0414 -0.3904
  106MOL0     C14190   1.120  10.429  11.426  1.3361 -0.6490  0.7828
  106MOL0     C14191   1.166  10.558  11.494 -0.3324  0.7975  0.3922
  106MOL0     N14192   1.162  10.670  11.399  0.1320 -0.9151  0.2019
  106MOL0     C14193   1.244  10.676  11.290 -0.4692  0.0004 -0.4805
  106MOL0     C14194   1.219  10.795  11.231  0.1897  0.4762  0.0643
  106MOL0     C14195   1.279  10.867  11.111  0.1349 -0.5151 -0.9483
  106MOL0     C14196   1.266  11.022  11.114  0.1183  0.8444  0.5710
  106MOL0     C14197   1.159  11.066  11.006 -0.7955 -0.6174  0.1290
  106MOL0     C14198   1.021  11.038  11.047 -0.3189 -0.3422 -0.4731
  106MOL0     O14199   0.918  11.091  10.963  0.1207 -0.1106 -0.0395
  106MOL0     C14200   0.783  11.082  11.001  1.0638 -0.2167 -0.4438
  106MOL0     C14201   0.688  11.115  10.908  1.2418 -0.1880 -0.3205
  106MOL0     C14202   0.549  11.126  10.930 -0.4418  0.2364  0.6385
  106MOL0     C14203   0.466  11.182  10.812  0.5775  0.2404 -0.0811
  106MOL0     C14204   0.503  11.077  11.048  0.9139  0.7118 -0.4536
  106MOL0     C14205   0.358  11.067  11.083  0.1150 -0.0795  0.7545
  106MOL0     O14206   0.319  11.131  11.192  0.3244  0.1004  0.6856
  106MOL0     C14207   0.186  11.129  11.237  0.3852  0.4522 -0.6439
  106MOL0     C14208   0.143  11.036  11.344 -0.7608 -0.1698 -0.2679
  106MOL0     C14209   0.003  11.035  11.377  0.0539 -0.4612 -0.5672
  106MOL0     C14210  -0.087  11.113  11.310  0.4738  0.0207  0.3093
  106MOL0     O14211  -0.218  11.117  11.350  0.0689  0.2020  0.7989
  106MOL0     C14212  -0.298  11.017  11.284 -0.3004 -0.3277 -0.6040
  106MOL0     C14213  -0.436  11.059  11.271  0.3856 -0.2967  0.4124
  106MOL0     C14214  -0.497  11.085  11.407  0.4241  0.2535  0.0655
  106MOL0     C14215  -0.574  11.215  11.402  0.2488 -0.0150 -0.3498
  106MOL0     C14216  -0.660  11.234  11.537  0.9446  0.4439  0.1096
  106MOL0     C14217  -0.727  11.381  11.532 -0.2101  0.1948  0.3762
  106MOL0     C14218  -0.771  11.430  11.679 -0.6087 -0.6087  0.3475
  106MOL0     C14219  -0.649  11.448  11.769  1.0659  0.2629 -0.1206
  106MOL0    Cl14220  -0.709  11.497  11.929  0.4137  0.0666  0.3896
  106MOL0     C14221  -0.042  11.195  11.211  0.1405  0.8402 -0.2757
  106MOL0     C14222   0.085  11.202  11.174 -0.2148  0.2484  0.1154
  106MOL0     O14223   0.289  10.999  11.008  0.2292  0.3534  0.0962
  106MOL0     C14224   0.601  11.048  11.150 -0.1924  0.0590 -0.4237
  106MOL0     C14225   0.741  11.064  11.132  0.6273 -0.0080  0.7773
  106MOL0     N14226   1.121  10.858  11.312 -0.0215  0.4940 -0.4770
  106MOL0     N14227   1.078  10.779  11.408 -0.1902 -0.0656  1.2383
  106MOL0     C14228   1.597   9.746  11.373  0.2607 -0.0399 -0.2185
  106MOL0     C14229   1.734   9.721  11.351 -0.5514 -0.1749  0.2036
  106MOL0     C14230   2.156   9.590  11.333  0.2800  0.8434 -0.7066
  106MOL0     C14231   2.214   9.518  11.229  0.0647 -0.2209  0.2263
  106MOL0     C14232   2.343   9.478  11.237  0.1693 -0.5071 -0.3037
  106MOL0     C14233   2.426   9.526  11.343 -0.1241 -0.0482  0.3767
  106MOL0     O14234   2.556   9.510  11.346 -0.6690  0.3112  0.5372
  106MOL0     C14235   2.646   9.599  11.260 -0.4063  0.3976 -1.0144
  106MOL0     C14236   2.683   9.525  11.131 -0.0299 -0.3881  0.1327
  106MOL0     C14237   2.810   9.580  11.058 -0.0581  0.7785  0.5362
  106MOL0     C14238   2.782   9.704  10.980  0.9582  0.3578  0.2293
  106MOL0     C14239   2.902   9.747  10.914  0.1826 -0.9195 -0.0881
  106MOL0     C14240   3.008   9.783  10.880 -0.0424  0.2181  0.7222
  106MOL0     C14241   2.369   9.591  11.451  0.0335  0.3552 -0.1515
  106MOL0     C14242   2.236   9.624  11.447 -0.3107  0.3793  0.3972
  106MOL0     H14243   1.830   9.691  11.667 -0.5157 -3.3599  0.0915
  106MOL0     H14244   1.602   9.740  11.715  1.1266 -3.3757  0.2873
  106MOL0     H14245   1.396   9.778  11.702  3.9220  1.2881  0.0500
  106MOL0     H14246   1.429   9.952  11.662  1.6218 -2.2130  2.1116
  106MOL0     H14247   1.166   9.806  11.616  0.0228 -0.0054  1.0662
  106MOL0     H14248   1.203   9.942  11.733  1.4251  1.7460 -0.1701
  106MOL0     H14249   1.277  10.100  11.555 -2.3332  3.3773 -1.1818
  106MOL0     H14250   1.241   9.984  11.427  1.5027  2.0859  0.1557
  106MOL0     H14251   1.007   9.975  11.481 -0.7275  1.2215 -0.3786
  106MOL0     H14252   1.031  10.074  11.626 -0.9080  0.0332  0.0472
  106MOL0     H14253   1.106  10.176  11.347 -1.6429  1.1998 -2.3674
  106MOL0     H14254   0.948  10.214  11.413 -0.2946 -1.3061  1.9220
  106MOL0     H14255   1.056  10.332  11.612  0.2137 -0.7359  0.1645
  106MOL0     H14256   1.217  10.297  11.549  0.1667  1.5038 -1.5593
  106MOL0     H14257   1.184  10.403  11.341 -0.2598 -1.1259 -0.3251
  106MOL0     H14258   1.022  10.454  11.383  1.9176 -0.0351 -0.2231
  106MOL0     H14259   1.266  10.558  11.538 -1.6671 -1.8552  3.9231
  106MOL0     H14260   1.104  10.577  11.581 -0.0079 -3.1180  1.6574
  106MOL0     H14261   1.306  10.592  11.262  0.9098  0.6494  0.5249
  106MOL0     H14262   1.387  10.848  11.108 -0.1825 -3.1361  0.6175
  106MOL0     H14263   1.232  10.818  11.025 -1.1613 -0.9827 -0.0104
  106MOL0     H14264   1.363  11.070  11.096 -0.2567  1.0216 -1.2303
  106MOL0     H14265   1.234  11.052  11.214  1.1683 -0.5615  1.3711
  106MOL0     H14266   1.183  11.009  10.916  0.5614 -2.8859  1.8303
  106MOL0     H14267   1.173  11.174  10.996  1.4088 -1.0801 -3.7065
  106MOL0     H14268   1.003  11.077  11.147 -1.8583  1.3150 -1.3368
  106MOL0     H14269   1.005  10.930  11.051 -3.2519  0.0156 -0.3419
  106MOL0     H14270   0.723  11.151  10.812  0.6256  0.3753 -0.3357
  106MOL0     H14271   0.360  11.154  10.821  0.5853 -0.8611 -2.6980
  106MOL0     H14272   0.492  11.288  10.800 -0.2717  0.1655 -3.6385
  106MOL0     H14273   0.503  11.130  10.723  2.1814  0.6798  0.2949
  106MOL0     H14274   0.210  10.972  11.401  0.3678  1.6426  0.5303
  106MOL0     H14275  -0.040  10.967  11.449 -4.3534  1.9585 -0.6013
  106MOL0     H14276  -0.269  10.986  11.184  0.1046 -1.4526 -0.1498
  106MOL0     H14277  -0.297  10.928  11.347 -1.3712  0.8428  1.1431
  106MOL0     H14278  -0.428  11.151  11.213 -0.6587  0.3666  1.2748
  106MOL0     H14279  -0.497  10.984  11.220 -0.9063  2.2305 -1.9734
  106MOL0     H14280  -0.414  11.085  11.478  1.0102  0.7525 -0.6035
  106MOL0     H14281  -0.574  11.014  11.437 -0.3336  1.2431  0.5165
  106MOL0     H14282  -0.503  11.298  11.401  0.2883 -0.0310 -2.0985
  106MOL0     H14283  -0.635  11.216  11.311  1.8972 -0.3419 -1.4996
  106MOL0     H14284  -0.597  11.219  11.624  0.1864  2.2316  1.0336
  106MOL0     H14285  -0.744  11.164  11.539  0.7026  0.6460 -1.3799
  106MOL0     H14286  -0.663  11.459  11.491  1.4983 -1.9627 -1.3125
  106MOL0     H14287  -0.813  11.374  11.465  1.6359 -0.4338 -2.0378
  106MOL0     H14288  -0.852  11.367  11.715 -0.8149 -0.9874 -0.7399
  106MOL0     H14289  -0.812  11.530  11.663  4.6127  1.7587 -0.4720
  106MOL0     H14290  -0.583  11.522  11.725  3.6112 -1.4549  0.5943
  106MOL0     H14291  -0.594  11.355  11.789  0.1551 -0.1840  0.4505
  106MOL0     H14292  -0.123  11.248  11.161 -1.3651 -0.0937  1.0816
  106MOL0     H14293   0.107  11.275  11.097  0.9148  0.3853  0.5512
  106MOL0     H14294   0.565  11.022  11.249 -1.1611 -0.6607 -0.9455
  106MOL0     H14295   0.807  11.062  11.218 -0.4749 -0.1551  1.6604
  106MOL0     H14296   1.532   9.757  11.287 -1.2568 -2.9947  0.4569
  106MOL0     H14297   1.765   9.713  11.247  0.7888 -1.0552  0.6467
  106MOL0     H14298   2.154   9.491  11.142 -0.9755  0.1328  0.8099
  106MOL0     H14299   2.394   9.433  11.152  2.2061 -0.1599  0.6780
  106MOL0     H14300   2.594   9.695  11.249 -0.8067  0.2564 -0.3978
  106MOL0     H14301   2.738   9.612  11.318 -0.3441  1.1805 -1.2710
  106MOL0     H14302   2.591   9.523  11.072 -0.2258 -1.5189  0.4586
  106MOL0     H14303   2.712   9.424  11.160 -0.7190 -0.5385  0.3038
  106MOL0     H14304   2.843   9.505  10.986  0.1767 -0.9407  2.3490
  106MOL0     H14305   2.886   9.598  11.135 -0.4195 -3.1350  2.0636
  106MOL0     H14306   2.739   9.775  11.051 -0.7687  0.6990 -1.0752
  106MOL0     H14307   2.703   9.675  10.911  2.3005 -1.1335 -0.7573
  106MOL0     H14308   3.104   9.815  10.845 -0.1994 -0.3296 -0.2485
  106MOL0     H14309   2.442   9.613  11.528 -1.2149  0.2665  1.0905
  106MOL0     H14310   2.200   9.664  11.541 -0.5486 -1.5744  1.1998
  107MOL0     O14311   1.370   9.052   7.345  0.0590 -0.4152  0.1211
  107MOL0     C14312   1.398   9.062   7.461 -0.4654 -0.0292 -0.1432
  107MOL0     O14313   1.315   9.106   7.555 -0.2953 -0.3454 -0.6781
  107MOL0     C14314   1.194   9.148   7.508  0.6104  0.4147 -0.3598
  107MOL0     C14315   1.108   9.055   7.448  0.1069  0.4290  0.3505
  107MOL0     C14316   0.980   9.093   7.407 -1.3085  0.3741  0.4718
  107MOL0     C14317   0.945   9.230   7.415  0.9873 -0.9671 -0.8701
  107MOL0     O14318   0.812   9.266   7.386  0.1425 -0.2051  0.9050
  107MOL0     C14319   0.802   9.274   7.238  0.1520 -0.2775  0.2683
  107MOL0     C14320   0.657   9.256   7.189 -0.7440  1.0513  0.5574
  107MOL0     C14321   0.625   9.106   7.220  0.2340  0.3699 -0.1875
  107MOL0     C14322   0.493   9.052   7.174 -0.3315 -0.3615  0.0002
  107MOL0     C14323   0.477   8.906   7.226  0.0461  0.3658 -0.1943
  107MOL0     C14324   0.356   8.840   7.162 -0.5006  0.3251 -0.0280
  107MOL0     C14325   0.224   8.908   7.192 -0.0582 -1.0329  0.2977
  107MOL0     C14326   0.120   8.788   7.173  0.2475  0.1079  1.0504
  107MOL0     N14327  -0.016   8.834   7.182 -0.4621  0.5972  0.4705
  107MOL0     C14328  -0.089   8.894   7.079 -0.4483  0.0281  0.1549
  107MOL0     C14329  -0.199   8.946   7.142  0.0334  0.4325 -0.0882
  107MOL0     C14330  -0.313   9.009   7.077 -0.2937 -0.0450  0.5629
  107MOL0     C14331  -0.393   8.885   7.025 -0.8888 -0.4138 -0.3574
  107MOL0     C14332  -0.537   8.922   7.011 -0.0404  0.0377 -0.3597
  107MOL0     C14333  -0.633   8.823   6.957 -0.1061 -0.7391 -0.0272
  107MOL0     O14334  -0.626   8.700   7.023 -0.3786  0.4441 -0.1520
  107MOL0     C14335  -0.697   8.587   6.987  0.1215  0.6015  0.2765
  107MOL0     C14336  -0.739   8.571   6.861  0.6426  0.0263 -0.1068
  107MOL0     C14337  -0.805   8.455   6.827  0.2968  0.5347  0.5937
  107MOL0     C14338  -0.849   8.440   6.675 -0.2347 -0.3328 -0.0580
  107MOL0     C14339  -0.824   8.350   6.925  1.3425  0.2110  0.7053
  107MOL0     C14340  -0.865   8.209   6.893 -0.3589 -0.1097  0.6835
  107MOL0     O14341  -0.866   8.124   6.995 -0.7864 -0.7915 -0.2838
  107MOL0     C14342  -0.938   8.013   6.967  0.3498  0.1834  0.3176
  107MOL0     C14343  -0.870   7.904   6.914  0.4850  0.1558 -0.0413
  107MOL0     C14344  -0.934   7.794   6.878 -0.3067  0.1566  0.3342
  107MOL0     C14345  -1.074   7.784   6.899  0.7156  0.9001  0.1644
  107MOL0     O14346  -1.148   7.678   6.851  0.0661 -0.1392 -0.5748
  107MOL0     C14347  -1.279   7.659   6.925 -0.1618 -0.0492  0.7711
  107MOL0     C14348  -1.318   7.509   6.909 -0.4873 -0.0806  0.7778
  107MOL0     C14349  -1.422   7.473   7.012  0.3356 -0.6179  0.1478
  107MOL0     C14350  -1.561   7.503   6.953 -0.5417  0.4270  0.3965
  107MOL0     C14351  -1.674   7.429   7.019  0.0223  0.6780 -0.2091
  107MOL0     C14352  -1.815   7.413   6.942 -0.6883  0.0156  0.1870
  107MOL0     C14353  -1.813   7.330   6.817  0.3824 -0.2773 -0.7971
  107MOL0     C14354  -1.848   7.399   6.680  0.2450  0.6068  0.2166
  107MOL0    Cl14355  -1.714   7.500   6.631  0.2946  0.0403  0.2048
  107MOL0     C14356  -1.140   7.899   6.936 -0.1152 -0.0812  0.7529
  107MOL0     C14357  -1.069   8.011   6.985  0.4952 -0.2529  0.0820
  107MOL0     O14358  -0.882   8.176   6.776 -0.4538  0.3513  0.0825
  107MOL0     C14359  -0.789   8.379   7.056  0.1634  0.5077 -0.5194
  107MOL0     C14360  -0.709   8.491   7.087  0.2116  0.3014 -0.0405
  107MOL0     N14361  -0.187   8.924   7.280  0.0657  0.3916 -0.2733
  107MOL0     N14362  -0.083   8.852   7.298  0.5842  0.2460  0.0987
  107MOL0     C14363   1.031   9.323   7.471 -0.3705  0.5222  0.0306
  107MOL0     C14364   1.152   9.279   7.526 -0.7653  0.5251 -0.6399
  107MOL0     C14365   1.536   9.036   7.491 -0.7750 -0.0116 -0.0933
  107MOL0     C14366   1.567   9.026   7.631  0.0608 -0.1686  0.9960
  107MOL0     C14367   1.693   8.984   7.672 -0.4870  0.3004 -0.0377
  107MOL0     C14368   1.787   8.959   7.577 -1.1121 -0.5737 -0.1683
  107MOL0     O14369   1.918   8.922   7.611  0.5848  0.0435 -0.1828
  107MOL0     C14370   1.959   8.920   7.747 -0.1189 -0.4559 -0.6370
  107MOL0     C14371   2.108   8.880   7.751 -0.7054 -0.8142  0.5747
  107MOL0     C14372   2.197   8.992   7.694  0.2388  0.6286  0.8238
  107MOL0     C14373   2.342   8.974   7.730 -0.1435 -0.5649 -0.8778
  107MOL0     C14374   2.426   9.065   7.646  0.4309  0.2062  0.1268
  107MOL0     C14375   2.475   9.144   7.576 -0.8438 -0.3757  0.0432
  107MOL0     C14376   1.762   8.982   7.446  0.2835  0.3335  0.6106
  107MOL0     C14377   1.633   9.014   7.397 -0.3581  0.1478 -0.6124
  107MOL0     H14378   1.139   8.951   7.445 -0.7957  0.1645 -2.2158
  107MOL0     H14379   0.911   9.019   7.368 -0.6600 -0.9960  1.8592
  107MOL0     H14380   0.835   9.370   7.197 -0.1224 -1.3944 -2.8719
  107MOL0     H14381   0.870   9.199   7.195 -0.7277 -1.0416  0.1644
  107MOL0     H14382   0.590   9.332   7.228 -1.3870  0.1254  1.3178
  107MOL0     H14383   0.631   9.263   7.083 -0.1654 -0.6692  0.2564
  107MOL0     H14384   0.703   9.059   7.159  0.5415  1.2573 -0.5032
  107MOL0     H14385   0.632   9.083   7.327 -3.0858 -0.7305 -0.1078
  107MOL0     H14386   0.418   9.122   7.212 -0.7821  0.1511 -1.7311
  107MOL0     H14387   0.496   9.064   7.065 -0.4780 -0.6744 -0.0378
  107MOL0     H14388   0.569   8.856   7.194 -0.5822 -0.9572  0.0264
  107MOL0     H14389   0.467   8.910   7.335  2.6472 -0.7026  0.1484
  107MOL0     H14390   0.382   8.842   7.056  1.4777 -0.2579  0.3950
  107MOL0     H14391   0.359   8.737   7.199 -0.4523  1.8189  4.9083
  107MOL0     H14392   0.207   8.954   7.290 -1.7996 -1.0971  0.0560
  107MOL0     H14393   0.210   8.984   7.114  1.9416  1.0045  1.7870
  107MOL0     H14394   0.145   8.711   7.246  1.2093 -1.0265 -0.4139
  107MOL0     H14395   0.132   8.749   7.072  1.5481  3.1601 -0.1220
  107MOL0     H14396  -0.067   8.886   6.973 -2.0775 -0.1401 -0.2081
  107MOL0     H14397  -0.370   9.061   7.154  1.5587  1.0153  1.2706
  107MOL0     H14398  -0.282   9.073   6.995  0.6938 -2.4032 -1.0122
  107MOL0     H14399  -0.380   8.804   7.096 -0.9552  0.9651  1.2925
  107MOL0     H14400  -0.349   8.857   6.929 -0.0918 -0.1743 -0.0649
  107MOL0     H14401  -0.536   9.013   6.949 -0.9893  0.3011 -0.0095
  107MOL0     H14402  -0.574   8.954   7.109 -0.8417  0.3556 -0.7575
  107MOL0     H14403  -0.610   8.817   6.850  3.1885  1.4113  0.3959
  107MOL0     H14404  -0.735   8.861   6.966  0.4521  1.3369 -1.6439
  107MOL0     H14405  -0.728   8.641   6.779 -1.1364 -1.5915 -1.8514
  107MOL0     H14406  -0.802   8.520   6.617  0.8198 -1.2362 -0.4963
  107MOL0     H14407  -0.829   8.345   6.624 -1.8082 -1.0145  0.5452
  107MOL0     H14408  -0.956   8.459   6.669 -0.5996 -2.1104  0.3364
  107MOL0     H14409  -0.765   7.923   6.893  0.3294  0.8036 -0.2389
  107MOL0     H14410  -0.877   7.709   6.843 -1.5801 -0.0008 -1.4876
  107MOL0     H14411  -1.271   7.684   7.031 -0.3711 -1.5066  1.1629
  107MOL0     H14412  -1.357   7.726   6.888 -0.0946  0.5045  1.6191
  107MOL0     H14413  -1.345   7.492   6.804  0.8993  1.2515  0.1757
  107MOL0     H14414  -1.229   7.446   6.919  1.0925  1.7536 -1.0478
  107MOL0     H14415  -1.414   7.526   7.107 -1.4351  0.9586 -0.5216
  107MOL0     H14416  -1.414   7.364   7.020  0.9343 -0.4979  1.3049
  107MOL0     H14417  -1.575   7.611   6.959  3.0141  1.1278 -1.5674
  107MOL0     H14418  -1.569   7.480   6.847 -1.7628 -0.1815  0.5891
  107MOL0     H14419  -1.708   7.497   7.097 -0.1050 -0.2494  0.5540
  107MOL0     H14420  -1.633   7.338   7.063  0.4011  1.7766  1.8332
  107MOL0     H14421  -1.875   7.359   7.016 -0.5506 -1.3588 -0.6678
  107MOL0     H14422  -1.862   7.509   6.918 -0.1285  0.2273 -0.0900
  107MOL0     H14423  -1.874   7.240   6.828  0.9345 -0.4559  1.4030
  107MOL0     H14424  -1.708   7.299   6.815 -0.0859 -1.9669 -0.5434
  107MOL0     H14425  -1.937   7.462   6.691 -0.7524 -0.5389 -0.9081
  107MOL0     H14426  -1.859   7.317   6.608 -0.3244  0.1976  0.7503
  107MOL0     H14427  -1.248   7.913   6.933 -0.0649  0.9310 -3.4414
  107MOL0     H14428  -1.107   8.107   7.019  3.2822  0.1853  2.3412
  107MOL0     H14429  -0.796   8.305   7.134 -5.5969  0.1565 -0.9346
  107MOL0     H14430  -0.668   8.491   7.188 -0.0594 -1.5638  0.1048
  107MOL0     H14431   0.989   9.422   7.490  0.4714  1.1979 -1.4544
  107MOL0     H14432   1.220   9.343   7.581 -0.3530 -0.4985  0.0573
  107MOL0     H14433   1.488   9.046   7.702 -0.5628  0.0424  0.2519
  107MOL0     H14434   1.714   8.984   7.779 -2.0483  0.7346  0.2816
  107MOL0     H14435   1.939   9.018   7.792  2.2918  0.5374 -1.5646
  107MOL0     H14436   1.899   8.849   7.806 -0.0599 -1.1281 -1.3677
  107MOL0     H14437   2.113   8.786   7.695  1.6707  0.1987 -1.0594
  107MOL0     H14438   2.129   8.881   7.858 -2.8803  1.9319  1.0926
  107MOL0     H14439   2.166   9.085   7.742  0.0423 -0.4899  2.9648
  107MOL0     H14440   2.199   9.003   7.585  3.6567 -1.7690  0.4743
  107MOL0     H14441   2.383   8.875   7.706 -2.0648 -1.6577  0.1731
  107MOL0     H14442   2.359   8.994   7.836 -4.4637 -1.0689  0.0665
  107MOL0     H14443   2.514   9.217   7.509 -3.4856  0.5744 -0.6013
  107MOL0     H14444   1.837   8.960   7.372 -1.3032  2.6920 -1.8779
  107MOL0     H14445   1.623   9.036   7.292  1.2385 -0.0684 -0.8312
  108MOL0     O14446   2.133   6.919   7.908 -0.1815 -0.1737 -0.0917
  108MOL0     C14447   2.108   7.033   7.938 -0.0223  0.4065  0.1194
  108MOL0     O14448   2.174   7.107   8.024 -0.1735 -0.1022 -0.7011
  108MOL0     C14449   2.260   7.039   8.116 -0.1047  0.0628  0.1343
  108MOL0     C14450   2.202   6.971   8.223 -1.0712 -0.5908  0.0454
  108MOL0     C14451   2.283   6.915   8.320  0.2995  0.6458  0.6714
  108MOL0     C14452   2.425   6.919   8.308  0.5401 -0.1758  0.1150
  108MOL0     O14453   2.488   6.861   8.411  1.3320 -0.5046  0.3346
  108MOL0     C14454   2.567   6.743   8.369 -0.1483 -0.9218  0.1693
  108MOL0     C14455   2.686   6.726   8.465 -0.0718 -1.1233 -0.4193
  108MOL0     C14456   2.778   6.845   8.467  0.0487  0.3492  0.2404
  108MOL0     C14457   2.929   6.802   8.462 -0.1254 -1.0990 -0.7289
  108MOL0     C14458   3.028   6.922   8.469  0.1540  0.2230 -0.0926
  108MOL0     C14459   3.008   7.035   8.355 -0.5159 -0.0383 -0.1843
  108MOL0     C14460   2.991   6.977   8.213 -0.0530  0.6079  0.6498
  108MOL0     C14461   3.004   7.079   8.096  0.0722 -0.1269  0.3142
  108MOL0     N14462   2.871   7.140   8.077  0.2733 -0.5594 -0.0638
  108MOL0     C14463   2.842   7.268   8.105  0.2395 -0.1812 -0.6579
  108MOL0     C14464   2.723   7.296   8.047 -0.2282  0.1315  0.2593
  108MOL0     C14465   2.649   7.431   8.011 -0.7394  0.1667 -0.3147
  108MOL0     C14466   2.497   7.425   8.023  0.7812  0.0460  0.5912
  108MOL0     C14467   2.455   7.415   8.163  1.0150  0.4095  0.3593
  108MOL0     C14468   2.308   7.443   8.173  0.4725 -0.4862 -0.2183
  108MOL0     O14469   2.251   7.409   8.306  0.2302 -0.2623  0.3771
  108MOL0     C14470   2.114   7.385   8.304  0.0456  0.2738 -0.1265
  108MOL0     C14471   2.073   7.284   8.386 -0.4030  0.1260  0.5849
  108MOL0     C14472   1.936   7.238   8.385 -0.9875 -0.1025 -0.2534
  108MOL0     C14473   1.919   7.128   8.482  0.6221  0.6469 -0.5033
  108MOL0     C14474   1.839   7.296   8.304  0.4661 -0.0458 -0.0304
  108MOL0     C14475   1.695   7.256   8.306  0.2829  0.0332  0.8272
  108MOL0     O14476   1.620   7.331   8.214 -0.0949  0.7359 -0.3047
  108MOL0     C14477   1.488   7.295   8.194  1.0267 -1.0090 -0.3751
  108MOL0     C14478   1.390   7.250   8.290  0.9055  0.0937 -0.3182
  108MOL0     C14479   1.254   7.223   8.249  0.1449  0.6264 -0.1681
  108MOL0     C14480   1.221   7.244   8.114 -0.1992 -0.7415  0.0783
  108MOL0     O14481   1.098   7.199   8.064  0.4471  0.4836 -0.6404
  108MOL0     C14482   0.988   7.291   8.094 -0.0644  0.2489 -0.1741
  108MOL0     C14483   0.869   7.267   8.010  0.3418 -0.2331  0.1272
  108MOL0     C14484   0.750   7.348   8.057 -0.3036 -0.9288  0.0044
  108MOL0     C14485   0.635   7.338   7.969 -0.7615 -0.0031  0.1660
  108MOL0     C14486   0.519   7.426   8.019  0.1183 -0.1071  0.3659
  108MOL0     C14487   0.405   7.428   7.920 -0.5239 -0.1075 -0.4104
  108MOL0     C14488   0.313   7.535   7.964 -0.0040  0.2937 -0.9192
  108MOL0     C14489   0.199   7.564   7.869  0.4528  0.0194  0.6813
  108MOL0    Cl14490   0.260   7.630   7.717  0.0754  0.3847  0.2204
  108MOL0     C14491   1.312   7.293   8.024  0.5591  0.1133 -0.5855
  108MOL0     C14492   1.447   7.313   8.059  0.1482 -0.3044 -0.2042
  108MOL0     O14493   1.657   7.163   8.374 -0.6789 -0.2658  0.0043
  108MOL0     C14494   1.886   7.408   8.229 -0.3272 -0.2099 -0.2382
  108MOL0     C14495   2.019   7.450   8.220 -0.1855 -0.0352  0.3138
  108MOL0     N14496   2.683   7.175   7.984  0.1047  0.3290 -0.3816
  108MOL0     N14497   2.768   7.086   8.007 -0.0278 -0.1623 -0.2917
  108MOL0     C14498   2.475   6.975   8.195  0.4244  0.5665  0.3149
  108MOL0     C14499   2.399   7.049   8.106  0.6363  0.9673 -0.5991
  108MOL0     C14500   2.005   7.100   7.861  0.7690 -0.0105 -0.1887
  108MOL0     C14501   1.993   7.244   7.854 -0.9980 -0.3227  0.1289
  108MOL0     C14502   1.885   7.310   7.794 -0.3562 -0.1253 -0.5309
  108MOL0     C14503   1.786   7.226   7.747  0.3333  0.2855  0.6736
  108MOL0     O14504   1.681   7.298   7.689 -0.6598 -0.4965 -0.3063
  108MOL0     C14505   1.575   7.240   7.616  0.0339  0.8000  0.1826
  108MOL0     C14506   1.522   7.328   7.503 -0.1989  0.2265  0.1008
  108MOL0     C14507   1.631   7.361   7.399  0.1949  0.2923  0.2907
  108MOL0     C14508   1.667   7.243   7.316  0.0515  1.0400  0.2141
  108MOL0     C14509   1.764   7.282   7.213  0.1285 -0.4411 -0.0973
  108MOL0     C14510   1.854   7.315   7.130  0.8293  0.5263  0.7531
  108MOL0     C14511   1.797   7.087   7.739  0.3953  0.6975  0.3072
  108MOL0     C14512   1.904   7.025   7.807  0.4523  0.6347  0.1824
  108MOL0     H14513   2.095   6.971   8.243 -1.6414  0.4902 -2.6539
  108MOL0     H14514   2.244   6.877   8.413  3.2746  0.4228  1.9156
  108MOL0     H14515   2.496   6.659   8.365 -0.8815 -0.4048  1.5390
  108MOL0     H14516   2.614   6.752   8.271  0.3360 -0.6221  0.4266
  108MOL0     H14517   2.640   6.704   8.561 -0.8128  0.8152 -0.2718
  108MOL0     H14518   2.742   6.639   8.430  2.7539  0.0160  0.9619
  108MOL0     H14519   2.751   6.895   8.373 -0.8409 -0.7144 -0.1007
  108MOL0     H14520   2.769   6.913   8.552 -3.0391  0.4993 -0.0867
  108MOL0     H14521   2.962   6.735   8.541  2.7688  0.8005 -0.1968
  108MOL0     H14522   2.944   6.748   8.368 -0.5301 -1.0755 -0.8094
  108MOL0     H14523   3.021   6.966   8.569  1.1278 -1.6402  0.8538
  108MOL0     H14524   3.128   6.877   8.463  1.5485  3.0264  0.3796
  108MOL0     H14525   2.921   7.097   8.381 -2.5545 -2.9518  0.3647
  108MOL0     H14526   3.102   7.090   8.364  1.1926 -2.8512  0.0633
  108MOL0     H14527   3.056   6.891   8.195  1.6134  2.5046 -3.8354
  108MOL0     H14528   2.890   6.937   8.201  0.4053 -0.8003  1.2665
  108MOL0     H14529   3.039   7.035   8.003 -2.2490  0.2930 -0.8441
  108MOL0     H14530   3.078   7.153   8.128  0.2425 -0.4574  0.6763
  108MOL0     H14531   2.891   7.343   8.167  1.1142  0.1340 -1.7030
  108MOL0     H14532   2.686   7.520   8.064  0.6286  1.2206 -2.8563
  108MOL0     H14533   2.671   7.451   7.906 -1.9016 -4.3793 -1.6146
  108MOL0     H14534   2.467   7.343   7.957  1.3945  0.9514 -0.8731
  108MOL0     H14535   2.460   7.518   7.978  1.0743 -0.6815 -1.2347
  108MOL0     H14536   2.506   7.489   8.225  0.4082 -0.7007  2.2592
  108MOL0     H14537   2.478   7.311   8.189 -0.7148 -0.7360 -2.2457
  108MOL0     H14538   2.242   7.399   8.097 -1.8593  0.5357  1.1113
  108MOL0     H14539   2.296   7.550   8.153  1.6606 -0.3662 -0.3969
  108MOL0     H14540   2.145   7.225   8.442  0.7517  0.8989 -0.0459
  108MOL0     H14541   1.837   7.150   8.550  0.7715  1.9946 -0.7305
  108MOL0     H14542   1.893   7.038   8.426  0.8966  0.7931 -0.8732
  108MOL0     H14543   2.009   7.108   8.542 -0.1036  2.4607  1.2932
  108MOL0     H14544   1.421   7.232   8.392  2.5006  1.8607 -0.4444
  108MOL0     H14545   1.176   7.188   8.316 -1.3487  1.7230 -1.2547
  108MOL0     H14546   0.961   7.269   8.198 -1.2813  1.1865 -0.2746
  108MOL0     H14547   1.012   7.398   8.092 -0.5381  0.3535 -2.1620
  108MOL0     H14548   0.892   7.303   7.909  0.6309 -0.3730  0.1424
  108MOL0     H14549   0.845   7.162   8.029  0.6731  0.0072  2.0334
  108MOL0     H14550   0.775   7.454   8.061  2.9817 -1.5745 -0.7310
  108MOL0     H14551   0.727   7.324   8.161  1.8753  2.2740  1.3660
  108MOL0     H14552   0.661   7.369   7.867  1.0971 -1.4984  0.1347
  108MOL0     H14553   0.602   7.234   7.969 -1.2077  0.1374  0.5226
  108MOL0     H14554   0.552   7.529   8.033 -2.7948  0.9222  0.2992
  108MOL0     H14555   0.487   7.391   8.117 -2.2799 -2.8272 -1.2312
  108MOL0     H14556   0.433   7.429   7.814 -1.8892 -0.3000 -0.7833
  108MOL0     H14557   0.367   7.326   7.929  1.3562 -0.9162 -1.0595
  108MOL0     H14558   0.373   7.623   7.990  1.4876 -1.0923  0.5141
  108MOL0     H14559   0.276   7.499   8.061 -1.4725 -1.2501 -1.9955
  108MOL0     H14560   0.136   7.632   7.926 -1.0052 -2.3195  2.0050
  108MOL0     H14561   0.145   7.475   7.835 -0.6414  0.6112  0.8347
  108MOL0     H14562   1.283   7.293   7.919  0.1407 -1.7319 -0.5096
  108MOL0     H14563   1.511   7.350   7.979  0.0282  1.7826  0.6003
  108MOL0     H14564   1.825   7.467   8.161  1.9199 -0.9520 -3.0716
  108MOL0     H14565   2.037   7.539   8.161  0.8705 -0.4260  0.0243
  108MOL0     H14566   2.579   6.966   8.163  0.6006 -2.7294  1.4741
  108MOL0     H14567   2.436   7.089   8.013  0.7706 -0.1798 -1.0441
  108MOL0     H14568   2.082   7.302   7.873 -1.5875  0.5767  0.2237
  108MOL0     H14569   1.888   7.419   7.801  3.1081 -0.1534 -0.0188
  108MOL0     H14570   1.603   7.143   7.575  2.1251  1.5403 -0.2519
  108MOL0     H14571   1.493   7.211   7.683 -0.0276 -2.8025 -1.2104
  108MOL0     H14572   1.478   7.414   7.554 -1.9041 -0.6699  0.2421
  108MOL0     H14573   1.436   7.288   7.449 -0.4746  3.1204 -1.8220
  108MOL0     H14574   1.722   7.400   7.446 -0.8054  2.4074  0.5720
  108MOL0     H14575   1.594   7.439   7.333 -1.2167  0.9589  1.7997
  108MOL0     H14576   1.573   7.204   7.276  1.5939 -0.2949 -2.3990
  108MOL0     H14577   1.713   7.163   7.376 -3.0337 -0.1901  1.1423
  108MOL0     H14578   1.924   7.343   7.054 -0.0044  1.9456  0.4699
  108MOL0     H14579   1.713   7.029   7.702 -0.9814  1.7660  1.5604
  108MOL0     H14580   1.910   6.921   7.836  1.3571  0.3817 -0.8270
  109MOL0     O14581   6.715   0.315   1.175 -0.2870  0.2546  0.2153
  109MOL0     C14582   6.660   0.227   1.241 -0.3547  0.4828 -0.1967
  109MOL0     O14583   6.529   0.195   1.227  0.3680  0.4870 -0.1397
  109MOL0     C14584   6.443   0.259   1.139  0.4029 -0.1435 -0.0403
  109MOL0     C14585   6.471   0.311   1.016 -0.2397  0.1810  0.2219
  109MOL0     C14586   6.367   0.355   0.926  0.5618 -0.2547  0.0779
  109MOL0     C14587   6.233   0.349   0.972  0.0290  0.2940 -0.6571
  109MOL0     O14588   6.128   0.411   0.914  0.1556  0.5707  0.2216
  109MOL0     C14589   6.146   0.459   0.782  0.7643  0.2274 -0.8757
  109MOL0     C14590   6.001   0.499   0.727  0.0303 -0.3465  0.3480
  109MOL0     C14591   5.985   0.523   0.574  0.5316 -0.0798 -0.0179
  109MOL0     C14592   5.934   0.394   0.507  0.4330 -1.1123  0.0786
  109MOL0     C14593   5.921   0.400   0.356 -0.2694 -0.1397 -0.8771
  109MOL0     C14594   5.847   0.283   0.304 -0.1192  0.1916  0.1899
  109MOL0     C14595   5.837   0.300   0.148 -0.6426  0.4619  0.6890
  109MOL0     C14596   5.968   0.263   0.082  0.0476 -0.1239  0.0940
  109MOL0     N14597   5.948   0.193  -0.048 -0.3923 -0.0353 -0.7504
  109MOL0     C14598   5.847   0.221  -0.141  0.0887 -0.6456 -0.6241
  109MOL0     C14599   5.849   0.127  -0.233 -0.1757  0.6616 -0.7187
  109MOL0     C14600   5.760   0.099  -0.354 -0.3486 -0.2596  0.3282
  109MOL0     C14601   5.832   0.145  -0.485 -1.1072  0.1565  0.0091
  109MOL0     C14602   5.736   0.161  -0.600 -0.1199  0.0755 -0.3146
  109MOL0     C14603   5.617   0.248  -0.565  0.2410 -0.6771 -0.6908
  109MOL0     O14604   5.665   0.376  -0.515 -0.3285  0.5805 -0.2247
  109MOL0     C14605   5.588   0.443  -0.424 -0.6338  0.0993 -0.2226
  109MOL0     C14606   5.662   0.495  -0.313  0.2939  0.5347  0.5059
  109MOL0     C14607   5.599   0.557  -0.206  0.0551  0.0551 -0.5743
  109MOL0     C14608   5.693   0.616  -0.103  0.5155  0.9462  0.4350
  109MOL0     C14609   5.454   0.555  -0.194  0.2543 -0.5219  0.7667
  109MOL0     C14610   5.381   0.619  -0.091  0.3820 -0.4613  1.0716
  109MOL0     O14611   5.244   0.611  -0.102  0.3830 -0.5010 -0.2817
  109MOL0     C14612   5.174   0.668   0.008 -1.0964  0.0566  0.1358
  109MOL0     C14613   5.194   0.605   0.125  0.8626  0.7461 -0.6092
  109MOL0     C14614   5.137   0.664   0.241  0.8914  0.2295  0.0077
  109MOL0     C14615   5.061   0.780   0.229 -0.5188  0.1363  0.0355
  109MOL0     O14616   4.984   0.846   0.330 -0.0502 -0.6945 -0.4935
  109MOL0     C14617   4.869   0.771   0.368  0.1899  0.4499 -0.4611
  109MOL0     C14618   4.832   0.805   0.514 -0.8706 -0.0566 -0.7452
  109MOL0     C14619   4.713   0.721   0.558  0.3179 -0.6296  0.0878
  109MOL0     C14620   4.685   0.718   0.709  0.0453  0.8023 -0.3484
  109MOL0     C14621   4.552   0.650   0.733 -0.0883  0.5891 -0.2092
  109MOL0     C14622   4.519   0.633   0.875 -0.4192  0.8208 -0.8863
  109MOL0     C14623   4.392   0.545   0.885 -0.0387 -0.9142  0.0994
  109MOL0     C14624   4.268   0.609   0.830 -0.3289 -0.0998 -0.0251
  109MOL0    Cl14625   4.217   0.734   0.943 -0.3312  0.2051 -0.4472
  109MOL0     C14626   5.027   0.836   0.105 -0.1649  0.7942 -0.4264
  109MOL0     C14627   5.089   0.781  -0.012  0.1158 -0.9103 -0.8494
  109MOL0     O14628   5.439   0.695  -0.001  0.1415 -0.1524 -0.3677
  109MOL0     C14629   5.385   0.504  -0.309  0.9205 -0.1525 -0.2366
  109MOL0     C14630   5.447   0.451  -0.418  0.7749  0.0420  0.0917
  109MOL0     N14631   5.955   0.046  -0.199  0.5269 -0.6513  0.3825
  109MOL0     N14632   5.999   0.074  -0.086  0.2887  0.6784 -0.4875
  109MOL0     C14633   6.208   0.289   1.093 -0.2261 -0.0359 -0.4797
  109MOL0     C14634   6.311   0.250   1.178 -0.3570 -1.1394 -0.0938
  109MOL0     C14635   6.742   0.134   1.324  0.3532 -0.6151 -0.0629
  109MOL0     C14636   6.879   0.137   1.332 -0.2802  0.3573 -0.6746
  109MOL0     C14637   6.942   0.026   1.394 -0.6851 -0.3042 -0.2012
  109MOL0     C14638   6.880  -0.066   1.482 -0.1059 -0.4416  1.0444
  109MOL0     O14639   6.927  -0.176   1.548 -0.1604 -0.2619 -0.3500
  109MOL0     C14640   7.065  -0.193   1.569  0.4754 -0.7640  0.6588
  109MOL0     C14641   7.085  -0.264   1.702 -0.4140 -0.3219  0.8047
  109MOL0     C14642   7.227  -0.284   1.741  0.4422  0.2087  0.7105
  109MOL0     C14643   7.285  -0.398   1.673 -0.7170  0.3780 -0.1969
  109MOL0     C14644   7.415  -0.421   1.731  0.1561  0.1992  0.2573
  109MOL0     C14645   7.524  -0.464   1.774 -0.0899  0.1843  0.9290
  109MOL0     C14646   6.744  -0.049   1.490  0.1328 -0.8684 -1.2329
  109MOL0     C14647   6.678   0.041   1.408 -0.0208 -0.3739  0.3438
  109MOL0     H14648   6.576   0.312   0.988  0.4231 -2.3946  2.2163
  109MOL0     H14649   6.398   0.399   0.832  2.4690 -3.5897 -0.9990
  109MOL0     H14650   6.208   0.549   0.785  2.0190 -0.5394 -2.3613
  109MOL0     H14651   6.195   0.380   0.724  0.5702  0.0770 -0.8366
  109MOL0     H14652   5.933   0.420   0.761  1.5496 -1.2287  1.4788
  109MOL0     H14653   5.977   0.593   0.776  0.0721  0.7381 -1.6126
  109MOL0     H14654   5.912   0.601   0.554 -1.1198 -2.4078 -4.5336
  109MOL0     H14655   6.084   0.538   0.529 -0.2474 -0.3092 -1.8787
  109MOL0     H14656   5.997   0.306   0.525  1.0729 -1.0193 -1.6028
  109MOL0     H14657   5.833   0.377   0.545  0.1622 -2.8588 -1.2853
  109MOL0     H14658   5.878   0.493   0.320 -1.4617 -0.6126 -0.7228
  109MOL0     H14659   6.025   0.396   0.324  0.9627 -1.2718  2.7397
  109MOL0     H14660   5.901   0.189   0.318 -0.0156 -0.8208 -4.8457
  109MOL0     H14661   5.745   0.286   0.342 -0.5088  2.8037 -0.8032
  109MOL0     H14662   5.762   0.223   0.128  2.7094 -2.9259  0.1704
  109MOL0     H14663   5.798   0.392   0.103 -1.4172 -0.2669 -0.1706
  109MOL0     H14664   6.031   0.201   0.147  1.6607  1.5155  0.1844
  109MOL0     H14665   6.031   0.350   0.063  2.5487 -2.1507 -1.7389
  109MOL0     H14666   5.779   0.305  -0.127  1.6566  0.4021  1.3418
  109MOL0     H14667   5.765  -0.008  -0.376 -0.2258  0.1050 -1.5881
  109MOL0     H14668   5.673   0.155  -0.320  0.4896  1.2827  0.0485
  109MOL0     H14669   5.907   0.074  -0.520 -1.6709 -0.1360 -0.6293
  109MOL0     H14670   5.882   0.242  -0.472 -2.6464  0.8126  1.4890
  109MOL0     H14671   5.694   0.062  -0.620 -0.8791 -0.0757  1.7860
  109MOL0     H14672   5.783   0.206  -0.688  3.3802 -1.4722  0.6119
  109MOL0     H14673   5.561   0.198  -0.486  3.0054 -0.5758  1.4943
  109MOL0     H14674   5.553   0.261  -0.652 -0.3545  0.1713 -0.1373
  109MOL0     H14675   5.770   0.485  -0.318  0.1604 -0.6429 -2.5587
  109MOL0     H14676   5.688   0.724  -0.118 -0.3958  0.7628 -0.7563
  109MOL0     H14677   5.679   0.569  -0.006  2.2916 -0.2199  0.1754
  109MOL0     H14678   5.795   0.591  -0.132  0.2627  0.4416 -0.0458
  109MOL0     H14679   5.248   0.511   0.123 -0.6430 -0.1896  0.7395
  109MOL0     H14680   5.164   0.627   0.339  0.3092  3.7468  1.6413
  109MOL0     H14681   4.796   0.810   0.296  1.0932 -0.0161 -1.6540
  109MOL0     H14682   4.877   0.663   0.355  1.0661  0.6168 -1.5119
  109MOL0     H14683   4.918   0.783   0.578 -0.3048  0.3212 -1.3713
  109MOL0     H14684   4.814   0.912   0.530 -1.1824  0.0468 -1.7090
  109MOL0     H14685   4.739   0.622   0.520  3.9766  0.8765 -1.8980
  109MOL0     H14686   4.624   0.759   0.506  0.6575  0.0236 -0.0384
  109MOL0     H14687   4.772   0.672   0.757  0.0857  0.0460 -1.1184
  109MOL0     H14688   4.671   0.821   0.742  0.2638  0.1338  2.0134
  109MOL0     H14689   4.546   0.554   0.681 -0.7613 -0.0960  1.0880
  109MOL0     H14690   4.477   0.715   0.687 -0.8131  0.9505  1.4319
  109MOL0     H14691   4.600   0.597   0.940 -1.5191 -0.1185  0.0146
  109MOL0     H14692   4.501   0.734   0.913  0.1647 -0.0113  1.8137
  109MOL0     H14693   4.368   0.514   0.987 -1.8809 -0.5340 -0.1804
  109MOL0     H14694   4.410   0.454   0.828 -4.2343 -0.3001 -2.6588
  109MOL0     H14695   4.190   0.533   0.826  1.2968 -1.8204 -0.8171
  109MOL0     H14696   4.275   0.659   0.733  0.0684  0.5201  0.3155
  109MOL0     H14697   4.962   0.924   0.106  1.2748  2.0209 -3.0962
  109MOL0     H14698   5.058   0.833  -0.102  1.9629  0.7457 -0.6221
  109MOL0     H14699   5.277   0.506  -0.320  0.9495 -1.4693 -0.8025
  109MOL0     H14700   5.385   0.417  -0.500 -1.7461  3.1512  0.5586
  109MOL0     H14701   6.118   0.297   1.154  1.1181  1.4272  1.4301
  109MOL0     H14702   6.292   0.209   1.277  4.5326 -0.3645  1.4583
  109MOL0     H14703   6.934   0.206   1.269  4.1947 -1.3295  1.0618
  109MOL0     H14704   7.049   0.019   1.380 -0.1212  0.2923  3.0635
  109MOL0     H14705   7.112  -0.250   1.488  2.4703 -0.5561  1.6047
  109MOL0     H14706   7.116  -0.096   1.579 -1.7368  0.4152  1.1946
  109MOL0     H14707   7.030  -0.358   1.692 -1.2173  0.3576 -1.8989
  109MOL0     H14708   7.029  -0.206   1.777 -0.0115 -0.5982  1.3196
  109MOL0     H14709   7.214  -0.290   1.850 -2.5959  0.2820  0.4402
  109MOL0     H14710   7.289  -0.195   1.726  1.4589 -0.4965  0.6627
  109MOL0     H14711   7.304  -0.379   1.567  0.2118  1.1916  0.1008
  109MOL0     H14712   7.220  -0.485   1.686 -1.1333  0.5997 -0.7478
  109MOL0     H14713   7.603  -0.522   1.817 -0.5491 -1.9795 -0.9706
  109MOL0     H14714   6.693  -0.116   1.559 -1.9446  3.6978  2.2402
  109MOL0     H14715   6.571   0.042   1.425  0.0154 -0.4614  0.5790
  110MOL0     O14716   7.844   9.586   7.032  0.0188 -0.1496 -0.0279
  110MOL0     C14717   7.873   9.548   6.921  1.0445  0.3277  0.1387
  110MOL0     O14718   7.793   9.470   6.840  0.3360 -0.5318 -0.6198
  110MOL0     C14719   7.661   9.448   6.870  0.2097  1.0319 -0.0297
  110MOL0     C14720   7.614   9.407   6.994  0.3304  0.1175  0.1273
  110MOL0     C14721   7.478   9.372   7.013 -0.2002 -0.2823 -0.1943
  110MOL0     C14722   7.392   9.366   6.908 -0.0930 -0.3551  0.6770
  110MOL0     O14723   7.256   9.346   6.931 -0.2618 -0.4009  0.4926
  110MOL0     C14724   7.159   9.363   6.828 -0.2142 -0.0386  0.6246
  110MOL0     C14725   7.019   9.341   6.880 -0.0750  0.0729 -0.1945
  110MOL0     C14726   6.967   9.454   6.960 -0.7195  0.2437  0.2561
  110MOL0     C14727   6.832   9.414   7.028  0.1746 -0.0566  0.1911
  110MOL0     C14728   6.811   9.506   7.153  0.2925 -0.2946 -0.7241
  110MOL0     C14729   6.680   9.469   7.219  0.3198  0.3566  0.1209
  110MOL0     C14730   6.661   9.557   7.348  0.2313 -0.6059 -0.7211
  110MOL0     C14731   6.766   9.530   7.454 -0.3139  0.2561 -0.0127
  110MOL0     N14732   6.737   9.629   7.570  0.1079  0.5303  0.8491
  110MOL0     C14733   6.677   9.572   7.681  0.0413 -0.3147  0.2611
  110MOL0     C14734   6.626   9.679   7.750  0.2617 -0.8801  0.4852
  110MOL0     C14735   6.553   9.688   7.879  0.7429  0.6535 -0.2253
  110MOL0     C14736   6.623   9.765   7.987 -0.0074  0.2219  0.8240
  110MOL0     C14737   6.717   9.668   8.074 -0.2772  0.0015  0.2167
  110MOL0     C14738   6.765   9.743   8.196 -0.5608  0.7874 -0.1423
  110MOL0     O14739   6.850   9.648   8.269  0.3421  0.1876 -0.1383
  110MOL0     C14740   6.981   9.632   8.236 -0.3405  0.6812  0.6533
  110MOL0     C14741   7.057   9.753   8.235  0.1507 -0.9941  2.2556
  110MOL0     C14742   7.193   9.765   8.188  0.7347  0.2741  0.3306
  110MOL0     C14743   7.258   9.905   8.179  0.0628  0.1042 -0.4915
  110MOL0     C14744   7.261   9.646   8.147 -1.0377 -0.0675  0.7331
  110MOL0     C14745   7.412   9.635   8.111  0.4910 -0.1607 -0.1282
  110MOL0     O14746   7.445   9.521   8.049 -0.3417  0.0162 -0.4841
  110MOL0     C14747   7.565   9.489   7.999 -0.6236  0.4431  0.8258
  110MOL0     C14748   7.689   9.521   8.053 -0.3948  0.1371  0.6394
  110MOL0     C14749   7.809   9.484   7.978  0.3735 -0.3192  0.1239
  110MOL0     C14750   7.801   9.422   7.851  0.3401  0.3533 -0.4430
  110MOL0     O14751   7.915   9.405   7.786  0.2151 -0.1969  0.2454
  110MOL0     C14752   7.916   9.350   7.660 -0.5808  0.2347 -0.1774
  110MOL0     C14753   8.048   9.386   7.591  0.6678  0.5313 -0.4960
  110MOL0     C14754   8.173   9.350   7.674  0.0639 -0.2590  0.4458
  110MOL0     C14755   8.290   9.339   7.580  0.0976 -0.5902 -0.4158
  110MOL0     C14756   8.405   9.258   7.628  0.0179 -0.0705  0.2002
  110MOL0     C14757   8.524   9.253   7.536  0.0485  0.2013 -0.1562
  110MOL0     C14758   8.650   9.185   7.589 -0.1141  0.0787 -0.0720
  110MOL0     C14759   8.782   9.208   7.516 -0.6937 -0.3413  0.5413
  110MOL0    Cl14760   8.800   9.383   7.493  0.1264  0.1642  0.4281
  110MOL0     C14761   7.681   9.396   7.800 -0.3484 -0.3195 -0.4104
  110MOL0     C14762   7.565   9.438   7.866  0.1552  0.1834 -0.2915
  110MOL0     O14763   7.490   9.726   8.141 -0.4132 -0.9173  0.2381
  110MOL0     C14764   7.185   9.525   8.160  0.1870 -0.5001  0.2396
  110MOL0     C14765   7.047   9.521   8.195 -0.1616 -0.6309  0.1444
  110MOL0     N14766   6.640   9.798   7.673  0.9353  0.3021 -0.5041
  110MOL0     N14767   6.709   9.766   7.559  0.0538 -0.6419 -0.7014
  110MOL0     C14768   7.433   9.407   6.780  0.6230  0.1072 -0.2686
  110MOL0     C14769   7.568   9.448   6.761 -0.4388 -0.8019 -1.2512
  110MOL0     C14770   8.004   9.579   6.857 -0.5493  0.5279 -1.5526
  110MOL0     C14771   8.036   9.541   6.730 -0.2611  0.5343 -0.7114
  110MOL0     C14772   8.158   9.548   6.673 -0.0336 -0.6894 -0.0534
  110MOL0     C14773   8.265   9.597   6.747  0.5238  0.0005  0.5659
  110MOL0     O14774   8.389   9.601   6.684 -0.9023 -0.4444  0.4179
  110MOL0     C14775   8.497   9.678   6.752  0.2655 -0.2741  0.0739
  110MOL0     C14776   8.631   9.637   6.688 -0.3129 -0.6754  0.3798
  110MOL0     C14777   8.637   9.690   6.539  0.8851 -0.1974  1.0089
  110MOL0     C14778   8.751   9.646   6.451 -0.0928  0.5446  0.3408
  110MOL0     C14779   8.882   9.695   6.488 -0.1954  0.0425 -0.6113
  110MOL0     C14780   8.986   9.752   6.516 -0.5308  0.9991  0.8781
  110MOL0     C14781   8.234   9.638   6.878 -0.2792  0.9013 -0.9096
  110MOL0     C14782   8.107   9.627   6.939 -0.9411 -0.4238 -0.7245
  110MOL0     H14783   7.671   9.388   7.084  1.0661  1.4943 -0.0234
  110MOL0     H14784   7.429   9.345   7.106 -2.1450  4.7214  0.5924
  110MOL0     H14785   7.165   9.453   6.766 -2.5366 -0.0327  0.3142
  110MOL0     H14786   7.183   9.283   6.757  1.7140  2.7327 -2.1697
  110MOL0     H14787   6.948   9.328   6.798  1.5830  0.8386 -1.8291
  110MOL0     H14788   7.015   9.248   6.938 -5.0905  1.8749  2.9454
  110MOL0     H14789   7.034   9.468   7.046  3.8211 -0.0823 -2.8862
  110MOL0     H14790   6.956   9.550   6.908 -3.6950 -0.2823 -0.2730
  110MOL0     H14791   6.754   9.417   6.952  2.3673 -2.1155 -2.3334
  110MOL0     H14792   6.840   9.310   7.063 -1.0223  0.2693  1.5318
  110MOL0     H14793   6.896   9.517   7.221 -0.8222 -0.4360  0.7365
  110MOL0     H14794   6.792   9.607   7.115  0.0734 -0.2010 -0.3613
  110MOL0     H14795   6.591   9.480   7.157  0.8655 -3.3258 -1.5721
  110MOL0     H14796   6.669   9.365   7.251 -5.4083  0.0096 -1.8733
  110MOL0     H14797   6.661   9.662   7.318  0.4418 -0.6661 -0.9299
  110MOL0     H14798   6.562   9.529   7.387 -0.1936  0.5407 -0.9499
  110MOL0     H14799   6.869   9.543   7.420 -0.6065 -1.3682 -1.6513
  110MOL0     H14800   6.750   9.424   7.475  0.2018 -0.1284 -1.4433
  110MOL0     H14801   6.663   9.467   7.705 -1.4427 -0.3210 -0.5249
  110MOL0     H14802   6.451   9.726   7.866  0.5276  0.2486  0.2421
  110MOL0     H14803   6.529   9.586   7.912 -2.0830  0.5445 -2.1883
  110MOL0     H14804   6.552   9.816   8.054  3.3838  3.3383  2.4139
  110MOL0     H14805   6.676   9.847   7.937 -2.9284  1.2173 -0.9248
  110MOL0     H14806   6.797   9.637   8.006 -1.0849  3.4942 -2.6751
  110MOL0     H14807   6.665   9.578   8.107 -1.5149  1.1243  1.4578
  110MOL0     H14808   6.677   9.775   8.252 -0.9891 -1.3916  0.5223
  110MOL0     H14809   6.819   9.834   8.170  3.1680 -0.6801  1.6300
  110MOL0     H14810   7.000   9.843   8.256 -0.0542  0.0615 -1.8901
  110MOL0     H14811   7.268   9.932   8.073 -3.7965  1.4722 -0.6377
  110MOL0     H14812   7.193   9.979   8.226 -1.0520 -0.3400 -1.3153
  110MOL0     H14813   7.350   9.916   8.237 -2.0252  2.7623  2.6690
  110MOL0     H14814   7.698   9.557   8.155  2.8455 -3.5005  1.8932
  110MOL0     H14815   7.901   9.497   8.034 -0.7524 -1.3453  2.3380
  110MOL0     H14816   7.891   9.244   7.652 -0.2617  0.2599 -2.1102
  110MOL0     H14817   7.843   9.401   7.596 -1.0401  0.1039  0.2421
  110MOL0     H14818   8.050   9.345   7.490  2.7840  2.4630 -1.3087
  110MOL0     H14819   8.042   9.495   7.586  3.2951  0.7038 -1.2762
  110MOL0     H14820   8.167   9.256   7.731  1.5116 -1.7563 -1.7454
  110MOL0     H14821   8.190   9.432   7.745 -1.5086 -0.0215  0.5954
  110MOL0     H14822   8.252   9.294   7.487  2.6492  0.6247 -2.1621
  110MOL0     H14823   8.325   9.442   7.570  2.3655 -1.1845  0.7796
  110MOL0     H14824   8.378   9.154   7.649  1.9056 -0.7085 -0.2792
  110MOL0     H14825   8.431   9.305   7.724 -0.6628 -0.5608  0.6320
  110MOL0     H14826   8.485   9.201   7.448 -2.7809  2.9308 -0.7200
  110MOL0     H14827   8.540   9.357   7.506  1.5339 -0.0907 -0.4349
  110MOL0     H14828   8.640   9.076   7.593 -0.3541  0.0505 -1.1566
  110MOL0     H14829   8.656   9.198   7.697 -2.6602 -4.9870  0.9794
  110MOL0     H14830   8.774   9.160   7.418  0.9603 -2.5605  1.4106
  110MOL0     H14831   8.857   9.163   7.582 -1.3525  1.3076  2.5413
  110MOL0     H14832   7.670   9.371   7.695  2.8903  2.3052 -1.5428
  110MOL0     H14833   7.468   9.428   7.819 -1.4062 -0.7239  2.8068
  110MOL0     H14834   7.235   9.435   8.127 -1.5443 -0.9118 -1.4791
  110MOL0     H14835   6.995   9.429   8.172  0.3877 -0.7194 -0.8260
  110MOL0     H14836   7.370   9.418   6.693  0.5366 -2.0079 -0.5183
  110MOL0     H14837   7.598   9.465   6.658  1.8793 -4.2920 -1.3399
  110MOL0     H14838   7.959   9.505   6.663  0.8167  1.2275 -2.3878
  110MOL0     H14839   8.187   9.513   6.575  1.5306  1.9766 -0.6527
  110MOL0     H14840   8.472   9.784   6.747 -0.8271 -0.5543 -0.8634
  110MOL0     H14841   8.510   9.656   6.858 -1.2691 -1.5266  0.0364
  110MOL0     H14842   8.646   9.529   6.697  0.2964 -0.4695  2.4472
  110MOL0     H14843   8.722   9.668   6.742 -0.0067 -0.7085 -0.1104
  110MOL0     H14844   8.639   9.799   6.542  0.7023 -0.1788  0.5535
  110MOL0     H14845   8.551   9.648   6.486  1.7371  0.0447 -0.6309
  110MOL0     H14846   8.733   9.679   6.349 -2.3560 -3.3596 -0.7430
  110MOL0     H14847   8.757   9.536   6.448  0.0532  0.4891  1.7188
  110MOL0     H14848   9.080   9.803   6.522  0.0404  0.2129 -0.8633
  110MOL0     H14849   8.307   9.693   6.938  0.5963 -1.0907 -0.0580
  110MOL0     H14850   8.092   9.667   7.038  1.3216  1.4335 -1.0428
  111MOL0     O14851   9.609   1.567  10.373 -0.6909 -0.5927  0.2500
  111MOL0     C14852   9.729   1.609  10.373 -0.3497 -0.1402  1.0997
  111MOL0     O14853   9.769   1.736  10.404 -0.4484  0.2229 -0.1660
  111MOL0     C14854   9.684   1.813  10.482  0.0366  0.1887  0.0037
  111MOL0     C14855   9.622   1.767  10.596 -0.8273  0.7089 -0.7740
  111MOL0     C14856   9.555   1.853  10.678 -0.4959  0.2437 -0.2391
  111MOL0     C14857   9.557   1.994  10.646  0.5000 -0.4385 -0.4100
  111MOL0     O14858   9.482   2.093  10.707 -0.2273  0.9350  0.2306
  111MOL0     C14859   9.377   2.053  10.786  0.3544 -0.8446 -0.4151
  111MOL0     C14860   9.293   2.180  10.817 -0.4861  0.1625  0.0438
  111MOL0     C14861   9.370   2.292  10.887  0.1641  0.3823 -0.1862
  111MOL0     C14862   9.384   2.267  11.043  0.1186 -0.2311  0.3957
  111MOL0     C14863   9.445   2.377  11.115 -0.4406 -0.3929  0.2786
  111MOL0     C14864   9.413   2.380  11.266  0.1745 -0.6039  0.4089
  111MOL0     C14865   9.513   2.433  11.361  0.4602  0.1425 -0.3964
  111MOL0     C14866   9.537   2.588  11.334  0.0598  0.1132 -0.0405
  111MOL0     N14867   9.424   2.667  11.354 -0.7290 -0.0625 -0.2884
  111MOL0     C14868   9.371   2.718  11.476  0.3781 -0.0458 -0.2643
  111MOL0     C14869   9.268   2.805  11.433 -0.4902 -0.3785 -0.4066
  111MOL0     C14870   9.178   2.874  11.523 -0.3818 -0.2851 -0.9731
  111MOL0     C14871   9.063   2.956  11.469 -1.0517  0.0981 -0.7834
  111MOL0     C14872   9.109   3.080  11.396 -0.1374 -0.9183  0.4316
  111MOL0     C14873   8.996   3.137  11.316 -0.4182 -0.5586  0.4785
  111MOL0     O14874   8.873   3.138  11.386 -0.1150  0.8862 -0.3850
  111MOL0     C14875   8.750   3.169  11.323  0.2498  0.7910  0.7167
  111MOL0     C14876   8.736   3.219  11.195  0.0539  0.2251  0.0644
  111MOL0     C14877   8.608   3.231  11.133  0.6863  0.6040  0.2981
  111MOL0     C14878   8.601   3.258  10.987  0.1064  0.9869 -0.7557
  111MOL0     C14879   8.494   3.225  11.211 -0.3510  0.3981 -0.2438
  111MOL0     C14880   8.356   3.263  11.166  0.9299 -0.9474  0.5323
  111MOL0     O14881   8.270   3.279  11.272 -0.2130  0.0004 -0.3913
  111MOL0     C14882   8.136   3.263  11.278 -0.1507  0.6893  0.0114
  111MOL0     C14883   8.077   3.301  11.397  0.4227  0.8413 -0.0227
  111MOL0     C14884   7.940   3.274  11.429 -0.5264  0.1579 -0.3293
  111MOL0     C14885   7.863   3.207  11.342  0.7940 -0.3344  0.1488
  111MOL0     O14886   7.722   3.183  11.361  0.5613  0.5145 -0.6310
  111MOL0     C14887   7.651   3.211  11.483  0.6712  0.1026  0.0367
  111MOL0     C14888   7.504   3.220  11.447 -0.0435  0.8641 -0.8849
  111MOL0     C14889   7.405   3.297  11.538  0.1099 -0.2946 -0.0120
  111MOL0     C14890   7.265   3.239  11.510 -0.2878  0.3830 -0.1713
  111MOL0     C14891   7.162   3.291  11.606  0.0136 -0.3221  0.4372
  111MOL0     C14892   7.028   3.219  11.599 -0.0141  0.3248  0.0980
  111MOL0     C14893   6.924   3.299  11.683 -0.9521 -0.9304  0.6624
  111MOL0     C14894   6.781   3.240  11.668  0.3869 -0.1383  1.1001
  111MOL0    Cl14895   6.664   3.326  11.780 -0.3156  0.1600  0.1123
  111MOL0     C14896   7.917   3.173  11.217  0.6048 -0.2122  0.1292
  111MOL0     C14897   8.048   3.205  11.183  0.1668  0.1329  0.8092
  111MOL0     O14898   8.315   3.249  11.049 -0.1766 -0.5730 -0.3425
  111MOL0     C14899   8.513   3.179  11.344 -0.9864 -0.1170  0.3802
  111MOL0     C14900   8.638   3.140  11.393  0.5697  0.0371 -0.4967
  111MOL0     N14901   9.263   2.801  11.294  0.6260 -0.3295  0.5459
  111MOL0     N14902   9.356   2.720  11.246 -0.3438  0.5253 -1.1801
  111MOL0     C14903   9.617   2.042  10.534 -0.5000 -0.3726 -0.3480
  111MOL0     C14904   9.682   1.953  10.452 -0.3200  0.4592  0.9487
  111MOL0     C14905   9.822   1.517  10.327 -0.0619  0.0157  0.7202
  111MOL0     C14906   9.958   1.562  10.292 -0.4104  0.5133 -0.1265
  111MOL0     C14907  10.056   1.470  10.251  0.7734  0.5893  1.3065
  111MOL0     C14908  10.020   1.329  10.243 -0.0046 -0.6409  0.1731
  111MOL0     O14909  10.128   1.246  10.224  0.6651 -0.8330  0.3495
  111MOL0     C14910  10.118   1.115  10.173  0.3226 -1.0499  0.0095
  111MOL0     C14911  10.062   1.117  10.028 -0.0498  0.1014  0.0701
  111MOL0     C14912  10.011   0.985   9.970  0.4019  0.2500 -0.0356
  111MOL0     C14913   9.876   0.943  10.045  0.8066  0.1807  0.2064
  111MOL0     C14914   9.857   0.806   9.994 -1.2661 -0.5161 -0.5298
  111MOL0     C14915   9.848   0.691   9.946 -0.2199 -0.4972 -0.4748
  111MOL0     C14916   9.891   1.282  10.275  0.3615 -0.0878 -0.3572
  111MOL0     C14917   9.794   1.375  10.319 -0.4445 -0.4569 -0.3301
  111MOL0     H14918   9.633   1.665  10.631 -1.0838  1.3117  1.2096
  111MOL0     H14919   9.506   1.815  10.768 -1.9614 -0.3984 -1.2722
  111MOL0     H14920   9.306   1.979  10.749 -2.4538  0.2494  2.3255
  111MOL0     H14921   9.412   2.012  10.881 -0.0648  2.8452  1.5225
  111MOL0     H14922   9.252   2.220  10.724  1.6517  2.3623 -0.0688
  111MOL0     H14923   9.209   2.140  10.874 -0.6715  1.4017  0.6778
  111MOL0     H14924   9.469   2.315  10.846  0.4251  0.6609  0.5814
  111MOL0     H14925   9.311   2.381  10.864 -2.2313 -1.8425 -3.5220
  111MOL0     H14926   9.287   2.248  11.090  1.0772  0.4183  2.8144
  111MOL0     H14927   9.445   2.178  11.064 -0.0380  0.0628  2.3371
  111MOL0     H14928   9.554   2.377  11.105 -0.3212 -0.4816  1.4298
  111MOL0     H14929   9.417   2.474  11.072 -1.5140 -0.4653  0.7721
  111MOL0     H14930   9.316   2.430  11.277  0.9749  0.8487  1.3046
  111MOL0     H14931   9.394   2.277  11.298 -0.7545 -0.5725  0.0114
  111MOL0     H14932   9.487   2.414  11.466  2.8190  0.1375  0.2335
  111MOL0     H14933   9.608   2.385  11.340 -0.0354 -1.0700  0.0359
  111MOL0     H14934   9.553   2.596  11.227 -0.7784 -1.9593 -0.3687
  111MOL0     H14935   9.622   2.628  11.391 -0.8537  2.1520 -0.0084
  111MOL0     H14936   9.402   2.692  11.576  0.9712  0.9787 -0.1679
  111MOL0     H14937   9.125   2.811  11.595 -1.2095 -1.4088 -2.4950
  111MOL0     H14938   9.241   2.949  11.571  2.6626 -3.0421 -0.2396
  111MOL0     H14939   8.985   2.987  11.540 -2.7497  0.6732 -2.7967
  111MOL0     H14940   9.014   2.890  11.397 -1.9733  2.2771 -2.2740
  111MOL0     H14941   9.192   3.054  11.329  0.3384  0.2955  0.5221
  111MOL0     H14942   9.145   3.147  11.474  3.3278 -1.1705 -0.7739
  111MOL0     H14943   8.984   3.065  11.234 -2.3422 -1.3825  1.4226
  111MOL0     H14944   9.031   3.231  11.273 -1.0817 -2.0817 -3.9778
  111MOL0     H14945   8.816   3.223  11.122  0.9683  0.1029  1.0357
  111MOL0     H14946   8.697   3.250  10.937  0.3035 -0.3062 -0.1993
  111MOL0     H14947   8.542   3.170  10.962  2.5341 -1.2084  0.7507
  111MOL0     H14948   8.554   3.356  10.967  1.6394  2.6361  2.8241
  111MOL0     H14949   8.139   3.352  11.470 -0.2671 -0.8351  1.8479
  111MOL0     H14950   7.898   3.316  11.519 -0.4085 -1.2965  0.4433
  111MOL0     H14951   7.685   3.138  11.558  1.5589  0.6072  0.1445
  111MOL0     H14952   7.672   3.310  11.524  0.3587  0.5457 -0.8615
  111MOL0     H14953   7.484   3.267  11.350 -1.7764  0.2782 -0.8558
  111MOL0     H14954   7.472   3.115  11.445 -1.3666  1.2231  0.3252
  111MOL0     H14955   7.404   3.400  11.503  1.7843  0.4532  1.9201
  111MOL0     H14956   7.429   3.287  11.644 -1.7018 -1.6812  0.3167
  111MOL0     H14957   7.229   3.264  11.410 -2.8679 -0.6238  0.4000
  111MOL0     H14958   7.269   3.130  11.517  0.5537  0.3155 -1.5514
  111MOL0     H14959   7.144   3.394  11.574  1.3249  0.2040  1.3176
  111MOL0     H14960   7.213   3.290  11.703  1.9013  1.7834 -0.4455
  111MOL0     H14961   7.002   3.191  11.497  0.3052 -0.1495  0.1443
  111MOL0     H14962   7.032   3.118  11.642 -2.7553  1.5815  3.9226
  111MOL0     H14963   6.923   3.391  11.624  0.4708 -0.4538  1.3417
  111MOL0     H14964   6.965   3.325  11.781  0.3205 -0.3124 -0.0116
  111MOL0     H14965   6.784   3.133  11.691  3.0498 -0.0725  1.3541
  111MOL0     H14966   6.739   3.251  11.568 -0.8030 -0.7942  1.5116
  111MOL0     H14967   7.862   3.126  11.137 -0.4185  2.5664 -0.9386
  111MOL0     H14968   8.089   3.167  11.090 -1.6474 -0.8664  0.3715
  111MOL0     H14969   8.429   3.155  11.407 -1.0235 -2.5001 -0.4664
  111MOL0     H14970   8.644   3.095  11.491 -2.5539  0.1725 -0.1285
  111MOL0     H14971   9.618   2.149  10.515  0.5756 -0.2362  0.3823
  111MOL0     H14972   9.722   1.987  10.357 -1.0588  1.9045  1.1213
  111MOL0     H14973   9.971   1.670  10.294 -1.8241  0.7127 -0.6240
  111MOL0     H14974  10.157   1.502  10.225  0.9525  1.3602  2.8310
  111MOL0     H14975  10.215   1.065  10.168 -0.4662 -2.5171 -2.9263
  111MOL0     H14976  10.048   1.057  10.235 -0.2677  1.0246  1.3723
  111MOL0     H14977  10.148   1.149   9.968  0.5549 -2.4436 -0.5728
  111MOL0     H14978   9.981   1.187  10.008 -2.1897 -1.7557  1.7290
  111MOL0     H14979  10.092   0.912   9.966  1.3643  1.2887  0.0869
  111MOL0     H14980   9.995   1.021   9.868  1.6936 -0.0929 -0.3772
  111MOL0     H14981   9.794   1.013  10.025  0.4123  0.7433  3.3101
  111MOL0     H14982   9.892   0.943  10.153  2.6643  2.9671  0.0360
  111MOL0     H14983   9.837   0.591   9.910  0.8474 -0.6957 -0.2727
  111MOL0     H14984   9.875   1.175  10.272  1.4027 -0.4045  2.4914
  111MOL0     H14985   9.695   1.340  10.346  0.3096 -2.2103  0.2745
  112MOL0     O14986   2.923   3.955   3.145 -0.2992  0.0103 -0.3145
  112MOL0     C14987   2.998   4.049   3.177 -0.3176 -0.3623  0.4266
  112MOL0     O14988   2.948   4.175   3.201 -0.0937  0.0520  0.1545
  112MOL0     C14989   2.812   4.214   3.197 -0.8937  0.8676  0.8187
  112MOL0     C14990   2.774   4.311   3.286  0.1948  0.1833  0.0620
  112MOL0     C14991   2.645   4.374   3.280  0.3585 -0.7562 -0.4773
  112MOL0     C14992   2.548   4.332   3.192  0.5849  0.5321  0.1379
  112MOL0     O14993   2.424   4.399   3.188  0.1075  0.0706 -0.8819
  112MOL0     C14994   2.319   4.335   3.115  0.1377  0.7027 -0.1479
  112MOL0     C14995   2.191   4.419   3.125 -0.8331 -0.1286  0.1206
  112MOL0     C14996   2.113   4.414   3.255  0.0620 -0.4600  0.1137
  112MOL0     C14997   2.059   4.266   3.264  0.1027 -0.0041 -0.1729
  112MOL0     C14998   1.906   4.273   3.294  0.2098 -0.0640 -0.3787
  112MOL0     C14999   1.832   4.138   3.285  0.4252 -0.3357  0.9153
  112MOL0     C15000   1.877   4.034   3.376  0.3427 -0.2884  0.7952
  112MOL0     C15001   1.869   4.061   3.524 -0.4884  0.9087 -1.2316
  112MOL0     N15002   1.732   4.104   3.573 -0.3906  0.1726  0.0521
  112MOL0     C15003   1.617   4.020   3.585 -0.6054 -0.0906  0.4859
  112MOL0     C15004   1.511   4.110   3.594 -0.1828  0.4060  0.0280
  112MOL0     C15005   1.370   4.068   3.651 -0.0962 -0.2765 -0.6558
  112MOL0     C15006   1.280   4.073   3.529 -0.0543  0.2962 -0.5433
  112MOL0     C15007   1.133   4.017   3.554 -0.3903 -0.1909 -0.2230
  112MOL0     C15008   1.046   4.038   3.424 -0.7310  0.0287  0.2726
  112MOL0     O15009   0.918   3.991   3.459  0.1862 -0.4211  0.7350
  112MOL0     C15010   0.802   4.032   3.395 -0.2306  1.1016 -1.1752
  112MOL0     C15011   0.791   4.112   3.288  0.6617  0.0122  0.5867
  112MOL0     C15012   0.665   4.139   3.221 -0.8131 -0.7823 -0.1106
  112MOL0     C15013   0.677   4.210   3.089 -0.3840 -0.9866 -0.9950
  112MOL0     C15014   0.541   4.107   3.284  0.9611  0.5855 -0.3260
  112MOL0     C15015   0.407   4.141   3.236 -0.5166  0.2479 -0.4441
  112MOL0     O15016   0.318   4.137   3.336  0.2691 -0.9947  0.7972
  112MOL0     C15017   0.185   4.157   3.298  0.3123  0.1042 -0.4601
  112MOL0     C15018   0.108   4.264   3.351 -0.0374 -0.2566 -0.4840
  112MOL0     C15019  -0.033   4.268   3.337  0.2573  0.4736 -0.0748
  112MOL0     C15020  -0.099   4.166   3.265  0.2411 -0.8370  0.4387
  112MOL0     O15021  -0.233   4.177   3.245 -0.7599  0.3388  0.6794
  112MOL0     C15022  -0.299   4.081   3.173 -0.3210 -0.0787  0.0240
  112MOL0     C15023  -0.445   4.121   3.183  0.0909 -0.6218  0.8782
  112MOL0     C15024  -0.514   4.060   3.302  0.0050  0.6477 -0.2174
  112MOL0     C15025  -0.645   4.136   3.339  0.3532  0.3113 -0.6296
  112MOL0     C15026  -0.716   4.041   3.437  0.7743  0.1610  0.3394
  112MOL0     C15027  -0.871   4.061   3.420  0.3888  0.0426 -0.4384
  112MOL0     C15028  -0.963   3.965   3.503  0.5426  0.6455  0.3834
  112MOL0     C15029  -1.033   3.847   3.430  0.3125  0.7659  0.6219
  112MOL0    Cl15030  -1.170   3.896   3.332 -0.5023  0.3674 -0.1557
  112MOL0     C15031  -0.019   4.067   3.207 -0.2875 -0.8163  0.2705
  112MOL0     C15032   0.117   4.070   3.215 -0.6839  0.2831  0.8730
  112MOL0     O15033   0.384   4.157   3.116 -0.2965  0.7402  0.2656
  112MOL0     C15034   0.554   4.038   3.413 -0.4091  0.2836 -0.2584
  112MOL0     C15035   0.682   4.007   3.462  0.8448  0.2624  0.7243
  112MOL0     N15036   1.572   4.230   3.605  0.5297 -0.2443 -0.2834
  112MOL0     N15037   1.698   4.225   3.603 -0.1121  0.1108 -0.0670
  112MOL0     C15038   2.583   4.222   3.110  0.7842 -0.1070  0.2080
  112MOL0     C15039   2.712   4.166   3.104 -0.0372  0.5704  0.2028
  112MOL0     C15040   3.146   4.016   3.182  0.8640 -0.5918  0.2113
  112MOL0     C15041   3.238   4.120   3.177 -0.3604  0.5927 -0.0597
  112MOL0     C15042   3.372   4.090   3.182  0.0920  0.1798  0.1168
  112MOL0     C15043   3.420   3.962   3.201 -0.1524  0.8877  0.0934
  112MOL0     O15044   3.548   3.926   3.234 -0.0455  0.3484  0.0173
  112MOL0     C15045   3.656   4.015   3.213  1.0094 -0.5252 -0.0672
  112MOL0     C15046   3.718   4.010   3.074 -0.0960 -0.6186  0.0243
  112MOL0     C15047   3.760   3.873   3.028  0.1214  0.1074 -0.0165
  112MOL0     C15048   3.840   3.789   3.136  1.4076 -0.0137 -0.0672
  112MOL0     C15049   3.959   3.853   3.187  0.5625  0.4085 -0.1364
  112MOL0     C15050   4.047   3.903   3.247 -0.5336  0.7856 -0.1240
  112MOL0     C15051   3.323   3.857   3.199  0.3204  0.1234  0.0049
  112MOL0     C15052   3.189   3.883   3.180 -0.3346  0.1343 -0.0527
  112MOL0     H15053   2.846   4.348   3.359  0.7335  0.7974 -0.7689
  112MOL0     H15054   2.612   4.449   3.351 -0.8218 -1.4128 -0.3043
  112MOL0     H15055   2.357   4.334   3.012 -3.0100 -0.7490 -1.4087
  112MOL0     H15056   2.304   4.231   3.147 -0.7295  1.4137  1.9454
  112MOL0     H15057   2.227   4.522   3.124  1.0043 -0.7494 -0.1840
  112MOL0     H15058   2.138   4.383   3.036  0.7021  1.2834 -1.4400
  112MOL0     H15059   2.181   4.433   3.338 -0.5190  1.2734  0.2316
  112MOL0     H15060   2.031   4.486   3.264  0.3022 -0.1881  0.1069
  112MOL0     H15061   2.065   4.218   3.166  0.0657 -0.6554  0.1349
  112MOL0     H15062   2.103   4.207   3.345 -1.4457 -1.1369 -0.1057
  112MOL0     H15063   1.898   4.325   3.390  0.9514 -1.5055  0.4837
  112MOL0     H15064   1.880   4.345   3.216  3.9228  0.6907 -1.1059
  112MOL0     H15065   1.725   4.157   3.295  0.0512 -0.8572 -1.4017
  112MOL0     H15066   1.858   4.114   3.181  1.6529  2.6334  0.4351
  112MOL0     H15067   1.815   3.947   3.354  0.9501 -1.2235  2.6178
  112MOL0     H15068   1.977   3.998   3.355  0.8177  1.2856  0.1679
  112MOL0     H15069   1.954   4.127   3.541  3.6789 -3.4869 -2.6601
  112MOL0     H15070   1.883   3.964   3.573 -1.2919  1.3337 -0.1307
  112MOL0     H15071   1.618   3.912   3.589  1.2852 -0.1554 -0.4491
  112MOL0     H15072   1.368   3.972   3.704  1.9476  0.7180  1.4299
  112MOL0     H15073   1.336   4.140   3.726 -1.7341 -1.3274 -0.3378
  112MOL0     H15074   1.322   4.015   3.447  1.7794 -0.9297  1.1745
  112MOL0     H15075   1.276   4.179   3.502 -0.5858  0.1905 -0.8874
  112MOL0     H15076   1.091   4.069   3.640  3.0522  2.0335  0.3149
  112MOL0     H15077   1.135   3.910   3.577 -0.7015 -0.7681 -2.6157
  112MOL0     H15078   1.085   3.985   3.336 -1.7571 -3.1230  1.5775
  112MOL0     H15079   1.042   4.141   3.388 -1.9400 -1.0535 -3.1737
  112MOL0     H15080   0.881   4.145   3.236  1.8116  0.3689  2.6916
  112MOL0     H15081   0.597   4.169   3.027 -0.7604 -2.0019  0.1025
  112MOL0     H15082   0.670   4.317   3.110  2.9981 -1.4480  4.6771
  112MOL0     H15083   0.775   4.188   3.047  1.4751  0.2038  2.3192
  112MOL0     H15084   0.159   4.346   3.400 -0.5321 -0.2181 -0.0231
  112MOL0     H15085  -0.080   4.349   3.392  1.2663 -0.1035  1.7105
  112MOL0     H15086  -0.256   4.095   3.074 -0.3725 -1.3891 -0.2012
  112MOL0     H15087  -0.281   3.980   3.209  0.3316 -0.0017 -0.0725
  112MOL0     H15088  -0.465   4.228   3.173  1.4031 -0.4949 -0.6778
  112MOL0     H15089  -0.489   4.088   3.088  0.4964 -0.8967  0.7849
  112MOL0     H15090  -0.448   4.082   3.385 -0.1307  0.1287  0.0312
  112MOL0     H15091  -0.531   3.952   3.291 -0.6629  0.3837  2.6623
  112MOL0     H15092  -0.624   4.231   3.388 -1.8042  0.4801  0.0486
  112MOL0     H15093  -0.708   4.147   3.250 -1.0072 -1.9651 -0.0261
  112MOL0     H15094  -0.694   4.065   3.541 -0.5420 -1.6311  1.0923
  112MOL0     H15095  -0.698   3.933   3.432  0.4151  0.0070  1.8010
  112MOL0     H15096  -0.899   4.167   3.427  0.0319  0.0203 -1.4186
  112MOL0     H15097  -0.895   4.030   3.318  0.2446 -0.3550 -0.2853
  112MOL0     H15098  -1.045   4.020   3.551 -0.8134 -0.7969 -0.1938
  112MOL0     H15099  -0.900   3.928   3.585  2.1768 -0.4093 -1.2807
  112MOL0     H15100  -1.073   3.767   3.492 -1.2298  0.8045 -0.2722
  112MOL0     H15101  -0.948   3.808   3.372  1.2738 -0.7083  2.8660
  112MOL0     H15102  -0.071   3.987   3.154 -0.5936  0.0400 -0.7498
  112MOL0     H15103   0.167   3.985   3.170 -1.8313  0.6589 -1.2236
  112MOL0     H15104   0.466   3.997   3.461 -0.2787 -2.1155 -1.8675
  112MOL0     H15105   0.690   3.953   3.556  1.0471 -3.8660 -1.3965
  112MOL0     H15106   2.501   4.186   3.048 -0.6326  1.1993  1.2493
  112MOL0     H15107   2.717   4.089   3.029  1.2060  2.7104 -2.0704
  112MOL0     H15108   3.197   4.219   3.158 -0.9316  0.1736 -1.1099
  112MOL0     H15109   3.441   4.173   3.187  0.3139  0.0380 -0.5593
  112MOL0     H15110   3.634   4.114   3.255  0.4159 -1.0020  0.7704
  112MOL0     H15111   3.735   3.988   3.283  2.0912 -1.1839 -1.5043
  112MOL0     H15112   3.811   4.069   3.081  0.8141 -1.7594 -1.6996
  112MOL0     H15113   3.645   4.059   3.008  0.1062  1.0392  0.9629
  112MOL0     H15114   3.820   3.887   2.938  1.1942 -0.1320  0.6519
  112MOL0     H15115   3.672   3.812   3.002  2.7199 -3.2701 -1.6592
  112MOL0     H15116   3.870   3.693   3.094 -0.8862  0.4886 -3.2054
  112MOL0     H15117   3.779   3.771   3.225  4.6433  1.0924  2.5700
  112MOL0     H15118   4.126   3.958   3.293 -1.4903  1.2731  1.0214
  112MOL0     H15119   3.358   3.754   3.194 -1.9516 -0.6547 -0.9631
  112MOL0     H15120   3.125   3.795   3.179 -0.5148  0.2641  0.0790
  113MOL0     O15121   7.539   0.932   5.273 -0.0945 -0.2533 -0.1933
  113MOL0     C15122   7.597   0.828   5.299  0.4397  0.0354 -0.2243
  113MOL0     O15123   7.534   0.716   5.343  0.7823  0.1674  0.3649
  113MOL0     C15124   7.412   0.722   5.410  0.8504  0.2793  0.2133
  113MOL0     C15125   7.290   0.704   5.338  0.1847  0.3793 -0.6040
  113MOL0     C15126   7.166   0.687   5.401  0.0077 -0.4364 -0.7946
  113MOL0     C15127   7.162   0.675   5.546  0.6787 -0.1500  0.2735
  113MOL0     O15128   7.048   0.648   5.620 -0.0110  0.1014  0.3051
  113MOL0     C15129   6.926   0.680   5.552 -0.0543 -0.5467 -0.0914
  113MOL0     C15130   6.801   0.693   5.641  1.2398 -0.2691  0.0427
  113MOL0     C15131   6.677   0.739   5.559 -0.3855  0.4697 -0.2555
  113MOL0     C15132   6.552   0.736   5.648 -0.0122 -0.6165 -0.4014
  113MOL0     C15133   6.430   0.800   5.578 -0.1790 -0.1061 -0.2295
  113MOL0     C15134   6.316   0.781   5.672 -0.4485  0.5080  0.4480
  113MOL0     C15135   6.312   0.882   5.787 -0.3923  0.2086 -0.0581
  113MOL0     C15136   6.217   0.851   5.900  0.0154  0.0749 -0.2337
  113MOL0     N15137   6.149   0.972   5.951 -1.1903  0.1186 -0.7661
  113MOL0     C15138   6.225   1.084   5.992  0.0710 -0.6081  0.5688
  113MOL0     C15139   6.126   1.174   6.027 -1.1588 -0.6121  0.7095
  113MOL0     C15140   6.159   1.321   6.050  0.0958 -0.7982 -0.4460
  113MOL0     C15141   6.161   1.395   5.916  0.0508 -0.0935  0.0595
  113MOL0     C15142   6.030   1.414   5.835 -0.0167 -0.8608  0.3454
  113MOL0     C15143   5.930   1.533   5.879  0.6571  0.5748 -0.3648
  113MOL0     O15144   5.839   1.551   5.762 -0.1365 -0.6387 -0.0181
  113MOL0     C15145   5.707   1.577   5.800  0.1770 -0.7288 -0.3092
  113MOL0     C15146   5.665   1.651   5.914 -0.7056 -0.3792  0.0996
  113MOL0     C15147   5.532   1.669   5.956 -1.1585  0.3190 -0.3185
  113MOL0     C15148   5.508   1.751   6.084 -0.3503  0.1401  0.4426
  113MOL0     C15149   5.430   1.605   5.875  0.5004  0.1514 -0.0043
  113MOL0     C15150   5.281   1.615   5.885  0.0633 -0.7726 -0.0734
  113MOL0     O15151   5.196   1.588   5.777 -0.7069 -0.1326  0.3936
  113MOL0     C15152   5.066   1.612   5.790  0.1535  0.0116  0.1644
  113MOL0     C15153   4.991   1.551   5.692  0.0734  0.3793 -0.7162
  113MOL0     C15154   4.850   1.557   5.692  0.8055  0.0511  0.0257
  113MOL0     C15155   4.781   1.628   5.785  0.2468  0.3572 -1.4636
  113MOL0     O15156   4.647   1.665   5.785  0.2120 -0.7649  0.4735
  113MOL0     C15157   4.562   1.628   5.675 -0.1466 -0.0167  0.3234
  113MOL0     C15158   4.412   1.661   5.696 -0.3891 -0.0706  0.1208
  113MOL0     C15159   4.322   1.627   5.579 -0.2628 -0.0473  0.9001
  113MOL0     C15160   4.173   1.682   5.600 -0.4992 -0.2742 -0.1344
  113MOL0     C15161   4.088   1.629   5.482 -0.0210 -0.5165 -0.2418
  113MOL0     C15162   3.951   1.712   5.493 -0.1618 -0.1687 -0.4369
  113MOL0     C15163   3.835   1.629   5.559  0.0954 -0.1143 -0.7961
  113MOL0     C15164   3.749   1.555   5.455 -0.2655  0.0363 -0.6837
  113MOL0    Cl15165   3.628   1.457   5.533 -0.2340  0.6628  0.5091
  113MOL0     C15166   4.860   1.696   5.885  0.8792 -0.6687 -0.2168
  113MOL0     C15167   4.997   1.689   5.888 -0.3217 -0.6437  0.1519
  113MOL0     O15168   5.243   1.638   5.999  0.8118  0.0025 -0.3766
  113MOL0     C15169   5.468   1.528   5.768  0.3925 -0.1732 -0.3373
  113MOL0     C15170   5.605   1.511   5.732  0.3123  0.6867  0.4965
  113MOL0     N15171   6.000   1.119   6.004 -0.5788  0.5799 -0.4515
  113MOL0     N15172   6.018   0.995   5.966  0.6964 -0.5904  0.3281
  113MOL0     C15173   7.282   0.663   5.615  0.0870 -0.0633  0.6483
  113MOL0     C15174   7.404   0.696   5.548  0.3269  1.0440  0.0622
  113MOL0     C15175   7.742   0.829   5.298 -0.1021  0.4577  0.5679
  113MOL0     C15176   7.824   0.716   5.310  0.0275  0.6083 -0.7146
  113MOL0     C15177   7.974   0.723   5.291 -0.3532 -0.0104  0.3399
  113MOL0     C15178   8.030   0.845   5.264 -0.2247 -0.4067  0.5040
  113MOL0     O15179   8.172   0.840   5.278  0.1710  0.5726  0.6641
  113MOL0     C15180   8.262   0.949   5.235  0.5110  0.3893 -0.3110
  113MOL0     C15181   8.260   0.985   5.086  0.6729  0.3399  0.1047
  113MOL0     C15182   8.356   1.102   5.055  0.4516 -1.0914 -0.0038
  113MOL0     C15183   8.372   1.127   4.909 -0.1894  0.9767  0.0234
  113MOL0     C15184   8.426   1.263   4.896  0.1659  0.4585 -0.6583
  113MOL0     C15185   8.483   1.362   4.869  0.0939  0.2834  0.6134
  113MOL0     C15186   7.950   0.959   5.246 -0.4682 -0.4981  0.8016
  113MOL0     C15187   7.811   0.950   5.259  0.4961  0.4998  0.0194
  113MOL0     H15188   7.310   0.717   5.232  0.5328  3.3738 -0.2671
  113MOL0     H15189   7.070   0.674   5.351 -1.4773  1.9525  1.1698
  113MOL0     H15190   6.932   0.782   5.514 -2.1921 -0.4541 -0.2910
  113MOL0     H15191   6.906   0.604   5.476  1.3182 -2.0999  1.0124
  113MOL0     H15192   6.776   0.598   5.688 -2.7339  0.3383 -0.5281
  113MOL0     H15193   6.832   0.767   5.715  1.2379 -1.3621  1.1802
  113MOL0     H15194   6.679   0.845   5.535 -1.8013  0.2815 -1.3998
  113MOL0     H15195   6.661   0.675   5.471 -0.6901 -0.1483  0.2423
  113MOL0     H15196   6.536   0.632   5.677 -0.9632  0.1040  1.8476
  113MOL0     H15197   6.577   0.791   5.739 -0.8712 -1.0441  0.1055
  113MOL0     H15198   6.455   0.903   5.550  0.7471  0.4556  2.3676
  113MOL0     H15199   6.406   0.757   5.481 -2.7007 -0.9124  0.6665
  113MOL0     H15200   6.218   0.796   5.624 -1.1773  0.7774  1.9546
  113MOL0     H15201   6.304   0.681   5.715 -0.7936 -0.0957 -0.9872
  113MOL0     H15202   6.413   0.896   5.828 -0.4760 -0.4912  0.4077
  113MOL0     H15203   6.288   0.980   5.745  0.1736  0.8458  1.0447
  113MOL0     H15204   6.275   0.794   5.973 -0.1681  0.0130 -0.1372
  113MOL0     H15205   6.150   0.783   5.847 -0.5325  1.6504 -1.6473
  113MOL0     H15206   6.333   1.097   5.990 -0.1250  1.3079 -1.7046
  113MOL0     H15207   6.082   1.359   6.118 -0.9500 -0.9435 -1.5087
  113MOL0     H15208   6.249   1.352   6.103 -0.0604 -0.4012 -0.4138
  113MOL0     H15209   6.218   1.336   5.844 -0.3832 -0.7400  0.2374
  113MOL0     H15210   6.206   1.494   5.932 -0.0210 -0.4145  2.5586
  113MOL0     H15211   5.977   1.318   5.830  1.0999 -1.4586 -0.1609
  113MOL0     H15212   6.059   1.438   5.733 -0.6007  0.1788  0.4016
  113MOL0     H15213   5.981   1.629   5.885  1.7049  0.0763 -1.0378
  113MOL0     H15214   5.886   1.503   5.975  1.1376 -1.9204 -0.8420
  113MOL0     H15215   5.743   1.702   5.969  0.1612 -1.5409 -0.0194
  113MOL0     H15216   5.499   1.691   6.176 -0.1281 -0.6314 -0.0303
  113MOL0     H15217   5.584   1.829   6.087  0.0268 -0.0749 -1.9339
  113MOL0     H15218   5.415   1.805   6.064 -0.3183 -0.6225 -2.0374
  113MOL0     H15219   5.038   1.494   5.612  1.0075  0.6551 -0.3867
  113MOL0     H15220   4.799   1.511   5.608  0.6389  1.9613 -0.9879
  113MOL0     H15221   4.597   1.679   5.585 -1.0791 -0.3198 -0.2171
  113MOL0     H15222   4.579   1.520   5.675 -2.8883 -0.5226  1.2894
  113MOL0     H15223   4.386   1.595   5.779  1.8925 -3.1294 -1.3969
  113MOL0     H15224   4.405   1.764   5.733 -1.5226  0.2098 -0.8002
  113MOL0     H15225   4.329   1.519   5.561 -1.2014  0.0788 -0.3121
  113MOL0     H15226   4.363   1.682   5.494 -0.7804 -1.0248 -0.0027
  113MOL0     H15227   4.140   1.640   5.695  3.1715 -0.5837  1.1752
  113MOL0     H15228   4.195   1.788   5.593  1.2236 -0.4708  1.5644
  113MOL0     H15229   4.075   1.521   5.494  0.5902 -0.5307  0.3024
  113MOL0     H15230   4.131   1.653   5.384  1.6567  0.7110  0.7512
  113MOL0     H15231   3.971   1.809   5.539 -1.8326  0.5520 -1.1497
  113MOL0     H15232   3.931   1.746   5.391  0.4670 -2.0260 -1.2195
  113MOL0     H15233   3.765   1.690   5.617  1.9260  0.1837  1.2287
  113MOL0     H15234   3.875   1.554   5.628  1.1685  0.8060 -0.3788
  113MOL0     H15235   3.812   1.502   5.383  0.3555  1.6797 -1.3941
  113MOL0     H15236   3.688   1.631   5.405 -0.1583 -0.5088 -1.6589
  113MOL0     H15237   4.805   1.744   5.965 -0.4743 -3.1224  0.4136
  113MOL0     H15238   5.043   1.757   5.958 -3.5984 -1.2836  3.2257
  113MOL0     H15239   5.388   1.475   5.716  0.0428  0.1972 -0.1764
  113MOL0     H15240   5.640   1.447   5.651 -0.7413 -0.1237  0.6571
  113MOL0     H15241   7.281   0.640   5.721 -1.7832 -1.0065  0.4729
  113MOL0     H15242   7.496   0.676   5.601  0.5707 -1.6790 -1.2131
  113MOL0     H15243   7.787   0.615   5.321  1.0447  0.1331 -1.4599
  113MOL0     H15244   8.038   0.635   5.297  0.1708  0.4333  1.6569
  113MOL0     H15245   8.248   1.036   5.299  0.6194 -0.4136  0.8463
  113MOL0     H15246   8.362   0.907   5.251 -0.0748 -2.0478 -2.4337
  113MOL0     H15247   8.161   1.016   5.051  0.1861  1.3392  2.2523
  113MOL0     H15248   8.292   0.898   5.026  1.1838  0.4591  0.1993
  113MOL0     H15249   8.456   1.091   5.096  0.4668 -1.9880 -0.2734
  113MOL0     H15250   8.309   1.191   5.100 -0.9268 -1.7521 -0.0857
  113MOL0     H15251   8.274   1.118   4.861  0.2437 -1.4787 -0.5033
  113MOL0     H15252   8.438   1.059   4.856 -2.0562 -0.4601 -0.5852
  113MOL0     H15253   8.549   1.441   4.837  0.6319 -0.7356 -0.9095
  113MOL0     H15254   8.012   1.043   5.218  0.1284 -1.1950 -0.0525
  113MOL0     H15255   7.758   1.042   5.237 -1.0094 -0.0459  1.1934
  114MOL0     O15256   7.280   5.822   3.419 -0.1166 -0.2703 -0.3375
  114MOL0     C15257   7.249   5.726   3.347  0.2543 -0.1238 -0.3162
  114MOL0     O15258   7.127   5.675   3.328 -0.4193  0.4324 -0.9193
  114MOL0     C15259   7.014   5.751   3.338 -0.0737  0.3440 -0.1653
  114MOL0     C15260   7.014   5.885   3.295 -0.2053 -0.0565  0.6664
  114MOL0     C15261   6.893   5.963   3.302  0.5486 -0.3754  0.6192
  114MOL0     C15262   6.782   5.908   3.349  1.1052  0.0826  0.3772
  114MOL0     O15263   6.661   5.974   3.374 -0.3107  0.2998  0.8889
  114MOL0     C15264   6.666   6.112   3.343 -0.0041  0.3314  0.4051
  114MOL0     C15265   6.522   6.167   3.348  0.9937  0.1925 -0.5128
  114MOL0     C15266   6.437   6.133   3.474 -0.2227  0.1996  0.2066
  114MOL0     C15267   6.294   6.192   3.475  0.4117 -0.9196  0.0457
  114MOL0     C15268   6.230   6.174   3.603  0.7900 -0.1640 -0.6794
  114MOL0     C15269   6.087   6.219   3.603  0.1124 -0.2818  0.4378
  114MOL0     C15270   6.065   6.291   3.735 -0.1000 -0.3284 -0.7968
  114MOL0     C15271   6.059   6.206   3.860  0.1565  0.8068  0.8339
  114MOL0     N15272   6.052   6.289   3.978 -0.1501 -0.0209  0.3682
  114MOL0     C15273   5.979   6.402   3.999  0.5181 -0.2775  0.5123
  114MOL0     C15274   6.031   6.454   4.112  0.6103  0.0765 -0.2118
  114MOL0     C15275   5.976   6.577   4.168 -0.4597 -1.2304 -0.3066
  114MOL0     C15276   5.841   6.559   4.233 -0.3999 -0.3649 -0.0619
  114MOL0     C15277   5.779   6.695   4.277 -0.5924  0.2171  0.7423
  114MOL0     C15278   5.720   6.772   4.161  0.0259 -0.2672  0.3520
  114MOL0     O15279   5.620   6.866   4.216  0.1469  0.0449  0.0581
  114MOL0     C15280   5.501   6.878   4.154 -0.3838 -0.6094  0.0775
  114MOL0     C15281   5.407   6.958   4.228 -0.6303 -0.5101  0.4928
  114MOL0     C15282   5.282   6.986   4.167 -0.0830 -0.1227 -0.9184
  114MOL0     C15283   5.186   7.073   4.252  0.4680  0.3124  0.1223
  114MOL0     C15284   5.246   6.929   4.040 -0.2180  0.6074  0.5783
  114MOL0     C15285   5.116   6.951   3.970 -0.0651 -0.5750 -0.0990
  114MOL0     O15286   5.092   6.882   3.856 -0.0332 -0.3986 -0.6571
  114MOL0     C15287   4.974   6.918   3.786 -0.9519 -0.4231 -0.5615
  114MOL0     C15288   4.979   7.013   3.683  0.0633 -0.9701 -0.0955
  114MOL0     C15289   4.863   7.029   3.603 -0.1606  0.1840  0.1832
  114MOL0     C15290   4.740   6.961   3.631 -0.3356 -0.1909  0.8148
  114MOL0     O15291   4.624   6.982   3.565 -0.2880 -0.2113  0.5212
  114MOL0     C15292   4.596   7.117   3.526 -1.2687 -0.1728  0.4714
  114MOL0     C15293   4.482   7.134   3.425 -0.3708 -0.0572 -1.3947
  114MOL0     C15294   4.351   7.173   3.497  0.5884 -0.2409  0.3712
  114MOL0     C15295   4.252   7.229   3.400 -0.4418 -0.6012  0.0526
  114MOL0     C15296   4.119   7.258   3.454 -0.2360  0.2599 -0.1062
  114MOL0     C15297   4.023   7.289   3.335  0.3830  0.1351  0.1617
  114MOL0     C15298   3.883   7.325   3.374 -0.1385  0.3599 -0.0150
  114MOL0     C15299   3.790   7.296   3.259  0.9937 -0.2939  0.3292
  114MOL0    Cl15300   3.621   7.339   3.284 -0.0850 -0.2357 -0.3789
  114MOL0     C15301   4.746   6.864   3.732 -0.9184  0.4477  0.4887
  114MOL0     C15302   4.863   6.843   3.804 -0.4091  0.2044 -0.5475
  114MOL0     O15303   5.031   7.024   4.024  0.1850 -0.3254  0.2847
  114MOL0     C15304   5.348   6.856   3.972 -0.1787  0.2609  0.7722
  114MOL0     C15305   5.475   6.828   4.032  0.0352 -0.3766  0.4219
  114MOL0     N15306   6.125   6.364   4.165  0.3812 -0.2638  0.2909
  114MOL0     N15307   6.145   6.272   4.078  0.8329  0.0681 -0.1635
  114MOL0     C15308   6.780   5.775   3.401  0.1187 -0.3547 -0.2877
  114MOL0     C15309   6.897   5.699   3.392 -0.2515 -0.2271 -0.6482
  114MOL0     C15310   7.358   5.644   3.303  0.1338  0.5477 -0.1384
  114MOL0     C15311   7.337   5.540   3.212 -0.3035 -0.5862 -0.0334
  114MOL0     C15312   7.437   5.454   3.177 -0.4797 -0.3131 -0.6831
  114MOL0     C15313   7.570   5.470   3.227 -0.4444  0.5597 -0.3313
  114MOL0     O15314   7.663   5.372   3.184  0.3604  0.3433  0.6335
  114MOL0     C15315   7.767   5.340   3.265  0.4115  0.0411 -0.4461
  114MOL0     C15316   7.857   5.252   3.181  0.4911 -0.9184  0.6411
  114MOL0     C15317   7.977   5.203   3.265 -0.0136 -0.4153 -0.8100
  114MOL0     C15318   8.042   5.072   3.211  0.5925  0.2878  0.3007
  114MOL0     C15319   7.948   4.966   3.215  0.3067  0.2206 -0.3907
  114MOL0     C15320   7.863   4.879   3.235 -1.0581 -0.7868 -0.4056
  114MOL0     C15321   7.588   5.569   3.319  0.2698  0.5367  0.1386
  114MOL0     C15322   7.481   5.657   3.358  0.3166 -0.4774  1.3388
  114MOL0     H15323   7.098   5.921   3.236 -0.1305  1.1697  1.5038
  114MOL0     H15324   6.897   6.066   3.266 -1.1660 -0.5057 -0.0295
  114MOL0     H15325   6.729   6.172   3.410  2.1081 -1.9542  0.6143
  114MOL0     H15326   6.718   6.136   3.250  2.3776  1.4808  1.9374
  114MOL0     H15327   6.523   6.276   3.336 -1.5019  0.4052  0.4582
  114MOL0     H15328   6.457   6.152   3.262  0.9783 -1.5120 -0.2389
  114MOL0     H15329   6.434   6.024   3.478 -2.3134  0.2181  0.0487
  114MOL0     H15330   6.493   6.174   3.559 -2.3308  0.1930  1.6684
  114MOL0     H15331   6.297   6.299   3.455 -2.3649 -0.0338  3.2842
  114MOL0     H15332   6.241   6.140   3.394  1.5603 -0.1142 -1.2660
  114MOL0     H15333   6.235   6.066   3.620  0.3902 -0.3255 -1.4997
  114MOL0     H15334   6.290   6.224   3.680  1.1171  1.0198 -1.6780
  114MOL0     H15335   6.074   6.288   3.519 -2.0712 -0.0206  0.9500
  114MOL0     H15336   6.023   6.132   3.589 -0.0724  0.1164 -1.5377
  114MOL0     H15337   6.123   6.382   3.757 -2.5181  0.8937  0.9100
  114MOL0     H15338   5.966   6.335   3.724  0.0945 -0.2903 -2.9386
  114MOL0     H15339   6.149   6.145   3.852  1.1614  1.3428  5.3272
  114MOL0     H15340   5.969   6.143   3.860  0.1640  0.7685  2.2012
  114MOL0     H15341   5.902   6.442   3.934  0.1608  0.9822  1.6596
  114MOL0     H15342   6.055   6.607   4.238 -0.6953  2.3049 -1.3288
  114MOL0     H15343   5.958   6.650   4.088 -2.1034  0.0141  1.1191
  114MOL0     H15344   5.856   6.486   4.313  2.5989 -2.9255 -2.6674
  114MOL0     H15345   5.781   6.514   4.153 -0.8661 -2.4276  1.3559
  114MOL0     H15346   5.840   6.766   4.334 -0.5687 -0.0352  1.0372
  114MOL0     H15347   5.699   6.675   4.349  0.9727 -1.8447  2.0418
  114MOL0     H15348   5.674   6.697   4.096  0.0558  0.5705 -0.6559
  114MOL0     H15349   5.802   6.825   4.112 -1.2491  0.0769 -1.5331
  114MOL0     H15350   5.438   7.001   4.322  3.2269 -1.7403 -0.0305
  114MOL0     H15351   5.089   7.025   4.269  1.1287 -1.2304 -0.2927
  114MOL0     H15352   5.232   7.097   4.348 -1.7529 -1.2153  1.6420
  114MOL0     H15353   5.166   7.164   4.195 -0.7922 -1.2508 -2.1194
  114MOL0     H15354   5.073   7.058   3.655 -1.2305  1.4918 -0.8122
  114MOL0     H15355   4.874   7.102   3.523 -0.8270 -0.3873 -0.4466
  114MOL0     H15356   4.572   7.166   3.621  0.2467  1.4051  0.0972
  114MOL0     H15357   4.684   7.162   3.479 -1.1471 -2.0646 -1.2185
  114MOL0     H15358   4.516   7.208   3.352 -0.3794 -0.0661 -1.4071
  114MOL0     H15359   4.474   7.032   3.386  2.3456 -1.0195  0.2332
  114MOL0     H15360   4.358   7.247   3.577 -3.2780 -1.0896  1.7063
  114MOL0     H15361   4.298   7.085   3.534 -2.0736  0.6941 -0.8950
  114MOL0     H15362   4.296   7.322   3.364  1.2909 -0.2778  2.6828
  114MOL0     H15363   4.240   7.166   3.311  0.3576 -0.2190 -0.3444
  114MOL0     H15364   4.129   7.348   3.515  1.9010  0.6720 -0.9922
  114MOL0     H15365   4.075   7.178   3.513 -2.4329  1.2217 -0.3408
  114MOL0     H15366   4.059   7.382   3.290 -2.1943 -0.9273 -4.7659
  114MOL0     H15367   4.018   7.205   3.265 -1.0718 -0.4103  0.8887
  114MOL0     H15368   3.879   7.432   3.396  0.6366  0.6803 -1.3544
  114MOL0     H15369   3.846   7.266   3.458  3.5354  0.2609  1.7108
  114MOL0     H15370   3.797   7.195   3.217  0.2645 -0.3470  0.3248
  114MOL0     H15371   3.821   7.349   3.168  0.1570 -2.1461 -1.1032
  114MOL0     H15372   4.654   6.808   3.748 -1.8826  1.3328 -1.5683
  114MOL0     H15373   4.861   6.763   3.878 -1.7556  0.2735 -0.4725
  114MOL0     H15374   5.339   6.820   3.870  1.8481 -0.6799  0.8790
  114MOL0     H15375   5.535   6.761   3.971 -0.6189 -0.5503 -0.0430
  114MOL0     H15376   6.698   5.729   3.455  1.1501 -0.2063  1.4511
  114MOL0     H15377   6.898   5.594   3.420 -2.3760 -0.9313 -2.8540
  114MOL0     H15378   7.240   5.526   3.167  0.4623  0.3269 -2.0854
  114MOL0     H15379   7.401   5.373   3.114 -1.8657 -0.1682 -0.1232
  114MOL0     H15380   7.822   5.428   3.299  0.0312  0.9797 -2.1504
  114MOL0     H15381   7.725   5.286   3.350  4.3038 -1.7989  0.5426
  114MOL0     H15382   7.892   5.299   3.089 -2.0989  2.5420  1.2381
  114MOL0     H15383   7.798   5.165   3.150  1.8281 -1.1116 -1.5872
  114MOL0     H15384   7.947   5.186   3.369  0.1957  0.7816 -0.5430
  114MOL0     H15385   8.042   5.291   3.266 -1.1639  0.8402 -5.8960
  114MOL0     H15386   8.126   5.047   3.276  0.7593  0.7452  0.2657
  114MOL0     H15387   8.068   5.093   3.106  2.1633 -1.3294  0.3196
  114MOL0     H15388   7.784   4.807   3.240 -2.7675  1.0979  1.8942
  114MOL0     H15389   7.684   5.571   3.369  0.0423 -1.7729  0.7499
  114MOL0     H15390   7.499   5.741   3.424  2.1259 -0.3982  0.7943
  115MOL0     O15391   9.318   6.256   4.670 -0.6882  0.1346 -0.1040
  115MOL0     C15392   9.393   6.320   4.600  0.5748  1.1733 -0.1299
  115MOL0     O15393   9.358   6.393   4.492 -0.5069  0.4725 -0.3676
  115MOL0     C15394   9.222   6.412   4.472 -0.0614 -0.6112 -0.2228
  115MOL0     C15395   9.161   6.536   4.496  1.1361 -0.4258 -0.2902
  115MOL0     C15396   9.017   6.539   4.488 -0.0692 -0.2152  0.3831
  115MOL0     C15397   8.932   6.426   4.468 -0.6855 -0.3131 -0.7031
  115MOL0     O15398   8.798   6.447   4.455  0.1048 -0.6484 -0.1591
  115MOL0     C15399   8.726   6.324   4.470 -0.0553 -0.6246  0.4576
  115MOL0     C15400   8.581   6.361   4.498  0.1487 -0.3622  0.6882
  115MOL0     C15401   8.516   6.407   4.367 -0.4197 -0.3137  0.9495
  115MOL0     C15402   8.364   6.423   4.390  0.9240  0.5180  0.0963
  115MOL0     C15403   8.294   6.502   4.274  0.1004  0.4622 -0.2662
  115MOL0     C15404   8.148   6.522   4.295 -0.8107  0.9027  0.8321
  115MOL0     C15405   8.092   6.625   4.196 -0.0951  0.5537 -0.5844
  115MOL0     C15406   7.948   6.661   4.210 -0.1591  0.2532  0.1762
  115MOL0     N15407   7.904   6.665   4.353 -0.1130 -0.7126 -0.1105
  115MOL0     C15408   7.910   6.778   4.438  0.3112 -0.3015  0.0788
  115MOL0     C15409   7.829   6.738   4.545  0.0609 -0.4515  0.7040
  115MOL0     C15410   7.795   6.808   4.669  0.4778  0.5197  0.0063
  115MOL0     C15411   7.651   6.880   4.653  0.0179 -0.1437 -1.5243
  115MOL0     C15412   7.550   6.777   4.622 -0.2742 -0.0238 -0.4483
  115MOL0     C15413   7.412   6.794   4.693 -0.6461  0.3861  0.3440
  115MOL0     O15414   7.370   6.927   4.655  0.8267  0.5451 -0.0026
  115MOL0     C15415   7.241   6.967   4.679 -0.5330  0.2189  0.2284
  115MOL0     C15416   7.208   7.101   4.645 -0.5266  0.2480  1.1962
  115MOL0     C15417   7.084   7.166   4.672 -0.3157  1.4621 -0.5234
  115MOL0     C15418   7.075   7.319   4.659 -0.4008 -0.0046  0.6193
  115MOL0     C15419   6.993   7.084   4.737  0.7990  0.0482 -0.4491
  115MOL0     C15420   6.849   7.122   4.756 -0.6638 -0.6065  0.4851
  115MOL0     O15421   6.776   7.044   4.839 -0.0301  0.3685 -0.3746
  115MOL0     C15422   6.639   7.059   4.856 -0.1911 -0.7439  0.4275
  115MOL0     C15423   6.556   7.093   4.751  0.0046  0.1556  0.3387
  115MOL0     C15424   6.418   7.106   4.765 -0.0767 -0.2247 -1.2371
  115MOL0     C15425   6.360   7.093   4.897 -0.2187  0.6027 -0.1474
  115MOL0     O15426   6.231   7.101   4.928 -0.2404 -0.2761  0.0330
  115MOL0     C15427   6.120   7.053   4.842 -0.3779  0.3339 -0.6363
  115MOL0     C15428   5.987   7.098   4.900 -0.0747  0.1894  0.4455
  115MOL0     C15429   5.945   7.238   4.860 -0.9194 -0.7042  0.2939
  115MOL0     C15430   5.803   7.261   4.912  0.5876  0.0190  0.2092
  115MOL0     C15431   5.732   7.378   4.831  0.2042  0.3904  0.0856
  115MOL0     C15432   5.589   7.396   4.884 -0.0180 -0.5897  0.5967
  115MOL0     C15433   5.596   7.475   5.021  0.4400 -0.3737  0.0823
  115MOL0     C15434   5.454   7.488   5.085  0.7216 -0.2732  0.4917
  115MOL0    Cl15435   5.350   7.588   4.983 -0.2872 -0.0510  0.2888
  115MOL0     C15436   6.443   7.065   5.011 -1.0859  0.0821 -0.3446
  115MOL0     C15437   6.581   7.047   4.981 -0.0538 -0.1240  0.4427
  115MOL0     O15438   6.810   7.208   4.672 -0.0455 -0.8369 -0.4527
  115MOL0     C15439   7.022   6.949   4.765  0.1931  0.4328 -0.3618
  115MOL0     C15440   7.145   6.891   4.746 -0.5794 -0.6433  0.3441
  115MOL0     N15441   7.799   6.605   4.528  0.0449  1.0359  0.3519
  115MOL0     N15442   7.840   6.566   4.414 -0.0133 -0.0161 -0.7958
  115MOL0     C15443   8.995   6.302   4.434  0.2712 -0.1336  0.1198
  115MOL0     C15444   9.139   6.300   4.437 -0.5888  0.0432  0.5251
  115MOL0     C15445   9.534   6.290   4.635 -0.7544 -0.3086  0.3580
  115MOL0     C15446   9.640   6.338   4.556 -0.2483  0.5075  0.4677
  115MOL0     C15447   9.774   6.335   4.591  0.0711  0.1364 -0.1060
  115MOL0     C15448   9.806   6.282   4.715 -0.6228  0.9416  0.3560
  115MOL0     O15449   9.936   6.283   4.761  0.0217 -0.3732 -0.2039
  115MOL0     C15450  10.023   6.185   4.702  0.1239 -0.5717  0.0725
  115MOL0     C15451  10.145   6.167   4.793 -0.4047  0.2178 -0.0459
  115MOL0     C15452  10.228   6.050   4.735  0.6254 -0.0191 -0.9542
  115MOL0     C15453  10.344   6.019   4.845  0.1603 -0.5501  0.2549
  115MOL0     C15454  10.460   6.104   4.810  0.4175  0.3789  0.4828
  115MOL0     C15455  10.559   6.185   4.807  0.6904  0.3925  0.7657
  115MOL0     C15456   9.704   6.221   4.796 -0.9845  0.1650  0.1531
  115MOL0     C15457   9.573   6.220   4.748  0.5640  0.0097 -0.1191
  115MOL0     H15458   9.210   6.628   4.526 -0.1691  0.5377 -0.9900
  115MOL0     H15459   8.963   6.633   4.499 -0.4732 -0.5827  1.8527
  115MOL0     H15460   8.736   6.273   4.374  0.2504  0.5813 -0.1786
  115MOL0     H15461   8.764   6.265   4.553 -0.8974 -0.3804  1.0250
  115MOL0     H15462   8.530   6.282   4.554 -1.6076  2.5797  3.5653
  115MOL0     H15463   8.575   6.436   4.577 -1.0545  0.3996 -0.1035
  115MOL0     H15464   8.550   6.506   4.338  0.8458 -0.6947  1.0838
  115MOL0     H15465   8.530   6.340   4.281  0.0381  1.4906 -0.4489
  115MOL0     H15466   8.313   6.328   4.408  0.7434  0.5039 -0.4548
  115MOL0     H15467   8.332   6.481   4.477 -1.0675  2.8365 -2.0262
  115MOL0     H15468   8.338   6.601   4.257  2.8871 -0.6019  0.1333
  115MOL0     H15469   8.310   6.436   4.189 -5.0283 -3.9861  1.6651
  115MOL0     H15470   8.104   6.422   4.298  2.1601 -0.7227 -1.8527
  115MOL0     H15471   8.145   6.565   4.395 -0.0364  0.8252  0.8965
  115MOL0     H15472   8.138   6.722   4.214 -1.0345  1.4663 -2.7058
  115MOL0     H15473   8.118   6.597   4.093 -0.3608 -2.0983 -0.0016
  115MOL0     H15474   7.890   6.574   4.177  0.3333 -0.3911  0.9733
  115MOL0     H15475   7.923   6.746   4.147  0.1239  0.5706  0.4877
  115MOL0     H15476   7.953   6.876   4.418 -0.2363  0.3111  1.7671
  115MOL0     H15477   7.797   6.741   4.755  1.7445  0.7581  0.1909
  115MOL0     H15478   7.877   6.877   4.688  0.5350  0.7178 -0.9036
  115MOL0     H15479   7.663   6.948   4.568  0.5687 -0.7038 -1.9031
  115MOL0     H15480   7.632   6.944   4.740  0.4496  0.1402 -1.6370
  115MOL0     H15481   7.580   6.676   4.651  1.2300  0.3995 -0.4363
  115MOL0     H15482   7.543   6.774   4.513  2.6809  1.2966 -0.7922
  115MOL0     H15483   7.431   6.789   4.801  1.5285  3.4160  0.2466
  115MOL0     H15484   7.337   6.718   4.673  0.4702 -0.9781  1.1776
  115MOL0     H15485   7.290   7.157   4.599 -0.0988 -1.3553 -0.0887
  115MOL0     H15486   7.007   7.341   4.576  0.0699  1.6771  0.6609
  115MOL0     H15487   7.023   7.357   4.747 -2.0094  0.9217 -0.6694
  115MOL0     H15488   7.174   7.364   4.646 -0.6592  0.5721  0.6263
  115MOL0     H15489   6.603   7.090   4.653  2.6998  0.0210  1.5497
  115MOL0     H15490   6.367   7.133   4.674  1.2514  2.7669 -1.2055
  115MOL0     H15491   6.126   7.098   4.742 -1.5156 -0.3174 -1.0239
  115MOL0     H15492   6.129   6.944   4.833 -0.3228  0.2650  0.2509
  115MOL0     H15493   5.910   7.032   4.858  0.0760 -0.2573  0.8585
  115MOL0     H15494   5.982   7.084   5.008 -1.7520 -1.4770  0.2155
  115MOL0     H15495   5.960   7.252   4.752 -0.8897 -2.4372  0.0584
  115MOL0     H15496   6.002   7.311   4.918  1.1105  0.6784 -3.1352
  115MOL0     H15497   5.743   7.170   4.900  0.7838  0.0277 -0.9441
  115MOL0     H15498   5.805   7.272   5.021  0.6889 -1.1234  0.3338
  115MOL0     H15499   5.724   7.346   4.727  1.4560  0.0656  0.0706
  115MOL0     H15500   5.782   7.475   4.830  0.0075  0.4946 -0.8899
  115MOL0     H15501   5.522   7.441   4.812  1.8420 -1.0102 -1.5148
  115MOL0     H15502   5.538   7.300   4.900  1.1368 -0.9913  2.1845
  115MOL0     H15503   5.635   7.575   4.998  2.1720 -1.2270 -0.8637
  115MOL0     H15504   5.671   7.425   5.083 -0.6385 -0.3951  1.4132
  115MOL0     H15505   5.471   7.554   5.170 -0.2264 -1.1978  1.4408
  115MOL0     H15506   5.428   7.385   5.114 -0.9104 -0.2299 -0.6408
  115MOL0     H15507   6.406   7.049   5.112 -1.7013 -1.3425 -0.7739
  115MOL0     H15508   6.645   7.001   5.056  1.1915  0.6298 -0.1153
  115MOL0     H15509   6.951   6.874   4.796  0.9330 -0.1641 -0.1046
  115MOL0     H15510   7.170   6.792   4.783 -0.0097  0.1529  2.2031
  115MOL0     H15511   8.932   6.219   4.404 -1.1097  1.8261 -2.8494
  115MOL0     H15512   9.192   6.209   4.414  0.7450  1.4727 -2.6748
  115MOL0     H15513   9.611   6.385   4.462  1.4238  0.6264 -0.0090
  115MOL0     H15514   9.855   6.385   4.540  0.7921  1.5532  2.2374
  115MOL0     H15515   9.965   6.093   4.695  0.7495 -0.8501 -2.1731
  115MOL0     H15516  10.054   6.205   4.599 -1.0828 -1.0389 -0.4011
  115MOL0     H15517  10.099   6.142   4.889 -0.5223 -0.8128 -0.3641
  115MOL0     H15518  10.214   6.252   4.804  1.4575 -1.0757 -1.2047
  115MOL0     H15519  10.268   6.062   4.635  0.5592 -0.2641 -1.0130
  115MOL0     H15520  10.166   5.959   4.737  0.2941  0.2108  0.0556
  115MOL0     H15521  10.376   5.915   4.847 -1.7666 -1.1664  0.8257
  115MOL0     H15522  10.312   6.040   4.947 -0.6321  1.3876 -0.3288
  115MOL0     H15523  10.639   6.255   4.803 -2.3265  4.1298  0.5697
  115MOL0     H15524   9.734   6.169   4.886  1.6964  0.1010 -0.7091
  115MOL0     H15525   9.493   6.176   4.808 -0.9845 -0.5312 -2.4520
  116MOL0     O15526  10.385   9.136   1.039 -0.0191 -0.6429  0.2184
  116MOL0     C15527  10.431   9.031   1.081 -0.2466  0.1969  0.2187
  116MOL0     O15528  10.373   8.915   1.073  0.3975  0.1234  0.3797
  116MOL0     C15529  10.236   8.890   1.072 -0.9018 -0.2246 -0.1384
  116MOL0     C15530  10.216   8.748   1.069  0.2632  0.4337  0.6264
  116MOL0     C15531  10.081   8.708   1.065  0.6294  0.3109 -0.0836
  116MOL0     C15532   9.974   8.798   1.072 -0.3093  0.2195 -0.8900
  116MOL0     O15533   9.853   8.739   1.069  0.5107 -0.3515 -0.1210
  116MOL0     C15534   9.746   8.816   1.130  0.2451  1.0793 -0.0904
  116MOL0     C15535   9.637   8.709   1.168 -0.2853  1.0119 -0.1451
  116MOL0     C15536   9.523   8.779   1.236  0.7047  0.0842 -1.0308
  116MOL0     C15537   9.551   8.825   1.381 -0.4069  0.2140 -0.2425
  116MOL0     C15538   9.437   8.890   1.457 -0.4041 -1.0758  0.0579
  116MOL0     C15539   9.309   8.807   1.451 -0.1992  0.4553  0.7176
  116MOL0     C15540   9.202   8.868   1.535 -0.2523 -0.9774 -0.5197
  116MOL0     C15541   9.079   8.777   1.524  0.5879  0.2093 -0.1489
  116MOL0     N15542   8.969   8.830   1.598  0.0369 -0.4261 -0.3661
  116MOL0     C15543   8.904   8.949   1.565  0.0585 -0.2384 -0.9828
  116MOL0     C15544   8.787   8.952   1.637  0.2762 -0.0234  0.6395
  116MOL0     C15545   8.686   9.064   1.641 -0.9842 -0.1421 -1.4664
  116MOL0     C15546   8.590   9.056   1.764 -0.2788 -0.1482  0.3679
  116MOL0     C15547   8.506   9.189   1.772  0.0535  0.2068  0.4124
  116MOL0     C15548   8.408   9.186   1.890  0.1312 -0.6944 -0.0259
  116MOL0     O15549   8.341   9.312   1.908 -0.4222  0.0878 -0.5202
  116MOL0     C15550   8.201   9.322   1.894 -0.2991  0.4712  0.4233
  116MOL0     C15551   8.134   9.264   1.783 -0.4360  0.0637  0.4598
  116MOL0     C15552   8.005   9.305   1.750 -0.2846  0.0325 -0.1208
  116MOL0     C15553   7.944   9.253   1.622  0.5432  0.4134 -0.3301
  116MOL0     C15554   7.940   9.405   1.824 -0.1006 -0.2195  0.5148
  116MOL0     C15555   7.792   9.450   1.803 -0.2261 -0.9633 -0.3469
  116MOL0     O15556   7.708   9.357   1.764 -0.0466 -0.4474  0.2209
  116MOL0     C15557   7.583   9.402   1.720  0.8884  0.5062  0.3022
  116MOL0     C15558   7.487   9.453   1.814  0.0370 -0.4963  0.3739
  116MOL0     C15559   7.364   9.489   1.771  1.2359  0.1441  0.1624
  116MOL0     C15560   7.343   9.494   1.629 -0.3907  0.4272  0.3067
  116MOL0     O15561   7.225   9.548   1.597 -0.2973 -0.7390  0.4236
  116MOL0     C15562   7.157   9.528   1.471 -0.1663 -0.4318  0.0445
  116MOL0     C15563   7.024   9.463   1.512  0.2634  0.1325  0.3767
  116MOL0     C15564   6.934   9.434   1.388 -0.1813  0.2803  0.3284
  116MOL0     C15565   6.802   9.366   1.432  0.6328 -0.4248  0.9232
  116MOL0     C15566   6.715   9.351   1.307 -0.1717  0.0001  0.4794
  116MOL0     C15567   6.589   9.275   1.349 -0.4926 -0.3927 -0.1754
  116MOL0     C15568   6.499   9.224   1.230  0.2468 -0.0136  0.8210
  116MOL0     C15569   6.465   9.084   1.240  0.4159 -0.0821 -0.1385
  116MOL0    Cl15570   6.608   8.990   1.184 -0.1142  0.5899  0.2644
  116MOL0     C15571   7.436   9.440   1.543 -0.4724  0.3904  0.6278
  116MOL0     C15572   7.555   9.393   1.587 -0.1070 -0.0493  0.2680
  116MOL0     O15573   7.760   9.567   1.832  0.4107  0.5971  0.2121
  116MOL0     C15574   8.010   9.465   1.930  0.6084  0.5397 -0.2780
  116MOL0     C15575   8.136   9.418   1.965 -0.1222 -0.0565  0.3136
  116MOL0     N15576   8.783   8.827   1.694  0.2649  0.5296 -0.5742
  116MOL0     N15577   8.886   8.755   1.678 -0.3930 -0.2960  0.1130
  116MOL0     C15578   9.991   8.938   1.077  0.5926 -0.1761 -0.6939
  116MOL0     C15579  10.125   8.982   1.077 -0.4211 -0.2746 -0.2128
  116MOL0     C15580  10.574   9.023   1.129  0.9158  0.4775  0.7764
  116MOL0     C15581  10.651   9.135   1.116  0.3738  0.3280  0.0200
  116MOL0     C15582  10.780   9.132   1.164 -0.6165 -0.4057  0.1434
  116MOL0     C15583  10.833   9.022   1.236  0.0933 -0.5931  0.6609
  116MOL0     O15584  10.960   9.033   1.278  0.8792 -0.7004  0.1493
  116MOL0     C15585  11.006   8.980   1.409 -0.6910  0.1992 -0.5395
  116MOL0     C15586  11.155   9.014   1.420 -0.0286 -0.6031 -0.4213
  116MOL0     C15587  11.239   8.926   1.319  0.5081 -0.2224  0.5265
  116MOL0     C15588  11.384   8.973   1.307 -0.6695  0.8724  0.4472
  116MOL0     C15589  11.468   8.964   1.427 -0.2198 -0.2427  0.0360
  116MOL0     C15590  11.546   8.962   1.516  0.4407  0.2754 -0.1982
  116MOL0     C15591  10.749   8.903   1.251 -0.4103 -0.3179 -0.1532
  116MOL0     C15592  10.621   8.904   1.203 -0.5206  0.7511  0.5359
  116MOL0     H15593  10.300   8.681   1.055 -0.1748 -0.1002  0.5255
  116MOL0     H15594  10.060   8.602   1.054 -1.9767  0.9017 -1.5407
  116MOL0     H15595   9.781   8.866   1.221  3.9676  0.2597 -0.8912
  116MOL0     H15596   9.700   8.889   1.063 -2.1841 -0.0739  0.2005
  116MOL0     H15597   9.590   8.655   1.085  1.2479 -1.8078  0.6830
  116MOL0     H15598   9.671   8.630   1.236  2.5047  0.0318 -2.4467
  116MOL0     H15599   9.474   8.845   1.164 -0.6624 -0.0475 -0.2511
  116MOL0     H15600   9.452   8.699   1.255 -1.1230  1.8164 -0.1328
  116MOL0     H15601   9.576   8.735   1.438  0.5782 -0.1085 -1.1491
  116MOL0     H15602   9.639   8.889   1.389 -0.8520  0.8371 -0.2310
  116MOL0     H15603   9.480   8.900   1.557  0.5841  1.0825 -0.5150
  116MOL0     H15604   9.422   8.987   1.409  5.1239  0.2489  0.3245
  116MOL0     H15605   9.277   8.800   1.346  0.4315  2.6875  0.3288
  116MOL0     H15606   9.331   8.705   1.482  4.1125  0.0917 -2.6532
  116MOL0     H15607   9.226   8.863   1.641  1.0701 -2.4777 -0.8453
  116MOL0     H15608   9.168   8.969   1.511 -2.1533 -0.9715  1.8809
  116MOL0     H15609   9.107   8.676   1.557  1.1862  1.0968  2.3161
  116MOL0     H15610   9.037   8.770   1.424 -1.9887  0.5050  0.8281
  116MOL0     H15611   8.943   9.025   1.497 -0.4834  2.4801  1.5397
  116MOL0     H15612   8.736   9.161   1.647 -0.5858 -0.4345  1.1314
  116MOL0     H15613   8.623   9.071   1.552  0.3789  1.5360 -2.3603
  116MOL0     H15614   8.650   9.036   1.853 -0.1962  1.9203  0.8338
  116MOL0     H15615   8.523   8.970   1.755  0.1096 -0.7420  2.6006
  116MOL0     H15616   8.450   9.185   1.678 -0.0687  1.1207  0.4378
  116MOL0     H15617   8.562   9.283   1.778  1.3928 -0.6397  2.1570
  116MOL0     H15618   8.458   9.170   1.986  1.1596 -1.6447 -0.6938
  116MOL0     H15619   8.338   9.105   1.870  2.0101 -1.9264 -1.9970
  116MOL0     H15620   8.186   9.198   1.715 -0.7874  0.3191 -0.0624
  116MOL0     H15621   8.000   9.171   1.576 -0.2866 -0.3647  0.0216
  116MOL0     H15622   7.843   9.216   1.642  0.2236  0.8405 -1.1171
  116MOL0     H15623   7.931   9.334   1.549  0.6253  1.0634  0.3550
  116MOL0     H15624   7.503   9.441   1.921 -0.8319 -1.5808  0.4004
  116MOL0     H15625   7.279   9.493   1.837  2.0681 -1.1231  1.3622
  116MOL0     H15626   7.150   9.624   1.420  0.3821  0.0583  0.8749
  116MOL0     H15627   7.218   9.466   1.404 -0.6677  1.6850 -2.5680
  116MOL0     H15628   7.043   9.368   1.561 -0.3174 -0.3408 -0.2967
  116MOL0     H15629   6.967   9.529   1.578  1.5926  1.5843  0.1148
  116MOL0     H15630   6.978   9.367   1.314 -2.5534  0.4179 -1.3450
  116MOL0     H15631   6.920   9.523   1.325 -1.8038  1.6501  2.4564
  116MOL0     H15632   6.828   9.270   1.477  2.7137 -0.1818  0.3233
  116MOL0     H15633   6.746   9.428   1.503  0.2731 -1.3013  1.4114
  116MOL0     H15634   6.763   9.286   1.233 -2.6719 -1.9080  0.3977
  116MOL0     H15635   6.703   9.450   1.262  1.7644  0.3815  0.7132
  116MOL0     H15636   6.609   9.196   1.422 -0.3869 -0.8038 -0.6429
  116MOL0     H15637   6.531   9.355   1.396  1.4346  0.6060  0.5954
  116MOL0     H15638   6.549   9.252   1.137 -4.0902  3.6217 -0.7846
  116MOL0     H15639   6.402   9.275   1.224  0.3679  0.0850 -0.8348
  116MOL0     H15640   6.378   9.057   1.179 -0.1714 -0.8587  0.9950
  116MOL0     H15641   6.424   9.067   1.340  1.6925  1.2970  0.6638
  116MOL0     H15642   7.405   9.445   1.439 -2.5652  0.6999  1.2155
  116MOL0     H15643   7.636   9.357   1.525 -1.8464  0.2291 -2.3312
  116MOL0     H15644   7.969   9.537   2.000  3.2526  1.7102  0.2018
  116MOL0     H15645   8.185   9.461   2.052  3.0199  1.4699 -1.9830
  116MOL0     H15646   9.908   9.007   1.065  0.0251 -0.3927  1.5442
  116MOL0     H15647  10.132   9.090   1.074 -2.4308 -0.0715  0.4736
  116MOL0     H15648  10.617   9.222   1.058  0.8021  1.4220  1.3678
  116MOL0     H15649  10.846   9.218   1.153  0.7278 -1.5027 -0.6977
  116MOL0     H15650  10.950   9.022   1.494  1.6160  2.4363 -0.0123
  116MOL0     H15651  10.983   8.873   1.417 -0.9533  0.3375  0.8332
  116MOL0     H15652  11.183   8.993   1.524  3.5486  2.3251 -0.5616
  116MOL0     H15653  11.167   9.122   1.401  0.6087 -0.6512 -0.3230
  116MOL0     H15654  11.188   8.927   1.222 -0.0581 -1.1068  0.8064
  116MOL0     H15655  11.235   8.820   1.344  0.3331 -0.1406  0.8419
  116MOL0     H15656  11.384   9.081   1.285 -0.1742  0.8945  0.5468
  116MOL0     H15657  11.442   8.911   1.238 -0.2507 -2.4609  3.5089
  116MOL0     H15658  11.626   8.942   1.585  1.1517 -0.5747 -1.2364
  116MOL0     H15659  10.798   8.821   1.302  0.2768  0.4989  0.5355
  116MOL0     H15660  10.562   8.813   1.213 -0.8402  0.7502 -1.1059
  117MOL0     O15661  10.861   8.536   5.849 -0.1000  0.3965 -0.3346
  117MOL0     C15662  10.884   8.413   5.861  0.0464  0.1735  0.1297
  117MOL0     O15663  10.799   8.309   5.839 -0.5408 -0.6273 -0.0704
  117MOL0     C15664  10.668   8.346   5.817 -0.5373  0.3540  0.1901
  117MOL0     C15665  10.599   8.276   5.722 -0.4309 -0.1810  0.5132
  117MOL0     C15666  10.462   8.288   5.701  0.9058 -0.1686  0.6202
  117MOL0     C15667  10.395   8.385   5.779 -0.1303  0.0218 -0.1688
  117MOL0     O15668  10.266   8.419   5.759 -0.0759  0.6926 -0.2173
  117MOL0     C15669  10.176   8.314   5.783  0.4501  0.5337 -0.4039
  117MOL0     C15670  10.034   8.351   5.759 -0.0383  0.0760 -0.4521
  117MOL0     C15671   9.943   8.239   5.728  0.2663  1.0660  0.5652
  117MOL0     C15672   9.798   8.261   5.698 -0.4766 -0.4073  0.0538
  117MOL0     C15673   9.777   8.336   5.564  0.0858 -0.0241  0.0007
  117MOL0     C15674   9.628   8.373   5.552 -0.7281  0.1863  1.6305
  117MOL0     C15675   9.592   8.438   5.424  0.6244  0.0438  0.7692
  117MOL0     C15676   9.445   8.481   5.425  0.9473 -0.0516 -0.2901
  117MOL0     N15677   9.419   8.528   5.292 -0.5127 -1.3519 -0.5940
  117MOL0     C15678   9.335   8.639   5.277  0.7097  0.7823  0.0798
  117MOL0     C15679   9.309   8.645   5.142  0.0900 -0.4420  0.4732
  117MOL0     C15680   9.199   8.715   5.081  0.3900 -0.3045 -1.1904
  117MOL0     C15681   9.077   8.624   5.088  0.0854  0.7485 -1.1468
  117MOL0     C15682   8.952   8.722   5.055 -0.0946 -0.3420  0.8420
  117MOL0     C15683   8.827   8.666   5.117  0.3932 -0.6661  0.5029
  117MOL0     O15684   8.815   8.690   5.255 -0.1961 -0.5771 -0.4687
  117MOL0     C15685   8.688   8.696   5.315 -0.6031 -0.0579  0.6360
  117MOL0     C15686   8.689   8.692   5.459 -0.4313  0.1534  0.7226
  117MOL0     C15687   8.575   8.711   5.540 -0.2325 -0.2157  0.0715
  117MOL0     C15688   8.600   8.736   5.689  0.9001  1.2651  0.3559
  117MOL0     C15689   8.447   8.722   5.477 -0.4114 -0.0980 -0.1272
  117MOL0     C15690   8.309   8.726   5.539 -0.1814  0.0062 -0.4862
  117MOL0     O15691   8.294   8.679   5.663  0.2038  0.2169 -0.3669
  117MOL0     C15692   8.165   8.664   5.700 -0.3506  1.0485  0.1676
  117MOL0     C15693   8.068   8.591   5.632  0.0724 -0.6128  0.6581
  117MOL0     C15694   7.933   8.585   5.667  0.3481  0.2143  0.5286
  117MOL0     C15695   7.883   8.640   5.786  0.1113 -0.0171 -0.4678
  117MOL0     O15696   7.758   8.622   5.838  0.7465  0.1265  0.3104
  117MOL0     C15697   7.653   8.617   5.743  0.4676 -0.4463 -0.0331
  117MOL0     C15698   7.515   8.637   5.811  0.5525 -0.2887 -0.1390
  117MOL0     C15699   7.405   8.544   5.744 -0.0922 -0.3044 -0.0573
  117MOL0     C15700   7.383   8.572   5.594 -0.3677 -0.0300  0.7127
  117MOL0     C15701   7.229   8.599   5.563 -0.0698  0.0105  0.1821
  117MOL0     C15702   7.152   8.708   5.633 -1.4315  0.2179  0.4185
  117MOL0     C15703   7.013   8.720   5.581  0.7383  0.2292  1.0014
  117MOL0     C15704   6.956   8.865   5.600 -0.8419  0.0238 -0.1064
  117MOL0    Cl15705   6.790   8.868   5.550 -0.2344 -0.5111  0.3424
  117MOL0     C15706   7.981   8.699   5.870 -0.0349  0.2091 -0.1700
  117MOL0     C15707   8.115   8.723   5.824 -0.5030  0.0977 -0.9433
  117MOL0     O15708   8.220   8.764   5.465 -0.2153  0.6134  0.7113
  117MOL0     C15709   8.450   8.718   5.340  1.0679  0.3229 -0.1117
  117MOL0     C15710   8.561   8.714   5.254  0.3363 -0.2433  0.2551
  117MOL0     N15711   9.378   8.548   5.078  0.0019 -0.3558  0.3865
  117MOL0     N15712   9.434   8.477   5.168  0.0298 -0.0920  0.4268
  117MOL0     C15713  10.469   8.464   5.881 -0.4945 -0.0999  0.9987
  117MOL0     C15714  10.606   8.443   5.901  0.4144  0.4965 -0.6811
  117MOL0     C15715  11.016   8.365   5.908 -0.1186  1.0266  0.2972
  117MOL0     C15716  11.129   8.451   5.908  0.3655  0.7624  0.9033
  117MOL0     C15717  11.256   8.413   5.945 -0.6164 -0.0533 -0.8035
  117MOL0     C15718  11.280   8.276   5.982  0.1439  0.3228  0.3599
  117MOL0     O15719  11.406   8.228   6.013  0.1474  0.3452 -0.3115
  117MOL0     C15720  11.522   8.313   6.032  0.7246  0.1880  0.3678
  117MOL0     C15721  11.504   8.367   6.177  0.3445 -1.1752 -0.6608
  117MOL0     C15722  11.640   8.427   6.216  0.2794  0.2131  0.3737
  117MOL0     C15723  11.638   8.511   6.346  0.5587 -0.5285 -0.4404
  117MOL0     C15724  11.777   8.551   6.379  0.7187 -0.1110  0.1523
  117MOL0     C15725  11.884   8.604   6.380 -0.5585  0.5060  0.0531
  117MOL0     C15726  11.174   8.195   5.988 -0.5304  0.3340  0.9045
  117MOL0     C15727  11.043   8.239   5.945  0.1700  0.9651  0.0560
  117MOL0     H15728  10.646   8.206   5.654 -0.8681 -2.5021  2.4382
  117MOL0     H15729  10.418   8.244   5.612  0.1379  1.2981  0.2605
  117MOL0     H15730  10.198   8.224   5.726  0.2841 -0.7879  1.5281
  117MOL0     H15731  10.179   8.277   5.886 -1.7058 -2.7318 -1.3657
  117MOL0     H15732   9.993   8.390   5.852 -0.3405  0.7507 -0.8631
  117MOL0     H15733  10.032   8.429   5.682 -1.1774 -0.5410 -1.0655
  117MOL0     H15734   9.989   8.173   5.653 -0.3787 -2.3443  2.9320
  117MOL0     H15735   9.952   8.167   5.809  0.9348 -0.1682 -0.5576
  117MOL0     H15736   9.750   8.163   5.684 -0.5348 -0.2342 -1.1063
  117MOL0     H15737   9.753   8.307   5.786 -1.3569 -2.8326  0.9630
  117MOL0     H15738   9.829   8.431   5.551 -2.7821  1.4910 -1.4833
  117MOL0     H15739   9.793   8.274   5.475  1.3656 -0.1031  0.2768
  117MOL0     H15740   9.561   8.287   5.559  0.4867 -0.8621  0.8402
  117MOL0     H15741   9.598   8.445   5.629  0.2337  0.3833  1.8279
  117MOL0     H15742   9.649   8.529   5.408  0.9885  0.1708  2.5501
  117MOL0     H15743   9.601   8.362   5.346 -0.5935  0.1873  0.4719
  117MOL0     H15744   9.430   8.566   5.492 -2.1620 -0.8999  0.2561
  117MOL0     H15745   9.384   8.394   5.450  0.4650  0.4382  0.2426
  117MOL0     H15746   9.277   8.690   5.353 -0.3949 -0.7746  0.3271
  117MOL0     H15747   9.185   8.808   5.137  3.0168 -0.2235 -0.5391
  117MOL0     H15748   9.221   8.736   4.977  1.6303  0.0437 -0.8736
  117MOL0     H15749   9.069   8.581   5.188  1.5156  3.4266  0.2309
  117MOL0     H15750   9.075   8.547   5.010  0.3681  0.8748 -1.2799
  117MOL0     H15751   8.948   8.715   4.946 -2.5100  0.3026  0.8291
  117MOL0     H15752   8.969   8.826   5.086  0.3736  0.3301 -1.4955
  117MOL0     H15753   8.817   8.561   5.089 -0.0511  0.3855 -4.0928
  117MOL0     H15754   8.738   8.705   5.067  0.9347 -0.6141 -0.4358
  117MOL0     H15755   8.782   8.683   5.514  1.2833  3.0300 -1.4572
  117MOL0     H15756   8.507   8.765   5.738 -0.9675 -4.1425  0.6629
  117MOL0     H15757   8.629   8.641   5.735  1.2974  0.7132 -0.9922
  117MOL0     H15758   8.673   8.814   5.715  1.8803  0.8738 -1.1205
  117MOL0     H15759   8.092   8.554   5.533  2.7205 -0.8955  1.3342
  117MOL0     H15760   7.873   8.530   5.595  1.3097 -1.1310  0.7116
  117MOL0     H15761   7.663   8.702   5.675 -2.5979 -0.7334 -0.9913
  117MOL0     H15762   7.656   8.529   5.678 -2.9396 -0.1622 -0.7715
  117MOL0     H15763   7.522   8.591   5.910  0.1768  0.1912  0.1135
  117MOL0     H15764   7.480   8.740   5.820  0.2701 -0.5372  2.8373
  117MOL0     H15765   7.309   8.537   5.796  0.1743  2.1472  0.8798
  117MOL0     H15766   7.445   8.442   5.753  2.5845  0.7454  0.6793
  117MOL0     H15767   7.431   8.667   5.567  0.2927  0.2097  2.5574
  117MOL0     H15768   7.422   8.487   5.537 -0.2913  0.4988 -0.0408
  117MOL0     H15769   7.173   8.507   5.583 -1.4901  0.8224  0.0978
  117MOL0     H15770   7.230   8.627   5.457  2.2797  1.8383  0.6208
  117MOL0     H15771   7.153   8.689   5.741  1.2907 -0.7586  0.2886
  117MOL0     H15772   7.200   8.806   5.625  1.5906 -1.2568 -1.3895
  117MOL0     H15773   6.938   8.661   5.634 -2.1140  0.7159 -2.1988
  117MOL0     H15774   7.012   8.703   5.473  2.3322  0.8742  0.8527
  117MOL0     H15775   7.017   8.934   5.542  2.2668 -1.2447  1.4089
  117MOL0     H15776   6.969   8.886   5.706 -1.1747  2.0119 -0.4365
  117MOL0     H15777   7.961   8.731   5.971 -0.0179  0.8525 -0.3696
  117MOL0     H15778   8.183   8.771   5.894 -0.6886 -1.1034  0.0853
  117MOL0     H15779   8.356   8.732   5.288  0.4495  0.1602  0.9487
  117MOL0     H15780   8.555   8.717   5.145 -0.1860 -2.5614  0.1589
  117MOL0     H15781  10.411   8.538   5.935  1.3989  0.5939  2.1511
  117MOL0     H15782  10.650   8.491   5.988 -0.8406  1.5661 -0.6026
  117MOL0     H15783  11.111   8.551   5.870 -1.7637 -0.8233 -2.8334
  117MOL0     H15784  11.324   8.498   5.945  0.4186 -0.8462  0.3224
  117MOL0     H15785  11.615   8.258   6.017 -0.7985 -1.9705 -1.7355
  117MOL0     H15786  11.523   8.387   5.952  2.6284 -2.5311 -2.3557
  117MOL0     H15787  11.483   8.289   6.251 -1.5560  0.0914  0.2081
  117MOL0     H15788  11.417   8.433   6.189  1.6505  0.0621  4.7519
  117MOL0     H15789  11.666   8.500   6.138 -1.7221 -1.3028 -1.8703
  117MOL0     H15790  11.722   8.355   6.226 -0.6207 -0.4958  7.3092
  117MOL0     H15791  11.594   8.456   6.429  0.7923 -0.0903 -0.0203
  117MOL0     H15792  11.567   8.594   6.337  0.6037 -0.3330  0.8224
  117MOL0     H15793  11.986   8.637   6.384  0.3129 -2.0935  1.5814
  117MOL0     H15794  11.188   8.095   6.028  1.0604  0.7620  1.5031
  117MOL0     H15795  10.964   8.164   5.948  0.8144  0.2149  4.0268
  118MOL0     O15796   8.466  10.529   7.755  0.5623  0.0748  0.4388
  118MOL0     C15797   8.523  10.631   7.808  0.1896  0.5325 -0.5628
  118MOL0     O15798   8.475  10.705   7.920 -0.0056 -0.1616 -0.3757
  118MOL0     C15799   8.371  10.662   7.998  0.6932 -0.0860 -0.3322
  118MOL0     C15800   8.289  10.757   8.053  0.0537 -0.5674 -0.2743
  118MOL0     C15801   8.201  10.740   8.158  1.1351 -0.0513 -0.6254
  118MOL0     C15802   8.182  10.616   8.216 -0.2023 -0.3392 -0.4503
  118MOL0     O15803   8.109  10.587   8.326  0.1493  0.2693  0.4986
  118MOL0     C15804   8.026  10.687   8.375  0.2284  0.1362 -1.4621
  118MOL0     C15805   7.966  10.640   8.505  0.2122 -0.2084  0.9307
  118MOL0     C15806   7.867  10.747   8.548  0.4013 -0.4664  0.0914
  118MOL0     C15807   7.784  10.691   8.661 -0.0845  0.4311  0.0937
  118MOL0     C15808   7.649  10.767   8.675  0.4176 -0.1434 -0.1514
  118MOL0     C15809   7.574  10.711   8.799  0.0005  0.5232  0.7271
  118MOL0     C15810   7.453  10.798   8.827 -0.0477  0.0501 -0.5646
  118MOL0     C15811   7.360  10.725   8.925  0.6103 -1.3182  0.0170
  118MOL0     N15812   7.220  10.774   8.917 -0.7413  0.3667  0.2328
  118MOL0     C15813   7.132  10.739   8.821  0.5119  0.4873 -0.3470
  118MOL0     C15814   7.031  10.829   8.849 -0.1056  0.5293  0.1883
  118MOL0     C15815   6.896  10.821   8.795 -0.3883 -0.2316  0.6227
  118MOL0     C15816   6.789  10.851   8.912 -0.2509 -0.5617 -0.1142
  118MOL0     C15817   6.645  10.806   8.852 -0.2532 -0.3779 -0.1895
  118MOL0     C15818   6.525  10.811   8.949  0.2432 -0.4978  0.3379
  118MOL0     O15819   6.559  10.702   9.037  1.5108 -0.2364 -0.4803
  118MOL0     C15820   6.456  10.643   9.106  0.0015  0.3149 -0.5172
  118MOL0     C15821   6.461  10.509   9.148 -1.2551  0.1103 -0.2271
  118MOL0     C15822   6.359  10.448   9.226  0.0593  0.6521 -0.1078
  118MOL0     C15823   6.381  10.303   9.252  0.1426 -0.9670  0.5462
  118MOL0     C15824   6.243  10.514   9.265 -0.1055 -0.4386  0.1805
  118MOL0     C15825   6.128  10.463   9.348  0.0901 -0.6554 -0.2513
  118MOL0     O15826   6.017  10.545   9.360  0.0606 -0.0633 -0.5164
  118MOL0     C15827   5.908  10.496   9.430 -0.4474 -0.8604 -0.5643
  118MOL0     C15828   5.851  10.371   9.405  0.3758  0.3402 -0.1801
  118MOL0     C15829   5.735  10.331   9.475 -0.3068 -0.3791 -0.1721
  118MOL0     C15830   5.684  10.406   9.584 -1.1684  1.1024  0.2682
  118MOL0     O15831   5.565  10.354   9.629 -0.3510  0.0915  0.3165
  118MOL0     C15832   5.483  10.419   9.725  0.4938 -0.5253  0.2526
  118MOL0     C15833   5.454  10.324   9.832  0.8026  0.1776  0.1420
  118MOL0     C15834   5.390  10.387   9.951  0.8584 -0.3999 -0.5091
  118MOL0     C15835   5.389  10.305  10.083  1.2372  0.2659 -0.2601
  118MOL0     C15836   5.267  10.231  10.104  0.0203 -0.3049 -0.5196
  118MOL0     C15837   5.137  10.314  10.130 -0.2506  0.1308  0.6144
  118MOL0     C15838   5.014  10.223  10.168 -0.2876  0.3916 -0.4402
  118MOL0     C15839   5.028  10.152  10.304  0.2464  0.3007  0.3051
  118MOL0    Cl15840   4.876  10.087  10.348 -0.1715  0.2471 -0.2174
  118MOL0     C15841   5.740  10.519   9.620  0.2501  0.5257  0.4150
  118MOL0     C15842   5.857  10.559   9.543  0.2117 -0.7281 -0.2420
  118MOL0     O15843   6.141  10.354   9.406 -0.7431 -0.3552 -0.1353
  118MOL0     C15844   6.245  10.650   9.227  0.4986 -0.5378  0.2748
  118MOL0     C15845   6.340  10.710   9.146 -0.8810  0.2366 -0.4280
  118MOL0     N15846   7.066  10.916   8.945  0.2002  0.0189 -0.1560
  118MOL0     N15847   7.182  10.877   8.984 -0.5077 -0.6396 -0.6260
  118MOL0     C15848   8.249  10.513   8.147  0.4016 -0.3087 -0.7134
  118MOL0     C15849   8.340  10.535   8.039 -0.1182 -0.2539  0.4457
  118MOL0     C15850   8.655  10.679   7.763  0.6133  0.4601  0.7637
  118MOL0     C15851   8.715  10.610   7.648 -0.4687 -0.3402 -0.5051
  118MOL0     C15852   8.841  10.654   7.603 -0.0157  0.4156  1.0549
  118MOL0     C15853   8.908  10.767   7.661  0.0575  1.3238 -0.1206
  118MOL0     O15854   9.031  10.805   7.601  0.4275  0.4004  0.2091
  118MOL0     C15855   9.110  10.902   7.663 -0.3829  0.2191  0.3592
  118MOL0     C15856   9.226  10.933   7.561 -0.0007  0.5961 -0.2988
  118MOL0     C15857   9.157  10.981   7.427  0.9947  0.3265  0.9031
  118MOL0     C15858   9.257  11.038   7.327  0.3619 -0.7235 -0.9337
  118MOL0     C15859   9.357  10.945   7.283 -0.2779  0.0477  0.2638
  118MOL0     C15860   9.450  10.868   7.255 -0.0605 -0.1040 -0.1050
  118MOL0     C15861   8.858  10.828   7.774  0.2916  0.6067 -1.3309
  118MOL0     C15862   8.728  10.786   7.812 -0.4789  0.0081 -0.5722
  118MOL0     H15863   8.310  10.855   8.013  0.5908 -0.8961 -0.8049
  118MOL0     H15864   8.154  10.828   8.201 -0.2914 -0.5428 -1.1252
  118MOL0     H15865   8.091  10.772   8.398  0.5625 -0.6769  0.7956
  118MOL0     H15866   7.952  10.724   8.303 -1.7911 -0.7954  0.0455
  118MOL0     H15867   7.920  10.544   8.478 -0.0015  0.4744 -1.3435
  118MOL0     H15868   8.044  10.630   8.581 -0.3421 -1.2591  1.3841
  118MOL0     H15869   7.910  10.845   8.573 -2.6396  1.0551 -0.1487
  118MOL0     H15870   7.797  10.769   8.466 -2.2145  1.0710  2.5823
  118MOL0     H15871   7.764  10.583   8.659  3.1231 -0.3806  2.4296
  118MOL0     H15872   7.843  10.708   8.752 -1.0125  0.8887  0.6211
  118MOL0     H15873   7.670  10.873   8.691 -3.2663  0.7593 -0.3413
  118MOL0     H15874   7.581  10.771   8.590  1.8426  0.8355 -1.3061
  118MOL0     H15875   7.543  10.609   8.773  0.8038  1.1688 -3.6555
  118MOL0     H15876   7.634  10.705   8.890  2.5280  1.1485 -0.8128
  118MOL0     H15877   7.481  10.887   8.884  1.2042 -0.5256 -0.2509
  118MOL0     H15878   7.398  10.825   8.736 -0.8134 -0.6681 -0.3360
  118MOL0     H15879   7.391  10.740   9.029 -0.8375  1.4977  0.1637
  118MOL0     H15880   7.363  10.620   8.896  2.2921 -2.5803  4.1317
  118MOL0     H15881   7.125  10.653   8.757 -1.9421  0.8787 -0.7272
  118MOL0     H15882   6.889  10.888   8.708  1.8777 -0.8125 -0.0848
  118MOL0     H15883   6.876  10.721   8.755  1.4054 -0.6483  0.6922
  118MOL0     H15884   6.798  10.957   8.936 -0.5102 -0.3221 -1.0224
  118MOL0     H15885   6.809  10.790   9.001  0.9798 -0.9472 -0.6207
  118MOL0     H15886   6.656  10.699   8.830  1.7452  0.2191 -2.4758
  118MOL0     H15887   6.626  10.856   8.757  1.7405 -0.1331 -0.5108
  118MOL0     H15888   6.435  10.789   8.891  1.4976 -3.2248 -0.7618
  118MOL0     H15889   6.520  10.907   9.001 -0.6151 -0.0552 -0.5185
  118MOL0     H15890   6.542  10.447   9.111 -3.5902 -2.7277 -0.9564
  118MOL0     H15891   6.287  10.258   9.218  1.7645 -3.9855 -0.3030
  118MOL0     H15892   6.454  10.244   9.196  1.5579  0.5058  0.7904
  118MOL0     H15893   6.401  10.291   9.359  1.5850  0.8145  0.5132
  118MOL0     H15894   5.890  10.309   9.325 -0.2732  0.4020 -0.5463
  118MOL0     H15895   5.699  10.232   9.451  1.3969 -1.3535  1.1083
  118MOL0     H15896   5.524  10.502   9.783 -1.9063 -1.3823  3.4416
  118MOL0     H15897   5.400  10.461   9.668  1.4601  3.1464  1.2935
  118MOL0     H15898   5.383  10.251   9.792  2.0860 -1.6250  1.0157
  118MOL0     H15899   5.548  10.273   9.855 -0.2867 -2.0767 -0.2026
  118MOL0     H15900   5.289  10.422   9.927  0.9055 -1.2346 -2.0640
  118MOL0     H15901   5.452  10.470   9.987 -1.7143  0.2572  3.0047
  118MOL0     H15902   5.470  10.232  10.091  0.1940 -0.7126  3.4843
  118MOL0     H15903   5.396  10.369  10.172 -3.4438 -0.5584  0.9653
  118MOL0     H15904   5.279  10.172  10.195 -0.4671  1.5140  0.7949
  118MOL0     H15905   5.229  10.173  10.020 -0.4015 -2.0143  0.8073
  118MOL0     H15906   5.164  10.388  10.205  2.5155 -0.2523  0.0946
  118MOL0     H15907   5.114  10.379  10.044  0.2142  2.2742  2.0290
  118MOL0     H15908   5.016  10.152  10.085  3.2428  4.2824 -4.1710
  118MOL0     H15909   4.923  10.283  10.170 -0.6417 -0.1602  0.2911
  118MOL0     H15910   5.055  10.224  10.382  0.7430 -0.1541  0.5603
  118MOL0     H15911   5.100  10.070  10.297  1.8974  1.4297  2.8210
  118MOL0     H15912   5.704  10.573   9.707 -0.4549  1.4982 -0.4632
  118MOL0     H15913   5.895  10.655   9.577 -2.3082  0.1349  0.3816
  118MOL0     H15914   6.155  10.708   9.243 -2.4528 -3.2581 -4.1169
  118MOL0     H15915   6.330  10.816   9.125 -3.3283  0.0588 -0.4676
  118MOL0     H15916   8.235  10.408   8.173  0.3026  0.1014  0.9867
  118MOL0     H15917   8.395  10.455   7.990 -0.9253 -0.2107 -0.5325
  118MOL0     H15918   8.675  10.517   7.611 -0.8587  0.7001 -2.8689
  118MOL0     H15919   8.892  10.595   7.528 -0.4947 -1.2257  1.9691
  118MOL0     H15920   9.057  10.993   7.693 -1.3166 -0.5324  1.0761
  118MOL0     H15921   9.145  10.853   7.754  1.8138 -1.0748 -1.0834
  118MOL0     H15922   9.275  10.839   7.535 -2.5433 -0.3743 -1.9939
  118MOL0     H15923   9.290  11.013   7.601 -0.9253 -0.0907  2.8598
  118MOL0     H15924   9.077  11.048   7.462  0.8125 -0.0044  1.1294
  118MOL0     H15925   9.117  10.896   7.371  3.0736  0.2594 -0.5961
  118MOL0     H15926   9.307  11.125   7.371 -0.6014 -0.6325  0.0013
  118MOL0     H15927   9.212  11.075   7.234  2.0464  1.6126 -0.8980
  118MOL0     H15928   9.536  10.809   7.233 -1.6351 -2.3680 -0.5758
  118MOL0     H15929   8.904  10.911   7.827 -1.9357  0.7937  0.4547
  118MOL0     H15930   8.684  10.829   7.902 -1.1623 -0.0941 -0.8538
  119MOL0     O15931   1.269   5.095   0.626  0.2901  0.1991  0.0459
  119MOL0     C15932   1.246   5.210   0.590  0.9053  0.4861 -0.5056
  119MOL0     O15933   1.133   5.284   0.614 -0.3295 -0.3975  0.0321
  119MOL0     C15934   1.022   5.239   0.688  0.1118  0.1098  0.0923
  119MOL0     C15935   0.928   5.340   0.719  0.6500  0.3674  0.5464
  119MOL0     C15936   0.810   5.307   0.782  0.2056  0.1481 -0.0463
  119MOL0     C15937   0.783   5.172   0.815  0.2434 -0.0555 -0.1546
  119MOL0     O15938   0.658   5.130   0.860  0.1635  0.0475  0.0869
  119MOL0     C15939   0.541   5.204   0.823  0.1217 -0.5657 -0.1480
  119MOL0     C15940   0.427   5.121   0.874  0.2735 -0.2525  0.1911
  119MOL0     C15941   0.295   5.184   0.818  0.1111  0.0838 -0.3129
  119MOL0     C15942   0.178   5.097   0.850  0.7724 -0.3541  0.7348
  119MOL0     C15943   0.046   5.150   0.799 -0.6333  0.0947 -0.0204
  119MOL0     C15944   0.012   5.287   0.862  0.7163 -0.4351  0.0214
  119MOL0     C15945  -0.120   5.342   0.827  0.6336  0.1914  0.6708
  119MOL0     C15946  -0.136   5.486   0.876 -0.6396  0.0679  0.0269
  119MOL0     N15947  -0.048   5.586   0.804  0.0503 -0.3583 -1.2530
  119MOL0     C15948  -0.056   5.631   0.681 -0.4593 -0.6127 -0.1546
  119MOL0     C15949   0.035   5.731   0.672 -0.0680 -0.7292  0.4267
  119MOL0     C15950   0.051   5.824   0.552 -0.4766 -0.4288  0.2427
  119MOL0     C15951   0.007   5.976   0.576  1.0053 -0.4142  0.4085
  119MOL0     C15952  -0.148   5.985   0.556 -0.0127 -0.1887 -0.1428
  119MOL0     C15953  -0.211   6.126   0.545  0.2651 -0.1960  0.2376
  119MOL0     O15954  -0.323   6.109   0.456  0.0992 -0.3488  0.0212
  119MOL0     C15955  -0.417   6.202   0.470  0.9310  0.3533 -0.1548
  119MOL0     C15956  -0.400   6.336   0.510 -0.5564  0.2059 -0.0054
  119MOL0     C15957  -0.508   6.425   0.509 -0.0242  0.0763  0.0463
  119MOL0     C15958  -0.493   6.564   0.568  0.8735  0.0507  1.8806
  119MOL0     C15959  -0.632   6.366   0.469 -0.4338 -0.1154  0.7063
  119MOL0     C15960  -0.751   6.462   0.459  0.2247  0.0988 -0.0718
  119MOL0     O15961  -0.869   6.398   0.475  0.0980  0.3767 -0.1941
  119MOL0     C15962  -0.986   6.474   0.473  0.0533  0.7531 -0.2218
  119MOL0     C15963  -1.034   6.534   0.590 -0.1741 -0.1924  0.1597
  119MOL0     C15964  -1.165   6.584   0.595 -1.1838 -0.1594 -0.3447
  119MOL0     C15965  -1.252   6.578   0.481 -0.7025 -1.0565  0.5669
  119MOL0     O15966  -1.391   6.601   0.490 -0.6607  0.3848 -0.0167
  119MOL0     C15967  -1.454   6.648   0.366 -0.4090 -0.1276 -0.7306
  119MOL0     C15968  -1.543   6.770   0.391 -0.3498  0.3452  1.0091
  119MOL0     C15969  -1.649   6.787   0.281  0.4178 -0.0806 -0.3462
  119MOL0     C15970  -1.713   6.924   0.310  1.2171 -0.2924 -0.2761
  119MOL0     C15971  -1.820   6.952   0.208 -1.2439  0.7101  0.2170
  119MOL0     C15972  -1.882   7.085   0.255 -0.5483 -0.1351  0.7420
  119MOL0     C15973  -1.960   7.158   0.156 -0.4800 -0.5498  0.2798
  119MOL0     C15974  -2.018   7.283   0.221  0.1039  0.3372  0.4405
  119MOL0    Cl15975  -2.101   7.364   0.092 -0.0701 -0.1120  0.0536
  119MOL0     C15976  -1.199   6.514   0.369  0.0469  0.3289  0.2382
  119MOL0     C15977  -1.070   6.458   0.361 -0.5927  0.1212  1.0855
  119MOL0     O15978  -0.736   6.582   0.445 -0.1009  0.1335 -0.0939
  119MOL0     C15979  -0.650   6.234   0.426 -0.3810 -0.3673  0.5932
  119MOL0     C15980  -0.540   6.149   0.419 -0.3993  0.1985 -0.4059
  119MOL0     N15981   0.107   5.735   0.789  0.1377  0.1370  0.3049
  119MOL0     N15982   0.056   5.641   0.867 -0.0060  0.2056 -0.2224
  119MOL0     C15983   0.879   5.073   0.796 -0.7782 -0.1067  1.2999
  119MOL0     C15984   0.997   5.111   0.733  0.0346  0.6512  0.1019
  119MOL0     C15985   1.364   5.279   0.554 -0.6220 -1.2940  0.2253
  119MOL0     C15986   1.379   5.416   0.587 -0.2917 -0.1887  0.0818
  119MOL0     C15987   1.493   5.490   0.554 -0.7824  0.2755  0.6623
  119MOL0     C15988   1.596   5.423   0.495 -0.8267  0.5601  0.3172
  119MOL0     O15989   1.702   5.505   0.454  0.0545  0.3178 -0.6326
  119MOL0     C15990   1.808   5.453   0.372  0.1173  0.1632  0.4783
  119MOL0     C15991   1.919   5.377   0.445 -0.2605  0.7371  0.4171
  119MOL0     C15992   1.956   5.455   0.568 -1.2426 -0.0248 -0.1693
  119MOL0     C15993   2.089   5.405   0.631 -0.6336  0.5260  0.0990
  119MOL0     C15994   2.138   5.491   0.736 -0.6606 -1.4658  0.9546
  119MOL0     C15995   2.182   5.562   0.821  0.2884  0.2285  0.1521
  119MOL0     C15996   1.589   5.286   0.478  0.1938  0.3106  0.0898
  119MOL0     C15997   1.467   5.212   0.491 -0.3252 -0.6674  0.5628
  119MOL0     H15998   0.953   5.438   0.680  2.7740 -0.8900 -1.5492
  119MOL0     H15999   0.738   5.387   0.799 -0.0599 -0.1737  0.3653
  119MOL0     H16000   0.534   5.303   0.869  0.0187  0.2850 -1.9312
  119MOL0     H16001   0.537   5.206   0.714  2.9068 -1.1860 -0.3492
  119MOL0     H16002   0.443   5.017   0.843  0.5705  0.3083 -1.6144
  119MOL0     H16003   0.415   5.119   0.983  2.3313 -3.6446  0.5353
  119MOL0     H16004   0.278   5.283   0.861 -1.2811  0.3064 -1.2980
  119MOL0     H16005   0.302   5.188   0.709  2.2118  2.6759 -0.2113
  119MOL0     H16006   0.195   4.995   0.812  0.9725 -0.4533  1.0887
  119MOL0     H16007   0.172   5.077   0.957  1.5847 -1.0038  0.6755
  119MOL0     H16008   0.051   5.170   0.692 -1.7227 -0.2844 -0.1584
  119MOL0     H16009  -0.034   5.078   0.819  0.7335 -1.6787 -0.7414
  119MOL0     H16010   0.021   5.270   0.970 -1.7159  0.5707  0.4464
  119MOL0     H16011   0.090   5.361   0.841 -0.9064  1.7239  1.2141
  119MOL0     H16012  -0.136   5.349   0.719  1.1326 -2.5310  0.3422
  119MOL0     H16013  -0.198   5.278   0.871  1.0703 -0.1106  1.0141
  119MOL0     H16014  -0.110   5.487   0.982 -0.6644  0.6284  0.0267
  119MOL0     H16015  -0.239   5.520   0.867 -1.5167 -1.8207  2.0704
  119MOL0     H16016  -0.128   5.610   0.602 -0.0389  2.5719 -1.5314
  119MOL0     H16017   0.158   5.832   0.531 -0.8401  0.6043 -1.4005
  119MOL0     H16018   0.003   5.782   0.463  1.4057 -0.7785 -0.6607
  119MOL0     H16019   0.057   6.052   0.516  0.3627 -0.1332  0.2205
  119MOL0     H16020   0.030   6.011   0.677 -0.9598  1.2658  0.3504
  119MOL0     H16021  -0.193   5.939   0.644 -0.1661 -2.6237 -1.4124
  119MOL0     H16022  -0.181   5.924   0.472 -0.6307 -2.4924  1.6678
  119MOL0     H16023  -0.144   6.206   0.511  0.9079 -0.5172  0.7146
  119MOL0     H16024  -0.230   6.164   0.646  1.8318  1.4277 -0.0251
  119MOL0     H16025  -0.304   6.372   0.548  0.5271  0.1037 -2.4442
  119MOL0     H16026  -0.575   6.580   0.638 -1.6063  1.8675 -1.1989
  119MOL0     H16027  -0.398   6.579   0.620  2.7285  1.9145 -1.7165
  119MOL0     H16028  -0.498   6.634   0.485  0.3100 -0.6066  1.3453
  119MOL0     H16029  -0.967   6.536   0.675 -0.3764  3.9127  0.4066
  119MOL0     H16030  -1.199   6.613   0.694 -1.1591  1.2419 -0.7388
  119MOL0     H16031  -1.388   6.676   0.284  0.4319  0.0416 -0.0105
  119MOL0     H16032  -1.520   6.564   0.341 -1.3136 -0.6547  2.8614
  119MOL0     H16033  -1.593   6.753   0.486 -1.9085 -0.8722  0.0219
  119MOL0     H16034  -1.484   6.862   0.387  1.0157 -0.5362 -0.7268
  119MOL0     H16035  -1.719   6.703   0.286  0.3242  0.0107 -0.0671
  119MOL0     H16036  -1.598   6.796   0.185  0.1926  2.5352 -0.3109
  119MOL0     H16037  -1.765   6.915   0.406  1.2393 -3.9184 -0.4450
  119MOL0     H16038  -1.645   7.009   0.321  1.2947 -0.5873  2.0526
  119MOL0     H16039  -1.896   6.874   0.194 -1.9688  1.2970  0.8045
  119MOL0     H16040  -1.776   6.968   0.109 -1.8464 -2.2604 -0.6372
  119MOL0     H16041  -1.946   7.066   0.342 -0.1700 -2.6375  0.5491
  119MOL0     H16042  -1.805   7.153   0.293 -0.3367 -1.1488  2.2313
  119MOL0     H16043  -2.043   7.098   0.117 -0.5887 -1.1658  1.4124
  119MOL0     H16044  -1.896   7.191   0.074  1.2163  0.2004  1.8271
  119MOL0     H16045  -1.939   7.356   0.241 -2.0756  3.8543 -2.5364
  119MOL0     H16046  -2.089   7.273   0.304 -5.5858  3.0182 -3.4803
  119MOL0     H16047  -1.255   6.495   0.279  1.6735 -0.3989 -0.6754
  119MOL0     H16048  -1.040   6.402   0.274 -3.7032  2.1063 -1.4822
  119MOL0     H16049  -0.744   6.196   0.387  1.1987 -1.1981 -2.7952
  119MOL0     H16050  -0.544   6.049   0.377 -1.6359 -0.0170  0.1952
  119MOL0     H16051   0.869   4.968   0.821  1.6750 -1.3500 -2.2206
  119MOL0     H16052   1.069   5.033   0.709 -0.6181  0.7915 -2.6398
  119MOL0     H16053   1.296   5.470   0.632 -1.1175 -0.3387 -1.2041
  119MOL0     H16054   1.494   5.598   0.569  0.2430  0.4255 -0.3178
  119MOL0     H16055   1.779   5.390   0.287  4.3582 -2.9230  0.9402
  119MOL0     H16056   1.861   5.541   0.334  0.5084  0.4046  1.5586
  119MOL0     H16057   2.002   5.368   0.375 -1.2929  1.0512 -0.8877
  119MOL0     H16058   1.868   5.282   0.465 -1.3640  1.2917  0.3549
  119MOL0     H16059   1.888   5.440   0.653 -0.5304  0.1995  0.4574
  119MOL0     H16060   1.972   5.560   0.542  0.3895  0.2668  1.7307
  119MOL0     H16061   2.171   5.393   0.560 -1.3899 -1.2585 -0.5255
  119MOL0     H16062   2.066   5.304   0.667  2.7991  0.1362  1.5744
  119MOL0     H16063   2.220   5.616   0.906 -2.6009  3.3423 -0.3430
  119MOL0     H16064   1.670   5.222   0.446 -3.7691 -5.7265  0.5604
  119MOL0     H16065   1.451   5.109   0.460 -1.6056 -1.1256  2.5949
  120MOL0     O16066   9.716   0.352  10.068 -0.3877  0.0638 -0.0010
  120MOL0     C16067   9.710   0.236  10.092  0.5618 -1.1507 -0.0190
  120MOL0     O16068   9.592   0.165  10.082  0.2275 -0.0357  0.1558
  120MOL0     C16069   9.487   0.227  10.017 -0.3427 -0.2193 -0.4715
  120MOL0     C16070   9.426   0.346  10.068  1.0202  0.2241 -0.3163
  120MOL0     C16071   9.307   0.394   9.990  0.0067  0.1377 -0.6521
  120MOL0     C16072   9.247   0.320   9.886 -0.5157  0.4375  0.8888
  120MOL0     O16073   9.134   0.356   9.809 -0.1801 -0.0220  0.4237
  120MOL0     C16074   9.056   0.467   9.856 -0.2016 -0.0206  0.1780
  120MOL0     C16075   8.923   0.486   9.794 -0.6216 -0.1437  0.1705
  120MOL0     C16076   8.822   0.381   9.826 -0.0438  0.0921 -0.3103
  120MOL0     C16077   8.698   0.404   9.747  0.2536 -0.9954  0.0132
  120MOL0     C16078   8.586   0.303   9.781  0.6220 -0.1488  0.3192
  120MOL0     C16079   8.580   0.196   9.670  0.2294  0.7129  0.1087
  120MOL0     C16080   8.698   0.100   9.657  0.0243 -0.0418 -0.3180
  120MOL0     C16081   8.676  -0.006   9.550  0.7628  0.6749 -0.0817
  120MOL0     N16082   8.551  -0.076   9.563  0.4905 -0.0295  0.4781
  120MOL0     C16083   8.455  -0.062   9.466 -0.2914 -0.6766  0.2131
  120MOL0     C16084   8.347  -0.111   9.530 -0.0540  0.4821  0.3589
  120MOL0     C16085   8.219  -0.141   9.459  0.2489 -0.2533 -0.5410
  120MOL0     C16086   8.225  -0.273   9.379  0.0082 -0.2735  0.2937
  120MOL0     C16087   8.096  -0.304   9.309 -0.3367 -0.4765 -0.3443
  120MOL0     C16088   7.960  -0.296   9.391 -0.2220  0.4061 -0.7726
  120MOL0     O16089   7.909  -0.163   9.367  0.3683  0.6368  0.0356
  120MOL0     C16090   7.790  -0.122   9.422  0.1250  0.1679  0.4456
  120MOL0     C16091   7.728  -0.005   9.369  1.3934 -0.0585 -0.5213
  120MOL0     C16092   7.603   0.045   9.421  0.0997 -0.1594  0.1581
  120MOL0     C16093   7.554   0.186   9.378 -0.2322  0.4453  0.0259
  120MOL0     C16094   7.526  -0.033   9.519  0.2949  0.5505  0.5166
  120MOL0     C16095   7.392   0.003   9.575  0.4571  0.7968 -1.1761
  120MOL0     O16096   7.314   0.098   9.506 -0.1703  0.1156 -0.2495
  120MOL0     C16097   7.192   0.141   9.552 -0.1847  1.3163  0.6913
  120MOL0     C16098   7.082   0.051   9.541 -0.2962 -0.1488 -0.4406
  120MOL0     C16099   6.957   0.105   9.570  0.3751 -0.7739 -0.4059
  120MOL0     C16100   6.940   0.240   9.602 -0.4657  0.7920  0.3945
  120MOL0     O16101   6.806   0.269   9.620  0.5190 -0.2860 -0.6042
  120MOL0     C16102   6.766   0.395   9.676 -0.3883  0.1954 -0.1584
  120MOL0     C16103   6.613   0.414   9.651 -0.3557  0.7854  0.3692
  120MOL0     C16104   6.549   0.525   9.728 -0.4233 -0.5977  0.9800
  120MOL0     C16105   6.400   0.544   9.668 -0.4720 -0.0065 -0.1474
  120MOL0     C16106   6.317   0.618   9.768 -0.2050 -0.1486  0.0231
  120MOL0     C16107   6.166   0.618   9.737  0.1946 -0.0489 -0.6369
  120MOL0     C16108   6.078   0.678   9.851 -0.5532 -0.3478  0.8144
  120MOL0     C16109   5.955   0.739   9.782 -1.4072  0.0940 -0.3541
  120MOL0    Cl16110   6.007   0.899   9.723 -0.0434 -0.7464  0.3276
  120MOL0     C16111   7.047   0.326   9.603 -0.4791 -0.2642 -0.2510
  120MOL0     C16112   7.173   0.274   9.589  0.2983  0.1884 -0.6406
  120MOL0     O16113   7.348  -0.070   9.667  0.2301 -0.1871  0.0428
  120MOL0     C16114   7.595  -0.150   9.564 -0.4633 -0.1878  0.0765
  120MOL0     C16115   7.720  -0.191   9.517  0.0807 -0.3652  0.2667
  120MOL0     N16116   8.376  -0.150   9.659 -0.5631  0.2377  0.0978
  120MOL0     N16117   8.498  -0.129   9.674 -1.2622  0.1725 -0.3161
  120MOL0     C16118   9.315   0.201   9.847  0.1914 -0.1070  1.1391
  120MOL0     C16119   9.433   0.165   9.905  0.4335  0.4417  0.1951
  120MOL0     C16120   9.838   0.167  10.095 -0.9450  0.1959 -0.4423
  120MOL0     C16121   9.956   0.235  10.064 -0.1681 -1.1706 -0.3450
  120MOL0     C16122  10.075   0.164  10.043  0.4211  0.5864  0.0288
  120MOL0     C16123  10.079   0.026  10.058 -0.4540 -0.0194  0.1770
  120MOL0     O16124  10.197  -0.042  10.040 -0.9034  0.6076 -0.0746
  120MOL0     C16125  10.317  -0.006  10.119 -0.1426 -0.2876 -0.2122
  120MOL0     C16126  10.366  -0.113  10.211 -0.5141  0.5142  0.0459
  120MOL0     C16127  10.469  -0.051  10.307  0.5115  0.8149  0.3352
  120MOL0     C16128  10.521  -0.163  10.405  0.3732  0.5049  0.3518
  120MOL0     C16129  10.615  -0.255  10.351  0.9132  0.2333 -1.3808
  120MOL0     C16130  10.701  -0.322  10.310 -1.5218  0.1477 -1.2676
  120MOL0     C16131   9.964  -0.042  10.081 -0.2845 -0.3054 -0.0339
  120MOL0     C16132   9.845   0.029  10.099  0.1897 -0.5326  0.3773
  120MOL0     H16133   9.469   0.408  10.146  0.2679  4.0470 -2.7042
  120MOL0     H16134   9.264   0.488  10.021  2.4645  0.9862  0.4953
  120MOL0     H16135   9.045   0.456   9.964 -0.4026  0.1371  0.1743
  120MOL0     H16136   9.111   0.561   9.841 -3.4690  2.1380  0.6266
  120MOL0     H16137   8.886   0.582   9.830  0.4243  0.0395  0.7883
  120MOL0     H16138   8.939   0.492   9.686  3.1020 -0.8260  0.5303
  120MOL0     H16139   8.853   0.281   9.795 -2.3823 -0.1593 -2.0653
  120MOL0     H16140   8.802   0.375   9.934  1.3399 -0.0866 -0.0369
  120MOL0     H16141   8.663   0.506   9.767  0.0020 -0.9831 -0.4741
  120MOL0     H16142   8.718   0.407   9.639  2.3224  1.1018  0.3759
  120MOL0     H16143   8.586   0.272   9.886 -1.5320  1.5695  0.9057
  120MOL0     H16144   8.496   0.365   9.789  0.6664 -0.2712  2.5757
  120MOL0     H16145   8.490   0.140   9.697  0.4455  0.8583  1.1599
  120MOL0     H16146   8.555   0.231   9.570  1.0153 -0.0495 -0.3765
  120MOL0     H16147   8.779   0.168   9.631  0.8927  0.4678  3.2170
  120MOL0     H16148   8.717   0.032   9.741  2.6470  0.7975 -0.1554
  120MOL0     H16149   8.765  -0.069   9.547  1.6191  1.7988  0.7796
  120MOL0     H16150   8.678   0.055   9.459 -0.1363  0.5942 -0.1597
  120MOL0     H16151   8.463  -0.023   9.366 -3.4773 -0.3497 -0.0043
  120MOL0     H16152   8.153  -0.152   9.546  1.9531  0.0989  0.8492
  120MOL0     H16153   8.180  -0.063   9.393 -2.3446 -1.2298 -0.2765
  120MOL0     H16154   8.245  -0.362   9.439  2.6534  0.7914  1.1306
  120MOL0     H16155   8.312  -0.259   9.315 -0.9602  0.1915 -0.9624
  120MOL0     H16156   8.104  -0.403   9.263 -0.5756 -0.6279 -0.0574
  120MOL0     H16157   8.097  -0.230   9.228  1.7218 -0.1916 -0.0974
  120MOL0     H16158   7.964  -0.305   9.500  3.3727 -0.5671 -0.8396
  120MOL0     H16159   7.896  -0.373   9.348 -0.4132  1.0704 -1.6862
  120MOL0     H16160   7.794   0.051   9.304 -0.7614  1.3727 -1.5712
  120MOL0     H16161   7.456   0.186   9.329  0.7326  0.5223 -1.9909
  120MOL0     H16162   7.552   0.248   9.468 -1.0897  0.4252  0.0254
  120MOL0     H16163   7.627   0.241   9.318  0.5366 -2.3934 -1.8849
  120MOL0     H16164   7.085  -0.056   9.522  2.0397  0.0291 -1.3189
  120MOL0     H16165   6.873   0.037   9.575  1.2626 -1.8279  0.6789
  120MOL0     H16166   6.774   0.389   9.785 -3.1450  1.6748  0.2240
  120MOL0     H16167   6.818   0.477   9.626  0.5385 -0.4340 -0.2381
  120MOL0     H16168   6.601   0.440   9.546  0.9397 -0.8240 -0.2216
  120MOL0     H16169   6.559   0.320   9.666 -0.8677  0.9252 -0.5089
  120MOL0     H16170   6.603   0.620   9.715  2.0925 -2.2782 -2.2527
  120MOL0     H16171   6.552   0.505   9.835  3.2470  0.9921  1.3505
  120MOL0     H16172   6.406   0.584   9.566 -3.0072 -0.1718 -0.4393
  120MOL0     H16173   6.357   0.445   9.649 -1.8492  0.4130  0.6169
  120MOL0     H16174   6.351   0.719   9.792 -0.0177 -0.7915  2.8164
  120MOL0     H16175   6.336   0.565   9.862 -1.7411  2.9826  2.3007
  120MOL0     H16176   6.150   0.670   9.642 -0.4762  0.4706 -0.2498
  120MOL0     H16177   6.130   0.518   9.711 -0.8046 -0.5719  2.3369
  120MOL0     H16178   6.128   0.753   9.913 -0.4831  1.8645 -1.7263
  120MOL0     H16179   6.045   0.590   9.907 -2.6128 -1.4045 -1.8189
  120MOL0     H16180   5.873   0.745   9.855 -2.2225 -2.2270 -0.9830
  120MOL0     H16181   5.923   0.680   9.695  1.1132 -0.1389 -1.1827
  120MOL0     H16182   7.038   0.432   9.627 -0.1825 -0.2063 -0.3953
  120MOL0     H16183   7.267   0.329   9.596  2.6720 -3.6360  2.1191
  120MOL0     H16184   7.560  -0.197   9.656 -1.6121  1.0589  0.3178
  120MOL0     H16185   7.766  -0.281   9.556 -1.0452 -0.8948  0.4070
  120MOL0     H16186   9.278   0.149   9.759 -1.4354  0.3296  1.5417
  120MOL0     H16187   9.491   0.078   9.879  3.5839  1.5806  2.7799
  120MOL0     H16188   9.953   0.342  10.042  0.1529 -1.3790 -1.4707
  120MOL0     H16189  10.162   0.223  10.018  0.7784  0.7960  1.7035
  120MOL0     H16190  10.397   0.004  10.045 -0.7187  0.4828 -0.7423
  120MOL0     H16191  10.304   0.084  10.179 -0.5170  0.3037 -1.1565
  120MOL0     H16192  10.421  -0.181  10.145 -1.3951  1.8222 -2.1347
  120MOL0     H16193  10.281  -0.154  10.265  0.3558 -0.6390  0.5895
  120MOL0     H16194  10.417   0.014  10.377  1.7515  0.0946  1.9748
  120MOL0     H16195  10.548   0.003  10.254  0.2437 -0.2354 -1.2063
  120MOL0     H16196  10.431  -0.203  10.452  1.4556 -1.6854  0.6898
  120MOL0     H16197  10.565  -0.114  10.492  0.5243  1.0147 -0.0078
  120MOL0     H16198  10.781  -0.381  10.270  0.3835  0.7518  1.4019
  120MOL0     H16199   9.958  -0.149  10.097 -0.2003  0.0193  2.6333
  120MOL0     H16200   9.759  -0.031  10.124  0.3125  0.1512  2.6219
  121MOL0     O16201   1.002   2.120  10.546  0.3808  0.1491  0.2199
  121MOL0     C16202   1.044   2.205  10.464  0.2877 -0.2922 -0.4270
  121MOL0     O16203   1.003   2.219  10.334 -0.4265  1.7135  0.0611
  121MOL0     C16204   0.865   2.222  10.302  0.0802  0.7231  0.6088
  121MOL0     C16205   0.825   2.226  10.171 -0.5070 -0.3784  0.0070
  121MOL0     C16206   0.690   2.239  10.126  0.1741 -0.1924  0.0871
  121MOL0     C16207   0.590   2.248  10.226 -0.1109 -0.3818  0.4650
  121MOL0     O16208   0.458   2.271  10.198  0.5559 -0.0482  0.1246
  121MOL0     C16209   0.414   2.234  10.067 -0.8576 -1.1934  1.0309
  121MOL0     C16210   0.267   2.201  10.051  0.4014 -0.2762  0.0106
  121MOL0     C16211   0.181   2.327  10.019 -0.1434 -0.1314 -0.8865
  121MOL0     C16212   0.038   2.310  10.074  0.2034  0.4899  0.2422
  121MOL0     C16213  -0.033   2.195   9.998  0.1968 -0.3542 -0.1718
  121MOL0     C16214  -0.182   2.188  10.014  0.4122  0.0101  0.2564
  121MOL0     C16215  -0.255   2.301   9.941  0.3734  0.0065 -0.2637
  121MOL0     C16216  -0.396   2.317  10.001 -0.3293  0.3789  0.6196
  121MOL0     N16217  -0.475   2.421   9.936 -0.2916 -0.6258  0.0280
  121MOL0     C16218  -0.477   2.459   9.808 -0.2124  0.1795 -0.1633
  121MOL0     C16219  -0.562   2.569   9.784 -0.5524  0.0948  0.3067
  121MOL0     C16220  -0.582   2.639   9.649 -0.3990 -0.4862 -0.2055
  121MOL0     C16221  -0.728   2.697   9.649  0.0113 -0.7431 -0.4567
  121MOL0     C16222  -0.729   2.777   9.511 -0.2398 -0.4779  0.0083
  121MOL0     C16223  -0.850   2.870   9.492 -0.4919  0.1529  0.6206
  121MOL0     O16224  -0.962   2.781   9.489  0.6514 -0.2229 -0.1078
  121MOL0     C16225  -1.080   2.836   9.452  1.1929  0.3725 -0.0520
  121MOL0     C16226  -1.189   2.745   9.463 -0.3913 -0.4654 -0.3034
  121MOL0     C16227  -1.323   2.791   9.430 -0.3288  0.1338  0.1448
  121MOL0     C16228  -1.435   2.692   9.450 -0.0145 -0.8187 -0.3901
  121MOL0     C16229  -1.342   2.925   9.376 -0.0130  0.1634  0.4637
  121MOL0     C16230  -1.474   2.986   9.340 -0.4834  0.0322  1.2840
  121MOL0     O16231  -1.487   3.125   9.335  0.6014  1.0137  0.0468
  121MOL0     C16232  -1.609   3.182   9.304  0.3146 -0.2114  0.2307
  121MOL0     C16233  -1.668   3.259   9.412 -0.1935  0.0546  0.3663
  121MOL0     C16234  -1.798   3.292   9.398 -0.0881 -0.3054 -0.3285
  121MOL0     C16235  -1.872   3.263   9.279  0.4742  0.5758 -0.3083
  121MOL0     O16236  -2.001   3.288   9.250  0.2640  0.4149  0.6550
  121MOL0     C16237  -2.052   3.408   9.295  0.1882  0.3445 -0.3433
  121MOL0     C16238  -2.188   3.424   9.229  0.1925 -1.1081  0.5403
  121MOL0     C16239  -2.190   3.439   9.073 -0.3887  0.6031  0.7088
  121MOL0     C16240  -2.313   3.487   9.018  0.3317  0.2879  0.4931
  121MOL0     C16241  -2.440   3.394   9.032 -0.0167  0.2699 -0.1093
  121MOL0     C16242  -2.548   3.449   8.938  0.5002  0.5754  0.5132
  121MOL0     C16243  -2.662   3.355   8.936 -0.4086  0.3410  0.7884
  121MOL0     C16244  -2.791   3.414   8.867  0.1869  0.6159  0.4080
  121MOL0    Cl16245  -2.830   3.583   8.929  0.1366 -0.1106  0.0718
  121MOL0     C16246  -1.814   3.194   9.178 -0.1285 -0.3248 -0.2862
  121MOL0     C16247  -1.684   3.145   9.193  0.0246  0.5656  0.4218
  121MOL0     O16248  -1.569   2.907   9.329  0.9587 -0.1482  0.1427
  121MOL0     C16249  -1.229   3.009   9.383 -0.4237 -0.4439 -0.3013
  121MOL0     C16250  -1.106   2.966   9.429  0.0523 -0.0254 -0.4372
  121MOL0     N16251  -0.604   2.590   9.916 -0.5526  0.5015  0.7247
  121MOL0     N16252  -0.555   2.502   9.999  0.0722 -0.9119  0.1567
  121MOL0     C16253   0.628   2.240  10.364 -0.0116  1.3615  0.9897
  121MOL0     C16254   0.762   2.229  10.400  0.2366  0.8353 -0.4056
  121MOL0     C16255   1.158   2.289  10.511 -1.2567  0.6906 -0.6527
  121MOL0     C16256   1.212   2.273  10.639  0.7415 -0.2752 -0.4244
  121MOL0     C16257   1.318   2.354  10.686  0.8294 -0.0365  0.5416
  121MOL0     C16258   1.381   2.444  10.599 -0.4431  0.3253 -0.2950
  121MOL0     O16259   1.482   2.513  10.657 -0.2752  1.1177  0.2608
  121MOL0     C16260   1.534   2.623  10.577 -0.6765  0.6459  0.6303
  121MOL0     C16261   1.640   2.708  10.655  0.0216  0.2708  0.0048
  121MOL0     C16262   1.750   2.613  10.715  0.2633 -0.0797  0.6970
  121MOL0     C16263   1.850   2.695  10.785 -0.2450 -0.4638  0.4413
  121MOL0     C16264   1.799   2.799  10.879 -0.2432 -0.0624 -0.2280
  121MOL0     C16265   1.771   2.875  10.971 -0.1985 -0.2834 -0.1654
  121MOL0     C16266   1.331   2.454  10.466 -0.4831  0.0258 -0.2757
  121MOL0     C16267   1.217   2.384  10.434  0.3598  0.5159  1.0005
  121MOL0     H16268   0.893   2.218  10.087  0.4189 -1.8904  0.8318
  121MOL0     H16269   0.675   2.240  10.018 -0.9081  0.3035  0.2293
  121MOL0     H16270   0.451   2.304   9.992 -0.1145 -4.7620 -2.2438
  121MOL0     H16271   0.468   2.146  10.029 -1.6887 -0.6031 -1.7218
  121MOL0     H16272   0.262   2.138   9.961 -2.3894  1.9998 -1.5860
  121MOL0     H16273   0.231   2.141  10.136 -0.8519  2.3589  1.4411
  121MOL0     H16274   0.231   2.416  10.057 -1.5111  1.1244 -1.9151
  121MOL0     H16275   0.182   2.330   9.909 -0.8491 -3.2204 -1.0872
  121MOL0     H16276   0.035   2.280  10.179  1.3379 -1.1112 -0.1429
  121MOL0     H16277  -0.021   2.400  10.056  0.2680  0.7145  1.1077
  121MOL0     H16278  -0.015   2.208   9.891  0.7336 -1.1422 -0.1880
  121MOL0     H16279   0.002   2.098  10.036 -0.5467 -0.7535 -0.4852
  121MOL0     H16280  -0.216   2.091   9.977  2.0545 -0.2601 -0.6457
  121MOL0     H16281  -0.193   2.189  10.122 -0.5853 -0.1351  0.1578
  121MOL0     H16282  -0.207   2.397   9.960  1.7785 -0.7155 -0.0233
  121MOL0     H16283  -0.254   2.270   9.836  0.7690 -1.8524  0.2388
  121MOL0     H16284  -0.403   2.331  10.110  0.4827 -1.4469  0.9287
  121MOL0     H16285  -0.444   2.224   9.969 -1.9247  1.3843 -0.0495
  121MOL0     H16286  -0.421   2.402   9.735  2.0529 -1.2975  2.5286
  121MOL0     H16287  -0.501   2.712   9.651 -1.6999  1.0173  0.2955
  121MOL0     H16288  -0.571   2.566   9.569 -1.3261 -2.6139  1.4962
  121MOL0     H16289  -0.748   2.761   9.735  0.4413 -2.5195  1.0400
  121MOL0     H16290  -0.796   2.611   9.642  0.2722 -0.8884 -1.2836
  121MOL0     H16291  -0.719   2.707   9.427  1.0977  0.2554 -0.4642
  121MOL0     H16292  -0.638   2.837   9.510  1.3879 -2.6446 -4.0694
  121MOL0     H16293  -0.831   2.932   9.403  1.0114 -0.1421  0.6954
  121MOL0     H16294  -0.858   2.939   9.576 -2.7612 -1.2239  1.6140
  121MOL0     H16295  -1.175   2.639   9.478 -3.1288 -1.0453 -1.2945
  121MOL0     H16296  -1.411   2.594   9.491  1.5445 -1.3632 -2.4355
  121MOL0     H16297  -1.509   2.728   9.521 -0.2930 -4.1054  1.1526
  121MOL0     H16298  -1.482   2.682   9.352 -0.4791  0.4676 -0.3168
  121MOL0     H16299  -1.618   3.282   9.505  0.6202  2.3130 -0.5504
  121MOL0     H16300  -1.848   3.327   9.487  2.0715 -0.3380  0.9788
  121MOL0     H16301  -2.064   3.420   9.403  1.9693  1.5333 -0.2390
  121MOL0     H16302  -1.991   3.488   9.252  0.0670  0.8973  0.4956
  121MOL0     H16303  -2.253   3.338   9.249  0.0569 -0.9353  0.8418
  121MOL0     H16304  -2.232   3.516   9.267  0.8783 -0.4995 -0.1149
  121MOL0     H16305  -2.167   3.343   9.026  0.9186  0.9339  0.6248
  121MOL0     H16306  -2.105   3.500   9.042  0.6019 -1.5117 -1.0031
  121MOL0     H16307  -2.342   3.586   9.055 -1.2026 -1.0620  3.2165
  121MOL0     H16308  -2.285   3.507   8.914 -1.7244  1.9613  0.1914
  121MOL0     H16309  -2.487   3.390   9.131 -2.0704 -2.3088 -1.0737
  121MOL0     H16310  -2.411   3.291   9.010 -0.8467 -0.2349  1.0502
  121MOL0     H16311  -2.573   3.544   8.985  1.1907  0.0269  2.0665
  121MOL0     H16312  -2.524   3.464   8.833  2.5617  0.2407  0.8919
  121MOL0     H16313  -2.692   3.328   9.038 -2.6017 -1.7497 -0.3006
  121MOL0     H16314  -2.631   3.261   8.889  0.0615  0.8008  0.1666
  121MOL0     H16315  -2.878   3.349   8.882  1.9915 -1.3793  3.2609
  121MOL0     H16316  -2.773   3.421   8.759 -1.2242 -0.4826  0.0712
  121MOL0     H16317  -1.876   3.161   9.096  0.1823  0.3930 -0.8146
  121MOL0     H16318  -1.639   3.079   9.120  2.9977 -1.1869  3.5370
  121MOL0     H16319  -1.230   3.116   9.363 -2.2590 -0.6910 -1.8029
  121MOL0     H16320  -1.022   3.035   9.431  0.0359  0.0838 -2.2709
  121MOL0     H16321   0.548   2.237  10.437  1.3655  2.8248  2.6551
  121MOL0     H16322   0.796   2.225  10.504  0.6363  1.9593 -0.4820
  121MOL0     H16323   1.175   2.191  10.699 -0.8659  1.0162  0.4397
  121MOL0     H16324   1.344   2.345  10.791 -0.0402 -1.5931  0.6555
  121MOL0     H16325   1.585   2.591  10.485 -3.7904 -3.5240  0.0843
  121MOL0     H16326   1.447   2.681  10.546 -1.1810  0.0433  0.9077
  121MOL0     H16327   1.579   2.754  10.734 -1.7157  0.0853 -1.1677
  121MOL0     H16328   1.688   2.788  10.598  0.0647  1.1273  1.2238
  121MOL0     H16329   1.798   2.555  10.635 -0.8721  1.3034 -1.0456
  121MOL0     H16330   1.695   2.545  10.780 -0.7793  1.8126  1.8679
  121MOL0     H16331   1.908   2.750  10.710  0.7596 -2.9359 -0.6810
  121MOL0     H16332   1.919   2.634  10.844  2.6843  3.7620  1.9005
  121MOL0     H16333   1.734   2.932  11.054 -0.5288  0.3244 -0.7190
  121MOL0     H16334   1.372   2.519  10.389 -3.1444  1.1747 -0.8012
  121MOL0     H16335   1.182   2.389  10.331  1.9732 -2.7143  0.1656
  122MOL0     O16336   1.309  10.341   1.992  0.3337  0.2338 -0.2430
  122MOL0     C16337   1.284  10.442   1.936  0.7472 -1.0128 -0.4393
  122MOL0     O16338   1.158  10.501   1.919  0.7120  0.0678 -0.6417
  122MOL0     C16339   1.045  10.424   1.944  0.0937  0.6193 -0.3065
  122MOL0     C16340   0.984  10.419   2.066  0.3722 -0.0092  0.4049
  122MOL0     C16341   0.863  10.346   2.078 -0.6930 -0.4321 -0.0580
  122MOL0     C16342   0.807  10.269   1.971 -0.5045 -0.4963 -0.5843
  122MOL0     O16343   0.698  10.188   1.985 -0.1467  0.4692  0.2986
  122MOL0     C16344   0.617  10.214   2.107  0.0417 -0.2591  0.4975
  122MOL0     C16345   0.486  10.141   2.088 -0.8647 -0.8145  0.3140
  122MOL0     C16346   0.377  10.212   2.167 -0.7040 -0.2487 -0.7428
  122MOL0     C16347   0.408  10.227   2.321  0.4113 -0.2337  0.3451
  122MOL0     C16348   0.311  10.319   2.407 -0.0918 -0.2441  0.2881
  122MOL0     C16349   0.168  10.271   2.412 -0.6841  0.2162  0.2460
  122MOL0     C16350   0.153  10.136   2.472  0.6664 -0.6250 -0.7037
  122MOL0     C16351   0.001  10.094   2.481  0.7918 -0.2597  0.2422
  122MOL0     N16352  -0.063  10.063   2.353 -0.6245  0.0107 -0.7181
  122MOL0     C16353  -0.034   9.952   2.270 -0.3746 -0.4401 -0.1714
  122MOL0     C16354  -0.122   9.969   2.170  0.0528 -0.6213  1.3589
  122MOL0     C16355  -0.128   9.885   2.043 -0.1087  0.9590 -1.2574
  122MOL0     C16356  -0.208   9.758   2.075 -0.0387  0.0962  0.6193
  122MOL0     C16357  -0.357   9.783   2.084 -0.7106  0.4914  0.6951
  122MOL0     C16358  -0.422   9.812   1.948  0.8144  1.1651 -0.0178
  122MOL0     O16359  -0.559   9.789   1.946  0.4146  0.8659 -0.2816
  122MOL0     C16360  -0.616   9.662   1.931 -0.8690 -0.6126  0.4394
  122MOL0     C16361  -0.555   9.543   1.960 -0.3341 -0.4247 -0.3564
  122MOL0     C16362  -0.623   9.423   1.953  0.0732 -1.0480 -0.3823
  122MOL0     C16363  -0.543   9.295   1.975  0.7173 -0.1207  0.3977
  122MOL0     C16364  -0.765   9.428   1.912 -0.6094 -0.1266  0.1157
  122MOL0     C16365  -0.857   9.312   1.912 -0.5345 -0.2261  0.1967
  122MOL0     O16366  -0.991   9.337   1.890 -0.4740  0.1850 -0.5910
  122MOL0     C16367  -1.069   9.228   1.903  0.4616  1.3514  1.3477
  122MOL0     C16368  -1.093   9.192   2.035 -0.3702 -0.7982  1.0210
  122MOL0     C16369  -1.164   9.077   2.059  1.1246 -0.4263  0.4561
  122MOL0     C16370  -1.216   8.997   1.954 -0.0264  0.1187  0.5649
  122MOL0     O16371  -1.287   8.882   1.978  0.7182  0.4449 -0.0696
  122MOL0     C16372  -1.239   8.783   2.074  0.0349 -0.8124  0.7087
  122MOL0     C16373  -1.325   8.654   2.052  0.2154 -0.1451  0.3058
  122MOL0     C16374  -1.487   8.666   2.054 -0.2685  0.0740 -0.5907
  122MOL0     C16375  -1.555   8.629   2.185  0.3406  0.2120  0.1850
  122MOL0     C16376  -1.525   8.725   2.297 -1.3735  0.5454 -1.2323
  122MOL0     C16377  -1.595   8.666   2.421  0.1829 -0.2946 -0.2988
  122MOL0     C16378  -1.560   8.733   2.558 -0.1407 -0.2049  0.3208
  122MOL0     C16379  -1.644   8.694   2.675  0.4727  0.4618  0.5277
  122MOL0    Cl16380  -1.827   8.731   2.643  0.2823  0.1803  0.1825
  122MOL0     C16381  -1.204   9.048   1.820 -0.0735  0.0820 -0.1211
  122MOL0     C16382  -1.132   9.166   1.796  0.1583 -0.3028 -0.9490
  122MOL0     O16383  -0.801   9.199   1.914 -0.4249 -0.3620 -0.4092
  122MOL0     C16384  -0.816   9.552   1.875 -0.4266  0.5895 -0.3875
  122MOL0     C16385  -0.749   9.669   1.895 -0.0609 -0.2769 -0.4897
  122MOL0     N16386  -0.192  10.088   2.182 -0.8353  0.6654  0.0807
  122MOL0     N16387  -0.155  10.148   2.293  0.3248 -0.2041  0.1606
  122MOL0     C16388   0.889  10.250   1.861 -1.2598  0.6523  0.8784
  122MOL0     C16389   1.008  10.326   1.845  0.0221 -0.8287 -0.7026
  122MOL0     C16390   1.398  10.514   1.895 -0.7883  0.2880 -0.8362
  122MOL0     C16391   1.385  10.645   1.853  0.9422 -1.0036 -0.5935
  122MOL0     C16392   1.486  10.720   1.806  0.8570 -1.0215 -0.2382
  122MOL0     C16393   1.607  10.663   1.797 -1.0432 -0.0740  0.9142
  122MOL0     O16394   1.714  10.749   1.754  0.7159 -0.3773 -0.7189
  122MOL0     C16395   1.833  10.684   1.713  0.0195 -0.0195  1.3421
  122MOL0     C16396   1.924  10.774   1.622  0.5928 -0.2187 -0.5978
  122MOL0     C16397   2.012  10.696   1.533 -0.7339 -0.4734  0.5341
  122MOL0     C16398   2.108  10.780   1.452 -0.5307  0.4375  0.4547
  122MOL0     C16399   2.113  10.742   1.312  0.4021  0.2297  0.2901
  122MOL0     C16400   2.112  10.701   1.195  1.2379  0.1610  0.6834
  122MOL0     C16401   1.636  10.531   1.840  0.4528  0.4084 -0.0208
  122MOL0     C16402   1.526  10.452   1.878  0.2323  0.2965 -0.5452
  122MOL0     H16403   1.015  10.477   2.152  1.9962 -1.8737  1.1754
  122MOL0     H16404   0.815  10.338   2.175  2.7015 -2.8143  1.6206
  122MOL0     H16405   0.671  10.184   2.197 -0.9470  1.9516  1.9040
  122MOL0     H16406   0.597  10.320   2.121  0.8263 -0.0297 -0.0692
  122MOL0     H16407   0.452  10.141   1.984  3.3703 -0.6937 -1.2390
  122MOL0     H16408   0.498  10.034   2.106 -2.5300 -1.0813  0.0379
  122MOL0     H16409   0.373  10.313   2.123 -0.6343  0.4811  0.8534
  122MOL0     H16410   0.276  10.171   2.155 -0.3138 -1.0082 -1.5081
  122MOL0     H16411   0.407  10.125   2.359  1.2216 -0.7538 -0.9699
  122MOL0     H16412   0.506  10.271   2.340  0.7905  0.3591 -2.5010
  122MOL0     H16413   0.338  10.321   2.513  0.4649  0.4919  0.1382
  122MOL0     H16414   0.308  10.422   2.371 -2.1539  0.4848  2.3099
  122MOL0     H16415   0.113  10.344   2.472  0.6515  3.3236 -2.0657
  122MOL0     H16416   0.121  10.270   2.313  1.5857 -3.7909 -1.0098
  122MOL0     H16417   0.203  10.061   2.411  1.6262 -0.2233 -0.4307
  122MOL0     H16418   0.207  10.137   2.567 -0.1010  0.1340 -0.2647
  122MOL0     H16419  -0.046  10.180   2.528  3.5289  1.3606  0.2346
  122MOL0     H16420  -0.017  10.007   2.544 -1.3681  1.7069  2.5477
  122MOL0     H16421   0.049   9.881   2.272  1.7389  1.8724 -0.5955
  122MOL0     H16422  -0.152   9.940   1.951  0.1313  0.9871 -1.3055
  122MOL0     H16423  -0.023   9.854   2.037  0.3386  1.9642  0.6157
  122MOL0     H16424  -0.169   9.704   2.162 -0.5754 -2.0442 -0.4022
  122MOL0     H16425  -0.199   9.695   1.986 -0.6106  0.5577  0.2249
  122MOL0     H16426  -0.389   9.865   2.149 -1.8858 -1.7939  3.1932
  122MOL0     H16427  -0.399   9.702   2.144 -4.1947  0.1412 -1.9471
  122MOL0     H16428  -0.374   9.748   1.873  0.7520 -0.8956  1.6172
  122MOL0     H16429  -0.407   9.917   1.918 -2.8427  1.2604 -2.0699
  122MOL0     H16430  -0.451   9.543   1.990 -0.7580  0.1221  1.2499
  122MOL0     H16431  -0.598   9.222   2.035 -1.5716 -1.0124 -2.5433
  122MOL0     H16432  -0.541   9.245   1.878  1.3994  3.8687 -1.8725
  122MOL0     H16433  -0.444   9.301   2.022  0.2067  0.9114  1.4203
  122MOL0     H16434  -1.044   9.226   2.125  0.5992  0.4577  0.0634
  122MOL0     H16435  -1.172   9.032   2.158 -0.4708 -1.7983 -0.2501
  122MOL0     H16436  -1.130   8.778   2.066  0.6310  2.3350  3.9308
  122MOL0     H16437  -1.258   8.817   2.176  0.8039 -2.1445  1.3227
  122MOL0     H16438  -1.305   8.618   1.950  1.0805 -0.8910  0.7297
  122MOL0     H16439  -1.285   8.583   2.126  1.4027  2.5988  2.4723
  122MOL0     H16440  -1.514   8.604   1.968  1.1865  1.8805 -2.4893
  122MOL0     H16441  -1.514   8.770   2.032 -0.3662  0.4748  1.3235
  122MOL0     H16442  -1.662   8.617   2.168  0.3083 -0.0238  0.5365
  122MOL0     H16443  -1.508   8.535   2.218 -1.0400 -1.2602 -1.7907
  122MOL0     H16444  -1.554   8.831   2.301 -0.7174  0.6915  1.1925
  122MOL0     H16445  -1.416   8.723   2.306 -1.2820 -0.5238 -2.4553
  122MOL0     H16446  -1.704   8.672   2.411  0.3083  3.5077 -1.1653
  122MOL0     H16447  -1.564   8.561   2.421 -0.5480 -0.5168 -1.0282
  122MOL0     H16448  -1.549   8.842   2.547 -0.9178 -0.2583 -1.2069
  122MOL0     H16449  -1.457   8.710   2.585 -0.1961  1.0853  1.8227
  122MOL0     H16450  -1.598   8.733   2.767  3.9613  1.2258 -1.3847
  122MOL0     H16451  -1.638   8.586   2.687 -2.1500  0.4250  2.2223
  122MOL0     H16452  -1.254   9.004   1.734  1.3761  0.8223 -1.3934
  122MOL0     H16453  -1.118   9.205   1.696  3.5801  2.9716  0.5307
  122MOL0     H16454  -0.918   9.565   1.842 -0.1423  1.6829 -0.8812
  122MOL0     H16455  -0.782   9.768   1.867  1.5343  0.2076 -0.7516
  122MOL0     H16456   0.860  10.183   1.781 -0.7353  0.8831  0.4926
  122MOL0     H16457   1.062  10.312   1.752  0.4635 -0.8603 -0.4390
  122MOL0     H16458   1.284  10.686   1.850  1.0577 -0.7378 -0.8620
  122MOL0     H16459   1.467  10.823   1.776 -5.3023 -0.5784  3.5006
  122MOL0     H16460   1.904  10.653   1.790 -0.7715 -0.2340  1.9877
  122MOL0     H16461   1.816  10.594   1.654 -0.2430  0.3366  0.8664
  122MOL0     H16462   1.976  10.832   1.699  0.6501 -2.6719  1.3043
  122MOL0     H16463   1.864  10.843   1.562  0.3542  0.7146  0.6791
  122MOL0     H16464   1.941  10.630   1.482 -2.9050  1.7400  0.5263
  122MOL0     H16465   2.077  10.631   1.592 -0.0835  0.2165  0.5927
  122MOL0     H16466   2.210  10.767   1.489 -1.0666 -0.4354  1.6918
  122MOL0     H16467   2.077  10.885   1.461 -2.2049 -0.0579  0.8121
  122MOL0     H16468   2.104  10.659   1.096  2.5399  3.6931 -1.0995
  122MOL0     H16469   1.731  10.481   1.824  0.4624  1.0699 -2.3460
  122MOL0     H16470   1.539  10.345   1.895 -3.9111 -0.5178 -1.4412
  123MOL0     O16471   0.896   0.186   9.081  0.5407  0.6077  0.0228
  123MOL0     C16472   0.874   0.062   9.095 -0.3565 -1.2689  0.6980
  123MOL0     O16473   0.966  -0.032   9.062  0.1278  0.4434 -0.5372
  123MOL0     C16474   1.098  -0.002   9.031  1.2881  0.0288 -0.8069
  123MOL0     C16475   1.175   0.077   9.114 -0.8545 -0.1432 -0.3453
  123MOL0     C16476   1.312   0.105   9.091 -0.1257  0.3605 -0.4464
  123MOL0     C16477   1.375   0.034   8.991 -0.4821 -0.2823  1.1444
  123MOL0     O16478   1.509   0.037   8.967  0.3180  0.4901 -0.0937
  123MOL0     C16479   1.543   0.161   8.903 -0.3759  0.2007 -0.2546
  123MOL0     C16480   1.698   0.168   8.895 -0.0438  0.9171 -0.1296
  123MOL0     C16481   1.761   0.279   8.815  0.1846 -0.0334 -0.3222
  123MOL0     C16482   1.775   0.244   8.662  0.5120  0.1365  0.4504
  123MOL0     C16483   1.819   0.357   8.582 -0.1330 -0.6780  0.1569
  123MOL0     C16484   1.709   0.466   8.573  0.8581  0.1825  0.5570
  123MOL0     C16485   1.737   0.573   8.455  0.3978  0.9875 -0.1250
  123MOL0     C16486   1.703   0.515   8.320  0.0048 -0.9096  0.5567
  123MOL0     N16487   1.568   0.465   8.309  0.6505 -0.5067  0.3421
  123MOL0     C16488   1.458   0.553   8.313 -0.7366 -0.3981  0.0390
  123MOL0     C16489   1.360   0.459   8.320 -0.2175  0.4499  0.5276
  123MOL0     C16490   1.217   0.504   8.306  0.7623 -0.9111  0.2706
  123MOL0     C16491   1.170   0.595   8.424 -0.2115  0.6727  0.5560
  123MOL0     C16492   1.024   0.632   8.426  0.1198 -0.7215 -0.5476
  123MOL0     C16493   0.957   0.558   8.547  0.1610 -0.3512  0.8372
  123MOL0     O16494   0.839   0.637   8.572  0.3823  0.3349  0.6212
  123MOL0     C16495   0.734   0.580   8.629 -0.0445 -0.1033 -1.2842
  123MOL0     C16496   0.750   0.477   8.719  0.2865 -0.4145 -0.4569
  123MOL0     C16497   0.635   0.434   8.788  0.0706  1.2558 -0.7219
  123MOL0     C16498   0.660   0.343   8.905 -0.5524  0.6080  0.2334
  123MOL0     C16499   0.510   0.494   8.771  0.4118  0.1009  0.4157
  123MOL0     C16500   0.378   0.442   8.831 -0.7636 -0.0952 -0.0091
  123MOL0     O16501   0.274   0.524   8.802  0.1598 -0.5806  0.1882
  123MOL0     C16502   0.155   0.500   8.863  0.4314  0.4511  0.3282
  123MOL0     C16503   0.089   0.379   8.848  0.6288 -0.4985 -1.2537
  123MOL0     C16504  -0.024   0.354   8.928 -0.2633 -0.3095 -0.6545
  123MOL0     C16505  -0.071   0.455   9.017  0.1870  0.3957  0.4068
  123MOL0     O16506  -0.193   0.427   9.074 -0.6651  0.2230 -0.6135
  123MOL0     C16507  -0.283   0.538   9.084 -0.2531  0.7034 -0.1075
  123MOL0     C16508  -0.419   0.504   9.043 -1.1133 -0.1825 -0.3376
  123MOL0     C16509  -0.524   0.450   9.148  0.2652  1.1306 -0.4958
  123MOL0     C16510  -0.656   0.389   9.093  0.7224  0.0699  0.2625
  123MOL0     C16511  -0.746   0.337   9.211 -0.4082  0.6662 -0.2980
  123MOL0     C16512  -0.891   0.356   9.165  0.2793 -0.2147  0.1421
  123MOL0     C16513  -0.995   0.313   9.277 -0.4435  0.7481  0.0994
  123MOL0     C16514  -1.008   0.435   9.371  0.3240 -0.1645  0.1848
  123MOL0    Cl16515  -1.066   0.590   9.281 -0.0239  0.5519  0.1216
  123MOL0     C16516  -0.007   0.577   9.036 -0.6907 -0.4183  0.4357
  123MOL0     C16517   0.109   0.591   8.959 -0.9001  0.1318  0.4434
  123MOL0     O16518   0.371   0.337   8.891 -0.5665 -0.2522  0.4154
  123MOL0     C16519   0.507   0.617   8.693  0.2845  0.1689  0.3510
  123MOL0     C16520   0.621   0.653   8.624  1.1729  0.5589 -0.2391
  123MOL0     N16521   1.403   0.327   8.326  0.8495 -0.8721  0.5264
  123MOL0     N16522   1.531   0.335   8.322  0.3191  0.2289  0.4593
  123MOL0     C16523   1.292  -0.057   8.908 -0.3848 -0.0557 -0.4334
  123MOL0     C16524   1.156  -0.072   8.925 -1.2210  0.1234 -0.2180
  123MOL0     C16525   0.744   0.022   9.156  0.8288 -0.3912 -0.7766
  123MOL0     C16526   0.639   0.111   9.184  0.6970  0.4390 -0.7418
  123MOL0     C16527   0.510   0.072   9.243 -0.7086  0.0464  0.3712
  123MOL0     C16528   0.485  -0.062   9.264  0.5715 -0.3012 -0.4853
  123MOL0     O16529   0.372  -0.094   9.332  0.0688  0.7735 -0.4527
  123MOL0     C16530   0.314  -0.228   9.320  0.1035  0.5222  0.0104
  123MOL0     C16531   0.177  -0.220   9.372  1.1825 -0.1929 -0.1299
  123MOL0     C16532   0.069  -0.170   9.271 -0.2890 -0.0718 -0.5910
  123MOL0     C16533  -0.068  -0.151   9.334 -0.1909  0.2433  0.2590
  123MOL0     C16534  -0.134  -0.273   9.382  0.0850  0.3499  0.0851
  123MOL0     C16535  -0.182  -0.378   9.422  0.6661 -0.9320  0.4478
  123MOL0     C16536   0.583  -0.158   9.239 -1.1518 -1.0704  0.1980
  123MOL0     C16537   0.712  -0.113   9.180 -0.5551 -1.1117 -0.6566
  123MOL0     H16538   1.125   0.120   9.200 -0.6029 -1.5404  0.5368
  123MOL0     H16539   1.364   0.169   9.161 -1.6978 -1.1887  2.3329
  123MOL0     H16540   1.486   0.168   8.810 -0.4212  0.0313 -0.2403
  123MOL0     H16541   1.525   0.245   8.971  4.2006  0.8032  0.5588
  123MOL0     H16542   1.719   0.160   9.002 -0.3281 -1.4061 -0.2064
  123MOL0     H16543   1.731   0.075   8.850 -0.6297  0.0658  1.1442
  123MOL0     H16544   1.692   0.364   8.823  1.6826  1.2637 -0.5678
  123MOL0     H16545   1.852   0.321   8.858  1.1834 -0.8258 -1.5998
  123MOL0     H16546   1.846   0.166   8.633  1.5097  1.0997  0.2228
  123MOL0     H16547   1.679   0.210   8.621  1.1056 -0.8031 -0.1916
  123MOL0     H16548   1.908   0.406   8.623 -2.5337  2.4739  2.0334
  123MOL0     H16549   1.835   0.318   8.481  3.9507  0.2302  0.2546
  123MOL0     H16550   1.610   0.423   8.557  0.4847  1.0210  0.5310
  123MOL0     H16551   1.706   0.519   8.669  0.1658  1.4508 -0.1378
  123MOL0     H16552   1.684   0.667   8.469 -1.0080  0.4023 -1.2807
  123MOL0     H16553   1.845   0.586   8.445  0.3549  1.0432 -0.5332
  123MOL0     H16554   1.770   0.436   8.287 -0.8502 -1.3879 -0.0721
  123MOL0     H16555   1.706   0.594   8.245 -1.3340 -0.3347  1.0739
  123MOL0     H16556   1.451   0.661   8.323 -0.3143 -0.4291  0.7342
  123MOL0     H16557   1.210   0.563   8.214  1.8747 -1.8657 -0.4494
  123MOL0     H16558   1.152   0.416   8.304 -0.3955 -0.1213  1.5636
  123MOL0     H16559   1.229   0.687   8.412  1.9914 -0.9660 -3.2366
  123MOL0     H16560   1.210   0.547   8.513 -2.4943  2.3286  2.6086
  123MOL0     H16561   0.966   0.607   8.337 -3.0129 -1.6449  1.6049
  123MOL0     H16562   1.023   0.741   8.434  1.8068 -0.5944 -1.5520
  123MOL0     H16563   1.025   0.555   8.632 -0.3162 -2.3233  1.1921
  123MOL0     H16564   0.938   0.455   8.513 -0.3713  0.3330 -1.0672
  123MOL0     H16565   0.854   0.453   8.738  0.7073  1.9420  0.5939
  123MOL0     H16566   0.644   0.241   8.871  2.3838  0.8654 -2.3921
  123MOL0     H16567   0.761   0.363   8.944  0.1128  1.4129 -1.7458
  123MOL0     H16568   0.600   0.359   8.995  0.4038 -3.0123  1.7270
  123MOL0     H16569   0.121   0.305   8.775  1.6628 -1.9947  0.6376
  123MOL0     H16570  -0.065   0.254   8.917  2.0235 -1.5432  1.1579
  123MOL0     H16571  -0.272   0.587   9.181  0.4851 -1.2709  0.8495
  123MOL0     H16572  -0.258   0.610   9.005 -1.1427  0.1232 -0.9426
  123MOL0     H16573  -0.460   0.601   9.012 -0.6887 -0.1753 -0.8904
  123MOL0     H16574  -0.407   0.431   8.963 -0.7935  1.1749 -1.5732
  123MOL0     H16575  -0.551   0.518   9.230 -0.1268  3.1421 -2.2090
  123MOL0     H16576  -0.475   0.359   9.185 -2.0207  0.8308  2.1638
  123MOL0     H16577  -0.698   0.476   9.042  0.5856  0.6046  1.2575
  123MOL0     H16578  -0.649   0.319   9.009 -0.7952 -0.5117  0.5798
  123MOL0     H16579  -0.722   0.400   9.297  0.0003  1.5442 -1.0477
  123MOL0     H16580  -0.726   0.232   9.238 -2.9486  0.5229  1.3407
  123MOL0     H16581  -0.915   0.458   9.132 -3.6119 -0.9541  0.2618
  123MOL0     H16582  -0.908   0.284   9.085  1.3486  0.1844 -0.4679
  123MOL0     H16583  -0.967   0.216   9.317  0.2343  0.6837 -0.5055
  123MOL0     H16584  -1.098   0.309   9.239  0.3608  4.6767 -3.2898
  123MOL0     H16585  -0.914   0.462   9.419 -0.4603 -0.4539  1.9605
  123MOL0     H16586  -1.077   0.406   9.451  0.8989 -0.8194  0.4593
  123MOL0     H16587  -0.030   0.652   9.111  2.0948  2.7810 -1.5882
  123MOL0     H16588   0.164   0.684   8.966 -1.8065  0.9448 -1.9797
  123MOL0     H16589   0.407   0.657   8.676 -0.6247 -2.3928 -0.8855
  123MOL0     H16590   0.628   0.738   8.556  0.7788 -0.3891 -1.5204
  123MOL0     H16591   1.348  -0.114   8.834  2.2575  1.5846  0.1408
  123MOL0     H16592   1.111  -0.150   8.864  2.8046 -1.3883 -1.6156
  123MOL0     H16593   0.648   0.215   9.156  1.4760 -0.2868 -3.5342
  123MOL0     H16594   0.433   0.141   9.276 -1.5567 -1.0811  0.8161
  123MOL0     H16595   0.310  -0.260   9.216  2.7594  2.7608 -0.9000
  123MOL0     H16596   0.362  -0.303   9.384  0.0968 -0.2397 -0.8591
  123MOL0     H16597   0.172  -0.166   9.466 -2.4519  1.7822 -1.3045
  123MOL0     H16598   0.155  -0.326   9.389 -1.6732  0.3635  0.1182
  123MOL0     H16599   0.068  -0.239   9.186  1.0107  0.0516 -0.7323
  123MOL0     H16600   0.099  -0.070   9.236  3.4454 -0.0611  2.0507
  123MOL0     H16601  -0.135  -0.112   9.257 -2.9422 -1.9842  1.3510
  123MOL0     H16602  -0.072  -0.076   9.414  1.1187  1.9018 -1.1780
  123MOL0     H16603  -0.212  -0.474   9.459 -2.7001  0.6309  2.2356
  123MOL0     H16604   0.580  -0.261   9.273  0.3585 -1.3382 -0.3839
  123MOL0     H16605   0.773  -0.192   9.139 -0.6945 -1.1429 -0.8048
  124MOL0     O16606   8.669   5.373   0.316 -0.5617 -0.0139 -0.1197
  124MOL0     C16607   8.592   5.357   0.411 -0.1214 -0.4763  0.9525
  124MOL0     O16608   8.459   5.390   0.413 -0.5613  0.5876 -0.4877
  124MOL0     C16609   8.397   5.474   0.327 -0.1652 -0.3705 -0.8020
  124MOL0     C16610   8.256   5.465   0.330  0.8264  0.0486 -0.8174
  124MOL0     C16611   8.172   5.552   0.258  0.0890 -0.0565  0.0369
  124MOL0     C16612   8.233   5.652   0.185 -0.1379 -0.2127  0.3679
  124MOL0     O16613   8.162   5.744   0.103  0.1868 -0.2508 -0.3685
  124MOL0     C16614   8.021   5.752   0.119 -0.2461  0.9846 -0.3545
  124MOL0     C16615   7.963   5.874   0.042 -0.8578  0.2225  0.4635
  124MOL0     C16616   7.818   5.881   0.071 -0.3975  0.0438 -0.2819
  124MOL0     C16617   7.752   5.999   0.006 -0.0151 -0.3668  0.5137
  124MOL0     C16618   7.601   5.987   0.005  0.1931  0.1705 -0.3316
  124MOL0     C16619   7.543   6.130  -0.014 -0.5057  0.3815  0.6166
  124MOL0     C16620   7.388   6.140  -0.030  1.2891  0.1873  0.4130
  124MOL0     C16621   7.305   6.074   0.083  0.2796 -0.3202 -0.0203
  124MOL0     N16622   7.158   6.095   0.087  0.0945  0.1296 -0.2125
  124MOL0     C16623   7.084   6.160  -0.010 -0.4383  0.2383 -0.0587
  124MOL0     C16624   6.963   6.177   0.041 -0.2592  0.3232  0.4255
  124MOL0     C16625   6.848   6.250  -0.025  0.2443  0.1531  0.1050
  124MOL0     C16626   6.788   6.152  -0.126  1.2527 -0.4921  0.2688
  124MOL0     C16627   6.633   6.190  -0.162 -0.4067 -0.3191  0.1658
  124MOL0     C16628   6.575   6.107  -0.272  1.0133  0.5092  0.5310
  124MOL0     O16629   6.580   6.170  -0.405  0.2449  0.4882  0.0945
  124MOL0     C16630   6.491   6.271  -0.434 -0.1401 -0.1894 -0.6687
  124MOL0     C16631   6.507   6.344  -0.550  0.5561  0.0006 -0.4664
  124MOL0     C16632   6.423   6.453  -0.588 -0.3148  0.3897  0.4363
  124MOL0     C16633   6.450   6.516  -0.729 -0.3296  1.0820  0.5699
  124MOL0     C16634   6.326   6.494  -0.487  0.5460 -0.3874 -0.2622
  124MOL0     C16635   6.233   6.613  -0.506  0.3053 -0.0809  0.2758
  124MOL0     O16636   6.185   6.669  -0.396  0.0938  0.4785  0.1277
  124MOL0     C16637   6.118   6.796  -0.390 -0.0816  1.0858  0.8879
  124MOL0     C16638   6.042   6.855  -0.498  0.1427 -0.0131  0.0558
  124MOL0     C16639   5.982   6.977  -0.472  0.1686 -0.1859 -0.1643
  124MOL0     C16640   5.987   7.045  -0.345  0.3769  0.3461  0.3665
  124MOL0     O16641   5.905   7.157  -0.329  0.0928  0.4263  0.2758
  124MOL0     C16642   5.876   7.206  -0.202  0.3039 -0.3206  0.2652
  124MOL0     C16643   5.765   7.320  -0.194  0.7120  0.2434  0.2039
  124MOL0     C16644   5.618   7.276  -0.231  0.4033 -0.9378 -0.4695
  124MOL0     C16645   5.516   7.394  -0.203 -0.1459  0.0193  0.1224
  124MOL0     C16646   5.375   7.334  -0.197  0.0282  0.0353  0.1554
  124MOL0     C16647   5.267   7.442  -0.200  0.5275  0.2287  0.0906
  124MOL0     C16648   5.127   7.379  -0.205 -0.5057 -0.3941 -0.2769
  124MOL0     C16649   5.018   7.477  -0.252  0.6438  0.0424  0.3394
  124MOL0    Cl16650   5.014   7.631  -0.170 -0.1299 -0.0554 -0.0689
  124MOL0     C16651   6.061   6.987  -0.255  0.2162 -0.2798 -1.0675
  124MOL0     C16652   6.130   6.864  -0.270 -0.7477  0.6707  0.6008
  124MOL0     O16653   6.200   6.641  -0.616 -0.3240 -0.4223  0.8714
  124MOL0     C16654   6.304   6.423  -0.372  0.6096  0.8899 -0.0267
  124MOL0     C16655   6.389   6.313  -0.347 -0.2160 -0.6330 -0.8092
  124MOL0     N16656   6.967   6.122   0.170  0.3555 -0.4522  0.2065
  124MOL0     N16657   7.084   6.074   0.199  0.8333  0.7985  0.0505
  124MOL0     C16658   8.369   5.669   0.177  0.1818  0.7671  0.3214
  124MOL0     C16659   8.450   5.573   0.240 -0.1088  0.4049 -0.4106
  124MOL0     C16660   8.646   5.302   0.539  0.0813  0.2373  0.4439
  124MOL0     C16661   8.554   5.277   0.638  0.4515 -0.3348 -0.3050
  124MOL0     C16662   8.581   5.201   0.754  0.1230 -0.1986  0.1151
  124MOL0     C16663   8.712   5.149   0.771 -0.6082  0.4399 -0.6325
  124MOL0     O16664   8.758   5.077   0.880  0.8236 -0.0903 -0.0935
  124MOL0     C16665   8.672   5.042   0.983 -0.1724  0.0709 -0.3985
  124MOL0     C16666   8.730   4.928   1.077  0.1689 -0.4872  0.1970
  124MOL0     C16667   8.876   4.963   1.107  0.2174 -0.0887  0.0962
  124MOL0     C16668   8.944   4.850   1.190  0.0762  0.0037  0.8096
  124MOL0     C16669   9.087   4.877   1.217  0.9269  0.6355 -0.3869
  124MOL0     C16670   9.200   4.909   1.230  1.3376  0.0951  0.3760
  124MOL0     C16671   8.806   5.191   0.681  0.9136 -0.4003  0.5688
  124MOL0     C16672   8.778   5.252   0.558 -0.1663 -0.6817  0.2562
  124MOL0     H16673   8.216   5.390   0.397  2.7187  0.4565  0.8448
  124MOL0     H16674   8.066   5.553   0.280 -0.2083  0.6674 -1.3461
  124MOL0     H16675   7.970   5.668   0.072  0.8338  0.4202 -0.5493
  124MOL0     H16676   7.988   5.753   0.224  0.6185 -0.8730 -0.0260
  124MOL0     H16677   8.026   5.961   0.060 -1.5637  0.8368 -0.0060
  124MOL0     H16678   7.972   5.860  -0.067 -1.2999  3.3412 -0.0664
  124MOL0     H16679   7.766   5.794   0.032 -0.1018  0.7461 -2.3435
  124MOL0     H16680   7.810   5.890   0.180 -1.2689 -2.1318 -0.1183
  124MOL0     H16681   7.778   6.085   0.068  1.5400 -1.2327  1.1337
  124MOL0     H16682   7.791   6.019  -0.094  0.1847 -1.1407  0.4271
  124MOL0     H16683   7.578   5.924  -0.082 -0.8656 -1.1008  0.8307
  124MOL0     H16684   7.563   5.938   0.095  3.3462 -0.0046  1.0120
  124MOL0     H16685   7.577   6.199   0.064 -0.1977 -1.1938  1.9263
  124MOL0     H16686   7.587   6.168  -0.106  0.9583  0.6400  1.3929
  124MOL0     H16687   7.362   6.247  -0.027  1.6825  0.2642  1.4420
  124MOL0     H16688   7.362   6.098  -0.127 -0.9123  0.2705  0.9296
  124MOL0     H16689   7.348   6.110   0.177 -0.3322 -0.8839  0.4881
  124MOL0     H16690   7.309   5.964   0.086 -0.9961 -0.4291 -1.1281
  124MOL0     H16691   7.111   6.169  -0.115 -1.3621 -2.5051 -0.6290
  124MOL0     H16692   6.781   6.265   0.060  3.0989  2.3234  2.1489
  124MOL0     H16693   6.880   6.343  -0.072  0.2031 -0.5350 -1.3689
  124MOL0     H16694   6.788   6.051  -0.083  0.2747 -0.6492 -0.0836
  124MOL0     H16695   6.851   6.158  -0.215  0.1619  2.8824 -0.4085
  124MOL0     H16696   6.627   6.297  -0.183  1.5379 -0.1317  0.2968
  124MOL0     H16697   6.575   6.173  -0.071 -1.4900  0.6699 -0.3277
  124MOL0     H16698   6.474   6.071  -0.252  1.1297  0.5537  1.2334
  124MOL0     H16699   6.635   6.016  -0.279 -0.1232 -0.5118  2.8668
  124MOL0     H16700   6.566   6.306  -0.633  0.0683 -0.5737 -0.5634
  124MOL0     H16701   6.458   6.625  -0.730  2.5736  0.9567  1.2889
  124MOL0     H16702   6.548   6.492  -0.769 -0.7098 -0.2593  0.3953
  124MOL0     H16703   6.373   6.484  -0.800  1.5150  1.0581 -1.5005
  124MOL0     H16704   6.034   6.807  -0.595 -0.1895  0.5739 -0.2116
  124MOL0     H16705   5.929   7.029  -0.551 -0.5699  1.9589  1.6431
  124MOL0     H16706   5.850   7.125  -0.132  1.1659  0.9819  2.1907
  124MOL0     H16707   5.974   7.251  -0.181  0.3246  0.5667 -1.5671
  124MOL0     H16708   5.769   7.368  -0.096  3.1559  1.2129 -0.2778
  124MOL0     H16709   5.781   7.396  -0.271 -0.7467  0.7717  0.4017
  124MOL0     H16710   5.587   7.197  -0.162  0.7182 -1.8961 -1.3904
  124MOL0     H16711   5.608   7.241  -0.334 -1.9900 -1.4692 -0.1095
  124MOL0     H16712   5.539   7.466  -0.124  0.7779 -1.7033  1.5004
  124MOL0     H16713   5.530   7.441  -0.301  2.6896  1.0713  0.9081
  124MOL0     H16714   5.371   7.269  -0.109 -0.7308  1.1619  0.9820
  124MOL0     H16715   5.362   7.271  -0.285 -0.4091 -0.9605  0.9152
  124MOL0     H16716   5.270   7.503  -0.110 -2.8432  0.1129  0.4056
  124MOL0     H16717   5.276   7.513  -0.284  1.3080 -0.7552 -0.6876
  124MOL0     H16718   5.111   7.345  -0.102  2.2708 -0.2215  0.2744
  124MOL0     H16719   5.119   7.293  -0.272 -1.5746  0.3791 -1.1736
  124MOL0     H16720   4.915   7.445  -0.236  0.1177  0.9364 -1.0789
  124MOL0     H16721   5.030   7.505  -0.358  1.0903 -2.0571 -0.2154
  124MOL0     H16722   6.069   7.035  -0.158 -1.2733 -2.8846  0.4872
  124MOL0     H16723   6.200   6.816  -0.202 -1.8959 -0.9985  0.6736
  124MOL0     H16724   6.228   6.439  -0.296  1.2789  1.4724  0.5314
  124MOL0     H16725   6.354   6.262  -0.258 -2.7889  3.1737  0.6518
  124MOL0     H16726   8.411   5.750   0.118  0.5142  2.1517  2.3554
  124MOL0     H16727   8.557   5.586   0.224 -0.5250  1.8525 -2.4352
  124MOL0     H16728   8.450   5.303   0.618 -0.2810 -0.8407  2.3729
  124MOL0     H16729   8.509   5.200   0.835  3.0817  1.6344  2.9831
  124MOL0     H16730   8.660   5.134   1.039  1.8964  0.0414  0.1561
  124MOL0     H16731   8.574   5.003   0.952  0.9352 -3.4577  0.0078
  124MOL0     H16732   8.726   4.830   1.029 -0.4337 -0.1692 -0.4257
  124MOL0     H16733   8.671   4.930   1.169  0.1063  0.2403  0.1459
  124MOL0     H16734   8.878   5.055   1.167 -0.0384  0.3719 -0.5946
  124MOL0     H16735   8.931   4.976   1.014  0.3623 -1.9933 -0.1363
  124MOL0     H16736   8.943   4.760   1.128  1.8151  0.3121  0.2821
  124MOL0     H16737   8.881   4.839   1.278 -1.2019  5.0739  0.8161
  124MOL0     H16738   9.304   4.932   1.239  1.9574 -2.0919 -0.3812
  124MOL0     H16739   8.904   5.151   0.704  0.8415 -0.5991  0.5333
  124MOL0     H16740   8.860   5.259   0.486 -0.9373 -0.3284 -0.6004
  125MOL0     O16741   4.056   3.074   2.092  0.3467 -0.6989  0.3601
  125MOL0     C16742   4.162   3.138   2.087 -1.9251 -0.3885 -0.9821
  125MOL0     O16743   4.176   3.271   2.085  0.1062  0.1559 -0.4871
  125MOL0     C16744   4.063   3.350   2.064 -0.0787 -0.2076  0.5650
  125MOL0     C16745   3.979   3.321   1.955  0.1018 -0.3315  0.2000
  125MOL0     C16746   3.871   3.411   1.925 -0.4838  0.5998  1.1930
  125MOL0     C16747   3.834   3.514   2.011  0.0561 -0.2696  0.0836
  125MOL0     O16748   3.732   3.601   1.977 -0.6354  0.5948  0.3164
  125MOL0     C16749   3.667   3.668   2.085  0.2836 -0.2604  0.6571
  125MOL0     C16750   3.513   3.697   2.065 -0.6985  0.5364 -0.4128
  125MOL0     C16751   3.514   3.818   1.969 -0.9701  0.2562  0.9159
  125MOL0     C16752   3.373   3.877   1.953  0.3814  0.1096 -0.1737
  125MOL0     C16753   3.287   3.798   1.858  0.5622 -0.3311 -0.0004
  125MOL0     C16754   3.159   3.872   1.823 -0.2478 -0.2370  0.1027
  125MOL0     C16755   3.105   3.833   1.691  0.1010  0.2445 -0.0986
  125MOL0     C16756   2.986   3.921   1.642 -0.0672 -0.3850 -0.3640
  125MOL0     N16757   2.932   3.897   1.508 -0.4072 -0.1504 -0.8499
  125MOL0     C16758   2.887   3.991   1.426 -0.8232  0.7680  0.1078
  125MOL0     C16759   2.809   3.922   1.335  0.0282  0.5026 -0.4937
  125MOL0     C16760   2.740   3.991   1.214  0.2341 -0.1209 -0.5704
  125MOL0     C16761   2.589   3.998   1.258  0.0176 -0.0884  0.6335
  125MOL0     C16762   2.521   3.858   1.245  0.0204 -0.0340 -0.2401
  125MOL0     C16763   2.374   3.871   1.273 -1.0461 -0.0684 -0.4447
  125MOL0     O16764   2.307   3.748   1.254  0.0228 -0.0955  0.0054
  125MOL0     C16765   2.177   3.755   1.212 -0.3341  0.1203  0.0151
  125MOL0     C16766   2.128   3.661   1.126 -0.1040  0.2679 -0.5052
  125MOL0     C16767   1.987   3.664   1.088 -0.2504 -0.1451 -0.3265
  125MOL0     C16768   1.951   3.570   0.979  0.8519  0.0787  0.1972
  125MOL0     C16769   1.891   3.754   1.150  0.1619 -0.8604 -0.7413
  125MOL0     C16770   1.748   3.753   1.125 -0.2549 -0.2278 -0.3678
  125MOL0     O16771   1.674   3.804   1.230  0.1817  1.1039  0.3629
  125MOL0     C16772   1.541   3.796   1.204 -0.1252  0.0675  0.3423
  125MOL0     C16773   1.461   3.716   1.292 -0.6286 -0.6873 -0.3639
  125MOL0     C16774   1.317   3.719   1.284 -0.7302 -0.3257 -0.1027
  125MOL0     C16775   1.254   3.777   1.173  0.5929 -0.3149 -0.0092
  125MOL0     O16776   1.120   3.773   1.144  0.1754 -0.2891  0.6859
  125MOL0     C16777   1.035   3.689   1.228  0.3602 -0.3944  0.9335
  125MOL0     C16778   0.983   3.768   1.356  0.2142  0.3070  0.2204
  125MOL0     C16779   0.841   3.730   1.403  0.1701  0.5035  0.9384
  125MOL0     C16780   0.758   3.860   1.410 -0.6667  0.1838 -0.9461
  125MOL0     C16781   0.615   3.832   1.447  0.8120  0.3680  0.1345
  125MOL0     C16782   0.544   3.969   1.450  0.4977 -0.1906 -0.6974
  125MOL0     C16783   0.411   3.962   1.514  0.7560 -0.4093 -0.2780
  125MOL0     C16784   0.354   4.104   1.523  0.1052  0.9021  0.0935
  125MOL0    Cl16785   0.191   4.094   1.593 -0.2608  0.0152  0.3117
  125MOL0     C16786   1.333   3.852   1.086  0.2042  0.5749  0.0528
  125MOL0     C16787   1.472   3.869   1.102  0.5522 -0.0615 -0.3498
  125MOL0     O16788   1.712   3.711   1.015  0.5529  0.9144  0.3294
  125MOL0     C16789   1.956   3.850   1.237 -0.1421  0.2674 -0.4558
  125MOL0     C16790   2.090   3.853   1.261 -0.1719  0.1542 -0.8011
  125MOL0     N16791   2.810   3.790   1.372 -0.8582  0.5465  0.6162
  125MOL0     N16792   2.882   3.777   1.468 -0.8297 -0.0271 -0.9567
  125MOL0     C16793   3.927   3.543   2.119 -0.7015  0.7910  0.7538
  125MOL0     C16794   4.034   3.454   2.151  0.0850 -0.5072  0.7501
  125MOL0     C16795   4.290   3.053   2.095  0.3884 -0.6466 -0.5455
  125MOL0     C16796   4.419   3.098   2.060 -0.0916 -0.6056  0.3825
  125MOL0     C16797   4.529   3.010   2.051 -0.8392 -0.0161  0.2548
  125MOL0     C16798   4.507   2.873   2.086 -0.3781 -0.4041 -0.0540
  125MOL0     O16799   4.609   2.781   2.110 -0.1027  0.7289 -0.2667
  125MOL0     C16800   4.745   2.803   2.087 -0.7586 -0.5820 -0.4006
  125MOL0     C16801   4.800   2.664   2.079  0.7203 -0.6459  0.5247
  125MOL0     C16802   4.774   2.580   1.948 -0.2035  0.0541 -0.4398
  125MOL0     C16803   4.792   2.432   1.973 -0.0163  0.3572  0.0744
  125MOL0     C16804   4.935   2.402   1.984 -0.6664  0.0488 -0.1434
  125MOL0     C16805   5.050   2.379   2.002 -0.2868 -0.8322 -0.3052
  125MOL0     C16806   4.387   2.832   2.131 -0.4224  0.5849 -0.4355
  125MOL0     C16807   4.281   2.921   2.137  0.2415  0.4777  0.1459
  125MOL0     H16808   4.000   3.235   1.891  1.9218 -0.3395  0.7422
  125MOL0     H16809   3.806   3.388   1.841  0.3559  0.3779  0.5862
  125MOL0     H16810   3.663   3.612   2.179  2.6562 -1.5027  0.0978
  125MOL0     H16811   3.726   3.758   2.104  0.4687 -0.0768 -0.6757
  125MOL0     H16812   3.474   3.604   2.021  1.9289 -1.9214  1.9711
  125MOL0     H16813   3.458   3.721   2.156 -0.5147  2.6229 -0.8198
  125MOL0     H16814   3.579   3.896   2.010 -0.7388  0.5575 -0.0087
  125MOL0     H16815   3.549   3.792   1.869 -2.2295 -2.6391  1.1119
  125MOL0     H16816   3.315   3.884   2.046  1.4339  3.1847  0.3712
  125MOL0     H16817   3.375   3.977   1.910 -0.1635 -0.3730 -1.3746
  125MOL0     H16818   3.346   3.789   1.766  1.1446  1.6754  0.1287
  125MOL0     H16819   3.262   3.698   1.896  0.9224 -0.1154  0.8140
  125MOL0     H16820   3.076   3.847   1.889  0.2912 -0.0462  0.8770
  125MOL0     H16821   3.175   3.980   1.834  2.2999 -0.7168  2.2905
  125MOL0     H16822   3.183   3.845   1.616 -0.9583  3.0102 -0.8773
  125MOL0     H16823   3.069   3.730   1.690  0.8847 -0.0388  0.0511
  125MOL0     H16824   3.022   4.024   1.642  1.2687 -0.8304 -0.2613
  125MOL0     H16825   2.912   3.905   1.721 -0.6739  0.8327 -0.6546
  125MOL0     H16826   2.922   4.093   1.439  2.0672 -0.1585  0.3569
  125MOL0     H16827   2.767   4.096   1.200 -0.4254  0.1330 -0.0109
  125MOL0     H16828   2.745   3.935   1.120 -1.6287 -0.5431 -0.4519
  125MOL0     H16829   2.544   4.068   1.186  2.7995 -1.6337 -2.9161
  125MOL0     H16830   2.582   4.030   1.362  2.7877 -2.2230  1.5979
  125MOL0     H16831   2.564   3.786   1.315  2.1421 -1.4730 -2.8171
  125MOL0     H16832   2.528   3.816   1.144  0.4890 -1.0311  0.1941
  125MOL0     H16833   2.338   3.945   1.201  1.3999  1.9195  0.2206
  125MOL0     H16834   2.365   3.904   1.377 -0.9566 -1.1751 -0.0784
  125MOL0     H16835   2.196   3.587   1.088 -1.6584 -2.3217  1.3853
  125MOL0     H16836   1.919   3.629   0.893  1.8017  2.0301  1.1157
  125MOL0     H16837   2.041   3.517   0.947  1.7105  0.8438  1.2508
  125MOL0     H16838   1.874   3.497   1.007  2.5166 -1.2690  1.4383
  125MOL0     H16839   1.508   3.670   1.378  0.5521  0.2294 -0.4938
  125MOL0     H16840   1.260   3.676   1.366 -0.4237  1.5577  1.1700
  125MOL0     H16841   0.943   3.680   1.170  0.1588  0.3622  1.1221
  125MOL0     H16842   1.087   3.598   1.258  2.0266  0.5835  1.1979
  125MOL0     H16843   1.057   3.753   1.434  2.2600  0.6440 -1.5599
  125MOL0     H16844   0.981   3.874   1.330 -1.1610  0.6099  1.4459
  125MOL0     H16845   0.838   3.692   1.505 -1.7035  1.6611  1.3654
  125MOL0     H16846   0.804   3.658   1.330  1.5983  1.9243 -1.3196
  125MOL0     H16847   0.802   3.932   1.480  0.1949 -1.6163  0.4475
  125MOL0     H16848   0.745   3.913   1.315  0.5042  2.2595 -0.0182
  125MOL0     H16849   0.594   3.777   1.540  0.9487  2.1280  1.2486
  125MOL0     H16850   0.567   3.771   1.370 -1.0297  2.2568 -0.2779
  125MOL0     H16851   0.592   4.052   1.503 -2.9406  0.0361  2.5314
  125MOL0     H16852   0.523   4.005   1.349 -1.3752  0.2770 -0.1917
  125MOL0     H16853   0.417   3.915   1.613 -3.2493  1.5570  1.1450
  125MOL0     H16854   0.347   3.898   1.452 -0.6881  0.5153  0.2115
  125MOL0     H16855   0.363   4.162   1.430  2.8956  1.5970  0.7116
  125MOL0     H16856   0.414   4.165   1.592 -1.3913  2.4053  0.1328
  125MOL0     H16857   1.289   3.906   1.003 -0.6719 -0.9580 -0.5245
  125MOL0     H16858   1.531   3.934   1.038  1.1039  0.6394  0.8359
  125MOL0     H16859   1.899   3.929   1.286 -1.9640 -0.1006 -1.8690
  125MOL0     H16860   2.132   3.930   1.324 -0.5287  0.5940 -1.0960
  125MOL0     H16861   3.907   3.632   2.178 -1.0086 -0.3049  2.3751
  125MOL0     H16862   4.106   3.479   2.229  2.0030 -1.9425 -0.4654
  125MOL0     H16863   4.424   3.204   2.041 -0.1461 -0.8695 -1.2376
  125MOL0     H16864   4.622   3.061   2.028 -1.0780 -0.4707 -2.0022
  125MOL0     H16865   4.769   2.872   2.005  1.4372  0.8074  1.2932
  125MOL0     H16866   4.782   2.857   2.174 -1.1632 -1.5714  0.4000
  125MOL0     H16867   4.776   2.604   2.167  0.0507 -1.0734  0.0612
  125MOL0     H16868   4.908   2.676   2.080  0.6801 -0.3324  1.2616
  125MOL0     H16869   4.845   2.615   1.872  0.8853 -0.8976  0.0969
  125MOL0     H16870   4.677   2.602   1.903  0.6474 -2.8684 -4.1097
  125MOL0     H16871   4.766   2.372   1.885  0.3976 -0.3367  0.4219
  125MOL0     H16872   4.731   2.403   2.059  3.2810 -1.0234  2.1292
  125MOL0     H16873   5.152   2.346   2.012 -0.0867 -0.0570  0.2178
  125MOL0     H16874   4.382   2.729   2.164  2.5052  0.9612  1.5866
  125MOL0     H16875   4.189   2.869   2.162 -1.1930  2.1480 -1.3307
  126MOL0     O16876   8.978   2.524   3.494  0.3220 -0.1043 -0.3569
  126MOL0     C16877   9.040   2.596   3.415  0.4240 -0.0661  1.1359
  126MOL0     O16878   9.000   2.636   3.289 -0.6570 -0.5512  0.0928
  126MOL0     C16879   8.874   2.603   3.246  0.1329 -0.2132 -0.2592
  126MOL0     C16880   8.760   2.563   3.318  0.1982 -0.5376  0.5651
  126MOL0     C16881   8.638   2.556   3.245 -0.0048 -0.2245  0.8486
  126MOL0     C16882   8.633   2.571   3.103 -1.6101 -0.0053  0.0872
  126MOL0     O16883   8.527   2.558   3.019 -0.4199 -0.1237  0.0757
  126MOL0     C16884   8.397   2.546   3.063 -0.9857  0.1530  0.7173
  126MOL0     C16885   8.321   2.567   2.932 -0.7168 -0.0713  0.1961
  126MOL0     C16886   8.167   2.549   2.933 -0.4215  0.6014  0.3291
  126MOL0     C16887   8.097   2.570   3.070 -0.4837 -0.3013  0.0557
  126MOL0     C16888   7.946   2.565   3.054  0.0258  0.1954  1.3092
  126MOL0     C16889   7.877   2.545   3.186 -0.6477 -0.3314  0.4362
  126MOL0     C16890   7.724   2.573   3.175 -0.0471 -0.0658  0.5689
  126MOL0     C16891   7.637   2.472   3.099 -0.0295  0.1256 -0.1112
  126MOL0     N16892   7.492   2.513   3.113 -0.0628 -0.2448  0.1090
  126MOL0     C16893   7.404   2.442   3.193 -0.0082  0.8093 -0.2190
  126MOL0     C16894   7.291   2.518   3.181  0.7725  0.2857 -1.5559
  126MOL0     C16895   7.155   2.487   3.234 -0.0053  0.2960  0.7663
  126MOL0     C16896   7.042   2.529   3.137 -0.9339  0.2739 -0.1872
  126MOL0     C16897   7.013   2.672   3.126  0.0286 -0.5898 -0.7901
  126MOL0     C16898   6.911   2.707   3.014  0.3285 -0.5462 -0.0963
  126MOL0     O16899   6.784   2.631   3.038  0.1342  0.3635  0.0199
  126MOL0     C16900   6.668   2.662   2.965  0.8934 -0.4530 -0.4505
  126MOL0     C16901   6.554   2.588   2.998 -1.4108  0.8333 -0.5743
  126MOL0     C16902   6.423   2.617   2.952  0.3159 -0.0072 -0.4557
  126MOL0     C16903   6.318   2.520   3.002 -0.8272 -0.9284 -0.9807
  126MOL0     C16904   6.406   2.730   2.863  0.2252  0.1111 -0.8743
  126MOL0     C16905   6.263   2.779   2.827 -0.1763 -0.2784 -0.2772
  126MOL0     O16906   6.243   2.862   2.722  0.3736  0.6752  0.0415
  126MOL0     C16907   6.117   2.900   2.682 -0.3066  0.3931 -1.1915
  126MOL0     C16908   6.026   2.805   2.633 -0.3478  1.0265  0.5324
  126MOL0     C16909   5.897   2.832   2.598 -0.1104 -0.6471 -0.4748
  126MOL0     C16910   5.850   2.968   2.609 -0.0522 -0.6669 -1.1072
  126MOL0     O16911   5.723   3.001   2.582 -0.3677 -0.0543  1.0302
  126MOL0     C16912   5.658   3.121   2.627  1.3527 -0.2145  0.0255
  126MOL0     C16913   5.620   3.119   2.771  1.1742  0.1603  0.7981
  126MOL0     C16914   5.514   3.012   2.802 -0.8466  0.5180  0.0174
  126MOL0     C16915   5.454   3.032   2.937 -1.0072  0.8863 -0.0754
  126MOL0     C16916   5.325   2.953   2.953  0.9834 -0.3740  1.3652
  126MOL0     C16917   5.201   3.029   2.892 -0.1466  0.2433 -1.0840
  126MOL0     C16918   5.063   2.952   2.905 -0.2242 -0.5735  0.3283
  126MOL0     C16919   5.064   2.801   2.877  0.1542 -0.3873 -0.3061
  126MOL0    Cl16920   5.109   2.789   2.706  0.0764  0.4863 -0.1417
  126MOL0     C16921   5.942   3.070   2.654 -0.7472 -0.1051  0.1499
  126MOL0     C16922   6.067   3.030   2.693 -0.3268 -0.4447  0.2330
  126MOL0     O16923   6.173   2.745   2.900 -0.9869  0.4780  0.5096
  126MOL0     C16924   6.526   2.793   2.815  0.0702 -0.5361 -0.1295
  126MOL0     C16925   6.650   2.768   2.872  0.6673 -0.1049  0.4248
  126MOL0     N16926   7.317   2.616   3.088  0.4687  0.4087 -0.1014
  126MOL0     N16927   7.438   2.625   3.061 -0.3699  0.4142  0.6633
  126MOL0     C16928   8.749   2.600   3.035 -0.0591  0.0801  0.2522
  126MOL0     C16929   8.862   2.619   3.107  0.1863 -0.0819  0.2311
  126MOL0     C16930   9.164   2.663   3.464 -0.6142 -0.3751  0.0003
  126MOL0     C16931   9.187   2.696   3.599 -0.4614 -1.3859  0.2125
  126MOL0     C16932   9.295   2.772   3.639 -0.5804  0.4848  0.7510
  126MOL0     C16933   9.385   2.823   3.545  0.3120 -0.4122  0.0131
  126MOL0     O16934   9.493   2.896   3.601  0.1075  0.6405  0.1202
  126MOL0     C16935   9.583   2.958   3.510  0.2674 -0.6822  0.6941
  126MOL0     C16936   9.690   3.042   3.577  1.1687  0.1979 -0.3304
  126MOL0     C16937   9.797   2.939   3.624 -0.2202  0.3440 -0.4636
  126MOL0     C16938   9.908   2.994   3.716  0.4229 -0.7315  0.2127
  126MOL0     C16939   9.982   3.109   3.666 -0.3461  0.3215  0.2453
  126MOL0     C16940  10.040   3.198   3.605  0.2621 -0.1780  0.2164
  126MOL0     C16941   9.361   2.801   3.406  0.3809  0.1074 -0.7517
  126MOL0     C16942   9.253   2.719   3.368  0.2616  0.0127 -0.5588
  126MOL0     H16943   8.761   2.549   3.425 -0.4581 -0.2699  0.6116
  126MOL0     H16944   8.549   2.525   3.299 -0.7094  2.4994  1.4226
  126MOL0     H16945   8.384   2.447   3.108  2.0102 -1.1682 -1.0231
  126MOL0     H16946   8.385   2.626   3.136  3.0296  0.2975  1.4111
  126MOL0     H16947   8.339   2.669   2.898 -2.3087  0.9691  2.2549
  126MOL0     H16948   8.363   2.505   2.853  1.5721  0.2644  1.0759
  126MOL0     H16949   8.121   2.617   2.861  0.3138 -0.8424 -1.6002
  126MOL0     H16950   8.145   2.448   2.897  0.5279  0.8957 -1.1777
  126MOL0     H16951   8.132   2.501   3.148 -1.2759  0.3548  1.0205
  126MOL0     H16952   8.124   2.666   3.115 -0.2247 -0.6088  0.5690
  126MOL0     H16953   7.912   2.658   3.007  2.4024  2.0428  2.9723
  126MOL0     H16954   7.918   2.488   2.982  1.3872 -1.3753  2.3857
  126MOL0     H16955   7.909   2.449   3.228  0.6092  0.0406  0.3756
  126MOL0     H16956   7.906   2.618   3.262 -1.1803  0.6230 -0.2526
  126MOL0     H16957   7.686   2.585   3.277  1.0549 -1.0607  1.1192
  126MOL0     H16958   7.712   2.671   3.130 -0.5981  0.3929  1.6673
  126MOL0     H16959   7.660   2.376   3.147  0.6213  0.3985  0.1355
  126MOL0     H16960   7.662   2.456   2.994 -0.7162 -5.0074  0.2426
  126MOL0     H16961   7.411   2.347   3.245  0.8552 -0.0762 -1.8722
  126MOL0     H16962   7.156   2.378   3.235  1.1649  0.2502 -1.1680
  126MOL0     H16963   7.148   2.528   3.336  2.5681 -2.2774  2.1142
  126MOL0     H16964   6.951   2.480   3.172  0.3278 -2.1955 -0.1398
  126MOL0     H16965   7.071   2.489   3.039 -0.8028 -0.8872  0.3199
  126MOL0     H16966   7.103   2.729   3.103  0.7876 -1.0296  0.9209
  126MOL0     H16967   6.977   2.707   3.223  0.5498  1.0343 -1.1598
  126MOL0     H16968   6.945   2.671   2.916  0.3304 -1.8133  0.3536
  126MOL0     H16969   6.903   2.816   3.009  1.6088 -0.3594  1.1638
  126MOL0     H16970   6.553   2.502   3.063  0.1225  2.5111  1.8437
  126MOL0     H16971   6.242   2.510   2.924 -1.4861  1.6357 -0.7533
  126MOL0     H16972   6.368   2.429   3.035  1.7704  1.1392  1.1462
  126MOL0     H16973   6.262   2.560   3.087 -2.2321  1.8921 -3.0687
  126MOL0     H16974   6.066   2.704   2.632  0.4801  1.3153  1.9406
  126MOL0     H16975   5.827   2.753   2.573  2.1290 -1.9812 -2.9925
  126MOL0     H16976   5.713   3.214   2.609 -1.4877  1.4120 -0.8316
  126MOL0     H16977   5.565   3.128   2.569  1.5206 -4.0485 -1.0015
  126MOL0     H16978   5.711   3.098   2.828  1.1711 -1.2594  0.3286
  126MOL0     H16979   5.590   3.220   2.802 -2.0084  0.1148 -1.6544
  126MOL0     H16980   5.567   2.916   2.795 -5.4202 -2.4821  1.6055
  126MOL0     H16981   5.435   3.013   2.726 -1.6017 -0.3551  0.7614
  126MOL0     H16982   5.531   2.997   3.007  0.0604 -3.5510 -3.0522
  126MOL0     H16983   5.434   3.137   2.958  0.6210  1.1718  0.1969
  126MOL0     H16984   5.301   2.929   3.057 -0.7476  1.3381  1.4044
  126MOL0     H16985   5.340   2.858   2.901 -1.0431 -0.3208  0.6020
  126MOL0     H16986   5.188   3.121   2.950  0.4268 -0.5306  0.3386
  126MOL0     H16987   5.211   3.070   2.791 -1.9177  3.6854 -0.0269
  126MOL0     H16988   4.992   2.993   2.833 -1.7520 -1.3711  1.3167
  126MOL0     H16989   5.021   2.978   3.003  1.3480 -0.0029  0.8856
  126MOL0     H16990   4.965   2.758   2.898  0.9846 -1.9985  0.5222
  126MOL0     H16991   5.137   2.743   2.935  1.1510  1.5911  0.5077
  126MOL0     H16992   5.918   3.175   2.665  2.6624  0.8424 -0.3879
  126MOL0     H16993   6.137   3.097   2.742 -0.0666 -0.9604  0.5712
  126MOL0     H16994   6.513   2.871   2.740 -1.6544  1.1393  1.7956
  126MOL0     H16995   6.733   2.826   2.836  0.7739 -0.5321 -0.0347
  126MOL0     H16996   8.746   2.601   2.927 -3.4568 -1.6088  0.1833
  126MOL0     H16997   8.940   2.656   3.042 -1.3324  2.9033 -0.0472
  126MOL0     H16998   9.127   2.656   3.680  1.2839 -0.4405  2.0466
  126MOL0     H16999   9.313   2.801   3.741  1.1737  2.8490 -0.1394
  126MOL0     H17000   9.620   2.886   3.437  0.6085 -0.2679  0.4558
  126MOL0     H17001   9.525   3.026   3.448  0.5683 -1.0047  0.0491
  126MOL0     H17002   9.656   3.097   3.665  2.0575 -0.3535  0.3768
  126MOL0     H17003   9.741   3.106   3.504 -0.3151 -0.1917 -1.7588
  126MOL0     H17004   9.848   2.882   3.545 -0.2816 -3.6210  2.0728
  126MOL0     H17005   9.748   2.862   3.684 -1.8840  2.4672  0.9965
  126MOL0     H17006   9.981   2.915   3.737 -0.4363 -1.1589  1.7964
  126MOL0     H17007   9.858   3.011   3.812  1.0090 -0.6307  0.5026
  126MOL0     H17008  10.089   3.274   3.548 -1.7686  1.1718  0.1723
  126MOL0     H17009   9.419   2.842   3.323 -2.0619 -0.4134 -2.8287
  126MOL0     H17010   9.231   2.694   3.265 -0.7309  1.7169 -0.8068
  127MOL0     O17011  11.250   9.827   6.383  0.2198 -0.2211 -1.1359
  127MOL0     C17012  11.248   9.953   6.407 -0.0949 -0.1411  0.0399
  127MOL0     O17013  11.142  10.032   6.450  0.1891 -0.4599 -0.3534
  127MOL0     C17014  11.012   9.985   6.470 -0.0873 -0.3462  0.2373
  127MOL0     C17015  10.943  10.004   6.588 -0.2151  0.2596 -0.0211
  127MOL0     C17016  10.818   9.956   6.611  1.0466  0.5369 -0.7402
  127MOL0     C17017  10.763   9.867   6.517  0.2610 -0.4711 -0.5637
  127MOL0     O17018  10.645   9.798   6.557 -0.5254  0.3827 -0.1538
  127MOL0     C17019  10.530   9.827   6.475 -0.2464 -0.1926  0.1228
  127MOL0     C17020  10.411   9.746   6.536  0.1222 -0.0391 -0.8412
  127MOL0     C17021  10.290   9.753   6.434 -0.8961  0.0302 -0.4620
  127MOL0     C17022  10.161   9.700   6.502 -0.0694  0.0300  0.8384
  127MOL0     C17023  10.037   9.706   6.415  0.0521  0.5328  0.3166
  127MOL0     C17024   9.944   9.592   6.458  0.0670  0.1225  0.4388
  127MOL0     C17025   9.814   9.594   6.366 -0.0453 -0.1448  0.3687
  127MOL0     C17026   9.828   9.545   6.219 -0.2024 -0.0722 -0.9018
  127MOL0     N17027   9.699   9.513   6.153  0.0604 -0.2457 -0.0945
  127MOL0     C17028   9.652   9.389   6.124 -0.3054 -0.1386  0.9146
  127MOL0     C17029   9.530   9.403   6.071 -0.3511 -0.6275 -0.6332
  127MOL0     C17030   9.439   9.282   6.040 -0.4209 -0.8116 -0.0585
  127MOL0     C17031   9.411   9.274   5.888 -0.0451 -0.5793  0.3236
  127MOL0     C17032   9.374   9.137   5.824  0.2332 -0.0177  0.0414
  127MOL0     C17033   9.229   9.108   5.877 -1.1012 -0.4227 -0.4702
  127MOL0     O17034   9.224   9.073   6.021  0.6216 -1.2259  0.0350
  127MOL0     C17035   9.096   9.089   6.075  0.3594 -0.1693  0.1139
  127MOL0     C17036   9.074   9.103   6.214 -0.7663 -0.3477 -0.8219
  127MOL0     C17037   8.941   9.106   6.273 -0.7327 -0.6643  0.2998
  127MOL0     C17038   8.933   9.118   6.424  0.3231 -0.0795 -0.2475
  127MOL0     C17039   8.828   9.102   6.188 -0.6388 -0.2163  0.9269
  127MOL0     C17040   8.685   9.118   6.233  0.3886  0.0050 -0.0672
  127MOL0     O17041   8.590   9.094   6.135  0.0936  0.2514 -0.8092
  127MOL0     C17042   8.462   9.046   6.184 -0.0077 -0.2880 -0.4720
  127MOL0     C17043   8.435   8.980   6.303  0.1671  0.0223  0.0978
  127MOL0     C17044   8.305   8.950   6.335  0.0081  0.0401 -0.2086
  127MOL0     C17045   8.202   8.978   6.249 -0.6174 -0.2244 -0.3197
  127MOL0     O17046   8.078   8.933   6.284 -0.0740  0.1153  0.2906
  127MOL0     C17047   7.966   8.943   6.186 -0.1817 -0.3218  0.2956
  127MOL0     C17048   7.833   8.886   6.230 -0.4227  0.1187  0.1281
  127MOL0     C17049   7.728   8.955   6.135 -0.6126 -0.0426 -0.0358
  127MOL0     C17050   7.584   8.913   6.170 -0.1545  0.5453  0.4241
  127MOL0     C17051   7.481   8.990   6.077  0.2234 -0.4622 -0.4327
  127MOL0     C17052   7.353   8.910   6.062 -0.1080  0.8649  0.3362
  127MOL0     C17053   7.241   8.970   5.986 -0.2409  0.1593  0.7949
  127MOL0     C17054   7.110   8.897   5.999  0.6741  1.0296  0.3348
  127MOL0    Cl17055   6.965   8.992   5.935 -0.1396 -0.2366 -0.2979
  127MOL0     C17056   8.226   9.044   6.123 -0.3323 -0.8495  0.6746
  127MOL0     C17057   8.356   9.079   6.093 -0.3199  0.0511 -0.8754
  127MOL0     O17058   8.660   9.157   6.348  0.4835  0.9415 -0.7058
  127MOL0     C17059   8.849   9.088   6.052 -0.1059  0.1474  0.5574
  127MOL0     C17060   8.974   9.077   6.000  0.1878  1.2729 -0.3556
  127MOL0     N17061   9.508   9.545   6.061 -0.2253 -0.6967 -0.4788
  127MOL0     N17062   9.613   9.601   6.105  0.0951  0.4438 -0.3961
  127MOL0     C17063  10.830   9.838   6.398  0.4091  0.3985  0.2278
  127MOL0     C17064  10.955   9.901   6.375  0.3545  0.2654  0.6731
  127MOL0     C17065  11.378  10.026   6.392  0.6945  0.4035  0.0526
  127MOL0     C17066  11.377  10.160   6.434 -0.4425  0.6160 -0.4655
  127MOL0     C17067  11.496  10.235   6.436 -0.8804 -0.6152  0.5776
  127MOL0     C17068  11.618  10.184   6.385 -0.3530 -0.7212 -0.5934
  127MOL0     O17069  11.722  10.267   6.371  0.6680 -0.3134  0.2354
  127MOL0     C17070  11.842  10.221   6.296  0.4083 -0.4187 -0.0037
  127MOL0     C17071  11.944  10.140   6.381 -0.4738  0.1691 -0.5698
  127MOL0     C17072  12.070  10.100   6.301  0.3492 -0.3359  0.7603
  127MOL0     C17073  12.108  10.183   6.172  0.0917  0.3033 -0.6054
  127MOL0     C17074  12.243  10.138   6.129  0.3839 -0.9609  0.3234
  127MOL0     C17075  12.353  10.096   6.092 -0.2489 -0.2315  0.0244
  127MOL0     C17076  11.616  10.048   6.353  0.2764  0.7322  0.3139
  127MOL0     C17077  11.502   9.968   6.359 -0.7128 -0.1492  0.4285
  127MOL0     H17078  10.976  10.078   6.660 -3.7433  0.7816  1.2573
  127MOL0     H17079  10.756   9.992   6.693  1.0217  0.2113 -0.6139
  127MOL0     H17080  10.511   9.932   6.450  1.8430  0.5571  1.4469
  127MOL0     H17081  10.546   9.786   6.374 -1.1630  2.0711 -0.9989
  127MOL0     H17082  10.435   9.640   6.548 -0.3142  0.0374  0.9326
  127MOL0     H17083  10.377   9.794   6.628  0.6100  3.4862 -2.3383
  127MOL0     H17084  10.279   9.860   6.414 -1.4869  0.2479  0.9263
  127MOL0     H17085  10.315   9.699   6.342  2.7844  2.4517 -1.1030
  127MOL0     H17086  10.175   9.593   6.520 -0.8053  0.0113  1.3204
  127MOL0     H17087  10.147   9.753   6.597  1.9144  0.5343  0.9105
  127MOL0     H17088   9.994   9.806   6.415  0.1541  0.6052 -1.3267
  127MOL0     H17089  10.059   9.682   6.310  0.4098  1.8668  0.0626
  127MOL0     H17090  10.001   9.502   6.432  2.9013  2.1881 -1.1737
  127MOL0     H17091   9.923   9.602   6.564 -2.4959  2.5433 -0.1688
  127MOL0     H17092   9.737   9.529   6.410 -0.4196 -2.1952 -2.9135
  127MOL0     H17093   9.776   9.696   6.357  2.5156  1.1278  2.6277
  127MOL0     H17094   9.886   9.452   6.214  1.9907  1.2209 -0.4853
  127MOL0     H17095   9.896   9.612   6.167 -0.5552  1.5237  0.5974
  127MOL0     H17096   9.704   9.297   6.148  1.9528  1.3716  2.2181
  127MOL0     H17097   9.485   9.188   6.070 -0.8071 -1.1643 -0.5405
  127MOL0     H17098   9.341   9.296   6.086 -1.6939 -2.6223 -2.0202
  127MOL0     H17099   9.506   9.313   5.849  0.4181 -1.0834  0.9168
  127MOL0     H17100   9.336   9.350   5.866 -0.0652 -1.1405 -1.7197
  127MOL0     H17101   9.442   9.057   5.854  0.0253  0.0194  0.6386
  127MOL0     H17102   9.366   9.146   5.715  0.0760  2.5270  0.2027
  127MOL0     H17103   9.180   9.031   5.816  1.2714 -2.6423  0.2893
  127MOL0     H17104   9.171   9.199   5.858  0.8140  0.6751 -1.2469
  127MOL0     H17105   9.170   9.099   6.264 -1.6747  0.8089  1.1145
  127MOL0     H17106   9.004   9.057   6.481 -0.5926  0.7026  1.8467
  127MOL0     H17107   8.956   9.223   6.447 -0.0937  0.3168 -1.5668
  127MOL0     H17108   8.836   9.080   6.456 -0.2140  1.3664 -0.0878
  127MOL0     H17109   8.511   8.954   6.376 -1.7013  0.1826  2.2098
  127MOL0     H17110   8.276   8.894   6.423  0.5292 -0.3496 -0.2800
  127MOL0     H17111   7.960   9.051   6.167 -0.6420 -0.4057 -0.0484
  127MOL0     H17112   7.996   8.890   6.095  0.4242 -0.7354  0.7259
  127MOL0     H17113   7.843   8.777   6.223  0.8727  0.2595 -0.7156
  127MOL0     H17114   7.811   8.914   6.333  1.8053 -0.0723  0.7127
  127MOL0     H17115   7.743   8.930   6.029  0.9872  0.2417  0.0910
  127MOL0     H17116   7.746   9.062   6.138  1.8440 -0.3901 -0.4916
  127MOL0     H17117   7.577   8.806   6.150  0.6125  0.7754 -1.1695
  127MOL0     H17118   7.567   8.927   6.278  0.4431 -3.1744  1.1114
  127MOL0     H17119   7.513   9.008   5.974 -0.5748 -1.6556 -0.9231
  127MOL0     H17120   7.471   9.091   6.117  0.5769 -0.2122 -0.9623
  127MOL0     H17121   7.374   8.809   6.024  0.9494 -0.2434  3.5596
  127MOL0     H17122   7.323   8.894   6.166  0.1754  1.7496  0.5563
  127MOL0     H17123   7.275   8.966   5.882  2.4783 -1.0518  1.6465
  127MOL0     H17124   7.230   9.074   6.018  1.1835  2.3147 -4.5676
  127MOL0     H17125   7.089   8.867   6.102  1.5288  1.2133  0.5676
  127MOL0     H17126   7.120   8.804   5.943 -2.6454  1.6263 -1.5139
  127MOL0     H17127   8.162   9.066   6.038  3.2930  0.7847 -1.9035
  127MOL0     H17128   8.378   9.139   6.005 -1.4324  1.0268 -0.5178
  127MOL0     H17129   8.762   9.069   5.990 -1.4256 -2.1357  2.9314
  127MOL0     H17130   8.972   9.050   5.895  1.0335 -1.1935  0.1804
  127MOL0     H17131  10.787   9.765   6.331 -0.5897  1.5366 -0.4035
  127MOL0     H17132  11.012   9.879   6.285  0.5222  1.5641  0.4467
  127MOL0     H17133  11.294  10.215   6.477  0.2387  1.1869  0.1491
  127MOL0     H17134  11.497  10.336   6.474 -1.1487  0.8771 -2.9825
  127MOL0     H17135  11.810  10.161   6.211 -0.7990 -0.2499  0.3172
  127MOL0     H17136  11.896  10.305   6.251 -0.5137  1.1275  1.6488
  127MOL0     H17137  11.889  10.059   6.430 -0.0855  0.9090  1.1567
  127MOL0     H17138  11.979  10.212   6.455 -0.8154  1.7445 -1.8906
  127MOL0     H17139  12.063   9.996   6.270 -0.9095  0.3056 -1.2964
  127MOL0     H17140  12.150  10.114   6.374 -0.4267 -0.0014  1.5728
  127MOL0     H17141  12.115  10.288   6.202 -2.0048  0.7473 -1.4976
  127MOL0     H17142  12.034  10.167   6.093  2.1201  0.1441 -2.5469
  127MOL0     H17143  12.444  10.048   6.060  1.2904  2.1153  0.6167
  127MOL0     H17144  11.701  10.001   6.304  0.6101  1.4963  0.1465
  127MOL0     H17145  11.499   9.864   6.329 -0.4291 -0.6444  1.9990
  128MOL0     O17146   2.957   8.842   2.926 -0.1830  0.0738  0.6304
  128MOL0     C17147   3.010   8.815   3.036 -0.5278 -0.1607  0.4925
  128MOL0     O17148   2.942   8.778   3.152 -0.4958 -0.4746  0.2259
  128MOL0     C17149   2.804   8.785   3.153  0.7338  0.4432  0.0761
  128MOL0     C17150   2.733   8.684   3.213 -0.0404  0.0667  0.1974
  128MOL0     C17151   2.594   8.688   3.228 -0.3593 -0.3498 -1.1876
  128MOL0     C17152   2.521   8.796   3.174  0.0309 -0.3157  0.2269
  128MOL0     O17153   2.386   8.789   3.195  0.7663 -0.1002  0.3126
  128MOL0     C17154   2.309   8.886   3.121 -0.4294 -0.0749  0.4319
  128MOL0     C17155   2.171   8.823   3.130  0.3781 -0.1707  0.6726
  128MOL0     C17156   2.062   8.913   3.059 -0.0501 -0.3380  0.1244
  128MOL0     C17157   1.922   8.838   3.028  0.9116  0.0165  0.5883
  128MOL0     C17158   1.812   8.941   2.973  0.1007 -0.6303 -0.1975
  128MOL0     C17159   1.683   8.875   2.934  0.3519 -0.3282  0.1768
  128MOL0     C17160   1.566   8.966   2.904  0.9150  0.1399 -0.0571
  128MOL0     C17161   1.566   9.030   2.759 -0.5988  0.7905 -0.5538
  128MOL0     N17162   1.440   9.102   2.741  0.0961  0.3465 -0.5126
  128MOL0     C17163   1.309   9.051   2.721  0.1271  0.0758  1.2452
  128MOL0     C17164   1.234   9.152   2.679 -0.4264 -0.1625  0.5896
  128MOL0     C17165   1.084   9.147   2.639  0.2203 -0.7996 -0.3722
  128MOL0     C17166   0.994   9.106   2.757 -0.9463 -0.1191  0.0899
  128MOL0     C17167   0.849   9.099   2.712 -0.6695 -0.4221  0.1943
  128MOL0     C17168   0.749   9.022   2.811 -0.0918 -0.4177  0.2609
  128MOL0     O17169   0.618   9.037   2.750 -0.3865 -0.6295 -0.6922
  128MOL0     C17170   0.504   9.041   2.837  0.3324 -0.4174  0.6486
  128MOL0     C17171   0.396   9.126   2.813  0.7529  0.2924  0.2924
  128MOL0     C17172   0.287   9.134   2.888  0.2253  0.0577 -1.0502
  128MOL0     C17173   0.183   9.237   2.838  0.1886  0.3186 -0.2448
  128MOL0     C17174   0.280   9.051   3.004 -0.5686  0.4805  0.2597
  128MOL0     C17175   0.180   9.073   3.109  0.0959  1.2189 -0.2911
  128MOL0     O17176   0.063   9.133   3.082 -0.7819 -0.3835 -0.2017
  128MOL0     C17177  -0.057   9.074   3.122 -0.4127  0.1496  0.4231
  128MOL0     C17178  -0.171   9.152   3.115 -0.5885  0.1515  0.5660
  128MOL0     C17179  -0.296   9.107   3.152 -0.5086 -0.2802  0.5552
  128MOL0     C17180  -0.312   8.976   3.198  0.5322 -0.3176 -0.3990
  128MOL0     O17181  -0.432   8.915   3.237 -0.5416  0.1688  0.1829
  128MOL0     C17182  -0.546   9.006   3.241 -0.4889  0.8140 -0.1824
  128MOL0     C17183  -0.668   8.923   3.301 -0.7565  0.1346  0.2265
  128MOL0     C17184  -0.715   8.820   3.201  0.3310 -0.7977 -0.1881
  128MOL0     C17185  -0.852   8.866   3.130  0.0228  0.2299  0.2070
  128MOL0     C17186  -0.901   8.739   3.056  1.2163 -0.3382  0.5321
  128MOL0     C17187  -0.831   8.727   2.921  0.0876  0.2069 -0.6757
  128MOL0     C17188  -0.893   8.600   2.854  0.2167 -0.5620 -0.2608
  128MOL0     C17189  -0.836   8.584   2.720  0.4634 -0.8257 -0.0556
  128MOL0    Cl17190  -0.938   8.682   2.603 -0.1263 -0.0527  0.2364
  128MOL0     C17191  -0.202   8.887   3.189  0.1432 -0.9381  0.0403
  128MOL0     C17192  -0.074   8.935   3.149  0.1992  0.3867  0.4325
  128MOL0     O17193   0.212   9.036   3.221 -0.1183  0.1752  0.4227
  128MOL0     C17194   0.377   8.953   3.028 -0.6817  0.0659 -0.5733
  128MOL0     C17195   0.488   8.947   2.942 -0.1272 -0.4745  0.2961
  128MOL0     N17196   1.311   9.267   2.686  0.1246 -0.4136 -0.0184
  128MOL0     N17197   1.429   9.237   2.730 -0.1653 -0.1082  0.4308
  128MOL0     C17198   2.592   8.902   3.113 -0.1441 -0.2635 -0.2179
  128MOL0     C17199   2.736   8.899   3.120  0.1847  0.5704  0.0192
  128MOL0     C17200   3.153   8.834   3.054 -0.3565 -0.0863 -0.2324
  128MOL0     C17201   3.242   8.831   2.941 -0.7800  0.0942 -1.3624
  128MOL0     C17202   3.379   8.842   2.958 -0.2427  0.0389  0.1850
  128MOL0     C17203   3.429   8.856   3.089 -1.2098  0.2300  0.0118
  128MOL0     O17204   3.566   8.867   3.107  1.0138  0.1362 -0.0614
  128MOL0     C17205   3.657   8.866   2.991  0.3350 -0.1652 -0.2495
  128MOL0     C17206   3.796   8.879   3.049  0.1045  0.3152  0.9601
  128MOL0     C17207   3.896   8.900   2.945 -0.0516 -0.5184 -0.1688
  128MOL0     C17208   4.047   8.905   2.988  0.6090  0.3850 -0.7055
  128MOL0     C17209   4.083   8.771   3.034 -0.5947  0.1386 -0.2826
  128MOL0     C17210   4.098   8.654   3.069 -0.7466  0.1825  0.5537
  128MOL0     C17211   3.344   8.873   3.202 -0.6118  0.5672  0.1846
  128MOL0     C17212   3.210   8.856   3.178  0.8590  0.9090 -0.3014
  128MOL0     H17213   2.801   8.604   3.241 -0.6294 -0.2176  0.8273
  128MOL0     H17214   2.555   8.607   3.288  4.3616 -1.4918  0.8592
  128MOL0     H17215   2.283   8.979   3.173 -0.7341 -1.0977  2.1881
  128MOL0     H17216   2.341   8.901   3.018 -1.6625  1.1480  0.1928
  128MOL0     H17217   2.188   8.730   3.075 -0.9262  0.6390 -1.2180
  128MOL0     H17218   2.139   8.805   3.233 -0.5962  1.3440  0.6700
  128MOL0     H17219   2.040   8.997   3.125 -0.1466  0.4386 -0.8654
  128MOL0     H17220   2.099   8.952   2.964  0.0136 -1.7314 -0.4571
  128MOL0     H17221   1.948   8.760   2.956  1.1010 -0.3247  1.0283
  128MOL0     H17222   1.881   8.789   3.117 -2.1929 -0.7039 -1.0726
  128MOL0     H17223   1.793   9.009   3.057 -0.6737 -1.0243 -0.0395
  128MOL0     H17224   1.852   9.005   2.894 -0.8987  0.3467  0.0548
  128MOL0     H17225   1.711   8.812   2.849 -0.2580  0.3543 -0.5511
  128MOL0     H17226   1.653   8.809   3.016 -3.4786 -2.8108 -2.8575
  128MOL0     H17227   1.479   8.901   2.915  2.2594 -2.1486 -2.0198
  128MOL0     H17228   1.572   9.044   2.980  0.8235  0.7713 -0.6855
  128MOL0     H17229   1.574   8.951   2.683 -0.2036 -0.1879  0.4814
  128MOL0     H17230   1.650   9.100   2.752  0.6660 -0.6215  0.0364
  128MOL0     H17231   1.284   8.946   2.732  1.0947 -0.2714  0.2623
  128MOL0     H17232   1.055   9.249   2.612  1.3258 -0.0412  1.0831
  128MOL0     H17233   1.067   9.076   2.558  0.1500  1.2196 -2.2165
  128MOL0     H17234   1.008   9.168   2.846 -1.9161  0.6656 -0.2893
  128MOL0     H17235   1.035   9.006   2.779  0.5221 -0.4016 -3.2235
  128MOL0     H17236   0.843   9.048   2.615  3.0348 -1.8439  0.5730
  128MOL0     H17237   0.808   9.201   2.711 -0.8253 -0.4672  1.0334
  128MOL0     H17238   0.765   9.073   2.906  0.6439  1.9518 -1.0314
  128MOL0     H17239   0.778   8.917   2.810  0.5922 -0.2755  1.7820
  128MOL0     H17240   0.404   9.186   2.723 -1.6589  0.0394 -0.1450
  128MOL0     H17241   0.082   9.198   2.831  0.5602 -0.7337 -0.0040
  128MOL0     H17242   0.181   9.329   2.896 -1.2449  0.1526 -0.0097
  128MOL0     H17243   0.202   9.274   2.737  0.7170 -1.9459 -1.0429
  128MOL0     H17244  -0.167   9.259   3.095  0.2664  0.1280  0.5815
  128MOL0     H17245  -0.381   9.174   3.158 -2.4430 -2.3622 -1.6612
  128MOL0     H17246  -0.529   9.097   3.300  0.9693 -0.1495  0.9424
  128MOL0     H17247  -0.580   9.035   3.141 -0.9432 -0.5983 -0.4625
  128MOL0     H17248  -0.639   8.884   3.399  0.6300 -0.8052 -0.5285
  128MOL0     H17249  -0.749   8.996   3.317  0.0736  1.0196  0.4584
  128MOL0     H17250  -0.731   8.729   3.258  0.8434 -0.4784  0.4841
  128MOL0     H17251  -0.630   8.806   3.133  1.2542  0.6425  0.6046
  128MOL0     H17252  -0.922   8.901   3.207  0.9060  0.7078  0.8059
  128MOL0     H17253  -0.838   8.944   3.054 -0.7279 -0.6238 -0.8455
  128MOL0     H17254  -1.007   8.739   3.030  1.0994 -2.1738  0.8796
  128MOL0     H17255  -0.888   8.660   3.131  1.2839 -1.5673 -0.7290
  128MOL0     H17256  -0.873   8.805   2.858 -1.1326 -1.3465 -1.8862
  128MOL0     H17257  -0.724   8.705   2.931 -0.5643 -3.5357 -0.2626
  128MOL0     H17258  -1.002   8.599   2.851  0.2153 -1.1463 -0.2182
  128MOL0     H17259  -0.846   8.525   2.917  0.8157  0.8065  0.9765
  128MOL0     H17260  -0.829   8.478   2.696  1.7027 -0.7442 -0.0804
  128MOL0     H17261  -0.732   8.618   2.719  1.7022 -4.0591  2.4353
  128MOL0     H17262  -0.217   8.789   3.235  1.8553 -1.1223  0.2910
  128MOL0     H17263   0.003   8.863   3.126 -1.8323 -1.9475  0.5695
  128MOL0     H17264   0.367   8.893   3.118 -1.3119 -0.0592 -0.7204
  128MOL0     H17265   0.558   8.872   2.976 -0.0532  0.0626  1.3743
  128MOL0     H17266   2.552   9.000   3.088 -0.4142  0.4178  2.5270
  128MOL0     H17267   2.784   8.988   3.083 -1.0377  0.7085 -1.3248
  128MOL0     H17268   3.204   8.820   2.840 -2.6422 -3.4109 -0.4662
  128MOL0     H17269   3.433   8.834   2.864 -0.4524  1.8273 -0.1244
  128MOL0     H17270   3.657   8.769   2.941 -0.4157 -0.6546  0.6563
  128MOL0     H17271   3.636   8.952   2.927 -0.4456 -1.0833 -1.2568
  128MOL0     H17272   3.814   8.785   3.102 -2.8392 -1.5408 -0.9933
  128MOL0     H17273   3.804   8.962   3.119  2.6550  0.0176  1.1049
  128MOL0     H17274   3.882   8.996   2.894  0.0369 -0.4007  0.0266
  128MOL0     H17275   3.888   8.812   2.880 -1.5079 -1.7209  1.5533
  128MOL0     H17276   4.063   8.975   3.070 -0.2936 -1.7625  1.4211
  128MOL0     H17277   4.114   8.938   2.908  2.1774 -2.6217 -0.7835
  128MOL0     H17278   4.116   8.549   3.079 -0.3754  0.1329 -0.5465
  128MOL0     H17279   3.384   8.887   3.301  0.4778 -1.4482  0.0940
  128MOL0     H17280   3.146   8.867   3.265 -1.5775  1.5790 -2.0408
  129MOL0     O17281   9.583   5.626   0.539  0.3587 -0.5000  0.3032
  129MOL0     C17282   9.636   5.695   0.630  0.1753  0.6575  0.2131
  129MOL0     O17283   9.577   5.779   0.719  0.1389  0.1735 -0.5078
  129MOL0     C17284   9.439   5.792   0.711 -0.9282  0.0217 -0.3211
  129MOL0     C17285   9.395   5.918   0.745  0.3354 -0.7365 -0.6158
  129MOL0     C17286   9.264   5.937   0.765 -0.0024  0.1105  0.6372
  129MOL0     C17287   9.169   5.839   0.749 -0.7925  0.6088 -0.4472
  129MOL0     O17288   9.039   5.876   0.772  0.1798 -0.4260  0.1752
  129MOL0     C17289   8.948   5.766   0.762  0.3232 -0.5717  0.0760
  129MOL0     C17290   8.805   5.812   0.783  0.0611  0.0633 -0.0731
  129MOL0     C17291   8.724   5.704   0.723  1.1180  0.8303  0.5975
  129MOL0     C17292   8.571   5.747   0.715 -0.7412  0.0864 -0.4813
  129MOL0     C17293   8.489   5.636   0.643  0.2198  0.0494 -0.1335
  129MOL0     C17294   8.343   5.675   0.619  0.8275  0.0723 -0.1884
  129MOL0     C17295   8.264   5.732   0.739 -0.4612 -0.4212 -0.1980
  129MOL0     C17296   8.139   5.812   0.696 -0.0703 -0.0050 -0.6643
  129MOL0     N17297   8.041   5.728   0.631  0.0250  0.2126  0.2851
  129MOL0     C17298   7.987   5.614   0.692 -0.2780 -0.1188  0.0670
  129MOL0     C17299   7.908   5.561   0.602  0.7069  0.2958  0.5736
  129MOL0     C17300   7.835   5.428   0.615 -0.3859 -0.1430  0.2420
  129MOL0     C17301   7.688   5.465   0.651 -0.4170 -0.6754 -0.0194
  129MOL0     C17302   7.672   5.495   0.804  0.5570  0.1653 -0.7001
  129MOL0     C17303   7.524   5.524   0.843 -0.8994 -1.0038  0.3698
  129MOL0     O17304   7.445   5.414   0.815 -0.4815  0.3330  0.0283
  129MOL0     C17305   7.310   5.427   0.847 -0.8042  0.3578  0.0694
  129MOL0     C17306   7.221   5.360   0.757 -0.2146  0.3346 -0.2200
  129MOL0     C17307   7.082   5.351   0.777  0.3428 -0.1644  0.0729
  129MOL0     C17308   6.999   5.281   0.683  0.5363 -0.3293 -0.2651
  129MOL0     C17309   7.020   5.438   0.880 -0.1200 -0.3884  0.2993
  129MOL0     C17310   6.874   5.445   0.916  0.8888 -0.7980 -0.5814
  129MOL0     O17311   6.771   5.385   0.847  0.3360 -0.6461 -0.1135
  129MOL0     C17312   6.646   5.394   0.901  0.2713 -0.3012  0.0118
  129MOL0     C17313   6.587   5.282   0.973  0.6336 -0.8198 -0.1355
  129MOL0     C17314   6.453   5.289   1.016 -0.0712 -0.1508  0.4685
  129MOL0     C17315   6.371   5.396   0.970 -0.3314  0.1569  0.3472
  129MOL0     O17316   6.234   5.398   0.996  0.3632  0.3502 -0.6416
  129MOL0     C17317   6.168   5.283   1.063  0.4956  0.7012  0.1530
  129MOL0     C17318   6.022   5.298   1.077  0.0385  0.4303  0.0991
  129MOL0     C17319   5.969   5.195   1.175 -0.6544 -0.4145 -0.3051
  129MOL0     C17320   5.829   5.229   1.229  0.0304  0.1421 -0.0589
  129MOL0     C17321   5.724   5.213   1.125  0.8334  0.0131 -0.3793
  129MOL0     C17322   5.589   5.234   1.181 -0.0211  1.1961 -0.3621
  129MOL0     C17323   5.475   5.231   1.085  1.6626 -1.1470  0.2897
  129MOL0     C17324   5.340   5.260   1.162  0.9674 -0.1435  0.6947
  129MOL0    Cl17325   5.177   5.203   1.078  0.2761 -0.2518 -0.1078
  129MOL0     C17326   6.427   5.504   0.908 -0.5239 -0.2095  0.9238
  129MOL0     C17327   6.559   5.499   0.865 -0.0207  0.0988  0.1423
  129MOL0     O17328   6.854   5.514   1.018 -0.3139 -0.1387  0.2684
  129MOL0     C17329   7.109   5.510   0.958 -0.5148 -0.4030 -0.0338
  129MOL0     C17330   7.249   5.500   0.939 -0.3023  0.3526 -0.5590
  129MOL0     N17331   7.905   5.643   0.492 -1.0623 -0.4097  0.3316
  129MOL0     N17332   7.983   5.747   0.511  0.2301  0.0611 -0.4190
  129MOL0     C17333   9.215   5.708   0.711 -0.2976  0.0734 -0.3126
  129MOL0     C17334   9.351   5.687   0.697  0.0647 -0.3977 -0.1080
  129MOL0     C17335   9.786   5.675   0.628  0.1324 -0.3011  0.0609
  129MOL0     C17336   9.854   5.561   0.575 -0.9489  1.0672 -0.2745
  129MOL0     C17337   9.992   5.559   0.559  0.7286 -0.1216 -0.4948
  129MOL0     C17338  10.065   5.668   0.604  0.1202 -0.7048 -0.1723
  129MOL0     O17339  10.197   5.644   0.594  0.1980 -0.9298  0.0785
  129MOL0     C17340  10.289   5.713   0.672 -0.6487 -0.4249  0.0985
  129MOL0     C17341  10.430   5.654   0.652 -0.6553  0.3386  0.8257
  129MOL0     C17342  10.480   5.699   0.521 -0.0942  0.1270 -0.2437
  129MOL0     C17343  10.540   5.842   0.526  0.5628 -1.4192 -0.2392
  129MOL0     C17344  10.673   5.844   0.595 -0.6538 -0.1002 -0.7003
  129MOL0     C17345  10.791   5.859   0.619  0.0489  0.2250 -0.2306
  129MOL0     C17346  10.007   5.781   0.662  0.3161 -0.0502 -0.1726
  129MOL0     C17347   9.863   5.782   0.675  0.4891 -0.9050  0.6329
  129MOL0     H17348   9.457   5.997   0.786 -0.5303 -1.7007  2.8635
  129MOL0     H17349   9.216   6.024   0.810 -1.5240 -1.0465  1.3824
  129MOL0     H17350   8.953   5.722   0.661  0.3238 -1.9035  0.6399
  129MOL0     H17351   8.979   5.696   0.840 -0.4905  0.2412  1.1625
  129MOL0     H17352   8.793   5.817   0.892 -1.0331 -0.3753 -0.1616
  129MOL0     H17353   8.786   5.910   0.739  5.1948  0.4400 -2.2298
  129MOL0     H17354   8.755   5.672   0.623 -0.1193 -1.3397  0.8419
  129MOL0     H17355   8.730   5.613   0.784  0.8723  0.3537 -0.0735
  129MOL0     H17356   8.541   5.778   0.816  1.7407 -0.8401  0.6253
  129MOL0     H17357   8.561   5.830   0.645 -0.7200  0.3486 -0.1728
  129MOL0     H17358   8.540   5.617   0.548 -0.0020  1.3460 -0.5342
  129MOL0     H17359   8.481   5.548   0.706 -0.0564  0.8026  0.9073
  129MOL0     H17360   8.343   5.757   0.547  0.9819 -0.4921 -0.8349
  129MOL0     H17361   8.284   5.594   0.575 -0.0323  0.8205 -0.4554
  129MOL0     H17362   8.232   5.652   0.806  0.6656  0.9120  2.0814
  129MOL0     H17363   8.326   5.800   0.799 -1.4004  2.1565 -1.9491
  129MOL0     H17364   8.173   5.894   0.631  2.9224 -1.7781 -1.5363
  129MOL0     H17365   8.097   5.847   0.790  2.0209 -0.8514  0.6507
  129MOL0     H17366   8.010   5.564   0.785 -1.1538  0.7811  0.7874
  129MOL0     H17367   7.836   5.373   0.520 -1.0258 -1.2084  0.8208
  129MOL0     H17368   7.895   5.368   0.684  3.0394  1.5628 -1.0682
  129MOL0     H17369   7.618   5.382   0.635 -1.1516 -0.1849  0.5560
  129MOL0     H17370   7.640   5.538   0.585 -3.0515 -0.8127  1.5881
  129MOL0     H17371   7.735   5.573   0.846  0.0781 -0.9474  2.3869
  129MOL0     H17372   7.704   5.409   0.864  0.8108 -0.4053 -1.6303
  129MOL0     H17373   7.482   5.614   0.796  0.1804  0.2344  1.6897
  129MOL0     H17374   7.525   5.549   0.949 -3.4643 -1.2044  0.4950
  129MOL0     H17375   7.261   5.295   0.681  0.7318  1.3485 -0.6075
  129MOL0     H17376   6.913   5.225   0.722  0.8101 -1.9376 -1.8620
  129MOL0     H17377   6.956   5.359   0.620  0.3512  0.2974  0.6119
  129MOL0     H17378   7.054   5.209   0.621  2.4373  0.5331  0.3437
  129MOL0     H17379   6.650   5.200   1.004  0.6491 -0.4435  0.8501
  129MOL0     H17380   6.420   5.209   1.081  2.8285 -1.7402  0.1256
  129MOL0     H17381   6.190   5.184   1.022  2.3900  0.0782  2.4214
  129MOL0     H17382   6.217   5.272   1.160  0.0096  0.4022  0.3624
  129MOL0     H17383   5.999   5.394   1.123 -2.8287  0.0861 -0.4106
  129MOL0     H17384   5.974   5.295   0.978 -2.1147 -2.4657  1.0832
  129MOL0     H17385   6.031   5.199   1.265 -1.0025 -0.0643 -0.0787
  129MOL0     H17386   5.973   5.099   1.124  2.3596 -1.1191  1.0383
  129MOL0     H17387   5.820   5.149   1.303  4.6370 -1.8505 -1.2493
  129MOL0     H17388   5.820   5.326   1.278 -0.2747  0.4648 -0.7520
  129MOL0     H17389   5.739   5.110   1.091  1.0699 -0.4000  0.9283
  129MOL0     H17390   5.745   5.291   1.051 -1.8129  1.6281  0.4438
  129MOL0     H17391   5.573   5.158   1.258 -1.6529  0.4156 -1.4170
  129MOL0     H17392   5.596   5.333   1.227  0.2167  1.6097 -1.2698
  129MOL0     H17393   5.464   5.134   1.036  1.7257 -0.4504 -1.1411
  129MOL0     H17394   5.491   5.301   1.003  0.7974  1.6246  2.3232
  129MOL0     H17395   5.341   5.365   1.192 -1.9432  0.1605  0.0470
  129MOL0     H17396   5.338   5.201   1.254  2.6911 -2.1302 -0.4707
  129MOL0     H17397   6.371   5.593   0.880 -0.7601  0.0584  2.2130
  129MOL0     H17398   6.596   5.571   0.792  1.1071 -0.6091 -0.0005
  129MOL0     H17399   7.090   5.576   1.043  0.4170 -0.5681  0.3165
  129MOL0     H17400   7.308   5.563   1.005  1.0409  0.2663 -1.6266
  129MOL0     H17401   9.158   5.619   0.685 -1.0140  0.3936  0.1374
  129MOL0     H17402   9.385   5.584   0.689 -3.9634 -2.0657  1.8505
  129MOL0     H17403   9.803   5.470   0.544  1.4380  0.8741 -4.4114
  129MOL0     H17404  10.052   5.478   0.519  0.4750 -1.4362  1.6516
  129MOL0     H17405  10.274   5.811   0.628 -0.7270 -0.3531  0.2847
  129MOL0     H17406  10.260   5.709   0.778  0.4767 -1.0671  0.4102
  129MOL0     H17407  10.412   5.546   0.653  0.1511  0.2048  1.0861
  129MOL0     H17408  10.495   5.684   0.735 -1.3314  1.3687  1.0025
  129MOL0     H17409  10.397   5.701   0.450 -1.4181  2.4429  1.2308
  129MOL0     H17410  10.554   5.621   0.496  0.9660  0.7894  0.7242
  129MOL0     H17411  10.475   5.907   0.585  0.5478 -0.8019 -0.9311
  129MOL0     H17412  10.539   5.886   0.426 -4.2643 -0.8446 -0.1896
  129MOL0     H17413  10.894   5.874   0.645 -0.5051  4.7038  0.1748
  129MOL0     H17414  10.072   5.857   0.706 -2.4864  0.1751  4.2774
  129MOL0     H17415   9.820   5.877   0.705  0.0113 -1.6099  2.3406
  130MOL0     O17416   6.413   1.006   7.751 -0.1110  0.2569  0.4658
  130MOL0     C17417   6.495   1.083   7.798  0.5251 -0.2039 -0.6073
  130MOL0     O17418   6.466   1.190   7.881 -0.7803  0.2875 -0.1750
  130MOL0     C17419   6.334   1.212   7.908  0.4655  0.8565  0.1803
  130MOL0     C17420   6.258   1.266   7.805 -0.2592  0.4290  0.3020
  130MOL0     C17421   6.125   1.287   7.818  0.0120 -0.0011 -0.2755
  130MOL0     C17422   6.063   1.273   7.942  0.3646 -0.6116  0.0789
  130MOL0     O17423   5.928   1.305   7.950 -0.3407  0.0454 -0.6063
  130MOL0     C17424   5.861   1.243   8.063  0.0481 -0.2264 -0.4167
  130MOL0     C17425   5.708   1.249   8.040 -0.4193 -0.7219  0.4680
  130MOL0     C17426   5.627   1.211   8.164 -0.1026 -0.2767  1.1336
  130MOL0     C17427   5.629   1.313   8.281 -0.4023 -0.9030 -0.1864
  130MOL0     C17428   5.540   1.262   8.392  0.0520  0.4339  0.3051
  130MOL0     C17429   5.511   1.380   8.480  0.6928 -0.4492  0.2160
  130MOL0     C17430   5.448   1.338   8.612 -0.2403  0.1508 -0.1987
  130MOL0     C17431   5.301   1.317   8.590 -0.3584  0.1699  0.0192
  130MOL0     N17432   5.247   1.274   8.716  0.5686  0.1833  0.0439
  130MOL0     C17433   5.212   1.144   8.733 -0.0420  1.0451  0.4388
  130MOL0     C17434   5.171   1.131   8.866 -1.0291  0.6557  0.3566
  130MOL0     C17435   5.142   1.004   8.940  0.8491  0.7108  0.0956
  130MOL0     C17436   5.034   0.918   8.878  0.0663 -0.4045 -0.6051
  130MOL0     C17437   4.965   0.826   8.987  0.1054  0.9667  0.0600
  130MOL0     C17438   4.821   0.771   8.935 -0.3730 -0.1721  1.3072
  130MOL0     O17439   4.724   0.873   8.916  0.4166 -0.5145  0.5896
  130MOL0     C17440   4.604   0.849   8.864 -0.4878 -0.9585  0.6167
  130MOL0     C17441   4.543   0.722   8.880 -0.3542 -0.5990  0.4276
  130MOL0     C17442   4.413   0.699   8.837  0.0528  0.3768 -0.5596
  130MOL0     C17443   4.362   0.555   8.854 -0.2070  0.4198 -0.0902
  130MOL0     C17444   4.336   0.805   8.779 -0.3087  0.2676 -0.3686
  130MOL0     C17445   4.209   0.781   8.710  0.0446 -0.5810  0.5056
  130MOL0     O17446   4.138   0.896   8.680 -0.9650 -0.5446  0.3068
  130MOL0     C17447   4.015   0.881   8.629  0.4029  0.2058  0.8860
  130MOL0     C17448   3.909   0.811   8.695 -0.6472 -0.5378  0.3374
  130MOL0     C17449   3.783   0.810   8.647  0.2042 -0.6631 -0.2991
  130MOL0     C17450   3.748   0.879   8.527 -0.2495  0.3398  0.3724
  130MOL0     O17451   3.609   0.868   8.486 -0.0275  0.4036 -0.3721
  130MOL0     C17452   3.569   0.965   8.390 -0.8549 -0.4826  0.8133
  130MOL0     C17453   3.434   0.931   8.340  0.0051  0.1922  0.1960
  130MOL0     C17454   3.384   1.037   8.237 -0.5038  0.0754  0.8842
  130MOL0     C17455   3.229   1.032   8.239  0.0344  0.7162  0.4788
  130MOL0     C17456   3.172   1.080   8.105  0.2111  0.0596 -0.6657
  130MOL0     C17457   3.225   1.223   8.066  0.1970  0.3939 -0.5760
  130MOL0     C17458   3.153   1.284   7.944 -0.1570 -0.1526  0.4697
  130MOL0     C17459   3.004   1.303   7.966 -0.5823  0.5325  0.3090
  130MOL0    Cl17460   2.960   1.395   8.128  0.3131 -0.0962  0.1338
  130MOL0     C17461   3.844   0.957   8.458  0.6712 -0.0017  0.1734
  130MOL0     C17462   3.980   0.957   8.512 -0.0430 -0.9842 -0.0563
  130MOL0     O17463   4.170   0.666   8.689  0.0644  0.5359 -0.6199
  130MOL0     C17464   4.381   0.937   8.790 -0.0697  0.2525 -0.9726
  130MOL0     C17465   4.519   0.962   8.826 -0.6576  0.2752  0.2810
  130MOL0     N17466   5.166   1.258   8.925 -0.6641  0.3144 -0.3765
  130MOL0     N17467   5.216   1.340   8.836 -1.0968  0.0249  0.1779
  130MOL0     C17468   6.143   1.242   8.052  0.1194  0.0588 -0.4562
  130MOL0     C17469   6.278   1.203   8.038  0.6776  0.0087  0.5217
  130MOL0     C17470   6.635   1.065   7.775  0.1322 -0.8457 -0.5487
  130MOL0     C17471   6.728   1.163   7.801  0.8014 -0.2527  0.7437
  130MOL0     C17472   6.862   1.147   7.775 -0.9701  0.1582 -0.8889
  130MOL0     C17473   6.915   1.022   7.747  0.3659  0.2443  0.8829
  130MOL0     O17474   7.051   1.014   7.749  0.4284 -0.2215 -0.0527
  130MOL0     C17475   7.116   0.890   7.710 -0.6527 -0.6167 -0.7199
  130MOL0     C17476   7.137   0.878   7.563 -0.2594  0.3274 -0.3266
  130MOL0     C17477   7.201   0.747   7.530  0.6240  0.4669  0.7886
  130MOL0     C17478   7.249   0.751   7.386 -1.5761 -0.9763 -1.0584
  130MOL0     C17479   7.383   0.802   7.374  0.2263  0.7000  0.3935
  130MOL0     C17480   7.497   0.846   7.360  0.3915  0.3215 -1.1044
  130MOL0     C17481   6.825   0.917   7.721  0.2404 -0.5201  0.0042
  130MOL0     C17482   6.685   0.944   7.738 -0.7729 -0.1481  0.0073
  130MOL0     H17483   6.304   1.284   7.709 -2.0475 -0.2931 -0.7171
  130MOL0     H17484   6.068   1.322   7.732 -1.0736 -1.8023 -0.3377
  130MOL0     H17485   5.883   1.137   8.076  1.4614  0.3931  3.6659
  130MOL0     H17486   5.885   1.297   8.155 -0.8339 -0.2155 -0.1832
  130MOL0     H17487   5.675   1.350   8.015 -2.1064 -1.3006  0.2503
  130MOL0     H17488   5.672   1.188   7.957  0.7067 -0.8530  0.0587
  130MOL0     H17489   5.522   1.190   8.140 -0.2634  1.5641  0.0102
  130MOL0     H17490   5.673   1.118   8.197 -0.5712 -1.1696 -0.6047
  130MOL0     H17491   5.731   1.331   8.316 -0.5671  1.6925 -0.8261
  130MOL0     H17492   5.578   1.406   8.255 -3.9384 -2.7664 -0.5164
  130MOL0     H17493   5.447   1.215   8.357  0.3858  1.1299 -1.5620
  130MOL0     H17494   5.598   1.184   8.443  1.7336  0.7450 -1.0843
  130MOL0     H17495   5.599   1.445   8.486  0.4728 -0.1705  0.4581
  130MOL0     H17496   5.441   1.445   8.427 -0.3202 -1.9504 -0.3550
  130MOL0     H17497   5.500   1.256   8.662  0.2980  1.2854  1.1851
  130MOL0     H17498   5.449   1.424   8.680 -0.3439  0.3044 -0.3894
  130MOL0     H17499   5.280   1.242   8.513  0.4454  0.9765 -1.0041
  130MOL0     H17500   5.255   1.411   8.558 -0.6244  0.1784  0.4118
  130MOL0     H17501   5.225   1.064   8.661 -0.9724 -0.2259  1.6164
  130MOL0     H17502   5.232   0.943   8.941  0.7076  0.2269 -3.4574
  130MOL0     H17503   5.122   1.044   9.040  1.6155  0.2547  0.4393
  130MOL0     H17504   5.073   0.858   8.795 -2.7030 -1.3947 -1.3089
  130MOL0     H17505   4.955   0.983   8.840  0.6133  1.4958  1.3092
  130MOL0     H17506   4.931   0.883   9.074 -0.2551  0.3442  0.3344
  130MOL0     H17507   5.031   0.752   9.035 -1.8263  1.1349  3.2572
  130MOL0     H17508   4.774   0.696   9.000 -1.5470 -2.4028 -1.8655
  130MOL0     H17509   4.835   0.722   8.838 -2.6326 -1.3673  1.5128
  130MOL0     H17510   4.596   0.632   8.910 -0.1095 -0.3588  0.7259
  130MOL0     H17511   4.419   0.495   8.925 -0.6060 -0.7311 -0.7244
  130MOL0     H17512   4.259   0.546   8.888 -0.8219 -1.6050 -2.2344
  130MOL0     H17513   4.357   0.502   8.759 -1.8166 -4.7393  2.5235
  130MOL0     H17514   3.937   0.775   8.793 -0.9512 -3.9896 -0.7106
  130MOL0     H17515   3.704   0.758   8.699 -0.4622 -0.3513 -0.9835
  130MOL0     H17516   3.567   1.062   8.440 -2.8623 -0.7800  1.4004
  130MOL0     H17517   3.635   0.970   8.302 -3.8924  1.2458 -1.5543
  130MOL0     H17518   3.419   0.836   8.288 -2.6843  1.6919 -2.0310
  130MOL0     H17519   3.374   0.930   8.431  1.4253  0.5086  1.1666
  130MOL0     H17520   3.416   1.003   8.138  1.9651  0.3517  1.5353
  130MOL0     H17521   3.425   1.136   8.260 -0.8344 -0.2254  2.9832
  130MOL0     H17522   3.178   0.937   8.258 -1.0678  1.5662  1.9629
  130MOL0     H17523   3.194   1.093   8.323 -1.5837 -0.0066  0.3778
  130MOL0     H17524   3.067   1.082   8.137  0.5978  3.7041  0.9380
  130MOL0     H17525   3.190   1.007   8.026 -0.8028 -1.2149  0.2226
  130MOL0     H17526   3.224   1.284   8.157 -2.5971 -0.7018  0.2296
  130MOL0     H17527   3.331   1.214   8.039  0.4724 -1.0522  0.8638
  130MOL0     H17528   3.168   1.223   7.855 -0.4682 -2.3076  1.8183
  130MOL0     H17529   3.209   1.376   7.929 -2.6196  1.2184 -1.0959
  130MOL0     H17530   2.970   1.199   7.970 -2.1550  1.0366  0.9752
  130MOL0     H17531   2.958   1.353   7.880  1.0434  0.0875 -0.8665
  130MOL0     H17532   3.827   1.012   8.366 -0.7368 -1.5168 -0.5251
  130MOL0     H17533   4.054   1.016   8.460 -0.8238 -1.6592 -2.0224
  130MOL0     H17534   4.311   1.013   8.757 -1.0730 -0.5085 -0.6418
  130MOL0     H17535   4.557   1.063   8.817 -0.9201  0.2855 -0.9771
  130MOL0     H17536   6.106   1.238   8.155 -0.8900 -0.2912 -0.8188
  130MOL0     H17537   6.343   1.170   8.119 -0.9782 -1.5530  1.2943
  130MOL0     H17538   6.699   1.259   7.841 -0.6050 -1.4672  2.8653
  130MOL0     H17539   6.934   1.227   7.785  0.0341 -0.3047 -3.6646
  130MOL0     H17540   7.210   0.887   7.767 -1.9133  0.9027  1.6075
  130MOL0     H17541   7.060   0.804   7.747 -0.6448 -0.0340  0.7330
  130MOL0     H17542   7.190   0.967   7.530 -1.6477  1.5864  0.6888
  130MOL0     H17543   7.038   0.882   7.515  1.2852  2.9016 -3.7043
  130MOL0     H17544   7.119   0.675   7.531  1.5448 -0.6085  0.6031
  130MOL0     H17545   7.276   0.707   7.599  0.5824  0.9626  1.1252
  130MOL0     H17546   7.185   0.801   7.313  1.0532  1.3906 -1.9222
  130MOL0     H17547   7.274   0.648   7.357 -0.1561 -0.9549 -0.0374
  130MOL0     H17548   7.601   0.868   7.349  0.3311  0.2682 -1.8329
  130MOL0     H17549   6.847   0.814   7.695  0.1779 -0.7381  0.8048
  130MOL0     H17550   6.611   0.865   7.738 -0.2309 -0.6737  0.8625
  131MOL0     O17551   9.509   5.625  10.015 -0.2212  0.1092 -0.3683
  131MOL0     C17552   9.488   5.572  10.129  0.1837 -0.5783  0.5441
  131MOL0     O17553   9.367   5.563  10.191 -0.6123 -0.1745  0.0728
  131MOL0     C17554   9.254   5.600  10.123  0.4333  0.0461 -0.9516
  131MOL0     C17555   9.210   5.530  10.008  0.4212 -0.0954 -0.3362
  131MOL0     C17556   9.103   5.575   9.935 -0.1669 -0.1321  0.0891
  131MOL0     C17557   9.028   5.686   9.978  0.2250 -0.0928 -0.5542
  131MOL0     O17558   8.914   5.724   9.917  0.3331 -0.2046  0.1407
  131MOL0     C17559   8.805   5.725  10.007 -0.2931 -0.7777  0.4152
  131MOL0     C17560   8.745   5.591  10.045  0.0942  0.0532  0.2221
  131MOL0     C17561   8.602   5.606  10.106  0.8441 -0.1027 -0.0094
  131MOL0     C17562   8.498   5.670  10.022 -1.1534 -0.6024  0.7940
  131MOL0     C17563   8.357   5.656  10.063 -0.2022 -0.5168 -0.4530
  131MOL0     C17564   8.267   5.717   9.960  0.1420  0.2738  0.6252
  131MOL0     C17565   8.121   5.659   9.984  0.6679 -0.4552 -0.5773
  131MOL0     C17566   8.027   5.737   9.883  0.2409  0.0795  0.4235
  131MOL0     N17567   7.887   5.693   9.899  0.1268 -0.3845 -0.8922
  131MOL0     C17568   7.807   5.715  10.013  0.0195 -0.0270  0.0483
  131MOL0     C17569   7.708   5.630   9.990 -0.0495  1.0043 -0.6123
  131MOL0     C17570   7.591   5.594  10.089 -0.6038 -0.5898 -0.1054
  131MOL0     C17571   7.470   5.517  10.021  0.0170 -0.3490  0.7035
  131MOL0     C17572   7.357   5.498  10.132  0.7521  0.7966  0.6355
  131MOL0     C17573   7.240   5.427  10.061 -0.2420 -0.4692 -0.1904
  131MOL0     O17574   7.153   5.376  10.166  0.3408  0.1911  0.4797
  131MOL0     C17575   7.037   5.316  10.126  0.8769 -0.0207 -0.1065
  131MOL0     C17576   6.951   5.279  10.225  0.2367  0.1219 -0.2020
  131MOL0     C17577   6.815   5.252  10.205  0.0246  0.5015  0.0071
  131MOL0     C17578   6.723   5.225  10.321 -0.2689 -0.2365 -0.3868
  131MOL0     C17579   6.775   5.239  10.076  0.2226 -0.4274  0.4366
  131MOL0     C17580   6.634   5.232  10.027  0.2030 -0.0901 -1.2072
  131MOL0     O17581   6.539   5.288  10.106  1.1981  0.3851  0.5232
  131MOL0     C17582   6.413   5.245  10.097  0.5828  0.6872  0.6754
  131MOL0     C17583   6.333   5.280   9.990  0.2773 -0.0023  0.9571
  131MOL0     C17584   6.194   5.237   9.985  0.3751  0.9182  0.8733
  131MOL0     C17585   6.136   5.155  10.080 -1.1560 -0.2616  0.1041
  131MOL0     O17586   5.998   5.142  10.077  0.1268 -0.4559 -0.4510
  131MOL0     C17587   5.946   5.021  10.135  0.7977  0.4215  0.3927
  131MOL0     C17588   5.802   4.993  10.065  0.4448  0.2962 -0.2352
  131MOL0     C17589   5.695   4.926  10.159 -0.0304 -0.4588 -0.3414
  131MOL0     C17590   5.559   4.915  10.084 -0.6903  0.6091  0.1557
  131MOL0     C17591   5.445   4.830  10.159 -0.0120 -0.5847 -0.1393
  131MOL0     C17592   5.317   4.811  10.079 -0.2957  0.3388 -0.5649
  131MOL0     C17593   5.253   4.942  10.029 -0.3571 -0.4242  0.0908
  131MOL0     C17594   5.146   4.902   9.924  0.2376 -0.3991  0.3211
  131MOL0    Cl17595   5.211   4.857   9.760  0.1987 -0.2775  0.6325
  131MOL0     C17596   6.215   5.109  10.179 -0.4052  0.5625 -0.1862
  131MOL0     C17597   6.350   5.153  10.188  0.1605 -0.3726  0.3402
  131MOL0     O17598   6.608   5.193   9.910  0.7430 -0.7240 -0.0733
  131MOL0     C17599   6.863   5.266   9.971 -0.2587  0.0332  0.7165
  131MOL0     C17600   6.996   5.300   9.995 -0.0895 -1.8686  0.5869
  131MOL0     N17601   7.727   5.553   9.882  0.1469  0.3098  0.0638
  131MOL0     N17602   7.834   5.588   9.829  0.1491  0.2225  0.9007
  131MOL0     C17603   9.076   5.755  10.095  0.4516 -0.5156  0.4668
  131MOL0     C17604   9.183   5.711  10.161 -0.6161  0.1080 -0.7020
  131MOL0     C17605   9.617   5.513  10.197 -0.6969 -0.3712  0.4003
  131MOL0     C17606   9.613   5.462  10.333 -0.0536 -0.1695 -0.5278
  131MOL0     C17607   9.719   5.401  10.391  1.2491 -0.4908 -0.4728
  131MOL0     C17608   9.842   5.401  10.319 -0.4640  0.2961  0.5776
  131MOL0     O17609   9.949   5.352  10.385  0.0333 -0.2515 -0.0855
  131MOL0     C17610  10.084   5.380  10.344 -0.1718 -0.4198 -0.2354
  131MOL0     C17611  10.187   5.384  10.447 -0.5576 -0.5196  0.4251
  131MOL0     C17612  10.332   5.375  10.396  0.0604  0.2756 -0.2969
  131MOL0     C17613  10.430   5.393  10.513 -0.2120 -0.9610 -0.1218
  131MOL0     C17614  10.558   5.324  10.491  0.6805  0.1514  1.0945
  131MOL0     C17615  10.667   5.274  10.459  0.3029 -0.1688  0.6558
  131MOL0     C17616   9.850   5.445  10.182 -0.0165  0.2798  1.0571
  131MOL0     C17617   9.738   5.502  10.124  0.4876 -0.2157  0.5508
  131MOL0     H17618   9.257   5.443   9.964 -1.5452 -0.6703 -1.4092
  131MOL0     H17619   9.062   5.509   9.860  2.8528 -1.2908 -0.6688
  131MOL0     H17620   8.835   5.771  10.101  0.3780 -0.8994  0.2694
  131MOL0     H17621   8.732   5.801   9.978 -0.6737 -1.6719 -1.1338
  131MOL0     H17622   8.730   5.540   9.950 -1.5396  3.0651 -1.2696
  131MOL0     H17623   8.814   5.533  10.107  0.7279 -0.2825 -0.7750
  131MOL0     H17624   8.563   5.510  10.139 -2.4114  1.0017 -0.2809
  131MOL0     H17625   8.612   5.678  10.188  1.7390 -0.3431  0.0993
  131MOL0     H17626   8.518   5.778  10.024 -3.8514 -0.0265  2.0210
  131MOL0     H17627   8.509   5.638   9.918  0.0797  0.0160  0.7168
  131MOL0     H17628   8.321   5.553  10.066 -2.2155  0.1544  1.1433
  131MOL0     H17629   8.337   5.698  10.163 -1.9989  1.2445 -1.4754
  131MOL0     H17630   8.262   5.826   9.969 -2.7260  0.4802 -1.9994
  131MOL0     H17631   8.309   5.694   9.862 -3.1399  0.7032 -1.0251
  131MOL0     H17632   8.120   5.551   9.967 -2.1750 -1.0743  2.4797
  131MOL0     H17633   8.073   5.676  10.081 -0.7361 -2.5170 -0.8622
  131MOL0     H17634   8.066   5.705   9.786 -2.6757  1.5302 -1.3482
  131MOL0     H17635   8.025   5.846   9.882 -1.3929  0.0893 -1.5848
  131MOL0     H17636   7.822   5.771  10.105  1.8346  0.1614 -0.3196
  131MOL0     H17637   7.616   5.538  10.180  1.2611 -0.5419 -0.5347
  131MOL0     H17638   7.551   5.690  10.123  1.5424 -0.1582  1.4983
  131MOL0     H17639   7.492   5.425   9.968  0.1039 -0.6018  1.1694
  131MOL0     H17640   7.436   5.591   9.948 -1.8864 -2.5357 -0.7073
  131MOL0     H17641   7.328   5.589  10.186  1.0705  0.6237  1.1022
  131MOL0     H17642   7.392   5.428  10.208 -2.0644 -0.4438  0.8736
  131MOL0     H17643   7.277   5.336  10.015  2.7971 -0.3440  1.7113
  131MOL0     H17644   7.194   5.488   9.983 -0.3067 -1.2031 -0.7349
  131MOL0     H17645   6.993   5.279  10.325  0.9168 -2.3014 -0.4234
  131MOL0     H17646   6.785   5.228  10.412  0.0186  4.2150 -0.5124
  131MOL0     H17647   6.647   5.303  10.331 -0.1130 -0.1395  0.1042
  131MOL0     H17648   6.679   5.125  10.312  1.9406 -1.2843 -0.2500
  131MOL0     H17649   6.378   5.351   9.921  0.8684  0.0475  1.3821
  131MOL0     H17650   6.121   5.269   9.911 -0.1751  0.5051  1.2290
  131MOL0     H17651   6.016   4.937  10.128  0.2416  0.0740 -1.6088
  131MOL0     H17652   5.924   5.046  10.239 -1.7901  2.3267 -0.5102
  131MOL0     H17653   5.768   5.095  10.043  1.5617  0.2291 -2.6319
  131MOL0     H17654   5.808   4.931   9.975 -0.6742  1.1416 -0.9309
  131MOL0     H17655   5.663   4.985  10.245 -1.9018 -0.7806 -0.7721
  131MOL0     H17656   5.726   4.827  10.194  0.1053  0.3265  1.9303
  131MOL0     H17657   5.531   5.020  10.075  3.4816  1.7755 -1.6937
  131MOL0     H17658   5.569   4.872   9.984  0.4950 -0.2942  0.6343
  131MOL0     H17659   5.419   4.891  10.246  0.1280 -0.5388 -0.1309
  131MOL0     H17660   5.473   4.729  10.189 -3.1146 -1.5784 -0.1884
  131MOL0     H17661   5.348   4.742  10.000 -0.8952  1.8895 -2.2335
  131MOL0     H17662   5.237   4.763  10.136 -2.7606  2.1705 -2.2299
  131MOL0     H17663   5.331   4.996   9.975  0.1584 -0.5778  0.6670
  131MOL0     H17664   5.208   5.003  10.107 -1.0365 -0.4149 -0.3002
  131MOL0     H17665   5.087   4.990   9.896  2.6665  0.9646 -0.8751
  131MOL0     H17666   5.078   4.825   9.962 -0.1624  0.1149  0.6662
  131MOL0     H17667   6.183   5.043  10.259  4.1862  0.3098  1.7471
  131MOL0     H17668   6.417   5.106  10.259  0.5011 -1.8779 -0.9224
  131MOL0     H17669   6.838   5.283   9.867  2.9409  3.0047  0.2370
  131MOL0     H17670   7.064   5.333   9.916 -1.3594 -0.1956  0.1398
  131MOL0     H17671   9.018   5.830  10.148 -0.1459 -1.6435  1.4517
  131MOL0     H17672   9.212   5.763  10.253 -1.6177 -0.2828 -0.1560
  131MOL0     H17673   9.517   5.455  10.383 -0.2536  2.8060 -0.2629
  131MOL0     H17674   9.706   5.359  10.491 -1.5785  0.7512 -0.2244
  131MOL0     H17675  10.132   5.317  10.269 -0.3673 -0.3235 -0.4418
  131MOL0     H17676  10.080   5.479  10.298 -0.1580 -0.1969  0.2383
  131MOL0     H17677  10.177   5.306  10.522 -0.4963  1.1649  2.2711
  131MOL0     H17678  10.186   5.479  10.502  1.5174  0.4102 -1.0061
  131MOL0     H17679  10.355   5.447  10.317  0.8838 -0.8730 -1.1459
  131MOL0     H17680  10.352   5.276  10.353  0.7401  0.5270 -0.5821
  131MOL0     H17681  10.377   5.352  10.599 -0.9527  1.3256  0.6026
  131MOL0     H17682  10.447   5.500  10.533  0.5732 -1.3480  1.3823
  131MOL0     H17683  10.765   5.244  10.427  0.2365  2.3886 -2.5190
  131MOL0     H17684   9.931   5.427  10.112 -0.8120  0.9572 -0.0815
  131MOL0     H17685   9.729   5.521  10.018  1.9270 -4.1415 -0.4259
  132MOL0     O17686   3.601  10.559   5.983  0.9158  0.8158 -0.2635
  132MOL0     C17687   3.713  10.603   6.003  0.2522 -0.4594  0.3276
  132MOL0     O17688   3.770  10.703   5.929 -0.3749 -0.5177 -0.0338
  132MOL0     C17689   3.691  10.736   5.822 -0.1172  0.4927  0.4869
  132MOL0     C17690   3.729  10.689   5.692 -0.6182  0.0354  0.4259
  132MOL0     C17691   3.639  10.715   5.582 -0.0718 -0.1878 -0.2038
  132MOL0     C17692   3.523  10.794   5.600 -0.1087  0.3311  0.1465
  132MOL0     O17693   3.440  10.795   5.492  0.1676 -0.0564 -0.6916
  132MOL0     C17694   3.309  10.850   5.513  0.0105  0.0640 -0.4091
  132MOL0     C17695   3.219  10.829   5.390  0.2322  0.4187  0.1573
  132MOL0     C17696   3.247  10.947   5.309  0.8475  0.2107  0.2929
  132MOL0     C17697   3.160  10.942   5.178 -0.2033 -0.2799 -0.1043
  132MOL0     C17698   3.187  11.066   5.088  0.4050  0.1755  0.5754
  132MOL0     C17699   3.125  11.043   4.948  0.3481 -0.2185  0.4447
  132MOL0     C17700   2.980  11.070   4.947  0.0330 -0.9258  0.0240
  132MOL0     C17701   2.904  11.057   4.810 -0.4080  0.1529 -0.3862
  132MOL0     N17702   2.756  11.060   4.826  0.8040  0.3644 -0.9168
  132MOL0     C17703   2.688  11.175   4.838  0.1270 -0.0907  0.9199
  132MOL0     C17704   2.564  11.134   4.878 -0.4273  1.1204  0.3862
  132MOL0     C17705   2.456  11.232   4.892  0.3615  0.2025 -0.1706
  132MOL0     C17706   2.337  11.208   4.797 -0.3729 -0.0658  0.0135
  132MOL0     C17707   2.351  11.163   4.648 -1.1372 -0.0186 -1.2959
  132MOL0     C17708   2.217  11.155   4.583 -0.0982 -0.1672  0.9320
  132MOL0     O17709   2.113  11.089   4.664 -0.7906 -0.0239  0.0538
  132MOL0     C17710   1.994  11.160   4.674 -0.4044 -0.5704 -0.3958
  132MOL0     C17711   1.907  11.159   4.566  0.5768 -0.6108 -0.1016
  132MOL0     C17712   1.790  11.226   4.558 -0.6768  0.6197 -0.5077
  132MOL0     C17713   1.706  11.201   4.432 -0.6031  0.1679  0.2124
  132MOL0     C17714   1.752  11.299   4.666 -0.4605  0.3904 -0.2709
  132MOL0     C17715   1.624  11.372   4.681 -0.7044 -0.3253 -0.3991
  132MOL0     O17716   1.566  11.410   4.563 -0.1727 -0.0942 -0.2805
  132MOL0     C17717   1.445  11.461   4.546 -0.4446 -0.7186  0.2252
  132MOL0     C17718   1.329  11.388   4.576  0.4967 -0.4903  0.2994
  132MOL0     C17719   1.206  11.458   4.581 -0.2365 -0.0609  0.1335
  132MOL0     C17720   1.190  11.586   4.534 -1.2154 -0.6384  0.0059
  132MOL0     O17721   1.062  11.633   4.538  0.3323 -0.2354 -0.5432
  132MOL0     C17722   1.027  11.728   4.434 -0.3019  1.3324 -0.2982
  132MOL0     C17723   0.882  11.763   4.401 -0.1077 -0.0617  0.0375
  132MOL0     C17724   0.811  11.625   4.384  0.4913  0.4389 -0.0408
  132MOL0     C17725   0.667  11.655   4.347  0.7927  0.6432 -0.5675
  132MOL0     C17726   0.587  11.524   4.320 -0.3881 -0.1660  0.3186
  132MOL0     C17727   0.546  11.444   4.445 -0.7236  0.1052  0.2104
  132MOL0     C17728   0.431  11.501   4.524  0.4763 -0.4376 -0.3092
  132MOL0     C17729   0.390  11.417   4.647 -0.7992 -0.2437 -0.1588
  132MOL0    Cl17730   0.324  11.255   4.596 -0.0261  0.2680 -0.1037
  132MOL0     C17731   1.304  11.659   4.492 -0.0089 -0.0871 -0.0966
  132MOL0     C17732   1.438  11.593   4.487 -0.3126 -0.0663  0.3100
  132MOL0     O17733   1.582  11.400   4.789  0.4091 -0.1908 -0.0865
  132MOL0     C17734   1.832  11.293   4.782 -0.0680 -0.1643  0.7405
  132MOL0     C17735   1.948  11.220   4.790 -0.5400  0.1943  0.0825
  132MOL0     N17736   2.566  10.997   4.897  0.0224  0.4364  0.7717
  132MOL0     N17737   2.686  10.955   4.877 -0.0651 -0.2843 -0.1694
  132MOL0     C17738   3.493  10.846   5.727  0.0812  0.5498 -0.3486
  132MOL0     C17739   3.578  10.822   5.839  0.6074 -0.0141 -0.4319
  132MOL0     C17740   3.797  10.557   6.116 -0.2188 -0.0821  0.1940
  132MOL0     C17741   3.924  10.609   6.138  0.1373  0.7827 -0.0902
  132MOL0     C17742   4.006  10.542   6.233  0.1212  0.9974 -0.0719
  132MOL0     C17743   3.967  10.421   6.301 -0.0262 -0.6852 -0.0553
  132MOL0     O17744   4.059  10.345   6.378 -0.5943  0.0033  0.0539
  132MOL0     C17745   4.188  10.404   6.408 -0.1054 -1.2789 -0.5363
  132MOL0     C17746   4.261  10.298   6.493  0.1457 -0.1589 -0.3155
  132MOL0     C17747   4.414  10.307   6.496  0.0123  0.2053  0.2763
  132MOL0     C17748   4.476  10.181   6.550 -0.0354  0.4327 -0.3601
  132MOL0     C17749   4.615  10.175   6.563  1.3744  0.3255 -0.7926
  132MOL0     C17750   4.728  10.159   6.570  0.7506  0.3854  0.0853
  132MOL0     C17751   3.838  10.374   6.276  0.4677 -0.1366 -0.0314
  132MOL0     C17752   3.757  10.442   6.185  0.8898  0.5840 -0.3639
  132MOL0     H17753   3.818  10.628   5.686 -0.0489  0.9157 -0.5210
  132MOL0     H17754   3.659  10.682   5.480  2.3553  2.8159 -0.8387
  132MOL0     H17755   3.267  10.799   5.600  0.8421  3.1516  2.0057
  132MOL0     H17756   3.307  10.955   5.545 -1.8206 -1.0079  3.7138
  132MOL0     H17757   3.256  10.735   5.349 -0.2587  0.3253 -0.0828
  132MOL0     H17758   3.113  10.821   5.416  0.1577 -0.3098 -0.3328
  132MOL0     H17759   3.223  11.044   5.355 -4.5464 -0.2449 -0.8489
  132MOL0     H17760   3.352  10.945   5.278 -0.2915  0.8426 -4.2677
  132MOL0     H17761   3.219  10.864   5.130  4.0786  0.2224  3.6448
  132MOL0     H17762   3.055  10.916   5.195  0.2959 -3.2134 -0.9381
  132MOL0     H17763   3.143  11.153   5.137  1.6355  0.5462  1.0542
  132MOL0     H17764   3.294  11.079   5.069  0.0474  1.2641 -0.9138
  132MOL0     H17765   3.175  11.105   4.872  0.9750 -1.0105  0.1893
  132MOL0     H17766   3.148  10.939   4.921  3.4663  0.7108 -0.9709
  132MOL0     H17767   2.929  11.002   5.015 -1.2259 -0.3902 -0.3465
  132MOL0     H17768   2.970  11.171   4.987 -0.5651 -0.3421 -1.5114
  132MOL0     H17769   2.927  10.960   4.766  0.0475 -0.8738  2.0082
  132MOL0     H17770   2.924  11.138   4.739  0.5419 -0.4340 -0.8024
  132MOL0     H17771   2.717  11.277   4.819  0.3093 -0.3930 -0.5747
  132MOL0     H17772   2.423  11.236   4.996  1.4614  1.1791  0.1701
  132MOL0     H17773   2.500  11.331   4.875 -0.4652  0.5593 -0.2658
  132MOL0     H17774   2.269  11.294   4.800 -0.6452 -0.3058  1.1874
  132MOL0     H17775   2.275  11.131   4.844 -1.7400  0.4919 -0.8035
  132MOL0     H17776   2.384  11.059   4.649 -1.5160 -0.1472  0.0156
  132MOL0     H17777   2.423  11.227   4.597 -0.4926  0.2805 -0.0518
  132MOL0     H17778   2.225  11.120   4.480 -0.1376  2.5510 -0.0754
  132MOL0     H17779   2.191  11.261   4.573  0.0051 -0.3175 -1.5285
  132MOL0     H17780   1.948  11.114   4.475  3.3186  1.6666 -0.1319
  132MOL0     H17781   1.709  11.293   4.373 -0.5632  0.3936  0.5617
  132MOL0     H17782   1.744  11.114   4.378 -2.3210  0.1940 -1.1377
  132MOL0     H17783   1.603  11.178   4.463  0.3636 -3.3159  1.3124
  132MOL0     H17784   1.343  11.285   4.605 -0.2641  0.2250  3.6533
  132MOL0     H17785   1.116  11.411   4.617 -2.8698  4.3786  0.0774
  132MOL0     H17786   1.078  11.822   4.456  1.5006 -0.1010  2.1544
  132MOL0     H17787   1.063  11.693   4.337  0.7837 -0.6390  0.7515
  132MOL0     H17788   0.846  11.822   4.486 -0.4128 -1.3561  0.8364
  132MOL0     H17789   0.880  11.819   4.307  1.5242 -1.0830 -0.6642
  132MOL0     H17790   0.808  11.570   4.478  0.4224  0.8959  0.2260
  132MOL0     H17791   0.856  11.563   4.305  0.1815 -1.7099  1.3660
  132MOL0     H17792   0.617  11.709   4.428 -1.4343 -1.0906 -0.6714
  132MOL0     H17793   0.669  11.713   4.254 -0.5714  0.5813 -0.6554
  132MOL0     H17794   0.648  11.454   4.262 -1.2049  0.6477 -1.6100
  132MOL0     H17795   0.503  11.542   4.252  0.8259 -1.4582 -1.6506
  132MOL0     H17796   0.517  11.344   4.410 -3.2859  1.6044 -2.4083
  132MOL0     H17797   0.635  11.424   4.506 -0.0073  1.8395 -0.2075
  132MOL0     H17798   0.349  11.508   4.452  0.0634 -0.7488  0.1262
  132MOL0     H17799   0.453  11.605   4.549 -0.5340 -0.4847  0.8252
  132MOL0     H17800   0.325  11.472   4.716 -2.1960  0.2409 -1.7796
  132MOL0     H17801   0.481  11.407   4.707 -0.2931  2.5770 -0.2933
  132MOL0     H17802   1.290  11.763   4.464 -1.9451 -0.5921 -1.1620
  132MOL0     H17803   1.529  11.650   4.469 -0.7371  0.6372  0.3388
  132MOL0     H17804   1.801  11.349   4.870 -0.2208  0.3104  0.3892
  132MOL0     H17805   1.993  11.221   4.889 -1.1040 -0.7983  0.3658
  132MOL0     H17806   3.403  10.900   5.755 -1.9684 -2.3946 -0.8789
  132MOL0     H17807   3.544  10.846   5.939  1.2145 -0.4379 -0.1144
  132MOL0     H17808   3.959  10.694   6.080 -1.8253  3.5678  2.4828
  132MOL0     H17809   4.111  10.570   6.241 -0.4826  3.2547  0.5350
  132MOL0     H17810   4.261  10.409   6.327  4.4132 -1.0302  3.1349
  132MOL0     H17811   4.180  10.505   6.449 -0.7440 -0.5787 -2.3026
  132MOL0     H17812   4.233  10.200   6.453  0.2024 -0.4154  0.2658
  132MOL0     H17813   4.226  10.319   6.594  1.5988  4.1448 -0.4878
  132MOL0     H17814   4.441  10.389   6.563 -1.2107  0.7308  0.1615
  132MOL0     H17815   4.463  10.329   6.401  2.0466 -0.4172  1.1383
  132MOL0     H17816   4.443  10.099   6.484  1.5511 -1.3827  0.9906
  132MOL0     H17817   4.434  10.160   6.649 -0.8838 -3.4606 -1.3586
  132MOL0     H17818   4.834  10.145   6.579  0.6861 -1.5382 -1.4639
  132MOL0     H17819   3.810  10.285   6.331  2.9402 -0.8448  0.2088
  132MOL0     H17820   3.661  10.394   6.165 -0.0659  1.0186  2.6512
  133MOL0     O17821   7.281   0.628   9.594 -0.3722 -0.0207  0.0166
  133MOL0     C17822   7.328   0.718   9.526 -0.5176 -1.3400 -0.1427
  133MOL0     O17823   7.255   0.814   9.459  0.3603 -0.3996  0.2686
  133MOL0     C17824   7.118   0.842   9.471 -0.3747  0.0531  0.1744
  133MOL0     C17825   7.030   0.782   9.558  0.1409 -0.5002 -0.5322
  133MOL0     C17826   6.894   0.815   9.554  0.0281  0.3453  0.1357
  133MOL0     C17827   6.847   0.917   9.471  0.1910 -0.6865  0.3657
  133MOL0     O17828   6.710   0.948   9.454 -0.7306  0.2455  0.3074
  133MOL0     C17829   6.636   0.944   9.582 -0.2215 -0.1684 -0.4135
  133MOL0     C17830   6.496   0.983   9.561  0.8851  0.4245  0.5797
  133MOL0     C17831   6.434   0.904   9.444  0.1710  0.4058  0.2606
  133MOL0     C17832   6.275   0.918   9.449  0.6047  0.3941 -0.1190
  133MOL0     C17833   6.198   0.853   9.332 -0.0953 -0.2268  0.8371
  133MOL0     C17834   6.207   0.919   9.191  0.7223 -0.3706 -0.4880
  133MOL0     C17835   6.154   1.065   9.188 -0.2541 -0.5919 -0.4576
  133MOL0     C17836   6.192   1.135   9.053 -0.5937 -0.8755 -0.5021
  133MOL0     N17837   6.107   1.096   8.934  0.2791 -0.4703 -0.3235
  133MOL0     C17838   6.128   0.980   8.855  0.4543 -0.5302 -0.4773
  133MOL0     C17839   6.057   1.016   8.739  0.1644  0.1860 -0.1391
  133MOL0     C17840   6.022   0.910   8.633 -0.3502 -0.2630  0.9197
  133MOL0     C17841   6.084   0.935   8.500 -0.4110 -0.0872  0.6591
  133MOL0     C17842   6.007   1.039   8.413  0.5248  0.4358 -0.3773
  133MOL0     C17843   5.874   1.004   8.367 -1.2608  0.3389  0.5617
  133MOL0     O17844   5.880   0.891   8.283 -0.2681 -0.2221  0.4785
  133MOL0     C17845   5.769   0.812   8.265 -0.6536 -0.7734 -0.5705
  133MOL0     C17846   5.786   0.707   8.182  1.0581  0.5669  0.2827
  133MOL0     C17847   5.684   0.611   8.158 -0.2820 -0.2157  0.8406
  133MOL0     C17848   5.713   0.492   8.084 -0.6720 -0.5846  0.6305
  133MOL0     C17849   5.552   0.627   8.217  0.4607  0.0762 -0.0201
  133MOL0     C17850   5.443   0.528   8.207 -0.2478 -0.8709 -0.7159
  133MOL0     O17851   5.322   0.577   8.229  0.0395  0.2073  0.1840
  133MOL0     C17852   5.211   0.491   8.238 -0.5096  0.4334  0.3471
  133MOL0     C17853   5.109   0.523   8.149  0.5024 -0.3924 -0.2991
  133MOL0     C17854   4.988   0.452   8.144 -0.4815 -0.4732  0.0425
  133MOL0     C17855   4.979   0.335   8.214  0.6589 -0.5083  0.1092
  133MOL0     O17856   4.852   0.274   8.192 -0.0996  0.7515  0.2342
  133MOL0     C17857   4.807   0.194   8.306 -0.2559 -0.0215 -1.1189
  133MOL0     C17858   4.665   0.148   8.280  0.6319  0.1559  0.4595
  133MOL0     C17859   4.626   0.030   8.372  0.7115  0.2593  0.1657
  133MOL0     C17860   4.476   0.008   8.349  0.2708 -0.2250  0.1863
  133MOL0     C17861   4.414  -0.120   8.403  0.5471 -0.4505  0.5378
  133MOL0     C17862   4.428  -0.151   8.546 -0.0245 -1.1934  0.4821
  133MOL0     C17863   4.354  -0.277   8.586  0.3044 -0.2468  0.3184
  133MOL0     C17864   4.352  -0.305   8.731 -1.2355 -0.3732  0.6348
  133MOL0    Cl17865   4.506  -0.350   8.807  0.0388 -0.5790 -0.4095
  133MOL0     C17866   5.074   0.311   8.315  0.7736 -0.4623  0.0795
  133MOL0     C17867   5.195   0.386   8.324  0.1751  0.5930  0.3714
  133MOL0     O17868   5.470   0.409   8.186 -0.2981  0.3697 -0.1852
  133MOL0     C17869   5.540   0.736   8.308 -0.2239 -0.4790  0.9707
  133MOL0     C17870   5.648   0.825   8.333 -0.2723 -0.1928 -0.1562
  133MOL0     N17871   6.004   1.145   8.741 -0.6558  0.1481 -0.4141
  133MOL0     N17872   6.043   1.184   8.855 -0.0415 -0.3226 -0.6911
  133MOL0     C17873   6.936   0.974   9.383 -0.2966 -0.3699 -0.4129
  133MOL0     C17874   7.068   0.937   9.384  0.4539  0.2701 -0.1409
  133MOL0     C17875   7.475   0.738   9.507 -0.0562  0.5951 -0.0565
  133MOL0     C17876   7.523   0.841   9.429 -1.6734 -0.3241 -0.0413
  133MOL0     C17877   7.660   0.868   9.408  0.7392 -0.0482  0.8512
  133MOL0     C17878   7.757   0.776   9.463 -0.4643 -1.0891  0.2697
  133MOL0     O17879   7.889   0.791   9.438 -0.1050  0.3115  0.2413
  133MOL0     C17880   7.943   0.928   9.408 -0.0045  0.7403 -0.2894
  133MOL0     C17881   7.936   1.020   9.532 -0.3663  0.0937 -0.5195
  133MOL0     C17882   8.011   1.156   9.522 -0.4060 -0.0278 -0.2199
  133MOL0     C17883   7.941   1.259   9.443  0.4597 -0.2893  0.2184
  133MOL0     C17884   7.797   1.268   9.465  0.6573  0.2194  0.0664
  133MOL0     C17885   7.675   1.268   9.481  0.4659  0.3364 -0.3867
  133MOL0     C17886   7.708   0.670   9.539  0.4066  0.5910  0.4885
  133MOL0     C17887   7.573   0.651   9.568  0.6991 -0.5643 -0.5536
  133MOL0     H17888   7.064   0.699   9.619 -1.2738  0.2820  1.4615
  133MOL0     H17889   6.832   0.768   9.630  1.5805  1.0516  1.9154
  133MOL0     H17890   6.632   0.839   9.612  1.5519 -1.2891 -3.6419
  133MOL0     H17891   6.672   1.014   9.658 -2.4141  1.1399 -0.4688
  133MOL0     H17892   6.439   0.951   9.649  2.0672 -2.5239  0.4015
  133MOL0     H17893   6.487   1.090   9.542 -1.0260  0.2625  0.4037
  133MOL0     H17894   6.482   0.944   9.354  1.3469 -2.6813 -0.6073
  133MOL0     H17895   6.454   0.797   9.444 -2.2656 -0.1081  0.2668
  133MOL0     H17896   6.253   0.864   9.541  0.9144  0.4552 -0.0078
  133MOL0     H17897   6.257   1.025   9.459  0.5615  0.4402 -0.6522
  133MOL0     H17898   6.225   0.749   9.308 -0.6198  0.3030 -2.4891
  133MOL0     H17899   6.093   0.862   9.358 -0.9414 -1.4628 -1.7782
  133MOL0     H17900   6.312   0.915   9.159  0.3009  0.6457 -2.1422
  133MOL0     H17901   6.159   0.854   9.117  3.8039 -2.7917 -0.5803
  133MOL0     H17902   6.045   1.070   9.199 -0.0485  2.7626  1.2322
  133MOL0     H17903   6.199   1.125   9.268 -0.4569  0.5021 -1.1426
  133MOL0     H17904   6.300   1.135   9.032 -0.8327 -2.2559 -1.9028
  133MOL0     H17905   6.182   1.242   9.070  1.1230 -0.8147  0.3222
  133MOL0     H17906   6.165   0.885   8.893  2.0500  0.9832  2.0116
  133MOL0     H17907   6.045   0.809   8.670 -3.5993 -0.3935  3.0195
  133MOL0     H17908   5.913   0.909   8.624 -0.7583 -1.8194  4.3533
  133MOL0     H17909   6.081   0.852   8.429  0.9301  0.4523 -0.0820
  133MOL0     H17910   6.186   0.972   8.517  0.1025 -1.6655  1.2073
  133MOL0     H17911   6.073   1.066   8.330 -1.4711  0.0470 -2.1813
  133MOL0     H17912   5.987   1.130   8.469 -0.1087 -0.7230  1.3533
  133MOL0     H17913   5.833   1.091   8.313 -1.4173  0.3755  0.7390
  133MOL0     H17914   5.806   0.984   8.450 -0.8593 -0.1857  0.7637
  133MOL0     H17915   5.890   0.695   8.152  1.4615 -2.0439  2.3312
  133MOL0     H17916   5.637   0.452   8.017  0.7156 -3.4707  0.6035
  133MOL0     H17917   5.810   0.490   8.033 -1.0675 -1.3474 -0.1258
  133MOL0     H17918   5.733   0.411   8.155  0.0194 -2.0264 -1.1178
  133MOL0     H17919   5.117   0.612   8.087  1.1634 -0.7780 -0.7851
  133MOL0     H17920   4.906   0.491   8.086 -0.6698 -0.3083  0.4196
  133MOL0     H17921   4.885   0.118   8.312 -0.4930 -0.1817  0.0013
  133MOL0     H17922   4.812   0.245   8.402  1.5613 -1.2917 -0.4974
  133MOL0     H17923   4.601   0.234   8.296  1.0175  0.6607 -0.6396
  133MOL0     H17924   4.660   0.113   8.176  0.7065 -1.3685  0.9341
  133MOL0     H17925   4.654   0.042   8.477 -1.6081 -0.9581  1.0109
  133MOL0     H17926   4.680  -0.058   8.335 -0.3101  0.4908 -2.0547
  133MOL0     H17927   4.418   0.095   8.384  1.0257  0.5302 -0.3912
  133MOL0     H17928   4.456   0.012   8.241 -2.8966  2.3440  0.7031
  133MOL0     H17929   4.465  -0.205   8.355  0.6228 -0.5072  0.7188
  133MOL0     H17930   4.309  -0.121   8.375  0.5680 -1.4221  0.4742
  133MOL0     H17931   4.533  -0.163   8.574  1.1145 -1.0527 -3.2979
  133MOL0     H17932   4.392  -0.063   8.602  4.0503  0.9628  0.0751
  133MOL0     H17933   4.395  -0.359   8.527 -0.4791  0.7300 -1.6880
  133MOL0     H17934   4.253  -0.243   8.562 -0.6919 -1.7984  2.0661
  133MOL0     H17935   4.282  -0.389   8.737 -3.7996  1.7332  2.7201
  133MOL0     H17936   4.306  -0.228   8.793  0.2328 -0.4129  1.8466
  133MOL0     H17937   5.063   0.236   8.393 -0.5460  3.0541  3.5699
  133MOL0     H17938   5.263   0.354   8.402  0.4370 -0.6998 -0.3416
  133MOL0     H17939   5.451   0.763   8.362  1.1611  3.6483  1.5081
  133MOL0     H17940   5.627   0.906   8.403  1.6493  0.5393 -0.3714
  133MOL0     H17941   6.902   1.047   9.311 -0.9992 -1.3928 -1.1551
  133MOL0     H17942   7.142   0.971   9.312  0.7908  1.0268  0.5391
  133MOL0     H17943   7.463   0.906   9.366 -1.1054  1.2822  1.0290
  133MOL0     H17944   7.678   0.945   9.334 -0.9825 -0.5431 -0.1423
  133MOL0     H17945   8.049   0.925   9.384 -0.2445  0.2442 -1.3216
  133MOL0     H17946   7.895   0.970   9.319 -0.2152  0.3188 -0.3749
  133MOL0     H17947   7.991   0.952   9.599 -0.1097 -0.6904 -1.5018
  133MOL0     H17948   7.834   1.034   9.567 -0.3506 -1.8487  0.4830
  133MOL0     H17949   8.116   1.142   9.495 -0.2426  0.5697  0.1020
  133MOL0     H17950   8.006   1.192   9.625 -2.6152  2.3258 -1.0470
  133MOL0     H17951   7.960   1.234   9.338 -0.2935 -0.5993  0.1492
  133MOL0     H17952   7.992   1.354   9.459 -0.3553  0.0201  0.9935
  133MOL0     H17953   7.571   1.271   9.506  0.2163 -2.5522 -0.7832
  133MOL0     H17954   7.776   0.602   9.589  1.7959  1.1443 -0.5781
  133MOL0     H17955   7.535   0.570   9.630  1.5249  0.5871  1.5498
  134MOL0     O17956  11.202   9.426   0.073 -0.8195  0.2277  0.1716
  134MOL0     C17957  11.322   9.387   0.064  0.0774 -0.3176 -0.5846
  134MOL0     O17958  11.365   9.265   0.017 -0.5188 -0.1188 -0.3508
  134MOL0     C17959  11.274   9.174  -0.034  0.8280  0.2593  0.6558
  134MOL0     C17960  11.176   9.202  -0.132 -0.1559 -0.8010  0.0602
  134MOL0     C17961  11.093   9.098  -0.181 -0.1496  0.2487 -0.8891
  134MOL0     C17962  11.112   8.971  -0.139 -0.5457 -0.2349  0.5279
  134MOL0     O17963  11.026   8.881  -0.198  0.1293 -0.0375 -0.0768
  134MOL0     C17964  11.029   8.742  -0.173  0.2800  0.7014 -0.4922
  134MOL0     C17965  10.979   8.708  -0.028 -0.0551 -0.3728  0.6450
  134MOL0     C17966  10.837   8.740   0.010  0.0866  0.3840 -0.1585
  134MOL0     C17967  10.743   8.641  -0.048 -0.4515 -0.5944  0.0819
  134MOL0     C17968  10.603   8.674   0.008 -0.0631 -0.0564  0.7423
  134MOL0     C17969  10.485   8.590  -0.049  0.0407  0.3058  0.3234
  134MOL0     C17970  10.521   8.440  -0.026 -0.0946  0.4889  0.6840
  134MOL0     C17971  10.526   8.390   0.112 -0.7668 -1.1817  0.4508
  134MOL0     N17972  10.396   8.417   0.180  0.5699 -0.3386  0.6018
  134MOL0     C17973  10.318   8.309   0.217  0.0552 -0.2948 -0.1548
  134MOL0     C17974  10.235   8.354   0.305  0.3286 -0.6522  0.5133
  134MOL0     C17975  10.119   8.277   0.362 -0.4349  0.7231 -0.1061
  134MOL0     C17976  10.059   8.339   0.488  0.0045 -0.2620 -0.5018
  134MOL0     C17977  10.161   8.343   0.603  0.3849  0.3802 -1.1804
  134MOL0     C17978  10.118   8.259   0.722 -0.9241  0.4961 -0.0920
  134MOL0     O17979  10.010   8.328   0.780  1.2382 -0.3678 -0.0907
  134MOL0     C17980   9.953   8.288   0.894  0.1004  0.5312  0.1247
  134MOL0     C17981   9.991   8.170   0.967 -0.4289 -0.5068  0.1139
  134MOL0     C17982   9.932   8.145   1.091 -0.2208 -0.1364  0.1655
  134MOL0     C17983   9.979   8.028   1.165  0.6246 -0.3236 -0.8919
  134MOL0     C17984   9.819   8.233   1.131  0.2319  0.0695 -0.2159
  134MOL0     C17985   9.742   8.217   1.268 -0.3684  0.3852 -0.2478
  134MOL0     O17986   9.787   8.128   1.357  0.2796  0.0080  0.3411
  134MOL0     C17987   9.733   8.117   1.484 -0.5715  0.4864 -0.2887
  134MOL0     C17988   9.808   8.149   1.599 -0.6913  0.2265 -0.0243
  134MOL0     C17989   9.767   8.113   1.731 -0.4251  0.4025  0.3703
  134MOL0     C17990   9.641   8.063   1.760  0.8799 -0.1130  0.3222
  134MOL0     O17991   9.604   8.021   1.887  0.1327  0.1995 -0.0091
  134MOL0     C17992   9.576   8.130   1.971  0.3108 -0.7298 -0.5752
  134MOL0     C17993   9.505   8.098   2.107  0.7070  0.3048 -0.1724
  134MOL0     C17994   9.479   8.235   2.172  0.2107 -0.0488  0.3504
  134MOL0     C17995   9.399   8.221   2.303  0.0550  0.0145  0.6573
  134MOL0     C17996   9.254   8.189   2.285  0.0620 -0.5872  0.8553
  134MOL0     C17997   9.181   8.138   2.415  0.1727  0.4525  0.2333
  134MOL0     C17998   9.034   8.115   2.386  0.0151  0.6506  0.0797
  134MOL0     C17999   8.946   8.135   2.509  1.1418  0.3808  0.3528
  134MOL0    Cl18000   8.796   8.027   2.485 -0.2617  0.2852  0.1070
  134MOL0     C18001   9.552   8.048   1.651  0.0907 -0.2022  0.0313
  134MOL0     C18002   9.597   8.074   1.514  0.3327  0.2207 -0.3719
  134MOL0     O18003   9.652   8.296   1.291 -0.3125 -0.0135  0.3476
  134MOL0     C18004   9.792   8.356   1.065 -0.5709 -0.5588  0.0696
  134MOL0     C18005   9.852   8.378   0.938 -0.7860 -0.4659  0.3712
  134MOL0     N18006  10.260   8.494   0.324  0.4510 -0.1514 -0.3263
  134MOL0     N18007  10.367   8.529   0.248 -0.1796  0.3558 -0.3099
  134MOL0     C18008  11.220   8.943  -0.052 -0.1824  0.6891  1.0205
  134MOL0     C18009  11.295   9.046   0.001 -0.5220  0.3372  0.2245
  134MOL0     C18010  11.433   9.487   0.089  0.2906  0.8757 -0.1986
  134MOL0     C18011  11.403   9.612   0.142 -0.2166  0.1964 -1.3384
  134MOL0     C18012  11.508   9.700   0.182  0.2056 -0.2047  0.0244
  134MOL0     C18013  11.638   9.673   0.151 -0.8800 -0.3490  0.0111
  134MOL0     O18014  11.737   9.764   0.178 -0.0732  0.2981  0.6276
  134MOL0     C18015  11.869   9.730   0.204 -0.5073  0.2299  0.4670
  134MOL0     C18016  11.952   9.757   0.070  0.5411  0.3411 -0.3167
  134MOL0     C18017  12.098   9.747   0.099 -0.6017 -0.1802 -0.4080
  134MOL0     C18018  12.139   9.604   0.151  0.0769 -0.3069  0.0359
  134MOL0     C18019  12.287   9.572   0.142  0.2775  0.4398 -0.6017
  134MOL0     C18020  12.408   9.565   0.139  0.0072  0.9194  0.3533
  134MOL0     C18021  11.669   9.552   0.094 -0.1153 -0.1588  0.7890
  134MOL0     C18022  11.571   9.467   0.062 -0.1956  0.2486 -0.2477
  134MOL0     H18023  11.168   9.303  -0.171  0.3756 -1.2324 -1.2245
  134MOL0     H18024  11.017   9.117  -0.256 -0.6345  0.5154 -0.3431
  134MOL0     H18025  10.974   8.690  -0.252 -1.0008  0.2408  0.6676
  134MOL0     H18026  11.132   8.708  -0.179  1.1394  2.6200  1.7011
  134MOL0     H18027  11.005   8.605  -0.004  0.1971 -1.2007 -2.6865
  134MOL0     H18028  11.043   8.758   0.045  3.2759 -1.3797 -1.3552
  134MOL0     H18029  10.839   8.745   0.120  3.5050 -2.0604  0.0502
  134MOL0     H18030  10.802   8.831  -0.038 -1.7419 -0.9337 -1.4563
  134MOL0     H18031  10.739   8.646  -0.157 -0.9863 -0.4634  0.1081
  134MOL0     H18032  10.780   8.540  -0.025  3.0486  0.7520  1.1325
  134MOL0     H18033  10.599   8.648   0.114 -1.1577  0.2389  0.7813
  134MOL0     H18034  10.581   8.778  -0.019 -1.2250 -0.7549 -1.1884
  134MOL0     H18035  10.386   8.616  -0.009  0.4755  3.7672 -0.5522
  134MOL0     H18036  10.473   8.614  -0.155  0.1440 -0.6357  0.0915
  134MOL0     H18037  10.446   8.376  -0.072 -1.6015  0.1303  3.4610
  134MOL0     H18038  10.621   8.418  -0.066 -0.8692 -1.9621 -0.0721
  134MOL0     H18039  10.611   8.435   0.163  0.8855 -1.1754 -2.1446
  134MOL0     H18040  10.540   8.282   0.116  0.0920 -1.0499  3.7593
  134MOL0     H18041  10.333   8.209   0.179  4.1243 -0.9481  2.6073
  134MOL0     H18042  10.050   8.285   0.277 -1.0495 -0.6293  0.2345
  134MOL0     H18043  10.146   8.172   0.377  1.3774  1.4081  2.1700
  134MOL0     H18044   9.964   8.297   0.522 -0.3941 -0.8278 -2.2328
  134MOL0     H18045  10.034   8.442   0.458  1.0879 -0.4511 -2.1722
  134MOL0     H18046  10.171   8.445   0.642 -1.4785  0.0447  0.3497
  134MOL0     H18047  10.261   8.305   0.579  1.4864  1.1510  1.7005
  134MOL0     H18048  10.195   8.253   0.799 -3.5281 -0.3604  2.6288
  134MOL0     H18049  10.089   8.155   0.703  2.0471 -1.1228  3.0669
  134MOL0     H18050  10.070   8.103   0.936  0.9597  1.5734 -1.1092
  134MOL0     H18051  10.079   8.000   1.131  1.0441  1.9999 -1.7294
  134MOL0     H18052   9.993   8.047   1.272  1.0343 -2.0619 -0.5890
  134MOL0     H18053   9.907   7.946   1.154  0.0112  0.3013 -1.6315
  134MOL0     H18054   9.909   8.187   1.588 -1.5527  2.8404  0.4877
  134MOL0     H18055   9.831   8.127   1.818 -0.4865 -0.8718  0.6386
  134MOL0     H18056   9.667   8.181   2.003 -0.2304  0.4438 -0.8696
  134MOL0     H18057   9.517   8.207   1.920  0.3511  1.3622  2.3101
  134MOL0     H18058   9.414   8.038   2.103 -0.4721  1.8210  1.9968
  134MOL0     H18059   9.567   8.039   2.176 -0.6544  1.7229  2.3630
  134MOL0     H18060   9.435   8.307   2.103 -1.2948 -1.3768 -0.1252
  134MOL0     H18061   9.573   8.283   2.202 -0.3509 -0.0120  2.2049
  134MOL0     H18062   9.449   8.137   2.352 -1.1541 -0.9808  0.2470
  134MOL0     H18063   9.401   8.314   2.360 -1.3528  0.1835  0.4487
  134MOL0     H18064   9.239   8.108   2.213  1.6008 -1.0364  1.0148
  134MOL0     H18065   9.207   8.273   2.234  4.6127  2.0525  0.4681
  134MOL0     H18066   9.223   8.040   2.437 -2.5935 -0.5849  1.3139
  134MOL0     H18067   9.192   8.206   2.500 -1.1310  1.5970 -0.4785
  134MOL0     H18068   9.018   8.013   2.351 -2.3732  0.4077  1.6824
  134MOL0     H18069   9.002   8.191   2.314 -0.9167  0.7788  0.6166
  134MOL0     H18070   8.905   8.234   2.532  0.5138 -0.1987  1.8977
  134MOL0     H18071   8.990   8.106   2.605  1.3578 -1.0257 -0.1439
  134MOL0     H18072   9.454   8.007   1.674  1.0031 -1.7902  1.3639
  134MOL0     H18073   9.528   8.053   1.433 -1.3247  1.6592  0.6159
  134MOL0     H18074   9.721   8.425   1.109 -0.5828 -1.0580  0.8525
  134MOL0     H18075   9.824   8.459   0.872  1.3570 -0.2227 -0.2987
  134MOL0     H18076  11.237   8.845  -0.009 -3.5463 -0.4317  0.0981
  134MOL0     H18077  11.382   9.012   0.056 -1.8668 -1.2563  1.4664
  134MOL0     H18078  11.303   9.650   0.157  0.3000  1.3439 -0.6674
  134MOL0     H18079  11.483   9.791   0.236 -2.0380 -0.9351  0.3050
  134MOL0     H18080  11.889   9.800   0.286 -2.3518  0.1924  1.0000
  134MOL0     H18081  11.881   9.632   0.250 -0.3211 -0.0658 -0.2069
  134MOL0     H18082  11.928   9.859   0.039  1.3650  0.1269 -1.7482
  134MOL0     H18083  11.918   9.685  -0.004  2.8265 -1.2475  0.0899
  134MOL0     H18084  12.120   9.824   0.174 -3.0824 -0.8447  1.1004
  134MOL0     H18085  12.152   9.772   0.007 -1.5986  0.9953 -0.6999
  134MOL0     H18086  12.082   9.522   0.105 -2.6334  1.0914  0.6849
  134MOL0     H18087  12.123   9.593   0.258  2.0764 -1.4160  0.2670
  134MOL0     H18088  12.515   9.564   0.143 -0.0031 -0.9864  0.8576
  134MOL0     H18089  11.769   9.520   0.064  0.4062 -1.1948  3.3893
  134MOL0     H18090  11.611   9.374   0.023  1.7224  1.0487 -0.3095
  135MOL0     O18091   2.119   7.865   0.061  0.1841 -0.2820 -0.3881
  135MOL0     C18092   2.148   7.792   0.157 -0.3060 -0.4640  0.4257
  135MOL0     O18093   2.060   7.740   0.247  0.6620  0.1141  0.2022
  135MOL0     C18094   1.936   7.807   0.242  0.7831  0.7811  0.0157
  135MOL0     C18095   1.910   7.924   0.317  0.1248  0.3451  0.3250
  135MOL0     C18096   1.776   7.975   0.305 -0.1661  0.3961  0.1017
  135MOL0     C18097   1.679   7.913   0.222 -0.4809 -0.2050 -0.3741
  135MOL0     O18098   1.556   7.974   0.216  0.0098 -0.6101  0.7275
  135MOL0     C18099   1.454   7.913   0.129  0.0512  0.3200  0.3887
  135MOL0     C18100   1.394   7.790   0.192  0.3879  0.1617 -0.1862
  135MOL0     C18101   1.257   7.753   0.125 -0.7087 -0.6636 -0.4811
  135MOL0     C18102   1.181   7.639   0.208  0.3986 -0.2103  0.7374
  135MOL0     C18103   1.036   7.599   0.157  1.0422  0.1409 -0.0035
  135MOL0     C18104   0.926   7.717   0.172  0.6354  1.0256 -0.0982
  135MOL0     C18105   0.790   7.682   0.106  0.8067 -0.1793 -0.0600
  135MOL0     C18106   0.685   7.780   0.155 -0.0137  0.5213  0.0201
  135MOL0     N18107   0.551   7.747   0.105 -0.0788 -0.7009 -0.3393
  135MOL0     C18108   0.445   7.696   0.173  0.8673  0.3019 -0.0123
  135MOL0     C18109   0.346   7.684   0.081 -0.5219  0.3771 -0.2120
  135MOL0     C18110   0.208   7.631   0.107  0.1786  0.4010 -0.0289
  135MOL0     C18111   0.200   7.480   0.102  0.9183  0.6676 -0.3133
  135MOL0     C18112   0.238   7.403   0.236 -0.0582  1.1563  0.2191
  135MOL0     C18113   0.160   7.267   0.246  0.0242 -0.7873  0.2863
  135MOL0     O18114   0.217   7.178   0.152 -0.0822  0.2548  0.5897
  135MOL0     C18115   0.131   7.117   0.060 -0.6756 -0.0384 -0.8288
  135MOL0     C18116   0.162   7.120  -0.076 -0.2849 -0.2606  0.5018
  135MOL0     C18117   0.091   7.038  -0.168  0.0050 -0.1568  0.2568
  135MOL0     C18118   0.124   7.059  -0.315 -0.9398 -0.0755 -0.0171
  135MOL0     C18119  -0.018   6.953  -0.123  0.4446  0.7076  0.0364
  135MOL0     C18120  -0.108   6.870  -0.210 -0.0056 -0.0000  0.3679
  135MOL0     O18121  -0.169   6.764  -0.146  0.0230  0.1534 -0.5145
  135MOL0     C18122  -0.274   6.708  -0.209 -0.6243  1.1378  0.8538
  135MOL0     C18123  -0.404   6.745  -0.182 -0.5410 -0.3275 -0.2132
  135MOL0     C18124  -0.514   6.690  -0.252 -0.1316 -0.3263  0.5914
  135MOL0     C18125  -0.487   6.601  -0.358 -0.1086  0.1516  0.2355
  135MOL0     O18126  -0.596   6.578  -0.449 -0.8879  0.0086 -0.3416
  135MOL0     C18127  -0.596   6.452  -0.527  0.0612  0.5957 -0.4908
  135MOL0     C18128  -0.727   6.441  -0.597 -0.1817  0.6146  0.2443
  135MOL0     C18129  -0.841   6.403  -0.500  0.0387  0.3164 -0.1598
  135MOL0     C18130  -0.984   6.389  -0.561 -0.3192 -0.5075  0.1046
  135MOL0     C18131  -1.089   6.384  -0.445  0.0890 -0.3567 -0.1216
  135MOL0     C18132  -1.216   6.308  -0.486  0.0926 -0.0919  0.4444
  135MOL0     C18133  -1.308   6.279  -0.365 -0.2181 -0.4850  0.0116
  135MOL0     C18134  -1.405   6.159  -0.383  0.2067 -0.2994  0.9773
  135MOL0    Cl18135  -1.505   6.187  -0.532 -0.0734 -0.2928 -0.2927
  135MOL0     C18136  -0.354   6.560  -0.384 -0.3324 -0.3497 -0.0233
  135MOL0     C18137  -0.254   6.604  -0.298 -1.3209 -0.2919 -0.3099
  135MOL0     O18138  -0.131   6.907  -0.330 -0.0068 -0.3491 -0.8891
  135MOL0     C18139  -0.048   6.966   0.022 -0.2675 -0.0663  0.4363
  135MOL0     C18140   0.028   7.039   0.108  0.2929 -0.2251 -0.2096
  135MOL0     N18141   0.400   7.722  -0.041 -0.0852 -0.1707  0.4119
  135MOL0     N18142   0.516   7.776  -0.022 -0.2362 -1.0044 -0.6763
  135MOL0     C18143   1.718   7.799   0.144  0.2215 -0.3888 -0.5984
  135MOL0     C18144   1.847   7.747   0.156  0.1611 -0.4065  0.5275
  135MOL0     C18145   2.290   7.749   0.166 -0.4776  0.2085 -0.3402
  135MOL0     C18146   2.376   7.761   0.056  0.6074  0.1386  0.5784
  135MOL0     C18147   2.503   7.704   0.062 -0.0957  0.6006 -0.3818
  135MOL0     C18148   2.548   7.637   0.183 -0.1297  0.0341 -0.2607
  135MOL0     O18149   2.670   7.572   0.179  0.1533 -0.1323  0.8162
  135MOL0     C18150   2.712   7.476   0.285 -0.0924 -0.8767 -0.4536
  135MOL0     C18151   2.848   7.396   0.248 -0.1679 -1.1817  0.3649
  135MOL0     C18152   2.959   7.502   0.246  0.7213  0.5472  0.1770
  135MOL0     C18153   3.094   7.438   0.231  0.5098 -0.4142 -0.5427
  135MOL0     C18154   3.126   7.371   0.104  1.1492  0.6161 -0.3046
  135MOL0     C18155   3.144   7.298   0.006 -0.0715 -0.1412  0.1063
  135MOL0     C18156   2.461   7.632   0.293 -0.0576 -0.6073  0.2823
  135MOL0     C18157   2.333   7.686   0.282 -0.4691 -0.0677 -0.0986
  135MOL0     H18158   1.984   7.963   0.387  1.3485 -1.0437 -0.1552
  135MOL0     H18159   1.752   8.060   0.368  0.8458  1.6512 -1.1428
  135MOL0     H18160   1.375   7.988   0.117 -1.1228 -0.4776  2.5000
  135MOL0     H18161   1.504   7.900   0.033  4.1568  2.3239  1.9730
  135MOL0     H18162   1.464   7.706   0.191 -0.0155 -0.2114  1.0171
  135MOL0     H18163   1.375   7.819   0.296 -0.7773 -0.5538 -0.1834
  135MOL0     H18164   1.204   7.848   0.140  0.1238 -0.4871  1.7381
  135MOL0     H18165   1.272   7.722   0.021  1.0826  3.2140 -1.5781
  135MOL0     H18166   1.242   7.549   0.207 -1.4061 -1.5794  2.8780
  135MOL0     H18167   1.166   7.660   0.314  0.3011  1.4054  0.4343
  135MOL0     H18168   1.049   7.565   0.054  0.7509 -0.9722  0.3129
  135MOL0     H18169   0.997   7.517   0.219 -0.2286  2.1448  1.9892
  135MOL0     H18170   0.919   7.734   0.280  1.9204 -2.2601  0.6111
  135MOL0     H18171   0.968   7.808   0.128 -0.5115  1.4291 -0.3973
  135MOL0     H18172   0.811   7.681  -0.002  0.4635 -3.5149 -0.2139
  135MOL0     H18173   0.764   7.580   0.134  0.6210 -0.1192 -0.0146
  135MOL0     H18174   0.694   7.883   0.121  0.5698  1.2771  2.3184
  135MOL0     H18175   0.684   7.786   0.264  1.6076  0.0874  0.0833
  135MOL0     H18176   0.437   7.671   0.279  1.2288 -0.3135 -0.1239
  135MOL0     H18177   0.175   7.671   0.203 -0.9879  2.5418 -1.2306
  135MOL0     H18178   0.143   7.670   0.027 -0.6409 -1.1562 -0.1651
  135MOL0     H18179   0.249   7.433   0.016 -1.0420 -0.3734 -0.9346
  135MOL0     H18180   0.098   7.449   0.075  1.8402 -0.3258 -3.0771
  135MOL0     H18181   0.216   7.457   0.328  0.0071  1.8910 -0.1921
  135MOL0     H18182   0.345   7.385   0.221 -0.2375  2.3374 -3.6136
  135MOL0     H18183   0.055   7.280   0.218  0.3013  0.0970 -0.4035
  135MOL0     H18184   0.162   7.221   0.345 -0.9761  0.6699  1.0207
  135MOL0     H18185   0.242   7.166  -0.132 -0.9947  0.6247  0.1958
  135MOL0     H18186   0.186   6.974  -0.345  1.9787  2.0683 -0.5898
  135MOL0     H18187   0.036   7.068  -0.380 -1.9980 -0.7951  1.2797
  135MOL0     H18188   0.186   7.150  -0.324 -0.9963  0.5478  4.1634
  135MOL0     H18189  -0.415   6.835  -0.123  1.2435  1.9240 -3.0285
  135MOL0     H18190  -0.616   6.722  -0.237 -0.6405 -0.6913 -1.8011
  135MOL0     H18191  -0.515   6.453  -0.601  0.1972 -0.1667 -0.3573
  135MOL0     H18192  -0.569   6.368  -0.463  3.4535  2.0931  0.2813
  135MOL0     H18193  -0.754   6.528  -0.658 -0.6554 -1.1376 -2.1830
  135MOL0     H18194  -0.711   6.370  -0.678 -1.5511  3.4384 -2.7350
  135MOL0     H18195  -0.856   6.473  -0.417 -4.5477 -1.4449  0.8209
  135MOL0     H18196  -0.814   6.301  -0.472 -2.1163 -0.9631 -2.2835
  135MOL0     H18197  -0.996   6.483  -0.616 -2.4371 -0.0487  1.2206
  135MOL0     H18198  -0.983   6.303  -0.627 -1.0345  0.3884 -1.1142
  135MOL0     H18199  -1.110   6.485  -0.409  1.3977 -1.1980  3.4858
  135MOL0     H18200  -1.047   6.340  -0.354  4.3299  2.6674 -0.3408
  135MOL0     H18201  -1.273   6.356  -0.566 -0.4499 -0.5119  0.5693
  135MOL0     H18202  -1.186   6.209  -0.520 -0.7891  0.2141 -1.3414
  135MOL0     H18203  -1.380   6.360  -0.352 -0.7092 -0.8611 -0.3278
  135MOL0     H18204  -1.247   6.272  -0.274  2.3498  1.0855 -1.4894
  135MOL0     H18205  -1.472   6.131  -0.301 -1.6843 -0.1686 -0.4491
  135MOL0     H18206  -1.338   6.077  -0.409  0.2739 -0.5317  1.8539
  135MOL0     H18207  -0.333   6.488  -0.464  0.5252  1.9940 -2.0285
  135MOL0     H18208  -0.154   6.562  -0.307 -0.9940  0.4413 -0.1660
  135MOL0     H18209  -0.125   6.903   0.067 -0.5909  0.2008  0.2583
  135MOL0     H18210   0.006   7.033   0.214 -0.2193  0.8836 -0.2421
  135MOL0     H18211   1.650   7.740   0.083 -0.9672 -1.7949  1.9487
  135MOL0     H18212   1.879   7.650   0.119  0.6121 -0.1914  0.3512
  135MOL0     H18213   2.355   7.801  -0.042  0.3423  0.7259  0.8707
  135MOL0     H18214   2.563   7.713  -0.028 -3.2440  0.4578 -2.6324
  135MOL0     H18215   2.722   7.525   0.383  0.8088  1.0696 -1.4658
  135MOL0     H18216   2.631   7.404   0.303 -2.0154  1.0166 -1.1829
  135MOL0     H18217   2.835   7.352   0.149 -0.5740 -2.2814  0.8980
  135MOL0     H18218   2.870   7.312   0.315  0.6710 -0.3388  1.1857
  135MOL0     H18219   2.961   7.568   0.333  1.7439 -0.2286  0.7671
  135MOL0     H18220   2.932   7.561   0.158  0.0713 -0.3244 -0.2261
  135MOL0     H18221   3.108   7.375   0.319 -2.3465 -0.4342 -0.0236
  135MOL0     H18222   3.161   7.524   0.235  1.4380 -1.1216 -0.3782
  135MOL0     H18223   3.169   7.234  -0.076  1.5771  0.2877  0.2348
  135MOL0     H18224   2.495   7.583   0.383  1.4384 -1.3678 -0.6579
  135MOL0     H18225   2.271   7.684   0.371 -2.0033 -1.1025 -1.1287
  136MOL0     O18226   3.125   8.525   2.942 -0.4548 -0.5370 -0.3755
  136MOL0     C18227   3.150   8.485   2.830 -0.5648  0.3571 -1.1797
  136MOL0     O18228   3.064   8.441   2.734  0.3452  0.1537 -0.2277
  136MOL0     C18229   2.931   8.446   2.761 -0.6309 -0.5190  0.0742
  136MOL0     C18230   2.865   8.567   2.792  0.0724  0.4616 -0.9795
  136MOL0     C18231   2.725   8.555   2.831 -0.1031  0.0559 -0.0696
  136MOL0     C18232   2.661   8.426   2.822 -0.4490  0.6480  0.7542
  136MOL0     O18233   2.526   8.404   2.842 -0.4621 -0.5775 -0.4756
  136MOL0     C18234   2.444   8.522   2.882 -0.2582 -0.2755  0.1325
  136MOL0     C18235   2.295   8.494   2.875 -0.7289  0.4624  0.1759
  136MOL0     C18236   2.244   8.459   2.736  0.2503  0.3510  0.2406
  136MOL0     C18237   2.107   8.526   2.707 -0.0680  0.2962 -1.0833
  136MOL0     C18238   1.987   8.458   2.784 -0.2497 -0.4386 -0.4211
  136MOL0     C18239   1.940   8.346   2.704 -0.2160  0.4377 -0.7114
  136MOL0     C18240   1.840   8.264   2.782  0.2069 -0.3011 -0.4965
  136MOL0     C18241   1.767   8.164   2.684  0.2789 -0.1837  0.3324
  136MOL0     N18242   1.673   8.071   2.764 -0.2169 -1.3864  0.0108
  136MOL0     C18243   1.557   8.020   2.720  0.4895  0.1970  1.3202
  136MOL0     C18244   1.507   7.952   2.828 -0.2552  0.0932 -0.5083
  136MOL0     C18245   1.370   7.879   2.822 -0.3935 -0.1299  0.2651
  136MOL0     C18246   1.269   7.949   2.906  0.3116 -0.0423 -0.0476
  136MOL0     C18247   1.273   7.885   3.047  0.1047 -0.6418 -0.3810
  136MOL0     C18248   1.244   7.990   3.160 -1.0855 -0.0668 -0.5400
  136MOL0     O18249   1.132   8.066   3.136  0.3354 -0.1619  0.6189
  136MOL0     C18250   1.012   8.008   3.153  0.1323  0.3177 -0.7051
  136MOL0     C18251   0.982   7.885   3.192 -0.7187  0.5204  1.3234
  136MOL0     C18252   0.852   7.837   3.213 -0.3265 -0.2860 -0.3139
  136MOL0     C18253   0.839   7.696   3.271  0.0809 -0.5461  0.6269
  136MOL0     C18254   0.740   7.921   3.198 -0.6868 -0.1655  0.0825
  136MOL0     C18255   0.598   7.883   3.247  0.2276  0.6615  0.5557
  136MOL0     O18256   0.550   7.754   3.261  0.0537  0.1217  0.5196
  136MOL0     C18257   0.429   7.721   3.323  0.1049 -0.4087 -0.0632
  136MOL0     C18258   0.354   7.621   3.268 -0.5379 -0.8027  0.8101
  136MOL0     C18259   0.229   7.587   3.316 -0.0242  0.7808 -0.2780
  136MOL0     C18260   0.169   7.655   3.424 -0.4467  0.9516 -0.1329
  136MOL0     O18261   0.041   7.617   3.451  0.0304  0.5749 -0.7634
  136MOL0     C18262  -0.013   7.649   3.581  0.1757 -0.0166  0.9222
  136MOL0     C18263  -0.167   7.636   3.565 -0.6731  0.8019  0.2383
  136MOL0     C18264  -0.224   7.498   3.513 -0.6315  0.1937 -0.2537
  136MOL0     C18265  -0.378   7.514   3.495 -0.8043 -0.4031  1.1814
  136MOL0     C18266  -0.420   7.415   3.390  0.1415  0.8346  0.2415
  136MOL0     C18267  -0.570   7.430   3.367  0.1135  0.1676  0.8269
  136MOL0     C18268  -0.615   7.332   3.261  0.2100  0.7944  0.7091
  136MOL0     C18269  -0.746   7.362   3.185  0.6852  0.2755 -0.0732
  136MOL0    Cl18270  -0.870   7.406   3.308 -0.2407  0.0199  0.2118
  136MOL0     C18271   0.251   7.749   3.490  0.6052 -0.2313  0.2602
  136MOL0     C18272   0.374   7.785   3.435  0.2017 -0.3330 -0.5414
  136MOL0     O18273   0.530   7.982   3.261 -0.4352 -0.0331  0.5321
  136MOL0     C18274   0.771   8.048   3.144  1.0078  0.0515 -0.2412
  136MOL0     C18275   0.906   8.098   3.130 -0.0058  1.1039  0.1952
  136MOL0     N18276   1.588   7.978   2.938 -0.0716 -0.3615  0.3839
  136MOL0     N18277   1.693   8.038   2.897 -0.0522 -0.2541  1.2540
  136MOL0     C18278   2.735   8.314   2.778 -0.1409  0.0012 -0.0289
  136MOL0     C18279   2.869   8.327   2.750  0.9222  0.1659 -0.2842
  136MOL0     C18280   3.300   8.481   2.788 -0.2969  0.0964 -0.8593
  136MOL0     C18281   3.404   8.527   2.869 -0.5330 -0.5884 -0.1696
  136MOL0     C18282   3.537   8.540   2.826  0.5214  0.4552 -0.2091
  136MOL0     C18283   3.571   8.496   2.701 -0.5231 -1.2282 -1.1630
  136MOL0     O18284   3.704   8.520   2.664  0.4161  0.3782 -0.2023
  136MOL0     C18285   3.747   8.445   2.548  0.8169  0.5861  0.0202
  136MOL0     C18286   3.903   8.444   2.527 -0.2013  0.2360  0.2496
  136MOL0     C18287   3.942   8.595   2.525  0.0992 -0.3448 -0.7908
  136MOL0     C18288   4.094   8.614   2.522  0.3498 -0.6884  0.4045
  136MOL0     C18289   4.162   8.593   2.646  0.2527  0.8815 -0.5811
  136MOL0     C18290   4.208   8.575   2.756  0.3534  0.3144  0.9658
  136MOL0     C18291   3.476   8.446   2.622  0.7248  0.5583 -0.6228
  136MOL0     C18292   3.341   8.443   2.659 -0.0129 -0.8584 -1.0303
  136MOL0     H18293   2.909   8.667   2.791 -1.2318  1.0748 -0.0828
  136MOL0     H18294   2.662   8.640   2.856 -0.6092 -0.0762 -0.8588
  136MOL0     H18295   2.478   8.545   2.983  2.5658 -0.2277 -0.7583
  136MOL0     H18296   2.468   8.599   2.808 -0.4855 -0.9410 -0.6495
  136MOL0     H18297   2.286   8.405   2.937  1.7813 -0.5111 -0.7140
  136MOL0     H18298   2.238   8.571   2.927  2.0021  2.1188  0.9085
  136MOL0     H18299   2.313   8.496   2.660  0.3940  1.1628  0.7597
  136MOL0     H18300   2.231   8.351   2.722  0.0142  0.4453 -0.3074
  136MOL0     H18301   2.114   8.632   2.733 -3.1846  0.0963  1.1726
  136MOL0     H18302   2.078   8.515   2.601 -2.4047  2.2214 -0.7532
  136MOL0     H18303   2.010   8.417   2.883 -2.0451  1.4299  0.8565
  136MOL0     H18304   1.903   8.527   2.795  0.6785  0.5613  0.5800
  136MOL0     H18305   1.894   8.383   2.612 -0.5302  3.2502  0.4847
  136MOL0     H18306   2.033   8.289   2.688 -0.6217 -1.0521  1.7768
  136MOL0     H18307   1.894   8.214   2.863 -0.0148 -1.3611 -0.9865
  136MOL0     H18308   1.760   8.318   2.834 -0.0740  1.1760 -2.3640
  136MOL0     H18309   1.845   8.105   2.636 -2.3074 -1.2897 -2.9651
  136MOL0     H18310   1.724   8.223   2.602  1.1583  0.4426  0.3100
  136MOL0     H18311   1.513   8.018   2.620  0.5052 -2.0723  1.3057
  136MOL0     H18312   1.339   7.886   2.717 -0.5863 -0.5387  0.2916
  136MOL0     H18313   1.375   7.770   2.833 -2.0218 -0.1757  0.8004
  136MOL0     H18314   1.168   7.945   2.863 -1.0960  1.0914  2.9021
  136MOL0     H18315   1.295   8.054   2.919 -0.0709  0.0314  0.1500
  136MOL0     H18316   1.370   7.839   3.067  1.2836  0.8692 -2.2024
  136MOL0     H18317   1.195   7.809   3.042  0.1440 -1.1287  3.4819
  136MOL0     H18318   1.335   8.049   3.167  0.1802 -1.9872  0.0731
  136MOL0     H18319   1.242   7.935   3.255 -0.4403  2.2599  0.8938
  136MOL0     H18320   1.062   7.817   3.221  0.7885  1.3364 -0.6880
  136MOL0     H18321   0.938   7.648   3.276  1.2263  1.5123 -0.5999
  136MOL0     H18322   0.795   7.692   3.371  1.0064 -1.5762  1.0221
  136MOL0     H18323   0.773   7.637   3.206  0.9815  1.3264 -2.2013
  136MOL0     H18324   0.401   7.586   3.176 -2.3692  3.1207 -1.8917
  136MOL0     H18325   0.171   7.515   3.260  1.0608  0.7644 -1.4337
  136MOL0     H18326   0.009   7.568   3.652 -0.5501  0.7782  2.0840
  136MOL0     H18327   0.017   7.746   3.621 -0.1876 -0.2903  1.8913
  136MOL0     H18328  -0.206   7.662   3.663  0.3607  1.2275  0.5600
  136MOL0     H18329  -0.195   7.714   3.493  0.2501  0.6279 -0.3364
  136MOL0     H18330  -0.190   7.426   3.588  0.8008  0.3633 -0.7056
  136MOL0     H18331  -0.172   7.470   3.421  2.5770  1.4267  1.0453
  136MOL0     H18332  -0.415   7.509   3.598 -2.1617  0.8665  0.7858
  136MOL0     H18333  -0.406   7.615   3.463 -0.3381 -0.2870  1.1308
  136MOL0     H18334  -0.399   7.313   3.424 -0.9001  0.5542  0.0708
  136MOL0     H18335  -0.363   7.435   3.299 -0.1948 -0.9659 -0.3972
  136MOL0     H18336  -0.638   7.419   3.452  0.8436  1.0187  1.5500
  136MOL0     H18337  -0.597   7.528   3.326  1.1468 -0.0086 -0.3414
  136MOL0     H18338  -0.641   7.241   3.316 -2.0254  1.2227  0.4680
  136MOL0     H18339  -0.537   7.302   3.190 -2.6903 -0.8714 -2.0569
  136MOL0     H18340  -0.785   7.272   3.137  2.4737 -0.1666 -0.7913
  136MOL0     H18341  -0.733   7.436   3.105 -1.0913  0.7621  0.0585
  136MOL0     H18342   0.217   7.807   3.575  0.1222  2.3767 -1.6063
  136MOL0     H18343   0.432   7.859   3.489 -1.5747  1.4409 -0.9547
  136MOL0     H18344   0.703   8.131   3.128  1.5605  0.7463  0.9061
  136MOL0     H18345   0.926   8.203   3.113  0.5586  1.0929  0.7719
  136MOL0     H18346   2.689   8.216   2.778 -3.1593  1.2622 -2.2267
  136MOL0     H18347   2.927   8.239   2.721  0.1240  0.1943 -2.0960
  136MOL0     H18348   3.387   8.574   2.965 -0.6646 -0.4998 -0.2337
  136MOL0     H18349   3.605   8.584   2.898 -1.4883  0.2466  1.9532
  136MOL0     H18350   3.711   8.342   2.558  1.9496  0.2249  0.5993
  136MOL0     H18351   3.696   8.480   2.458  2.6598 -1.4420 -1.9310
  136MOL0     H18352   3.937   8.402   2.432  2.1372 -1.5275  1.7483
  136MOL0     H18353   3.948   8.393   2.613  3.0186  0.9994 -0.8193
  136MOL0     H18354   3.910   8.649   2.615  2.3394 -2.3896  1.3659
  136MOL0     H18355   3.906   8.643   2.433  2.5317 -1.5129 -2.4705
  136MOL0     H18356   4.096   8.716   2.485 -0.5238 -0.6705  0.3858
  136MOL0     H18357   4.137   8.550   2.445  0.6170 -0.1046  0.0695
  136MOL0     H18358   4.244   8.579   2.857 -2.2198 -0.5364  2.0303
  136MOL0     H18359   3.500   8.405   2.524 -0.9273 -1.3551 -0.3022
  136MOL0     H18360   3.267   8.408   2.588  0.6342 -1.9104 -1.2009
  137MOL0     O18361   2.799   2.631   9.372  0.1001 -0.5269 -0.4057
  137MOL0     C18362   2.727   2.704   9.443  0.1943  0.1327 -0.8094
  137MOL0     O18363   2.589   2.686   9.467 -0.6612  0.3171  0.1162
  137MOL0     C18364   2.501   2.624   9.386  0.0091  0.4391 -0.1675
  137MOL0     C18365   2.529   2.554   9.271  0.3326 -0.4513  0.1172
  137MOL0     C18366   2.428   2.485   9.206  0.3642  0.0783  0.6454
  137MOL0     C18367   2.301   2.509   9.239  0.4699 -0.2967  0.6140
  137MOL0     O18368   2.211   2.437   9.171 -0.1789  0.4533 -0.4467
  137MOL0     C18369   2.071   2.474   9.169 -0.1202 -0.3250 -0.3561
  137MOL0     C18370   1.996   2.406   9.054 -0.1365 -1.0284  0.1726
  137MOL0     C18371   1.846   2.410   9.058 -0.1782 -0.0816 -0.3180
  137MOL0     C18372   1.783   2.371   8.927 -0.1675 -0.3513  0.1184
  137MOL0     C18373   1.638   2.365   8.941  0.2424  0.2097 -0.5134
  137MOL0     C18374   1.555   2.354   8.816  0.1728 -0.6499  0.9198
  137MOL0     C18375   1.566   2.481   8.726  0.1596 -0.7742 -0.5345
  137MOL0     C18376   1.438   2.499   8.636  0.1160 -0.4606 -0.4489
  137MOL0     N18377   1.426   2.383   8.541  0.8965  0.6437 -0.9713
  137MOL0     C18378   1.381   2.252   8.574 -0.3976 -0.1727 -0.0810
  137MOL0     C18379   1.386   2.187   8.454  0.7824  0.4928 -1.2703
  137MOL0     C18380   1.356   2.044   8.426  0.0849  0.4241 -0.3869
  137MOL0     C18381   1.245   1.985   8.508 -0.0352 -1.0769 -0.1480
  137MOL0     C18382   1.228   1.835   8.454  0.0893 -1.3134  0.1996
  137MOL0     C18383   1.081   1.794   8.477 -0.0228 -0.5739  0.4403
  137MOL0     O18384   0.974   1.874   8.408 -0.1363  0.1204  0.3062
  137MOL0     C18385   0.841   1.835   8.403  0.1747  0.0273  0.4475
  137MOL0     C18386   0.752   1.928   8.370  0.0527  0.5819 -0.1476
  137MOL0     C18387   0.619   1.899   8.345  0.5549 -0.0596  0.8234
  137MOL0     C18388   0.529   2.014   8.297 -0.0260  0.1978 -1.0830
  137MOL0     C18389   0.570   1.766   8.353  0.1461 -0.9040 -0.8058
  137MOL0     C18390   0.437   1.704   8.338  0.6312 -1.0302 -0.7767
  137MOL0     O18391   0.417   1.570   8.348  0.6035  0.4080  0.3382
  137MOL0     C18392   0.299   1.511   8.304 -0.7612 -0.1733  0.3052
  137MOL0     C18393   0.189   1.576   8.239 -0.2564  0.2595  0.5946
  137MOL0     C18394   0.064   1.517   8.227 -0.6503 -0.1663 -0.2839
  137MOL0     C18395   0.043   1.386   8.275  0.0049  0.0701 -0.3317
  137MOL0     O18396  -0.075   1.315   8.278  0.3250  0.2223 -0.3818
  137MOL0     C18397  -0.175   1.346   8.186  1.0395 -1.0529  0.1846
  137MOL0     C18398  -0.291   1.441   8.231  0.2362  0.0663 -0.6778
  137MOL0     C18399  -0.396   1.377   8.336 -0.3610 -0.1067 -0.3250
  137MOL0     C18400  -0.531   1.442   8.317  0.2238  0.1004 -0.8368
  137MOL0     C18401  -0.630   1.419   8.425 -0.5763 -0.0110  0.3320
  137MOL0     C18402  -0.689   1.281   8.412  0.0645  0.6296  0.2641
  137MOL0     C18403  -0.779   1.262   8.536  0.3544  0.0328 -1.0678
  137MOL0     C18404  -0.827   1.114   8.531  0.3081  0.2176  0.7588
  137MOL0    Cl18405  -0.698   0.997   8.527 -0.7791 -0.1111 -0.0556
  137MOL0     C18406   0.155   1.322   8.328 -0.0072 -0.2525  0.4093
  137MOL0     C18407   0.287   1.373   8.339 -0.4264 -0.0240  0.2151
  137MOL0     O18408   0.349   1.790   8.335  0.5304  0.6208  0.4410
  137MOL0     C18409   0.671   1.668   8.372  0.0728  0.5487  0.6114
  137MOL0     C18410   0.801   1.700   8.394 -0.2290  0.7011 -0.6380
  137MOL0     N18411   1.451   2.270   8.361 -0.1797  0.3051  0.0331
  137MOL0     N18412   1.456   2.388   8.407  0.0761 -0.9098  0.3690
  137MOL0     C18413   2.269   2.595   9.340  0.1982  0.0347 -0.4430
  137MOL0     C18414   2.369   2.641   9.423 -0.9225 -0.3116 -0.8070
  137MOL0     C18415   2.797   2.814   9.509  0.2290  0.5200 -0.0425
  137MOL0     C18416   2.732   2.907   9.583  0.5385 -0.0876  0.0370
  137MOL0     C18417   2.800   2.997   9.668 -0.2498  0.7005  0.3662
  137MOL0     C18418   2.942   2.984   9.679  0.6161  1.3279 -0.6007
  137MOL0     O18419   3.015   3.046   9.771 -0.2533 -0.7182  0.0784
  137MOL0     C18420   2.963   3.079   9.904  0.7879  0.3612 -0.0422
  137MOL0     C18421   3.076   3.107   9.998 -0.9643  0.5972 -0.2095
  137MOL0     C18422   3.158   2.987  10.026  0.2293  0.1861 -0.1216
  137MOL0     C18423   3.263   3.007  10.133 -0.3153  0.4583  0.1672
  137MOL0     C18424   3.357   3.108  10.098 -0.8893  0.1256  0.0597
  137MOL0     C18425   3.420   3.204  10.060  0.2532 -0.3885 -0.8006
  137MOL0     C18426   3.012   2.901   9.592  0.9797 -0.2626  0.2003
  137MOL0     C18427   2.938   2.818   9.503  0.4257  0.2402  0.7839
  137MOL0     H18428   2.629   2.544   9.231  0.9900 -3.4245  2.1627
  137MOL0     H18429   2.455   2.406   9.136  0.3745 -0.8617  1.6726
  137MOL0     H18430   2.016   2.445   9.260  0.6434  0.5671  0.4125
  137MOL0     H18431   2.054   2.581   9.157  1.3948  0.1114  1.0444
  137MOL0     H18432   2.031   2.449   8.960 -1.2725  0.7173  0.5034
  137MOL0     H18433   2.033   2.303   9.051 -0.2917 -1.0784 -0.0184
  137MOL0     H18434   1.816   2.334   9.130 -1.2155  0.9085  0.3248
  137MOL0     H18435   1.808   2.505   9.097  1.5086  0.8718 -0.8846
  137MOL0     H18436   1.813   2.450   8.857  1.4086 -0.5593  0.5215
  137MOL0     H18437   1.822   2.275   8.891  2.8421  0.1851  1.6401
  137MOL0     H18438   1.609   2.282   9.005 -0.0039 -2.5322 -3.8609
  137MOL0     H18439   1.597   2.457   8.982  0.4700  0.0934 -0.0181
  137MOL0     H18440   1.583   2.262   8.764 -1.4001  0.1024 -1.3983
  137MOL0     H18441   1.448   2.345   8.836 -1.2918  5.0632 -2.2918
  137MOL0     H18442   1.574   2.564   8.797 -0.5421 -1.1276 -0.0314
  137MOL0     H18443   1.654   2.483   8.661 -0.3508  1.1212 -1.2433
  137MOL0     H18444   1.454   2.586   8.571 -1.0556  1.3539  1.5598
  137MOL0     H18445   1.348   2.516   8.696 -1.3939  3.2858 -3.3577
  137MOL0     H18446   1.342   2.211   8.666  1.8158 -0.4550  0.7926
  137MOL0     H18447   1.330   2.040   8.320  0.6233 -0.6890 -0.4924
  137MOL0     H18448   1.450   1.989   8.435  0.2275  0.7848  0.4512
  137MOL0     H18449   1.163   2.056   8.500  0.0208 -0.7108  1.9366
  137MOL0     H18450   1.274   1.980   8.613  0.0718  3.8038  0.2672
  137MOL0     H18451   1.297   1.774   8.512  0.1989 -1.1273  0.2669
  137MOL0     H18452   1.249   1.828   8.347  3.0521  1.2571  0.4557
  137MOL0     H18453   1.051   1.793   8.582  1.7373  0.0647  0.9946
  137MOL0     H18454   1.076   1.693   8.434  1.5047  0.3391 -2.0436
  137MOL0     H18455   0.777   2.033   8.358  0.5837  0.5589  0.6994
  137MOL0     H18456   0.582   2.108   8.280 -1.0199  1.0363  0.2152
  137MOL0     H18457   0.479   1.995   8.201  1.3509  0.9908 -1.9934
  137MOL0     H18458   0.447   2.050   8.359  0.3523  3.0322 -2.0757
  137MOL0     H18459   0.205   1.676   8.199  1.2699 -0.9691 -2.2464
  137MOL0     H18460  -0.018   1.575   8.185  0.3571  0.7309 -1.0579
  137MOL0     H18461  -0.135   1.405   8.103 -0.7219  0.7636  0.5607
  137MOL0     H18462  -0.212   1.254   8.140  3.0824 -0.9343 -1.8910
  137MOL0     H18463  -0.256   1.535   8.273 -0.2621 -0.1422  0.2130
  137MOL0     H18464  -0.337   1.459   8.134  0.6072  1.3528 -0.6259
  137MOL0     H18465  -0.356   1.388   8.438  1.8946 -0.9900 -1.0303
  137MOL0     H18466  -0.404   1.269   8.320 -2.0097 -0.2604  1.2339
  137MOL0     H18467  -0.516   1.551   8.319 -1.4218  0.3604  1.7372
  137MOL0     H18468  -0.570   1.410   8.220 -0.2434 -2.2298  0.0623
  137MOL0     H18469  -0.710   1.491   8.404  0.8469  1.6558  0.4170
  137MOL0     H18470  -0.582   1.443   8.520  1.8432 -3.5302  0.1599
  137MOL0     H18471  -0.749   1.267   8.322 -0.6294 -0.8307  0.9139
  137MOL0     H18472  -0.606   1.209   8.412  1.0950  1.7484 -1.6840
  137MOL0     H18473  -0.857   1.337   8.548  1.0277  0.8073 -1.4279
  137MOL0     H18474  -0.716   1.266   8.625  3.6588  1.9622 -3.2661
  137MOL0     H18475  -0.888   1.097   8.442  0.1575 -0.3258  0.9597
  137MOL0     H18476  -0.879   1.099   8.626  1.3780  1.4258  1.5695
  137MOL0     H18477   0.127   1.224   8.366 -3.4383  0.6055  0.4312
  137MOL0     H18478   0.372   1.327   8.386  1.0618  2.2841 -0.0391
  137MOL0     H18479   0.650   1.562   8.383  0.0140  0.7569  3.4578
  137MOL0     H18480   0.879   1.625   8.401 -0.5448  0.4127 -0.0986
  137MOL0     H18481   2.164   2.613   9.361  0.3599 -0.0585  0.5022
  137MOL0     H18482   2.338   2.715   9.497 -0.9923  1.3491 -2.4024
  137MOL0     H18483   2.625   2.899   9.590  0.6724 -3.4411 -0.2134
  137MOL0     H18484   2.735   3.061   9.726  0.5570 -0.6420  2.9533
  137MOL0     H18485   2.898   3.166   9.912  1.2034  0.7392 -0.7083
  137MOL0     H18486   2.903   2.999   9.948  2.3991 -1.2182 -0.5957
  137MOL0     H18487   3.041   3.150  10.093  3.4297  0.9995  1.4590
  137MOL0     H18488   3.137   3.184   9.951 -0.1181  1.0191  1.4932
  137MOL0     H18489   3.210   2.955   9.935 -2.2171  1.1335 -1.9543
  137MOL0     H18490   3.085   2.907  10.046 -0.6221  0.6153 -1.3563
  137MOL0     H18491   3.315   2.912  10.150  1.4341  1.0784 -1.3889
  137MOL0     H18492   3.219   3.040  10.228 -0.4786 -0.7621  0.5426
  137MOL0     H18493   3.456   3.298  10.022 -2.7261  0.5935 -1.4838
  137MOL0     H18494   3.120   2.897   9.588  1.0102  0.6188 -0.0855
  137MOL0     H18495   2.984   2.756   9.427 -1.3879 -1.3993  0.9448
  138MOL0     O18496   6.834   0.248   3.975 -0.2747 -0.6765  0.2932
  138MOL0     C18497   6.907   0.242   4.076 -0.2613  0.4483 -0.0989
  138MOL0     O18498   6.875   0.252   4.209  0.2348 -0.4111 -0.2838
  138MOL0     C18499   6.748   0.277   4.258 -1.0571 -0.3834  0.0177
  138MOL0     C18500   6.737   0.343   4.378  0.0607 -0.0945  0.2201
  138MOL0     C18501   6.615   0.377   4.437 -0.7141  0.3964 -0.8325
  138MOL0     C18502   6.496   0.321   4.392 -1.2054 -1.0882 -0.5118
  138MOL0     O18503   6.380   0.349   4.452 -0.0658 -0.2016 -0.3259
  138MOL0     C18504   6.379   0.367   4.590 -0.5561 -0.3634 -0.5258
  138MOL0     C18505   6.262   0.309   4.671  0.4241 -0.4627  0.6051
  138MOL0     C18506   6.123   0.360   4.617  0.0459 -0.1619 -0.3171
  138MOL0     C18507   6.010   0.268   4.666  0.5859  0.3839 -0.3521
  138MOL0     C18508   6.001   0.274   4.819 -0.0984 -1.4550  0.3465
  138MOL0     C18509   5.997   0.419   4.880  0.1319 -0.2983 -0.5237
  138MOL0     C18510   5.964   0.439   5.028 -0.0955  0.1950  0.0790
  138MOL0     C18511   5.815   0.386   5.057 -0.5871  0.5498 -0.2326
  138MOL0     N18512   5.721   0.418   4.953  0.1509 -0.2931  0.2997
  138MOL0     C18513   5.676   0.544   4.913 -0.5217  0.0313 -0.1092
  138MOL0     C18514   5.580   0.520   4.829 -0.7232  0.4315  0.5934
  138MOL0     C18515   5.504   0.619   4.745 -0.3352  0.7178  0.1511
  138MOL0     C18516   5.393   0.681   4.834  0.3591  0.8402  0.0541
  138MOL0     C18517   5.300   0.759   4.748  0.2405  0.1437  0.3013
  138MOL0     C18518   5.211   0.841   4.842  0.0338  0.0048 -0.4371
  138MOL0     O18519   5.134   0.748   4.924  0.5707  0.5946 -0.3636
  138MOL0     C18520   5.006   0.779   4.950  0.0229 -0.2406  0.4593
  138MOL0     C18521   4.905   0.739   4.865 -0.3194  0.6841  0.4758
  138MOL0     C18522   4.771   0.736   4.903  0.3465  0.0121 -0.3002
  138MOL0     C18523   4.675   0.679   4.804  0.4533 -0.1218  0.2869
  138MOL0     C18524   4.731   0.791   5.029  0.8310  0.5333  0.0112
  138MOL0     C18525   4.585   0.789   5.071 -0.2895 -1.0983 -0.7036
  138MOL0     O18526   4.484   0.761   4.978  0.0590 -0.6403 -0.3114
  138MOL0     C18527   4.359   0.812   5.019  0.2041 -0.0416  0.3354
  138MOL0     C18528   4.254   0.725   5.024  0.1139  0.4562 -0.1056
  138MOL0     C18529   4.121   0.762   5.036 -0.0877  0.1420 -1.6027
  138MOL0     C18530   4.089   0.898   5.048 -0.6022 -0.1363  0.5032
  138MOL0     O18531   3.960   0.932   5.072  0.3370  0.2969 -0.3094
  138MOL0     C18532   3.874   0.917   4.950  0.0541 -0.2125  0.2077
  138MOL0     C18533   3.758   1.022   4.948  1.2551 -0.1775 -0.3764
  138MOL0     C18534   3.645   0.995   5.054  0.9610 -0.4967  0.2165
  138MOL0     C18535   3.504   1.046   5.014  0.0612  0.3226 -0.0514
  138MOL0     C18536   3.409   0.955   4.935  0.2136 -0.8659 -0.2523
  138MOL0     C18537   3.278   1.016   4.909 -0.7940 -0.2384  0.4854
  138MOL0     C18538   3.175   0.905   4.875 -0.6563 -0.6342  0.1110
  138MOL0     C18539   3.045   0.964   4.819 -0.2358  0.4017 -0.6439
  138MOL0    Cl18540   2.953   1.015   4.963 -0.2476  0.1970  0.0143
  138MOL0     C18541   4.202   0.985   5.071  1.0107 -0.2420  0.1131
  138MOL0     C18542   4.334   0.949   5.051  0.1703 -0.1965  0.1983
  138MOL0     O18543   4.567   0.809   5.191  0.2872 -0.0050 -0.1469
  138MOL0     C18544   4.836   0.841   5.111  0.1208 -0.0793 -0.0310
  138MOL0     C18545   4.975   0.830   5.075 -0.6442  0.2046  0.0046
  138MOL0     N18546   5.556   0.391   4.813 -0.2011  0.3429  0.5708
  138MOL0     N18547   5.641   0.327   4.891 -0.2674 -0.2309 -0.3563
  138MOL0     C18548   6.502   0.251   4.273  0.0129  0.4133 -0.3364
  138MOL0     C18549   6.629   0.229   4.205  0.6066 -0.0947  0.4515
  138MOL0     C18550   7.055   0.240   4.053  0.0476  0.1257  0.3160
  138MOL0     C18551   7.107   0.176   3.937  0.0843  1.0047 -0.0442
  138MOL0     C18552   7.248   0.195   3.902 -0.7826  0.3685 -0.6436
  138MOL0     C18553   7.331   0.281   3.972  0.1802 -0.1719  0.4170
  138MOL0     O18554   7.465   0.323   3.949 -0.0190  0.4082  0.0948
  138MOL0     C18555   7.532   0.250   3.845 -1.0195 -0.4888 -0.3559
  138MOL0     C18556   7.686   0.278   3.856  0.6487  0.0138 -0.0168
  138MOL0     C18557   7.773   0.238   3.734 -0.1014 -0.0959 -0.1534
  138MOL0     C18558   7.742   0.318   3.612  0.1693 -0.1723 -0.7509
  138MOL0     C18559   7.787   0.457   3.622  0.3125 -0.7718  0.2476
  138MOL0     C18560   7.830   0.570   3.629 -0.4106  0.2462  0.7184
  138MOL0     C18561   7.277   0.345   4.082  0.0755  0.2973 -0.7082
  138MOL0     C18562   7.145   0.325   4.129 -0.7947  0.6463 -0.3306
  138MOL0     H18563   6.828   0.385   4.420  0.8078 -2.8755  1.6836
  138MOL0     H18564   6.610   0.456   4.511  1.0388  1.8204 -2.1360
  138MOL0     H18565   6.471   0.334   4.639  1.8143  2.9315 -2.4110
  138MOL0     H18566   6.389   0.475   4.599  1.7963 -0.4452 -1.5271
  138MOL0     H18567   6.262   0.201   4.652 -1.5912 -0.0951 -1.8483
  138MOL0     H18568   6.266   0.337   4.777 -3.0677  0.2084  0.6486
  138MOL0     H18569   6.106   0.465   4.641 -1.2543 -0.5782  0.6785
  138MOL0     H18570   6.129   0.362   4.508  0.9270 -1.1675 -0.3021
  138MOL0     H18571   5.911   0.296   4.631  0.0897 -1.0543 -0.1677
  138MOL0     H18572   6.032   0.165   4.635  1.8141  0.0921  1.3353
  138MOL0     H18573   5.907   0.222   4.838 -0.5327 -1.4806 -1.6027
  138MOL0     H18574   6.078   0.213   4.865  0.7228 -1.9078 -1.5130
  138MOL0     H18575   6.099   0.457   4.878  0.6846 -1.7566 -1.6835
  138MOL0     H18576   5.947   0.494   4.819 -4.1889 -2.0421  0.5211
  138MOL0     H18577   6.039   0.381   5.082  1.9570  2.3336 -0.3199
  138MOL0     H18578   5.978   0.545   5.050  0.1851 -0.4445  3.5644
  138MOL0     H18579   5.782   0.416   5.156 -0.8242 -0.6746  0.0831
  138MOL0     H18580   5.830   0.278   5.068 -0.2920  0.8767  3.7350
  138MOL0     H18581   5.701   0.649   4.925 -0.5455 -0.0353  0.5794
  138MOL0     H18582   5.575   0.687   4.698 -0.8877  0.2777 -1.3819
  138MOL0     H18583   5.446   0.566   4.669  1.0799 -0.2734 -0.2965
  138MOL0     H18584   5.453   0.746   4.899  1.5380  0.9133 -1.0726
  138MOL0     H18585   5.344   0.601   4.889 -0.0520 -0.1055 -1.6330
  138MOL0     H18586   5.243   0.698   4.677  1.4491  0.6994 -1.1795
  138MOL0     H18587   5.354   0.830   4.685 -1.8895  1.7128  0.1224
  138MOL0     H18588   5.146   0.905   4.781  0.1733 -1.3762 -2.1121
  138MOL0     H18589   5.263   0.913   4.907 -0.3315 -1.9388  2.1624
  138MOL0     H18590   4.938   0.701   4.769  1.6325  0.4689  1.1830
  138MOL0     H18591   4.602   0.615   4.854 -1.2842  0.6357 -1.1700
  138MOL0     H18592   4.616   0.764   4.769 -2.5337 -2.4016 -0.6256
  138MOL0     H18593   4.719   0.635   4.714 -1.2704  2.0211 -1.7360
  138MOL0     H18594   4.277   0.622   5.002  4.7754  0.9332  1.5431
  138MOL0     H18595   4.048   0.682   5.029 -2.4501  2.1505 -1.6901
  138MOL0     H18596   3.940   0.938   4.865 -0.0330 -0.4294  0.0865
  138MOL0     H18597   3.837   0.814   4.941  1.9160 -0.8446 -1.0042
  138MOL0     H18598   3.791   1.126   4.948  1.3478 -0.1764 -2.2198
  138MOL0     H18599   3.703   1.022   4.854 -0.1919  1.7722  0.4045
  138MOL0     H18600   3.669   1.052   5.145 -1.3702  1.1115 -0.0682
  138MOL0     H18601   3.631   0.890   5.082 -1.6568 -0.6584 -1.3529
  138MOL0     H18602   3.447   1.070   5.103 -1.6801  1.8446 -1.5016
  138MOL0     H18603   3.509   1.143   4.963 -1.3814 -0.3730 -1.5839
  138MOL0     H18604   3.387   0.869   5.000 -1.0030 -0.4584 -0.0920
  138MOL0     H18605   3.464   0.926   4.845  2.2858  1.8090  0.0200
  138MOL0     H18606   3.243   1.082   4.989 -0.8661  0.5328 -0.1719
  138MOL0     H18607   3.299   1.077   4.821  0.2278 -0.3025  0.6672
  138MOL0     H18608   3.155   0.853   4.969 -1.0309  0.8651  0.8873
  138MOL0     H18609   3.212   0.828   4.806  1.2656  1.0088 -0.7917
  138MOL0     H18610   2.999   0.882   4.763 -1.8304  1.2861 -0.6896
  138MOL0     H18611   3.054   1.043   4.744 -1.7857  0.4897 -0.7686
  138MOL0     H18612   4.170   1.086   5.095 -0.1845 -0.4511 -0.5358
  138MOL0     H18613   4.410   1.026   5.048 -0.9683  1.1701  2.9070
  138MOL0     H18614   4.818   0.881   5.211  2.0153 -2.6472  1.4604
  138MOL0     H18615   5.051   0.867   5.143 -0.0274  1.0526 -1.1268
  138MOL0     H18616   6.403   0.221   4.243 -0.2120  0.5576  0.2482
  138MOL0     H18617   6.631   0.173   4.111 -1.5877  0.1969  0.1858
  138MOL0     H18618   7.052   0.112   3.868  0.6755  0.8967 -0.4221
  138MOL0     H18619   7.280   0.147   3.810  4.2085 -0.4161  1.1969
  138MOL0     H18620   7.517   0.142   3.841  0.1156 -0.7614  1.3319
  138MOL0     H18621   7.499   0.289   3.748  0.0982  1.7862  0.1054
  138MOL0     H18622   7.717   0.215   3.940 -1.0298 -1.3426 -0.3745
  138MOL0     H18623   7.721   0.379   3.880  2.2576 -0.5982  0.3630
  138MOL0     H18624   7.757   0.133   3.711  1.3573 -0.6549  1.2385
  138MOL0     H18625   7.881   0.250   3.746  0.0423 -1.0310 -0.4201
  138MOL0     H18626   7.635   0.308   3.592 -0.1435  0.6358  0.4335
  138MOL0     H18627   7.804   0.276   3.532 -1.8978 -1.9591 -1.5113
  138MOL0     H18628   7.871   0.668   3.632 -2.9548  1.3938  0.8006
  138MOL0     H18629   7.342   0.395   4.153 -0.2001 -0.3273 -0.0070
  138MOL0     H18630   7.110   0.381   4.215  1.2414 -0.6739  1.4402
  139MOL0     O18631   8.948   7.897   6.590 -0.6990  0.6477  0.2026
  139MOL0     C18632   8.951   7.872   6.468  0.5108 -0.6568 -0.0060
  139MOL0     O18633   8.846   7.845   6.389  0.3483  0.0008 -0.6586
  139MOL0     C18634   8.716   7.845   6.446  0.7224  0.2996 -0.6779
  139MOL0     C18635   8.628   7.741   6.413  0.0299 -0.5665 -0.3852
  139MOL0     C18636   8.502   7.744   6.481  0.6497  0.4177 -0.1643
  139MOL0     C18637   8.460   7.852   6.553 -0.8761  0.1083 -0.1576
  139MOL0     O18638   8.330   7.845   6.590 -0.3502  0.1395  0.7095
  139MOL0     C18639   8.249   7.964   6.584 -0.4769 -1.0301  0.7003
  139MOL0     C18640   8.103   7.938   6.595  0.2923  0.0983  0.0605
  139MOL0     C18641   8.023   8.076   6.606  0.1291  0.4365  0.5235
  139MOL0     C18642   7.878   8.070   6.645 -0.4792  0.0524  0.7801
  139MOL0     C18643   7.809   8.195   6.626  0.3330  0.2267  0.3555
  139MOL0     C18644   7.681   8.186   6.704 -0.3199 -0.7599 -0.6347
  139MOL0     C18645   7.600   8.313   6.706  0.1950  0.5291  0.5271
  139MOL0     C18646   7.467   8.297   6.772  0.0368  0.3567 -0.9809
  139MOL0     N18647   7.369   8.401   6.739 -0.4181  0.4311  0.3160
  139MOL0     C18648   7.337   8.505   6.829  0.1367 -0.5064 -0.6406
  139MOL0     C18649   7.227   8.552   6.769 -0.2905 -0.2353  0.4015
  139MOL0     C18650   7.149   8.674   6.801 -0.7127  0.2240  0.0897
  139MOL0     C18651   7.222   8.799   6.740  0.1742  0.3954 -0.1752
  139MOL0     C18652   7.143   8.924   6.776 -0.3507 -0.3838  1.1390
  139MOL0     C18653   7.157   8.974   6.919 -0.4320  0.4744 -0.0351
  139MOL0     O18654   7.037   8.995   6.984 -0.1602 -0.3656  0.5948
  139MOL0     C18655   7.044   9.034   7.114 -0.7387  0.5425 -1.1928
  139MOL0     C18656   7.148   9.060   7.197 -0.1339 -0.2915  0.0770
  139MOL0     C18657   7.141   9.074   7.333  0.5854  0.3598  0.2922
  139MOL0     C18658   7.264   9.109   7.406  0.3813  0.6826  0.1804
  139MOL0     C18659   7.013   9.075   7.393 -0.3701 -0.3676  0.4687
  139MOL0     C18660   6.975   9.098   7.531 -0.3983  0.3862  0.0864
  139MOL0     O18661   6.847   9.138   7.552 -0.2356 -0.3971  0.4000
  139MOL0     C18662   6.803   9.187   7.675 -0.0516  0.6365  0.4883
  139MOL0     C18663   6.676   9.151   7.719  0.6649  0.7648  0.4275
  139MOL0     C18664   6.617   9.180   7.842 -0.0844 -0.4776 -0.3062
  139MOL0     C18665   6.694   9.257   7.929  0.8943 -0.7573 -0.4751
  139MOL0     O18666   6.638   9.317   8.036  0.1141  0.3325  0.7363
  139MOL0     C18667   6.563   9.223   8.121  0.6863 -0.0342  1.1070
  139MOL0     C18668   6.663   9.191   8.234 -1.0171  0.5651 -0.7228
  139MOL0     C18669   6.634   9.046   8.280 -0.3180  0.6457 -0.0658
  139MOL0     C18670   6.710   9.014   8.408  0.2666  0.2164 -0.3445
  139MOL0     C18671   6.665   8.875   8.458  0.0270  0.0012 -0.0506
  139MOL0     C18672   6.721   8.828   8.583  0.4596 -0.0764  0.3916
  139MOL0     C18673   6.645   8.704   8.649 -0.1377 -0.1025  0.3737
  139MOL0     C18674   6.710   8.662   8.782 -0.0678 -0.2786  0.2765
  139MOL0    Cl18675   6.827   8.543   8.753  0.6362 -0.1585 -0.2941
  139MOL0     C18676   6.829   9.300   7.894  1.7733 -0.0454  0.3477
  139MOL0     C18677   6.879   9.262   7.764  0.1758 -0.3167 -0.0758
  139MOL0     O18678   7.065   9.079   7.612 -0.1272 -0.7791 -0.6108
  139MOL0     C18679   6.900   9.061   7.308 -0.7342  0.2765  0.4123
  139MOL0     C18680   6.913   9.039   7.171 -0.2579  0.0740  0.2574
  139MOL0     N18681   7.201   8.473   6.648  0.1982  0.2630 -0.0127
  139MOL0     N18682   7.287   8.389   6.630 -0.6753 -0.7363  0.1622
  139MOL0     C18683   8.549   7.960   6.572 -0.1562  0.4707  0.3396
  139MOL0     C18684   8.677   7.950   6.528  0.0611  0.6304  0.2265
  139MOL0     C18685   9.082   7.878   6.400 -0.1196 -0.2678  0.2680
  139MOL0     C18686   9.115   7.789   6.300 -0.3934  0.4253  0.1947
  139MOL0     C18687   9.235   7.806   6.226  0.0520 -0.7503  0.4551
  139MOL0     C18688   9.327   7.909   6.257  0.1969 -0.3201  0.1544
  139MOL0     O18689   9.455   7.931   6.214  0.0026 -0.1598  0.6918
  139MOL0     C18690   9.480   7.860   6.094 -0.0392 -1.3391  0.3624
  139MOL0     C18691   9.607   7.925   6.045  0.0320 -0.9982  0.6838
  139MOL0     C18692   9.661   7.858   5.925  0.5818 -0.0991  0.0883
  139MOL0     C18693   9.800   7.921   5.894 -0.2939 -0.0131 -0.4595
  139MOL0     C18694   9.867   7.872   5.770 -0.2498 -0.6438 -0.7162
  139MOL0     C18695   9.907   7.841   5.664 -0.3915 -0.1913 -0.3889
  139MOL0     C18696   9.291   7.996   6.354 -0.2789  0.4107  0.1593
  139MOL0     C18697   9.171   7.983   6.420  0.2502  0.0553  0.0587
  139MOL0     H18698   8.653   7.657   6.348 -0.0238 -0.2043 -0.8845
  139MOL0     H18699   8.429   7.664   6.471 -0.5431  0.9595  3.0672
  139MOL0     H18700   8.262   8.036   6.666 -3.6382  0.8202 -0.2411
  139MOL0     H18701   8.272   8.011   6.488  1.6949 -1.3196  1.0145
  139MOL0     H18702   8.063   7.870   6.519  1.6567 -2.3091  1.3538
  139MOL0     H18703   8.083   7.902   6.696 -1.9487  3.1417  0.8237
  139MOL0     H18704   8.075   8.136   6.681  0.7059  0.9910 -0.2933
  139MOL0     H18705   8.018   8.128   6.509 -2.7762  0.3254  0.5219
  139MOL0     H18706   7.831   7.993   6.584  0.1482  0.4222 -0.1928
  139MOL0     H18707   7.877   8.038   6.750  0.6416  0.7109  1.0064
  139MOL0     H18708   7.880   8.259   6.678 -0.5131 -0.5314  2.5658
  139MOL0     H18709   7.792   8.212   6.519  1.5956 -2.3972 -0.3441
  139MOL0     H18710   7.622   8.100   6.670 -0.8797 -0.8158  0.4397
  139MOL0     H18711   7.714   8.169   6.807  1.3666  1.6285 -0.7037
  139MOL0     H18712   7.657   8.384   6.767  2.5130 -1.5891  1.0211
  139MOL0     H18713   7.595   8.353   6.604 -1.5356 -0.6114  0.1194
  139MOL0     H18714   7.497   8.300   6.877  2.8567 -1.8797 -1.5926
  139MOL0     H18715   7.417   8.202   6.752  0.0917 -0.9316  3.7961
  139MOL0     H18716   7.378   8.532   6.926  0.5155 -0.6932 -0.7495
  139MOL0     H18717   7.048   8.665   6.761 -0.8487  0.0036  0.4729
  139MOL0     H18718   7.136   8.691   6.909 -0.7334  1.5752 -0.1110
  139MOL0     H18719   7.227   8.779   6.633  2.5903 -0.9718  0.1377
  139MOL0     H18720   7.322   8.809   6.783 -0.4921 -1.7494  2.0946
  139MOL0     H18721   7.037   8.914   6.747  0.8446  0.9497 -5.2312
  139MOL0     H18722   7.175   9.008   6.713  2.7092 -0.0840  2.9514
  139MOL0     H18723   7.227   9.058   6.918  0.4222 -0.2254 -0.9713
  139MOL0     H18724   7.220   8.906   6.977  2.1846  3.5920  1.1016
  139MOL0     H18725   7.246   9.055   7.151  0.6381 -0.6779  1.6952
  139MOL0     H18726   7.296   9.040   7.485 -1.7348  1.4387  1.7877
  139MOL0     H18727   7.349   9.133   7.342  0.5958 -0.3184  0.0715
  139MOL0     H18728   7.255   9.203   7.461  2.3092 -0.2911  2.3206
  139MOL0     H18729   6.613   9.100   7.647 -0.3259 -1.9090  2.9876
  139MOL0     H18730   6.517   9.139   7.854 -0.7819  1.1556 -0.3317
  139MOL0     H18731   6.476   9.277   8.159 -0.3619 -0.0800 -1.0565
  139MOL0     H18732   6.530   9.134   8.067  0.8453  0.2610  0.5213
  139MOL0     H18733   6.766   9.187   8.198 -0.3254 -1.7858  1.2459
  139MOL0     H18734   6.670   9.262   8.317  0.9298  0.1550 -0.4939
  139MOL0     H18735   6.666   8.972   8.206 -0.8819 -1.1822  1.4231
  139MOL0     H18736   6.527   9.030   8.299 -0.5824 -0.4655 -2.1639
  139MOL0     H18737   6.817   9.005   8.386  0.4121  0.9550  0.0280
  139MOL0     H18738   6.697   9.098   8.476 -2.6297 -0.2460 -0.2135
  139MOL0     H18739   6.688   8.804   8.379  1.1843  0.5858 -0.2731
  139MOL0     H18740   6.557   8.882   8.471  0.1992 -0.4366  2.0245
  139MOL0     H18741   6.824   8.800   8.562  0.3858 -0.0491 -0.0173
  139MOL0     H18742   6.719   8.908   8.658  0.3997 -2.3530  2.9746
  139MOL0     H18743   6.648   8.620   8.579 -0.7625  0.7067 -0.6645
  139MOL0     H18744   6.540   8.722   8.676 -0.8576 -5.2429  2.0136
  139MOL0     H18745   6.632   8.638   8.855  0.0373  0.4024  0.6202
  139MOL0     H18746   6.761   8.744   8.834 -0.6440  0.5837 -0.4897
  139MOL0     H18747   6.886   9.361   7.963 -1.1787 -0.6716  3.6800
  139MOL0     H18748   6.983   9.281   7.740  0.5288 -0.6813  1.0984
  139MOL0     H18749   6.800   9.056   7.349 -0.9083  0.1715 -0.0205
  139MOL0     H18750   6.822   9.027   7.112 -0.1462  2.6507 -0.5836
  139MOL0     H18751   8.512   8.047   6.626  0.3225 -1.1722  3.5959
  139MOL0     H18752   8.752   8.026   6.551 -0.1815  2.0338 -3.0302
  139MOL0     H18753   9.047   7.708   6.279 -0.3939  0.5242 -0.2114
  139MOL0     H18754   9.263   7.741   6.143 -0.6617 -1.9075  1.0877
  139MOL0     H18755   9.481   7.751   6.106 -0.7710 -1.4455 -0.4322
  139MOL0     H18756   9.402   7.883   6.022 -1.1807 -1.4635  1.5176
  139MOL0     H18757   9.676   7.919   6.130  0.1509 -1.1419  0.5763
  139MOL0     H18758   9.580   8.028   6.018  0.0271 -0.9559  0.8458
  139MOL0     H18759   9.602   7.867   5.833  2.3359  1.8463 -0.9412
  139MOL0     H18760   9.679   7.754   5.952 -3.5203 -0.4737  2.1359
  139MOL0     H18761   9.862   7.887   5.977 -1.7938 -1.5400  0.0880
  139MOL0     H18762   9.797   8.030   5.899 -0.9152 -0.0524  0.3081
  139MOL0     H18763   9.959   7.803   5.578  1.4825 -0.7131  0.9019
  139MOL0     H18764   9.362   8.068   6.394  1.9668 -1.1813 -0.7308
  139MOL0     H18765   9.140   8.061   6.487 -2.5498 -0.9271  0.0457
  140MOL0     O18766   1.444   9.347   9.116  0.1781  0.3480  0.0778
  140MOL0     C18767   1.559   9.348   9.080 -0.0346  1.3032 -0.1036
  140MOL0     O18768   1.614   9.331   8.955 -0.0601  0.0308  0.3334
  140MOL0     C18769   1.527   9.299   8.859 -0.5154  0.8023  0.5479
  140MOL0     C18770   1.464   9.177   8.857  0.0088 -0.4260 -0.5655
  140MOL0     C18771   1.367   9.141   8.761  0.2931  0.1758 -0.0445
  140MOL0     C18772   1.341   9.236   8.657  0.1725  0.2483  0.1343
  140MOL0     O18773   1.236   9.195   8.578  0.3405  0.8734 -0.0867
  140MOL0     C18774   1.199   9.269   8.460 -0.3195 -0.6948  0.1010
  140MOL0     C18775   1.059   9.224   8.415 -0.7977 -0.2741  0.5627
  140MOL0     C18776   1.004   9.318   8.308 -0.0053 -0.0791 -0.6280
  140MOL0     C18777   0.853   9.286   8.275  0.1733 -0.0090  0.6148
  140MOL0     C18778   0.818   9.137   8.279 -0.0398 -0.6748 -0.2310
  140MOL0     C18779   0.673   9.115   8.266 -0.3894 -0.7187 -0.5836
  140MOL0     C18780   0.615   9.162   8.136 -0.5086 -0.2820 -0.3939
  140MOL0     C18781   0.465   9.122   8.140  0.6877 -0.1053  0.7907
  140MOL0     N18782   0.374   9.214   8.074 -0.0086 -0.0268  0.6050
  140MOL0     C18783   0.252   9.181   8.017  0.1628 -0.5176  0.0540
  140MOL0     C18784   0.187   9.300   8.002 -0.6773  0.0857 -0.3929
  140MOL0     C18785   0.052   9.317   7.942  0.4113  0.3364 -0.5067
  140MOL0     C18786   0.076   9.386   7.800  0.2198 -0.3695 -0.0648
  140MOL0     C18787   0.066   9.541   7.802  0.0354 -0.0802 -0.6262
  140MOL0     C18788  -0.074   9.600   7.816  0.5651  0.3233 -0.2947
  140MOL0     O18789  -0.131   9.575   7.943 -0.3260  0.1128 -0.3648
  140MOL0     C18790  -0.267   9.570   7.963 -0.0076  0.5360  0.1629
  140MOL0     C18791  -0.305   9.532   8.090 -0.0917  0.9097 -0.1798
  140MOL0     C18792  -0.444   9.519   8.140 -1.1557 -0.1758 -0.2885
  140MOL0     C18793  -0.470   9.470   8.280 -0.2154 -0.3334 -0.3078
  140MOL0     C18794  -0.544   9.551   8.046 -0.3323 -0.3479  0.2626
  140MOL0     C18795  -0.686   9.516   8.061 -0.6406 -1.2510 -0.3484
  140MOL0     O18796  -0.748   9.476   7.947 -0.3012  0.4195 -1.0586
  140MOL0     C18797  -0.881   9.443   7.952  0.1609  0.4703 -0.0740
  140MOL0     C18798  -0.978   9.515   8.027  0.1203  0.0181  0.5190
  140MOL0     C18799  -1.114   9.483   8.024  0.1649  0.9848  0.9193
  140MOL0     C18800  -1.156   9.391   7.925 -0.5646 -0.3706  0.1629
  140MOL0     O18801  -1.290   9.357   7.922 -0.0854  0.6398  0.2215
  140MOL0     C18802  -1.330   9.227   7.879  0.9110 -0.0777  0.4478
  140MOL0     C18803  -1.479   9.219   7.935 -0.1382  0.5712  0.3758
  140MOL0     C18804  -1.558   9.124   7.850  0.2969 -0.0968 -0.0131
  140MOL0     C18805  -1.692   9.099   7.918  0.0900 -0.7713 -0.4840
  140MOL0     C18806  -1.773   8.990   7.841  0.1772  0.2892 -0.1916
  140MOL0     C18807  -1.926   9.012   7.849  0.1470 -0.3313  0.2510
  140MOL0     C18808  -2.010   8.881   7.797 -0.0310 -0.4867  0.1571
  140MOL0     C18809  -2.161   8.892   7.793 -0.0731  0.4778  0.5916
  140MOL0    Cl18810  -2.217   9.049   7.723  0.1740 -0.0242 -0.0714
  140MOL0     C18811  -1.061   9.314   7.850 -0.0599  0.5774 -0.4463
  140MOL0     C18812  -0.928   9.347   7.863  0.3119 -0.6882  0.3130
  140MOL0     O18813  -0.731   9.504   8.172  0.2109  0.8818 -0.3630
  140MOL0     C18814  -0.507   9.601   7.914 -0.4843  0.4576 -0.1487
  140MOL0     C18815  -0.371   9.613   7.877  0.2206 -0.0941  0.2999
  140MOL0     N18816   0.260   9.402   8.053 -0.5776  0.1592  0.4729
  140MOL0     N18817   0.374   9.350   8.094 -0.2808  0.2211 -0.2048
  140MOL0     C18818   1.414   9.356   8.648 -0.6898  0.1417 -0.7799
  140MOL0     C18819   1.512   9.382   8.743 -0.7128  0.1174 -0.2364
  140MOL0     C18820   1.645   9.401   9.191 -0.1176 -0.2361 -0.5069
  140MOL0     C18821   1.780   9.407   9.168 -0.5534 -0.8319  0.0683
  140MOL0     C18822   1.869   9.434   9.272 -0.3449 -0.0082 -0.1960
  140MOL0     C18823   1.825   9.476   9.400  0.3462 -0.2534 -0.8473
  140MOL0     O18824   1.908   9.521   9.499 -0.0003  0.0098  0.4340
  140MOL0     C18825   2.045   9.478   9.490 -0.8417 -0.2807 -0.5633
  140MOL0     C18826   2.114   9.535   9.609  0.0876 -0.3727  0.2593
  140MOL0     C18827   2.247   9.464   9.640 -0.5440  0.5967  0.1012
  140MOL0     C18828   2.358   9.515   9.555  0.3641 -1.2269 -0.1269
  140MOL0     C18829   2.486   9.460   9.597 -0.4662 -0.2707 -0.2694
  140MOL0     C18830   2.591   9.409   9.635  0.1026  0.6701  0.7995
  140MOL0     C18831   1.683   9.487   9.415  0.1862 -0.1856  1.2172
  140MOL0     C18832   1.597   9.443   9.314  0.6514 -0.0041 -0.3444
  140MOL0     H18833   1.464   9.112   8.944 -1.8100  1.2859  0.8098
  140MOL0     H18834   1.304   9.053   8.768  1.1056 -0.2897  1.9003
  140MOL0     H18835   1.186   9.375   8.486  1.1298 -0.9906  2.3305
  140MOL0     H18836   1.273   9.252   8.382 -0.4672 -1.7479  0.1841
  140MOL0     H18837   1.075   9.127   8.367  0.2570  0.5345 -0.8028
  140MOL0     H18838   0.990   9.213   8.499 -0.2000  1.1075  1.2791
  140MOL0     H18839   1.008   9.424   8.335 -1.4923  1.2966 -4.8346
  140MOL0     H18840   1.057   9.313   8.212  3.5693  1.0683  1.1065
  140MOL0     H18841   0.785   9.324   8.353 -2.3035  0.5734 -1.6983
  140MOL0     H18842   0.825   9.328   8.178  2.2225 -0.9047 -0.4247
  140MOL0     H18843   0.875   9.083   8.203 -1.6064 -2.1561 -0.4130
  140MOL0     H18844   0.841   9.104   8.381  2.3290  2.8648  0.5836
  140MOL0     H18845   0.654   9.009   8.284  0.0604 -0.8568 -0.8971
  140MOL0     H18846   0.624   9.160   8.352  4.5558  0.7644  1.8060
  140MOL0     H18847   0.622   9.270   8.115 -1.1009 -0.2292 -0.3387
  140MOL0     H18848   0.662   9.107   8.054 -1.0808 -0.5479 -0.5486
  140MOL0     H18849   0.429   9.109   8.242 -1.8932  1.3979  0.1520
  140MOL0     H18850   0.456   9.024   8.094 -2.6180 -0.2157  1.4176
  140MOL0     H18851   0.217   9.079   7.999  0.4492 -0.1094 -3.5501
  140MOL0     H18852   0.001   9.221   7.929  0.3773 -0.1920  2.7072
  140MOL0     H18853  -0.011   9.381   8.005  0.1638 -1.9936  1.7791
  140MOL0     H18854   0.001   9.349   7.729  0.0493  3.6116 -2.2348
  140MOL0     H18855   0.174   9.358   7.760  0.8242  0.4871  0.7611
  140MOL0     H18856   0.117   9.580   7.714  3.4269  1.3034  1.7286
  140MOL0     H18857   0.118   9.577   7.891 -0.5424  0.7775 -0.6296
  140MOL0     H18858  -0.133   9.551   7.738 -1.5755 -0.1654  1.5442
  140MOL0     H18859  -0.069   9.708   7.797  3.4341  0.7864  2.3146
  140MOL0     H18860  -0.228   9.500   8.159 -1.6983 -2.5637  0.1909
  140MOL0     H18861  -0.379   9.451   8.338  0.1428  1.2007 -0.3078
  140MOL0     H18862  -0.536   9.542   8.328  0.5282 -0.5682  1.0997
  140MOL0     H18863  -0.528   9.378   8.273  0.0563 -0.5386  0.1260
  140MOL0     H18864  -0.956   9.600   8.092 -1.1326 -0.0236  1.0262
  140MOL0     H18865  -1.194   9.536   8.074 -1.1104  0.2885 -0.3051
  140MOL0     H18866  -1.336   9.221   7.770 -1.0787 -1.0508  0.5666
  140MOL0     H18867  -1.279   9.138   7.917 -1.2127 -0.8172  1.6723
  140MOL0     H18868  -1.477   9.176   8.036 -1.0499 -2.0638 -0.6561
  140MOL0     H18869  -1.532   9.315   7.931 -1.4902 -0.1418  0.7384
  140MOL0     H18870  -1.511   9.026   7.840 -0.1410 -0.2900 -0.1918
  140MOL0     H18871  -1.577   9.176   7.755 -2.8306  0.2293  0.6705
  140MOL0     H18872  -1.674   9.061   8.019 -0.0570 -0.2494 -0.2579
  140MOL0     H18873  -1.738   9.197   7.939  2.3745 -0.2027  2.5979
  140MOL0     H18874  -1.741   8.885   7.845 -0.3815  0.1292  0.2355
  140MOL0     H18875  -1.754   9.020   7.737  0.2090  2.9041  0.5114
  140MOL0     H18876  -1.955   9.038   7.951  0.1708  1.0127 -0.0629
  140MOL0     H18877  -1.944   9.102   7.789  0.8656 -0.1453  0.3080
  140MOL0     H18878  -1.989   8.794   7.859  0.7149 -0.5330 -0.1446
  140MOL0     H18879  -1.981   8.860   7.693  0.6140 -2.2556  0.6748
  140MOL0     H18880  -2.199   8.866   7.892  0.9961  0.1313  0.9260
  140MOL0     H18881  -2.207   8.813   7.734 -1.8459  3.1282 -1.8212
  140MOL0     H18882  -1.088   9.234   7.783  3.2616 -1.0590 -0.0302
  140MOL0     H18883  -0.855   9.296   7.801 -0.7860  1.6754 -3.2319
  140MOL0     H18884  -0.587   9.627   7.845 -1.5676 -1.3872  0.3308
  140MOL0     H18885  -0.347   9.656   7.780 -0.3299  0.3950  0.3725
  140MOL0     H18886   1.384   9.431   8.576 -2.7019  0.1065 -0.0372
  140MOL0     H18887   1.573   9.472   8.741  2.6524 -2.0027 -1.9231
  140MOL0     H18888   1.835   9.378   9.078  1.0417  0.0611  0.7186
  140MOL0     H18889   1.972   9.454   9.244 -0.1902 -0.1312  0.2791
  140MOL0     H18890   2.050   9.370   9.500  1.3162 -0.2881 -1.0400
  140MOL0     H18891   2.097   9.511   9.399  0.8146  1.2116  0.8353
  140MOL0     H18892   2.046   9.527   9.694 -1.3469  0.6942 -0.7409
  140MOL0     H18893   2.127   9.643   9.599 -1.5979 -0.1783 -0.1822
  140MOL0     H18894   2.241   9.355   9.646  0.1498  0.4724 -1.2081
  140MOL0     H18895   2.263   9.492   9.745  2.4722  2.5343 -0.7318
  140MOL0     H18896   2.357   9.624   9.560 -4.5781 -1.0618  0.6130
  140MOL0     H18897   2.342   9.480   9.452  0.6346 -1.5133 -0.0732
  140MOL0     H18898   2.675   9.361   9.683 -0.6874 -2.0846 -0.3403
  140MOL0     H18899   1.634   9.528   9.502 -0.2933  2.7876 -0.3173
  140MOL0     H18900   1.491   9.444   9.333  0.8015 -2.2317  1.0400
  141MOL0     O18901   0.295   5.837   0.128 -0.2653  0.7063  0.0936
  141MOL0     C18902   0.393   5.757   0.105 -1.1521  0.0462  1.2206
  141MOL0     O18903   0.388   5.622   0.075  0.4377  0.5460  0.1650
  141MOL0     C18904   0.261   5.572   0.068 -0.2671 -1.0711  0.6885
  141MOL0     C18905   0.173   5.563   0.177 -0.4150 -0.5433  0.2216
  141MOL0     C18906   0.044   5.521   0.173 -0.5937 -0.7259  0.5719
  141MOL0     C18907  -0.004   5.472   0.045 -0.4191 -1.1710  0.7842
  141MOL0     O18908  -0.139   5.445   0.032 -0.2223 -0.3077  0.2512
  141MOL0     C18909  -0.203   5.445  -0.105 -0.2288  0.2455 -1.1137
  141MOL0     C18910  -0.356   5.433  -0.094  0.0004  1.3278  0.1017
  141MOL0     C18911  -0.429   5.563  -0.076 -0.7722 -1.3555 -0.9965
  141MOL0     C18912  -0.576   5.555  -0.087 -0.0235 -0.0447 -0.2118
  141MOL0     C18913  -0.622   5.516  -0.217 -0.3329 -0.0988  0.2134
  141MOL0     C18914  -0.768   5.547  -0.253 -0.4109  0.5360 -0.1317
  141MOL0     C18915  -0.792   5.543  -0.403  0.0849 -0.0385  0.0446
  141MOL0     C18916  -0.933   5.581  -0.448  0.2699  0.4533 -0.5749
  141MOL0     N18917  -1.035   5.488  -0.393  1.2048  0.2024  0.4434
  141MOL0     C18918  -1.093   5.490  -0.267 -0.2420 -0.1863 -0.2731
  141MOL0     C18919  -1.156   5.373  -0.253  0.4661  0.1330  0.3554
  141MOL0     C18920  -1.248   5.316  -0.148 -0.3120  0.0463  0.6004
  141MOL0     C18921  -1.215   5.383  -0.011 -0.0083 -0.5839 -0.3485
  141MOL0     C18922  -1.279   5.303   0.105 -0.7114 -0.4445  0.4415
  141MOL0     C18923  -1.433   5.278   0.084  0.3529 -0.2849 -0.3431
  141MOL0     O18924  -1.512   5.398   0.065  0.0636 -0.7165  0.5365
  141MOL0     C18925  -1.648   5.395   0.025 -0.4804  0.6783  0.0448
  141MOL0     C18926  -1.732   5.293   0.056  0.0433 -0.2757 -0.0300
  141MOL0     C18927  -1.860   5.288   0.013  0.8534  0.0173  0.2795
  141MOL0     C18928  -1.939   5.170   0.054 -0.0243  0.3109  0.0242
  141MOL0     C18929  -1.917   5.405  -0.052  0.6964 -0.2142 -0.5230
  141MOL0     C18930  -2.061   5.411  -0.102 -0.0078 -1.4164  0.8577
  141MOL0     O18931  -2.106   5.532  -0.143  0.8034  0.5114  0.6557
  141MOL0     C18932  -2.248   5.544  -0.150  0.0843 -0.5297 -0.4137
  141MOL0     C18933  -2.309   5.633  -0.237 -0.0036  0.4048  0.3607
  141MOL0     C18934  -2.448   5.642  -0.235 -0.5855 -0.3182 -0.1693
  141MOL0     C18935  -2.526   5.576  -0.154  0.8947 -0.1859 -0.1299
  141MOL0     O18936  -2.659   5.595  -0.169 -0.2639  0.3336  0.2767
  141MOL0     C18937  -2.742   5.477  -0.146 -0.6972  0.2306  0.3061
  141MOL0     C18938  -2.869   5.464  -0.228 -0.0669  0.2107  0.4695
  141MOL0     C18939  -2.984   5.566  -0.197  1.0588 -0.0309 -0.7544
  141MOL0     C18940  -3.113   5.549  -0.281  0.4769 -0.4846  0.1256
  141MOL0     C18941  -3.218   5.651  -0.243  0.0324  0.4249  0.2749
  141MOL0     C18942  -3.341   5.653  -0.330  1.1869 -0.0258  0.5658
  141MOL0     C18943  -3.447   5.764  -0.288  0.1562 -0.1891 -0.6719
  141MOL0     C18944  -3.574   5.759  -0.377  0.0525 -0.2577  0.4914
  141MOL0    Cl18945  -3.559   5.764  -0.557  0.1838  0.3638 -0.0032
  141MOL0     C18946  -2.465   5.494  -0.055  0.0981 -0.6748 -0.4752
  141MOL0     C18947  -2.331   5.473  -0.058 -0.5178 -0.4216  0.6676
  141MOL0     O18948  -2.117   5.309  -0.127 -0.5335  0.5037  0.4653
  141MOL0     C18949  -1.834   5.519  -0.073  0.2011 -0.0477 -0.3034
  141MOL0     C18950  -1.698   5.510  -0.039 -0.0103  0.3776  0.0410
  141MOL0     N18951  -1.150   5.297  -0.371  0.3003 -0.7233 -0.3143
  141MOL0     N18952  -1.080   5.369  -0.454 -0.4105  0.1847  0.1009
  141MOL0     C18953   0.081   5.483  -0.067  0.5601 -0.0657 -0.2838
  141MOL0     C18954   0.210   5.536  -0.057 -0.4099 -0.9403  0.7574
  141MOL0     C18955   0.526   5.822   0.095 -0.5665 -0.8006  0.5396
  141MOL0     C18956   0.550   5.959   0.129  0.1246 -0.5264 -0.1283
  141MOL0     C18957   0.685   6.007   0.135 -0.1387  0.0926  0.6960
  141MOL0     C18958   0.786   5.934   0.085  0.0742 -0.2843 -0.6624
  141MOL0     O18959   0.906   5.998   0.066 -0.5393 -0.4026 -1.4295
  141MOL0     C18960   1.025   5.929   0.002  1.1428 -0.3863  1.4139
  141MOL0     C18961   1.162   5.986   0.025 -0.3238 -0.4434 -0.8691
  141MOL0     C18962   1.266   5.919  -0.059  0.1863  0.3705  0.6385
  141MOL0     C18963   1.411   5.915  -0.001 -0.0626 -0.4987 -0.3821
  141MOL0     C18964   1.464   6.031   0.060  0.6958  0.3407 -0.8148
  141MOL0     C18965   1.486   6.138   0.124  0.4392 -0.1727 -0.3330
  141MOL0     C18966   0.764   5.802   0.045  0.2691  0.1787  0.0358
  141MOL0     C18967   0.636   5.744   0.060  0.0534  0.1491  0.4062
  141MOL0     H18968   0.205   5.598   0.275 -0.8805  1.0382 -0.1530
  141MOL0     H18969  -0.029   5.512   0.253  0.3702  1.1783  1.7383
  141MOL0     H18970  -0.182   5.539  -0.156 -0.0174  1.6739  1.4255
  141MOL0     H18971  -0.156   5.366  -0.164  0.7201  0.8628 -1.2040
  141MOL0     H18972  -0.397   5.385  -0.183 -0.3104 -0.3450  1.1147
  141MOL0     H18973  -0.363   5.366  -0.008  0.6479  0.7950 -0.2480
  141MOL0     H18974  -0.412   5.607   0.022 -0.4468 -0.7559 -1.3160
  141MOL0     H18975  -0.389   5.635  -0.148  0.0198  0.3635  1.0653
  141MOL0     H18976  -0.617   5.495  -0.005 -1.4929 -0.0095 -0.8923
  141MOL0     H18977  -0.618   5.653  -0.063 -0.5189 -0.4295  0.5145
  141MOL0     H18978  -0.562   5.586  -0.277  0.0536  0.3600  1.1175
  141MOL0     H18979  -0.602   5.414  -0.252 -2.3670 -0.7789  0.8935
  141MOL0     H18980  -0.820   5.472  -0.194  2.1011  0.7615  2.6368
  141MOL0     H18981  -0.781   5.652  -0.223 -2.8485  0.8586 -2.0152
  141MOL0     H18982  -0.715   5.598  -0.458 -0.0758  0.7847  0.6306
  141MOL0     H18983  -0.774   5.444  -0.445 -1.4097  0.7903 -2.8428
  141MOL0     H18984  -0.935   5.579  -0.557  1.6690 -0.6965 -0.6062
  141MOL0     H18985  -0.963   5.679  -0.411 -0.5132 -0.7308  2.2194
  141MOL0     H18986  -1.081   5.565  -0.189 -0.4471 -1.4435  1.0094
  141MOL0     H18987  -1.350   5.337  -0.183 -0.5567  3.0970  2.6932
  141MOL0     H18988  -1.229   5.209  -0.139 -1.3500 -0.1215  0.9168
  141MOL0     H18989  -1.265   5.481  -0.017  0.2471 -0.2552  1.8760
  141MOL0     H18990  -1.111   5.402   0.015 -0.2719  1.6638 -0.6559
  141MOL0     H18991  -1.269   5.373   0.189  1.4435 -0.6776  0.4333
  141MOL0     H18992  -1.224   5.214   0.138 -0.3967  0.4034  2.3530
  141MOL0     H18993  -1.467   5.212   0.164 -1.0398 -0.0337 -0.7055
  141MOL0     H18994  -1.453   5.216  -0.004 -1.7203  0.8442 -0.7353
  141MOL0     H18995  -1.695   5.209   0.115 -3.5269 -2.1880 -0.2029
  141MOL0     H18996  -1.869   5.095   0.093 -0.6221  0.5618  1.6420
  141MOL0     H18997  -2.013   5.192   0.132 -1.6246 -0.6752 -1.1590
  141MOL0     H18998  -1.989   5.120  -0.029 -0.0277 -1.6762  1.1522
  141MOL0     H18999  -2.243   5.691  -0.301 -0.6972  2.3483  1.3474
  141MOL0     H19000  -2.499   5.723  -0.286 -0.4960  1.6871  2.6991
  141MOL0     H19001  -2.685   5.386  -0.168  1.6513  1.7487 -0.1974
  141MOL0     H19002  -2.759   5.484  -0.038  3.8307 -1.7719  1.3598
  141MOL0     H19003  -2.842   5.480  -0.333 -1.1035 -1.0450 -0.0207
  141MOL0     H19004  -2.907   5.362  -0.217  2.3001 -1.0170 -1.6308
  141MOL0     H19005  -2.938   5.665  -0.208  1.3687 -0.1232 -0.2916
  141MOL0     H19006  -3.017   5.562  -0.093 -0.1520  1.3656 -1.0448
  141MOL0     H19007  -3.090   5.558  -0.388 -2.0607  1.4292 -0.3500
  141MOL0     H19008  -3.150   5.450  -0.253  1.9275 -1.2330 -0.5039
  141MOL0     H19009  -3.178   5.753  -0.236  2.4682 -0.4734  0.3759
  141MOL0     H19010  -3.255   5.619  -0.145  0.7383  0.4347  0.5522
  141MOL0     H19011  -3.290   5.675  -0.425  4.7217 -1.3628  1.9825
  141MOL0     H19012  -3.378   5.550  -0.330  3.3683 -0.8690  0.3020
  141MOL0     H19013  -3.400   5.863  -0.286  1.4240 -0.6103 -3.5527
  141MOL0     H19014  -3.480   5.748  -0.185 -0.9800  1.6851 -0.7008
  141MOL0     H19015  -3.636   5.846  -0.356 -2.2061 -1.3228 -1.3765
  141MOL0     H19016  -3.631   5.670  -0.350 -0.0547 -0.1990  0.4574
  141MOL0     H19017  -2.523   5.438   0.018  0.1196 -0.4929 -0.3179
  141MOL0     H19018  -2.286   5.410   0.018  2.5667 -2.6407 -2.7049
  141MOL0     H19019  -1.876   5.609  -0.117 -0.3799 -0.1989 -0.0622
  141MOL0     H19020  -1.631   5.590  -0.068 -0.8473  1.4921  1.0725
  141MOL0     H19021   0.045   5.461  -0.167 -1.1509 -0.1946  0.3289
  141MOL0     H19022   0.274   5.540  -0.145 -0.7001  1.2607  0.5864
  141MOL0     H19023   0.472   6.030   0.152  0.1949 -0.8163  1.0357
  141MOL0     H19024   0.706   6.110   0.161  0.6482 -0.3181  1.7276
  141MOL0     H19025   1.036   5.828   0.043  1.5879  0.4823  3.5723
  141MOL0     H19026   1.008   5.915  -0.105 -1.5869  1.9238  1.4497
  141MOL0     H19027   1.196   5.980   0.128 -0.8513  2.7621 -0.3919
  141MOL0     H19028   1.165   6.094   0.003 -2.2924  0.0495  0.8647
  141MOL0     H19029   1.263   5.966  -0.157 -1.4605  1.3683  1.1249
  141MOL0     H19030   1.228   5.818  -0.080  0.9438  0.3191 -0.5659
  141MOL0     H19031   1.481   5.885  -0.079  2.7665  1.4005  1.2282
  141MOL0     H19032   1.416   5.836   0.075 -0.5919 -1.1581 -1.0158
  141MOL0     H19033   1.490   6.232   0.175  2.4205 -0.6379  0.4652
  141MOL0     H19034   0.846   5.750  -0.002 -0.1479  0.5169 -1.0792
  141MOL0     H19035   0.625   5.639   0.033 -1.4796  0.7327 -1.4108
  142MOL0     O19036   0.752   2.941   1.692 -0.8335 -0.0862  0.3556
  142MOL0     C19037   0.741   2.907   1.807 -0.0183  0.5796 -0.5821
  142MOL0     O19038   0.631   2.923   1.882  0.1417 -0.1164  0.5894
  142MOL0     C19039   0.517   2.955   1.811 -0.1554 -0.6928 -0.3104
  142MOL0     C19040   0.468   2.869   1.723  0.0242  0.3205  0.8370
  142MOL0     C19041   0.347   2.897   1.657 -0.6410 -0.0657  0.5842
  142MOL0     C19042   0.285   3.019   1.679 -0.2075  0.0494 -0.2244
  142MOL0     O19043   0.181   3.049   1.595 -0.2451  0.5182 -0.2794
  142MOL0     C19044   0.073   3.113   1.650 -0.5504 -0.2237 -0.1039
  142MOL0     C19045  -0.040   3.120   1.536 -0.8245  0.5013 -0.5642
  142MOL0     C19046  -0.103   2.984   1.519  0.2229 -0.2725 -0.1239
  142MOL0     C19047  -0.246   2.999   1.476 -0.2037 -0.4568  0.8482
  142MOL0     C19048  -0.297   2.877   1.399  0.4193 -0.0022  0.0361
  142MOL0     C19049  -0.437   2.910   1.346  0.3776  1.3376  0.1343
  142MOL0     C19050  -0.442   3.031   1.255 -0.4858  0.5508  0.2280
  142MOL0     C19051  -0.580   3.058   1.189 -0.8493  0.1804  0.3417
  142MOL0     N19052  -0.689   3.079   1.287 -0.8488 -0.0939 -0.3567
  142MOL0     C19053  -0.696   3.192   1.365 -0.1932  0.8595 -0.4950
  142MOL0     C19054  -0.817   3.178   1.428  0.4586  0.4519  0.4656
  142MOL0     C19055  -0.888   3.277   1.517 -0.1286 -0.3166 -0.6041
  142MOL0     C19056  -1.040   3.292   1.494 -1.1463  0.9115 -0.0108
  142MOL0     C19057  -1.091   3.413   1.572  0.0197 -0.7180  0.0633
  142MOL0     C19058  -1.243   3.448   1.527  0.1729  0.1361  0.5865
  142MOL0     O19059  -1.262   3.583   1.564  0.0074  0.2861  0.2788
  142MOL0     C19060  -1.382   3.646   1.548  0.7160  0.2401 -0.0318
  142MOL0     C19061  -1.390   3.765   1.625 -0.5898  0.7212  1.7440
  142MOL0     C19062  -1.510   3.833   1.635  0.6203 -1.0703  0.4978
  142MOL0     C19063  -1.508   3.947   1.742  0.4507  0.9156 -0.2057
  142MOL0     C19064  -1.620   3.795   1.562 -0.5734  0.1352 -0.4761
  142MOL0     C19065  -1.748   3.861   1.569  0.0682 -0.4928  0.7643
  142MOL0     O19066  -1.758   3.998   1.604  0.4644  0.9820  0.0012
  142MOL0     C19067  -1.867   4.067   1.564 -0.4047  0.5799  0.0764
  142MOL0     C19068  -1.921   4.161   1.652  0.4163  0.7169 -0.9250
  142MOL0     C19069  -2.036   4.237   1.623  0.3806 -0.2074 -0.7127
  142MOL0     C19070  -2.099   4.229   1.497  0.0752  0.8490  0.7196
  142MOL0     O19071  -2.203   4.320   1.465  0.8643  0.6726 -0.1911
  142MOL0     C19072  -2.286   4.290   1.352 -0.0884 -0.9491  0.0380
  142MOL0     C19073  -2.371   4.412   1.352  0.0860  0.6183 -0.7160
  142MOL0     C19074  -2.493   4.403   1.265  0.0135 -0.2666 -0.0473
  142MOL0     C19075  -2.595   4.511   1.298 -0.1962  0.0014  0.3817
  142MOL0     C19076  -2.707   4.490   1.194  0.3396 -0.5225 -0.2122
  142MOL0     C19077  -2.797   4.615   1.195 -0.6464 -0.0748 -1.0375
  142MOL0     C19078  -2.908   4.621   1.085  0.4793 -1.3009 -0.2925
  142MOL0     C19079  -2.984   4.485   1.069  0.5003  0.2616 -0.9420
  142MOL0    Cl19080  -3.064   4.444   1.237  0.4718 -0.2803  0.4006
  142MOL0     C19081  -2.054   4.121   1.414 -0.1129 -0.0710  0.2687
  142MOL0     C19082  -1.944   4.038   1.452 -0.1590 -0.8261  0.0889
  142MOL0     O19083  -1.841   3.789   1.537  0.0633 -0.3567  0.1896
  142MOL0     C19084  -1.604   3.681   1.475  1.0034  0.1379 -0.3779
  142MOL0     C19085  -1.490   3.607   1.474  0.0327 -0.5332  0.4683
  142MOL0     N19086  -0.865   3.054   1.386 -0.0795 -0.1486 -0.1369
  142MOL0     N19087  -0.790   2.995   1.309  0.3448  0.5383  0.0208
  142MOL0     C19088   0.327   3.105   1.780 -0.1376  1.0042 -0.4305
  142MOL0     C19089   0.447   3.076   1.844  0.0897 -0.5221  0.1623
  142MOL0     C19090   0.868   2.862   1.874  0.0864  0.1541  0.2132
  142MOL0     C19091   0.874   2.797   2.000  0.0577 -0.7256  0.0845
  142MOL0     C19092   0.991   2.761   2.060  0.6228 -0.2880  0.8616
  142MOL0     C19093   1.115   2.802   2.002 -0.4430  0.3195  1.0053
  142MOL0     O19094   1.229   2.768   2.062  0.5053  0.5086 -0.1687
  142MOL0     C19095   1.332   2.867   2.089  0.3862 -0.3944  0.6773
  142MOL0     C19096   1.453   2.844   2.001 -0.1533 -0.1983 -1.0214
  142MOL0     C19097   1.498   2.701   1.986 -0.3625 -0.8376  0.0741
  142MOL0     C19098   1.597   2.666   1.869 -0.0305  0.5107  0.3921
  142MOL0     C19099   1.538   2.662   1.738 -0.7405  0.2192 -0.1148
  142MOL0     C19100   1.482   2.663   1.631 -0.2088  0.3776 -0.1516
  142MOL0     C19101   1.112   2.865   1.877 -0.4614  0.0767 -0.4301
  142MOL0     C19102   0.995   2.910   1.824 -0.0595  0.2708 -0.5153
  142MOL0     H19103   0.518   2.774   1.710 -2.7587 -1.3752  1.5460
  142MOL0     H19104   0.307   2.838   1.576  0.2908  1.1479 -0.8120
  142MOL0     H19105   0.050   3.075   1.750  0.3796  2.9972  1.4650
  142MOL0     H19106   0.106   3.216   1.666 -1.1132 -0.3545  2.3188
  142MOL0     H19107  -0.120   3.185   1.572 -1.5255 -1.6168  2.0146
  142MOL0     H19108   0.004   3.164   1.446  0.2853  1.8568  0.5876
  142MOL0     H19109  -0.036   2.937   1.446 -0.9964 -4.4946  1.2193
  142MOL0     H19110  -0.113   2.934   1.616 -1.0323 -1.5897 -0.9093
  142MOL0     H19111  -0.308   3.036   1.558 -2.2593  0.4853 -0.9977
  142MOL0     H19112  -0.242   3.076   1.397 -0.2346 -1.9911 -0.7099
  142MOL0     H19113  -0.224   2.861   1.319 -0.2900  1.6741 -1.0081
  142MOL0     H19114  -0.304   2.784   1.456  0.7399  0.0375  0.1394
  142MOL0     H19115  -0.478   2.833   1.280  1.9857  2.3758 -2.2038
  142MOL0     H19116  -0.503   2.921   1.432 -0.5165  2.7958 -0.7049
  142MOL0     H19117  -0.413   3.126   1.303  0.5062  0.2842  0.1759
  142MOL0     H19118  -0.376   3.014   1.170  0.4575  0.7488  0.8917
  142MOL0     H19119  -0.593   2.964   1.135  1.8372 -0.0737  0.0121
  142MOL0     H19120  -0.586   3.147   1.125  0.1270 -0.4376 -0.6392
  142MOL0     H19121  -0.632   3.280   1.365 -1.4846  1.8619  1.3749
  142MOL0     H19122  -0.858   3.260   1.621  0.4949  2.9418 -0.1348
  142MOL0     H19123  -0.845   3.377   1.503 -0.6074  0.8052  4.2732
  142MOL0     H19124  -1.092   3.201   1.525  1.7727 -2.2852 -3.4607
  142MOL0     H19125  -1.060   3.312   1.388  0.3965 -1.4353 -0.8388
  142MOL0     H19126  -1.031   3.502   1.551 -1.0324 -0.0278 -0.0916
  142MOL0     H19127  -1.085   3.396   1.680 -2.4658 -0.9806  0.2174
  142MOL0     H19128  -1.308   3.375   1.575 -0.1250 -0.2118 -0.3299
  142MOL0     H19129  -1.257   3.439   1.419 -1.0364  1.1148  0.6405
  142MOL0     H19130  -1.307   3.794   1.688  1.8140 -1.8984  0.0043
  142MOL0     H19131  -1.538   4.045   1.703  0.4425  1.7426  1.7890
  142MOL0     H19132  -1.575   3.918   1.823  0.5949 -0.7240 -0.6432
  142MOL0     H19133  -1.404   3.968   1.767 -0.2410  1.6498  2.3907
  142MOL0     H19134  -1.874   4.171   1.749  0.4205 -0.3327 -0.8134
  142MOL0     H19135  -2.065   4.306   1.701  2.1705  0.8929 -0.9759
  142MOL0     H19136  -2.231   4.286   1.257 -0.7802 -0.2525 -0.4020
  142MOL0     H19137  -2.341   4.195   1.361 -1.2881 -0.3332 -0.5767
  142MOL0     H19138  -2.398   4.423   1.458  0.7369  0.8390 -0.5627
  142MOL0     H19139  -2.310   4.501   1.332  0.8468  0.2721 -0.0013
  142MOL0     H19140  -2.549   4.310   1.283  0.4961 -0.3953  0.8338
  142MOL0     H19141  -2.455   4.396   1.162  0.3749 -1.3094  0.1413
  142MOL0     H19142  -2.643   4.495   1.395  1.7622 -1.5125  1.1667
  142MOL0     H19143  -2.550   4.610   1.288  0.5573 -0.3571  0.1598
  142MOL0     H19144  -2.758   4.396   1.216  1.5732 -0.8350  1.4805
  142MOL0     H19145  -2.667   4.483   1.092 -0.4961 -0.0483 -0.5886
  142MOL0     H19146  -2.842   4.643   1.291 -0.6342  0.9479 -1.3163
  142MOL0     H19147  -2.737   4.705   1.180 -0.7096 -0.3504 -3.3929
  142MOL0     H19148  -2.856   4.646   0.992  1.8867 -1.8151  0.3294
  142MOL0     H19149  -2.976   4.704   1.105 -1.1877 -2.8482  0.8323
  142MOL0     H19150  -2.913   4.408   1.039  2.0746  1.3359 -0.1021
  142MOL0     H19151  -3.058   4.494   0.989 -0.4045  3.0449  0.1124
  142MOL0     H19152  -2.099   4.124   1.316  0.2231  3.1996  0.1021
  142MOL0     H19153  -1.901   3.961   1.389  0.5349 -0.0944 -0.3600
  142MOL0     H19154  -1.687   3.650   1.413  1.7387  1.3265 -2.0310
  142MOL0     H19155  -1.478   3.523   1.406  1.2139  0.6797 -0.8810
  142MOL0     H19156   0.288   3.202   1.808 -0.7832 -0.2514  3.8402
  142MOL0     H19157   0.486   3.153   1.911  0.7528 -0.1078 -0.6887
  142MOL0     H19158   0.785   2.776   2.060 -0.3986  1.4082  0.2112
  142MOL0     H19159   0.990   2.715   2.158  0.4648 -2.8508 -0.2463
  142MOL0     H19160   1.301   2.972   2.079 -1.4401 -0.6678  2.7456
  142MOL0     H19161   1.374   2.848   2.188  0.8879  0.1643  0.5761
  142MOL0     H19162   1.534   2.893   2.057 -1.7399 -0.8114  2.0551
  142MOL0     H19163   1.444   2.893   1.904 -3.5965 -1.7782 -1.6528
  142MOL0     H19164   1.412   2.633   1.974 -1.2777  0.3723 -0.4447
  142MOL0     H19165   1.543   2.665   2.079 -0.6273 -2.5335 -0.4099
  142MOL0     H19166   1.644   2.570   1.895 -0.0041  0.2000 -0.7739
  142MOL0     H19167   1.681   2.736   1.869 -0.6607  1.2787  0.2360
  142MOL0     H19168   1.447   2.671   1.530  0.0902 -2.9240 -0.6100
  142MOL0     H19169   1.208   2.890   1.833  0.0792 -2.2825 -0.7290
  142MOL0     H19170   0.997   2.959   1.727 -0.7289 -1.7571 -1.6133
  143MOL0     O19171   2.047   0.054   0.463  0.1997  0.3997  0.5705
  143MOL0     C19172   2.090  -0.053   0.520 -0.7928 -0.8154  0.9633
  143MOL0     O19173   2.020  -0.156   0.570 -0.3453 -0.0567  0.5239
  143MOL0     C19174   1.887  -0.185   0.526 -0.1182  0.9149 -0.0726
  143MOL0     C19175   1.856  -0.321   0.528  0.7018  0.5208  0.1547
  143MOL0     C19176   1.722  -0.365   0.520  0.4836 -0.3566  0.7185
  143MOL0     C19177   1.619  -0.277   0.494 -0.1657  0.6385 -0.5416
  143MOL0     O19178   1.489  -0.303   0.502 -0.4654 -0.3446 -0.2883
  143MOL0     C19179   1.426  -0.263   0.633 -0.0263  0.2546 -0.0464
  143MOL0     C19180   1.284  -0.212   0.607 -0.1585 -1.0880  0.5831
  143MOL0     C19181   1.192  -0.329   0.566 -0.0905 -0.2494 -1.1251
  143MOL0     C19182   1.043  -0.278   0.551 -0.7671 -0.2141  0.7448
  143MOL0     C19183   0.941  -0.385   0.483 -0.1889  0.3903  0.5784
  143MOL0     C19184   0.916  -0.502   0.574 -0.4396  0.3863  0.3680
  143MOL0     C19185   0.833  -0.602   0.493  0.2871 -0.7153  0.5023
  143MOL0     C19186   0.778  -0.714   0.572  0.5232 -0.1831  0.6145
  143MOL0     N19187   0.867  -0.806   0.638  0.5504 -0.2575 -0.1664
  143MOL0     C19188   0.910  -0.798   0.768  0.0503  0.0874  0.0058
  143MOL0     C19189   0.963  -0.919   0.801  0.6846  0.1604 -0.7887
  143MOL0     C19190   1.024  -0.952   0.932  1.0511  0.1126  0.0885
  143MOL0     C19191   0.920  -0.974   1.045 -0.0168  0.6578  0.1878
  143MOL0     C19192   0.818  -1.098   1.029  0.4389  0.0033 -0.0610
  143MOL0     C19193   0.715  -1.077   0.910  0.8423  0.3239 -0.2897
  143MOL0     O19194   0.616  -0.984   0.955  0.4787 -0.3907  0.3225
  143MOL0     C19195   0.496  -0.987   0.876 -0.0286 -0.4103 -0.0238
  143MOL0     C19196   0.493  -0.939   0.747  0.6983 -0.4883  0.6725
  143MOL0     C19197   0.380  -0.939   0.668 -0.0979 -0.5705 -0.3105
  143MOL0     C19198   0.400  -0.874   0.531 -0.3955 -0.4643  0.1879
  143MOL0     C19199   0.257  -0.982   0.732  0.0854 -0.4108  0.0787
  143MOL0     C19200   0.128  -0.983   0.656 -0.2027  0.0661 -0.6404
  143MOL0     O19201   0.024  -1.030   0.727 -0.2396  0.3341  0.8677
  143MOL0     C19202  -0.095  -0.984   0.687 -0.0805  0.1750  1.2607
  143MOL0     C19203  -0.116  -0.847   0.671 -0.0489 -0.3559  0.5686
  143MOL0     C19204  -0.254  -0.797   0.659 -0.3818 -0.2921 -0.2780
  143MOL0     C19205  -0.355  -0.884   0.628  0.3717  0.4872  0.5159
  143MOL0     O19206  -0.481  -0.832   0.609  0.2778 -0.2497  0.4131
  143MOL0     C19207  -0.591  -0.911   0.564 -0.2726 -0.5980 -0.2973
  143MOL0     C19208  -0.731  -0.842   0.573 -0.0642  0.8549 -0.3632
  143MOL0     C19209  -0.822  -0.897   0.686  0.2300 -0.4067  0.1985
  143MOL0     C19210  -0.970  -0.849   0.692  0.1091 -0.2773  0.2092
  143MOL0     C19211  -1.060  -0.918   0.591  0.1873  0.4921  0.5242
  143MOL0     C19212  -1.201  -0.871   0.618  0.1446 -0.1240  0.2808
  143MOL0     C19213  -1.294  -0.920   0.511 -0.6477 -0.0665  0.2822
  143MOL0     C19214  -1.412  -0.840   0.502  0.3624 -0.4402 -0.3354
  143MOL0    Cl19215  -1.508  -0.828   0.652 -0.4840 -0.0468 -0.2295
  143MOL0     C19216  -0.328  -1.024   0.620  0.1709  0.2526 -0.6277
  143MOL0     C19217  -0.196  -1.070   0.653  0.8591 -1.2534 -0.2856
  143MOL0     O19218   0.128  -0.953   0.542  0.2538 -0.6744  0.3759
  143MOL0     C19219   0.260  -1.027   0.860 -0.0421  0.0064  0.7043
  143MOL0     C19220   0.380  -1.035   0.939  0.1429  0.1221  1.4795
  143MOL0     N19221   0.971  -0.988   0.689  0.0597  0.1815  0.2775
  143MOL0     N19222   0.906  -0.926   0.590 -1.0768  0.6252  0.5153
  143MOL0     C19223   1.660  -0.146   0.470  0.4806 -0.4199  0.0601
  143MOL0     C19224   1.790  -0.092   0.476 -0.3492 -0.0756 -0.0597
  143MOL0     C19225   2.234  -0.064   0.534 -0.5659 -0.3752 -0.1997
  143MOL0     C19226   2.315   0.048   0.507  0.0629  0.5782  0.2556
  143MOL0     C19227   2.456   0.029   0.492  0.6869  0.7726 -0.0531
  143MOL0     C19228   2.511  -0.093   0.518 -0.6713  0.4187 -0.8287
  143MOL0     O19229   2.644  -0.111   0.494  0.0613 -0.3597 -0.5660
  143MOL0     C19230   2.724  -0.055   0.599  0.5306  0.6327 -0.4866
  143MOL0     C19231   2.699  -0.139   0.724  0.0745  0.1503 -0.3823
  143MOL0     C19232   2.805  -0.119   0.844 -0.4263  0.3753 -0.0020
  143MOL0     C19233   2.741  -0.168   0.976  1.1625 -0.1853 -0.3416
  143MOL0     C19234   2.655  -0.068   1.031 -0.8331  0.3211  0.9275
  143MOL0     C19235   2.595   0.027   1.080 -0.0513 -0.1108  0.6361
  143MOL0     C19236   2.433  -0.206   0.545  0.1736  0.3485  0.2467
  143MOL0     C19237   2.297  -0.192   0.542  0.1420  0.0448 -0.1712
  143MOL0     H19238   1.929  -0.398   0.554  0.7260 -0.2394 -2.0281
  143MOL0     H19239   1.690  -0.469   0.521 -1.0830 -0.0569 -2.7963
  143MOL0     H19240   1.423  -0.350   0.699 -1.5132  1.1497  1.1257
  143MOL0     H19241   1.488  -0.183   0.674  1.5948 -1.8423  1.8603
  143MOL0     H19242   1.239  -0.165   0.695 -2.4790 -0.6972 -0.7228
  143MOL0     H19243   1.288  -0.146   0.520 -1.7459 -1.9532 -0.2006
  143MOL0     H19244   1.229  -0.379   0.476  1.7835 -3.0722  1.0194
  143MOL0     H19245   1.198  -0.402   0.647  1.7154 -2.0673 -2.7902
  143MOL0     H19246   1.002  -0.233   0.642 -2.0360  0.5107 -0.1454
  143MOL0     H19247   1.039  -0.191   0.486  1.4341 -0.9619 -0.4926
  143MOL0     H19248   0.845  -0.340   0.459  0.1359  0.7244 -0.1239
  143MOL0     H19249   0.988  -0.417   0.390 -1.0666  2.0801 -0.4791
  143MOL0     H19250   1.007  -0.545   0.617 -2.6140 -0.7622  4.3393
  143MOL0     H19251   0.852  -0.475   0.659 -2.3811  2.0505 -1.5059
  143MOL0     H19252   0.748  -0.551   0.447  1.9910  0.2345 -1.7563
  143MOL0     H19253   0.889  -0.643   0.409 -1.6017 -0.5637 -0.8944
  143MOL0     H19254   0.719  -0.763   0.493  1.4083  1.5563 -1.2040
  143MOL0     H19255   0.707  -0.681   0.648 -1.5310 -0.7380 -0.9516
  143MOL0     H19256   0.896  -0.708   0.827 -1.3885 -0.5662  0.7329
  143MOL0     H19257   1.082  -1.044   0.926 -0.7520 -1.2334  1.8783
  143MOL0     H19258   1.087  -0.867   0.959 -0.6383  1.0413  1.3092
  143MOL0     H19259   0.862  -0.882   1.057  1.2100  1.5884 -0.6002
  143MOL0     H19260   0.971  -0.983   1.141  0.2562  2.6252  0.2852
  143MOL0     H19261   0.760  -1.102   1.122  0.1726  0.1609 -0.2185
  143MOL0     H19262   0.867  -1.195   1.032  1.7824  0.6769  0.5245
  143MOL0     H19263   0.670  -1.174   0.891  0.2833  0.3976  0.6046
  143MOL0     H19264   0.766  -1.044   0.819 -0.1764 -0.5071 -1.1734
  143MOL0     H19265   0.590  -0.909   0.710  2.4471 -2.0363  3.6026
  143MOL0     H19266   0.310  -0.824   0.495  0.0489  1.4477  1.5839
  143MOL0     H19267   0.489  -0.811   0.532  0.5416 -1.7432  0.0810
  143MOL0     H19268   0.425  -0.958   0.465 -0.6877 -0.4703  0.0873
  143MOL0     H19269  -0.028  -0.784   0.672  2.6188 -3.6842 -1.2983
  143MOL0     H19270  -0.272  -0.692   0.675  1.6442  0.0785 -0.1836
  143MOL0     H19271  -0.567  -0.943   0.462  2.8340 -1.9090  0.7049
  143MOL0     H19272  -0.593  -1.003   0.624  1.9786 -1.2034 -1.0487
  143MOL0     H19273  -0.718  -0.739   0.609  4.2178 -0.2153  1.8088
  143MOL0     H19274  -0.774  -0.838   0.473 -0.9563  3.0611  0.0524
  143MOL0     H19275  -0.771  -0.868   0.779  0.7353 -1.7642  0.3751
  143MOL0     H19276  -0.816  -1.006   0.676  1.9405 -0.1235 -3.6625
  143MOL0     H19277  -1.001  -0.862   0.796  0.7055 -0.6450  0.3442
  143MOL0     H19278  -0.954  -0.745   0.663 -0.0684 -0.3423 -0.1355
  143MOL0     H19279  -1.071  -1.026   0.604 -1.0083  0.6711  1.1624
  143MOL0     H19280  -1.024  -0.905   0.489 -0.5012 -1.4075  0.0063
  143MOL0     H19281  -1.229  -0.904   0.718 -1.6059 -0.5659 -0.3187
  143MOL0     H19282  -1.200  -0.761   0.619  1.3038 -0.0909 -1.2778
  143MOL0     H19283  -1.311  -1.024   0.540  1.7614 -0.8719 -0.9077
  143MOL0     H19284  -1.239  -0.913   0.417  1.0936 -0.8163  1.1917
  143MOL0     H19285  -1.481  -0.877   0.425  0.0888 -0.8800  0.1129
  143MOL0     H19286  -1.386  -0.737   0.476  2.2202  0.0783  2.9756
  143MOL0     H19287  -0.409  -1.091   0.596 -1.2284  1.7520 -0.2381
  143MOL0     H19288  -0.187  -1.178   0.653 -2.3539 -1.5988  0.4590
  143MOL0     H19289   0.167  -1.044   0.913 -0.2928 -1.6664 -0.1950
  143MOL0     H19290   0.376  -1.065   1.043  1.6426  0.5278  1.6842
  143MOL0     H19291   1.579  -0.076   0.457  1.4369  0.6920 -0.1142
  143MOL0     H19292   1.815   0.011   0.452 -1.5953  0.2387 -0.0373
  143MOL0     H19293   2.286   0.150   0.488  3.1647  1.0427 -3.1092
  143MOL0     H19294   2.525   0.110   0.470  0.1284  2.0625  2.5540
  143MOL0     H19295   2.828  -0.060   0.567  0.7218  1.3449  0.0084
  143MOL0     H19296   2.704   0.051   0.612 -3.1866  0.0126  0.0418
  143MOL0     H19297   2.700  -0.241   0.685 -1.9965 -1.2798  2.8504
  143MOL0     H19298   2.602  -0.111   0.766  0.0368 -2.2968  1.3990
  143MOL0     H19299   2.833  -0.014   0.851  1.1500 -0.0588  0.6129
  143MOL0     H19300   2.898  -0.170   0.816 -0.4893 -0.0867  0.6099
  143MOL0     H19301   2.817  -0.184   1.053 -1.1117 -2.2144  1.6317
  143MOL0     H19302   2.684  -0.259   0.959 -0.9476  0.9786  0.1620
  143MOL0     H19303   2.543   0.114   1.115 -1.2183 -0.5042 -0.0618
  143MOL0     H19304   2.487  -0.300   0.535 -1.1840 -0.3863 -0.4737
  143MOL0     H19305   2.237  -0.282   0.536 -0.2596  0.3701 -1.3979
  144MOL0     O19306   1.446   6.928  10.124 -0.0302  0.1453  0.5793
  144MOL0     C19307   1.497   6.955  10.007  0.7635 -0.0279  0.1492
  144MOL0     O19308   1.430   7.012   9.895  0.0407 -0.0258  0.1047
  144MOL0     C19309   1.297   7.028   9.900 -0.2979  0.9997 -0.4978
  144MOL0     C19310   1.245   7.148   9.936  0.4511  0.0122 -0.1738
  144MOL0     C19311   1.104   7.166   9.927 -0.1189 -0.4794 -0.4711
  144MOL0     C19312   1.013   7.058   9.899  0.0060  0.4652  0.1947
  144MOL0     O19313   0.881   7.067   9.925  0.3499 -1.0664  0.0183
  144MOL0     C19314   0.792   6.976   9.863 -0.5728  0.8628  0.8473
  144MOL0     C19315   0.652   7.039   9.861  0.7001  0.7025 -0.1230
  144MOL0     C19316   0.548   6.940   9.794  0.2554 -0.2063  0.4300
  144MOL0     C19317   0.417   7.009   9.762 -0.5185 -0.6453 -0.4769
  144MOL0     C19318   0.301   6.906   9.744  0.1920 -0.1377 -0.0025
  144MOL0     C19319   0.168   6.978   9.779 -0.6909 -0.3963 -0.7284
  144MOL0     C19320   0.039   6.880   9.772 -0.1104 -0.3061  0.0874
  144MOL0     C19321  -0.085   6.958   9.753  0.0557  0.2688  0.2755
  144MOL0     N19322  -0.196   6.866   9.714 -0.3408 -0.3709  0.0986
  144MOL0     C19323  -0.245   6.752   9.778  0.1924  0.7498 -0.8494
  144MOL0     C19324  -0.361   6.715   9.707  1.0148 -0.2745 -0.5167
  144MOL0     C19325  -0.453   6.591   9.719 -0.9751  0.0542 -0.1673
  144MOL0     C19326  -0.601   6.612   9.705 -0.2544 -0.0202 -0.0163
  144MOL0     C19327  -0.679   6.478   9.719  0.7366  0.6668 -0.1242
  144MOL0     C19328  -0.831   6.502   9.744 -0.0364  0.5302  1.1159
  144MOL0     O19329  -0.905   6.584   9.641 -0.6570 -0.5824 -0.7450
  144MOL0     C19330  -1.032   6.620   9.681  0.3219 -0.0058  0.6120
  144MOL0     C19331  -1.125   6.557   9.766 -0.3134  0.5699  0.3824
  144MOL0     C19332  -1.257   6.615   9.779  0.5327 -0.3900  0.4687
  144MOL0     C19333  -1.357   6.536   9.863  0.4463 -0.3165 -0.0786
  144MOL0     C19334  -1.292   6.733   9.705 -0.3011 -0.5011 -0.1896
  144MOL0     C19335  -1.429   6.788   9.710 -0.1256 -0.9688 -0.2948
  144MOL0     O19336  -1.496   6.781   9.825 -0.8828 -0.1408 -0.0226
  144MOL0     C19337  -1.611   6.856   9.852 -1.4569 -0.5383 -0.6762
  144MOL0     C19338  -1.713   6.794   9.915  0.7030 -0.3695  0.7673
  144MOL0     C19339  -1.835   6.851   9.930 -0.2086 -0.0432 -0.0477
  144MOL0     C19340  -1.862   6.973   9.878 -0.6435  0.1135  0.1386
  144MOL0     O19341  -1.982   7.019   9.898  0.7990 -0.0102  0.0056
  144MOL0     C19342  -2.013   7.156   9.859  0.2005 -0.2102  0.3238
  144MOL0     C19343  -2.149   7.189   9.932 -0.4487 -0.1289 -0.3225
  144MOL0     C19344  -2.202   7.334   9.916 -0.4303 -0.0199 -0.2705
  144MOL0     C19345  -2.314   7.359  10.020  0.2171 -0.7256  0.4635
  144MOL0     C19346  -2.449   7.293   9.967 -0.0031 -0.1138 -0.8148
  144MOL0     C19347  -2.544   7.292  10.088  0.4231  0.5179 -0.0780
  144MOL0     C19348  -2.593   7.424  10.122  0.0581 -0.2544  0.9139
  144MOL0     C19349  -2.686   7.478  10.009  0.1003  0.6874  0.4256
  144MOL0    Cl19350  -2.837   7.370  10.002  0.1563  0.2043 -0.2565
  144MOL0     C19351  -1.761   7.042   9.811 -1.1522  0.2864  0.1149
  144MOL0     C19352  -1.636   6.989   9.796 -0.1381  1.1730 -0.4873
  144MOL0     O19353  -1.466   6.850   9.610 -1.0487  0.1451 -0.6138
  144MOL0     C19354  -1.199   6.796   9.629 -0.7330  0.2785 -0.4663
  144MOL0     C19355  -1.078   6.729   9.614 -0.0313 -0.1552 -0.2840
  144MOL0     N19356  -0.374   6.810   9.605 -0.0328  0.3522  0.0657
  144MOL0     N19357  -0.271   6.892   9.609 -0.2777 -0.8659 -0.2807
  144MOL0     C19358   1.071   6.934   9.863  0.8030 -0.6453  0.4283
  144MOL0     C19359   1.209   6.925   9.862 -0.2384 -0.5013  0.6013
  144MOL0     C19360   1.632   6.900   9.979  0.0083 -0.1774  0.3329
  144MOL0     C19361   1.684   6.894   9.848 -0.3574  0.2762 -0.3949
  144MOL0     C19362   1.810   6.847   9.821 -0.7524 -0.1796  0.2490
  144MOL0     C19363   1.895   6.807   9.924 -0.2337 -0.2228  0.0681
  144MOL0     O19364   2.027   6.773   9.893 -0.6384  0.4572  0.1221
  144MOL0     C19365   2.128   6.772   9.990 -0.3470  0.3044  0.3117
  144MOL0     C19366   2.271   6.767   9.931 -0.4076 -0.3378  0.1259
  144MOL0     C19367   2.288   6.629   9.864  0.1212  0.0069  0.1358
  144MOL0     C19368   2.426   6.637   9.787  0.0412 -0.0967 -0.1565
  144MOL0     C19369   2.532   6.635   9.898 -0.1409 -0.5674 -0.9289
  144MOL0     C19370   2.609   6.637   9.992 -0.1037  0.1913  0.3704
  144MOL0     C19371   1.847   6.818  10.053  0.1887  0.2358 -0.2662
  144MOL0     C19372   1.713   6.861  10.082 -0.2020 -0.4173  0.0573
  144MOL0     H19373   1.306   7.227   9.978 -0.1093  0.5817 -0.4258
  144MOL0     H19374   1.059   7.263   9.949 -0.6850 -0.1898 -2.6864
  144MOL0     H19375   0.812   6.968   9.756 -1.5693  0.2820  0.6946
  144MOL0     H19376   0.797   6.880   9.915  0.3473  0.6193  0.3411
  144MOL0     H19377   0.615   7.053   9.962 -0.1038 -1.1747 -0.1201
  144MOL0     H19378   0.650   7.131   9.800 -4.5918  0.0173 -1.4041
  144MOL0     H19379   0.590   6.901   9.701 -0.6830  1.6617 -0.8119
  144MOL0     H19380   0.536   6.846   9.850 -1.8775 -1.3831 -1.8156
  144MOL0     H19381   0.406   7.093   9.831  0.1674 -0.2583 -0.8304
  144MOL0     H19382   0.446   7.059   9.669 -0.3687  0.1080 -0.0333
  144MOL0     H19383   0.295   6.867   9.642 -1.6992  1.5582 -0.5955
  144MOL0     H19384   0.312   6.818   9.809 -1.0355 -0.5235 -0.2826
  144MOL0     H19385   0.162   7.018   9.880 -0.4283 -2.2374  0.0473
  144MOL0     H19386   0.143   7.061   9.712 -1.6491  0.3204  0.4876
  144MOL0     H19387   0.052   6.819   9.682  1.6957  0.8808 -0.5181
  144MOL0     H19388   0.028   6.821   9.864 -0.7404 -3.6659 -1.9836
  144MOL0     H19389  -0.080   7.031   9.671 -2.1729 -1.1829 -1.3065
  144MOL0     H19390  -0.108   7.007   9.848 -1.6859 -0.2584  0.1673
  144MOL0     H19391  -0.209   6.711   9.872 -0.3559  2.9935  0.4325
  144MOL0     H19392  -0.411   6.517   9.650  2.7948  2.1587 -0.4225
  144MOL0     H19393  -0.444   6.549   9.820 -4.5121  1.1159  0.7345
  144MOL0     H19394  -0.620   6.653   9.605 -0.0826 -2.7989 -1.2770
  144MOL0     H19395  -0.627   6.679   9.787  0.8376 -0.7993  0.9963
  144MOL0     H19396  -0.648   6.423   9.808  0.3782 -1.1922 -1.1088
  144MOL0     H19397  -0.666   6.408   9.637  0.2368 -2.5595  2.3419
  144MOL0     H19398  -0.837   6.559   9.837  1.8767  2.5204  0.0982
  144MOL0     H19399  -0.879   6.405   9.760  1.0330  0.1991  2.4687
  144MOL0     H19400  -1.092   6.471   9.822  1.7764  0.3094 -1.0875
  144MOL0     H19401  -1.332   6.430   9.873 -0.5953 -0.5519  0.0934
  144MOL0     H19402  -1.369   6.575   9.965  2.8280  2.9441 -0.8841
  144MOL0     H19403  -1.455   6.533   9.816  0.8100  0.1207 -0.8829
  144MOL0     H19404  -1.689   6.699   9.962 -1.3812 -0.5355  1.5903
  144MOL0     H19405  -1.920   6.794   9.966  0.9161 -0.9134  1.3837
  144MOL0     H19406  -1.947   7.237   9.891 -1.9878  2.3705 -1.3099
  144MOL0     H19407  -2.020   7.166   9.751  5.0528 -0.6466 -0.2745
  144MOL0     H19408  -2.224   7.119   9.894 -0.3385  0.1746 -1.1067
  144MOL0     H19409  -2.134   7.167  10.038 -1.9512 -3.1727 -0.6251
  144MOL0     H19410  -2.252   7.338   9.819  0.2997  2.7608 -0.6383
  144MOL0     H19411  -2.124   7.410   9.920 -2.0363  1.6727  1.4549
  144MOL0     H19412  -2.283   7.319  10.118 -0.0986  0.7715  1.1997
  144MOL0     H19413  -2.323   7.465  10.043  0.5477 -0.5179 -0.3512
  144MOL0     H19414  -2.431   7.191   9.933  1.3380 -0.1457 -0.0617
  144MOL0     H19415  -2.497   7.345   9.884 -1.0395 -0.0407 -0.1906
  144MOL0     H19416  -2.629   7.227  10.066  1.0625 -0.5685  0.6266
  144MOL0     H19417  -2.493   7.246  10.173  0.0868 -1.1564 -0.7488
  144MOL0     H19418  -2.507   7.490  10.137  1.4598 -2.5347  3.6838
  144MOL0     H19419  -2.636   7.430  10.222 -1.4076  0.3361  0.2890
  144MOL0     H19420  -2.643   7.494   9.910  0.7080 -1.6089  0.2511
  144MOL0     H19421  -2.713   7.581  10.034 -2.1127 -0.0391  1.3281
  144MOL0     H19422  -1.773   7.131   9.750  0.6983 -0.4813 -1.4614
  144MOL0     H19423  -1.551   7.041   9.753  1.8123 -2.7861 -1.9279
  144MOL0     H19424  -1.226   6.881   9.568 -1.6161 -0.2394 -0.8199
  144MOL0     H19425  -1.005   6.768   9.544 -0.7556  2.5345  0.3215
  144MOL0     H19426   1.021   6.841   9.841 -0.4259 -0.3291  1.7198
  144MOL0     H19427   1.253   6.826   9.850 -0.5561 -0.6993  1.0294
  144MOL0     H19428   1.621   6.929   9.767  1.1551 -2.9268 -3.2173
  144MOL0     H19429   1.846   6.852   9.719  3.4395 -1.8325  1.3927
  144MOL0     H19430   2.117   6.867  10.043 -2.7189 -0.0722  0.6198
  144MOL0     H19431   2.109   6.701  10.071  1.5370  2.5671  2.9043
  144MOL0     H19432   2.335   6.787  10.018  0.1573  2.0622 -0.7404
  144MOL0     H19433   2.301   6.847   9.862 -0.2470 -0.9944 -0.5775
  144MOL0     H19434   2.205   6.610   9.796  0.8314  1.1923 -1.1279
  144MOL0     H19435   2.292   6.555   9.944 -2.3703  2.1888  2.4573
  144MOL0     H19436   2.431   6.724   9.721  1.5480 -0.1438 -0.1424
  144MOL0     H19437   2.443   6.550   9.722 -1.9226  1.1229 -2.4750
  144MOL0     H19438   2.686   6.632  10.067 -1.1145  0.5983  1.4713
  144MOL0     H19439   1.901   6.793  10.144 -0.7599  0.2571  0.3229
  144MOL0     H19440   1.674   6.857  10.184 -3.5995 -0.8703 -1.1175
  145MOL0     O19441   6.210   7.085   1.716 -0.0746 -0.1214 -0.0627
  145MOL0     C19442   6.235   7.007   1.808  0.0114  0.4977 -0.3266
  145MOL0     O19443   6.145   6.974   1.912 -0.0131 -0.1983 -0.4171
  145MOL0     C19444   6.029   7.049   1.925 -0.1938 -0.1462  0.2122
  145MOL0     C19445   6.035   7.175   1.988 -0.9649 -0.2761  0.3019
  145MOL0     C19446   5.928   7.258   1.999  0.5652  1.2961 -0.1187
  145MOL0     C19447   5.806   7.224   1.948 -0.0064  0.1315 -0.1135
  145MOL0     O19448   5.695   7.297   1.967 -0.2583 -0.1253  0.0513
  145MOL0     C19449   5.711   7.437   1.942  0.3231 -0.1940  0.2949
  145MOL0     C19450   5.569   7.494   1.922  0.1515  0.9978 -0.9744
  145MOL0     C19451   5.480   7.480   2.049  0.3451  0.1591 -0.0918
  145MOL0     C19452   5.345   7.543   2.031 -0.6507  0.4312  0.3463
  145MOL0     C19453   5.276   7.578   2.167 -0.2986 -0.6491 -0.7705
  145MOL0     C19454   5.163   7.474   2.171 -0.3226  0.6214 -0.7734
  145MOL0     C19455   5.071   7.485   2.290  0.3076 -0.5004  0.8493
  145MOL0     C19456   5.150   7.449   2.422 -0.3810  0.2857  0.2890
  145MOL0     N19457   5.062   7.488   2.531 -0.5474  0.7446  0.0114
  145MOL0     C19458   4.947   7.428   2.584 -0.9141 -0.5577  0.0324
  145MOL0     C19459   4.911   7.506   2.699  0.3153 -0.4408  0.7600
  145MOL0     C19460   4.775   7.488   2.770 -0.3679 -0.3682 -0.6073
  145MOL0     C19461   4.666   7.541   2.669 -0.1053  0.4701  0.0225
  145MOL0     C19462   4.537   7.577   2.741 -0.7045  0.4153 -0.4641
  145MOL0     C19463   4.448   7.456   2.764  0.3962 -0.1829 -0.2291
  145MOL0     O19464   4.409   7.396   2.642 -0.0306  0.1349  0.3156
  145MOL0     C19465   4.282   7.421   2.598  0.7307 -0.3421 -0.1394
  145MOL0     C19466   4.220   7.332   2.510 -0.4828 -0.1387  0.6346
  145MOL0     C19467   4.096   7.344   2.459 -0.2226  0.1742  1.2219
  145MOL0     C19468   4.045   7.226   2.372  0.4389  0.1640  0.0058
  145MOL0     C19469   4.022   7.459   2.493  0.2127  0.2114  0.0867
  145MOL0     C19470   3.893   7.484   2.436  0.2985 -0.1661 -0.0438
  145MOL0     O19471   3.818   7.574   2.505 -0.6520 -0.6852 -0.3988
  145MOL0     C19472   3.678   7.583   2.488 -0.0686  0.2227 -0.4234
  145MOL0     C19473   3.588   7.523   2.392 -0.2728 -0.4781  0.4211
  145MOL0     C19474   3.452   7.551   2.389  0.0565 -0.1570  0.0831
  145MOL0     C19475   3.395   7.647   2.478  0.4210 -0.5863  0.1495
  145MOL0     O19476   3.265   7.688   2.480 -0.3274  0.6541  0.3963
  145MOL0     C19477   3.172   7.640   2.384 -1.0425 -0.0734 -0.2224
  145MOL0     C19478   3.034   7.708   2.417 -0.3597 -0.2165  0.5948
  145MOL0     C19479   2.925   7.642   2.326 -0.4616  0.1564 -0.5201
  145MOL0     C19480   2.795   7.723   2.348  0.3947  0.2195 -0.6851
  145MOL0     C19481   2.671   7.666   2.269 -0.2307 -0.3579 -0.4081
  145MOL0     C19482   2.546   7.735   2.307  0.8664 -0.8852 -0.0602
  145MOL0     C19483   2.457   7.686   2.202  0.0506 -0.5288 -0.1351
  145MOL0     C19484   2.313   7.725   2.234 -0.2058 -0.1084  0.6445
  145MOL0    Cl19485   2.243   7.615   2.365  0.0900 -0.0741  0.2046
  145MOL0     C19486   3.482   7.710   2.565 -1.1425 -0.2449 -0.9590
  145MOL0     C19487   3.613   7.672   2.576 -0.2594 -0.0981 -0.1891
  145MOL0     O19488   3.862   7.427   2.331 -0.0083 -0.0667  0.1714
  145MOL0     C19489   4.080   7.560   2.569 -0.5224 -0.6136 -0.0341
  145MOL0     C19490   4.208   7.540   2.630  0.6576 -0.0816  0.3527
  145MOL0     N19491   4.997   7.610   2.700 -0.3338  0.1572 -0.8942
  145MOL0     N19492   5.076   7.598   2.607  0.2010  0.6380 -0.9502
  145MOL0     C19493   5.796   7.098   1.897  1.2205  0.3813 -0.2491
  145MOL0     C19494   5.901   7.012   1.880 -0.3584 -0.3673  0.7932
  145MOL0     C19495   6.338   6.911   1.790 -0.1788 -0.3998  0.6302
  145MOL0     C19496   6.340   6.777   1.833 -0.2181  0.2266 -0.1720
  145MOL0     C19497   6.458   6.702   1.829 -1.2259 -1.0221 -0.0370
  145MOL0     C19498   6.571   6.740   1.759 -0.1985 -0.9663 -0.6005
  145MOL0     O19499   6.682   6.656   1.757 -0.2710 -0.1298 -0.1580
  145MOL0     C19500   6.793   6.673   1.666  0.5990 -0.2298  0.8252
  145MOL0     C19501   6.858   6.529   1.672  0.0872 -0.4055  0.4835
  145MOL0     C19502   6.994   6.524   1.599  0.2059  0.2592  1.2342
  145MOL0     C19503   7.018   6.377   1.550  0.3326  0.5385  0.1922
  145MOL0     C19504   7.120   6.355   1.447 -0.5799  0.5299 -0.9850
  145MOL0     C19505   7.212   6.356   1.374 -0.7419  0.2896 -0.1942
  145MOL0     C19506   6.574   6.876   1.716  0.3718  0.7928  0.6671
  145MOL0     C19507   6.456   6.955   1.725 -0.2913 -0.2309  0.8206
  145MOL0     H19508   6.128   7.220   2.019 -0.5060  0.5219 -2.0697
  145MOL0     H19509   5.938   7.350   2.054  0.3612  0.6149  1.0978
  145MOL0     H19510   5.751   7.486   2.031  1.3854  0.3811 -0.4792
  145MOL0     H19511   5.774   7.462   1.856 -0.0800  0.2775  0.1315
  145MOL0     H19512   5.581   7.597   1.888 -1.0589  2.6786  3.0067
  145MOL0     H19513   5.524   7.433   1.843  4.7034 -1.9355 -1.6849
  145MOL0     H19514   5.468   7.373   2.069 -1.9317 -0.5485 -4.1102
  145MOL0     H19515   5.534   7.525   2.133 -1.5729 -1.4193  2.1412
  145MOL0     H19516   5.364   7.634   1.973  0.0746  0.9540  1.3864
  145MOL0     H19517   5.283   7.481   1.965 -0.8144 -0.9745  1.7624
  145MOL0     H19518   5.338   7.574   2.257 -0.5916 -0.0446 -0.5344
  145MOL0     H19519   5.250   7.683   2.153  2.1712  0.1647  0.2677
  145MOL0     H19520   5.101   7.500   2.085  2.1199  2.8003 -2.0196
  145MOL0     H19521   5.196   7.371   2.157 -1.8289  0.0093  0.0241
  145MOL0     H19522   5.023   7.583   2.296 -1.6937 -1.4466  0.9215
  145MOL0     H19523   4.993   7.410   2.272  0.9582 -1.2718  1.1505
  145MOL0     H19524   5.249   7.493   2.427 -0.1065 -0.0592 -1.3619
  145MOL0     H19525   5.173   7.342   2.430 -2.1101 -0.2628 -1.2268
  145MOL0     H19526   4.886   7.352   2.536 -2.2108 -0.2903  1.2061
  145MOL0     H19527   4.756   7.382   2.792  0.4439 -0.5447 -0.7277
  145MOL0     H19528   4.778   7.538   2.867  2.0362  0.9389 -1.2706
  145MOL0     H19529   4.639   7.460   2.600 -0.9361 -1.5803  2.6259
  145MOL0     H19530   4.708   7.625   2.612  0.1489  0.6623  0.4920
  145MOL0     H19531   4.487   7.654   2.681 -2.3991 -1.2028 -1.2037
  145MOL0     H19532   4.559   7.620   2.839  2.8394  0.3697 -1.0843
  145MOL0     H19533   4.362   7.486   2.825  1.8140 -1.0690  2.3593
  145MOL0     H19534   4.499   7.382   2.826  0.3801  1.2438  1.5552
  145MOL0     H19535   4.275   7.240   2.496  1.5203  1.1764 -0.6033
  145MOL0     H19536   3.952   7.177   2.402  0.6313  1.7527  3.7682
  145MOL0     H19537   4.028   7.267   2.272  0.8039  1.4152  0.4283
  145MOL0     H19538   4.121   7.148   2.363 -0.1219 -0.3150 -0.6446
  145MOL0     H19539   3.621   7.443   2.326 -1.8852 -4.3166  3.8228
  145MOL0     H19540   3.386   7.507   2.315  0.8298 -0.0891 -0.6557
  145MOL0     H19541   3.214   7.668   2.288  0.1316 -0.8651  0.0408
  145MOL0     H19542   3.165   7.531   2.393 -1.0072 -0.0917 -0.4334
  145MOL0     H19543   3.009   7.694   2.523  1.2396 -1.7550  0.8268
  145MOL0     H19544   3.042   7.813   2.387  0.5102 -1.2114 -3.0857
  145MOL0     H19545   2.916   7.534   2.344 -0.8871  0.1669 -0.6517
  145MOL0     H19546   2.948   7.650   2.219 -1.7020 -0.6843 -0.8669
  145MOL0     H19547   2.777   7.723   2.456 -0.6689 -1.0321 -0.8405
  145MOL0     H19548   2.807   7.829   2.325 -1.0787  1.0909  2.0344
  145MOL0     H19549   2.656   7.560   2.291  0.8520 -0.2545  0.9959
  145MOL0     H19550   2.697   7.673   2.163  0.6534 -1.4687 -0.2871
  145MOL0     H19551   2.511   7.700   2.405  0.6909 -1.8144 -0.4417
  145MOL0     H19552   2.548   7.844   2.310  2.7448 -0.8852  3.3450
  145MOL0     H19553   2.470   7.577   2.195  0.0276 -0.4705 -1.3766
  145MOL0     H19554   2.475   7.745   2.111 -2.3153 -0.4526 -0.6077
  145MOL0     H19555   2.251   7.699   2.148 -0.2620 -1.8855  1.1815
  145MOL0     H19556   2.306   7.832   2.254  0.0930  0.6973 -2.8397
  145MOL0     H19557   3.433   7.786   2.624 -1.7350 -0.0275 -1.7142
  145MOL0     H19558   3.670   7.725   2.652 -1.2789  1.3900 -0.4176
  145MOL0     H19559   4.027   7.653   2.587 -1.8518 -1.3067 -0.2466
  145MOL0     H19560   4.249   7.623   2.686 -0.7248  0.7960  0.0789
  145MOL0     H19561   5.708   7.042   1.867  1.5720 -1.0582  1.2659
  145MOL0     H19562   5.886   6.911   1.844 -1.6486  1.4939 -4.8826
  145MOL0     H19563   6.242   6.742   1.865  0.0005 -1.1060 -0.8898
  145MOL0     H19564   6.447   6.601   1.866 -0.6748 -0.6300  1.2231
  145MOL0     H19565   6.740   6.700   1.574  1.3746  0.7438  0.6432
  145MOL0     H19566   6.858   6.759   1.688  0.2033  1.0136 -2.2802
  145MOL0     H19567   6.786   6.464   1.623  0.3404  1.2208 -2.2579
  145MOL0     H19568   6.881   6.505   1.777  1.4474  0.8389  0.5088
  145MOL0     H19569   7.082   6.545   1.660  1.4618  1.0753 -0.7710
  145MOL0     H19570   6.991   6.594   1.515  0.1074 -2.3478 -1.1123
  145MOL0     H19571   6.928   6.347   1.497  0.1386  0.1325  0.7359
  145MOL0     H19572   7.046   6.313   1.635 -1.6044  1.3531  1.5021
  145MOL0     H19573   7.283   6.344   1.294  0.9028 -0.7521  1.3598
  145MOL0     H19574   6.657   6.895   1.649  0.6412  0.2572  0.8433
  145MOL0     H19575   6.464   7.052   1.676 -0.4446 -1.2494 -1.3434
  146MOL0     O19576   4.197   5.242  10.079  0.5331 -0.3371  0.9754
  146MOL0     C19577   4.148   5.138  10.034 -0.0658 -0.3898  0.3693
  146MOL0     O19578   4.041   5.086  10.082  0.5149 -0.0688 -0.1527
  146MOL0     C19579   3.925   5.151  10.098  0.3335  0.8041  0.5050
  146MOL0     C19580   3.905   5.276  10.037 -0.0885  0.7648 -0.5845
  146MOL0     C19581   3.780   5.341  10.045  0.4782  0.6448  0.0402
  146MOL0     C19582   3.668   5.279  10.103 -0.4149  0.7782  0.1707
  146MOL0     O19583   3.536   5.324  10.102 -0.1480  0.7090  0.4457
  146MOL0     C19584   3.512   5.464  10.107 -0.4183 -1.2766 -0.2754
  146MOL0     C19585   3.362   5.482  10.126 -0.6433 -0.5779  0.0936
  146MOL0     C19586   3.318   5.632  10.141  0.2749  0.4974  1.0378
  146MOL0     C19587   3.250   5.659  10.275  0.0051 -0.6119  0.0500
  146MOL0     C19588   3.227   5.805  10.315 -0.1519 -0.9217 -0.0041
  146MOL0     C19589   3.120   5.817  10.430 -0.5893  0.9214  0.2887
  146MOL0     C19590   3.162   5.935  10.517  0.7018  0.8667 -0.8853
  146MOL0     C19591   3.048   5.974  10.604  0.0880  1.1774 -0.5895
  146MOL0     N19592   3.008   5.869  10.699 -0.3052 -0.0451 -0.7493
  146MOL0     C19593   3.064   5.845  10.829  0.2133 -0.8440  0.2901
  146MOL0     C19594   3.000   5.731  10.871 -0.0890  0.5161  0.4913
  146MOL0     C19595   3.020   5.668  11.005  0.4631 -0.5191  0.1522
  146MOL0     C19596   2.899   5.611  11.068  0.0630  0.8223 -0.2230
  146MOL0     C19597   2.939   5.513  11.175  0.7292 -0.0879 -0.3576
  146MOL0     C19598   2.834   5.458  11.254 -0.4992 -0.1457  0.5346
  146MOL0     O19599   2.755   5.379  11.167  0.1572  0.3400 -0.0205
  146MOL0     C19600   2.639   5.334  11.221 -0.1287  0.1929  0.5159
  146MOL0     C19601   2.612   5.328  11.358 -0.6646 -0.6017  0.5894
  146MOL0     C19602   2.494   5.300  11.418  0.0645  0.7136  0.0064
  146MOL0     C19603   2.492   5.304  11.575  0.2433  0.0295  0.3147
  146MOL0     C19604   2.384   5.255  11.329  0.2966 -0.6771 -0.1930
  146MOL0     C19605   2.249   5.218  11.377 -0.2822 -0.0064  0.5476
  146MOL0     O19606   2.171   5.142  11.304  0.6761 -0.0953  0.2480
  146MOL0     C19607   2.042   5.124  11.350 -0.1482 -0.5872  0.4673
  146MOL0     C19608   2.020   5.032  11.454 -1.0772 -0.0241  0.4768
  146MOL0     C19609   1.893   5.005  11.496  0.3530 -0.0325 -0.4295
  146MOL0     C19610   1.782   5.081  11.437  0.4320  0.6679  0.3865
  146MOL0     O19611   1.653   5.053  11.485 -0.4038 -0.0403 -0.1396
  146MOL0     C19612   1.552   5.038  11.382 -0.0426 -0.3868  0.1331
  146MOL0     C19613   1.444   5.135  11.424 -0.4205  0.3353 -0.0232
  146MOL0     C19614   1.329   5.045  11.488 -0.1929 -0.2308 -0.2227
  146MOL0     C19615   1.207   5.130  11.506  0.4437  0.1772  0.2046
  146MOL0     C19616   1.094   5.054  11.582 -0.4627  0.3209  0.4061
  146MOL0     C19617   0.969   5.129  11.608  0.1975 -0.1290  0.7173
  146MOL0     C19618   0.857   5.051  11.681  0.3154  0.1481  0.0169
  146MOL0     C19619   0.753   5.148  11.720 -0.3919 -0.5086 -0.1985
  146MOL0    Cl19620   0.624   5.075  11.823  0.1113  0.3768 -0.2988
  146MOL0     C19621   1.803   5.174  11.331 -0.2197  0.4397 -1.6457
  146MOL0     C19622   1.940   5.192  11.290  0.0748 -0.1032 -0.0638
  146MOL0     O19623   2.214   5.267  11.482 -0.4210 -0.0764 -0.4886
  146MOL0     C19624   2.410   5.245  11.190  0.0271 -0.0125 -0.0482
  146MOL0     C19625   2.532   5.291  11.144 -0.1116 -0.7474 -0.4755
  146MOL0     N19626   2.917   5.689  10.770 -0.9651  0.0790  0.7958
  146MOL0     N19627   2.924   5.765  10.670  0.2172  0.7722  0.2396
  146MOL0     C19628   3.693   5.147  10.164 -0.8430  0.5378  0.5244
  146MOL0     C19629   3.819   5.087  10.161  0.6942  0.4141  0.1763
  146MOL0     C19630   4.224   5.058   9.938  0.8509  0.2302 -0.5524
  146MOL0     C19631   4.171   4.940   9.889  0.4100  0.2073  0.7388
  146MOL0     C19632   4.242   4.860   9.796 -0.8498 -0.6267  0.2201
  146MOL0     C19633   4.369   4.899   9.762  0.4763  0.4552  0.7831
  146MOL0     O19634   4.439   4.807   9.693 -0.5160 -0.5074  0.4824
  146MOL0     C19635   4.550   4.847   9.620  0.5000 -0.1876  0.3603
  146MOL0     C19636   4.622   4.726   9.570 -0.3129  0.6303 -0.3014
  146MOL0     C19637   4.702   4.655   9.680  0.0583  0.8583  0.2192
  146MOL0     C19638   4.810   4.737   9.744 -0.5655 -0.9008  0.2197
  146MOL0     C19639   4.912   4.658   9.805 -0.1023 -0.4647  0.3746
  146MOL0     C19640   5.001   4.574   9.833  1.1423  0.1137 -0.0077
  146MOL0     C19641   4.423   5.011   9.814 -0.2009  0.2294 -0.4312
  146MOL0     C19642   4.352   5.094   9.903 -0.1080  0.5872  0.3059
  146MOL0     H19643   3.987   5.327   9.987 -1.0623  0.7508 -2.2332
  146MOL0     H19644   3.758   5.435   9.997 -0.7622  1.1384  1.4862
  146MOL0     H19645   3.571   5.509  10.187  1.5839 -2.1662 -1.1790
  146MOL0     H19646   3.534   5.507  10.009 -4.5969 -0.7863 -1.1688
  146MOL0     H19647   3.303   5.437  10.046 -2.8448 -0.9625  1.8454
  146MOL0     H19648   3.340   5.417  10.211  0.9247 -0.9461  0.2513
  146MOL0     H19649   3.401   5.702  10.129 -1.0020  2.5373  3.2271
  146MOL0     H19650   3.244   5.631  10.060 -0.0328 -1.2849  1.2919
  146MOL0     H19651   3.152   5.612  10.259 -0.0867 -1.0000  1.5915
  146MOL0     H19652   3.305   5.612  10.357  1.9270  0.4158 -0.5948
  146MOL0     H19653   3.322   5.851  10.341  0.2857 -2.8616  2.1827
  146MOL0     H19654   3.196   5.861  10.227 -1.0682 -1.7105 -0.2093
  146MOL0     H19655   3.021   5.816  10.383 -0.8692 -3.7996  0.5480
  146MOL0     H19656   3.116   5.728  10.492 -0.6621 -0.7328 -1.9687
  146MOL0     H19657   3.256   5.918  10.570 -0.2603  0.9295  0.9153
  146MOL0     H19658   3.178   6.020  10.450 -1.7414  0.5845 -1.9537
  146MOL0     H19659   2.965   5.995  10.536 -0.0530 -2.1505 -1.6075
  146MOL0     H19660   3.088   6.065  10.650  4.9795 -0.6891 -0.5563
  146MOL0     H19661   3.137   5.909  10.878 -0.4114 -0.0594  0.2186
  146MOL0     H19662   3.096   5.590  10.990  1.0839  0.2311 -0.7652
  146MOL0     H19663   3.046   5.753  11.069  0.1071  1.0568 -1.7200
  146MOL0     H19664   2.853   5.561  10.983  1.8287 -2.0512  0.3561
  146MOL0     H19665   2.847   5.695  11.115  1.7616  1.8921 -0.1741
  146MOL0     H19666   3.014   5.549  11.246  0.1948 -0.4206  0.3910
  146MOL0     H19667   2.984   5.429  11.121 -0.5430 -0.7205 -0.4635
  146MOL0     H19668   2.772   5.531  11.305 -0.3578 -1.2214  2.3171
  146MOL0     H19669   2.877   5.395  11.332 -1.0578  0.1820  1.1100
  146MOL0     H19670   2.693   5.341  11.430 -1.2406 -1.9451  1.5221
  146MOL0     H19671   2.579   5.353  11.620 -0.1702  1.0148  0.0722
  146MOL0     H19672   2.415   5.381  11.591 -0.4336 -0.7254  0.7517
  146MOL0     H19673   2.470   5.216  11.635  0.8069  0.4618  1.1668
  146MOL0     H19674   2.103   4.972  11.491 -0.9408  1.6199  3.1596
  146MOL0     H19675   1.868   4.940  11.580 -1.4641  0.8930 -0.2072
  146MOL0     H19676   1.582   5.059  11.279  0.9049  0.5273  0.5745
  146MOL0     H19677   1.517   4.934  11.385 -2.2418  0.2872 -0.5580
  146MOL0     H19678   1.477   5.203  11.503 -0.5737  0.4862 -0.0886
  146MOL0     H19679   1.416   5.201  11.342  1.9544  2.4916  0.7742
  146MOL0     H19680   1.372   5.013  11.584  1.5764  0.8922 -0.6118
  146MOL0     H19681   1.308   4.960  11.423 -2.3945 -0.7780  1.0811
  146MOL0     H19682   1.241   5.203  11.580  1.0647 -1.1723  1.3002
  146MOL0     H19683   1.172   5.176  11.414  0.0810 -0.4467  0.0243
  146MOL0     H19684   1.132   4.999  11.669  0.6388  0.2929 -0.0852
  146MOL0     H19685   1.053   4.979  11.514  0.1233  0.1190  0.2747
  146MOL0     H19686   1.000   5.216  11.668  1.1578 -0.9739  1.4891
  146MOL0     H19687   0.920   5.164  11.517  0.2067  2.3821  1.5857
  146MOL0     H19688   0.883   4.994  11.770  2.0303  0.8317 -0.0205
  146MOL0     H19689   0.817   4.974  11.615  0.1525 -0.4925  0.8480
  146MOL0     H19690   0.696   5.200  11.643 -3.6870 -1.8430  1.1815
  146MOL0     H19691   0.793   5.222  11.790  0.4487 -0.4094 -0.7589
  146MOL0     H19692   1.717   5.236  11.307 -1.1848  1.2865  3.0274
  146MOL0     H19693   1.958   5.270  11.216 -0.6268  0.7779  0.6654
  146MOL0     H19694   2.343   5.209  11.113  2.0389 -3.3622 -0.4741
  146MOL0     H19695   2.559   5.295  11.039  0.7120 -3.4264 -0.4494
  146MOL0     H19696   3.617   5.086  10.210 -1.5844 -0.1849 -1.5667
  146MOL0     H19697   3.829   4.987  10.201 -1.1991 -0.7254 -1.9861
  146MOL0     H19698   4.079   4.892   9.922  0.5208  0.3705  1.3043
  146MOL0     H19699   4.200   4.769   9.754 -0.9463  0.4464 -2.1430
  146MOL0     H19700   4.524   4.915   9.539  2.2434  0.9274  0.6831
  146MOL0     H19701   4.616   4.911   9.680  0.6564  0.6062 -0.6384
  146MOL0     H19702   4.697   4.758   9.497  1.5499 -1.9518  0.3224
  146MOL0     H19703   4.541   4.662   9.536  0.3462 -0.2342 -0.2950
  146MOL0     H19704   4.759   4.574   9.633  2.0065  1.3420  1.6427
  146MOL0     H19705   4.630   4.619   9.754  0.4146 -1.2698 -0.3962
  146MOL0     H19706   4.760   4.807   9.811  3.1683  3.0206 -0.6029
  146MOL0     H19707   4.867   4.796   9.671  3.5857 -0.8381  3.1777
  146MOL0     H19708   5.091   4.518   9.850  1.4611  0.6482  0.0784
  146MOL0     H19709   4.527   5.040   9.809  0.4515 -1.9084 -0.2420
  146MOL0     H19710   4.407   5.168   9.959  0.7987 -0.5065  0.9076
  147MOL0     O19711   6.306   8.725   1.144  0.2648  0.4885 -0.0308
  147MOL0     C19712   6.359   8.715   1.257 -0.6964 -0.6340  0.8540
  147MOL0     O19713   6.307   8.761   1.366 -0.4531  0.6668  0.2330
  147MOL0     C19714   6.177   8.807   1.369 -0.2259  0.3676 -0.7915
  147MOL0     C19715   6.159   8.939   1.414  0.0323 -1.0981  0.1213
  147MOL0     C19716   6.032   9.007   1.406 -0.6761  0.1636 -0.7269
  147MOL0     C19717   5.922   8.938   1.361  0.6831  0.4424 -0.0598
  147MOL0     O19718   5.795   8.984   1.346  0.0793  0.3698  0.1864
  147MOL0     C19719   5.774   9.125   1.368 -0.4077 -0.0125  1.0647
  147MOL0     C19720   5.780   9.203   1.233 -0.1491 -0.5124 -0.2642
  147MOL0     C19721   5.711   9.138   1.113 -0.0744  0.2528  0.0018
  147MOL0     C19722   5.578   9.205   1.077 -0.3412  0.5924  0.2343
  147MOL0     C19723   5.510   9.140   0.955 -0.1591  0.2101  0.0238
  147MOL0     C19724   5.363   9.195   0.945 -0.3955  0.5655 -0.2333
  147MOL0     C19725   5.293   9.117   0.834  0.0700 -0.3940  0.1004
  147MOL0     C19726   5.360   9.130   0.699  0.0282  0.1378  0.4753
  147MOL0     N19727   5.293   9.056   0.596 -0.3365  0.3816  0.0430
  147MOL0     C19728   5.152   9.062   0.580 -1.2772  0.8184  0.9381
  147MOL0     C19729   5.135   9.021   0.450 -0.0393 -1.5637  0.5045
  147MOL0     C19730   5.007   9.010   0.378 -0.5998  0.8005  0.8789
  147MOL0     C19731   4.924   8.881   0.413 -1.5477 -0.3951  0.6849
  147MOL0     C19732   4.779   8.908   0.441  0.1951  0.2685 -0.1309
  147MOL0     C19733   4.727   8.781   0.516 -0.2269  0.1161  0.0612
  147MOL0     O19734   4.769   8.780   0.661  0.2564  0.2733 -0.0188
  147MOL0     C19735   4.662   8.790   0.756  0.1718 -0.2489  0.5576
  147MOL0     C19736   4.677   8.734   0.884 -0.1058  0.4991  0.5367
  147MOL0     C19737   4.586   8.751   0.986  0.9311  0.5923  0.0871
  147MOL0     C19738   4.614   8.688   1.120 -0.0190  0.5570 -0.1554
  147MOL0     C19739   4.461   8.810   0.958  0.3209  0.5139 -0.6853
  147MOL0     C19740   4.352   8.833   1.054  0.1037 -0.5309  1.0406
  147MOL0     O19741   4.222   8.826   0.998  0.1719  0.7940 -1.0461
  147MOL0     C19742   4.113   8.845   1.083 -0.3712 -0.3465  0.3259
  147MOL0     C19743   4.004   8.774   1.049  0.6265 -0.5054 -0.5427
  147MOL0     C19744   3.880   8.781   1.115  0.3165  0.0812  0.3611
  147MOL0     C19745   3.863   8.876   1.222 -0.2865  0.0303  0.1926
  147MOL0     O19746   3.750   8.888   1.296 -0.2866  0.0397 -0.3099
  147MOL0     C19747   3.625   8.855   1.224 -0.2709 -0.1331  0.3770
  147MOL0     C19748   3.508   8.930   1.288  0.2400 -0.6424  0.0635
  147MOL0     C19749   3.373   8.872   1.249  0.9497 -0.2865  0.0554
  147MOL0     C19750   3.257   8.938   1.323  0.8025  0.2243 -1.5376
  147MOL0     C19751   3.129   8.859   1.312 -0.5862 -0.3671 -0.6564
  147MOL0     C19752   3.022   8.909   1.402 -0.3428 -0.4351  0.8721
  147MOL0     C19753   2.903   8.819   1.388  0.5986  0.1055 -1.2419
  147MOL0     C19754   2.763   8.896   1.397 -0.2655  0.5274  0.3500
  147MOL0    Cl19755   2.618   8.788   1.384 -0.2059  0.2550 -0.0682
  147MOL0     C19756   3.982   8.946   1.263 -0.0663  1.1143 -0.7710
  147MOL0     C19757   4.102   8.935   1.194 -0.5787 -0.4092  0.0998
  147MOL0     O19758   4.385   8.860   1.171 -0.0721 -0.3570 -0.1736
  147MOL0     C19759   4.433   8.865   0.829  0.5060  0.5668 -0.5135
  147MOL0     C19760   4.537   8.846   0.730  0.2629 -1.0264 -0.6765
  147MOL0     N19761   5.255   8.980   0.403 -0.3784 -0.2700  0.0412
  147MOL0     N19762   5.349   9.010   0.484 -0.2094 -0.0044 -0.1719
  147MOL0     C19763   5.937   8.806   1.314 -0.8556 -0.0787  0.2549
  147MOL0     C19764   6.061   8.750   1.316 -0.3201 -1.1789 -0.6326
  147MOL0     C19765   6.487   8.636   1.276  0.4690 -0.2292 -0.6735
  147MOL0     C19766   6.525   8.600   1.414 -0.1528 -0.3649 -0.2641
  147MOL0     C19767   6.644   8.518   1.439  0.5166  0.3349  0.3492
  147MOL0     C19768   6.711   8.465   1.329  0.9174 -0.1623 -0.3291
  147MOL0     O19769   6.827   8.390   1.344  0.1510 -0.3782 -0.1753
  147MOL0     C19770   6.921   8.450   1.434 -0.6479 -0.0135  0.3443
  147MOL0     C19771   7.057   8.374   1.425 -0.5780 -0.4483 -0.9682
  147MOL0     C19772   7.144   8.401   1.305  1.1515  0.1568 -0.0507
  147MOL0     C19773   7.292   8.372   1.337  0.0456  0.3323 -0.5343
  147MOL0     C19774   7.327   8.232   1.360  0.0866 -0.4553 -0.5638
  147MOL0     C19775   7.375   8.117   1.362 -0.3031  0.1263 -0.1076
  147MOL0     C19776   6.658   8.487   1.197  0.2666  0.2661  0.6394
  147MOL0     C19777   6.560   8.576   1.171 -0.2971 -0.5603  0.4311
  147MOL0     H19778   6.238   9.003   1.453 -0.4204 -1.9590  2.6366
  147MOL0     H19779   6.027   9.108   1.445  2.4924  0.3584 -0.5976
  147MOL0     H19780   5.673   9.145   1.405 -0.1783  2.1324  0.6553
  147MOL0     H19781   5.837   9.182   1.437 -2.3625 -0.4211  3.3362
  147MOL0     H19782   5.736   9.301   1.249 -2.1912 -1.3589 -0.4495
  147MOL0     H19783   5.888   9.222   1.223 -0.1627  0.2751  0.8175
  147MOL0     H19784   5.777   9.125   1.026  0.4469 -0.9792  0.5534
  147MOL0     H19785   5.711   9.031   1.133  3.7515  0.2330  0.7695
  147MOL0     H19786   5.509   9.214   1.162  0.2720 -0.3974  0.8486
  147MOL0     H19787   5.606   9.309   1.058  0.5123  0.5360  1.0885
  147MOL0     H19788   5.571   9.171   0.869  0.0028  1.6585  0.6177
  147MOL0     H19789   5.498   9.033   0.974 -0.3742  0.1926 -0.2196
  147MOL0     H19790   5.324   9.180   1.046  0.2982  0.8960  0.0900
  147MOL0     H19791   5.373   9.301   0.921  2.0242  0.2940 -0.6914
  147MOL0     H19792   5.270   9.012   0.854 -0.0759 -0.7275 -1.6333
  147MOL0     H19793   5.195   9.161   0.814  0.9155  1.3808 -0.3865
  147MOL0     H19794   5.466   9.110   0.715  0.6388  3.3481  1.1974
  147MOL0     H19795   5.357   9.235   0.668 -0.6167  0.8871  2.8595
  147MOL0     H19796   5.081   9.092   0.656  1.6145  3.3785  2.8152
  147MOL0     H19797   4.942   9.098   0.378 -1.4385  0.2221 -1.0309
  147MOL0     H19798   5.046   9.004   0.276 -0.7245  1.0997  0.8115
  147MOL0     H19799   4.972   8.831   0.498  0.3383  1.0333  0.5454
  147MOL0     H19800   4.936   8.813   0.329  0.0762 -1.2485  1.5441
  147MOL0     H19801   4.728   8.928   0.346  0.7944 -1.4720 -0.8710
  147MOL0     H19802   4.777   8.997   0.503  0.3330  0.4314 -0.3603
  147MOL0     H19803   4.761   8.691   0.465 -0.5424 -0.9070  1.5873
  147MOL0     H19804   4.618   8.772   0.515 -0.4932  2.6156  0.3532
  147MOL0     H19805   4.768   8.680   0.908 -1.1204 -1.3682  0.4194
  147MOL0     H19806   4.698   8.618   1.120 -1.9221 -1.9871  2.4839
  147MOL0     H19807   4.646   8.770   1.186  0.8404  0.5816 -0.5835
  147MOL0     H19808   4.519   8.653   1.160  0.3504  1.4388  1.6085
  147MOL0     H19809   4.014   8.712   0.961  3.1885  0.3572 -0.9453
  147MOL0     H19810   3.800   8.713   1.088  2.3355 -2.0438 -0.5988
  147MOL0     H19811   3.645   8.892   1.123  0.9274 -1.0681  0.2431
  147MOL0     H19812   3.613   8.747   1.237 -0.4613 -0.4128 -1.7963
  147MOL0     H19813   3.515   8.913   1.396  2.6453 -1.9615 -0.2206
  147MOL0     H19814   3.518   9.038   1.270 -1.9965  0.1944  2.9963
  147MOL0     H19815   3.372   8.765   1.276  1.0625 -0.3487 -0.1911
  147MOL0     H19816   3.366   8.885   1.141  1.0910  3.1572  0.3493
  147MOL0     H19817   3.289   8.941   1.427 -1.0989 -0.2011 -0.9094
  147MOL0     H19818   3.242   9.042   1.292 -0.5265 -0.2350 -2.5046
  147MOL0     H19819   3.141   8.754   1.337 -0.9501  0.3281  3.0036
  147MOL0     H19820   3.094   8.865   1.208 -1.8339  1.6844 -0.1803
  147MOL0     H19821   3.074   8.909   1.498  0.6286  1.3531  0.4055
  147MOL0     H19822   3.004   9.015   1.383  2.4331  0.1406  1.0165
  147MOL0     H19823   2.892   8.747   1.469  0.0988  0.8786 -0.6030
  147MOL0     H19824   2.904   8.766   1.293  1.5116  0.4469 -1.4311
  147MOL0     H19825   2.755   8.965   1.312  0.6410 -0.4100 -0.5118
  147MOL0     H19826   2.756   8.946   1.494  0.9701 -0.7466  1.1317
  147MOL0     H19827   3.970   9.013   1.348  0.6663 -0.5078  0.6978
  147MOL0     H19828   4.185   9.004   1.204  1.3652 -2.7603  1.0613
  147MOL0     H19829   4.338   8.912   0.804  1.3951  2.6089 -0.3046
  147MOL0     H19830   4.509   8.884   0.632  0.8825  1.1268 -0.0563
  147MOL0     H19831   5.850   8.753   1.276 -1.8650  1.9023 -0.3537
  147MOL0     H19832   6.073   8.651   1.272 -0.1570 -1.3661 -0.1792
  147MOL0     H19833   6.464   8.636   1.496 -3.8381 -4.2887 -0.9526
  147MOL0     H19834   6.672   8.509   1.544 -0.2271  0.9314  0.6058
  147MOL0     H19835   6.930   8.556   1.413 -3.5619 -0.0565 -1.8039
  147MOL0     H19836   6.892   8.442   1.540  1.9922  0.1701  1.1408
  147MOL0     H19837   7.046   8.268   1.448  0.8989 -0.4255 -0.0733
  147MOL0     H19838   7.123   8.415   1.502  1.1530 -0.7015 -2.2711
  147MOL0     H19839   7.135   8.503   1.268  2.7424 -0.8373 -3.6954
  147MOL0     H19840   7.131   8.329   1.223 -2.8044 -0.7072  1.1342
  147MOL0     H19841   7.322   8.434   1.421 -1.9175  1.7226 -0.7795
  147MOL0     H19842   7.358   8.405   1.256 -0.8677  2.1605 -0.5953
  147MOL0     H19843   7.420   8.020   1.371  1.1786  0.5673 -2.0108
  147MOL0     H19844   6.698   8.436   1.110 -0.6925  0.6741 -0.0570
  147MOL0     H19845   6.525   8.601   1.072  0.4556 -1.0960  0.0171
  148MOL0     O19846   9.874   7.408   4.078  0.1603 -0.5033 -0.0833
  148MOL0     C19847   9.935   7.376   3.976 -0.6380  0.2343 -0.9815
  148MOL0     O19848  10.010   7.455   3.903  0.2224 -0.8112  0.1334
  148MOL0     C19849  10.007   7.587   3.946 -0.9690  0.3881  0.5645
  148MOL0     C19850   9.914   7.681   3.916  1.5063 -0.2516  0.4195
  148MOL0     C19851   9.949   7.811   3.940  0.5676  0.2066 -0.3100
  148MOL0     C19852  10.076   7.851   3.991  0.8239  0.1531  0.9115
  148MOL0     O19853  10.112   7.982   4.017 -0.6261  0.5964  0.8053
  148MOL0     C19854  10.020   8.063   4.092 -0.1293  0.0181  0.6409
  148MOL0     C19855   9.926   8.147   4.008  0.3083 -0.6305 -0.3418
  148MOL0     C19856   9.838   8.228   4.094  0.1884  0.1622  0.6637
  148MOL0     C19857   9.758   8.337   4.017 -0.4928  0.1760 -0.3261
  148MOL0     C19858   9.616   8.360   4.058  0.9742  0.7031 -0.2617
  148MOL0     C19859   9.515   8.267   3.993 -0.5093 -0.4392  0.8945
  148MOL0     C19860   9.391   8.278   4.080 -0.7384  0.1241  0.5588
  148MOL0     C19861   9.294   8.168   4.029 -0.7284  0.2544  0.4417
  148MOL0     N19862   9.183   8.157   4.123 -0.2172 -0.3171 -0.8290
  148MOL0     C19863   9.108   8.258   4.170  0.0022  0.0811 -0.0431
  148MOL0     C19864   9.035   8.212   4.272  0.7609 -0.7348  0.6472
  148MOL0     C19865   8.955   8.296   4.376  0.7447  0.0150  0.3656
  148MOL0     C19866   8.805   8.290   4.347  1.5272  0.1665 -0.0416
  148MOL0     C19867   8.754   8.149   4.371 -0.7754 -0.7119  0.6526
  148MOL0     C19868   8.598   8.140   4.400  0.9182 -0.3202  0.0104
  148MOL0     O19869   8.580   8.206   4.526 -0.6268 -0.8785 -0.3325
  148MOL0     C19870   8.450   8.224   4.572 -0.4157  0.5178 -0.0863
  148MOL0     C19871   8.344   8.136   4.535 -0.3495 -0.1192  0.3369
  148MOL0     C19872   8.207   8.157   4.573  0.9116 -0.0704 -0.3017
  148MOL0     C19873   8.102   8.069   4.499 -0.4036 -0.3996 -1.0055
  148MOL0     C19874   8.171   8.265   4.667 -0.3271  1.1489 -0.4398
  148MOL0     C19875   8.030   8.307   4.707 -0.0289 -0.6136  0.7646
  148MOL0     O19876   8.029   8.404   4.804 -0.1846  0.3293  0.1931
  148MOL0     C19877   7.910   8.457   4.840 -0.3068  0.0750  0.3780
  148MOL0     C19878   7.851   8.414   4.963 -0.7698 -0.0417 -0.5149
  148MOL0     C19879   7.716   8.440   4.984  0.9696 -0.0822  0.6648
  148MOL0     C19880   7.643   8.517   4.895  0.1946 -0.6662 -0.7641
  148MOL0     O19881   7.512   8.531   4.946 -0.2754  0.3020 -0.0209
  148MOL0     C19882   7.416   8.613   4.880 -0.5606  0.5145 -0.2900
  148MOL0     C19883   7.272   8.556   4.894 -0.3377 -0.2470 -1.0814
  148MOL0     C19884   7.236   8.526   5.043  0.0314 -0.8523 -0.2012
  148MOL0     C19885   7.094   8.458   5.054 -0.3566  0.4898  0.6429
  148MOL0     C19886   7.071   8.403   5.197 -0.0164 -0.0798 -0.6404
  148MOL0     C19887   6.924   8.350   5.218  0.4929 -0.3371 -0.3257
  148MOL0     C19888   6.808   8.436   5.185 -0.1960 -0.1897 -0.3832
  148MOL0     C19889   6.806   8.579   5.246  0.0795 -0.2059 -0.6939
  148MOL0    Cl19890   6.739   8.567   5.413 -0.1125  0.1239  0.0097
  148MOL0     C19891   7.706   8.561   4.778  0.1641 -0.3127  0.1439
  148MOL0     C19892   7.838   8.527   4.749  1.4308  0.4335  0.5061
  148MOL0     O19893   7.933   8.261   4.656  0.0191  0.5308 -0.3678
  148MOL0     C19894   8.282   8.349   4.700  0.7195  0.8701 -0.0019
  148MOL0     C19895   8.415   8.324   4.659 -0.3770 -0.4944 -0.3283
  148MOL0     N19896   9.070   8.078   4.286  0.2234 -0.1383 -0.3699
  148MOL0     N19897   9.157   8.047   4.190  0.1885  0.2328 -0.2959
  148MOL0     C19898  10.164   7.753   4.024 -0.1667 -0.5501  0.3566
  148MOL0     C19899  10.125   7.624   4.012 -0.0070  0.0960 -0.5342
  148MOL0     C19900   9.943   7.236   3.943 -0.6023  0.9988  0.2796
  148MOL0     C19901   9.833   7.157   3.968  0.2952 -0.2527 -0.3709
  148MOL0     C19902   9.823   7.028   3.926 -0.3566  0.3796 -0.2294
  148MOL0     C19903   9.939   6.961   3.875 -0.0106 -0.0995  0.2215
  148MOL0     O19904   9.945   6.828   3.836  0.1573  0.7748  0.3289
  148MOL0     C19905   9.839   6.741   3.889 -0.0735  0.3665 -1.5939
  148MOL0     C19906   9.889   6.592   3.866 -0.0230  1.0521 -0.5295
  148MOL0     C19907  10.015   6.562   3.951  0.1166  0.7627 -0.8320
  148MOL0     C19908  10.067   6.418   3.927  0.3027 -0.6581  0.2324
  148MOL0     C19909  10.192   6.383   3.997  0.4381  0.5061  0.2940
  148MOL0     C19910  10.290   6.333   4.038  0.1369 -0.0239  0.8683
  148MOL0     C19911  10.057   7.036   3.854  0.2914 -0.2938  0.1082
  148MOL0     C19912  10.058   7.179   3.877 -0.3678 -0.0247  0.5401
  148MOL0     H19913   9.819   7.655   3.869  1.6272 -0.3665  0.2365
  148MOL0     H19914   9.886   7.897   3.920 -1.1949 -0.4684  1.9259
  148MOL0     H19915   9.965   7.994   4.157 -0.0117 -0.7960 -0.1056
  148MOL0     H19916  10.071   8.134   4.158  2.6971 -0.4621 -0.8807
  148MOL0     H19917   9.985   8.218   3.949  1.2147  0.9241  2.2772
  148MOL0     H19918   9.865   8.089   3.938  0.0460  0.9116 -1.4357
  148MOL0     H19919   9.771   8.167   4.155  1.0804 -2.6972 -1.0132
  148MOL0     H19920   9.904   8.274   4.168 -0.4049 -0.1049  1.3763
  148MOL0     H19921   9.798   8.434   4.046 -1.4716  0.7944 -0.9900
  148MOL0     H19922   9.769   8.327   3.909 -3.4239  0.0218 -0.6830
  148MOL0     H19923   9.616   8.332   4.163 -1.8695 -1.7250 -0.7619
  148MOL0     H19924   9.593   8.464   4.033  3.8074  1.6822  0.9135
  148MOL0     H19925   9.484   8.297   3.893 -4.9045  2.2146  2.7163
  148MOL0     H19926   9.555   8.166   3.982  2.7195  1.0206 -2.9858
  148MOL0     H19927   9.412   8.261   4.186  0.1405 -1.6918  0.1382
  148MOL0     H19928   9.345   8.377   4.079  1.0017  0.9989  2.0425
  148MOL0     H19929   9.342   8.073   4.006  2.5786  2.4411 -2.6088
  148MOL0     H19930   9.257   8.209   3.935  1.2586 -0.5157 -0.7240
  148MOL0     H19931   9.127   8.361   4.140  1.7696 -0.4238 -0.7604
  148MOL0     H19932   8.972   8.260   4.478 -0.2621 -1.2033  0.1342
  148MOL0     H19933   8.988   8.400   4.371 -0.7754  0.5589  1.0700
  148MOL0     H19934   8.785   8.316   4.242  0.7290 -0.8385 -0.1570
  148MOL0     H19935   8.744   8.357   4.407  0.9744  0.1691 -0.5955
  148MOL0     H19936   8.801   8.105   4.460 -0.2342  1.0229  1.2834
  148MOL0     H19937   8.770   8.090   4.281 -0.3692 -2.1250  1.6226
  148MOL0     H19938   8.569   8.034   4.402  2.5691 -0.8023  0.0153
  148MOL0     H19939   8.543   8.190   4.320  0.5936  2.3653  1.7990
  148MOL0     H19940   8.358   8.048   4.473  0.9647 -0.2153  0.7298
  148MOL0     H19941   8.157   8.009   4.426  0.1304 -0.8177 -0.2777
  148MOL0     H19942   8.042   8.018   4.575 -0.1211  3.1003  1.8628
  148MOL0     H19943   8.038   8.137   4.443  1.4485  2.8161  0.5141
  148MOL0     H19944   7.913   8.373   5.042  0.5830  3.0881  0.2230
  148MOL0     H19945   7.675   8.409   5.080  1.8350  0.9717  1.4180
  148MOL0     H19946   7.426   8.715   4.916 -0.3450  0.4986 -0.3030
  148MOL0     H19947   7.443   8.612   4.774 -0.6539  3.0107 -0.3958
  148MOL0     H19948   7.206   8.631   4.850  0.3718  0.1752 -1.4600
  148MOL0     H19949   7.261   8.459   4.844 -0.2781 -0.6347 -0.3564
  148MOL0     H19950   7.221   8.620   5.097 -1.6988 -0.5301 -1.1590
  148MOL0     H19951   7.313   8.467   5.093 -1.0328 -2.5285 -0.4538
  148MOL0     H19952   7.028   8.537   5.016  1.2189  0.9500 -1.3077
  148MOL0     H19953   7.105   8.374   4.985 -0.8344  1.1144 -0.2192
  148MOL0     H19954   7.089   8.474   5.278  2.2888  0.9597 -1.9682
  148MOL0     H19955   7.136   8.319   5.222  1.3932  1.2671  0.4690
  148MOL0     H19956   6.918   8.259   5.159  1.0240  1.4219 -3.3168
  148MOL0     H19957   6.920   8.323   5.324 -1.5012  2.1762  0.3415
  148MOL0     H19958   6.717   8.384   5.217  0.2282 -0.5299  0.3013
  148MOL0     H19959   6.820   8.450   5.078 -0.1247  0.5377 -0.2876
  148MOL0     H19960   6.745   8.636   5.175  1.0870 -1.0345 -2.2858
  148MOL0     H19961   6.906   8.620   5.260  0.8594 -1.8611 -1.1960
  148MOL0     H19962   7.667   8.631   4.706  2.3321  1.7517  0.8544
  148MOL0     H19963   7.887   8.568   4.661  1.1682  0.4214  0.3554
  148MOL0     H19964   8.266   8.442   4.754  0.7100  0.6797  0.3253
  148MOL0     H19965   8.490   8.399   4.681 -0.4391 -0.7080  0.6637
  148MOL0     H19966  10.258   7.781   4.072  0.1985 -0.7260 -0.2418
  148MOL0     H19967  10.191   7.540   4.034 -0.7262  0.0179  1.5141
  148MOL0     H19968   9.752   7.215   4.011  0.4502 -0.2443 -0.0892
  148MOL0     H19969   9.729   6.973   3.919  1.1603 -2.4282 -0.3626
  148MOL0     H19970   9.809   6.756   3.993 -0.0657  1.2006 -1.7053
  148MOL0     H19971   9.741   6.756   3.842 -0.9763 -0.9594 -0.2455
  148MOL0     H19972   9.888   6.570   3.758 -1.1190  0.0993 -0.3527
  148MOL0     H19973   9.813   6.521   3.901  2.2258 -0.8279  0.7552
  148MOL0     H19974   9.984   6.562   4.056 -2.2574 -0.2328 -1.4626
  148MOL0     H19975  10.092   6.638   3.931  0.6375  0.0808 -1.4628
  148MOL0     H19976  10.094   6.405   3.821  2.2370  0.2758  0.5601
  148MOL0     H19977   9.980   6.358   3.955  0.8982 -1.1263  1.1162
  148MOL0     H19978  10.371   6.271   4.072 -0.9413 -0.0559  3.6730
  148MOL0     H19979  10.140   6.991   3.801  0.2585  1.3071 -1.4404
  148MOL0     H19980  10.135   7.244   3.839 -1.0216 -0.7265 -2.2431
  149MOL0     O19981   8.271   3.180  10.140  0.2440 -0.1575  0.0244
  149MOL0     C19982   8.218   3.268  10.208 -0.7010 -0.4193  0.0666
  149MOL0     O19983   8.082   3.286  10.231  0.0285 -0.0543  0.2508
  149MOL0     C19984   7.975   3.208  10.179 -1.2076  0.0117 -0.3608
  149MOL0     C19985   7.843   3.242  10.211 -0.1715 -0.2583 -0.4299
  149MOL0     C19986   7.744   3.157  10.197  0.3742  0.2947  0.6544
  149MOL0     C19987   7.752   3.041  10.119  0.2025 -0.0475  0.1402
  149MOL0     O19988   7.636   2.961  10.094  0.9584 -0.3621 -0.2763
  149MOL0     C19989   7.493   3.003  10.121  0.6269  0.2766 -0.5404
  149MOL0     C19990   7.414   2.868  10.108  1.0018 -0.3266 -0.3793
  149MOL0     C19991   7.266   2.897  10.072  0.0820  0.4366  0.5945
  149MOL0     C19992   7.178   2.777  10.053  0.7775  0.3817 -0.4315
  149MOL0     C19993   7.230   2.685   9.940 -0.1718 -0.6724  0.3500
  149MOL0     C19994   7.130   2.587   9.893  0.3898 -0.1126  0.3838
  149MOL0     C19995   7.198   2.480   9.812 -0.7650 -0.1289 -0.0294
  149MOL0     C19996   7.094   2.380   9.784  0.4738  0.3886 -0.3265
  149MOL0     N19997   7.161   2.276   9.696  0.1125  1.0819  0.0117
  149MOL0     C19998   7.203   2.150   9.746  0.9087 -0.0747  0.4372
  149MOL0     C19999   7.265   2.093   9.643 -0.1639  1.0392  0.7199
  149MOL0     C20000   7.332   1.957   9.641  0.1400 -0.6029 -0.0803
  149MOL0     C20001   7.241   1.833   9.653  0.7029  0.0257 -0.2218
  149MOL0     C20002   7.128   1.813   9.549  0.0511  0.0718 -0.3931
  149MOL0     C20003   7.184   1.816   9.408  0.7091  0.4450 -0.3986
  149MOL0     O20004   7.070   1.778   9.323  0.2433  0.3725 -0.0901
  149MOL0     C20005   6.985   1.881   9.297 -0.4480 -0.7012  0.7488
  149MOL0     C20006   7.001   2.023   9.307 -0.4080 -0.3944 -0.5962
  149MOL0     C20007   6.902   2.116   9.268 -0.6568  0.2559  0.2186
  149MOL0     C20008   6.940   2.263   9.265 -1.3355  0.6849 -0.2575
  149MOL0     C20009   6.781   2.071   9.214  0.1022  0.4405 -0.5015
  149MOL0     C20010   6.662   2.156   9.191  0.6787  0.1638  0.0750
  149MOL0     O20011   6.539   2.085   9.192 -0.0365 -0.2491  0.7732
  149MOL0     C20012   6.427   2.152   9.156 -0.2581 -0.8182 -0.2029
  149MOL0     C20013   6.384   2.159   9.018 -0.0109 -0.1931  1.4209
  149MOL0     C20014   6.269   2.229   8.982 -0.6290 -0.1555 -0.4318
  149MOL0     C20015   6.187   2.269   9.089  0.2786 -0.4170 -0.6724
  149MOL0     O20016   6.060   2.304   9.054  0.7541 -0.3877 -0.0046
  149MOL0     C20017   5.943   2.267   9.134  0.6211  0.3725  0.2393
  149MOL0     C20018   5.836   2.381   9.148 -0.7630 -0.9909 -0.4483
  149MOL0     C20019   5.698   2.326   9.174  0.4591 -0.4414  0.3461
  149MOL0     C20020   5.584   2.409   9.113  0.1617 -0.2027  0.2202
  149MOL0     C20021   5.442   2.360   9.151 -0.0137 -0.1182 -0.0796
  149MOL0     C20022   5.391   2.229   9.086 -0.3117 -0.1641 -1.1160
  149MOL0     C20023   5.233   2.215   9.107  0.5597  0.4399 -0.6308
  149MOL0     C20024   5.175   2.085   9.044 -0.3029 -0.5938  0.4900
  149MOL0    Cl20025   5.247   1.948   9.114 -0.1722  0.2984 -0.2324
  149MOL0     C20026   6.229   2.262   9.225 -0.3269  0.3930  0.1677
  149MOL0     C20027   6.358   2.212   9.251 -0.5904  0.1591 -0.0220
  149MOL0     O20028   6.674   2.271   9.155  0.1776 -0.0506  0.8818
  149MOL0     C20029   6.765   1.927   9.198  0.7296  0.0066 -0.3246
  149MOL0     C20030   6.864   1.842   9.239  0.6126  0.2559 -0.0044
  149MOL0     N20031   7.253   2.170   9.530  0.1074 -0.4544  0.0827
  149MOL0     N20032   7.184   2.277   9.559  0.9901 -0.6343 -0.1218
  149MOL0     C20033   7.881   3.005  10.073 -0.0091 -0.3015 -0.5208
  149MOL0     C20034   7.983   3.085  10.107 -0.7605 -0.3054  0.0848
  149MOL0     C20035   8.306   3.375  10.254  0.1290 -0.0456 -1.3009
  149MOL0     C20036   8.261   3.499  10.300 -0.0707  0.1601 -0.6865
  149MOL0     C20037   8.347   3.587  10.358  0.8339  0.9251 -0.2676
  149MOL0     C20038   8.478   3.567  10.351 -0.3224 -0.4789 -0.0087
  149MOL0     O20039   8.559   3.656  10.416  0.5882  0.1873 -1.0218
  149MOL0     C20040   8.670   3.710  10.347  0.1145  0.2443 -0.0564
  149MOL0     C20041   8.788   3.708  10.458  0.4973 -0.2029 -0.7112
  149MOL0     C20042   8.772   3.786  10.588  0.5904 -0.2353  0.0722
  149MOL0     C20043   8.895   3.787  10.677 -0.1019 -0.3819 -0.1425
  149MOL0     C20044   8.904   3.912  10.752  0.1217  0.0502 -0.2800
  149MOL0     C20045   8.916   4.010  10.831  0.2007  0.4023 -0.2957
  149MOL0     C20046   8.533   3.442  10.315 -0.1186  0.3194  0.1449
  149MOL0     C20047   8.447   3.346  10.265  0.1604  0.1717 -0.3210
  149MOL0     H20048   7.835   3.331  10.273  1.4831 -2.2386  2.9267
  149MOL0     H20049   7.645   3.184  10.232  0.4381  2.4104 -0.6204
  149MOL0     H20050   7.486   3.033  10.226  1.8894 -0.9060 -0.0904
  149MOL0     H20051   7.454   3.079  10.053 -2.2519 -0.1985  0.4397
  149MOL0     H20052   7.450   2.813  10.020 -5.3039 -2.8370 -1.9755
  149MOL0     H20053   7.425   2.802  10.194 -3.1597  2.8424  3.0505
  149MOL0     H20054   7.228   2.971  10.142 -0.2684  0.4349  0.4060
  149MOL0     H20055   7.265   2.951   9.977 -0.8234 -1.1460 -0.3425
  149MOL0     H20056   7.176   2.712  10.141  2.9961 -1.7607 -1.8391
  149MOL0     H20057   7.077   2.809  10.025  1.3983  1.8013 -1.1723
  149MOL0     H20058   7.261   2.744   9.853  0.5128 -2.1481 -0.4482
  149MOL0     H20059   7.321   2.636   9.974  1.5659  2.5239  0.7294
  149MOL0     H20060   7.082   2.543   9.981 -1.1687  0.0833 -0.3464
  149MOL0     H20061   7.053   2.640   9.836  1.0045  0.0940 -0.2616
  149MOL0     H20062   7.231   2.521   9.716 -0.4109 -2.7185 -1.0880
  149MOL0     H20063   7.271   2.435   9.879 -1.7330  1.1617  1.9781
  149MOL0     H20064   7.013   2.425   9.726 -0.3893  3.3593  2.8271
  149MOL0     H20065   7.051   2.337   9.875 -0.9274 -2.9133 -2.3604
  149MOL0     H20066   7.214   2.133   9.853 -0.2181 -2.5240  0.2407
  149MOL0     H20067   7.384   1.969   9.546  0.2806 -0.1206  0.0534
  149MOL0     H20068   7.403   1.937   9.723  0.2837 -0.1269 -0.0855
  149MOL0     H20069   7.190   1.833   9.749  1.9523 -1.3997  0.4770
  149MOL0     H20070   7.297   1.740   9.658  2.2899  0.8334 -1.7089
  149MOL0     H20071   7.052   1.892   9.550  0.0592  0.0780 -0.0305
  149MOL0     H20072   7.081   1.716   9.563 -0.9999  0.2367 -2.4639
  149MOL0     H20073   7.263   1.741   9.399  0.3784 -0.3377  2.2976
  149MOL0     H20074   7.240   1.906   9.382  1.5210 -0.1533 -0.7764
  149MOL0     H20075   7.096   2.054   9.350 -0.5856 -1.4617  0.6044
  149MOL0     H20076   6.990   2.292   9.172  0.7199 -1.1100  0.1975
  149MOL0     H20077   6.857   2.331   9.285 -1.1493  0.3762  1.8363
  149MOL0     H20078   7.017   2.274   9.342 -2.5110 -1.5575  1.3665
  149MOL0     H20079   6.442   2.126   8.932 -0.7487 -0.5024  1.0355
  149MOL0     H20080   6.239   2.248   8.880  0.4443  0.2404 -0.6863
  149MOL0     H20081   5.899   2.178   9.089  0.0695  1.1172 -0.7170
  149MOL0     H20082   5.963   2.227   9.234 -4.7052 -1.9668  0.6978
  149MOL0     H20083   5.873   2.448   9.225  1.6669 -0.6168 -1.8343
  149MOL0     H20084   5.826   2.439   9.056 -2.9654  0.6697  0.7579
  149MOL0     H20085   5.679   2.310   9.281 -1.0593 -1.7462 -0.0788
  149MOL0     H20086   5.692   2.227   9.129  1.5260  0.9504 -3.1661
  149MOL0     H20087   5.598   2.509   9.156 -2.1862 -0.1222  0.9791
  149MOL0     H20088   5.588   2.421   9.005 -1.2138 -0.3659  0.1287
  149MOL0     H20089   5.369   2.438   9.126  0.5003 -0.1318 -1.7308
  149MOL0     H20090   5.453   2.356   9.260  0.4607  1.4720 -0.0358
  149MOL0     H20091   5.417   2.227   8.979  0.3851 -0.6497 -0.9456
  149MOL0     H20092   5.442   2.147   9.137  1.4326  1.7349  0.3262
  149MOL0     H20093   5.184   2.301   9.060  0.2987  0.2339 -0.7376
  149MOL0     H20094   5.217   2.202   9.214  1.3899  0.6078 -0.4839
  149MOL0     H20095   5.200   2.087   8.938  0.3341  3.1847  0.5365
  149MOL0     H20096   5.067   2.077   9.061 -0.2930 -2.0297 -0.0115
  149MOL0     H20097   6.165   2.299   9.304 -2.0416 -2.2031  0.1046
  149MOL0     H20098   6.384   2.187   9.353 -0.8254  0.4222  0.1040
  149MOL0     H20099   6.675   1.886   9.153  0.5845  2.5131 -2.5301
  149MOL0     H20100   6.837   1.737   9.234  0.8564  0.2545 -3.8531
  149MOL0     H20101   7.908   2.916  10.017 -1.6043 -2.1166  1.4162
  149MOL0     H20102   8.082   3.056  10.072  0.2935  1.7887  1.1492
  149MOL0     H20103   8.157   3.529  10.297  0.0752  1.1184  1.5271
  149MOL0     H20104   8.302   3.680  10.392 -1.5485  0.2517 -1.4161
  149MOL0     H20105   8.698   3.640  10.268 -0.2084  0.7845 -0.6517
  149MOL0     H20106   8.653   3.813  10.315  3.4139  1.6464  2.0735
  149MOL0     H20107   8.882   3.743  10.415  0.9294 -0.4625  0.0016
  149MOL0     H20108   8.799   3.604  10.489 -1.5537 -0.6208 -1.2310
  149MOL0     H20109   8.687   3.750  10.647  2.0984 -1.8855  1.3631
  149MOL0     H20110   8.750   3.888  10.555  0.9395 -0.7867 -1.9926
  149MOL0     H20111   8.983   3.785  10.613 -0.3672  1.8188 -0.6633
  149MOL0     H20112   8.898   3.698  10.741  0.2779 -0.3917 -0.1738
  149MOL0     H20113   8.932   4.095  10.893  1.2249  0.7847 -1.0595
  149MOL0     H20114   8.638   3.419  10.332 -0.3499 -0.7466  0.2091
  149MOL0     H20115   8.481   3.243  10.263  0.6111  0.2332  1.9726
  150MOL0     O20116   4.880   4.151   2.364 -0.0658  0.4549 -0.0279
  150MOL0     C20117   4.885   4.198   2.249  0.0309 -0.3379 -0.2026
  150MOL0     O20118   4.774   4.247   2.174  0.0631  0.2464  0.1635
  150MOL0     C20119   4.643   4.222   2.203  0.0975 -0.5787  0.2421
  150MOL0     C20120   4.587   4.215   2.335 -0.4701 -0.5791  0.0288
  150MOL0     C20121   4.459   4.164   2.351 -0.1409 -0.1425 -0.3578
  150MOL0     C20122   4.384   4.126   2.239  1.1862  0.3048 -1.0508
  150MOL0     O20123   4.259   4.077   2.270  0.1125 -0.1214  0.3793
  150MOL0     C20124   4.161   4.111   2.172 -0.0678  0.0006  0.2012
  150MOL0     C20125   4.018   4.061   2.207 -0.0541 -0.3679 -0.7797
  150MOL0     C20126   3.914   4.098   2.108  0.3779  0.1682 -0.8019
  150MOL0     C20127   3.960   4.080   1.961  0.4182  0.0550  0.4004
  150MOL0     C20128   3.847   4.038   1.866 -0.0757  0.4998  0.9392
  150MOL0     C20129   3.747   4.144   1.838  0.1455 -0.8448  0.4522
  150MOL0     C20130   3.650   4.087   1.737 -0.4293 -0.1526 -0.7432
  150MOL0     C20131   3.523   4.165   1.734  0.3553 -0.0082 -1.0809
  150MOL0     N20132   3.415   4.123   1.645 -0.3360 -0.2987  0.6401
  150MOL0     C20133   3.431   4.038   1.544  0.4536  0.0798  0.2915
  150MOL0     C20134   3.303   4.038   1.476 -0.0430 -0.3281 -0.7858
  150MOL0     C20135   3.275   3.986   1.342  0.1419 -0.4836 -0.3679
  150MOL0     C20136   3.304   4.092   1.238 -0.2482  0.2034 -0.0043
  150MOL0     C20137   3.276   4.030   1.101 -0.2559  0.5669  0.3246
  150MOL0     C20138   3.129   3.996   1.059 -0.4787 -0.1375 -0.0209
  150MOL0     O20139   3.115   4.036   0.923  0.1957  0.2007 -0.3521
  150MOL0     C20140   2.988   4.016   0.881  0.7730  0.3120 -0.0474
  150MOL0     C20141   2.948   3.905   0.807  0.0545 -0.1567  0.0814
  150MOL0     C20142   2.819   3.900   0.740 -0.3740 -0.0030 -0.1489
  150MOL0     C20143   2.793   3.782   0.654 -0.4559 -0.1884  0.0073
  150MOL0     C20144   2.717   3.987   0.787 -0.3370  0.4386 -0.8165
  150MOL0     C20145   2.581   3.982   0.743 -0.1184 -0.0283 -0.3355
  150MOL0     O20146   2.482   3.993   0.843  0.1764  0.2914 -0.3148
  150MOL0     C20147   2.350   3.986   0.814 -0.9312  0.0516  0.3500
  150MOL0     C20148   2.298   4.068   0.712 -0.1656  0.1779  0.3056
  150MOL0     C20149   2.169   4.058   0.668 -0.4550  0.6850 -0.5352
  150MOL0     C20150   2.078   3.970   0.729 -0.1347 -0.1840  0.3142
  150MOL0     O20151   1.945   3.964   0.690  0.0274  0.1716  0.5354
  150MOL0     C20152   1.857   3.858   0.730 -0.2857  0.4622 -0.0134
  150MOL0     C20153   1.726   3.870   0.657  0.7015 -0.4486 -0.6471
  150MOL0     C20154   1.631   3.768   0.730 -0.0731  0.6953 -0.1054
  150MOL0     C20155   1.496   3.768   0.648  0.0880 -0.9183  1.1921
  150MOL0     C20156   1.385   3.695   0.726 -0.3822  0.5128 -0.0823
  150MOL0     C20157   1.423   3.581   0.820  0.1649  0.2372  0.6528
  150MOL0     C20158   1.295   3.512   0.870 -1.2287 -0.1406 -0.1998
  150MOL0     C20159   1.337   3.420   0.988  0.6935  0.8724  0.5088
  150MOL0    Cl20160   1.210   3.305   1.018  0.0401 -0.0147 -0.1653
  150MOL0     C20161   2.139   3.887   0.830 -0.7963 -0.0409 -0.0998
  150MOL0     C20162   2.267   3.895   0.867  0.7087 -0.4930  0.2394
  150MOL0     O20163   2.566   3.963   0.619  0.0075 -0.1615  0.4933
  150MOL0     C20164   2.756   4.098   0.865  0.0089 -0.4024 -1.3973
  150MOL0     C20165   2.889   4.104   0.917 -0.2289 -0.6094 -0.3270
  150MOL0     N20166   3.214   4.117   1.553  0.7203 -0.3671  0.1400
  150MOL0     N20167   3.289   4.164   1.655  0.2726  0.7966  0.5290
  150MOL0     C20168   4.438   4.138   2.116 -0.1532  1.1265 -0.6103
  150MOL0     C20169   4.569   4.181   2.098  0.1869 -0.0053  1.1021
  150MOL0     C20170   5.018   4.214   2.188 -1.0106  0.0294  0.4523
  150MOL0     C20171   5.133   4.199   2.262  0.0264  0.2977 -0.1747
  150MOL0     C20172   5.261   4.222   2.206 -0.2933 -0.5664 -0.1500
  150MOL0     C20173   5.278   4.249   2.065  0.0360  1.2794  0.1874
  150MOL0     O20174   5.404   4.262   2.015  0.2125 -0.1990 -0.3750
  150MOL0     C20175   5.437   4.358   1.913  0.1453 -0.8583  0.1552
  150MOL0     C20176   5.426   4.502   1.955 -0.0106 -0.5070  0.6960
  150MOL0     C20177   5.437   4.586   1.821  0.3894 -0.2371 -0.7599
  150MOL0     C20178   5.450   4.738   1.872  0.0500  0.5714  0.5544
  150MOL0     C20179   5.577   4.760   1.942 -1.1461 -0.0305  0.1830
  150MOL0     C20180   5.691   4.781   1.995  0.0584  0.3946 -0.2084
  150MOL0     C20181   5.162   4.265   1.993  0.4388  0.3427 -0.1192
  150MOL0     C20182   5.040   4.240   2.048  0.7933  0.2886  0.2476
  150MOL0     H20183   4.650   4.241   2.420  0.1509  2.9256 -1.3217
  150MOL0     H20184   4.414   4.141   2.447 -0.6372  1.3738 -0.1922
  150MOL0     H20185   4.156   4.220   2.160 -1.9436 -0.0292  0.5334
  150MOL0     H20186   4.186   4.058   2.080  0.9168  1.4476 -0.4091
  150MOL0     H20187   4.020   3.954   2.230 -2.2902  0.1889  2.8786
  150MOL0     H20188   3.985   4.106   2.302  1.5355  0.6682 -0.6773
  150MOL0     H20189   3.824   4.037   2.112  2.4125 -3.1717 -1.6306
  150MOL0     H20190   3.878   4.197   2.134  0.7190  0.2031 -0.4597
  150MOL0     H20191   3.995   4.180   1.931 -1.6399  1.2533  1.6966
  150MOL0     H20192   4.029   3.997   1.950  0.3580  0.0517  0.0403
  150MOL0     H20193   3.902   4.009   1.775 -1.0587  0.6050  0.2944
  150MOL0     H20194   3.791   3.955   1.910 -0.0942  0.2959  0.5382
  150MOL0     H20195   3.688   4.166   1.927 -4.4076  0.4006 -2.5340
  150MOL0     H20196   3.797   4.233   1.799 -0.8683 -0.1934  0.6077
  150MOL0     H20197   3.682   4.078   1.633  0.4159  0.8025 -0.5741
  150MOL0     H20198   3.629   3.984   1.769  0.4508  0.3962  1.8665
  150MOL0     H20199   3.541   4.272   1.721  0.3346  1.2102  5.4512
  150MOL0     H20200   3.487   4.140   1.834  2.2080 -2.3045 -0.8987
  150MOL0     H20201   3.523   3.988   1.515  1.6035  1.8132  0.7573
  150MOL0     H20202   3.339   3.899   1.329 -1.7317 -2.3068  1.8104
  150MOL0     H20203   3.171   3.955   1.337  0.6555 -2.2057 -1.3338
  150MOL0     H20204   3.410   4.117   1.235 -0.2813  0.3268 -0.1263
  150MOL0     H20205   3.256   4.188   1.257 -0.6971 -0.3692  2.0295
  150MOL0     H20206   3.345   3.947   1.085 -0.6023  0.5369 -1.1338
  150MOL0     H20207   3.300   4.107   1.028  0.0144  0.0464 -0.1397
  150MOL0     H20208   3.060   4.049   1.126  0.0707 -1.1844  1.4288
  150MOL0     H20209   3.103   3.890   1.070 -0.1235 -0.1475  0.8397
  150MOL0     H20210   3.029   3.840   0.773 -0.3667  1.2282 -4.1218
  150MOL0     H20211   2.885   3.724   0.665  0.4020  0.6315 -2.2543
  150MOL0     H20212   2.704   3.729   0.688 -0.7851  1.2936  1.6119
  150MOL0     H20213   2.788   3.816   0.550 -1.5348  0.4160  0.2435
  150MOL0     H20214   2.366   4.136   0.662  1.3745 -1.5242 -0.0055
  150MOL0     H20215   2.136   4.129   0.593 -0.9193 -0.3528 -1.3574
  150MOL0     H20216   1.900   3.763   0.697  1.9422  1.4248 -0.0822
  150MOL0     H20217   1.837   3.858   0.838 -0.3873  0.6290 -0.0323
  150MOL0     H20218   1.677   3.967   0.649  1.5100 -0.1979 -3.1337
  150MOL0     H20219   1.736   3.847   0.551 -1.1554  0.3193 -1.0242
  150MOL0     H20220   1.603   3.812   0.826 -0.4656 -1.5182  0.8611
  150MOL0     H20221   1.669   3.665   0.732 -4.6254 -1.4072 -3.2722
  150MOL0     H20222   1.470   3.871   0.623  0.3672 -1.5617 -2.2601
  150MOL0     H20223   1.502   3.719   0.550 -1.3064  0.5096  0.3364
  150MOL0     H20224   1.314   3.659   0.652 -1.3191  0.4284  0.8267
  150MOL0     H20225   1.327   3.769   0.783  0.9929  1.8543 -0.3459
  150MOL0     H20226   1.488   3.505   0.777  0.0853  0.8306 -0.5745
  150MOL0     H20227   1.477   3.624   0.905 -1.8942 -0.4793  2.4180
  150MOL0     H20228   1.251   3.453   0.790  0.2771 -1.2936 -0.2198
  150MOL0     H20229   1.228   3.592   0.904  0.8749  2.5663 -1.9851
  150MOL0     H20230   1.378   3.465   1.079  1.0404 -0.6118  1.1086
  150MOL0     H20231   1.422   3.362   0.951  0.1522  0.5546 -0.2516
  150MOL0     H20232   2.092   3.806   0.885  1.9745 -3.4173 -2.2724
  150MOL0     H20233   2.310   3.824   0.937  0.5232 -1.7263 -0.8742
  150MOL0     H20234   2.685   4.178   0.885 -0.0357 -1.3949  4.2820
  150MOL0     H20235   2.911   4.184   0.987 -3.5976 -1.2698  1.7496
  150MOL0     H20236   4.388   4.104   2.026 -2.2234  1.0884  0.4912
  150MOL0     H20237   4.608   4.173   1.997  0.8071 -3.3601  1.5174
  150MOL0     H20238   5.132   4.163   2.364 -1.0312  0.2086 -0.2040
  150MOL0     H20239   5.342   4.206   2.276 -1.4250  0.4553  1.4736
  150MOL0     H20240   5.537   4.340   1.872 -0.2078 -2.7879  0.0286
  150MOL0     H20241   5.377   4.350   1.822  2.3733  1.2725 -1.6486
  150MOL0     H20242   5.509   4.522   2.023 -0.6815  0.8991  1.1400
  150MOL0     H20243   5.334   4.530   2.007  0.0332 -1.6711  1.4284
  150MOL0     H20244   5.349   4.574   1.758  0.8718  1.0856 -1.7303
  150MOL0     H20245   5.523   4.554   1.761  1.3285  2.1627 -0.8265
  150MOL0     H20246   5.362   4.756   1.934  0.2413  0.2463  0.9260
  150MOL0     H20247   5.454   4.802   1.784  2.1799  0.8744  0.8134
  150MOL0     H20248   5.783   4.794   2.048  0.7501  2.9380 -1.8559
  150MOL0     H20249   5.177   4.287   1.887  0.7327  0.9586  0.0495
  150MOL0     H20250   4.952   4.231   1.984 -0.9491 -4.5888  2.8411
  151MOL0     O20251   2.276   6.934   1.714  0.1837  0.6338  0.4795
  151MOL0     C20252   2.306   6.937   1.831  1.1138 -0.8752  0.0450
  151MOL0     O20253   2.210   6.964   1.926  0.3281  0.4030  0.9842
  151MOL0     C20254   2.081   6.970   1.879  0.1398 -0.1151 -0.6571
  151MOL0     C20255   1.997   6.854   1.858 -0.6728 -0.0444  0.0962
  151MOL0     C20256   1.864   6.859   1.826  0.5528 -0.8391 -0.0791
  151MOL0     C20257   1.811   6.993   1.819  0.4492  0.5131  0.2674
  151MOL0     O20258   1.680   7.007   1.778  0.1430  1.0014  0.4377
  151MOL0     C20259   1.575   6.913   1.837 -1.4181 -0.2564 -0.2981
  151MOL0     C20260   1.455   6.936   1.748 -0.0330  0.2120  0.3355
  151MOL0     C20261   1.338   6.841   1.779 -0.8049  1.2059 -1.1847
  151MOL0     C20262   1.212   6.866   1.704  0.7464  0.3305  0.7398
  151MOL0     C20263   1.091   6.770   1.741  0.2400 -0.5403  0.0630
  151MOL0     C20264   0.958   6.824   1.669 -0.1700  0.4624 -0.0520
  151MOL0     C20265   0.823   6.757   1.697  0.2883  0.1379  0.1954
  151MOL0     C20266   0.700   6.841   1.646  0.1055  0.2180 -0.4076
  151MOL0     N20267   0.575   6.760   1.652 -0.5077  0.2024 -0.0404
  151MOL0     C20268   0.492   6.757   1.760 -0.1929  0.3248 -0.1021
  151MOL0     C20269   0.383   6.683   1.715  0.2383  0.5786  0.2919
  151MOL0     C20270   0.268   6.669   1.816 -0.1191 -0.6073 -0.0820
  151MOL0     C20271   0.184   6.795   1.804  0.2301  0.4747  1.2092
  151MOL0     C20272   0.135   6.818   1.662  0.1242  0.6803 -0.0719
  151MOL0     C20273   0.055   6.691   1.602 -0.1836 -0.6143 -0.6400
  151MOL0     O20274  -0.059   6.664   1.688 -0.4258  0.2249 -0.0138
  151MOL0     C20275  -0.157   6.572   1.647  0.4605 -0.8166 -0.5322
  151MOL0     C20276  -0.162   6.512   1.525 -0.4376  0.8393  0.0338
  151MOL0     C20277  -0.266   6.414   1.497 -1.0368 -0.1178  0.6480
  151MOL0     C20278  -0.255   6.364   1.354 -0.0314  0.4459  0.4219
  151MOL0     C20279  -0.362   6.375   1.589  0.9691 -0.2594  0.2938
  151MOL0     C20280  -0.471   6.277   1.560 -1.2356 -0.6177  0.6728
  151MOL0     O20281  -0.535   6.238   1.678  0.3476 -0.1253  0.4446
  151MOL0     C20282  -0.663   6.193   1.645  0.1204 -0.3248 -0.3538
  151MOL0     C20283  -0.695   6.053   1.638  0.3376 -0.8246 -0.0738
  151MOL0     C20284  -0.830   6.007   1.613  0.4839 -0.2477  0.0952
  151MOL0     C20285  -0.937   6.103   1.607  0.0092 -0.1909 -0.1878
  151MOL0     O20286  -1.075   6.079   1.585 -0.5102  0.2153  0.1455
  151MOL0     C20287  -1.116   5.942   1.547  0.4473 -0.0617  0.2033
  151MOL0     C20288  -1.261   5.957   1.486 -1.2614  0.0803 -0.3916
  151MOL0     C20289  -1.337   5.824   1.473  0.3127  0.8177 -0.6931
  151MOL0     C20290  -1.255   5.715   1.395  0.0466  0.0067 -0.7986
  151MOL0     C20291  -1.344   5.590   1.394  0.8703  0.9585 -0.1779
  151MOL0     C20292  -1.285   5.463   1.334 -0.2385  1.1417 -0.0590
  151MOL0     C20293  -1.374   5.348   1.350 -0.0423  0.6361  0.5550
  151MOL0     C20294  -1.387   5.312   1.496  0.4636 -0.1534 -0.0605
  151MOL0    Cl20295  -1.408   5.139   1.525  0.0856  0.3822 -0.0633
  151MOL0     C20296  -0.903   6.236   1.633 -0.3896 -0.3557  0.5226
  151MOL0     C20297  -0.771   6.283   1.646  0.1210 -0.0835  0.6122
  151MOL0     O20298  -0.497   6.245   1.447  0.5595 -0.2220  0.4159
  151MOL0     C20299  -0.344   6.434   1.719  0.7971  0.4441 -0.1243
  151MOL0     C20300  -0.246   6.529   1.747 -0.2921  0.3451 -0.2199
  151MOL0     N20301   0.403   6.644   1.586 -0.4320 -0.4618 -0.1510
  151MOL0     N20302   0.517   6.688   1.557  0.7164  0.0119 -0.5746
  151MOL0     C20303   1.887   7.102   1.833  0.2420 -0.5586  0.1055
  151MOL0     C20304   2.025   7.098   1.857  0.0244  0.0339  0.0293
  151MOL0     C20305   2.451   6.935   1.867  0.1441 -0.3886  0.5317
  151MOL0     C20306   2.480   6.970   1.999 -0.7429 -0.3726 -0.4798
  151MOL0     C20307   2.618   6.961   2.037 -1.1121 -0.4423  0.3152
  151MOL0     C20308   2.722   6.938   1.942 -0.4840 -0.6386 -1.0500
  151MOL0     O20309   2.861   6.950   1.964 -0.5697  0.0296 -0.8861
  151MOL0     C20310   2.894   6.993   2.098  0.0030 -0.5087 -0.3942
  151MOL0     C20311   3.044   7.023   2.108  0.0246  0.8437  0.3471
  151MOL0     C20312   3.069   7.109   2.238 -0.7747 -0.6121  1.2121
  151MOL0     C20313   3.223   7.117   2.260  0.1375  0.0693 -0.5862
  151MOL0     C20314   3.258   7.218   2.362 -0.1026 -0.1071  0.0661
  151MOL0     C20315   3.295   7.283   2.458 -0.3661 -0.0367 -0.5442
  151MOL0     C20316   2.684   6.902   1.818 -0.3424 -0.2187  0.3540
  151MOL0     C20317   2.553   6.900   1.778 -0.3275 -0.9647 -0.6598
  151MOL0     H20318   2.054   6.762   1.867 -2.0718 -0.9669 -0.1588
  151MOL0     H20319   1.805   6.769   1.815 -0.5517  0.0158 -1.3650
  151MOL0     H20320   1.606   6.808   1.835 -2.3448 -0.5341 -0.3040
  151MOL0     H20321   1.550   6.932   1.942 -0.4764 -1.9485  0.2801
  151MOL0     H20322   1.421   7.040   1.753 -3.7139 -0.8759  1.0801
  151MOL0     H20323   1.491   6.899   1.652 -1.4217 -0.4778  0.0627
  151MOL0     H20324   1.368   6.736   1.776 -1.3081  0.9467  0.9042
  151MOL0     H20325   1.319   6.846   1.887  0.6585 -0.8028 -0.7882
  151MOL0     H20326   1.184   6.970   1.723  1.8316  0.4294  1.9225
  151MOL0     H20327   1.235   6.849   1.598  4.1562  2.5445  0.9589
  151MOL0     H20328   1.120   6.669   1.712  0.2075 -0.8783  1.1689
  151MOL0     H20329   1.079   6.778   1.850 -1.8685  0.6369 -0.1869
  151MOL0     H20330   0.944   6.925   1.709  0.0091  0.0515  1.0987
  151MOL0     H20331   0.972   6.835   1.562  2.5027  1.1135  0.2856
  151MOL0     H20332   0.818   6.657   1.654  0.5148 -0.7737  2.1741
  151MOL0     H20333   0.813   6.740   1.805  4.0589  0.6055  0.7578
  151MOL0     H20334   0.714   6.865   1.540  0.9770 -0.3028 -0.4173
  151MOL0     H20335   0.689   6.932   1.706 -1.4719 -1.0557  1.3511
  151MOL0     H20336   0.494   6.793   1.862  2.2084 -2.6716  1.1001
  151MOL0     H20337   0.205   6.583   1.792  1.1010 -1.6358  0.2557
  151MOL0     H20338   0.309   6.663   1.918 -0.3388  0.6363  0.0933
  151MOL0     H20339   0.241   6.884   1.833  0.7475  0.8947 -0.9175
  151MOL0     H20340   0.094   6.778   1.864  0.0789  0.1080  0.8790
  151MOL0     H20341   0.228   6.838   1.609 -0.8250 -0.6434 -2.4136
  151MOL0     H20342   0.073   6.907   1.649  2.2080  2.1727 -0.2380
  151MOL0     H20343   0.114   6.600   1.591 -0.4594 -0.8125 -0.5131
  151MOL0     H20344   0.007   6.718   1.508  0.0496 -0.8593 -0.8317
  151MOL0     H20345  -0.092   6.524   1.443 -0.5837 -1.0864 -0.4182
  151MOL0     H20346  -0.326   6.420   1.294  0.4343  0.2842 -0.2951
  151MOL0     H20347  -0.152   6.371   1.318 -0.1326  0.0765  0.0531
  151MOL0     H20348  -0.274   6.256   1.358  2.9267 -0.1705  0.0835
  151MOL0     H20349  -0.612   5.984   1.634  0.9074 -0.2104  0.8526
  151MOL0     H20350  -0.842   5.901   1.596 -2.3114  0.3096 -2.4287
  151MOL0     H20351  -1.054   5.917   1.460 -0.1147  3.7884 -1.4978
  151MOL0     H20352  -1.121   5.872   1.631 -1.1430 -1.1904 -0.7673
  151MOL0     H20353  -1.320   6.015   1.558  1.8028 -1.3845  3.6610
  151MOL0     H20354  -1.257   6.012   1.391 -1.3646  0.5610 -0.1229
  151MOL0     H20355  -1.433   5.838   1.422 -0.5757  0.6420  0.8559
  151MOL0     H20356  -1.356   5.783   1.573 -1.3683 -0.0539 -1.3210
  151MOL0     H20357  -1.235   5.744   1.292 -0.2977  1.4661 -0.4837
  151MOL0     H20358  -1.156   5.694   1.437 -1.1690  0.1091  2.3682
  151MOL0     H20359  -1.436   5.604   1.337  1.5998 -2.2433 -2.3930
  151MOL0     H20360  -1.380   5.573   1.495  1.2775 -2.1925 -0.4687
  151MOL0     H20361  -1.270   5.481   1.227 -1.6566 -0.3074 -0.5422
  151MOL0     H20362  -1.189   5.443   1.383 -0.0980 -1.7321 -1.2861
  151MOL0     H20363  -1.323   5.264   1.303 -0.1512  0.6513  0.4078
  151MOL0     H20364  -1.477   5.358   1.314 -0.0142 -0.3717  0.1606
  151MOL0     H20365  -1.466   5.378   1.532  0.2433  1.7086 -3.4851
  151MOL0     H20366  -1.292   5.348   1.537  0.0300 -1.5076  2.2701
  151MOL0     H20367  -0.991   6.300   1.632 -0.6067 -0.6550 -0.5092
  151MOL0     H20368  -0.758   6.389   1.665 -1.4819  0.5659 -1.5016
  151MOL0     H20369  -0.400   6.393   1.802  0.6157  1.6097  0.3560
  151MOL0     H20370  -0.227   6.538   1.854  2.9600 -1.7377 -0.4905
  151MOL0     H20371   1.840   7.200   1.827  0.7847 -0.2666  0.5082
  151MOL0     H20372   2.086   7.185   1.879  0.1455  0.7693 -2.8497
  151MOL0     H20373   2.405   6.992   2.074  1.2737 -1.6075  2.0813
  151MOL0     H20374   2.638   6.978   2.143 -0.3830 -2.1520  0.4921
  151MOL0     H20375   2.843   7.085   2.127  2.1365  1.3376 -2.0877
  151MOL0     H20376   2.870   6.911   2.167  0.3791  0.9591  1.5872
  151MOL0     H20377   3.067   7.072   2.013  1.9621  2.0643  1.3756
  151MOL0     H20378   3.099   6.929   2.115  0.6622  1.1562 -0.3497
  151MOL0     H20379   3.027   7.047   2.318  2.0945 -1.5159  2.1397
  151MOL0     H20380   3.016   7.204   2.231 -1.3729 -1.0002  0.2492
  151MOL0     H20381   3.276   7.146   2.169 -0.2554 -0.1292 -0.8851
  151MOL0     H20382   3.272   7.022   2.280  0.3546  0.0140 -1.3393
  151MOL0     H20383   3.341   7.341   2.536 -1.3156  1.2074 -0.8888
  151MOL0     H20384   2.761   6.882   1.744 -2.6122  0.0367 -2.2691
  151MOL0     H20385   2.525   6.870   1.678  1.0074  0.2101 -1.4275
  152MOL0     O20386   5.801   6.563  10.137  0.7558 -0.4822 -0.7231
  152MOL0     C20387   5.891   6.628  10.084 -0.8098 -0.3185 -0.2187
  152MOL0     O20388   5.882   6.739  10.006  0.2461 -0.7945  0.5826
  152MOL0     C20389   5.758   6.781   9.970  1.0748 -0.2297  0.6524
  152MOL0     C20390   5.730   6.801   9.833  0.5519  0.0334  0.2905
  152MOL0     C20391   5.601   6.835   9.793 -0.5593 -0.2305  0.2117
  152MOL0     C20392   5.497   6.858   9.880  0.3295  0.5519  0.1101
  152MOL0     O20393   5.370   6.893   9.835 -0.0328  0.1944  0.2958
  152MOL0     C20394   5.264   6.835   9.907 -0.1662  0.1675 -1.0519
  152MOL0     C20395   5.129   6.842   9.836  0.3402 -0.2591  0.4073
  152MOL0     C20396   5.030   6.754   9.909 -0.3084 -0.2399  0.2515
  152MOL0     C20397   4.894   6.762   9.841  0.7597  0.3726  0.4170
  152MOL0     C20398   4.804   6.662   9.914 -0.5801 -0.1964 -0.3478
  152MOL0     C20399   4.669   6.658   9.851 -0.3235  0.1637 -0.6091
  152MOL0     C20400   4.579   6.569   9.940 -0.6826  0.2125 -0.5433
  152MOL0     C20401   4.431   6.555   9.886 -0.4891  0.1003  0.1322
  152MOL0     N20402   4.347   6.678   9.884 -0.7391  0.5192  0.4736
  152MOL0     C20403   4.301   6.742   9.993 -0.0711  0.2333  0.4326
  152MOL0     C20404   4.239   6.854   9.944  0.4072  0.5425  0.6243
  152MOL0     C20405   4.172   6.970  10.016 -0.2545  0.3209 -0.9169
  152MOL0     C20406   4.027   6.992   9.960  0.0358 -0.5146 -0.1947
  152MOL0     C20407   3.937   7.050  10.066  0.4327 -0.4051  0.2322
  152MOL0     C20408   3.800   7.104  10.028 -0.2903 -0.4296  0.0403
  152MOL0     O20409   3.710   6.989  10.020  0.1023 -0.1729  0.2081
  152MOL0     C20410   3.581   7.014  10.018  0.1846  0.2296 -0.0485
  152MOL0     C20411   3.496   6.905  10.019  0.3118 -0.0945 -0.5697
  152MOL0     C20412   3.358   6.909  10.014  0.8539 -1.0051 -0.0530
  152MOL0     C20413   3.276   6.778  10.011  0.3165  0.0145  0.4050
  152MOL0     C20414   3.296   7.036  10.017  0.7529 -0.3499 -0.3031
  152MOL0     C20415   3.149   7.060  10.019  0.2841 -0.1141 -0.6047
  152MOL0     O20416   3.076   6.965  10.088 -0.3385 -0.0832 -0.3543
  152MOL0     C20417   2.941   6.985  10.093 -0.0196  0.6868  0.3482
  152MOL0     C20418   2.870   7.045  10.199 -0.2471 -0.3979  0.1258
  152MOL0     C20419   2.737   7.082  10.192 -0.1215  1.2682  0.6586
  152MOL0     C20420   2.667   7.046  10.078  0.3978 -0.2494 -0.7660
  152MOL0     O20421   2.528   7.076  10.091  0.3612  0.2311 -0.4406
  152MOL0     C20422   2.478   7.158   9.988 -0.1359 -0.7860 -0.5518
  152MOL0     C20423   2.317   7.183   9.999 -0.6805  1.2152  0.0777
  152MOL0     C20424   2.241   7.147  10.126  0.5578 -0.3761  0.0862
  152MOL0     C20425   2.101   7.209  10.119 -0.5652  0.7845  0.5326
  152MOL0     C20426   2.011   7.183  10.241  0.8431 -0.4189 -0.2065
  152MOL0     C20427   1.884   7.274  10.247 -0.3230 -0.2137 -0.8245
  152MOL0     C20428   1.807   7.284  10.112 -0.0718  0.5761 -0.8837
  152MOL0     C20429   1.660   7.327  10.127  0.0631  0.5491  0.3189
  152MOL0    Cl20430   1.654   7.491  10.194 -0.0622  0.5102  0.4227
  152MOL0     C20431   2.729   6.988   9.970 -0.2859  0.3922  0.6545
  152MOL0     C20432   2.869   6.961   9.971  0.0536  0.1318  0.4185
  152MOL0     O20433   3.107   7.154   9.957 -0.0807 -1.0136  0.1386
  152MOL0     C20434   3.378   7.151  10.031 -0.3891  0.5116 -0.0408
  152MOL0     C20435   3.519   7.138  10.023  0.5204  0.7348 -0.9203
  152MOL0     N20436   4.233   6.844   9.809  0.6924 -0.7715 -0.1971
  152MOL0     N20437   4.302   6.744   9.772  0.0550  0.8535 -0.8268
  152MOL0     C20438   5.527   6.852  10.018 -0.0924 -0.2717  0.0422
  152MOL0     C20439   5.657   6.814  10.062  0.4796  0.5074  0.3400
  152MOL0     C20440   6.033   6.579  10.092 -0.2660 -0.5359  0.1913
  152MOL0     C20441   6.119   6.602   9.984  0.8057 -0.5657  0.4100
  152MOL0     C20442   6.256   6.575   9.999 -0.2987  0.0132 -0.5226
  152MOL0     C20443   6.305   6.532  10.114 -0.1579  0.3215  0.4225
  152MOL0     O20444   6.438   6.509  10.114  0.0430  1.0586  0.0391
  152MOL0     C20445   6.522   6.621  10.131 -0.7029 -0.6618 -0.1323
  152MOL0     C20446   6.660   6.619  10.061  0.5530  0.2434  0.2107
  152MOL0     C20447   6.735   6.493  10.102  0.1722 -0.1700  0.4364
  152MOL0     C20448   6.872   6.487  10.038  0.2843 -0.6647  0.4940
  152MOL0     C20449   6.955   6.368  10.087  0.4644  0.1478 -0.3314
  152MOL0     C20450   7.014   6.265  10.111 -0.5772 -0.4053 -0.0679
  152MOL0     C20451   6.222   6.490  10.213  0.1334 -0.4634 -0.2886
  152MOL0     C20452   6.084   6.510  10.206 -0.0059  0.5929  0.4861
  152MOL0     H20453   5.806   6.782   9.758 -0.6569 -3.0122 -0.3270
  152MOL0     H20454   5.585   6.839   9.686  1.4927  1.0891 -0.0946
  152MOL0     H20455   5.307   6.736   9.925  1.9725  1.6476  3.2549
  152MOL0     H20456   5.255   6.884  10.004  1.2963 -0.1482 -0.7319
  152MOL0     H20457   5.093   6.945   9.827 -1.1443 -0.6479  1.4470
  152MOL0     H20458   5.139   6.799   9.736 -2.5697  0.9726 -0.5253
  152MOL0     H20459   5.055   6.648   9.914  1.9746  0.2618  0.7212
  152MOL0     H20460   5.020   6.786  10.013  1.8594  1.3413  0.0557
  152MOL0     H20461   4.856   6.863   9.858 -0.5795 -0.4136  2.7286
  152MOL0     H20462   4.896   6.742   9.734  3.4825  1.1607  0.2554
  152MOL0     H20463   4.842   6.562   9.894  0.6000  0.1849 -0.0827
  152MOL0     H20464   4.795   6.683  10.021  1.6757 -3.2410  0.5657
  152MOL0     H20465   4.632   6.761   9.852  1.6873  1.0142  2.8222
  152MOL0     H20466   4.672   6.602   9.757 -2.2757  0.3452 -0.8331
  152MOL0     H20467   4.626   6.470   9.952  0.4704  0.8268  0.2495
  152MOL0     H20468   4.569   6.625  10.033  0.9032 -2.0790  1.1527
  152MOL0     H20469   4.378   6.480   9.945 -0.7654 -0.5467 -0.9146
  152MOL0     H20470   4.441   6.517   9.784  1.0490 -2.2045  1.0577
  152MOL0     H20471   4.302   6.713  10.097  3.3475  3.1030  1.4338
  152MOL0     H20472   4.173   6.958  10.125 -2.6774  3.1405 -0.4579
  152MOL0     H20473   4.226   7.060   9.987 -0.0082  0.5229  0.1395
  152MOL0     H20474   3.973   6.902   9.929 -1.3832  0.3340 -0.3261
  152MOL0     H20475   4.033   7.058   9.873  1.3629  0.7400  0.8035
  152MOL0     H20476   4.012   7.119  10.107  5.0355 -3.5485 -1.9661
  152MOL0     H20477   3.921   6.978  10.146  1.0082 -0.4552  0.3080
  152MOL0     H20478   3.809   7.149   9.928  5.5609 -0.8699  0.0318
  152MOL0     H20479   3.766   7.169  10.109 -1.6256 -0.8217 -0.1941
  152MOL0     H20480   3.541   6.807  10.026  1.7034  0.6612  2.7078
  152MOL0     H20481   3.216   6.750  10.098  0.0322  0.2475  0.2835
  152MOL0     H20482   3.217   6.791   9.920  2.1067  1.1466 -0.6469
  152MOL0     H20483   3.340   6.690   9.997  0.4633  0.2544 -0.4495
  152MOL0     H20484   2.924   7.077  10.288 -0.1077  0.2699 -0.1922
  152MOL0     H20485   2.691   7.127  10.279 -1.8732  0.6746  0.0718
  152MOL0     H20486   2.538   7.249  10.002 -1.0844 -0.4574  1.7751
  152MOL0     H20487   2.498   7.121   9.887 -0.7306 -1.3160 -0.4819
  152MOL0     H20488   2.310   7.292   9.986  1.4262  1.0765 -3.8988
  152MOL0     H20489   2.266   7.131   9.917 -3.4079 -1.1209  3.0353
  152MOL0     H20490   2.289   7.194  10.213 -1.2417 -1.1352  1.5439
  152MOL0     H20491   2.232   7.038  10.136 -1.9194 -0.2139  0.1101
  152MOL0     H20492   2.116   7.318  10.114  2.7355  0.5189  1.9590
  152MOL0     H20493   2.043   7.196  10.028  0.2516  2.6532 -0.3044
  152MOL0     H20494   2.070   7.190  10.333  0.3901 -2.6172  0.2969
  152MOL0     H20495   1.968   7.083  10.253 -2.7975  0.9808 -0.3078
  152MOL0     H20496   1.808   7.235  10.315  0.6951 -1.0029 -0.1023
  152MOL0     H20497   1.914   7.373  10.282  2.2959 -0.7960 -1.1498
  152MOL0     H20498   1.807   7.185  10.066  0.5969 -0.1239  0.5620
  152MOL0     H20499   1.855   7.349  10.038  0.1903  2.7812  1.1264
  152MOL0     H20500   1.605   7.264  10.197 -2.2767  2.6830  0.5367
  152MOL0     H20501   1.609   7.315  10.031  1.2913 -1.2670 -0.1496
  152MOL0     H20502   2.674   6.954   9.883  1.1044 -0.0510 -0.0675
  152MOL0     H20503   2.934   6.919   9.896 -0.1172 -0.0435  0.3677
  152MOL0     H20504   3.347   7.254  10.045  0.6629  0.5893  2.1659
  152MOL0     H20505   3.582   7.225  10.006  1.1372  0.2982 -0.8642
  152MOL0     H20506   5.456   6.868  10.099  0.4793 -1.2510  0.7638
  152MOL0     H20507   5.670   6.808  10.170 -4.4223 -1.3230  1.1122
  152MOL0     H20508   6.080   6.643   9.892 -1.2777 -1.8916  0.6474
  152MOL0     H20509   6.314   6.589   9.909  0.8479 -2.0037 -0.1409
  152MOL0     H20510   6.475   6.707  10.082 -1.2343 -1.1997 -0.5815
  152MOL0     H20511   6.525   6.643  10.238  1.6026 -1.5113  0.0495
  152MOL0     H20512   6.713   6.705  10.100  0.8495 -0.5652  1.6532
  152MOL0     H20513   6.647   6.621   9.952  2.5107 -0.2969 -0.0683
  152MOL0     H20514   6.683   6.406  10.060 -1.8506  0.1761  2.0330
  152MOL0     H20515   6.740   6.492  10.212  1.6554  0.3980  0.3941
  152MOL0     H20516   6.926   6.573  10.078 -0.1837 -1.5750  3.3023
  152MOL0     H20517   6.868   6.491   9.929 -2.3038  2.9148  0.5618
  152MOL0     H20518   7.075   6.179  10.127 -0.1800 -0.0810  0.1736
  152MOL0     H20519   6.259   6.450  10.307  0.1136  0.0903 -0.0443
  152MOL0     H20520   6.029   6.484  10.296  1.2142  0.7202  1.2986
  153MOL0     O20521   2.145   6.854  10.328 -0.0506  0.5231 -1.0127
  153MOL0     C20522   2.190   6.806  10.432 -0.6172  0.5077 -0.2554
  153MOL0     O20523   2.122   6.790  10.550  0.4176  0.3182  0.7479
  153MOL0     C20524   1.996   6.847  10.576 -1.3241  0.1632  0.0351
  153MOL0     C20525   1.980   6.882  10.709  1.0797  0.2236  0.5712
  153MOL0     C20526   1.859   6.939  10.759  0.3857  1.0363  0.0700
  153MOL0     C20527   1.748   6.953  10.672  0.0921 -0.0387 -0.0950
  153MOL0     O20528   1.625   6.999  10.714 -1.0153 -0.9835 -0.2390
  153MOL0     C20529   1.600   7.003  10.855  0.5178  0.2033  0.3862
  153MOL0     C20530   1.456   7.045  10.869 -0.4666 -1.1040 -0.8262
  153MOL0     C20531   1.357   6.925  10.855 -1.1949  0.2036  0.1938
  153MOL0     C20532   1.215   6.985  10.883  0.4217  0.4820 -0.6111
  153MOL0     C20533   1.102   6.887  10.841  0.1044 -0.4893 -0.1631
  153MOL0     C20534   0.966   6.962  10.863  0.0335 -0.4753  0.4444
  153MOL0     C20535   0.837   6.885  10.826 -0.3149  0.5130  0.1645
  153MOL0     C20536   0.717   6.949  10.896 -0.1668  1.6992 -0.3671
  153MOL0     N20537   0.590   6.885  10.851 -0.6496 -0.2846  0.3145
  153MOL0     C20538   0.513   6.916  10.739  0.3056  0.2403 -0.5976
  153MOL0     C20539   0.440   6.804  10.723 -0.3208  0.9095  0.1324
  153MOL0     C20540   0.329   6.781  10.620  0.2242  0.4614 -0.2912
  153MOL0     C20541   0.193   6.803  10.690 -0.3976  0.1812 -0.0216
  153MOL0     C20542   0.090   6.766  10.586  0.2811 -0.4130  0.4166
  153MOL0     C20543  -0.051   6.814  10.625 -0.5393  0.1158  0.4339
  153MOL0     O20544  -0.152   6.744  10.542  0.0372  0.3354 -0.6156
  153MOL0     C20545  -0.286   6.765  10.564  0.1811 -0.4966 -0.1229
  153MOL0     C20546  -0.339   6.841  10.669  0.1466  0.6700 -0.4131
  153MOL0     C20547  -0.476   6.849  10.676  0.6774 -0.0809 -0.3087
  153MOL0     C20548  -0.527   6.927  10.793 -0.1312 -0.5712  0.0970
  153MOL0     C20549  -0.560   6.783  10.582  1.0461 -0.0360  0.2694
  153MOL0     C20550  -0.714   6.773  10.588  0.3533 -0.6098 -0.1772
  153MOL0     O20551  -0.775   6.833  10.697 -0.1637 -0.2655 -0.0727
  153MOL0     C20552  -0.903   6.806  10.721 -0.1414  0.8803  0.1686
  153MOL0     C20553  -0.942   6.779  10.856 -0.3144  0.2061 -0.6537
  153MOL0     C20554  -1.077   6.751  10.883 -0.6234 -0.4008 -0.5113
  153MOL0     C20555  -1.174   6.763  10.788  0.3901 -0.4964  0.5090
  153MOL0     O20556  -1.304   6.738  10.838 -0.6266 -0.2935 -0.0935
  153MOL0     C20557  -1.411   6.771  10.742 -0.4344 -0.1473  0.1048
  153MOL0     C20558  -1.548   6.737  10.814 -0.7279 -0.1576 -0.1214
  153MOL0     C20559  -1.582   6.846  10.921  0.2840  0.3729  0.8685
  153MOL0     C20560  -1.728   6.829  10.973 -0.3484  0.0843 -0.1813
  153MOL0     C20561  -1.777   6.930  11.073 -0.4342 -0.1944 -0.4991
  153MOL0     C20562  -1.921   6.900  11.126 -0.1617  0.3556 -0.3203
  153MOL0     C20563  -1.913   6.774  11.215 -0.8173 -0.6676  0.0053
  153MOL0     C20564  -2.031   6.770  11.317  0.1240  0.1159  0.9825
  153MOL0    Cl20565  -2.163   6.696  11.217  0.6578  0.2375  0.2723
  153MOL0     C20566  -1.132   6.794  10.660  0.7152 -0.0263  0.1519
  153MOL0     C20567  -1.001   6.821  10.628  0.1108  0.6069 -0.6785
  153MOL0     O20568  -0.771   6.738  10.479  0.0989 -0.2264 -0.3465
  153MOL0     C20569  -0.498   6.707  10.484  0.2866  0.1334  0.3614
  153MOL0     C20570  -0.372   6.720  10.463 -0.1267 -0.0984 -1.0903
  153MOL0     N20571   0.469   6.710  10.820  0.6488 -1.2314  0.2674
  153MOL0     N20572   0.555   6.764  10.897 -0.2874 -0.1364 -0.2504
  153MOL0     C20573   1.766   6.927  10.530  0.2589 -0.0278  0.1104
  153MOL0     C20574   1.891   6.874  10.490 -0.3252  1.1875 -0.3745
  153MOL0     C20575   2.342   6.763  10.438  0.1933 -0.7944  0.8403
  153MOL0     C20576   2.399   6.687  10.543  0.0355 -0.4444  0.1112
  153MOL0     C20577   2.532   6.640  10.530  0.9148  0.3692  0.6606
  153MOL0     C20578   2.619   6.680  10.436  0.3176  0.1904 -0.1115
  153MOL0     O20579   2.742   6.620  10.439 -0.6448 -0.2072 -0.3663
  153MOL0     C20580   2.849   6.713  10.467 -0.2683  0.3363 -0.0170
  153MOL0     C20581   2.981   6.648  10.430 -0.1965  0.5818  0.3441
  153MOL0     C20582   2.978   6.606  10.281  0.1265  0.8220 -0.5703
  153MOL0     C20583   3.109   6.535  10.232 -0.6312  1.0127 -1.4136
  153MOL0     C20584   3.133   6.406  10.301  0.0803 -0.4219 -0.1442
  153MOL0     C20585   3.166   6.318  10.377  0.6712 -0.0021  1.2547
  153MOL0     C20586   2.570   6.765  10.342 -0.1288 -0.4882 -0.0260
  153MOL0     C20587   2.427   6.798  10.334 -0.1154  0.2483  0.9580
  153MOL0     H20588   2.060   6.865  10.781  1.8196 -2.4579 -0.7451
  153MOL0     H20589   1.860   6.965  10.864 -0.8597  1.8370 -0.0979
  153MOL0     H20590   1.610   6.906  10.905 -0.0074  0.5306  1.1489
  153MOL0     H20591   1.666   7.076  10.903 -0.5764  1.5446 -0.0821
  153MOL0     H20592   1.446   7.091  10.968 -0.2121 -1.3960 -0.6589
  153MOL0     H20593   1.428   7.128  10.805 -1.3031  1.4166  2.5305
  153MOL0     H20594   1.359   6.896  10.749 -1.5643  3.3526 -0.7906
  153MOL0     H20595   1.386   6.838  10.914 -1.2870 -0.6753 -1.0159
  153MOL0     H20596   1.199   7.001  10.990 -0.7840 -2.4614 -0.2642
  153MOL0     H20597   1.200   7.080  10.829 -0.3821  1.8610  1.8888
  153MOL0     H20598   1.118   6.866  10.735  3.3548 -1.2679  0.3794
  153MOL0     H20599   1.097   6.791  10.892  0.6376  0.4562  1.7934
  153MOL0     H20600   0.958   6.985  10.970 -3.8985  0.0952  0.1949
  153MOL0     H20601   0.964   7.057  10.807 -1.3149 -0.4150  0.5587
  153MOL0     H20602   0.825   6.864  10.720  0.8370 -2.8087  0.5902
  153MOL0     H20603   0.855   6.781  10.852  0.2255 -0.0403 -2.2341
  153MOL0     H20604   0.718   7.055  10.868  3.8963  2.0490  0.5701
  153MOL0     H20605   0.726   6.939  11.004  4.1493 -1.3886 -0.7639
  153MOL0     H20606   0.519   7.008  10.683 -3.0731  2.9803  2.9962
  153MOL0     H20607   0.347   6.855  10.541  1.9547 -1.0387 -1.3847
  153MOL0     H20608   0.334   6.677  10.585  1.2345 -0.0008  1.1485
  153MOL0     H20609   0.174   6.904  10.729 -3.1743 -1.3629  3.1417
  153MOL0     H20610   0.184   6.730  10.770  1.8020 -0.2214 -0.0831
  153MOL0     H20611   0.096   6.660  10.564  1.1041 -0.4960  0.9604
  153MOL0     H20612   0.114   6.824  10.496  0.0553 -0.4883  0.3085
  153MOL0     H20613  -0.056   6.918  10.593  1.0448  0.1800  0.3238
  153MOL0     H20614  -0.079   6.805  10.731  0.5158  1.5908  0.8665
  153MOL0     H20615  -0.280   6.881  10.751 -0.4714 -1.7687  1.3191
  153MOL0     H20616  -0.442   6.987  10.827  0.7817 -0.5226 -2.1136
  153MOL0     H20617  -0.606   6.992  10.755  0.6157 -0.3558 -1.1610
  153MOL0     H20618  -0.562   6.864  10.875 -2.5543  1.0596  0.4174
  153MOL0     H20619  -0.877   6.749  10.938 -1.1671 -2.2170 -0.7986
  153MOL0     H20620  -1.100   6.721  10.985 -1.6167 -0.1260 -0.6418
  153MOL0     H20621  -1.403   6.874  10.706  1.1121  1.7154  4.9821
  153MOL0     H20622  -1.400   6.712  10.650 -3.0804 -0.6267  0.0229
  153MOL0     H20623  -1.633   6.733  10.745 -1.4243 -0.9911  0.7468
  153MOL0     H20624  -1.547   6.642  10.868 -0.9974  0.4311  0.9475
  153MOL0     H20625  -1.572   6.947  10.881 -1.4616  0.1734 -0.2089
  153MOL0     H20626  -1.513   6.834  11.005 -0.9189 -1.5797  1.6627
  153MOL0     H20627  -1.800   6.818  10.892  1.0272 -0.2731 -1.4157
  153MOL0     H20628  -1.723   6.732  11.022 -1.8882 -0.5984 -1.2820
  153MOL0     H20629  -1.785   7.023  11.015  0.9982 -0.3162 -0.9396
  153MOL0     H20630  -1.706   6.946  11.154 -0.0505  1.4353 -1.1176
  153MOL0     H20631  -1.944   6.985  11.191  0.2531 -0.3045  0.7066
  153MOL0     H20632  -1.998   6.887  11.049 -1.7225 -1.1600  1.3921
  153MOL0     H20633  -1.814   6.766  11.261 -1.4588 -0.3807  1.4629
  153MOL0     H20634  -1.913   6.682  11.156  1.7430 -1.9567  1.8333
  153MOL0     H20635  -2.057   6.871  11.353  2.5144  1.6472 -1.2242
  153MOL0     H20636  -2.008   6.713  11.408  0.1171  0.2811  1.0895
  153MOL0     H20637  -1.205   6.810  10.581 -0.6371 -0.1528  1.3425
  153MOL0     H20638  -0.977   6.862  10.530  1.3616  0.6086 -0.3791
  153MOL0     H20639  -0.547   6.644  10.410  3.3884 -1.0250 -0.8608
  153MOL0     H20640  -0.311   6.668  10.390  0.2174  0.7201 -1.4076
  153MOL0     H20641   1.693   6.952  10.454 -0.1494  2.3695  1.1923
  153MOL0     H20642   1.896   6.843  10.386 -0.9045 -1.7958  0.3814
  153MOL0     H20643   2.332   6.662  10.626  1.3444 -0.3828  1.2181
  153MOL0     H20644   2.570   6.573  10.606  4.1694 -2.0081 -2.7034
  153MOL0     H20645   2.843   6.804  10.407  2.2483  1.2287  0.9515
  153MOL0     H20646   2.843   6.743  10.572 -0.7078  1.4914 -0.3522
  153MOL0     H20647   3.008   6.570  10.502  3.3726  1.3037 -0.0439
  153MOL0     H20648   3.067   6.714  10.438  2.1644 -2.4682  2.8614
  153MOL0     H20649   2.970   6.697  10.221 -2.1000  1.6606  0.8634
  153MOL0     H20650   2.894   6.540  10.256  0.8738 -0.2381 -0.3651
  153MOL0     H20651   3.193   6.602  10.250  1.1853 -1.6983  1.0192
  153MOL0     H20652   3.106   6.516  10.124 -1.1971 -0.7771 -1.1076
  153MOL0     H20653   3.190   6.233  10.438 -0.5352  0.0475  1.8258
  153MOL0     H20654   2.636   6.793  10.259  0.4281  0.4698  0.7118
  153MOL0     H20655   2.392   6.873  10.263  2.5169  1.1706  0.4890
  154MOL0     O20656   0.816  10.988  10.368 -0.7044 -0.2966 -0.4487
  154MOL0     C20657   0.855  11.092  10.415 -0.4350  0.7528  0.4997
  154MOL0     O20658   0.778  11.202  10.450  0.1974  0.0963  0.3693
  154MOL0     C20659   0.644  11.220  10.435  0.0688  0.1595 -0.2117
  154MOL0     C20660   0.574  11.145  10.339  0.2761  0.2134  0.5420
  154MOL0     C20661   0.439  11.182  10.322  0.0134  0.2015  0.2094
  154MOL0     C20662   0.385  11.289  10.390  0.8532 -0.5259  0.2554
  154MOL0     O20663   0.251  11.321  10.387  0.0002  0.1165  0.3822
  154MOL0     C20664   0.184  11.321  10.261 -0.2603  0.5559 -0.0306
  154MOL0     C20665   0.083  11.426  10.248  0.1085  0.2172 -0.2315
  154MOL0     C20666  -0.044  11.408  10.336 -0.4750  0.0479  0.2797
  154MOL0     C20667  -0.148  11.312  10.273  0.0369  0.1774  0.2130
  154MOL0     C20668  -0.235  11.241  10.386  0.0683 -0.2971 -0.3046
  154MOL0     C20669  -0.317  11.336  10.463  0.2524  0.0121  0.2475
  154MOL0     C20670  -0.430  11.264  10.542  0.1839  0.8901  0.3513
  154MOL0     C20671  -0.375  11.158  10.635  0.7344 -0.8808  0.5607
  154MOL0     N20672  -0.469  11.117  10.738 -0.3619 -0.1174  0.5189
  154MOL0     C20673  -0.582  11.055  10.702 -0.3457  0.0999  0.1864
  154MOL0     C20674  -0.622  10.988  10.810 -0.3202 -0.0802 -0.4560
  154MOL0     C20675  -0.741  10.888  10.823  0.0665  0.6495  0.7618
  154MOL0     C20676  -0.765  10.830  10.682  0.2877 -0.3571 -0.0708
  154MOL0     C20677  -0.904  10.768  10.672  0.2629 -0.2528 -0.6898
  154MOL0     C20678  -0.919  10.649  10.767  0.0919  0.3306  0.1122
  154MOL0     O20679  -1.019  10.562  10.732  0.2220  0.5368  0.6599
  154MOL0     C20680  -1.147  10.608  10.724  0.1906  0.7116  1.1131
  154MOL0     C20681  -1.208  10.627  10.599 -0.1844 -0.2134 -0.6458
  154MOL0     C20682  -1.339  10.675  10.573  0.4544  0.8037  0.5676
  154MOL0     C20683  -1.378  10.696  10.430 -0.6151  0.3977 -0.1695
  154MOL0     C20684  -1.425  10.702  10.688  0.7381  1.1777 -0.4497
  154MOL0     C20685  -1.553  10.775  10.682 -0.3986 -0.1481 -0.0621
  154MOL0     O20686  -1.590  10.852  10.785  0.6137 -0.3276 -0.5182
  154MOL0     C20687  -1.704  10.936  10.766 -0.8225  0.1133 -0.5738
  154MOL0     C20688  -1.682  11.073  10.760 -0.2680 -0.2747 -0.6573
  154MOL0     C20689  -1.781  11.160  10.744  0.2861  0.2848 -0.4566
  154MOL0     C20690  -1.916  11.115  10.747 -0.3774  0.4899  0.1949
  154MOL0     O20691  -2.021  11.213  10.748 -0.5067  0.3417  1.2140
  154MOL0     C20692  -1.992  11.332  10.815 -0.3383  0.1397  0.8100
  154MOL0     C20693  -2.108  11.415  10.850  0.0777 -0.5253 -1.0690
  154MOL0     C20694  -2.078  11.547  10.933 -0.6925 -0.0113  1.0501
  154MOL0     C20695  -2.195  11.586  11.021 -0.1921 -0.4997 -0.1542
  154MOL0     C20696  -2.162  11.703  11.102 -0.1100 -0.9921  0.3328
  154MOL0     C20697  -2.134  11.842  11.033  0.3026 -0.0928 -0.3821
  154MOL0     C20698  -2.175  11.949  11.136 -0.0490  0.6608  0.3858
  154MOL0     C20699  -2.114  12.084  11.109 -0.0572  0.3911  0.5963
  154MOL0    Cl20700  -2.143  12.145  10.939 -0.0511  0.4149  0.3540
  154MOL0     C20701  -1.943  10.979  10.765  0.5853 -0.0286 -0.5787
  154MOL0     C20702  -1.830  10.891  10.769 -0.2795 -0.4811 -0.4303
  154MOL0     O20703  -1.616  10.762  10.579  0.2011 -0.1984  0.0300
  154MOL0     C20704  -1.369  10.668  10.812  0.0003 -0.0042 -0.7387
  154MOL0     C20705  -1.234  10.624  10.836  0.0540  0.0800 -0.3006
  154MOL0     N20706  -0.526  11.015  10.910  0.8665  0.1093 -0.5030
  154MOL0     N20707  -0.437  11.093  10.868 -0.6668 -0.0601  0.2019
  154MOL0     C20708   0.455  11.351  10.491  0.0364  0.4480  0.0407
  154MOL0     C20709   0.587  11.317  10.512 -0.0357 -0.6342  0.2711
  154MOL0     C20710   0.992  11.085  10.452  0.2275  0.8660  0.1348
  154MOL0     C20711   1.026  11.098  10.588  0.3725 -1.0736 -0.1892
  154MOL0     C20712   1.157  11.086  10.623  0.0110  0.3900  0.4007
  154MOL0     C20713   1.256  11.048  10.534 -0.4553  0.0581 -0.3866
  154MOL0     O20714   1.385  11.014  10.583 -0.0348 -0.2744  1.1002
  154MOL0     C20715   1.475  10.946  10.498 -0.3309  0.9603 -0.3628
  154MOL0     C20716   1.597  10.897  10.578  0.3325  0.1765 -0.2240
  154MOL0     C20717   1.648  11.006  10.676 -0.2073  0.0490 -0.7202
  154MOL0     C20718   1.597  11.015  10.819 -0.1047  0.3176 -0.6873
  154MOL0     C20719   1.681  11.111  10.890  0.4626  0.6412  0.4004
  154MOL0     C20720   1.739  11.191  10.960 -0.7871 -0.4296 -0.2343
  154MOL0     C20721   1.223  11.033  10.393  0.3979  0.5027  0.6446
  154MOL0     C20722   1.094  11.060  10.356  0.7775  0.2341  0.7454
  154MOL0     H20723   0.614  11.075  10.267  3.1327  2.7843 -0.5626
  154MOL0     H20724   0.375  11.125  10.255  0.0440  0.0930  0.2719
  154MOL0     H20725   0.261  11.333  10.185 -1.8984  2.4709 -1.5228
  154MOL0     H20726   0.136  11.228  10.231 -1.1321  1.6976 -2.4600
  154MOL0     H20727   0.132  11.521  10.267 -2.7196  1.5663  0.8256
  154MOL0     H20728   0.041  11.433  10.147 -0.3445  0.0023 -0.0610
  154MOL0     H20729  -0.014  11.373  10.435  0.0483  0.8963  0.4319
  154MOL0     H20730  -0.102  11.499  10.347 -2.8672 -1.5727  2.0632
  154MOL0     H20731  -0.211  11.361  10.198  0.0385 -1.2681 -0.7875
  154MOL0     H20732  -0.102  11.228  10.220 -1.2682 -0.2972 -0.2093
  154MOL0     H20733  -0.290  11.160  10.337 -1.6067  0.2209  0.6519
  154MOL0     H20734  -0.161  11.192  10.450  0.1095  1.7106  1.2841
  154MOL0     H20735  -0.256  11.392  10.534 -0.7458 -2.7953  3.6069
  154MOL0     H20736  -0.368  11.402  10.392  2.7021  0.2459 -1.3869
  154MOL0     H20737  -0.482  11.331  10.611  1.8470 -0.0780  2.6786
  154MOL0     H20738  -0.501  11.223  10.471  2.2643 -1.2761 -0.5923
  154MOL0     H20739  -0.291  11.205  10.687  1.6328  0.4497 -1.9528
  154MOL0     H20740  -0.332  11.073  10.581  1.6306  0.2984 -0.6317
  154MOL0     H20741  -0.621  11.040  10.602  1.6983 -2.1510 -0.3777
  154MOL0     H20742  -0.729  10.807  10.895  0.9017  0.4938  0.4543
  154MOL0     H20743  -0.817  10.957  10.861 -0.6761 -1.0592  2.5680
  154MOL0     H20744  -0.693  10.755  10.651 -0.2374 -0.1495 -1.8871
  154MOL0     H20745  -0.778  10.912  10.611 -4.2436  1.4203  2.3759
  154MOL0     H20746  -0.908  10.730  10.569 -0.9803  0.1628 -0.8098
  154MOL0     H20747  -0.984  10.842  10.679  1.3186  0.8077  0.4259
  154MOL0     H20748  -0.947  10.676  10.870  0.9374  0.3568  0.3488
  154MOL0     H20749  -0.823  10.597  10.765 -0.3148 -0.4343  0.3953
  154MOL0     H20750  -1.150  10.590  10.516  1.7586 -0.7010  0.8502
  154MOL0     H20751  -1.302  10.650  10.367 -0.5766  1.4747 -0.9239
  154MOL0     H20752  -1.465  10.642  10.391  0.2206 -0.4932 -0.8529
  154MOL0     H20753  -1.395  10.801  10.407  1.6098  0.6624 -0.8301
  154MOL0     H20754  -1.580  11.109  10.757  0.9665 -2.6749  3.6335
  154MOL0     H20755  -1.759  11.266  10.752 -1.0991  0.8998 -3.5348
  154MOL0     H20756  -1.932  11.312  10.904  0.7411  1.3593  0.3947
  154MOL0     H20757  -1.936  11.401  10.752 -0.7874  0.2564  0.5368
  154MOL0     H20758  -2.162  11.440  10.758  0.2205  3.4457 -0.2770
  154MOL0     H20759  -2.170  11.347  10.908 -0.8750  1.8511  0.8667
  154MOL0     H20760  -2.055  11.629  10.863 -0.3688 -2.2442 -1.6350
  154MOL0     H20761  -1.992  11.526  10.997  0.0151  0.7135  0.3671
  154MOL0     H20762  -2.277  11.615  10.955 -0.8299 -1.6988  0.0849
  154MOL0     H20763  -2.212  11.500  11.087  2.1435  0.1788  1.4817
  154MOL0     H20764  -2.078  11.671  11.164  0.0942 -2.3053 -0.5936
  154MOL0     H20765  -2.242  11.706  11.177  0.6201 -2.8242  1.2294
  154MOL0     H20766  -2.028  11.837  11.009  0.1945  0.8759 -1.1079
  154MOL0     H20767  -2.182  11.851  10.935 -0.7995 -3.1699 -0.2244
  154MOL0     H20768  -2.165  11.918  11.241 -0.4059  1.9873  0.8273
  154MOL0     H20769  -2.282  11.958  11.116  0.1932 -0.3977 -1.6289
  154MOL0     H20770  -2.008  12.066  11.124  0.2422 -0.6669 -2.1187
  154MOL0     H20771  -2.153  12.156  11.181 -0.3812 -0.3259  1.1608
  154MOL0     H20772  -2.048  10.953  10.781  0.6643 -1.4801 -2.0536
  154MOL0     H20773  -1.848  10.784  10.779 -0.4972 -0.3307  0.9283
  154MOL0     H20774  -1.416  10.679  10.909  2.7923  1.5984  0.5522
  154MOL0     H20775  -1.207  10.596  10.937 -3.6799  1.6361  1.3244
  154MOL0     H20776   0.426  11.434  10.555 -0.8503 -0.6565  1.1095
  154MOL0     H20777   0.659  11.370  10.575  0.1500  1.1377 -1.3545
  154MOL0     H20778   0.946  11.110  10.660  0.7655 -0.6296  0.1766
  154MOL0     H20779   1.199  11.115  10.719  0.2081  1.0744  0.1142
  154MOL0     H20780   1.432  10.859  10.448 -0.7213  2.8598 -3.5923
  154MOL0     H20781   1.513  11.019  10.426 -2.3008  3.4791  0.9619
  154MOL0     H20782   1.682  10.865  10.518 -1.4253 -1.3016 -2.0622
  154MOL0     H20783   1.567  10.810  10.637 -1.6464  0.7794 -0.2780
  154MOL0     H20784   1.628  11.101  10.627 -1.2870  0.1454 -0.1270
  154MOL0     H20785   1.755  10.984  10.682  0.1868  2.1326  1.2663
  154MOL0     H20786   1.614  10.919  10.868 -0.5527 -0.2058 -1.5443
  154MOL0     H20787   1.494  11.050  10.821 -0.3477 -0.1908  2.6947
  154MOL0     H20788   1.781  11.273  11.014  2.4041 -0.9195 -1.7479
  154MOL0     H20789   1.307  11.012  10.328  1.5159 -0.9344  2.4387
  154MOL0     H20790   1.060  11.055  10.253  5.3469 -0.0962 -0.9664
  155MOL0     O20791  10.441   6.079   3.096 -0.6279  0.2809 -0.0869
  155MOL0     C20792  10.558   6.114   3.102 -0.5461  0.0094 -0.5890
  155MOL0     O20793  10.670   6.031   3.096 -0.4650 -0.0454 -0.3835
  155MOL0     C20794  10.653   5.895   3.080 -0.3905 -0.4897  0.5777
  155MOL0     C20795  10.547   5.825   3.019  0.0427  0.2368  0.1917
  155MOL0     C20796  10.543   5.685   3.016  0.7420 -0.3164  0.5141
  155MOL0     C20797  10.649   5.611   3.069 -0.2702 -0.2584  0.4552
  155MOL0     O20798  10.643   5.475   3.058 -0.1895 -0.2188  0.4589
  155MOL0     C20799  10.685   5.390   3.162  0.3933  0.5688  0.1098
  155MOL0     C20800  10.631   5.249   3.122 -0.7251 -0.8990  0.1017
  155MOL0     C20801  10.710   5.204   2.993 -0.6849 -0.1057 -0.1930
  155MOL0     C20802  10.730   5.051   2.974  0.1984  0.4662  0.0823
  155MOL0     C20803  10.819   5.002   2.857 -0.4292  0.2007  0.0751
  155MOL0     C20804  10.768   5.042   2.719 -0.7109  0.7214 -0.6525
  155MOL0     C20805  10.864   5.013   2.604 -0.1365  0.5184 -0.4464
  155MOL0     C20806  10.875   4.865   2.573 -0.7423  0.4516 -0.3685
  155MOL0     N20807  10.763   4.803   2.506 -0.5736  0.4058  0.0316
  155MOL0     C20808  10.730   4.805   2.376  0.4131  0.3774  0.1508
  155MOL0     C20809  10.620   4.727   2.361 -1.2095  0.1322  0.2272
  155MOL0     C20810  10.552   4.705   2.228 -0.1313  0.3264 -0.3443
  155MOL0     C20811  10.400   4.676   2.256 -0.5582  0.6883 -0.2327
  155MOL0     C20812  10.302   4.730   2.150  0.0660 -0.1379 -0.8220
  155MOL0     C20813  10.155   4.702   2.189  0.5882  0.4520  0.5577
  155MOL0     O20814  10.125   4.565   2.189  0.3211  0.6032 -1.0714
  155MOL0     C20815  10.012   4.517   2.246 -0.3601 -0.1028  0.7514
  155MOL0     C20816   9.892   4.589   2.253 -0.6333 -0.3616 -0.3874
  155MOL0     C20817   9.787   4.539   2.317 -0.2455  0.6593 -0.6974
  155MOL0     C20818   9.663   4.624   2.316 -0.3931  0.2028  0.7062
  155MOL0     C20819   9.792   4.417   2.383  0.0563  0.2011  0.4409
  155MOL0     C20820   9.678   4.363   2.461 -0.7504  0.2780 -0.3550
  155MOL0     O20821   9.614   4.446   2.549  0.0422  0.1519  0.1789
  155MOL0     C20822   9.476   4.439   2.567  0.2083  0.4403  0.3364
  155MOL0     C20823   9.388   4.371   2.484 -0.3604  0.2250 -0.2300
  155MOL0     C20824   9.251   4.366   2.522 -0.4605 -0.3971  0.6446
  155MOL0     C20825   9.203   4.439   2.631  0.3676  0.6707 -0.4149
  155MOL0     O20826   9.073   4.465   2.672  0.2645  0.0314  0.1526
  155MOL0     C20827   8.976   4.375   2.612  0.3128  0.2459 -0.0170
  155MOL0     C20828   8.836   4.382   2.679 -0.5249  1.2203 -0.3044
  155MOL0     C20829   8.740   4.485   2.622  0.0243 -0.9521 -0.0624
  155MOL0     C20830   8.597   4.443   2.624 -0.5670  0.0463  0.1906
  155MOL0     C20831   8.503   4.562   2.594 -0.1746  0.5072  0.3009
  155MOL0     C20832   8.352   4.550   2.639  0.3693  0.2094  0.7953
  155MOL0     C20833   8.310   4.403   2.595  0.6139 -0.1658 -0.2544
  155MOL0     C20834   8.161   4.371   2.595  0.5250 -0.3636  0.3058
  155MOL0    Cl20835   8.102   4.377   2.757  0.6515  0.2235  0.1566
  155MOL0     C20836   9.291   4.512   2.711  0.3146 -0.5085  0.3494
  155MOL0     C20837   9.428   4.508   2.683 -0.2959 -0.7917 -0.2085
  155MOL0     O20838   9.668   4.240   2.463  0.2314  0.1785  1.3096
  155MOL0     C20839   9.912   4.341   2.375  0.1972 -0.2392 -0.6188
  155MOL0     C20840  10.022   4.394   2.306  0.2725  0.4373  0.5979
  155MOL0     N20841  10.588   4.680   2.483  0.0245  0.3256 -0.0027
  155MOL0     N20842  10.664   4.742   2.572 -0.0615 -0.0543 -0.1101
  155MOL0     C20843  10.754   5.669   3.138  0.6343  0.3506 -0.1060
  155MOL0     C20844  10.755   5.812   3.143  0.6021 -0.0170  0.0994
  155MOL0     C20845  10.601   6.258   3.106  0.7816 -0.7656 -0.0343
  155MOL0     C20846  10.729   6.298   3.149 -0.3008 -0.0502  0.3653
  155MOL0     C20847  10.761   6.434   3.164 -0.4342  0.9396 -0.3490
  155MOL0     C20848  10.678   6.540   3.127 -0.1076  0.6079 -0.6772
  155MOL0     O20849  10.710   6.671   3.126 -0.3219  0.3530 -0.0959
  155MOL0     C20850  10.847   6.704   3.135  0.0539 -0.6368  0.8539
  155MOL0     C20851  10.867   6.854   3.143 -0.0245  0.6989 -0.3789
  155MOL0     C20852  10.814   6.920   3.278 -0.1867 -0.5592 -0.2650
  155MOL0     C20853  10.877   6.852   3.407  0.2776 -0.7123  0.5070
  155MOL0     C20854  10.811   6.724   3.443  1.0054 -0.2890  0.3740
  155MOL0     C20855  10.761   6.615   3.483 -0.2227 -0.4593 -0.1458
  155MOL0     C20856  10.559   6.502   3.066  0.0831  1.0186  0.3502
  155MOL0     C20857  10.515   6.364   3.069  0.6829  0.3459 -0.8595
  155MOL0     H20858  10.466   5.880   2.973 -0.4402 -0.6462 -0.0296
  155MOL0     H20859  10.462   5.642   2.958  1.2568 -2.5773  1.3562
  155MOL0     H20860  10.793   5.385   3.182  0.4795 -1.1692 -0.6447
  155MOL0     H20861  10.631   5.418   3.253  0.1432  1.9675 -0.4364
  155MOL0     H20862  10.668   5.187   3.204 -1.0146 -0.9930  0.1615
  155MOL0     H20863  10.523   5.239   3.110 -0.8043 -1.7504  1.3378
  155MOL0     H20864  10.647   5.239   2.911  2.4862 -1.3953 -3.4207
  155MOL0     H20865  10.808   5.253   2.991  1.2986 -3.6715  1.1639
  155MOL0     H20866  10.775   5.012   3.066  0.3926  1.0941  0.2577
  155MOL0     H20867  10.633   5.001   2.964 -0.0349  0.4245  2.1048
  155MOL0     H20868  10.919   5.045   2.866 -0.2615 -0.2174  0.2226
  155MOL0     H20869  10.829   4.894   2.869  0.2282  0.0784 -1.3055
  155MOL0     H20870  10.672   4.994   2.700 -0.6061  0.1327  0.2052
  155MOL0     H20871  10.744   5.148   2.717  0.5812  1.0584  0.0215
  155MOL0     H20872  10.827   5.066   2.516 -1.0094  2.3162  0.9393
  155MOL0     H20873  10.965   5.047   2.629  0.3736 -0.4393 -1.1357
  155MOL0     H20874  10.892   4.822   2.672 -3.4394 -0.5450 -0.2434
  155MOL0     H20875  10.956   4.845   2.503  0.0792  3.1014 -0.2899
  155MOL0     H20876  10.772   4.847   2.285  2.2047  0.9758  1.2064
  155MOL0     H20877  10.539   4.799   2.174 -0.5709  0.5052  0.0637
  155MOL0     H20878  10.597   4.624   2.169 -1.6669 -0.6543 -0.2402
  155MOL0     H20879  10.379   4.733   2.347  0.9627  2.5539 -0.9828
  155MOL0     H20880  10.378   4.570   2.268 -1.5252  0.7685 -1.2090
  155MOL0     H20881  10.329   4.682   2.056 -0.6443 -1.0534 -0.5742
  155MOL0     H20882  10.300   4.838   2.133  0.7297  0.0153  0.0484
  155MOL0     H20883  10.084   4.753   2.122 -0.6737  1.0579  2.2781
  155MOL0     H20884  10.132   4.736   2.290 -0.1006  0.1104  0.5250
  155MOL0     H20885   9.894   4.687   2.207 -1.2141  0.7788  1.8913
  155MOL0     H20886   9.649   4.651   2.421  1.0574  2.2052  0.4274
  155MOL0     H20887   9.680   4.717   2.262 -2.7484  0.0168 -0.5084
  155MOL0     H20888   9.570   4.582   2.276  0.1356  0.4233 -0.8411
  155MOL0     H20889   9.419   4.344   2.384 -1.1469  1.2146 -0.7568
  155MOL0     H20890   9.176   4.329   2.453  0.8631  3.0471 -3.0188
  155MOL0     H20891   8.963   4.404   2.507 -1.2320  0.9430  0.3416
  155MOL0     H20892   9.021   4.276   2.607 -1.0549 -0.3411 -1.6687
  155MOL0     H20893   8.789   4.284   2.663  0.4927  0.3578  1.6951
  155MOL0     H20894   8.843   4.394   2.787 -1.5122 -1.8112  0.1980
  155MOL0     H20895   8.765   4.511   2.519  0.0807  0.3144  0.2540
  155MOL0     H20896   8.756   4.578   2.677  1.5523 -0.5940 -1.0441
  155MOL0     H20897   8.573   4.361   2.556  1.8059 -0.4906 -0.0802
  155MOL0     H20898   8.578   4.401   2.723  1.9441  0.4712  0.9143
  155MOL0     H20899   8.496   4.581   2.487 -2.4970 -4.0452 -0.5992
  155MOL0     H20900   8.552   4.646   2.645  1.9698  0.3631 -1.3985
  155MOL0     H20901   8.338   4.563   2.747 -2.6222  2.7089  0.2535
  155MOL0     H20902   8.299   4.630   2.587 -0.1004 -0.0547  0.8658
  155MOL0     H20903   8.362   4.329   2.656 -3.1052 -1.9836  1.0549
  155MOL0     H20904   8.342   4.389   2.492  0.7990  0.1300 -0.2373
  155MOL0     H20905   8.132   4.276   2.549 -4.5590  2.0098 -2.1788
  155MOL0     H20906   8.105   4.443   2.535 -2.5374 -1.8576  1.1725
  155MOL0     H20907   9.245   4.561   2.796 -3.8184 -0.7455 -1.4945
  155MOL0     H20908   9.493   4.563   2.750  0.0251  0.7267 -1.6893
  155MOL0     H20909   9.918   4.249   2.432  0.1745 -0.1248 -0.4311
  155MOL0     H20910  10.113   4.336   2.316 -1.5455 -2.6104  0.8330
  155MOL0     H20911  10.832   5.606   3.178 -1.0212 -0.6900  1.6161
  155MOL0     H20912  10.831   5.862   3.203 -0.9818 -0.3635  2.5297
  155MOL0     H20913  10.800   6.227   3.191 -1.6481  0.7781  4.4540
  155MOL0     H20914  10.858   6.453   3.208 -0.6181 -1.3413  1.2271
  155MOL0     H20915  10.886   6.651   3.223 -1.4664 -1.9565  0.7597
  155MOL0     H20916  10.890   6.669   3.041  1.7602 -0.9119  1.6901
  155MOL0     H20917  10.833   6.898   3.049  0.1541 -0.3182 -0.9221
  155MOL0     H20918  10.974   6.875   3.152  0.5973  0.3085 -4.8361
  155MOL0     H20919  10.706   6.921   3.291 -0.3209 -2.8202 -0.7797
  155MOL0     H20920  10.844   7.025   3.269  0.9962 -0.9768 -1.7618
  155MOL0     H20921  10.874   6.926   3.488  1.4301  2.5204 -2.1802
  155MOL0     H20922  10.983   6.837   3.386  0.8115 -0.7188  2.9800
  155MOL0     H20923  10.719   6.521   3.512  1.0853 -1.9872 -2.8005
  155MOL0     H20924  10.500   6.577   3.014 -1.5208 -1.1461 -1.1594
  155MOL0     H20925  10.431   6.318   3.017  1.4796 -3.2214  0.6736
  156MOL0     O20926   6.052   5.988   2.479 -0.2157 -0.4091  0.5229
  156MOL0     C20927   6.076   5.983   2.358  0.4200  0.4195  0.2765
  156MOL0     O20928   5.976   5.957   2.259  0.7166 -0.2714  0.3991
  156MOL0     C20929   5.846   5.932   2.298  0.4556 -0.0177 -1.2471
  156MOL0     C20930   5.773   6.021   2.376  0.4403 -0.8523 -0.4474
  156MOL0     C20931   5.647   5.983   2.426  0.0304  0.5349 -0.5054
  156MOL0     C20932   5.579   5.868   2.376  0.1658 -0.8391  0.3885
  156MOL0     O20933   5.451   5.830   2.408  0.1459  0.0976  0.0637
  156MOL0     C20934   5.363   5.938   2.445 -0.2528  0.0914 -0.2325
  156MOL0     C20935   5.224   5.867   2.438  0.2946 -0.2508  0.9731
  156MOL0     C20936   5.121   5.960   2.506  0.0631 -0.1315 -0.3803
  156MOL0     C20937   4.981   5.901   2.531 -0.1055  0.5301  0.6392
  156MOL0     C20938   4.874   6.010   2.568 -0.4956  0.3870  0.5531
  156MOL0     C20939   4.739   5.945   2.612  0.4900 -0.4928  1.0593
  156MOL0     C20940   4.672   5.878   2.485  0.2418 -0.0453 -0.4918
  156MOL0     C20941   4.523   5.838   2.513  0.5449 -0.6583 -0.7106
  156MOL0     N20942   4.442   5.954   2.522 -0.3261 -0.8629 -0.3062
  156MOL0     C20943   4.423   6.049   2.429 -0.4375 -0.2676  0.1919
  156MOL0     C20944   4.355   6.147   2.493  0.7554 -0.7917 -0.3358
  156MOL0     C20945   4.310   6.272   2.420  0.3898  0.6495 -0.2023
  156MOL0     C20946   4.158   6.277   2.431 -0.1258  0.7512  0.3241
  156MOL0     C20947   4.104   6.411   2.402 -0.1790 -0.6922 -0.3774
  156MOL0     C20948   3.955   6.421   2.444 -0.2456  0.1715 -0.2648
  156MOL0     O20949   3.879   6.304   2.393  0.5584  0.0046  0.1846
  156MOL0     C20950   3.747   6.309   2.409  0.5914 -0.5237  0.4182
  156MOL0     C20951   3.673   6.401   2.493  0.5827  0.1298 -0.4450
  156MOL0     C20952   3.528   6.403   2.488  0.1959 -0.6186  0.2207
  156MOL0     C20953   3.457   6.508   2.572  0.2955 -0.0040  0.6841
  156MOL0     C20954   3.459   6.299   2.420  0.7229 -0.6254 -0.1852
  156MOL0     C20955   3.313   6.279   2.446 -0.2268 -0.5959  0.1198
  156MOL0     O20956   3.277   6.289   2.578  0.6862  0.4130  0.2521
  156MOL0     C20957   3.148   6.290   2.609 -0.8462  0.2158 -1.4962
  156MOL0     C20958   3.095   6.174   2.670  0.0253  0.3012  0.0175
  156MOL0     C20959   2.960   6.164   2.703 -0.0058 -0.3551  0.8574
  156MOL0     C20960   2.878   6.277   2.688 -0.5254 -0.8984  0.6566
  156MOL0     O20961   2.749   6.259   2.718 -0.2723  0.3393 -0.8798
  156MOL0     C20962   2.664   6.324   2.623 -0.5555 -0.2360  0.3172
  156MOL0     C20963   2.523   6.262   2.626 -0.0237 -0.3608 -0.3617
  156MOL0     C20964   2.529   6.119   2.581  0.6779 -0.2466 -0.7848
  156MOL0     C20965   2.410   6.040   2.636  0.5372 -0.2319 -0.6222
  156MOL0     C20966   2.269   6.080   2.586  0.5823  0.6907  0.4743
  156MOL0     C20967   2.172   5.954   2.594  0.3512  0.8877 -0.0222
  156MOL0     C20968   2.021   5.977   2.601  1.0585 -0.1673 -0.0773
  156MOL0     C20969   1.969   6.025   2.466 -0.1163  0.0565  0.1498
  156MOL0    Cl20970   1.950   5.899   2.350  0.0274 -0.1859 -0.0977
  156MOL0     C20971   2.941   6.396   2.651  1.2142 -0.8603 -0.2432
  156MOL0     C20972   3.077   6.406   2.613  0.3133 -0.1416  0.7835
  156MOL0     O20973   3.232   6.253   2.355 -0.5787 -0.0068  0.3962
  156MOL0     C20974   3.525   6.206   2.343 -0.2039  0.4693 -0.0995
  156MOL0     C20975   3.664   6.223   2.332 -0.1360  0.3841  0.2636
  156MOL0     N20976   4.337   6.114   2.624  0.3329  0.2848  0.2760
  156MOL0     N20977   4.385   5.997   2.642 -0.2889  0.2736 -0.4755
  156MOL0     C20978   5.643   5.797   2.278 -0.0668  0.1157  0.7485
  156MOL0     C20979   5.777   5.824   2.247  0.4057  0.4231 -0.0456
  156MOL0     C20980   6.214   5.996   2.313  0.5161 -0.6777  0.2905
  156MOL0     C20981   6.314   6.034   2.394  0.2389 -0.6487  0.1682
  156MOL0     C20982   6.448   6.037   2.359 -0.2607 -0.0319 -0.1474
  156MOL0     C20983   6.480   5.992   2.232 -0.0076 -0.1749  0.9678
  156MOL0     O20984   6.605   5.988   2.177 -0.2136 -0.1351  0.0635
  156MOL0     C20985   6.709   6.045   2.253 -0.1413 -0.3742 -0.2636
  156MOL0     C20986   6.838   6.060   2.162  0.8374  0.3149 -0.3223
  156MOL0     C20987   6.920   5.930   2.162 -0.0691 -0.0287  0.2356
  156MOL0     C20988   7.063   5.958   2.100  0.2671 -0.6584 -0.0504
  156MOL0     C20989   7.138   5.840   2.082 -0.2255 -0.1256 -0.6735
  156MOL0     C20990   7.204   5.738   2.057 -0.5683  0.3518 -0.6688
  156MOL0     C20991   6.379   5.949   2.140 -1.3417  0.1099 -0.5169
  156MOL0     C20992   6.246   5.944   2.184 -0.4366  0.3489  0.0780
  156MOL0     H20993   5.813   6.114   2.412  0.7716 -0.7042 -1.1734
  156MOL0     H20994   5.597   6.056   2.490 -0.1198 -2.3996  3.1054
  156MOL0     H20995   5.386   5.965   2.549  1.9975 -2.0080 -0.0965
  156MOL0     H20996   5.382   6.019   2.375 -0.0515  0.4855  0.2657
  156MOL0     H20997   5.197   5.834   2.337 -0.5811 -2.1805  1.7783
  156MOL0     H20998   5.241   5.778   2.500  1.6445  0.3407  1.4799
  156MOL0     H20999   5.165   5.986   2.603  0.3494  0.9277 -0.7867
  156MOL0     H21000   5.103   6.049   2.445 -1.0425  0.7858  1.1967
  156MOL0     H21001   4.949   5.852   2.438  0.5473 -2.4967  1.8998
  156MOL0     H21002   4.987   5.827   2.611 -1.0664  0.7445  0.9297
  156MOL0     H21003   4.917   6.067   2.650  0.3669  1.5012 -0.6257
  156MOL0     H21004   4.861   6.090   2.494  0.2645  1.5554  1.6345
  156MOL0     H21005   4.746   5.867   2.688  0.1574  1.3915  3.1236
  156MOL0     H21006   4.668   6.021   2.648 -2.0607 -2.2297 -0.0057
  156MOL0     H21007   4.680   5.943   2.398 -0.1108  1.3017  0.4583
  156MOL0     H21008   4.728   5.788   2.456  2.7756  2.3280 -3.8144
  156MOL0     H21009   4.509   5.775   2.601 -1.4689  1.3048  0.4729
  156MOL0     H21010   4.490   5.777   2.428  0.5867  0.1303 -1.3104
  156MOL0     H21011   4.470   6.063   2.332 -0.0221  2.0408  0.6602
  156MOL0     H21012   4.356   6.360   2.465 -1.1727  0.7749  1.2466
  156MOL0     H21013   4.343   6.271   2.315 -1.5192  1.2632 -0.8481
  156MOL0     H21014   4.120   6.248   2.530 -3.1489  4.1241  0.3355
  156MOL0     H21015   4.109   6.212   2.359 -1.2511  1.5503  0.3462
  156MOL0     H21016   4.107   6.435   2.295 -1.6752  0.7362 -0.1394
  156MOL0     H21017   4.155   6.483   2.466 -0.9079 -0.3350 -0.1843
  156MOL0     H21018   3.907   6.513   2.409 -1.8057 -0.9492 -1.1929
  156MOL0     H21019   3.950   6.424   2.553  1.1230  0.6744 -0.1947
  156MOL0     H21020   3.717   6.480   2.553 -1.1684  2.2536 -1.7920
  156MOL0     H21021   3.535   6.584   2.583  0.2039  0.8150 -3.0915
  156MOL0     H21022   3.373   6.563   2.530  0.2556  0.3489  1.2105
  156MOL0     H21023   3.431   6.461   2.667 -1.9984  1.8723  1.0508
  156MOL0     H21024   3.153   6.083   2.682 -1.3028 -0.8324 -1.6258
  156MOL0     H21025   2.909   6.075   2.738  0.5240 -2.1377 -2.4587
  156MOL0     H21026   2.653   6.432   2.638 -0.4280  0.3704 -3.0090
  156MOL0     H21027   2.710   6.317   2.523  1.6064 -0.6837  1.2743
  156MOL0     H21028   2.472   6.275   2.722 -1.6735 -0.9248 -1.1282
  156MOL0     H21029   2.480   6.319   2.543  4.6735  0.7047 -2.4126
  156MOL0     H21030   2.620   6.065   2.609  0.5807 -0.3206 -0.6109
  156MOL0     H21031   2.523   6.110   2.472 -0.4290  2.2470 -0.9902
  156MOL0     H21032   2.422   5.938   2.598 -1.0673 -1.4300  1.8105
  156MOL0     H21033   2.419   6.038   2.745 -2.8483 -0.5647 -0.2316
  156MOL0     H21034   2.283   6.110   2.482 -0.4159 -0.7558 -0.1246
  156MOL0     H21035   2.218   6.156   2.646 -1.9664 -0.0409 -0.6117
  156MOL0     H21036   2.188   5.882   2.513 -0.4581 -1.2419  1.6048
  156MOL0     H21037   2.191   5.899   2.687  3.3331 -0.9309 -1.5448
  156MOL0     H21038   2.001   6.056   2.674 -1.0278 -0.6575 -0.0600
  156MOL0     H21039   1.957   5.895   2.636  2.2401 -2.1017 -2.1711
  156MOL0     H21040   2.038   6.096   2.418  0.1456 -0.6507 -0.5454
  156MOL0     H21041   1.874   6.075   2.488  0.4877  0.7387  1.2820
  156MOL0     H21042   2.889   6.491   2.650 -1.4830 -2.2599 -0.1145
  156MOL0     H21043   3.131   6.497   2.592 -1.5558  0.3477 -2.6222
  156MOL0     H21044   3.469   6.136   2.282 -2.1909  2.6053 -0.8564
  156MOL0     H21045   3.715   6.160   2.260 -1.2985 -0.2285 -0.0511
  156MOL0     H21046   5.584   5.722   2.225  0.6484 -0.4253  0.6919
  156MOL0     H21047   5.840   5.759   2.187  0.8297 -0.0688  0.9074
  156MOL0     H21048   6.301   6.081   2.491  0.7011 -1.5961  0.6973
  156MOL0     H21049   6.523   6.079   2.426  0.8604  0.8470 -1.8875
  156MOL0     H21050   6.680   6.144   2.291  1.7935  0.7043 -1.4219
  156MOL0     H21051   6.736   5.978   2.335  0.7863 -1.0574 -1.1006
  156MOL0     H21052   6.900   6.142   2.197  0.7865 -0.3585  1.4222
  156MOL0     H21053   6.806   6.087   2.061  1.2410 -0.9315 -0.8048
  156MOL0     H21054   6.872   5.851   2.105  1.0697  0.7452 -1.9053
  156MOL0     H21055   6.944   5.892   2.262  1.2728  1.6476  0.5951
  156MOL0     H21056   7.121   6.027   2.161  0.2077 -1.0501  0.4550
  156MOL0     H21057   7.059   6.003   2.000  0.3259  2.0403  1.0970
  156MOL0     H21058   7.263   5.658   2.017 -0.2688 -0.2107  0.8271
  156MOL0     H21059   6.403   5.914   2.040 -1.5445  0.3420 -0.6467
  156MOL0     H21060   6.170   5.906   2.115 -0.6215  0.9792 -0.0677
  157MOL0     O21061  10.100   4.961   7.779 -0.1531 -0.3802 -0.3535
  157MOL0     C21062  10.130   4.921   7.890  0.0562 -0.0581 -0.8209
  157MOL0     O21063  10.048   4.849   7.961 -0.3799 -0.0721 -0.2192
  157MOL0     C21064   9.923   4.809   7.927 -0.4185 -0.4182 -0.1454
  157MOL0     C21065   9.808   4.888   7.926 -0.7118  0.2161 -0.4509
  157MOL0     C21066   9.691   4.833   7.889  0.2230 -0.3974 -0.0895
  157MOL0     C21067   9.679   4.701   7.857  0.3317 -0.6113  0.0374
  157MOL0     O21068   9.552   4.664   7.813 -0.0705  0.9947  0.5698
  157MOL0     C21069   9.554   4.552   7.715 -0.0716  0.7411 -0.2495
  157MOL0     C21070   9.439   4.556   7.605 -0.4554  0.1183  0.4271
  157MOL0     C21071   9.314   4.475   7.650  0.5393 -0.6466  0.8523
  157MOL0     C21072   9.203   4.474   7.542 -0.6312  0.4712 -0.5725
  157MOL0     C21073   9.116   4.593   7.560 -0.7989 -0.0223 -0.2909
  157MOL0     C21074   9.028   4.625   7.437  0.4154 -0.7161 -0.5023
  157MOL0     C21075   9.107   4.718   7.347  0.4051  0.1243  0.0096
  157MOL0     C21076   9.029   4.728   7.216  0.2987  0.7682  0.2917
  157MOL0     N21077   8.885   4.749   7.236 -0.3470  0.5383  0.0797
  157MOL0     C21078   8.782   4.651   7.225  0.4522 -0.2932 -0.2086
  157MOL0     C21079   8.668   4.723   7.246  0.5275  0.0116 -0.4197
  157MOL0     C21080   8.530   4.652   7.229  0.5945 -0.2272  0.4678
  157MOL0     C21081   8.439   4.724   7.115  0.4656  0.6069 -0.7983
  157MOL0     C21082   8.307   4.644   7.116  0.2730 -0.2982 -0.5523
  157MOL0     C21083   8.217   4.688   7.235 -0.9035 -0.2813 -0.3401
  157MOL0     O21084   8.115   4.589   7.245 -0.6280  0.2649 -0.2775
  157MOL0     C21085   7.979   4.625   7.264 -0.2461  0.0219  0.1691
  157MOL0     C21086   7.877   4.562   7.195 -0.3306 -0.0992  0.0832
  157MOL0     C21087   7.743   4.590   7.213 -0.0048  0.2910 -0.0880
  157MOL0     C21088   7.651   4.506   7.125  0.0640  0.7360  0.4767
  157MOL0     C21089   7.711   4.699   7.304 -0.1498 -0.4679  0.9058
  157MOL0     C21090   7.575   4.747   7.329  0.4093  0.1254  0.3317
  157MOL0     O21091   7.469   4.698   7.256  0.4106  0.3271 -0.0144
  157MOL0     C21092   7.337   4.732   7.281  0.2275  0.5003 -0.0008
  157MOL0     C21093   7.266   4.774   7.171  0.1526  0.7346  0.7737
  157MOL0     C21094   7.128   4.794   7.179  0.2161 -0.5355 -0.1294
  157MOL0     C21095   7.055   4.800   7.296  0.2685 -0.0587 -0.6332
  157MOL0     O21096   6.915   4.813   7.324 -0.4391 -0.0059  0.3831
  157MOL0     C21097   6.834   4.791   7.208 -0.0633  0.1017 -0.7980
  157MOL0     C21098   6.710   4.725   7.263 -0.4490  0.0417  0.0877
  157MOL0     C21099   6.610   4.835   7.309  0.0954 -0.7128  1.1775
  157MOL0     C21100   6.469   4.785   7.311 -0.5329 -0.5180  0.1504
  157MOL0     C21101   6.365   4.887   7.334  1.1261 -0.3778 -0.5951
  157MOL0     C21102   6.220   4.837   7.309  0.5306  0.2726  0.3589
  157MOL0     C21103   6.194   4.705   7.379  0.2565  0.9164 -0.3632
  157MOL0     C21104   6.053   4.653   7.357 -0.6520  0.1518  0.5598
  157MOL0    Cl21105   6.038   4.502   7.447 -0.1726  0.4811 -0.0618
  157MOL0     C21106   7.131   4.771   7.409  0.6787 -0.1660 -0.5272
  157MOL0     C21107   7.270   4.731   7.405  0.5125 -0.0300  0.2564
  157MOL0     O21108   7.568   4.844   7.407  0.7322  0.1561  0.0504
  157MOL0     C21109   7.822   4.763   7.374 -0.1030  0.2554 -0.7461
  157MOL0     C21110   7.950   4.727   7.349  0.0058 -0.4437 -0.2615
  157MOL0     N21111   8.712   4.855   7.257  0.1598  0.2280  0.3866
  157MOL0     N21112   8.837   4.871   7.243  0.4603  0.0909 -0.3738
  157MOL0     C21113   9.787   4.615   7.865  0.3922  0.7539 -0.0584
  157MOL0     C21114   9.912   4.669   7.891  0.1922 -0.1402  0.0735
  157MOL0     C21115  10.260   4.962   7.949  0.6644 -0.4094  0.4092
  157MOL0     C21116  10.289   4.929   8.087  0.1497 -1.1664  0.1836
  157MOL0     C21117  10.414   4.962   8.132 -0.0741  0.2915  0.4026
  157MOL0     C21118  10.500   5.041   8.060 -0.1962  0.4290  0.9894
  157MOL0     O21119  10.621   5.088   8.103  0.2694  0.8332  0.5372
  157MOL0     C21120  10.666   5.067   8.235 -0.8674  0.0815  0.0138
  157MOL0     C21121  10.809   5.126   8.258  0.6407  0.7101  0.8957
  157MOL0     C21122  10.812   5.273   8.233  0.4775 -1.1449 -1.0132
  157MOL0     C21123  10.776   5.348   8.364 -0.2915  0.1132  0.2482
  157MOL0     C21124  10.884   5.326   8.465  0.3167 -0.2727  0.2181
  157MOL0     C21125  10.971   5.319   8.548 -0.5286 -0.0422  0.0641
  157MOL0     C21126  10.474   5.067   7.922 -0.7137  0.0929  0.5625
  157MOL0     C21127  10.355   5.019   7.864 -0.1180 -1.0289  0.0130
  157MOL0     H21128   9.813   4.994   7.948  1.0476  0.1909 -0.6040
  157MOL0     H21129   9.611   4.905   7.879 -1.1552 -1.4410  2.5749
  157MOL0     H21130   9.648   4.555   7.660  0.0482  3.2580 -0.0489
  157MOL0     H21131   9.554   4.456   7.768 -1.4065  0.8049 -0.1006
  157MOL0     H21132   9.424   4.658   7.569  0.3500 -0.3254 -1.2558
  157MOL0     H21133   9.485   4.499   7.524  0.3193 -0.2386  1.1006
  157MOL0     H21134   9.337   4.369   7.666  2.1384 -0.3635  0.5676
  157MOL0     H21135   9.278   4.516   7.744 -0.7058 -1.3704  0.7194
  157MOL0     H21136   9.269   4.477   7.455  0.3035  0.3268  0.1103
  157MOL0     H21137   9.144   4.382   7.533  0.9124 -0.5630 -0.5071
  157MOL0     H21138   9.046   4.578   7.643 -4.0744  5.2551 -1.5385
  157MOL0     H21139   9.182   4.676   7.589  0.9780 -1.5789  0.2978
  157MOL0     H21140   8.999   4.535   7.382  1.4192 -0.5040 -1.4099
  157MOL0     H21141   8.939   4.678   7.470 -0.6710 -1.9563 -1.3133
  157MOL0     H21142   9.114   4.820   7.386  0.6764 -0.0117  0.3239
  157MOL0     H21143   9.211   4.690   7.333  0.4178 -2.0999  3.3450
  157MOL0     H21144   9.054   4.635   7.163 -0.4013  0.4389  0.5289
  157MOL0     H21145   9.064   4.812   7.155 -3.1083 -0.6467 -4.1242
  157MOL0     H21146   8.782   4.543   7.213 -0.4273 -0.2238 -0.9405
  157MOL0     H21147   8.545   4.549   7.195 -3.5166 -0.4831 -1.1526
  157MOL0     H21148   8.477   4.652   7.324 -1.8815  0.4556 -0.8259
  157MOL0     H21149   8.494   4.722   7.021  1.5928 -2.3667 -0.1882
  157MOL0     H21150   8.418   4.830   7.129 -1.8155  0.1094 -0.0765
  157MOL0     H21151   8.327   4.537   7.124 -1.5746 -0.6369  0.1314
  157MOL0     H21152   8.255   4.655   7.020 -0.4166 -2.3234 -0.4447
  157MOL0     H21153   8.179   4.787   7.207 -1.1790 -0.3453 -0.1901
  157MOL0     H21154   8.275   4.691   7.328  0.6158 -0.2423 -1.2371
  157MOL0     H21155   7.916   4.494   7.119  0.2354 -0.0043  0.2843
  157MOL0     H21156   7.702   4.452   7.045  0.5166  1.3390  0.3518
  157MOL0     H21157   7.596   4.431   7.184  0.2005  0.8343  0.7335
  157MOL0     H21158   7.574   4.562   7.071  1.2015 -1.4172 -3.7447
  157MOL0     H21159   7.299   4.756   7.070 -0.3513  0.0103  0.7303
  157MOL0     H21160   7.064   4.822   7.096 -1.1318  3.4792  1.9593
  157MOL0     H21161   6.827   4.884   7.151  2.1991  0.7837 -0.0931
  157MOL0     H21162   6.887   4.727   7.137  1.4179  0.7356 -0.3209
  157MOL0     H21163   6.674   4.665   7.179 -0.2245  0.3060 -0.2010
  157MOL0     H21164   6.744   4.661   7.345 -0.4421  0.9367  0.7965
  157MOL0     H21165   6.611   4.895   7.217  0.4208 -1.9939  0.3283
  157MOL0     H21166   6.644   4.892   7.396 -0.9355  0.3339  0.9220
  157MOL0     H21167   6.453   4.741   7.213  2.3624  0.8966 -1.1123
  157MOL0     H21168   6.468   4.710   7.390 -1.6768  0.4616  1.1028
  157MOL0     H21169   6.374   4.969   7.262  0.2739 -0.2032 -0.5106
  157MOL0     H21170   6.386   4.925   7.435 -1.2003 -0.6362  0.0515
  157MOL0     H21171   6.144   4.906   7.346 -1.0127 -1.7673  1.2093
  157MOL0     H21172   6.205   4.822   7.202 -2.0013 -0.5713  0.7784
  157MOL0     H21173   6.219   4.704   7.486  2.3081 -0.7739 -0.7883
  157MOL0     H21174   6.261   4.628   7.338  0.1850  0.7828 -0.2282
  157MOL0     H21175   6.032   4.638   7.250  2.9267  2.7424 -0.7140
  157MOL0     H21176   5.979   4.724   7.395 -0.1260 -0.4200  2.7900
  157MOL0     H21177   7.077   4.751   7.501 -1.5679 -0.3193 -1.7974
  157MOL0     H21178   7.329   4.705   7.492 -0.4766  0.2098  1.0151
  157MOL0     H21179   7.806   4.837   7.452  0.5504 -2.3962  2.1457
  157MOL0     H21180   8.031   4.786   7.390  2.0629 -2.7536 -0.7822
  157MOL0     H21181   9.757   4.511   7.861 -0.2836  0.9458 -0.0362
  157MOL0     H21182   9.999   4.605   7.902 -0.4195 -0.9518  0.2729
  157MOL0     H21183  10.218   4.869   8.143 -4.2286  0.5476 -3.0106
  157MOL0     H21184  10.436   4.931   8.234 -0.4518  0.9913  0.6996
  157MOL0     H21185  10.598   5.108   8.311 -0.4971  1.8246 -0.5594
  157MOL0     H21186  10.669   4.960   8.260 -1.2052  0.2637  0.8796
  157MOL0     H21187  10.880   5.081   8.187  0.3617 -0.0428  1.0831
  157MOL0     H21188  10.833   5.086   8.357  0.6352  0.3340  0.7469
  157MOL0     H21189  10.742   5.306   8.156  3.0676  1.2528 -2.5418
  157MOL0     H21190  10.909   5.309   8.198 -0.1937 -0.7281 -2.5533
  157MOL0     H21191  10.687   5.310   8.415  0.1928 -0.3792  0.7504
  157MOL0     H21192  10.768   5.454   8.338  1.6254  0.4497  0.8170
  157MOL0     H21193  11.055   5.319   8.614  1.6019  0.1919 -2.5076
  157MOL0     H21194  10.552   5.121   7.869  1.5107 -0.8845  2.6762
  157MOL0     H21195  10.330   5.049   7.763  0.3485 -0.0606  0.1727
  158MOL0     O21196   1.422   0.394   9.128 -0.2383 -0.0089 -0.0921
  158MOL0     C21197   1.406   0.512   9.125  0.2219 -1.0154  0.3926
  158MOL0     O21198   1.346   0.572   9.021  0.4578 -0.6881  0.1134
  158MOL0     C21199   1.285   0.495   8.920 -0.4638 -0.2035 -0.9127
  158MOL0     C21200   1.151   0.449   8.933 -0.0147 -0.1536  0.5464
  158MOL0     C21201   1.093   0.361   8.833 -0.1658  0.5465 -0.2036
  158MOL0     C21202   1.172   0.329   8.723 -0.1649 -0.3354  0.8106
  158MOL0     O21203   1.115   0.245   8.627  0.0440 -0.3940  0.1803
  158MOL0     C21204   1.192   0.160   8.536 -0.1834 -0.1466  0.0753
  158MOL0     C21205   1.102   0.054   8.486 -0.9373 -0.3367  0.1492
  158MOL0     C21206   1.005   0.113   8.380 -0.2620  0.2968  0.2519
  158MOL0     C21207   0.902   0.009   8.325  0.2522 -0.0206 -0.8210
  158MOL0     C21208   0.812  -0.049   8.436 -0.7711  0.2051  0.7796
  158MOL0     C21209   0.713   0.058   8.492 -0.9493  0.5627  0.4383
  158MOL0     C21210   0.632  -0.003   8.605  0.3415  0.7235  0.3374
  158MOL0     C21211   0.541   0.104   8.652 -0.2887 -0.7858 -0.0953
  158MOL0     N21212   0.417   0.109   8.567 -0.6254 -1.0059 -0.5358
  158MOL0     C21213   0.314   0.039   8.609 -0.0052  0.0816  0.3261
  158MOL0     C21214   0.208   0.088   8.531 -0.3879 -0.4875 -0.0289
  158MOL0     C21215   0.071   0.032   8.537  0.1071  0.4646  0.7950
  158MOL0     C21216   0.004   0.003   8.406  0.0946 -0.2487  0.0291
  158MOL0     C21217  -0.081   0.116   8.352  0.0392  0.5827  0.0205
  158MOL0     C21218  -0.117   0.083   8.209 -0.0234 -0.4007 -0.6915
  158MOL0     O21219  -0.249   0.033   8.194 -0.2838  0.6392  0.2057
  158MOL0     C21220  -0.351   0.120   8.197  0.4892 -0.4618 -0.0198
  158MOL0     C21221  -0.484   0.068   8.193 -0.7560  0.4625  0.2201
  158MOL0     C21222  -0.602   0.142   8.218  0.3000  0.5382 -0.9799
  158MOL0     C21223  -0.738   0.073   8.216 -0.0190 -0.1203  0.5334
  158MOL0     C21224  -0.578   0.280   8.249  0.4386  1.1097 -0.7819
  158MOL0     C21225  -0.692   0.382   8.264 -0.4197 -0.7072  0.2496
  158MOL0     O21226  -0.659   0.511   8.240  0.3778 -0.3401 -0.3672
  158MOL0     C21227  -0.758   0.602   8.257 -0.1525 -0.3138 -0.3196
  158MOL0     C21228  -0.770   0.648   8.392  0.4094  0.2450  0.2508
  158MOL0     C21229  -0.870   0.736   8.431  0.5266 -0.1933  0.1084
  158MOL0     C21230  -0.948   0.793   8.330  0.5362 -0.6966  0.0692
  158MOL0     O21231  -1.042   0.880   8.376  0.7202 -0.2239  0.6284
  158MOL0     C21232  -1.177   0.863   8.326  0.4500  0.4964 -0.4901
  158MOL0     C21233  -1.274   0.954   8.398 -0.5801 -0.4368  0.9083
  158MOL0     C21234  -1.402   0.934   8.325 -0.4436 -0.0497 -0.5462
  158MOL0     C21235  -1.511   1.020   8.388  1.0308  0.3518  1.1913
  158MOL0     C21236  -1.644   1.009   8.312  0.1973 -0.2665  0.4985
  158MOL0     C21237  -1.700   0.866   8.322  0.2174  0.2717 -0.7322
  158MOL0     C21238  -1.839   0.864   8.266 -0.5031 -0.1965 -0.0118
  158MOL0     C21239  -1.910   0.735   8.289 -0.1193 -0.1920  0.4211
  158MOL0    Cl21240  -1.829   0.601   8.207  0.4593 -0.3706  0.3946
  158MOL0     C21241  -0.936   0.750   8.194  0.3752 -0.6307  0.3641
  158MOL0     C21242  -0.835   0.660   8.158  0.6607  0.1612 -0.1618
  158MOL0     O21243  -0.803   0.343   8.311 -0.0228 -0.2860  0.1403
  158MOL0     C21244  -0.450   0.336   8.256 -0.1150  0.2526 -0.5698
  158MOL0     C21245  -0.341   0.253   8.236 -0.0849  0.1117 -0.0265
  158MOL0     N21246   0.258   0.198   8.454 -0.2381  0.4025 -1.1860
  158MOL0     N21247   0.381   0.209   8.479 -0.2114  0.0210 -0.2804
  158MOL0     C21248   1.300   0.388   8.705  0.2551 -0.4112  0.5549
  158MOL0     C21249   1.355   0.468   8.804  0.5507 -0.5403  0.3007
  158MOL0     C21250   1.481   0.598   9.216  0.4232  0.5737  0.1326
  158MOL0     C21251   1.507   0.735   9.186 -0.2482 -0.5288 -0.6354
  158MOL0     C21252   1.567   0.814   9.294 -0.4063  0.4041  0.2569
  158MOL0     C21253   1.604   0.764   9.422 -0.4479  0.0899 -0.1967
  158MOL0     O21254   1.669   0.843   9.519  0.3370  0.1650  0.8956
  158MOL0     C21255   1.769   0.925   9.472  0.7624 -0.1319 -0.2658
  158MOL0     C21256   1.875   0.916   9.588 -0.3610 -0.3276 -0.1641
  158MOL0     C21257   1.975   1.035   9.586 -0.3828 -0.3053 -0.0480
  158MOL0     C21258   2.071   1.019   9.473  0.3616 -0.7382  0.8815
  158MOL0     C21259   2.193   1.087   9.502  1.2410  0.4857 -0.0189
  158MOL0     C21260   2.302   1.127   9.539  0.5649  0.0307 -0.4434
  158MOL0     C21261   1.579   0.626   9.449  0.0478 -0.7969 -0.5388
  158MOL0     C21262   1.509   0.551   9.348 -0.8444 -0.3731 -0.5144
  158MOL0     H21263   1.092   0.470   9.022  0.7472  0.0290  1.0290
  158MOL0     H21264   1.002   0.303   8.840 -0.2784  0.3336 -2.6229
  158MOL0     H21265   1.236   0.215   8.453 -1.4612 -0.7310 -1.0263
  158MOL0     H21266   1.278   0.110   8.581  0.7755 -1.1597 -2.7257
  158MOL0     H21267   1.164  -0.023   8.441 -0.3296 -0.5479  1.3117
  158MOL0     H21268   1.051   0.007   8.571 -0.3221 -0.5854  0.3912
  158MOL0     H21269   0.954   0.198   8.425  1.8225  3.0301 -2.1249
  158MOL0     H21270   1.061   0.160   8.299 -1.4704 -0.0913 -0.8382
  158MOL0     H21271   0.842   0.064   8.251 -1.5114  0.3651  0.8204
  158MOL0     H21272   0.958  -0.071   8.276 -1.4413  0.1641 -3.2477
  158MOL0     H21273   0.755  -0.128   8.388  2.8374 -2.9789  1.2691
  158MOL0     H21274   0.875  -0.090   8.515 -0.6552 -0.2614  0.4476
  158MOL0     H21275   0.779   0.134   8.536  0.0853 -2.2146  4.2257
  158MOL0     H21276   0.654   0.102   8.412  1.5648  3.2640 -0.1316
  158MOL0     H21277   0.577  -0.090   8.567  0.6091  1.2728 -1.4426
  158MOL0     H21278   0.698  -0.031   8.687  0.2799  0.6286  0.3542
  158MOL0     H21279   0.591   0.201   8.654  2.4099 -2.0820  1.5658
  158MOL0     H21280   0.523   0.078   8.757  1.4906 -0.6982  0.2694
  158MOL0     H21281   0.309  -0.047   8.674 -1.3862  0.9488  1.4342
  158MOL0     H21282   0.090  -0.061   8.590  0.9999 -1.0739 -1.9889
  158MOL0     H21283  -0.000   0.101   8.583 -1.8981 -0.4468 -0.7985
  158MOL0     H21284  -0.068  -0.078   8.418  0.7461 -1.1793 -1.9615
  158MOL0     H21285   0.081  -0.027   8.334  1.1986 -0.5111  1.2797
  158MOL0     H21286  -0.016   0.203   8.363 -1.0026  1.1725  1.9846
  158MOL0     H21287  -0.168   0.125   8.417 -1.5945  1.0633 -2.1272
  158MOL0     H21288  -0.051   0.005   8.169  1.6524  0.9210 -0.6142
  158MOL0     H21289  -0.098   0.166   8.140  0.1338 -1.3629 -1.8439
  158MOL0     H21290  -0.489  -0.039   8.176  1.6492  0.3896 -0.3406
  158MOL0     H21291  -0.761   0.028   8.313  0.1253 -1.0620  0.1428
  158MOL0     H21292  -0.821   0.139   8.192  1.4645  2.4531  1.9913
  158MOL0     H21293  -0.737  -0.005   8.139  0.2373  0.8709 -0.5105
  158MOL0     H21294  -0.718   0.611   8.480  1.1371 -0.8871 -0.6151
  158MOL0     H21295  -0.877   0.770   8.534  2.2618 -0.2937  0.2875
  158MOL0     H21296  -1.173   0.875   8.217 -1.3273  0.3244 -0.5994
  158MOL0     H21297  -1.197   0.757   8.347  1.9685  0.0683 -1.0509
  158MOL0     H21298  -1.289   0.925   8.503  2.0109 -1.0331  1.1779
  158MOL0     H21299  -1.251   1.061   8.403 -2.6833  0.2514 -1.7418
  158MOL0     H21300  -1.421   0.826   8.331  0.0330 -0.1507 -0.7407
  158MOL0     H21301  -1.401   0.960   8.218 -2.3814 -1.7929 -1.0538
  158MOL0     H21302  -1.539   0.985   8.488  0.5416 -1.6421  0.4280
  158MOL0     H21303  -1.488   1.126   8.388 -2.2129  1.1727  0.3604
  158MOL0     H21304  -1.625   1.023   8.205  2.5762  1.5152  1.0894
  158MOL0     H21305  -1.717   1.087   8.334  0.1011 -0.4068  0.6746
  158MOL0     H21306  -1.636   0.799   8.263 -0.1898 -0.3514 -0.4844
  158MOL0     H21307  -1.690   0.827   8.424  1.2786 -3.1214 -1.9749
  158MOL0     H21308  -1.832   0.873   8.158  1.6454 -1.3416 -0.0216
  158MOL0     H21309  -1.896   0.950   8.303  0.0116 -0.6273  1.9316
  158MOL0     H21310  -2.007   0.732   8.239  1.1818 -3.6859 -2.3107
  158MOL0     H21311  -1.922   0.722   8.397 -0.7752  0.1169  0.3926
  158MOL0     H21312  -0.988   0.808   8.119  1.0294  2.7167  2.2936
  158MOL0     H21313  -0.806   0.631   8.058  1.3201 -1.2491  0.3949
  158MOL0     H21314  -0.434   0.443   8.268  1.2360  0.4214 -3.2343
  158MOL0     H21315  -0.242   0.296   8.248  1.5798 -3.4829  0.4906
  158MOL0     H21316   1.354   0.378   8.611 -2.4260 -0.8271 -1.0570
  158MOL0     H21317   1.454   0.510   8.797 -0.5287  2.7665  2.4529
  158MOL0     H21318   1.501   0.785   9.090 -0.3411  0.6143 -0.0492
  158MOL0     H21319   1.566   0.921   9.280 -4.3658  0.3540 -1.1059
  158MOL0     H21320   1.807   0.900   9.372  0.3735  1.6358 -0.8842
  158MOL0     H21321   1.721   1.023   9.461 -2.6078 -1.8406 -2.5294
  158MOL0     H21322   1.921   0.817   9.584 -1.1023 -0.6497 -1.3733
  158MOL0     H21323   1.825   0.916   9.685 -2.6189 -1.1304 -1.2654
  158MOL0     H21324   2.027   1.045   9.681 -1.1903 -1.5193  0.5416
  158MOL0     H21325   1.917   1.128   9.573  3.0264  2.0577  0.4073
  158MOL0     H21326   2.034   1.050   9.375  1.3877 -2.4160 -0.0687
  158MOL0     H21327   2.096   0.914   9.456  1.5103 -0.5251  1.1572
  158MOL0     H21328   2.404   1.157   9.553  0.8123  0.9014 -3.4340
  158MOL0     H21329   1.613   0.573   9.537  0.1588  1.0127  0.5495
  158MOL0     H21330   1.479   0.450   9.376  0.6080 -0.5099  0.6828
  159MOL0     O21331  10.439   1.913   6.529  0.1151 -0.0197  0.4046
  159MOL0     C21332  10.426   1.815   6.600 -0.5928  0.1027 -0.8321
  159MOL0     O21333  10.321   1.781   6.668 -0.3490 -0.3177  0.2373
  159MOL0     C21334  10.198   1.852   6.664  1.1279  0.3654 -0.3284
  159MOL0     C21335  10.167   1.970   6.594  0.0128 -0.0385 -0.0622
  159MOL0     C21336  10.041   2.028   6.599 -0.4229 -0.1919 -0.1645
  159MOL0     C21337   9.948   1.978   6.689  0.0975  0.3063 -0.5347
  159MOL0     O21338   9.837   2.048   6.716 -0.4912  0.1632 -0.0282
  159MOL0     C21339   9.739   1.990   6.804  0.4300 -0.9619  0.6305
  159MOL0     C21340   9.608   2.070   6.800  0.2106  0.5217 -0.5481
  159MOL0     C21341   9.637   2.208   6.848  0.9654 -0.3777 -1.0806
  159MOL0     C21342   9.510   2.296   6.854  0.4238 -0.7622 -0.3754
  159MOL0     C21343   9.557   2.435   6.870  0.1957 -0.7737 -0.2140
  159MOL0     C21344   9.444   2.535   6.894 -1.2744  0.2900  0.1938
  159MOL0     C21345   9.326   2.520   6.792  0.4029 -0.0194 -0.2121
  159MOL0     C21346   9.244   2.643   6.772 -1.0687 -0.2103  0.2940
  159MOL0     N21347   9.138   2.654   6.872  0.2971  0.2163  0.3439
  159MOL0     C21348   9.143   2.647   7.007  0.3719 -0.1325 -0.3456
  159MOL0     C21349   9.012   2.664   7.052  0.0747 -0.6502  0.3704
  159MOL0     C21350   8.970   2.664   7.203 -0.5478 -0.6061 -0.2514
  159MOL0     C21351   8.911   2.800   7.233  0.1693  0.1863 -0.4813
  159MOL0     C21352   8.762   2.811   7.199  0.4382 -0.2825  0.0052
  159MOL0     C21353   8.717   2.959   7.208 -0.1655 -1.3527  0.1901
  159MOL0     O21354   8.727   3.029   7.081 -0.1904 -0.3160  0.8250
  159MOL0     C21355   8.643   3.133   7.058  0.7137 -0.6637 -0.2499
  159MOL0     C21356   8.605   3.221   7.167  1.2035 -0.8341 -0.0137
  159MOL0     C21357   8.509   3.323   7.149 -1.0718 -0.0888 -0.3749
  159MOL0     C21358   8.473   3.401   7.268 -0.6522  0.7588  0.4014
  159MOL0     C21359   8.451   3.341   7.018 -0.2761 -0.1798  0.1844
  159MOL0     C21360   8.330   3.422   6.991 -0.1158  0.1281 -0.0536
  159MOL0     O21361   8.267   3.477   7.104  0.1195  0.3876  0.1256
  159MOL0     C21362   8.142   3.541   7.078 -0.0858 -0.0011  0.8740
  159MOL0     C21363   8.021   3.477   7.121 -1.1021  0.4442 -0.2682
  159MOL0     C21364   7.900   3.543   7.121  1.3695 -0.3774 -0.2375
  159MOL0     C21365   7.884   3.675   7.077  0.1793 -0.6796 -0.0568
  159MOL0     O21366   7.778   3.756   7.056 -0.7955 -0.5172  1.1929
  159MOL0     C21367   7.649   3.715   7.093 -0.2951 -0.0982  0.7223
  159MOL0     C21368   7.546   3.825   7.064 -0.4153 -0.6940 -0.2200
  159MOL0     C21369   7.400   3.780   7.088  0.0820 -0.6461 -0.0131
  159MOL0     C21370   7.334   3.698   6.973  0.1576  0.3218  0.9318
  159MOL0     C21371   7.187   3.678   6.990  0.5847 -0.1904 -0.6168
  159MOL0     C21372   7.106   3.799   6.963  0.2491 -0.0907  0.1361
  159MOL0     C21373   6.953   3.784   6.962 -0.6857 -0.1416  0.1052
  159MOL0     C21374   6.890   3.901   6.883  0.1283  0.2311  0.1836
  159MOL0    Cl21375   6.712   3.873   6.888  0.1855 -0.2818 -0.2055
  159MOL0     C21376   8.004   3.738   7.039  0.8242  0.6183  0.1153
  159MOL0     C21377   8.123   3.669   7.038 -0.2644 -0.6432  0.2305
  159MOL0     O21378   8.295   3.441   6.876  0.3555  0.2453  1.4672
  159MOL0     C21379   8.506   3.274   6.914  0.1033 -0.6251 -0.0668
  159MOL0     C21380   8.605   3.176   6.929 -0.1915  0.9333  0.6390
  159MOL0     N21381   8.932   2.660   6.940  0.1778 -0.6755  0.6289
  159MOL0     N21382   9.003   2.657   6.837  0.1109 -0.3454  0.3599
  159MOL0     C21383   9.972   1.858   6.755  0.0167 -0.3420 -0.0182
  159MOL0     C21384  10.088   1.791   6.735 -0.6470 -0.9743  0.4654
  159MOL0     C21385  10.551   1.738   6.622  0.3839 -1.1527 -0.2841
  159MOL0     C21386  10.554   1.642   6.720  0.1430  0.6462  0.8320
  159MOL0     C21387  10.681   1.587   6.758  0.7436 -0.4554  0.5528
  159MOL0     C21388  10.794   1.613   6.680  0.4929 -0.0496  0.5306
  159MOL0     O21389  10.924   1.571   6.698 -0.0014 -0.0394 -0.6084
  159MOL0     C21390  10.951   1.485   6.814 -0.1048  0.6990  0.3436
  159MOL0     C21391  11.087   1.412   6.803  0.0303 -0.5712 -0.2837
  159MOL0     C21392  11.115   1.331   6.679  0.2875  0.0045 -0.0136
  159MOL0     C21393  11.004   1.217   6.654 -0.3632  0.3514  0.4909
  159MOL0     C21394  11.026   1.094   6.721 -0.9936 -0.1752  0.4015
  159MOL0     C21395  11.031   1.000   6.794  0.1211 -0.5079  0.4906
  159MOL0     C21396  10.784   1.696   6.568 -0.3315 -0.1607 -0.2407
  159MOL0     C21397  10.662   1.754   6.534 -0.1782  0.2866 -0.4882
  159MOL0     H21398  10.242   2.016   6.531  3.0457 -3.7727  0.4756
  159MOL0     H21399  10.006   2.111   6.539 -0.3230 -0.2848 -0.3516
  159MOL0     H21400   9.711   1.892   6.767 -0.0009 -1.6958  2.7525
  159MOL0     H21401   9.784   1.985   6.904  1.2324 -1.8055  0.2332
  159MOL0     H21402   9.568   2.074   6.698  0.5562  2.0426 -0.6406
  159MOL0     H21403   9.537   2.021   6.867 -0.3141 -0.8317 -2.0113
  159MOL0     H21404   9.689   2.209   6.943  1.6894 -0.0043 -1.4736
  159MOL0     H21405   9.703   2.256   6.776  1.2530  0.6416 -0.1515
  159MOL0     H21406   9.453   2.285   6.762 -1.2678 -1.1016  0.6602
  159MOL0     H21407   9.446   2.257   6.934  2.0254 -2.4639  0.1510
  159MOL0     H21408   9.624   2.440   6.957 -2.3768 -0.2342  1.8721
  159MOL0     H21409   9.601   2.474   6.778 -1.0419  1.3566  0.0406
  159MOL0     H21410   9.400   2.527   6.994 -0.3120 -1.6609  0.5195
  159MOL0     H21411   9.481   2.638   6.891  1.1202 -0.5173 -1.7957
  159MOL0     H21412   9.360   2.496   6.691  1.8216 -1.3426  0.5453
  159MOL0     H21413   9.269   2.431   6.823  2.1245 -1.2429 -0.4464
  159MOL0     H21414   9.200   2.634   6.672  0.8679  0.0203 -0.6303
  159MOL0     H21415   9.310   2.731   6.768 -1.2917 -0.0701 -0.3998
  159MOL0     H21416   9.219   2.638   7.085  0.1866  4.0583  0.5697
  159MOL0     H21417   8.903   2.579   7.221 -2.6804  1.2702  1.2143
  159MOL0     H21418   9.058   2.644   7.264 -0.7373 -1.0349 -0.1111
  159MOL0     H21419   8.970   2.874   7.178 -0.8412  0.2673 -1.4892
  159MOL0     H21420   8.930   2.822   7.339  0.4774  1.3904 -0.7632
  159MOL0     H21421   8.709   2.760   7.279 -0.3720 -1.4215 -1.2341
  159MOL0     H21422   8.733   2.765   7.105  1.1449 -0.6138 -0.0610
  159MOL0     H21423   8.781   3.020   7.273  0.3546  1.2852 -2.5642
  159MOL0     H21424   8.614   2.958   7.247 -0.3200 -0.7204 -0.1822
  159MOL0     H21425   8.640   3.200   7.268 -5.0775 -1.7949  2.4138
  159MOL0     H21426   8.547   3.383   7.346 -1.9833  2.7108  2.2400
  159MOL0     H21427   8.460   3.509   7.253  1.5067  0.8752 -1.0316
  159MOL0     H21428   8.380   3.363   7.310  0.2906 -2.4336 -0.1340
  159MOL0     H21429   8.037   3.378   7.161 -1.1452  0.2521 -0.7169
  159MOL0     H21430   7.814   3.493   7.163  2.6486  0.9445  4.6455
  159MOL0     H21431   7.609   3.633   7.031 -3.7382  1.0690  1.2114
  159MOL0     H21432   7.656   3.672   7.193  0.0334 -0.7079  0.4468
  159MOL0     H21433   7.566   3.903   7.137 -0.3195 -3.5106  2.9813
  159MOL0     H21434   7.552   3.866   6.962  0.0112 -0.4111 -0.0822
  159MOL0     H21435   7.349   3.877   7.091  0.1609 -0.5309 -1.6839
  159MOL0     H21436   7.391   3.728   7.184 -1.5288  1.2644  0.9485
  159MOL0     H21437   7.346   3.747   6.876  0.2490 -0.9716  0.2668
  159MOL0     H21438   7.393   3.606   6.965  2.9380  2.0448 -0.0006
  159MOL0     H21439   7.157   3.639   7.088  0.7719  0.5504 -0.2602
  159MOL0     H21440   7.158   3.606   6.913 -2.8985  0.8120 -0.4506
  159MOL0     H21441   7.142   3.867   7.041  3.5794 -0.9459 -0.4824
  159MOL0     H21442   7.140   3.851   6.873  1.6289  3.3039  2.4074
  159MOL0     H21443   6.913   3.779   7.064 -0.4708  0.3019  0.2140
  159MOL0     H21444   6.929   3.688   6.916  3.3778 -0.3170 -2.1230
  159MOL0     H21445   6.920   3.895   6.778 -0.7900 -1.2084 -0.0292
  159MOL0     H21446   6.914   4.000   6.922 -0.0283  0.0506  0.7605
  159MOL0     H21447   7.994   3.843   7.012  2.4350  1.4309  2.3616
  159MOL0     H21448   8.201   3.740   7.016 -0.2823 -0.3774  0.9830
  159MOL0     H21449   8.476   3.300   6.813 -0.2932  1.5761  0.5456
  159MOL0     H21450   8.644   3.126   6.841 -1.4808 -2.4888  1.8283
  159MOL0     H21451   9.908   1.810   6.828 -0.9568  0.6793 -0.1771
  159MOL0     H21452  10.099   1.699   6.792  0.0450 -0.4400  1.2365
  159MOL0     H21453  10.469   1.628   6.786  1.0194  0.1020  1.8937
  159MOL0     H21454  10.693   1.529   6.849 -1.0491 -0.4953  0.8142
  159MOL0     H21455  10.949   1.564   6.889 -0.7925  0.4706  0.5775
  159MOL0     H21456  10.871   1.415   6.843 -0.1699  1.5370  2.3688
  159MOL0     H21457  11.097   1.348   6.892  2.5585 -0.7590 -0.6266
  159MOL0     H21458  11.167   1.485   6.817  0.4860 -0.6072 -2.3801
  159MOL0     H21459  11.209   1.276   6.689 -1.2937 -2.7280  0.9285
  159MOL0     H21460  11.130   1.398   6.593 -0.2839 -0.3143 -0.3658
  159MOL0     H21461  10.994   1.189   6.549 -3.6851  0.6506  0.6438
  159MOL0     H21462  10.905   1.246   6.688  0.0829  2.0440  0.4502
  159MOL0     H21463  11.021   0.928   6.872 -2.7841 -0.2409  0.4787
  159MOL0     H21464  10.866   1.716   6.500 -1.2035  1.3646 -0.8871
  159MOL0     H21465  10.667   1.827   6.454 -1.4625  0.1012 -0.7715
  160MOL0     O21466   2.399   7.582   9.041  0.2712  0.1902 -0.4654
  160MOL0     C21467   2.418   7.698   9.013 -0.9103 -0.4638  0.2790
  160MOL0     O21468   2.339   7.805   9.054 -0.2743  0.0458  0.2737
  160MOL0     C21469   2.240   7.789   9.144 -0.1431 -0.3685  0.8854
  160MOL0     C21470   2.110   7.800   9.095  0.1896  0.5878  0.3849
  160MOL0     C21471   2.014   7.803   9.192 -0.0974  0.0648 -0.0725
  160MOL0     C21472   2.043   7.793   9.335 -0.2610  0.7393 -0.4703
  160MOL0     O21473   1.953   7.793   9.435  0.7883 -0.4962 -0.3727
  160MOL0     C21474   1.827   7.860   9.403  0.5902 -0.0460 -0.1554
  160MOL0     C21475   1.750   7.861   9.545 -0.4544 -0.4254  0.2459
  160MOL0     C21476   1.619   7.951   9.540 -0.3544  0.5145  0.2428
  160MOL0     C21477   1.507   7.892   9.457 -0.2675  0.0992 -0.3593
  160MOL0     C21478   1.378   7.976   9.467 -0.5634 -0.0811 -0.5474
  160MOL0     C21479   1.303   7.946   9.598 -0.2246  0.2701 -0.3118
  160MOL0     C21480   1.188   8.045   9.612  0.7155  0.4819  0.1922
  160MOL0     C21481   1.068   8.015   9.522  1.2085  0.7223  0.3094
  160MOL0     N21482   0.969   8.133   9.534 -0.2640 -0.0777  0.8679
  160MOL0     C21483   0.908   8.166   9.646  0.7487  0.4708 -0.0001
  160MOL0     C21484   0.826   8.272   9.607 -0.2869  0.3192 -0.5842
  160MOL0     C21485   0.738   8.332   9.698  0.1065  0.4400  0.0927
  160MOL0     C21486   0.608   8.370   9.633  0.3277 -0.1111 -0.1483
  160MOL0     C21487   0.505   8.406   9.747 -0.5075 -0.3365 -0.1151
  160MOL0     C21488   0.374   8.461   9.696  0.6931 -0.4233  0.5566
  160MOL0     O21489   0.369   8.566   9.599  0.7842 -0.1161 -0.8454
  160MOL0     C21490   0.246   8.630   9.585 -0.4792 -0.1113  0.3696
  160MOL0     C21491   0.233   8.737   9.499 -1.0033  0.6754  0.7279
  160MOL0     C21492   0.107   8.804   9.470  0.4875  0.1702 -0.6252
  160MOL0     C21493   0.112   8.909   9.369  0.1737 -1.4481 -0.1517
  160MOL0     C21494  -0.006   8.771   9.544  1.0586  0.0175  0.6271
  160MOL0     C21495  -0.133   8.856   9.547  0.7849  0.1083  0.2223
  160MOL0     O21496  -0.235   8.783   9.594  0.0448 -0.5351  0.4747
  160MOL0     C21497  -0.362   8.841   9.601 -0.6334 -0.4592 -0.4799
  160MOL0     C21498  -0.410   8.956   9.530  0.4985  0.2984 -0.1024
  160MOL0     C21499  -0.544   8.987   9.532  0.3431  0.4740  0.9688
  160MOL0     C21500  -0.638   8.924   9.628  0.2044  0.0179  0.0931
  160MOL0     O21501  -0.771   8.951   9.658 -0.7162  0.0685  0.5145
  160MOL0     C21502  -0.841   9.033   9.558  0.2445 -0.4778 -0.4691
  160MOL0     C21503  -0.900   8.952   9.446 -1.3257  0.0691 -0.6652
  160MOL0     C21504  -0.993   8.847   9.497  1.0110 -0.5183 -0.5276
  160MOL0     C21505  -1.128   8.905   9.548  0.5975  0.0215  0.2689
  160MOL0     C21506  -1.246   8.812   9.572 -0.1581  0.6033  0.5899
  160MOL0     C21507  -1.376   8.888   9.587  0.6313 -0.3438 -0.1258
  160MOL0     C21508  -1.510   8.804   9.624 -0.2967 -0.3253  1.0142
  160MOL0     C21509  -1.543   8.681   9.535  0.6503 -0.2157 -0.0563
  160MOL0    Cl21510  -1.713   8.624   9.550  0.3909  0.2148 -0.0809
  160MOL0     C21511  -0.583   8.823   9.705  0.0754  0.4163  0.8342
  160MOL0     C21512  -0.451   8.775   9.692 -0.1792 -0.8796 -0.0948
  160MOL0     O21513  -0.128   8.980   9.526  0.4122 -0.2503 -0.5313
  160MOL0     C21514   0.008   8.659   9.626 -0.3501  0.3885 -1.0084
  160MOL0     C21515   0.127   8.590   9.646 -0.5851 -0.0311  0.2490
  160MOL0     N21516   0.862   8.304   9.476 -0.2543 -0.0086 -0.9904
  160MOL0     N21517   0.953   8.224   9.437  0.3599 -0.1767  0.3038
  160MOL0     C21518   2.178   7.772   9.373 -0.1137 -0.1082 -0.0121
  160MOL0     C21519   2.276   7.774   9.275  0.1545 -0.0433 -0.2860
  160MOL0     C21520   2.535   7.725   8.927  0.0326 -0.1490 -0.7595
  160MOL0     C21521   2.605   7.631   8.850 -0.7042  0.3131 -0.1839
  160MOL0     C21522   2.716   7.668   8.773  0.5357  0.2452  0.6363
  160MOL0     C21523   2.756   7.800   8.764 -0.2028  1.0574 -0.1998
  160MOL0     O21524   2.873   7.839   8.705  0.0353  1.0430  0.1843
  160MOL0     C21525   2.964   7.751   8.632  0.1841 -0.7623 -0.2654
  160MOL0     C21526   3.101   7.820   8.619 -0.5510  0.9417 -0.0460
  160MOL0     C21527   3.186   7.809   8.746  0.1159  1.0235 -0.5895
  160MOL0     C21528   3.325   7.877   8.734  0.2112  0.2455 -0.2348
  160MOL0     C21529   3.380   7.875   8.873  0.7281 -0.2988  0.2051
  160MOL0     C21530   3.434   7.864   8.983 -0.3716 -0.9375 -0.1639
  160MOL0     C21531   2.682   7.895   8.835 -0.3871 -0.7728 -0.2338
  160MOL0     C21532   2.576   7.859   8.922  0.2309  0.6169  0.2229
  160MOL0     H21533   2.088   7.821   8.991 -1.6994  0.0422  0.6382
  160MOL0     H21534   1.913   7.822   9.157  0.5305  3.4154 -0.4293
  160MOL0     H21535   1.830   7.964   9.370  1.2872 -0.0995 -0.2677
  160MOL0     H21536   1.769   7.802   9.331  2.3241 -2.6143  0.3781
  160MOL0     H21537   1.719   7.758   9.561  3.5900 -1.6603  1.1056
  160MOL0     H21538   1.818   7.888   9.626  0.0165 -1.9469  0.3760
  160MOL0     H21539   1.592   7.977   9.643 -0.5998  1.1984  0.0040
  160MOL0     H21540   1.647   8.038   9.480 -2.0405  0.9548  0.0623
  160MOL0     H21541   1.535   7.886   9.352 -0.3173 -0.1201 -0.3621
  160MOL0     H21542   1.489   7.790   9.493  0.5620  0.4531  1.1573
  160MOL0     H21543   1.406   8.082   9.466 -0.8291  0.0651  1.9743
  160MOL0     H21544   1.316   7.967   9.378 -0.9567  0.7310 -0.3621
  160MOL0     H21545   1.269   7.842   9.598  1.3597 -0.3244  1.8291
  160MOL0     H21546   1.370   7.956   9.684 -0.9739  0.1064  0.2934
  160MOL0     H21547   1.160   8.044   9.718 -1.2478  4.0608 -0.1551
  160MOL0     H21548   1.221   8.148   9.599  0.1760  0.4212 -1.9842
  160MOL0     H21549   1.013   7.923   9.546 -0.3232  2.0377  2.0985
  160MOL0     H21550   1.110   8.017   9.421  2.9574 -1.8043  0.8804
  160MOL0     H21551   0.912   8.117   9.743 -1.0995  0.4142  0.0700
  160MOL0     H21552   0.711   8.266   9.781 -1.4783 -1.1335 -1.5786
  160MOL0     H21553   0.787   8.421   9.737 -0.0269  0.9063 -0.7736
  160MOL0     H21554   0.569   8.291   9.569  0.3321 -0.7892  0.6662
  160MOL0     H21555   0.616   8.455   9.564 -2.6675  0.7057  0.3534
  160MOL0     H21556   0.552   8.481   9.811 -0.4871 -2.9449  3.2277
  160MOL0     H21557   0.480   8.320   9.809 -4.1041  0.1638 -0.6867
  160MOL0     H21558   0.335   8.502   9.790  0.3076 -2.8754  1.5343
  160MOL0     H21559   0.322   8.372   9.660 -0.0766  1.0815 -2.2836
  160MOL0     H21560   0.327   8.762   9.450 -1.5603 -0.6465 -1.1177
  160MOL0     H21561   0.114   9.008   9.416 -2.5992 -0.1430 -2.4453
  160MOL0     H21562   0.202   8.899   9.307 -1.3180 -3.3447 -2.1700
  160MOL0     H21563   0.019   8.894   9.314 -0.9647 -1.9677  1.8419
  160MOL0     H21564  -0.349   9.021   9.467 -0.0950  1.7034  0.7117
  160MOL0     H21565  -0.558   9.066   9.459  1.5283 -0.4091 -0.2649
  160MOL0     H21566  -0.923   9.078   9.615  0.3647  2.4062 -2.3691
  160MOL0     H21567  -0.777   9.111   9.517  0.5011  0.9887  2.4391
  160MOL0     H21568  -0.954   9.020   9.380 -2.9362  0.3113  0.8473
  160MOL0     H21569  -0.821   8.899   9.391 -0.2539  1.8853 -0.9665
  160MOL0     H21570  -0.950   8.790   9.580  0.3039  2.0941  1.8169
  160MOL0     H21571  -1.020   8.782   9.414 -1.7831  0.5676 -0.5823
  160MOL0     H21572  -1.103   8.958   9.641  0.2699 -1.2119  1.0854
  160MOL0     H21573  -1.159   8.976   9.471 -1.6245  0.4719  1.4775
  160MOL0     H21574  -1.240   8.765   9.670 -2.3622 -1.3963 -0.1308
  160MOL0     H21575  -1.258   8.738   9.492  2.4098  1.3005 -0.5204
  160MOL0     H21576  -1.377   8.967   9.663 -0.6141 -0.0045 -0.4768
  160MOL0     H21577  -1.396   8.937   9.492  3.7697 -2.6785 -2.1957
  160MOL0     H21578  -1.587   8.879   9.606  0.4774 -0.2759 -3.0742
  160MOL0     H21579  -1.512   8.760   9.724 -2.3464  1.7496  1.9832
  160MOL0     H21580  -1.475   8.599   9.561  1.4208 -0.1141 -1.6791
  160MOL0     H21581  -1.532   8.712   9.431 -2.6297 -0.6977 -0.6602
  160MOL0     H21582  -0.653   8.774   9.772 -0.7914 -1.9518 -1.5918
  160MOL0     H21583  -0.415   8.685   9.741 -1.5496 -1.6925 -0.5217
  160MOL0     H21584  -0.069   8.625   9.694 -1.0140 -0.7100 -2.2536
  160MOL0     H21585   0.119   8.509   9.718  2.4279  1.0917  2.0333
  160MOL0     H21586   2.207   7.765   9.477 -0.2404 -0.4359  0.0004
  160MOL0     H21587   2.381   7.758   9.299  0.2021 -1.3518 -1.3092
  160MOL0     H21588   2.582   7.525   8.862 -0.2729  0.2413  0.0248
  160MOL0     H21589   2.763   7.592   8.712  0.5944 -1.5257  2.8005
  160MOL0     H21590   2.975   7.655   8.682 -0.3978  0.1104  1.6300
  160MOL0     H21591   2.922   7.728   8.534 -0.0118 -2.3151  0.1601
  160MOL0     H21592   3.092   7.929   8.612 -0.7454  0.9224 -0.0969
  160MOL0     H21593   3.163   7.783   8.537  0.2468  0.2932  0.8282
  160MOL0     H21594   3.197   7.706   8.780  0.6704  1.4928  0.7249
  160MOL0     H21595   3.135   7.872   8.819 -0.2973  0.4981 -0.4183
  160MOL0     H21596   3.325   7.982   8.701 -2.6626  0.0815 -0.9768
  160MOL0     H21597   3.396   7.829   8.666  0.4033 -0.8009  0.6712
  160MOL0     H21598   3.474   7.872   9.082  0.0526  2.0479 -0.4607
  160MOL0     H21599   2.725   7.993   8.818 -1.1612 -0.3171  0.3523
  160MOL0     H21600   2.529   7.944   8.969  1.3292  0.6479  1.3094
  161MOL0     O21601   8.287  10.279   0.249 -0.0169  0.1770 -0.6123
  161MOL0     C21602   8.365  10.197   0.281  0.0541 -0.2515 -0.4271
  161MOL0     O21603   8.334  10.072   0.332 -0.1138  0.4369 -0.0035
  161MOL0     C21604   8.203  10.050   0.353  0.9897 -0.6119 -0.3441
  161MOL0     C21605   8.170  10.023   0.485 -0.4442  0.2132  0.7558
  161MOL0     C21606   8.034  10.010   0.508  0.0571 -0.0653  1.0708
  161MOL0     C21607   7.933  10.027   0.414 -0.4430  0.6159  1.2040
  161MOL0     O21608   7.803  10.025   0.459  0.0893  0.5706 -0.3893
  161MOL0     C21609   7.704  10.073   0.369 -0.1066  0.4273  0.0561
  161MOL0     C21610   7.569  10.023   0.416 -0.4994  0.3574 -0.0521
  161MOL0     C21611   7.448  10.076   0.325  0.7103 -0.5575 -1.1531
  161MOL0     C21612   7.317  10.014   0.382  0.0754  0.5776 -0.1908
  161MOL0     C21613   7.196  10.061   0.296  0.3594 -0.0842 -0.7258
  161MOL0     C21614   7.068  10.011   0.368 -0.4792 -0.0839  0.6707
  161MOL0     C21615   6.943  10.034   0.285 -0.2730 -0.2503  0.5754
  161MOL0     C21616   6.898  10.178   0.298  0.0311 -1.1295 -0.4405
  161MOL0     N21617   6.791  10.197   0.199  1.0046 -0.5328 -1.2342
  161MOL0     C21618   6.651  10.179   0.201  0.4101  0.0868 -0.1200
  161MOL0     C21619   6.600  10.185   0.070 -0.0203  0.0791  0.1511
  161MOL0     C21620   6.453  10.175   0.024 -1.2519  0.7107 -0.3561
  161MOL0     C21621   6.383  10.292   0.089  0.1801 -0.2652 -0.4222
  161MOL0     C21622   6.235  10.280   0.059  0.2198 -0.7332 -0.2476
  161MOL0     C21623   6.143  10.397   0.098  0.1963  0.7344  0.9922
  161MOL0     O21624   6.009  10.335   0.096  0.0512 -0.1913  0.0949
  161MOL0     C21625   5.895  10.407   0.083  0.0168 -0.1454 -0.0741
  161MOL0     C21626   5.781  10.339   0.040  0.2829 -0.1975 -0.3050
  161MOL0     C21627   5.663  10.415   0.019  0.3189 -0.1278 -0.6671
  161MOL0     C21628   5.547  10.337  -0.025  0.3767  0.1575  0.1808
  161MOL0     C21629   5.655  10.555   0.026 -0.6338 -0.6339 -0.1178
  161MOL0     C21630   5.527  10.634   0.011  0.2078 -0.0159 -0.1176
  161MOL0     O21631   5.540  10.769  -0.015  0.3582 -0.0305  0.2539
  161MOL0     C21632   5.426  10.838  -0.019  0.3123  1.2866 -0.3505
  161MOL0     C21633   5.314  10.808  -0.096 -0.0721  0.4939 -0.1522
  161MOL0     C21634   5.195  10.879  -0.090  0.1190 -0.3282 -0.3903
  161MOL0     C21635   5.187  10.999  -0.010  0.1087 -0.4992  0.5446
  161MOL0     O21636   5.078  11.078   0.008  0.2423  0.3059  0.0044
  161MOL0     C21637   4.952  11.030  -0.055 -0.0963 -0.1523 -0.5493
  161MOL0     C21638   4.884  10.904   0.005 -0.7221  0.2464  0.3847
  161MOL0     C21639   4.794  10.940   0.118  0.6180 -0.1692 -0.2296
  161MOL0     C21640   4.720  10.827   0.181 -0.0060  0.4385  0.6340
  161MOL0     C21641   4.642  10.877   0.304  0.0083  0.2351  0.6255
  161MOL0     C21642   4.573  10.764   0.373 -0.1011 -0.6124 -0.3747
  161MOL0     C21643   4.430  10.739   0.324 -0.0963 -0.3343  0.7710
  161MOL0     C21644   4.408  10.592   0.337 -0.1946 -0.1193  0.2667
  161MOL0    Cl21645   4.239  10.543   0.281  0.0989 -0.0362 -0.3623
  161MOL0     C21646   5.304  11.027   0.066  0.2604  0.3601  0.4465
  161MOL0     C21647   5.412  10.945   0.066 -0.1743  0.8668 -0.3579
  161MOL0     O21648   5.419  10.568   0.026  0.7273 -0.1215 -0.0820
  161MOL0     C21649   5.774  10.619   0.069  0.3680 -0.4178 -0.6839
  161MOL0     C21650   5.887  10.544   0.100 -0.1521 -1.0904  0.1621
  161MOL0     N21651   6.709  10.220  -0.000  0.7583 -0.0635  0.1234
  161MOL0     N21652   6.814  10.227   0.070 -0.7168  0.2999 -0.0694
  161MOL0     C21653   7.974  10.042   0.281  0.2736 -1.8913 -0.0072
  161MOL0     C21654   8.106  10.053   0.255 -0.6952  0.2377  0.7568
  161MOL0     C21655   8.518  10.221   0.277 -0.4321 -0.2965  0.5237
  161MOL0     C21656   8.559  10.349   0.241 -0.2915  0.5753  0.3705
  161MOL0     C21657   8.699  10.374   0.226  0.7231  0.1533 -0.6903
  161MOL0     C21658   8.793  10.269   0.242 -0.2216  1.2893 -0.3527
  161MOL0     O21659   8.925  10.282   0.203  0.4233  0.1339  0.4410
  161MOL0     C21660   8.982  10.421   0.198  0.3503 -0.4088  0.3619
  161MOL0     C21661   9.129  10.417   0.245 -0.0325  0.5987  0.4548
  161MOL0     C21662   9.145  10.371   0.387 -0.0672  0.2676 -0.1051
  161MOL0     C21663   9.288  10.374   0.435  0.0556  0.4302 -0.6908
  161MOL0     C21664   9.338  10.505   0.459 -0.0785 -0.0531 -0.4620
  161MOL0     C21665   9.401  10.602   0.463 -0.0341 -0.2733  0.1693
  161MOL0     C21666   8.747  10.143   0.286 -0.0959 -0.0863 -0.1916
  161MOL0     C21667   8.611  10.123   0.300 -0.1078 -0.6429 -0.3164
  161MOL0     H21668   8.244  10.022   0.564  0.2271 -0.4413  0.1292
  161MOL0     H21669   8.005   9.985   0.610  1.2715 -0.3304  1.3592
  161MOL0     H21670   7.700  10.183   0.368  0.6323  0.4645 -0.2519
  161MOL0     H21671   7.720  10.053   0.262 -0.9628  1.8270 -0.3563
  161MOL0     H21672   7.575   9.914   0.410  0.9734  0.1192  3.5089
  161MOL0     H21673   7.549  10.044   0.521 -1.0864  0.3171 -0.1487
  161MOL0     H21674   7.447  10.186   0.324 -0.0129 -0.5597 -2.1738
  161MOL0     H21675   7.466  10.054   0.219  4.3947  0.2233 -0.8066
  161MOL0     H21676   7.322   9.905   0.383 -1.1926  0.5056  0.6983
  161MOL0     H21677   7.295  10.043   0.485  2.1878 -0.6241  0.6543
  161MOL0     H21678   7.183  10.170   0.295 -2.0808 -0.2907  0.8082
  161MOL0     H21679   7.208  10.026   0.193  0.0431  1.6512 -1.3863
  161MOL0     H21680   7.073   9.903   0.387 -0.5913 -0.2671 -0.3086
  161MOL0     H21681   7.052  10.062   0.464  0.3587  2.9764 -0.7062
  161MOL0     H21682   6.953  10.014   0.178 -4.3973 -0.3790  0.0593
  161MOL0     H21683   6.859   9.974   0.319  0.2298 -1.1118  0.3211
  161MOL0     H21684   6.985  10.237   0.269 -0.0338 -1.3834 -1.1563
  161MOL0     H21685   6.881  10.202   0.404 -1.1390 -0.4582 -0.7706
  161MOL0     H21686   6.583  10.146   0.280 -2.4733 -0.3270 -2.5868
  161MOL0     H21687   6.446  10.191  -0.084 -3.7195 -0.1543 -0.3807
  161MOL0     H21688   6.401  10.086   0.059 -2.2239  1.0878 -0.8191
  161MOL0     H21689   6.415  10.388   0.045 -1.2528  1.4423  2.0207
  161MOL0     H21690   6.393  10.310   0.196  0.3399  1.5494 -0.7024
  161MOL0     H21691   6.192  10.201   0.120 -1.6921  0.9384  0.6994
  161MOL0     H21692   6.217  10.249  -0.044 -2.7373 -2.5128  0.6907
  161MOL0     H21693   6.146  10.488   0.036  2.7154 -0.0181 -0.1290
  161MOL0     H21694   6.151  10.424   0.203 -1.1080  0.1264  1.2702
  161MOL0     H21695   5.796  10.232   0.029  2.6889  0.0409  0.0805
  161MOL0     H21696   5.466  10.336   0.048 -1.7028 -2.4495 -1.9269
  161MOL0     H21697   5.497  10.366  -0.118 -0.3713 -0.3044  0.4278
  161MOL0     H21698   5.576  10.232  -0.035 -0.1650 -0.0756  1.0324
  161MOL0     H21699   5.322  10.715  -0.152  0.3260  1.2645 -1.4036
  161MOL0     H21700   5.107  10.843  -0.144 -0.1700  0.1381 -0.2379
  161MOL0     H21701   4.887  11.117  -0.045  1.2358  0.7752  0.2419
  161MOL0     H21702   4.964  11.013  -0.163  1.3350 -1.4513 -0.2180
  161MOL0     H21703   4.833  10.835  -0.063 -0.8067 -0.0942  0.7885
  161MOL0     H21704   4.968  10.840   0.034  1.5885  3.7034  2.0338
  161MOL0     H21705   4.720  11.012   0.082  0.3891  0.8021  2.0378
  161MOL0     H21706   4.853  10.995   0.192 -0.1113  1.3024 -0.6971
  161MOL0     H21707   4.653  10.782   0.107 -1.2524  0.1037  1.9186
  161MOL0     H21708   4.797  10.756   0.212 -0.0018 -0.3153 -1.0039
  161MOL0     H21709   4.564  10.945   0.267  0.9871  0.7668 -0.5252
  161MOL0     H21710   4.703  10.929   0.378  1.6997  1.1322 -1.3329
  161MOL0     H21711   4.625  10.668   0.367  0.3634 -0.3141 -1.2614
  161MOL0     H21712   4.575  10.796   0.478 -3.3805  1.7912 -0.8889
  161MOL0     H21713   4.430  10.769   0.219 -0.3142 -1.7865  0.3324
  161MOL0     H21714   4.361  10.799   0.386 -1.6963 -2.3709  1.0864
  161MOL0     H21715   4.424  10.570   0.443 -0.6604  1.1440  0.6137
  161MOL0     H21716   4.486  10.538   0.283  0.0486 -1.0094  1.4710
  161MOL0     H21717   5.312  11.113   0.131  1.1810  1.6624 -1.3029
  161MOL0     H21718   5.498  10.968   0.127 -0.7525  1.6227  0.2005
  161MOL0     H21719   5.782  10.726   0.081 -0.9039 -0.4060  0.2228
  161MOL0     H21720   5.977  10.600   0.123 -1.2528  1.4940 -1.4200
  161MOL0     H21721   7.913  10.039   0.191 -0.0887  1.0715  0.0283
  161MOL0     H21722   8.138  10.069   0.152 -1.2254 -1.5065  0.2909
  161MOL0     H21723   8.490  10.431   0.226 -0.8754 -0.1484 -1.0171
  161MOL0     H21724   8.718  10.470   0.179  0.6535 -0.3853 -1.8513
  161MOL0     H21725   8.982  10.460   0.096  0.2936 -0.3731  0.3759
  161MOL0     H21726   8.926  10.482   0.269  0.9373  0.8867 -0.2547
  161MOL0     H21727   9.176  10.513   0.222 -2.3413  1.2753 -1.9743
  161MOL0     H21728   9.178  10.337   0.188  0.5870  1.2643  0.0280
  161MOL0     H21729   9.104  10.271   0.406  1.4410 -0.4991 -0.7277
  161MOL0     H21730   9.094  10.443   0.452 -1.8792  1.4848 -2.6956
  161MOL0     H21731   9.359  10.321   0.371 -0.3793  1.6452 -2.2291
  161MOL0     H21732   9.283  10.310   0.524 -3.2318 -0.0079 -1.0846
  161MOL0     H21733   9.454  10.694   0.472  1.3504 -1.1218  1.0882
  161MOL0     H21734   8.822  10.064   0.284  0.2693  0.1680 -3.6628
  161MOL0     H21735   8.575  10.022   0.316  1.1353 -1.1171 -0.4286
  162MOL0     O21736   4.993   8.014   5.582 -0.5377  0.3586 -0.8295
  162MOL0     C21737   5.041   7.912   5.635 -0.2103  0.2166  0.4446
  162MOL0     O21738   4.984   7.795   5.661  0.3763 -0.2803 -0.2471
  162MOL0     C21739   4.854   7.755   5.631  0.1879 -0.2539 -0.2284
  162MOL0     C21740   4.789   7.660   5.719 -0.8191 -0.2347 -0.0921
  162MOL0     C21741   4.666   7.602   5.677 -0.2939 -0.5415  0.6969
  162MOL0     C21742   4.614   7.643   5.553  0.6669 -0.3838 -0.1880
  162MOL0     O21743   4.487   7.593   5.526 -0.0340  0.4272  0.0914
  162MOL0     C21744   4.391   7.675   5.458 -0.0179  0.2325 -0.7484
  162MOL0     C21745   4.251   7.613   5.486  0.2590 -0.2901  0.0969
  162MOL0     C21746   4.214   7.522   5.370 -1.1580  0.4253  0.7370
  162MOL0     C21747   4.185   7.601   5.243 -0.9543 -1.0687 -0.0612
  162MOL0     C21748   4.068   7.534   5.157 -0.9745 -0.1233 -0.1081
  162MOL0     C21749   4.108   7.408   5.081 -0.1641  0.1450 -0.1064
  162MOL0     C21750   4.190   7.433   4.958 -0.0410 -0.6314  0.8153
  162MOL0     C21751   4.215   7.308   4.878  0.0115  0.4724  0.1505
  162MOL0     N21752   4.094   7.242   4.820 -0.6055 -0.5589 -0.5202
  162MOL0     C21753   4.058   7.114   4.849  0.3885  0.1321 -1.0033
  162MOL0     C21754   3.974   7.078   4.751  0.6324 -0.7343 -1.0011
  162MOL0     C21755   3.927   6.941   4.741  0.9154  0.4379  0.1505
  162MOL0     C21756   3.782   6.925   4.792 -0.0355  0.1221 -0.0301
  162MOL0     C21757   3.713   6.789   4.779 -0.6184  0.2102  0.0034
  162MOL0     C21758   3.570   6.786   4.838 -0.1633 -0.1657  0.3276
  162MOL0     O21759   3.593   6.819   4.970  0.1671 -0.8139 -0.1405
  162MOL0     C21760   3.488   6.798   5.061 -0.7049 -0.1971  0.0848
  162MOL0     C21761   3.510   6.800   5.196 -0.4365 -0.1286 -0.3379
  162MOL0     C21762   3.407   6.778   5.291 -0.4561  0.3719  0.1808
  162MOL0     C21763   3.466   6.769   5.436 -0.4089  0.4984  0.0240
  162MOL0     C21764   3.272   6.764   5.258  0.1242  0.4292  0.5896
  162MOL0     C21765   3.157   6.738   5.350  0.1500 -0.2769  0.8783
  162MOL0     O21766   3.041   6.691   5.290 -0.3223 -0.5877 -0.1155
  162MOL0     C21767   2.924   6.710   5.368 -0.1706  0.4959 -0.3885
  162MOL0     C21768   2.877   6.841   5.398 -0.3065 -0.6376 -0.4967
  162MOL0     C21769   2.766   6.859   5.480  0.4930  0.2712  0.0755
  162MOL0     C21770   2.695   6.752   5.536 -0.0173  0.0651 -0.3443
  162MOL0     O21771   2.587   6.767   5.623  0.3364  0.4223  0.2829
  162MOL0     C21772   2.493   6.860   5.568 -0.6370 -0.2935 -0.0406
  162MOL0     C21773   2.351   6.846   5.627 -0.0164  0.1448 -0.4028
  162MOL0     C21774   2.288   6.708   5.595  0.3925 -0.0315  0.8720
  162MOL0     C21775   2.148   6.713   5.663  0.6187  0.0201 -0.2978
  162MOL0     C21776   2.058   6.585   5.637 -0.6878 -0.6096 -0.3110
  162MOL0     C21777   1.919   6.593   5.710  0.2174  0.1220 -0.2879
  162MOL0     C21778   1.837   6.467   5.667 -0.3051 -1.3058 -0.0633
  162MOL0     C21779   1.702   6.468   5.732  0.0655  0.3553  0.1222
  162MOL0    Cl21780   1.602   6.604   5.659 -0.2776  0.2005  0.1033
  162MOL0     C21781   2.744   6.623   5.509 -0.0492 -0.1588 -0.3291
  162MOL0     C21782   2.856   6.602   5.417 -0.4247 -0.4469 -0.1844
  162MOL0     O21783   3.173   6.793   5.457 -0.7915  0.4456 -0.2654
  162MOL0     C21784   3.256   6.765   5.116 -0.3034  0.3502  0.3125
  162MOL0     C21785   3.351   6.805   5.021 -0.3438  0.4981 -0.1936
  162MOL0     N21786   3.961   7.183   4.661  0.4812  0.0370  0.1920
  162MOL0     N21787   4.033   7.282   4.706 -0.5797  0.3081 -0.2425
  162MOL0     C21788   4.673   7.737   5.472  0.5986  0.6701  0.2955
  162MOL0     C21789   4.791   7.795   5.512  0.8933 -0.1216 -0.5683
  162MOL0     C21790   5.187   7.928   5.666  0.1455  0.0460 -0.2337
  162MOL0     C21791   5.252   8.052   5.638  0.3133  0.1014  0.3569
  162MOL0     C21792   5.389   8.063   5.672  0.6155 -0.2269  0.7562
  162MOL0     C21793   5.456   7.957   5.740  0.4248 -0.3401  0.7039
  162MOL0     O21794   5.581   7.965   5.797 -0.5270  0.0234 -0.6547
  162MOL0     C21795   5.670   8.074   5.820  0.0513  0.0955  1.0917
  162MOL0     C21796   5.754   8.085   5.690 -0.7540 -0.5078  0.6113
  162MOL0     C21797   5.888   8.144   5.731  1.0207  0.5533  1.0259
  162MOL0     C21798   5.970   8.040   5.805 -0.4720 -1.2046  0.4526
  162MOL0     C21799   6.110   8.028   5.750 -0.0894  0.0689  0.0186
  162MOL0     C21800   6.219   8.019   5.701  0.0542  0.3826  0.3658
  162MOL0     C21801   5.389   7.846   5.773 -0.2683  0.4194  0.2089
  162MOL0     C21802   5.257   7.831   5.737  0.1990  0.2819 -0.0812
  162MOL0     H21803   4.832   7.633   5.815 -2.8527  1.1787  1.2869
  162MOL0     H21804   4.603   7.536   5.737  0.4917 -1.6562  0.3165
  162MOL0     H21805   4.410   7.780   5.483  6.5103 -0.3096 -1.6671
  162MOL0     H21806   4.411   7.682   5.351  1.9999 -1.8544 -0.5828
  162MOL0     H21807   4.258   7.551   5.576 -0.7012  3.3841  2.9494
  162MOL0     H21808   4.174   7.691   5.497 -3.1197 -3.5905  2.9801
  162MOL0     H21809   4.283   7.439   5.355 -3.0395 -1.0308 -0.3317
  162MOL0     H21810   4.118   7.478   5.399 -0.0856 -2.1149  0.7337
  162MOL0     H21811   4.164   7.705   5.268  0.2197 -0.6188 -0.8455
  162MOL0     H21812   4.276   7.608   5.182  0.1686  0.7200  1.7165
  162MOL0     H21813   3.983   7.499   5.217  1.8882 -1.6917  3.4812
  162MOL0     H21814   4.035   7.608   5.084 -0.6118 -0.4701 -0.6261
  162MOL0     H21815   4.156   7.336   5.148  1.8179 -1.1126 -2.7031
  162MOL0     H21816   4.021   7.357   5.040 -1.1030  0.6158  1.2358
  162MOL0     H21817   4.129   7.494   4.891 -0.7469 -2.2630 -0.0906
  162MOL0     H21818   4.279   7.486   4.993 -0.1098 -0.2282  0.3933
  162MOL0     H21819   4.261   7.234   4.944 -1.3665  0.7637  1.5101
  162MOL0     H21820   4.282   7.321   4.793 -0.4222 -1.6606 -0.5975
  162MOL0     H21821   4.104   7.049   4.923  3.7131  0.0832 -2.9176
  162MOL0     H21822   3.937   6.912   4.636 -0.5695 -2.1719  0.6520
  162MOL0     H21823   3.995   6.871   4.792  2.6572 -0.3054 -2.9421
  162MOL0     H21824   3.717   6.999   4.745 -2.4644 -2.2465 -0.6528
  162MOL0     H21825   3.788   6.945   4.900  0.9073 -3.2474  0.6745
  162MOL0     H21826   3.791   6.719   4.813 -0.0701  1.1635  0.7319
  162MOL0     H21827   3.701   6.783   4.670  0.0430  2.2006 -0.2097
  162MOL0     H21828   3.532   6.684   4.841  0.7446 -0.5869 -1.5146
  162MOL0     H21829   3.499   6.852   4.788 -1.1174 -2.9912 -2.2901
  162MOL0     H21830   3.615   6.820   5.215 -0.8444  1.5616  0.2890
  162MOL0     H21831   3.399   6.717   5.505  2.3116 -0.3375  2.2063
  162MOL0     H21832   3.557   6.709   5.429  0.1894  1.5241 -1.8461
  162MOL0     H21833   3.474   6.868   5.480  0.2720  0.1971  0.5855
  162MOL0     H21834   2.926   6.937   5.383 -1.6797  0.1226 -0.2563
  162MOL0     H21835   2.739   6.952   5.529 -1.9837 -0.5016  0.3020
  162MOL0     H21836   2.539   6.955   5.598 -3.8615  1.8595 -1.3717
  162MOL0     H21837   2.493   6.860   5.459  2.3374  0.6951 -0.1346
  162MOL0     H21838   2.362   6.845   5.735 -1.2976 -2.3253 -0.2335
  162MOL0     H21839   2.287   6.930   5.600  0.5720  0.5799 -0.4591
  162MOL0     H21840   2.340   6.620   5.632 -0.1800 -1.1457 -0.8657
  162MOL0     H21841   2.276   6.703   5.487 -2.4159 -0.4887  1.1378
  162MOL0     H21842   2.156   6.736   5.770  0.0330  0.8528 -0.4174
  162MOL0     H21843   2.092   6.799   5.625 -1.5203 -1.5722 -0.9431
  162MOL0     H21844   2.117   6.498   5.667  0.6724 -0.4812 -2.3804
  162MOL0     H21845   2.046   6.583   5.528  0.0999  1.7299 -0.5023
  162MOL0     H21846   1.930   6.596   5.819  2.9940  6.8828 -0.2810
  162MOL0     H21847   1.867   6.686   5.688 -3.0278 -0.8425  2.5483
  162MOL0     H21848   1.877   6.372   5.704 -0.2395 -1.8448 -1.4504
  162MOL0     H21849   1.842   6.462   5.557  0.5435  0.2077 -0.1299
  162MOL0     H21850   1.720   6.465   5.840 -2.1335  2.9262  0.6808
  162MOL0     H21851   1.653   6.372   5.712 -0.2879 -0.0706  2.6946
  162MOL0     H21852   2.688   6.538   5.546  1.1586 -2.4688 -3.2867
  162MOL0     H21853   2.893   6.503   5.390  0.7095  0.6613 -3.1835
  162MOL0     H21854   3.154   6.757   5.079 -0.4415  0.5435  0.6543
  162MOL0     H21855   3.320   6.819   4.918  0.4838  1.9949 -0.2610
  162MOL0     H21856   4.630   7.751   5.373 -1.4283  2.0720  1.3025
  162MOL0     H21857   4.836   7.865   5.442  0.3376 -0.8675 -1.6918
  162MOL0     H21858   5.197   8.133   5.592  0.0140 -0.3011 -0.0024
  162MOL0     H21859   5.444   8.155   5.657  1.0112 -0.1891  2.2741
  162MOL0     H21860   5.616   8.167   5.841  2.0565  1.6139 -0.1160
  162MOL0     H21861   5.730   8.042   5.906 -2.8617 -3.6543  1.9721
  162MOL0     H21862   5.698   8.140   5.614 -0.3350 -2.4371 -1.2140
  162MOL0     H21863   5.770   7.980   5.663  0.6777  0.2088 -1.5755
  162MOL0     H21864   5.873   8.232   5.794  1.6088  1.2275  0.2464
  162MOL0     H21865   5.946   8.177   5.644  0.7189 -1.8019 -0.1503
  162MOL0     H21866   5.923   7.941   5.801 -0.0502 -1.3605 -0.8383
  162MOL0     H21867   5.975   8.060   5.913 -0.4036 -2.3365  0.6687
  162MOL0     H21868   6.305   8.008   5.638 -0.9211 -3.5746 -0.4882
  162MOL0     H21869   5.436   7.759   5.819 -3.2768 -3.0872 -2.6832
  162MOL0     H21870   5.211   7.735   5.760  1.7218 -0.9699 -1.8267
  163MOL0     O21871  10.072   1.361   7.008  0.0792 -0.5338 -0.3040
  163MOL0     C21872  10.101   1.482   7.023 -0.7408 -0.3930  0.2863
  163MOL0     O21873  10.008   1.588   7.023 -0.0219 -0.1268  0.1141
  163MOL0     C21874   9.876   1.572   6.984  0.0900  0.5290 -0.2117
  163MOL0     C21875   9.824   1.476   6.895  0.4438  0.7306  0.0972
  163MOL0     C21876   9.685   1.482   6.856  0.0675 -1.1351  0.3384
  163MOL0     C21877   9.595   1.575   6.918  0.0195 -0.1591  0.5499
  163MOL0     O21878   9.461   1.583   6.885  0.1902 -0.5778  0.0007
  163MOL0     C21879   9.408   1.503   6.776 -0.5677 -0.2324 -0.0485
  163MOL0     C21880   9.258   1.518   6.777 -0.6278 -0.0363 -0.1618
  163MOL0     C21881   9.191   1.410   6.695 -0.4830  0.4908  0.1980
  163MOL0     C21882   9.047   1.436   6.648 -0.0493  0.5006  0.9370
  163MOL0     C21883   8.949   1.392   6.754  0.3564 -0.3318  0.9487
  163MOL0     C21884   8.830   1.487   6.722 -0.5487 -0.0314  0.3399
  163MOL0     C21885   8.704   1.429   6.774  0.7783  0.5380 -0.0601
  163MOL0     C21886   8.574   1.487   6.710  0.2963  0.3882 -0.3680
  163MOL0     N21887   8.462   1.446   6.784 -0.7451  0.5727 -0.5468
  163MOL0     C21888   8.439   1.314   6.826 -0.3869 -0.6122  0.0698
  163MOL0     C21889   8.323   1.314   6.890 -0.4311 -0.3438  0.0381
  163MOL0     C21890   8.250   1.206   6.956 -0.2256  0.2127  0.2264
  163MOL0     C21891   8.315   1.153   7.086  0.1016  0.6710 -0.1434
  163MOL0     C21892   8.354   1.269   7.183 -0.4041  0.0864 -0.3518
  163MOL0     C21893   8.248   1.382   7.204 -0.1301  0.8241 -0.0550
  163MOL0     O21894   8.130   1.318   7.261  0.3305  0.1227 -0.0516
  163MOL0     C21895   8.015   1.392   7.271  0.3774 -0.3881  0.2522
  163MOL0     C21896   8.001   1.524   7.230  0.7373 -0.3748  0.2171
  163MOL0     C21897   7.883   1.596   7.233 -0.0676 -0.4694  0.6291
  163MOL0     C21898   7.904   1.741   7.185  0.6628  0.1783  0.1356
  163MOL0     C21899   7.761   1.517   7.258 -0.7234  0.9687 -1.4320
  163MOL0     C21900   7.630   1.568   7.241  0.0283  0.3887 -0.0635
  163MOL0     O21901   7.538   1.485   7.192 -0.3765  0.8956  0.5111
  163MOL0     C21902   7.420   1.542   7.143  0.1550 -0.0193  0.0871
  163MOL0     C21903   7.340   1.607   7.240  0.3616  0.8561 -0.6280
  163MOL0     C21904   7.222   1.658   7.198  0.1077  0.6413  0.9106
  163MOL0     C21905   7.176   1.663   7.057 -0.1449 -0.4377 -0.2166
  163MOL0     O21906   7.052   1.720   7.035 -0.2790  0.1513 -0.4073
  163MOL0     C21907   6.967   1.661   6.944  0.1014  0.0061  1.0181
  163MOL0     C21908   6.930   1.520   6.989  0.5381  0.0292 -0.3675
  163MOL0     C21909   6.880   1.509   7.136 -0.2796 -0.3416 -0.1875
  163MOL0     C21910   6.755   1.599   7.164  0.6619 -0.5198  0.0755
  163MOL0     C21911   6.616   1.561   7.099 -0.6200  0.4182 -0.7539
  163MOL0     C21912   6.510   1.659   7.124  0.0842 -0.5769  0.1181
  163MOL0     C21913   6.372   1.611   7.077 -0.6025  0.1027  0.0589
  163MOL0     C21914   6.266   1.715   7.040 -0.6340 -0.2716  0.1205
  163MOL0    Cl21915   6.145   1.625   6.952  0.2059  0.1807 -0.1854
  163MOL0     C21916   7.263   1.599   6.965 -1.1899  0.0241  0.2135
  163MOL0     C21917   7.381   1.543   7.008 -0.1621 -0.7653  0.0239
  163MOL0     O21918   7.615   1.686   7.273 -0.8246 -0.0593 -0.0116
  163MOL0     C21919   7.777   1.386   7.298 -0.1989 -0.4816 -0.5435
  163MOL0     C21920   7.896   1.326   7.310  0.4202  0.1502 -0.2283
  163MOL0     N21921   8.276   1.449   6.890  0.3846  0.4278 -0.1622
  163MOL0     N21922   8.361   1.522   6.832  0.1948 -0.5648  0.2409
  163MOL0     C21923   9.652   1.652   7.019  0.0465 -0.2917 -0.1413
  163MOL0     C21924   9.788   1.656   7.051  0.0453 -0.5284  0.2433
  163MOL0     C21925  10.237   1.524   7.046  0.4517  0.3909 -0.0171
  163MOL0     C21926  10.330   1.428   7.085 -0.0996  0.7338  0.0739
  163MOL0     C21927  10.465   1.457   7.096  0.5889  0.0067  0.8945
  163MOL0     C21928  10.507   1.594   7.077  0.6348  0.8419 -0.4591
  163MOL0     O21929  10.638   1.635   7.093  0.7635  0.6637  0.2519
  163MOL0     C21930  10.714   1.568   7.195 -0.3171 -0.3841  0.7123
  163MOL0     C21931  10.837   1.647   7.218  0.2531  0.7584  0.3227
  163MOL0     C21932  10.816   1.796   7.259  0.4980 -0.6354  1.1770
  163MOL0     C21933  10.944   1.863   7.316 -0.6863 -0.0352  0.0330
  163MOL0     C21934  10.926   2.014   7.320 -0.0200  0.9338 -0.5764
  163MOL0     C21935  10.910   2.131   7.343  0.2574  0.0707  0.5069
  163MOL0     C21936  10.413   1.692   7.036 -0.2079 -0.6500  0.6115
  163MOL0     C21937  10.280   1.660   7.018  0.0619  0.1786  1.0665
  163MOL0     H21938   9.896   1.406   6.855 -1.5383 -1.2944 -0.1182
  163MOL0     H21939   9.657   1.418   6.773  2.8832  2.7261 -4.0601
  163MOL0     H21940   9.458   1.521   6.681  0.2865 -3.6873 -0.4068
  163MOL0     H21941   9.433   1.397   6.786 -1.2902 -0.2883  1.6858
  163MOL0     H21942   9.224   1.498   6.879 -1.4154  3.0391  0.2784
  163MOL0     H21943   9.227   1.618   6.747  0.7125 -0.1081 -1.9690
  163MOL0     H21944   9.250   1.394   6.604 -1.3795  0.9210 -0.4820
  163MOL0     H21945   9.191   1.316   6.750 -1.4410  1.3458  1.7187
  163MOL0     H21946   9.041   1.545   6.643 -0.1718  0.4900  0.8624
  163MOL0     H21947   9.024   1.383   6.556  0.8627 -1.5372  1.8108
  163MOL0     H21948   8.916   1.288   6.744  0.6798 -0.5574  2.0924
  163MOL0     H21949   8.979   1.410   6.858 -0.5156 -0.2473  1.1932
  163MOL0     H21950   8.835   1.583   6.774  1.3754 -1.8377  3.8668
  163MOL0     H21951   8.820   1.515   6.617  0.8347  1.5487  0.5964
  163MOL0     H21952   8.702   1.320   6.758 -0.4057  0.4731  0.4581
  163MOL0     H21953   8.711   1.432   6.883  0.0163  0.4904 -0.0070
  163MOL0     H21954   8.566   1.465   6.604  1.4343 -0.7743 -0.2543
  163MOL0     H21955   8.578   1.596   6.716 -0.7069  0.3955  0.3144
  163MOL0     H21956   8.492   1.226   6.790 -0.7442  0.0227 -2.1522
  163MOL0     H21957   8.149   1.238   6.983 -0.9233 -3.3082  2.4370
  163MOL0     H21958   8.232   1.116   6.897 -0.6514 -0.3576  1.2003
  163MOL0     H21959   8.405   1.095   7.064 -1.3018 -0.8988 -2.1148
  163MOL0     H21960   8.242   1.086   7.132 -0.8286 -0.2935 -2.8235
  163MOL0     H21961   8.446   1.311   7.143  0.0673 -0.2503  0.3725
  163MOL0     H21962   8.371   1.223   7.281 -0.4103 -0.9149 -0.8121
  163MOL0     H21963   8.224   1.430   7.109  0.1997 -0.5850 -0.8824
  163MOL0     H21964   8.270   1.455   7.283  0.5637  0.4380  0.1212
  163MOL0     H21965   8.091   1.566   7.188  1.1586 -1.1844  0.2881
  163MOL0     H21966   7.818   1.761   7.121 -0.0811  0.0148  1.0488
  163MOL0     H21967   7.899   1.813   7.268 -0.6747 -0.6107  0.7689
  163MOL0     H21968   8.005   1.755   7.145  0.7922 -0.7898  0.1110
  163MOL0     H21969   7.366   1.620   7.344  1.4486  4.9466 -1.2195
  163MOL0     H21970   7.174   1.719   7.275  0.8212 -0.4984  2.3091
  163MOL0     H21971   6.884   1.730   6.932  0.0287  0.4159  3.2949
  163MOL0     H21972   7.027   1.663   6.852 -2.5682  2.8557 -0.8266
  163MOL0     H21973   6.865   1.480   6.911 -0.4251  4.8551 -2.3418
  163MOL0     H21974   7.018   1.455   6.996  0.1232 -0.9057 -2.9643
  163MOL0     H21975   6.965   1.534   7.199 -0.7336  0.7132  0.0219
  163MOL0     H21976   6.858   1.402   7.147 -0.8699 -0.4989 -2.3384
  163MOL0     H21977   6.746   1.613   7.272 -0.4242  1.9880 -0.2630
  163MOL0     H21978   6.776   1.699   7.123 -0.5693 -0.3678 -0.2353
  163MOL0     H21979   6.576   1.468   7.142 -3.6366  0.1809 -3.6700
  163MOL0     H21980   6.620   1.543   6.991  0.6242 -0.9267 -0.5110
  163MOL0     H21981   6.499   1.682   7.230  2.2580  1.6917 -0.0545
  163MOL0     H21982   6.526   1.751   7.066  3.7076 -1.2248 -0.1338
  163MOL0     H21983   6.336   1.551   7.161  2.0085  0.6729  1.7102
  163MOL0     H21984   6.404   1.553   6.990 -0.1844  1.6364 -0.8625
  163MOL0     H21985   6.310   1.790   6.975  1.5510  0.4137  2.2592
  163MOL0     H21986   6.226   1.762   7.130 -1.4706  0.3396 -0.5580
  163MOL0     H21987   7.249   1.595   6.858  0.1634 -2.7801  0.0490
  163MOL0     H21988   7.446   1.493   6.937 -0.9918  1.8006 -2.7859
  163MOL0     H21989   7.694   1.324   7.330 -0.6564  1.2728  2.0248
  163MOL0     H21990   7.910   1.220   7.328  0.7117 -0.0755 -1.7122
  163MOL0     H21991   9.595   1.713   7.087  1.8209  1.3105 -0.0073
  163MOL0     H21992   9.818   1.708   7.141  0.0534 -1.0969  0.5743
  163MOL0     H21993  10.301   1.326   7.112 -1.7752  1.1732  0.0829
  163MOL0     H21994  10.537   1.377   7.110  1.9321  0.9410 -0.3183
  163MOL0     H21995  10.651   1.567   7.284 -0.9968  4.0666  0.4966
  163MOL0     H21996  10.756   1.475   7.155 -0.5253  1.2495 -3.9353
  163MOL0     H21997  10.899   1.652   7.128  1.2157 -0.2607  0.9003
  163MOL0     H21998  10.896   1.597   7.295 -1.2663 -3.0216 -0.7220
  163MOL0     H21999  10.732   1.805   7.328 -1.7877 -3.7469 -0.8937
  163MOL0     H22000  10.783   1.855   7.173 -0.5997  0.9959  2.6508
  163MOL0     H22001  11.034   1.848   7.256 -1.8636 -0.3953 -1.7360
  163MOL0     H22002  10.979   1.825   7.412  1.9453  1.7395 -0.1187
  163MOL0     H22003  10.916   2.237   7.357 -3.3023  0.6515 -1.2962
  163MOL0     H22004  10.426   1.794   7.003  0.3647 -1.2616 -1.1484
  163MOL0     H22005  10.211   1.738   6.991 -0.4862 -0.1450  1.5187
  164MOL0     O22006   6.339   6.251   9.028  0.1045 -0.4875  0.3426
  164MOL0     C22007   6.333   6.365   9.072  0.0608 -0.5120 -0.3107
  164MOL0     O22008   6.440   6.432   9.120  0.3536 -0.5813 -0.2174
  164MOL0     C22009   6.570   6.396   9.088  0.2430 -0.5018  0.3351
  164MOL0     C22010   6.617   6.324   8.973  0.6620  0.4878  0.1401
  164MOL0     C22011   6.748   6.314   8.942  0.0179  0.2374 -0.5314
  164MOL0     C22012   6.854   6.365   9.023  0.8726 -0.3466  0.2135
  164MOL0     O22013   6.987   6.356   8.993 -0.3834  0.5466  0.5852
  164MOL0     C22014   7.030   6.313   8.859  0.4320  0.0048  0.2445
  164MOL0     C22015   7.177   6.332   8.826 -0.3272 -0.7009 -0.4524
  164MOL0     C22016   7.218   6.480   8.781 -0.6217  0.7045 -0.2392
  164MOL0     C22017   7.345   6.463   8.690 -0.1407  1.1607  0.6325
  164MOL0     C22018   7.474   6.417   8.764  0.0487  0.1426 -0.5294
  164MOL0     C22019   7.596   6.387   8.660 -0.4066  0.0491 -0.2667
  164MOL0     C22020   7.741   6.400   8.725  0.2473 -0.0345 -0.7150
  164MOL0     C22021   7.846   6.374   8.616  0.6442 -0.5290  0.2075
  164MOL0     N22022   7.985   6.354   8.658 -0.4062  0.2146  0.5031
  164MOL0     C22023   8.105   6.379   8.585  0.2554  0.8147  0.6393
  164MOL0     C22024   8.209   6.354   8.671  0.3165 -0.5534  0.7345
  164MOL0     C22025   8.354   6.392   8.651 -0.1202  0.8862  1.0356
  164MOL0     C22026   8.433   6.426   8.779  0.4384  0.9621 -0.1974
  164MOL0     C22027   8.582   6.422   8.754 -0.1046  0.4152 -0.4433
  164MOL0     C22028   8.638   6.529   8.650  0.4956  0.0488 -1.0626
  164MOL0     O22029   8.780   6.510   8.648  0.1592 -0.5775  0.0389
  164MOL0     C22030   8.855   6.576   8.556 -0.3536 -0.0238 -0.3195
  164MOL0     C22031   8.804   6.690   8.487  0.2156  0.4823 -0.5972
  164MOL0     C22032   8.893   6.752   8.399  0.2192 -0.3011 -0.3385
  164MOL0     C22033   8.857   6.893   8.356 -0.1485 -1.1104  0.1111
  164MOL0     C22034   9.024   6.698   8.368 -0.2121 -0.1020  0.0233
  164MOL0     C22035   9.135   6.763   8.285  0.8709  0.1562  0.5316
  164MOL0     O22036   9.247   6.685   8.257 -0.1051  0.3507  0.6443
  164MOL0     C22037   9.369   6.740   8.236 -0.4602 -0.2844  0.6366
  164MOL0     C22038   9.463   6.677   8.159 -0.1471 -0.2042 -0.4461
  164MOL0     C22039   9.589   6.733   8.134  0.1559  0.0405 -0.3872
  164MOL0     C22040   9.626   6.856   8.190 -0.1578 -0.0694 -0.0856
  164MOL0     O22041   9.756   6.892   8.176 -0.8261 -0.3188 -0.1316
  164MOL0     C22042   9.787   7.032   8.221 -1.3727 -0.2915  0.4810
  164MOL0     C22043   9.920   7.090   8.163  0.3676 -0.0157 -0.5735
  164MOL0     C22044  10.039   7.034   8.239 -0.0823  0.0099  0.7212
  164MOL0     C22045  10.170   7.087   8.177  0.5754  0.6468  0.0410
  164MOL0     C22046  10.285   7.023   8.253  0.9027 -0.0454 -0.8813
  164MOL0     C22047  10.410   7.036   8.167  0.4505  0.3478  0.6984
  164MOL0     C22048  10.523   6.983   8.245  0.8726 -0.1335  0.3004
  164MOL0     C22049  10.655   7.006   8.174  0.1191 -0.4166 -0.0311
  164MOL0    Cl22050  10.654   6.886   8.039  0.0710  0.4577 -0.0760
  164MOL0     C22051   9.529   6.920   8.268 -0.3105 -1.0796  0.6744
  164MOL0     C22052   9.405   6.861   8.298  0.2667  0.4575 -0.6174
  164MOL0     O22053   9.117   6.874   8.238  0.2138 -0.9829 -0.4848
  164MOL0     C22054   9.053   6.572   8.427 -0.7163 -0.8325 -0.1702
  164MOL0     C22055   8.976   6.517   8.534 -1.1768 -0.1134 -0.2605
  164MOL0     N22056   8.155   6.308   8.793  0.3633 -0.7879  0.6737
  164MOL0     N22057   8.025   6.319   8.784  0.4942  0.0182 -0.1599
  164MOL0     C22058   6.813   6.425   9.145  0.3788 -0.8306  0.1551
  164MOL0     C22059   6.677   6.449   9.169  0.3638 -0.8571 -0.3011
  164MOL0     C22060   6.212   6.446   9.062  0.3068 -0.2653  0.8861
  164MOL0     C22061   6.108   6.403   8.979 -0.4449  1.1174  0.0742
  164MOL0     C22062   5.982   6.468   8.966 -0.4139  0.1111  0.3556
  164MOL0     C22063   5.965   6.591   9.032  0.0095 -0.1661  0.0347
  164MOL0     O22064   5.855   6.657   8.985 -0.1603  0.9199  0.2397
  164MOL0     C22065   5.771   6.721   9.089 -0.6523 -0.3439 -0.3335
  164MOL0     C22066   5.737   6.858   9.036  0.8797 -1.6752 -0.6812
  164MOL0     C22067   5.857   6.958   9.045  0.2607  1.3424 -0.0040
  164MOL0     C22068   5.816   7.088   8.971 -0.5268 -0.5837  1.0348
  164MOL0     C22069   5.711   7.153   9.051  0.5542 -0.0183 -0.0540
  164MOL0     C22070   5.631   7.192   9.135 -0.3688  0.3357  1.4372
  164MOL0     C22071   6.075   6.643   9.105  0.4909 -0.9166 -0.1972
  164MOL0     C22072   6.196   6.578   9.123 -0.0334 -0.1468 -0.6456
  164MOL0     H22073   6.545   6.277   8.908 -1.6462 -1.0939  3.5517
  164MOL0     H22074   6.772   6.270   8.846 -2.8287 -0.4930 -1.0010
  164MOL0     H22075   7.007   6.206   8.852 -1.1433  0.4073 -1.0988
  164MOL0     H22076   6.975   6.366   8.781  1.6013  0.6331 -0.1953
  164MOL0     H22077   7.236   6.290   8.908 -2.4924 -0.3270  1.4156
  164MOL0     H22078   7.185   6.260   8.744 -0.3545 -1.5545  0.2827
  164MOL0     H22079   7.136   6.529   8.729 -0.2649 -0.0584 -1.5875
  164MOL0     H22080   7.250   6.529   8.874  5.8818 -1.7942 -0.6340
  164MOL0     H22081   7.331   6.395   8.605 -0.9997 -0.3307  1.9119
  164MOL0     H22082   7.361   6.564   8.650 -1.8825  1.3603  0.3489
  164MOL0     H22083   7.492   6.501   8.832 -4.4986  0.0673  1.1272
  164MOL0     H22084   7.458   6.325   8.822  1.5248 -1.8957 -3.1347
  164MOL0     H22085   7.583   6.284   8.625  2.9847 -0.2353 -1.0834
  164MOL0     H22086   7.587   6.455   8.575 -0.1370  0.0799 -0.2725
  164MOL0     H22087   7.754   6.495   8.778 -1.2233 -1.3347  2.1653
  164MOL0     H22088   7.748   6.320   8.799  1.9744 -0.6382 -1.4765
  164MOL0     H22089   7.842   6.459   8.547 -0.7017 -1.3792 -0.8119
  164MOL0     H22090   7.804   6.291   8.559 -1.5373  0.3054  0.5045
  164MOL0     H22091   8.113   6.425   8.487  1.9001  0.0744  0.3993
  164MOL0     H22092   8.398   6.307   8.599 -1.6733 -0.6322  2.1024
  164MOL0     H22093   8.357   6.477   8.582  0.1326  0.4537  0.5153
  164MOL0     H22094   8.418   6.351   8.857 -0.7248  2.6325  1.2833
  164MOL0     H22095   8.410   6.525   8.821  2.3207  1.9477 -1.3516
  164MOL0     H22096   8.618   6.326   8.716  1.2095 -0.6383  3.0203
  164MOL0     H22097   8.633   6.443   8.849  0.9523  3.4288 -1.5679
  164MOL0     H22098   8.619   6.627   8.694 -1.3425 -0.4982 -0.5637
  164MOL0     H22099   8.584   6.526   8.555 -1.5624 -2.2743  0.0659
  164MOL0     H22100   8.702   6.727   8.494 -0.4487 -1.2990 -0.3149
  164MOL0     H22101   8.776   6.938   8.415 -0.2055 -0.8054 -0.1988
  164MOL0     H22102   8.936   6.968   8.359  1.1995 -2.5099  1.2681
  164MOL0     H22103   8.828   6.901   8.251 -1.6372 -0.4537  0.5433
  164MOL0     H22104   9.440   6.582   8.113  1.6028 -1.1010  0.4402
  164MOL0     H22105   9.665   6.686   8.073  0.2484 -1.0687  0.5508
  164MOL0     H22106   9.713   7.096   8.171  1.7093  1.7469 -1.9110
  164MOL0     H22107   9.784   7.045   8.329  0.3198  2.3224  0.3122
  164MOL0     H22108   9.923   7.080   8.054  3.4537 -0.9501 -0.4842
  164MOL0     H22109   9.917   7.199   8.174  0.4145 -0.0496 -0.2227
  164MOL0     H22110  10.036   6.925   8.247  2.8439 -0.1397  0.7206
  164MOL0     H22111  10.029   7.073   8.341 -2.1062 -1.7726  1.2867
  164MOL0     H22112  10.174   7.067   8.070 -0.0033 -1.0980  0.3147
  164MOL0     H22113  10.174   7.194   8.198  1.2742  0.1667  2.7999
  164MOL0     H22114  10.261   6.917   8.262  2.1205 -0.3228 -0.7665
  164MOL0     H22115  10.297   7.064   8.354  1.1594 -3.1260  0.4532
  164MOL0     H22116  10.399   6.980   8.074  2.1303 -1.3857  1.4803
  164MOL0     H22117  10.427   7.143   8.151  1.2043  0.1838  0.3733
  164MOL0     H22118  10.515   6.876   8.269  1.7628 -0.3719 -0.3938
  164MOL0     H22119  10.511   7.039   8.338  1.0139 -1.1603  0.9625
  164MOL0     H22120  10.742   6.983   8.235  1.2199 -0.0722 -1.4231
  164MOL0     H22121  10.671   7.109   8.139  1.2839 -1.3508 -2.4615
  164MOL0     H22122   9.562   7.003   8.330  1.7622 -1.3319 -0.0175
  164MOL0     H22123   9.337   6.917   8.360 -2.5581 -0.2008 -2.9040
  164MOL0     H22124   9.148   6.527   8.403 -0.8181 -1.7277  1.0400
  164MOL0     H22125   9.009   6.427   8.583 -0.0254  0.4593  0.0297
  164MOL0     H22126   6.891   6.462   9.211  1.8525 -3.1041 -0.2184
  164MOL0     H22127   6.642   6.505   9.255 -2.6633  0.4627 -2.2018
  164MOL0     H22128   6.126   6.301   8.945  2.4606  0.5852  2.7331
  164MOL0     H22129   5.903   6.434   8.900 -0.9795 -0.8185  1.4668
  164MOL0     H22130   5.680   6.676   9.129 -2.3348  3.6857  0.9630
  164MOL0     H22131   5.833   6.731   9.179 -1.6011  0.5994  0.2349
  164MOL0     H22132   5.653   6.895   9.096  1.8121  2.9700 -1.8118
  164MOL0     H22133   5.700   6.847   8.934 -1.3818  1.7360 -0.3894
  164MOL0     H22134   5.945   6.916   8.996 -1.3986 -1.2166 -1.0467
  164MOL0     H22135   5.882   6.975   9.150 -1.5278  1.9645  0.3664
  164MOL0     H22136   5.793   7.072   8.866 -1.0632 -1.8893  1.3249
  164MOL0     H22137   5.904   7.152   8.958 -0.1330 -1.2674  0.3046
  164MOL0     H22138   5.550   7.239   9.187 -2.3313 -0.5613 -0.6159
  164MOL0     H22139   6.066   6.749   9.127 -2.1048 -0.9597 -0.6529
  164MOL0     H22140   6.275   6.632   9.172  1.6968 -0.1591 -3.2098
  165MOL0     O22141   2.242   5.683   8.077 -0.1667  0.0908 -0.5233
  165MOL0     C22142   2.302   5.714   7.972 -0.2097  0.4232  0.1227
  165MOL0     O22143   2.247   5.744   7.849 -0.5312 -0.1440 -0.2720
  165MOL0     C22144   2.111   5.755   7.820 -0.6612 -0.5555  1.0314
  165MOL0     C22145   1.999   5.757   7.902  0.3905 -0.2894  0.2425
  165MOL0     C22146   1.868   5.751   7.851 -0.2652 -0.4244 -0.4173
  165MOL0     C22147   1.842   5.760   7.715 -0.7729 -0.5951 -0.3468
  165MOL0     O22148   1.719   5.768   7.654  0.0409  0.4298 -0.3405
  165MOL0     C22149   1.598   5.771   7.735  0.2473 -1.0571  0.3183
  165MOL0     C22150   1.477   5.800   7.651  0.3639 -0.0771  0.1039
  165MOL0     C22151   1.349   5.799   7.738  0.3612  0.0336 -0.5067
  165MOL0     C22152   1.224   5.840   7.647  0.6630  0.2505 -0.4974
  165MOL0     C22153   1.114   5.904   7.733  0.5298 -0.4550  0.7123
  165MOL0     C22154   1.046   5.788   7.809 -0.2383 -0.0539 -0.4788
  165MOL0     C22155   0.910   5.835   7.861  0.4667  1.0295  0.3991
  165MOL0     C22156   0.805   5.723   7.878  0.2232  0.1873  1.0250
  165MOL0     N22157   0.682   5.767   7.944 -0.3796  0.3610 -0.6048
  165MOL0     C22158   0.591   5.844   7.876 -0.4589 -0.3426  1.0102
  165MOL0     C22159   0.495   5.868   7.965 -0.1888 -0.5434 -0.7909
  165MOL0     C22160   0.371   5.948   7.948 -0.0239  0.0642  0.1823
  165MOL0     C22161   0.244   5.869   7.950  0.7374  0.4590  0.4550
  165MOL0     C22162   0.118   5.951   7.966 -0.5145 -0.5474 -0.2149
  165MOL0     C22163  -0.003   5.863   7.935  0.5024 -0.1770  0.0544
  165MOL0     O22164  -0.111   5.943   7.882  0.5771  0.1730  0.5532
  165MOL0     C22165  -0.240   5.895   7.880 -0.8705 -0.0004  0.4096
  165MOL0     C22166  -0.263   5.755   7.894  0.7770 -0.5112 -0.4789
  165MOL0     C22167  -0.398   5.717   7.905 -0.7035  0.2458 -0.4071
  165MOL0     C22168  -0.420   5.570   7.939 -0.2959 -0.6447  0.5374
  165MOL0     C22169  -0.509   5.810   7.888 -0.3096  0.4345 -0.8801
  165MOL0     C22170  -0.647   5.774   7.912 -0.2223 -0.1032 -0.4216
  165MOL0     O22171  -0.681   5.641   7.912  0.2876  0.1251 -0.1676
  165MOL0     C22172  -0.815   5.605   7.922 -0.5625 -0.1307 -0.5116
  165MOL0     C22173  -0.840   5.505   8.020 -0.9426  0.3665 -0.9222
  165MOL0     C22174  -0.970   5.454   8.028 -0.3267  0.0419  0.2115
  165MOL0     C22175  -1.075   5.501   7.943 -0.1356  1.2456 -0.2101
  165MOL0     O22176  -1.200   5.448   7.917  0.0087 -0.1589 -0.1079
  165MOL0     C22177  -1.228   5.318   7.961 -0.2727 -0.3630  0.3346
  165MOL0     C22178  -1.349   5.255   7.895 -0.1683 -0.1324 -0.6469
  165MOL0     C22179  -1.466   5.356   7.918 -0.3341 -0.2260 -0.3861
  165MOL0     C22180  -1.595   5.279   7.919 -0.7148 -0.3355 -0.0440
  165MOL0     C22181  -1.715   5.360   7.969 -0.0269  1.0715 -0.3309
  165MOL0     C22182  -1.838   5.277   7.957  0.0028  0.3832  0.9054
  165MOL0     C22183  -1.953   5.336   8.014  0.4037 -0.0789 -0.2742
  165MOL0     C22184  -2.079   5.273   7.951  0.1394 -0.2366 -0.3737
  165MOL0    Cl22185  -2.235   5.347   8.031  0.3440 -0.3097  0.0381
  165MOL0     C22186  -1.042   5.610   7.857 -0.2530 -0.1722 -0.4296
  165MOL0     C22187  -0.918   5.668   7.851 -0.3389  1.1465 -0.1066
  165MOL0     O22188  -0.725   5.870   7.931 -0.0740 -0.4069 -0.0466
  165MOL0     C22189  -0.476   5.947   7.863  0.0763 -0.3150  0.9638
  165MOL0     C22190  -0.344   5.980   7.863 -0.5719 -0.3070 -0.3381
  165MOL0     N22191   0.530   5.803   8.083  0.3662 -0.6463 -0.3424
  165MOL0     N22192   0.643   5.744   8.069  0.2176  0.2700 -1.1244
  165MOL0     C22193   1.952   5.756   7.632 -0.5063 -0.0439 -0.8044
  165MOL0     C22194   2.082   5.748   7.685 -0.1221 -0.6028 -0.1973
  165MOL0     C22195   2.449   5.701   7.977 -0.0550 -0.2756 -0.4063
  165MOL0     C22196   2.515   5.692   8.106 -0.5235 -0.3709  0.3646
  165MOL0     C22197   2.653   5.693   8.109 -0.4301 -1.0684 -0.3027
  165MOL0     C22198   2.728   5.680   7.993  0.3607 -0.0383  0.6399
  165MOL0     O22199   2.862   5.657   8.010 -0.2541 -0.3128 -0.2402
  165MOL0     C22200   2.952   5.696   7.902  0.6781 -0.3994 -0.2420
  165MOL0     C22201   3.092   5.706   7.953  0.5548 -0.6888  0.1578
  165MOL0     C22202   3.207   5.672   7.850 -0.0079 -0.0677 -0.6794
  165MOL0     C22203   3.322   5.608   7.914 -0.5511  0.5405  0.6102
  165MOL0     C22204   3.449   5.637   7.851 -0.1393  0.3616 -0.1818
  165MOL0     C22205   3.561   5.666   7.808  0.0869 -0.5010  0.0796
  165MOL0     C22206   2.662   5.687   7.869  0.7980 -0.7881  0.7398
  165MOL0     C22207   2.524   5.702   7.860 -1.0891 -0.4130 -0.0978
  165MOL0     H22208   2.013   5.748   8.009 -0.3600  1.0924  0.4750
  165MOL0     H22209   1.792   5.754   7.929 -0.1079 -3.9222  0.0159
  165MOL0     H22210   1.577   5.676   7.785 -0.0601 -1.2047 -0.0855
  165MOL0     H22211   1.610   5.855   7.804 -0.5175  1.4813 -2.4082
  165MOL0     H22212   1.502   5.900   7.615 -3.6024  1.8192  1.9919
  165MOL0     H22213   1.467   5.731   7.567  0.7040 -1.4853  1.1693
  165MOL0     H22214   1.340   5.695   7.772  0.8270  0.0971 -0.1813
  165MOL0     H22215   1.359   5.859   7.829 -3.5678 -2.0106  1.5434
  165MOL0     H22216   1.264   5.922   7.586  1.8852 -1.5781 -2.3050
  165MOL0     H22217   1.188   5.773   7.568 -0.2379  2.1138 -1.7477
  165MOL0     H22218   1.152   5.980   7.802 -3.5159  1.3827  1.1810
  165MOL0     H22219   1.042   5.948   7.664 -0.3299 -1.1575  1.1333
  165MOL0     H22220   1.038   5.695   7.752 -0.3094 -1.0483  1.0854
  165MOL0     H22221   1.103   5.763   7.900 -2.2705 -0.8813  0.6251
  165MOL0     H22222   0.921   5.880   7.960  1.5107 -2.4186  2.0007
  165MOL0     H22223   0.860   5.907   7.796 -0.2143  1.0264  0.9136
  165MOL0     H22224   0.847   5.651   7.949  0.6341  0.1908  0.7835
  165MOL0     H22225   0.774   5.675   7.785 -1.4880 -0.2010  1.7421
  165MOL0     H22226   0.606   5.878   7.774  0.0339  0.0803  1.2198
  165MOL0     H22227   0.372   6.008   8.039  1.0320  1.2861 -0.6175
  165MOL0     H22228   0.381   6.013   7.861  0.1687 -1.3866 -0.9303
  165MOL0     H22229   0.248   5.816   8.045 -0.6503  0.7844  0.7042
  165MOL0     H22230   0.228   5.791   7.875 -2.1245  0.9299  0.4724
  165MOL0     H22231   0.121   6.036   7.896 -2.6383  0.4013  0.7544
  165MOL0     H22232   0.111   5.991   8.067 -2.3512 -4.5066  1.4497
  165MOL0     H22233  -0.036   5.806   8.022 -3.3911  0.0372 -1.0713
  165MOL0     H22234   0.016   5.792   7.854 -2.4000  0.0893 -0.9931
  165MOL0     H22235  -0.188   5.682   7.922  0.1194 -0.4213  1.6849
  165MOL0     H22236  -0.476   5.515   7.863 -0.1306 -0.1724  0.0632
  165MOL0     H22237  -0.319   5.528   7.945  0.5970  1.2585 -0.3703
  165MOL0     H22238  -0.479   5.568   8.031 -2.7216  0.1581 -0.9016
  165MOL0     H22239  -0.771   5.447   8.081 -3.2276 -0.4824  1.0527
  165MOL0     H22240  -0.983   5.368   8.093 -3.5537  0.2185 -0.0554
  165MOL0     H22241  -1.144   5.249   7.950  1.0640  1.2385  0.1325
  165MOL0     H22242  -1.246   5.330   8.068  0.1021 -0.2021  0.3804
  165MOL0     H22243  -1.334   5.258   7.786 -1.2265  2.0412 -0.7943
  165MOL0     H22244  -1.362   5.157   7.941  1.8242  0.6758  1.8688
  165MOL0     H22245  -1.462   5.424   7.833 -0.2182 -1.6026 -1.5191
  165MOL0     H22246  -1.471   5.402   8.017 -0.4894 -0.4050 -0.3088
  165MOL0     H22247  -1.617   5.231   7.824 -1.9808 -1.7252  0.8994
  165MOL0     H22248  -1.580   5.195   7.988  0.1052  1.5191  2.1875
  165MOL0     H22249  -1.736   5.453   7.915 -3.1667  0.7575  0.1771
  165MOL0     H22250  -1.700   5.385   8.074 -1.2271  0.5425 -0.0204
  165MOL0     H22251  -1.863   5.260   7.852 -0.0409 -2.8110  1.3472
  165MOL0     H22252  -1.830   5.179   8.005 -1.2184  1.3192  3.1689
  165MOL0     H22253  -1.948   5.442   7.989  2.0614  0.7279  2.9514
  165MOL0     H22254  -1.958   5.323   8.122  0.9536  0.9740 -0.1118
  165MOL0     H22255  -2.082   5.164   7.943 -0.7052 -0.0910 -2.6253
  165MOL0     H22256  -2.072   5.303   7.847  0.2706 -5.8419 -2.3022
  165MOL0     H22257  -1.123   5.651   7.798  0.4674  0.0646 -1.2809
  165MOL0     H22258  -0.897   5.755   7.790 -0.7360  1.4184  0.1451
  165MOL0     H22259  -0.550   6.025   7.858 -1.0985 -1.4765 -1.6767
  165MOL0     H22260  -0.306   6.082   7.854  1.0647 -1.0184 -2.5708
  165MOL0     H22261   1.938   5.758   7.525 -0.2150  0.5780 -0.8356
  165MOL0     H22262   2.172   5.746   7.623  1.9026 -1.3320  2.5561
  165MOL0     H22263   2.465   5.689   8.202  2.0423  1.5442  1.8746
  165MOL0     H22264   2.710   5.694   8.201 -2.1874 -0.5331  0.8285
  165MOL0     H22265   2.955   5.622   7.821  1.9368 -1.1985  0.4986
  165MOL0     H22266   2.923   5.795   7.864  1.8936 -0.1934 -0.6896
  165MOL0     H22267   3.093   5.622   8.023  0.9784  0.0856  1.1064
  165MOL0     H22268   3.114   5.800   8.006  0.6813 -1.4772  1.5396
  165MOL0     H22269   3.238   5.766   7.803 -0.5052  1.8151  2.4407
  165MOL0     H22270   3.166   5.608   7.772 -3.7636  1.7920 -0.4597
  165MOL0     H22271   3.316   5.499   7.913 -1.2112  0.5206 -2.3898
  165MOL0     H22272   3.326   5.636   8.020  3.1343 -1.6443  1.2187
  165MOL0     H22273   3.652   5.708   7.771  0.8892 -1.0926  1.2962
  165MOL0     H22274   2.720   5.709   7.780 -0.0792  0.2401  0.4070
  165MOL0     H22275   2.481   5.704   7.761  0.6905  0.6318 -0.8919
  166MOL0     O22276   5.140   6.988   3.113  0.7446 -0.2815  0.1986
  166MOL0     C22277   5.104   6.951   3.223  0.8979 -0.0580 -0.5124
  166MOL0     O22278   4.973   6.941   3.266 -0.1981 -0.1891 -0.5318
  166MOL0     C22279   4.860   6.982   3.193 -0.1182 -0.8654  0.4781
  166MOL0     C22280   4.742   6.949   3.253  0.2861 -0.4502  0.8833
  166MOL0     C22281   4.620   6.958   3.179  0.4228 -0.5045  0.6135
  166MOL0     C22282   4.609   7.032   3.053  0.0591  0.2205  1.2036
  166MOL0     O22283   4.495   7.051   2.974  0.6515 -0.9451 -0.2334
  166MOL0     C22284   4.382   6.973   3.011 -0.4084  0.3054  0.3496
  166MOL0     C22285   4.261   6.994   2.917  0.2067  0.6200  0.3284
  166MOL0     C22286   4.198   7.132   2.938 -0.3449  0.4283 -0.4538
  166MOL0     C22287   4.066   7.146   2.863  0.2333  0.1800 -0.2904
  166MOL0     C22288   4.009   7.288   2.874  0.2882  0.2252  0.3182
  166MOL0     C22289   3.878   7.281   2.788 -0.3654  0.1416 -0.1142
  166MOL0     C22290   3.773   7.392   2.811  0.2040 -0.6228 -0.2273
  166MOL0     C22291   3.632   7.363   2.761 -0.5472  1.0345  0.2578
  166MOL0     N22292   3.581   7.228   2.783 -0.3696 -0.0911 -0.6869
  166MOL0     C22293   3.595   7.117   2.708 -0.0168  0.0665  0.3259
  166MOL0     C22294   3.500   7.038   2.751 -0.8636  0.1953 -0.3236
  166MOL0     C22295   3.455   6.906   2.679  0.1346 -0.4963 -0.4733
  166MOL0     C22296   3.333   6.928   2.596 -0.4196 -0.3096  0.2118
  166MOL0     C22297   3.214   6.974   2.683  0.5058  0.4906 -0.6173
  166MOL0     C22298   3.079   6.951   2.613  0.5935 -0.5583  0.5349
  166MOL0     O22299   3.040   6.813   2.602  0.3582 -0.6829 -0.3213
  166MOL0     C22300   2.991   6.758   2.721 -0.5717 -0.2726  0.4765
  166MOL0     C22301   3.074   6.694   2.819 -0.3230  0.3092 -0.0786
  166MOL0     C22302   3.022   6.647   2.943 -0.2798  0.0503  0.3640
  166MOL0     C22303   3.128   6.592   3.038 -0.2419  1.0963 -1.0111
  166MOL0     C22304   2.880   6.659   2.971 -0.2995 -0.6154 -0.1660
  166MOL0     C22305   2.808   6.598   3.094 -0.3523  0.0541  0.7195
  166MOL0     O22306   2.670   6.596   3.083 -0.1739  0.0233 -0.8107
  166MOL0     C22307   2.615   6.522   3.185 -0.0615  0.0460 -0.4395
  166MOL0     C22308   2.517   6.581   3.268  0.1326  0.0659  0.9911
  166MOL0     C22309   2.451   6.508   3.356 -0.1455 -0.0466 -0.2090
  166MOL0     C22310   2.471   6.368   3.368 -0.3031  0.3190  0.2461
  166MOL0     O22311   2.392   6.292   3.454  0.3127 -0.1522 -0.2714
  166MOL0     C22312   2.416   6.152   3.478  0.7632  0.1508 -0.5187
  166MOL0     C22313   2.336   6.110   3.610 -1.0711 -0.2320 -1.0211
  166MOL0     C22314   2.432   6.064   3.722 -0.1088 -0.6378  0.6861
  166MOL0     C22315   2.493   5.933   3.681  0.1833  0.3940 -0.4619
  166MOL0     C22316   2.592   5.879   3.790 -0.6472  0.2050  0.4539
  166MOL0     C22317   2.614   5.727   3.767  0.2761 -0.2542 -0.8389
  166MOL0     C22318   2.652   5.635   3.886 -0.0277  0.3209 -0.5163
  166MOL0     C22319   2.749   5.699   3.978 -0.1241 -0.2738 -0.6282
  166MOL0    Cl22320   2.908   5.702   3.892  0.0665 -0.2161 -0.3047
  166MOL0     C22321   2.562   6.304   3.279 -0.2195  0.5887 -0.1960
  166MOL0     C22322   2.636   6.377   3.195 -0.1574  0.6073  0.3942
  166MOL0     O22323   2.871   6.587   3.203 -0.9896  0.0755  0.4612
  166MOL0     C22324   2.807   6.719   2.865  0.4822 -0.0615 -0.0026
  166MOL0     C22325   2.854   6.773   2.748 -0.1612  0.6298 -0.2670
  166MOL0     N22326   3.440   7.088   2.857  0.3648 -0.2701  0.3657
  166MOL0     N22327   3.486   7.206   2.875 -0.4395  0.3651 -0.3540
  166MOL0     C22328   4.726   7.082   3.007  0.5540  0.7632 -0.4947
  166MOL0     C22329   4.850   7.064   3.078  0.1697 -0.4155  0.5046
  166MOL0     C22330   5.207   6.922   3.321  0.4555  0.0904 -0.1786
  166MOL0     C22331   5.337   6.949   3.287 -0.2203  0.9204 -1.4193
  166MOL0     C22332   5.435   6.927   3.388 -0.1095 -0.2561  0.6425
  166MOL0     C22333   5.409   6.871   3.512  0.1049  0.5710  0.2924
  166MOL0     O22334   5.509   6.845   3.609  0.6324  0.1832 -0.1835
  166MOL0     C22335   5.643   6.902   3.600  1.2645  0.1182 -0.1568
  166MOL0     C22336   5.709   6.879   3.739  0.0352  0.7343  0.0141
  166MOL0     C22337   5.703   6.728   3.777  0.5884 -0.5570 -0.2830
  166MOL0     C22338   5.797   6.642   3.688  0.4546 -0.2214  0.1402
  166MOL0     C22339   5.934   6.650   3.731 -0.5985 -1.0865 -1.4608
  166MOL0     C22340   6.050   6.660   3.781  0.3843 -0.2361  0.7986
  166MOL0     C22341   5.278   6.829   3.538  0.3102  0.6716  1.7416
  166MOL0     C22342   5.176   6.856   3.445 -0.3514  0.2631  0.1343
  166MOL0     H22343   4.751   6.888   3.343  2.3941 -2.3003 -0.4744
  166MOL0     H22344   4.532   6.913   3.224  0.8325 -1.1753  0.7514
  166MOL0     H22345   4.406   6.866   3.007 -0.9418  0.1198  1.5917
  166MOL0     H22346   4.349   6.995   3.113  0.8381 -0.9746  1.0721
  166MOL0     H22347   4.295   6.977   2.814 -1.4461 -4.7187  0.3693
  166MOL0     H22348   4.201   6.905   2.938 -0.3394  1.1580  1.0735
  166MOL0     H22349   4.185   7.133   3.047  2.7198  1.4697  0.0134
  166MOL0     H22350   4.267   7.206   2.898  2.4083  0.5765  3.8997
  166MOL0     H22351   4.080   7.118   2.758 -1.3701  2.1023 -1.0962
  166MOL0     H22352   4.006   7.070   2.913 -1.1864  2.3476  1.4991
  166MOL0     H22353   3.977   7.317   2.974 -0.1859 -1.1320  0.5804
  166MOL0     H22354   4.085   7.360   2.839  2.1801  0.8460  4.9888
  166MOL0     H22355   3.909   7.272   2.684 -0.2425  0.9158 -0.1494
  166MOL0     H22356   3.824   7.188   2.807  1.8702 -1.0259  0.8536
  166MOL0     H22357   3.775   7.407   2.920  0.7511  1.6609 -0.4903
  166MOL0     H22358   3.812   7.478   2.756  0.5770 -1.6481 -1.5948
  166MOL0     H22359   3.624   7.377   2.653 -1.1986 -0.3908  0.0980
  166MOL0     H22360   3.576   7.432   2.824  2.0499  1.1712  2.5705
  166MOL0     H22361   3.654   7.095   2.619  0.0177  0.5481  0.2257
  166MOL0     H22362   3.537   6.866   2.619 -0.6290 -4.3493  0.8071
  166MOL0     H22363   3.446   6.829   2.756  0.8825  0.6219  0.7927
  166MOL0     H22364   3.294   6.840   2.544  0.2231  0.6159 -1.9552
  166MOL0     H22365   3.353   7.008   2.524 -1.7759 -1.6788 -1.7836
  166MOL0     H22366   3.222   7.082   2.702 -0.5973  0.4991 -0.1315
  166MOL0     H22367   3.217   6.932   2.784 -2.3075  1.0610 -0.2244
  166MOL0     H22368   3.093   6.981   2.509 -1.8287  0.0326  0.3020
  166MOL0     H22369   2.995   7.015   2.644  0.9529 -0.1277  0.6315
  166MOL0     H22370   3.178   6.672   2.795 -0.5263 -0.0700 -0.6294
  166MOL0     H22371   3.109   6.635   3.138  0.2557 -1.3187  0.1858
  166MOL0     H22372   3.125   6.483   3.045  1.7108  1.0845  0.2689
  166MOL0     H22373   3.233   6.610   3.017  0.3674 -0.5499  0.3891
  166MOL0     H22374   2.513   6.689   3.271 -1.0412  0.1390 -1.2548
  166MOL0     H22375   2.374   6.559   3.414 -0.5141 -0.2510 -0.5116
  166MOL0     H22376   2.369   6.083   3.407  0.2402 -3.2768  2.8442
  166MOL0     H22377   2.523   6.129   3.469  1.0553  1.7159 -1.4422
  166MOL0     H22378   2.262   6.179   3.653 -1.4979 -0.7639 -0.8854
  166MOL0     H22379   2.267   6.027   3.590 -1.4749 -0.4588  1.0445
  166MOL0     H22380   2.369   6.045   3.809 -0.7628  1.0537  0.6127
  166MOL0     H22381   2.512   6.137   3.739 -0.1275  0.1518 -2.0223
  166MOL0     H22382   2.410   5.865   3.658  0.6413 -0.2520 -0.2194
  166MOL0     H22383   2.551   5.956   3.591  2.2122  0.9290  0.9340
  166MOL0     H22384   2.551   5.894   3.890 -4.4844 -0.3680 -0.8518
  166MOL0     H22385   2.688   5.931   3.789 -0.0354 -0.2047  6.0223
  166MOL0     H22386   2.522   5.691   3.720 -1.1803  1.9334  0.1820
  166MOL0     H22387   2.688   5.715   3.687 -1.5373  0.8944 -2.7930
  166MOL0     H22388   2.705   5.543   3.859 -1.0025 -0.1277 -0.9846
  166MOL0     H22389   2.562   5.616   3.946  0.0892 -0.9516 -0.7050
  166MOL0     H22390   2.759   5.632   4.064 -0.6074 -0.0888 -0.4235
  166MOL0     H22391   2.722   5.798   4.017 -0.9685 -1.3783  1.8381
  166MOL0     H22392   2.575   6.197   3.281 -0.7258  0.5149 -0.5740
  166MOL0     H22393   2.707   6.325   3.131 -0.8007 -2.9611  2.3259
  166MOL0     H22394   2.700   6.706   2.882  0.8594  0.0525  2.9680
  166MOL0     H22395   2.787   6.819   2.676 -0.1574  0.9470 -0.0697
  166MOL0     H22396   4.708   7.150   2.924 -2.1316 -0.9762 -1.4524
  166MOL0     H22397   4.942   7.101   3.035 -0.2187 -1.0395 -0.9427
  166MOL0     H22398   5.357   6.992   3.189 -1.1192  1.2537 -1.4702
  166MOL0     H22399   5.541   6.945   3.372 -0.1742 -0.4740 -0.0757
  166MOL0     H22400   5.694   6.855   3.515 -1.3135 -1.2905 -1.0208
  166MOL0     H22401   5.641   7.008   3.575  0.9434 -0.6083 -3.7747
  166MOL0     H22402   5.654   6.940   3.811 -0.8284 -2.2061  2.0656
  166MOL0     H22403   5.811   6.919   3.738  0.3099  0.0522  0.2056
  166MOL0     H22404   5.604   6.682   3.775  0.0703  0.5638 -1.2444
  166MOL0     H22405   5.730   6.719   3.883  0.3536  0.9767 -0.0747
  166MOL0     H22406   5.783   6.662   3.581  0.0515 -1.2594 -0.0100
  166MOL0     H22407   5.751   6.544   3.706 -1.4251  0.8125  1.3212
  166MOL0     H22408   6.147   6.672   3.823  0.5656  0.0715  0.3023
  166MOL0     H22409   5.268   6.789   3.639 -1.6295  0.3189  1.4548
  166MOL0     H22410   5.079   6.813   3.465  0.5045 -1.5420  0.7008
  167MOL0     O22411   8.703   0.088   2.702 -0.5051  0.0864 -0.1410
  167MOL0     C22412   8.719  -0.005   2.632 -0.0036  0.7596  0.7962
  167MOL0     O22413   8.623  -0.044   2.535 -0.2584  1.0639 -0.2301
  167MOL0     C22414   8.486  -0.029   2.557  0.5467 -0.4168 -1.1712
  167MOL0     C22415   8.421   0.094   2.562  0.1173  0.7073 -0.0240
  167MOL0     C22416   8.282   0.094   2.575 -0.6545 -0.5006  0.7372
  167MOL0     C22417   8.205  -0.026   2.578 -0.1464 -0.4866 -0.4738
  167MOL0     O22418   8.072  -0.031   2.604  0.0767 -0.7652  0.5086
  167MOL0     C22419   7.997  -0.152   2.611 -0.0656 -0.3817  0.4597
  167MOL0     C22420   7.855  -0.102   2.634 -0.2115  0.8027 -0.1836
  167MOL0     C22421   7.757  -0.210   2.589  0.4189  0.3164 -0.6374
  167MOL0     C22422   7.615  -0.183   2.651  0.2749  0.4344  0.8440
  167MOL0     C22423   7.515  -0.297   2.603 -0.9489  0.7713  0.2005
  167MOL0     C22424   7.379  -0.302   2.679 -0.6164 -0.1487  0.4592
  167MOL0     C22425   7.307  -0.414   2.613  0.1294  0.8017 -0.1673
  167MOL0     C22426   7.185  -0.462   2.698 -0.4168 -0.0741  0.4241
  167MOL0     N22427   7.085  -0.361   2.715  0.4237 -0.5054  0.1551
  167MOL0     C22428   7.001  -0.320   2.624  0.4411 -0.5730  0.6347
  167MOL0     C22429   6.910  -0.243   2.689 -0.8095 -0.4889 -0.1962
  167MOL0     C22430   6.792  -0.158   2.635 -0.8295 -0.9045  0.4609
  167MOL0     C22431   6.664  -0.242   2.673 -0.2250  0.0074  0.4830
  167MOL0     C22432   6.539  -0.164   2.613  0.1689 -0.6264 -0.7511
  167MOL0     C22433   6.415  -0.256   2.602 -0.5954  0.2820 -0.3468
  167MOL0     O22434   6.302  -0.171   2.602 -0.1363 -0.1975 -0.1071
  167MOL0     C22435   6.195  -0.193   2.520  0.1287  0.1172 -0.3024
  167MOL0     C22436   6.106  -0.089   2.502  0.5937  0.6166  0.9713
  167MOL0     C22437   5.981  -0.110   2.431  0.3555 -0.4916 -0.4258
  167MOL0     C22438   5.902   0.015   2.395  0.1016  0.3417  0.1324
  167MOL0     C22439   5.947  -0.247   2.385  0.6421 -0.8185 -0.1440
  167MOL0     C22440   5.816  -0.281   2.338 -0.8040  0.3933  0.6191
  167MOL0     O22441   5.822  -0.392   2.253  0.2945  0.3519  0.7101
  167MOL0     C22442   5.705  -0.467   2.247 -0.1885 -0.1769  0.4893
  167MOL0     C22443   5.620  -0.433   2.145  0.3722 -0.9993  0.9554
  167MOL0     C22444   5.498  -0.497   2.121  0.2717  0.5690 -0.4004
  167MOL0     C22445   5.465  -0.597   2.213  0.3933 -0.0236  0.7035
  167MOL0     O22446   5.345  -0.648   2.184  0.3432 -0.2862  0.1758
  167MOL0     C22447   5.302  -0.758   2.260  0.9092 -0.1978 -1.4384
  167MOL0     C22448   5.199  -0.839   2.183  0.4498 -0.1640 -0.0875
  167MOL0     C22449   5.251  -0.909   2.055 -0.7023  0.2815 -0.3502
  167MOL0     C22450   5.199  -0.850   1.920 -0.3081  0.1568  0.8773
  167MOL0     C22451   5.058  -0.889   1.901 -0.3758 -0.0865  0.9669
  167MOL0     C22452   5.013  -0.830   1.764 -0.5619 -0.2147 -0.4525
  167MOL0     C22453   4.863  -0.852   1.738  0.4280  0.4095 -0.4556
  167MOL0     C22454   4.818  -0.881   1.599  0.3763 -0.3512  0.6660
  167MOL0    Cl22455   4.890  -1.034   1.538 -0.0905  0.1388 -0.0516
  167MOL0     C22456   5.549  -0.637   2.318 -0.0136  0.3012 -0.5110
  167MOL0     C22457   5.671  -0.566   2.334  0.1522  1.1780  0.2701
  167MOL0     O22458   5.715  -0.217   2.372 -0.4861 -0.0772 -0.2291
  167MOL0     C22459   6.043  -0.347   2.410  0.2519  0.0069  0.1498
  167MOL0     C22460   6.171  -0.326   2.471  0.6405  0.8412  0.0485
  167MOL0     N22461   6.945  -0.246   2.825 -0.1059  0.3215  0.0043
  167MOL0     N22462   7.043  -0.320   2.837 -0.7663 -0.1487 -0.6490
  167MOL0     C22463   8.278  -0.148   2.562  0.4605  0.3998  0.6481
  167MOL0     C22464   8.416  -0.144   2.542 -0.1155  0.7149 -0.5544
  167MOL0     C22465   8.849  -0.081   2.627  0.2826  0.8120 -0.0078
  167MOL0     C22466   8.840  -0.214   2.579  0.4457 -1.3948  0.3051
  167MOL0     C22467   8.959  -0.290   2.577  0.3213 -0.8313  1.0959
  167MOL0     C22468   9.083  -0.239   2.630  0.6478 -0.0005 -0.4515
  167MOL0     O22469   9.193  -0.320   2.615  0.1088 -0.0356 -0.1834
  167MOL0     C22470   9.322  -0.268   2.597  0.4482 -0.6243 -0.1072
  167MOL0     C22471   9.410  -0.374   2.543 -0.3382  0.2573  0.1888
  167MOL0     C22472   9.347  -0.434   2.411 -0.2745  0.2097  0.1008
  167MOL0     C22473   9.438  -0.546   2.354 -0.6485 -0.0353  0.9814
  167MOL0     C22474   9.461  -0.653   2.446  0.2870  0.1148 -0.1063
  167MOL0     C22475   9.474  -0.750   2.516 -0.6821  0.9364  0.4677
  167MOL0     C22476   9.086  -0.112   2.693  0.7107  0.0550 -0.8511
  167MOL0     C22477   8.968  -0.031   2.687 -1.0590  0.4596 -0.5437
  167MOL0     H22478   8.472   0.189   2.555 -1.0797  1.3016 -1.1876
  167MOL0     H22479   8.237   0.193   2.575 -3.3881 -1.6320 -0.5423
  167MOL0     H22480   8.006  -0.212   2.520  0.4419  2.7252 -1.6814
  167MOL0     H22481   8.024  -0.210   2.700  2.7983  4.3239  3.0009
  167MOL0     H22482   7.845  -0.081   2.741  1.2068 -0.3601  0.2159
  167MOL0     H22483   7.832  -0.014   2.574 -2.6504 -0.3706 -1.1057
  167MOL0     H22484   7.756  -0.204   2.480  1.5123  0.9139 -0.6310
  167MOL0     H22485   7.794  -0.308   2.622  0.1731  0.2003 -0.6992
  167MOL0     H22486   7.602  -0.189   2.759 -2.0921  1.9304  0.7242
  167MOL0     H22487   7.580  -0.083   2.623  2.1888  1.1904  1.0611
  167MOL0     H22488   7.490  -0.271   2.499 -0.9935  1.9876  0.4995
  167MOL0     H22489   7.553  -0.398   2.616 -2.5891  0.0161 -0.5775
  167MOL0     H22490   7.391  -0.301   2.788 -1.2192  2.1125  0.5481
  167MOL0     H22491   7.334  -0.205   2.658 -0.6259 -0.4461 -0.9856
  167MOL0     H22492   7.268  -0.375   2.518 -0.3836  0.7653  0.0244
  167MOL0     H22493   7.368  -0.502   2.595 -0.8431 -0.5674  2.6968
  167MOL0     H22494   7.214  -0.496   2.798 -2.7270 -1.3064  0.7445
  167MOL0     H22495   7.140  -0.548   2.648  1.1133 -0.7518  0.1436
  167MOL0     H22496   6.982  -0.343   2.520 -1.1083 -0.0540  0.7761
  167MOL0     H22497   6.781  -0.062   2.685 -2.2941 -0.1667 -1.1656
  167MOL0     H22498   6.792  -0.144   2.527 -3.0171  0.5354  0.5868
  167MOL0     H22499   6.655  -0.267   2.779 -1.1647 -0.6715  0.2597
  167MOL0     H22500   6.675  -0.340   2.625  0.4273  0.2583  0.1181
  167MOL0     H22501   6.563  -0.125   2.514  1.3739  1.6552  0.3762
  167MOL0     H22502   6.526  -0.073   2.672  1.6980 -0.2984 -0.8957
  167MOL0     H22503   6.421  -0.318   2.692  0.5693 -1.5091 -1.5727
  167MOL0     H22504   6.418  -0.325   2.517 -1.0615 -0.2683  0.0774
  167MOL0     H22505   6.141   0.007   2.536  1.1682  0.7598  0.0363
  167MOL0     H22506   5.932   0.100   2.458 -0.9113  0.9726 -0.2032
  167MOL0     H22507   5.912   0.040   2.289 -2.7348  0.8750 -0.1044
  167MOL0     H22508   5.794   0.004   2.404 -0.1011  0.5801 -1.6496
  167MOL0     H22509   5.643  -0.350   2.079  2.8077 -2.0769  0.3328
  167MOL0     H22510   5.434  -0.445   2.050  0.1777  2.3670  0.9321
  167MOL0     H22511   5.375  -0.835   2.288  0.7747  1.0470  3.1033
  167MOL0     H22512   5.272  -0.724   2.359  0.0307 -1.6550 -1.1658
  167MOL0     H22513   5.155  -0.909   2.254  1.4733  0.8560  1.5939
  167MOL0     H22514   5.118  -0.772   2.152 -0.8052 -1.4933  0.2121
  167MOL0     H22515   5.206  -1.008   2.043 -0.1624  0.1303 -1.2248
  167MOL0     H22516   5.360  -0.918   2.059 -0.6320  1.2919  0.8633
  167MOL0     H22517   5.213  -0.742   1.918  2.6191 -0.1232 -1.8838
  167MOL0     H22518   5.260  -0.884   1.836 -1.5463  1.3240 -0.5339
  167MOL0     H22519   4.991  -0.850   1.978  0.1934 -0.8661  1.8804
  167MOL0     H22520   5.039  -0.997   1.902  1.6681 -0.4935  2.0895
  167MOL0     H22521   5.041  -0.725   1.750 -0.6849 -0.5454 -3.9502
  167MOL0     H22522   5.079  -0.884   1.695  4.0959  1.7394  2.0368
  167MOL0     H22523   4.808  -0.767   1.777  0.2095  1.2419 -2.4319
  167MOL0     H22524   4.834  -0.935   1.803  0.4493  1.1111  0.4706
  167MOL0     H22525   4.840  -0.795   1.535 -1.2374  0.2069  0.8278
  167MOL0     H22526   4.712  -0.907   1.590  0.6322 -0.7705 -2.0579
  167MOL0     H22527   5.508  -0.711   2.386 -2.7781 -0.2397 -2.5679
  167MOL0     H22528   5.746  -0.592   2.408 -0.3805 -0.7655  0.1899
  167MOL0     H22529   6.026  -0.448   2.373  0.9920  0.3125 -1.0828
  167MOL0     H22530   6.244  -0.405   2.483  1.5003  1.8504  1.7681
  167MOL0     H22531   8.220  -0.239   2.569  1.9729 -0.6846 -0.1516
  167MOL0     H22532   8.464  -0.240   2.525 -2.2424 -0.7234  0.9487
  167MOL0     H22533   8.745  -0.249   2.540  0.7993 -1.8200 -0.2016
  167MOL0     H22534   8.964  -0.385   2.525  3.5717 -0.1906  0.0181
  167MOL0     H22535   9.311  -0.182   2.531  0.6292 -0.6725 -0.1993
  167MOL0     H22536   9.360  -0.235   2.695  0.6475 -1.8021  0.2248
  167MOL0     H22537   9.416  -0.456   2.615 -2.1440  1.1624  1.4400
  167MOL0     H22538   9.513  -0.338   2.536  0.2575 -1.4305 -0.2771
  167MOL0     H22539   9.328  -0.350   2.343 -0.6005  0.8688  0.9883
  167MOL0     H22540   9.247  -0.474   2.430  0.2303 -0.1208  2.2767
  167MOL0     H22541   9.528  -0.493   2.320 -0.4950  0.1304  1.6208
  167MOL0     H22542   9.391  -0.580   2.262  0.7603  1.4440 -0.3693
  167MOL0     H22543   9.490  -0.835   2.579  0.9416  2.1098  1.7162
  167MOL0     H22544   9.180  -0.072   2.731  0.3394  1.2831 -1.1657
  167MOL0     H22545   8.974   0.071   2.723  1.3445  0.9034 -1.9449
  168MOL0     O22546   5.656   2.633  10.041 -0.6468 -0.0605 -0.2496
  168MOL0     C22547   5.728   2.730  10.021 -0.0790  0.6180  0.5645
  168MOL0     O22548   5.702   2.857  10.054  0.1199 -0.8713  0.4708
  168MOL0     C22549   5.585   2.874  10.132  0.7070  0.0091 -0.6090
  168MOL0     C22550   5.459   2.826  10.095 -0.4235 -0.3060 -0.4200
  168MOL0     C22551   5.353   2.826  10.179 -0.1526 -1.0868  0.0604
  168MOL0     C22552   5.359   2.909  10.297  0.7298  0.1721  0.8118
  168MOL0     O22553   5.238   2.911  10.368 -0.8543  0.3809  0.2333
  168MOL0     C22554   5.240   2.940  10.505 -0.5775 -0.9703  0.6302
  168MOL0     C22555   5.119   2.866  10.573 -0.7485  0.6695 -0.9418
  168MOL0     C22556   4.981   2.929  10.540 -0.5594  0.0988  0.2278
  168MOL0     C22557   4.873   2.842  10.597  0.0819 -0.3648  0.9080
  168MOL0     C22558   4.730   2.896  10.582  0.2640 -0.0681 -0.0995
  168MOL0     C22559   4.664   2.886  10.450  0.0270 -0.0457  0.6885
  168MOL0     C22560   4.518   2.925  10.439 -0.6884 -0.0159  0.7209
  168MOL0     C22561   4.481   2.906  10.291  0.2627  0.4651 -0.4114
  168MOL0     N22562   4.342   2.953  10.277  0.1759 -0.6531  0.1044
  168MOL0     C22563   4.237   2.869  10.269 -0.1827 -0.3955  0.0551
  168MOL0     C22564   4.121   2.957  10.267 -0.8556 -0.0031 -0.4674
  168MOL0     C22565   3.977   2.923  10.266  0.2852 -0.1941 -0.3644
  168MOL0     C22566   3.922   2.917  10.126  0.3864  0.0031 -0.1714
  168MOL0     C22567   3.771   2.881  10.138 -0.9713  0.2184  0.7853
  168MOL0     C22568   3.686   2.926  10.017  0.1112  0.6550 -0.4825
  168MOL0     O22569   3.691   2.827   9.908 -0.6564  0.0207 -0.4176
  168MOL0     C22570   3.622   2.856   9.794  0.1494  0.4335 -0.1807
  168MOL0     C22571   3.552   2.972   9.765  0.2630 -0.1866  0.0485
  168MOL0     C22572   3.456   2.982   9.659 -1.1252 -0.6816  0.3741
  168MOL0     C22573   3.381   3.112   9.645  0.0834  0.1121 -0.6589
  168MOL0     C22574   3.450   2.876   9.570  0.4894  0.2372 -0.0931
  168MOL0     C22575   3.368   2.885   9.445 -0.2402  0.0192 -0.6673
  168MOL0     O22576   3.351   2.771   9.378  0.0091  0.2775  0.1844
  168MOL0     C22577   3.261   2.757   9.271 -0.1773 -0.5968 -0.2979
  168MOL0     C22578   3.252   2.854   9.166  1.5835 -0.0541  0.5805
  168MOL0     C22579   3.165   2.827   9.060 -0.1814 -0.0841  0.3622
  168MOL0     C22580   3.081   2.711   9.060 -0.0504 -0.8671  1.3355
  168MOL0     O22581   2.991   2.693   8.954 -0.9779 -0.0699  0.6643
  168MOL0     C22582   2.900   2.584   8.951  0.1414 -0.0101 -0.2542
  168MOL0     C22583   2.800   2.602   8.840  0.4067  0.1704  0.5000
  168MOL0     C22584   2.857   2.633   8.703 -0.8508  0.4036 -0.0681
  168MOL0     C22585   2.971   2.546   8.643  1.0695  0.6886 -0.7390
  168MOL0     C22586   3.057   2.614   8.542 -0.7663 -0.0434  0.9422
  168MOL0     C22587   3.182   2.680   8.607  0.3400  0.4269 -0.0623
  168MOL0     C22588   3.260   2.771   8.513 -0.0428 -0.0093  0.2457
  168MOL0     C22589   3.319   2.895   8.580 -0.3817 -0.1592  0.8506
  168MOL0    Cl22590   3.425   2.845   8.713  0.3342 -0.2450 -0.4483
  168MOL0     C22591   3.093   2.616   9.164  0.1190  0.1939 -0.7970
  168MOL0     C22592   3.179   2.643   9.272 -0.0749  0.4800  0.3314
  168MOL0     O22593   3.324   2.992   9.404  0.4987  0.3449 -0.2223
  168MOL0     C22594   3.510   2.748   9.607 -0.2283  0.1176 -0.2913
  168MOL0     C22595   3.596   2.741   9.715  0.4023 -0.3706  0.1417
  168MOL0     N22596   4.166   3.091  10.270  0.0259 -0.2012 -0.0755
  168MOL0     N22597   4.297   3.083  10.280  0.3345  0.7356 -0.3419
  168MOL0     C22598   5.479   2.968  10.333 -0.1784  0.3419 -0.7021
  168MOL0     C22599   5.594   2.947  10.253  0.7432  0.2143 -0.1110
  168MOL0     C22600   5.861   2.685   9.976 -0.1550 -0.0196 -0.5751
  168MOL0     C22601   5.971   2.769  10.003 -0.9763  0.2034  0.4220
  168MOL0     C22602   6.098   2.724   9.977 -0.1732 -0.0076 -0.2667
  168MOL0     C22603   6.129   2.602   9.919 -0.1453 -0.3399 -1.0956
  168MOL0     O22604   6.256   2.550   9.912 -0.0526  0.2598  0.1222
  168MOL0     C22605   6.357   2.629   9.977  0.5287 -0.5047 -0.3364
  168MOL0     C22606   6.489   2.570   9.941 -0.2210 -0.5216  0.4679
  168MOL0     C22607   6.605   2.637  10.025 -0.4316 -0.8508 -0.5454
  168MOL0     C22608   6.744   2.641   9.963  0.0511 -0.2375 -0.3557
  168MOL0     C22609   6.747   2.721   9.838 -0.5533  0.7624  0.2916
  168MOL0     C22610   6.755   2.799   9.747  0.4010 -0.4090 -0.7663
  168MOL0     C22611   6.026   2.519   9.890  0.3050  0.5014  0.3824
  168MOL0     C22612   5.889   2.563   9.913 -0.0334 -0.5221 -0.0449
  168MOL0     H22613   5.444   2.773  10.001 -0.1596  1.6444 -1.6063
  168MOL0     H22614   5.257   2.793  10.139 -0.4584  1.1880 -1.2624
  168MOL0     H22615   5.336   2.912  10.550 -0.1171 -0.2070  0.1381
  168MOL0     H22616   5.230   3.048  10.515 -0.7682 -1.0256  1.0588
  168MOL0     H22617   5.128   2.762  10.541  0.3438  0.5926 -0.4114
  168MOL0     H22618   5.136   2.866  10.681 -0.9637  0.0505 -0.9020
  168MOL0     H22619   4.980   3.018  10.603  0.1703  0.1334  0.2013
  168MOL0     H22620   4.964   2.941  10.432 -1.2545 -2.2204  0.0187
  168MOL0     H22621   4.878   2.753  10.533 -0.6353  1.1101 -1.3430
  168MOL0     H22622   4.886   2.806  10.699 -2.0229 -0.3314  1.2206
  168MOL0     H22623   4.676   2.835  10.655  0.1524  1.2628  0.9775
  168MOL0     H22624   4.722   3.000  10.615  3.7997  0.6388 -1.0541
  168MOL0     H22625   4.722   2.950  10.383 -1.9235 -0.6077 -1.6712
  168MOL0     H22626   4.669   2.782  10.416 -0.1429  0.2822 -0.3741
  168MOL0     H22627   4.461   2.858  10.504 -0.7787  0.4987  1.1818
  168MOL0     H22628   4.514   3.030  10.472  1.0943  1.0119 -1.9702
  168MOL0     H22629   4.479   2.803  10.254 -3.6057  0.6111 -1.0514
  168MOL0     H22630   4.540   2.959  10.216 -0.7110 -1.2419 -2.4992
  168MOL0     H22631   4.223   2.762  10.283 -1.1339 -0.1257  1.3557
  168MOL0     H22632   3.967   2.821  10.304 -1.7119  1.2909  3.8043
  168MOL0     H22633   3.919   2.986  10.334 -0.6751 -1.5637  0.1400
  168MOL0     H22634   3.984   2.842  10.077  0.9851  1.3235 -1.5319
  168MOL0     H22635   3.935   3.008  10.068  2.6410 -0.8373 -1.0688
  168MOL0     H22636   3.736   2.918  10.235 -2.2426 -1.8298  1.1633
  168MOL0     H22637   3.756   2.773  10.138 -4.8475  0.6317  1.5973
  168MOL0     H22638   3.706   3.030   9.989 -0.3875  0.8819 -0.0157
  168MOL0     H22639   3.582   2.915  10.048 -1.0320 -2.4099 -4.5944
  168MOL0     H22640   3.570   3.061   9.824  0.9685 -0.0087 -0.4160
  168MOL0     H22641   3.399   3.177   9.559 -3.5465 -1.2042 -2.6466
  168MOL0     H22642   3.273   3.100   9.632 -0.0874  0.0457  0.7120
  168MOL0     H22643   3.392   3.179   9.730 -1.5513  0.1116 -0.4066
  168MOL0     H22644   3.317   2.940   9.173  1.6079 -0.1726  2.1091
  168MOL0     H22645   3.168   2.883   8.967  0.1067  0.7046  0.8430
  168MOL0     H22646   2.960   2.494   8.933 -0.1369  0.2913 -3.3802
  168MOL0     H22647   2.852   2.560   9.046  0.1318  0.1917 -0.2075
  168MOL0     H22648   2.747   2.507   8.834 -0.5352  0.1983  4.9002
  168MOL0     H22649   2.723   2.674   8.867 -0.9082 -1.1849  0.5014
  168MOL0     H22650   2.889   2.737   8.713  1.7262 -0.2731 -0.6658
  168MOL0     H22651   2.777   2.629   8.628  0.5708  2.5731 -1.8304
  168MOL0     H22652   3.034   2.495   8.717 -2.7207 -2.3734  0.7214
  168MOL0     H22653   2.921   2.466   8.586  0.5427  1.8663 -1.9830
  168MOL0     H22654   3.003   2.688   8.482  0.6232  0.6715  0.5157
  168MOL0     H22655   3.102   2.540   8.474 -1.1287  0.9100 -0.3871
  168MOL0     H22656   3.141   2.729   8.696  1.4356 -1.0562  1.3250
  168MOL0     H22657   3.249   2.604   8.649  2.0714  0.8151 -1.9203
  168MOL0     H22658   3.206   2.792   8.420 -1.3082  0.6202  1.0947
  168MOL0     H22659   3.350   2.721   8.478  1.7660  3.5621 -0.6787
  168MOL0     H22660   3.238   2.960   8.615  0.7518  0.3063  2.7412
  168MOL0     H22661   3.372   2.961   8.511 -3.6622 -1.5601 -3.4010
  168MOL0     H22662   3.038   2.523   9.160  0.2774  0.1317 -2.7735
  168MOL0     H22663   3.184   2.573   9.355  1.8348 -1.0790 -0.9985
  168MOL0     H22664   3.498   2.657   9.549  4.2480 -0.6901 -0.3296
  168MOL0     H22665   3.634   2.640   9.726  0.5494 -0.1198  2.1847
  168MOL0     H22666   5.491   3.033  10.419  1.9070 -1.5799  0.5886
  168MOL0     H22667   5.689   2.991  10.282 -0.3026  2.0731  0.6966
  168MOL0     H22668   5.952   2.873  10.028 -1.8826  0.4939 -1.3144
  168MOL0     H22669   6.174   2.796  10.002  1.7038 -2.0952  0.3797
  168MOL0     H22670   6.353   2.733   9.945  1.9000  0.1765  1.5141
  168MOL0     H22671   6.351   2.638  10.086  0.8080  3.1864 -0.4901
  168MOL0     H22672   6.508   2.580   9.833 -0.5136  0.1589  0.4733
  168MOL0     H22673   6.491   2.466   9.975  0.6824 -0.3386  1.0071
  168MOL0     H22674   6.612   2.588  10.122  0.5424 -1.2154 -0.7892
  168MOL0     H22675   6.580   2.742  10.042  1.7894  0.2588 -3.2633
  168MOL0     H22676   6.761   2.534   9.947 -2.5586 -0.6862 -0.5950
  168MOL0     H22677   6.816   2.678  10.037  0.3808 -1.3611 -0.0901
  168MOL0     H22678   6.772   2.877   9.676 -2.1048  1.7413  0.8399
  168MOL0     H22679   6.048   2.419   9.854  0.1016 -0.7248  3.3267
  168MOL0     H22680   5.813   2.491   9.885 -0.0391 -0.3179 -0.5599
  169MOL0     O22681   2.786   9.724   5.176 -0.5149 -0.0195 -0.1013
  169MOL0     C22682   2.773   9.693   5.294  0.3004 -0.9336 -0.2587
  169MOL0     O22683   2.653   9.690   5.359  0.3838 -0.2368  0.0811
  169MOL0     C22684   2.536   9.689   5.287 -0.4599  0.5593 -0.5630
  169MOL0     C22685   2.426   9.761   5.337  0.1741 -0.0398  0.3406
  169MOL0     C22686   2.306   9.763   5.265  0.8096 -0.0914 -0.0713
  169MOL0     C22687   2.291   9.677   5.153 -0.3594  0.2839  0.4416
  169MOL0     O22688   2.177   9.653   5.074 -0.1013 -0.1741 -0.3019
  169MOL0     C22689   2.069   9.740   5.084  0.0226 -0.1533  0.9267
  169MOL0     C22690   1.963   9.687   4.992 -0.5799 -0.4266 -0.3379
  169MOL0     C22691   1.860   9.783   4.956 -0.5173 -1.1287 -0.2355
  169MOL0     C22692   1.766   9.725   4.840  0.1956 -0.0816 -0.0688
  169MOL0     C22693   1.644   9.815   4.819 -0.2578  0.5294  0.4992
  169MOL0     C22694   1.681   9.944   4.754  0.1094 -1.1308  0.8869
  169MOL0     C22695   1.558  10.028   4.722  0.7704  0.2876  0.2211
  169MOL0     C22696   1.473   9.971   4.609  0.0509  0.5507  0.1219
  169MOL0     N22697   1.337  10.033   4.592 -0.6724  0.0645  0.5417
  169MOL0     C22698   1.236  10.023   4.682 -0.1353 -0.2245 -0.3155
  169MOL0     C22699   1.128  10.067   4.613  0.3887 -0.2003 -0.4426
  169MOL0     C22700   0.999  10.077   4.689  0.1893 -0.3360 -0.5881
  169MOL0     C22701   0.974  10.226   4.721 -0.9823  0.0323 -0.4885
  169MOL0     C22702   0.843  10.252   4.802  0.8465 -0.8861  0.7114
  169MOL0     C22703   0.724  10.234   4.713  1.0615 -0.4100 -0.3880
  169MOL0     O22704   0.604  10.265   4.795  0.0240  0.0815  0.0318
  169MOL0     C22705   0.479  10.288   4.729  0.2272  0.4330  1.0849
  169MOL0     C22706   0.376  10.342   4.801  0.0270  0.2273  0.7599
  169MOL0     C22707   0.253  10.376   4.747  0.2557  0.0562  0.1382
  169MOL0     C22708   0.141  10.435   4.845  0.6004 -0.7647  0.2766
  169MOL0     C22709   0.236  10.357   4.607 -0.6029  0.1704  0.3568
  169MOL0     C22710   0.113  10.395   4.537  0.3164  0.6205 -0.1769
  169MOL0     O22711   0.029  10.494   4.582 -0.4207 -0.7339 -0.5513
  169MOL0     C22712  -0.100  10.517   4.538 -0.1848  0.4772  0.3951
  169MOL0     C22713  -0.187  10.420   4.474 -0.3262  0.1092 -0.0066
  169MOL0     C22714  -0.325  10.444   4.457  0.1279  0.2044 -0.2121
  169MOL0     C22715  -0.373  10.578   4.486 -0.6147 -1.0646 -0.4883
  169MOL0     O22716  -0.502  10.611   4.465 -0.7846  0.0796 -0.8126
  169MOL0     C22717  -0.584  10.535   4.379  0.0498 -0.3729  0.6530
  169MOL0     C22718  -0.698  10.622   4.321 -0.7991  0.6678 -0.3783
  169MOL0     C22719  -0.797  10.528   4.244 -0.6358  0.2389 -1.1097
  169MOL0     C22720  -0.919  10.621   4.214  0.6220 -0.5441  0.5234
  169MOL0     C22721  -1.013  10.536   4.121 -0.3820 -0.2649 -0.2539
  169MOL0     C22722  -1.146  10.602   4.092 -0.2548 -0.0387 -0.1209
  169MOL0     C22723  -1.238  10.590   4.213  0.2029 -0.2373  0.3412
  169MOL0     C22724  -1.377  10.645   4.167  0.0464  0.1008 -0.1307
  169MOL0    Cl22725  -1.497  10.530   4.095  0.0250 -0.4286 -0.2313
  169MOL0     C22726  -0.281  10.668   4.544  0.2279  0.2945 -0.3411
  169MOL0     C22727  -0.149  10.633   4.572 -0.3395  0.2053  0.5846
  169MOL0     O22728   0.100  10.335   4.425  0.6121 -0.3856  0.1852
  169MOL0     C22729   0.344  10.306   4.532 -0.8080 -0.2957  1.1085
  169MOL0     C22730   0.470  10.272   4.586 -0.0127  0.1025 -0.3478
  169MOL0     N22731   1.174  10.125   4.497  0.4508  0.1446 -0.2429
  169MOL0     N22732   1.306  10.093   4.480  0.9437 -0.3674 -0.4425
  169MOL0     C22733   2.397   9.599   5.112  0.0643 -0.5052  0.2927
  169MOL0     C22734   2.523   9.613   5.175 -0.0061 -0.6933  0.6045
  169MOL0     C22735   2.902   9.687   5.375  0.3410 -0.7331  0.8274
  169MOL0     C22736   3.023   9.691   5.309 -0.4408  0.4474  0.1904
  169MOL0     C22737   3.149   9.685   5.370 -0.7457  0.2973 -0.5338
  169MOL0     C22738   3.158   9.653   5.508 -0.7196 -0.0863  0.0740
  169MOL0     O22739   3.280   9.652   5.570 -0.7676 -0.0380  0.5283
  169MOL0     C22740   3.313   9.556   5.676  0.2709 -0.2287 -0.3078
  169MOL0     C22741   3.347   9.426   5.619 -0.3542  0.2344  0.1116
  169MOL0     C22742   3.489   9.441   5.552 -0.2119  0.7022 -0.5623
  169MOL0     C22743   3.564   9.304   5.561 -0.7299 -0.0501 -0.5935
  169MOL0     C22744   3.531   9.203   5.452  1.0544 -0.1860 -0.1793
  169MOL0     C22745   3.504   9.117   5.371 -0.3007 -0.5912 -0.1608
  169MOL0     C22746   3.035   9.645   5.574  0.4497 -0.7067 -0.0783
  169MOL0     C22747   2.904   9.660   5.513 -0.1254 -0.0875  0.8701
  169MOL0     H22748   2.444   9.821   5.426  2.8709  0.8718 -0.7041
  169MOL0     H22749   2.224   9.830   5.289  1.9133  1.0535  0.6139
  169MOL0     H22750   2.031   9.753   5.186  0.4261 -1.2516  1.2265
  169MOL0     H22751   2.103   9.843   5.068  1.4558 -0.3982  2.1620
  169MOL0     H22752   2.013   9.654   4.901 -1.0764  0.7349 -1.0496
  169MOL0     H22753   1.914   9.601   5.040  1.0183  0.5333  3.3785
  169MOL0     H22754   1.800   9.816   5.042  2.6178  6.3455 -0.1590
  169MOL0     H22755   1.916   9.870   4.922  0.4609 -0.3685  3.0079
  169MOL0     H22756   1.816   9.731   4.743 -1.0151  3.2989 -0.6448
  169MOL0     H22757   1.741   9.622   4.866  0.6396 -1.2219 -3.6309
  169MOL0     H22758   1.574   9.769   4.749  2.3312 -1.4532 -0.9790
  169MOL0     H22759   1.583   9.824   4.910  0.2546  0.9997  0.7984
  169MOL0     H22760   1.745  10.002   4.821 -0.5775  1.8008 -0.8183
  169MOL0     H22761   1.741   9.937   4.663  0.6082  2.4854  0.7921
  169MOL0     H22762   1.502  10.028   4.816 -0.1474  1.0116 -0.3108
  169MOL0     H22763   1.576  10.135   4.709 -0.0860  0.5540  1.0634
  169MOL0     H22764   1.455   9.865   4.623  3.0651 -0.1269 -0.4325
  169MOL0     H22765   1.524   9.981   4.512 -1.1664 -0.2537 -0.6172
  169MOL0     H22766   1.244   9.984   4.782  0.7263 -0.6531 -0.5423
  169MOL0     H22767   0.914  10.048   4.626 -2.1549 -1.9889  3.0003
  169MOL0     H22768   0.993  10.015   4.779 -2.7355 -2.4920 -2.1039
  169MOL0     H22769   0.981  10.298   4.638 -4.9390  0.0540 -0.9755
  169MOL0     H22770   1.056  10.254   4.787  0.7075 -0.8950 -2.0871
  169MOL0     H22771   0.853  10.358   4.828  0.3698 -0.2100 -1.6282
  169MOL0     H22772   0.832  10.192   4.892 -2.0609 -2.3567 -0.4959
  169MOL0     H22773   0.729  10.138   4.662  2.7486 -0.6684  0.2049
  169MOL0     H22774   0.739  10.306   4.632 -3.5332 -2.2083 -3.2353
  169MOL0     H22775   0.403  10.376   4.900  1.2847 -1.8735  1.2122
  169MOL0     H22776   0.146  10.543   4.823  2.2846 -0.7472  0.5442
  169MOL0     H22777   0.047  10.396   4.807  1.1817 -1.9549  0.0075
  169MOL0     H22778   0.142  10.414   4.952 -2.4970  0.5348  0.6654
  169MOL0     H22779  -0.155  10.319   4.449 -1.6280 -0.7425  1.5865
  169MOL0     H22780  -0.391  10.364   4.425  0.3939  0.0854 -0.4674
  169MOL0     H22781  -0.530  10.488   4.296 -2.2998 -1.1028 -0.5509
  169MOL0     H22782  -0.622  10.451   4.439 -0.8044  0.4183  1.2490
  169MOL0     H22783  -0.752  10.674   4.401 -1.0479  0.3454 -0.3287
  169MOL0     H22784  -0.658  10.700   4.256 -0.8945  1.2003  0.1892
  169MOL0     H22785  -0.841  10.440   4.292  2.5012 -2.1679 -2.2343
  169MOL0     H22786  -0.745  10.499   4.152  1.2890  0.5271 -0.1726
  169MOL0     H22787  -0.973  10.651   4.304 -2.6474 -0.7146 -1.2501
  169MOL0     H22788  -0.891  10.722   4.181 -2.6966  0.8820  1.6391
  169MOL0     H22789  -1.022  10.438   4.168  1.1477 -0.1135  0.4184
  169MOL0     H22790  -0.956  10.523   4.028 -0.6679  0.5173 -0.5411
  169MOL0     H22791  -1.122  10.702   4.055  4.1871 -0.8922 -0.1350
  169MOL0     H22792  -1.193  10.543   4.012 -1.1764  2.0829 -1.2107
  169MOL0     H22793  -1.198  10.652   4.294 -1.8894 -1.3593  2.3657
  169MOL0     H22794  -1.244  10.490   4.258 -1.3944 -0.6840 -0.7841
  169MOL0     H22795  -1.364  10.715   4.084 -0.1537 -0.4212 -0.6099
  169MOL0     H22796  -1.417  10.694   4.256  0.8678 -3.8838  2.7052
  169MOL0     H22797  -0.316  10.768   4.567  0.2532  0.0567  0.7922
  169MOL0     H22798  -0.086  10.712   4.611  0.4230  0.3289 -0.8143
  169MOL0     H22799   0.337  10.296   4.424 -0.5216 -2.7407  1.2413
  169MOL0     H22800   0.543  10.219   4.526  1.9157 -1.1906  2.9098
  169MOL0     H22801   2.391   9.538   5.022 -0.2484 -0.3238  0.1874
  169MOL0     H22802   2.604   9.547   5.147 -2.3516 -3.7670  0.4967
  169MOL0     H22803   3.022   9.710   5.202  0.9766  0.3260  0.1361
  169MOL0     H22804   3.234   9.707   5.305 -0.6749  1.0994 -0.1745
  169MOL0     H22805   3.400   9.586   5.733  0.0884 -0.2550 -0.0153
  169MOL0     H22806   3.232   9.537   5.746 -0.9978  3.0452 -0.6950
  169MOL0     H22807   3.275   9.391   5.544  2.3655  1.0741 -3.1781
  169MOL0     H22808   3.344   9.352   5.700  1.5663  3.0463  2.9844
  169MOL0     H22809   3.543   9.516   5.609 -0.2253  0.4637 -0.2299
  169MOL0     H22810   3.473   9.474   5.449  4.6637 -0.7028 -2.0167
  169MOL0     H22811   3.543   9.259   5.658  1.1623 -1.4439 -0.7808
  169MOL0     H22812   3.671   9.322   5.554 -0.7919  0.5319 -0.1336
  169MOL0     H22813   3.478   9.031   5.314 -1.2984 -1.3392  1.3522
  169MOL0     H22814   3.042   9.622   5.679 -2.1410 -0.1515  0.3037
  169MOL0     H22815   2.818   9.650   5.578  0.1801  0.4455  1.3648
  170MOL0     O22816   8.585   2.108   5.385  0.0747 -0.0373  0.0330
  170MOL0     C22817   8.642   2.214   5.423  0.9348  0.0033 -0.3291
  170MOL0     O22818   8.585   2.343   5.426  0.4578 -0.1392 -0.0333
  170MOL0     C22819   8.451   2.362   5.409 -0.7634  0.0468 -0.1058
  170MOL0     C22820   8.403   2.465   5.329  0.3426  0.3904  0.0420
  170MOL0     C22821   8.267   2.477   5.299 -0.1530  0.7958 -0.1596
  170MOL0     C22822   8.171   2.389   5.354 -0.3580 -0.3563 -0.4125
  170MOL0     O22823   8.036   2.387   5.331  0.7698  0.5592  0.1552
  170MOL0     C22824   7.992   2.442   5.205  1.3184  0.9877  0.1733
  170MOL0     C22825   7.840   2.404   5.195  0.0353  0.4001  0.2954
  170MOL0     C22826   7.771   2.461   5.075 -0.2858 -0.0398  0.1920
  170MOL0     C22827   7.628   2.421   5.075 -0.2946  0.3321  0.0930
  170MOL0     C22828   7.550   2.518   4.987 -0.3156 -0.0288 -0.3105
  170MOL0     C22829   7.400   2.505   4.990  0.3987  0.1100 -0.8079
  170MOL0     C22830   7.351   2.614   4.896 -0.8513 -0.3039 -0.1613
  170MOL0     C22831   7.197   2.618   4.878  0.3377  0.2208 -0.0561
  170MOL0     N22832   7.130   2.490   4.835 -0.7094  0.7076 -0.4866
  170MOL0     C22833   7.152   2.429   4.713  1.0592 -0.0179  0.4740
  170MOL0     C22834   7.057   2.326   4.708  0.4397 -0.2147  0.1015
  170MOL0     C22835   7.041   2.247   4.590 -0.0940 -0.2370  0.3215
  170MOL0     C22836   6.897   2.248   4.545 -0.3203  0.1839  0.2351
  170MOL0     C22837   6.875   2.169   4.417 -0.5499 -0.1178 -0.4621
  170MOL0     C22838   6.736   2.154   4.363 -0.6251 -0.5111 -0.1975
  170MOL0     O22839   6.680   2.278   4.343  0.3942 -0.0992 -0.1313
  170MOL0     C22840   6.544   2.293   4.341 -0.0756  0.3887 -0.1563
  170MOL0     C22841   6.453   2.188   4.324 -0.1414  0.4039  0.5959
  170MOL0     C22842   6.313   2.214   4.316 -0.3614  0.5602 -0.0191
  170MOL0     C22843   6.228   2.088   4.330  0.2914  1.1871 -0.2463
  170MOL0     C22844   6.264   2.354   4.330  0.1543 -0.1421 -0.3409
  170MOL0     C22845   6.123   2.392   4.319 -0.0212  0.9373 -0.3533
  170MOL0     O22846   6.041   2.305   4.252  0.1269 -0.2627  0.7765
  170MOL0     C22847   5.910   2.327   4.237  0.3555 -0.1343 -0.2017
  170MOL0     C22848   5.810   2.248   4.305 -0.3976 -0.1743  0.7274
  170MOL0     C22849   5.675   2.287   4.308  0.5294  0.1066  0.1217
  170MOL0     C22850   5.623   2.383   4.222 -0.4451 -0.4498 -0.6217
  170MOL0     O22851   5.486   2.405   4.223  0.4319  0.2637 -0.8163
  170MOL0     C22852   5.422   2.440   4.100  0.5128  0.0276  0.1757
  170MOL0     C22853   5.269   2.435   4.126  0.2720  0.0879  1.5561
  170MOL0     C22854   5.196   2.524   4.032 -0.1353  0.0070  0.3356
  170MOL0     C22855   5.049   2.529   4.072 -0.3627  0.3841 -0.0496
  170MOL0     C22856   4.974   2.637   3.993  0.7999 -0.2454  0.5351
  170MOL0     C22857   4.824   2.632   4.008 -0.2082 -0.0136 -0.0348
  170MOL0     C22858   4.762   2.766   3.976  0.8031 -0.2491 -0.2515
  170MOL0     C22859   4.615   2.748   4.007 -0.0998  0.0078 -0.6602
  170MOL0    Cl22860   4.519   2.884   3.953  0.2731  0.5979  0.0304
  170MOL0     C22861   5.722   2.450   4.137  0.1902  0.5709 -0.1401
  170MOL0     C22862   5.859   2.422   4.155  0.4596  1.0473 -0.9859
  170MOL0     O22863   6.091   2.498   4.362  0.5177 -0.1427  0.3025
  170MOL0     C22864   6.361   2.455   4.348 -0.0831  0.2964  0.1638
  170MOL0     C22865   6.501   2.420   4.351 -0.3599 -0.0795 -1.0075
  170MOL0     N22866   6.987   2.328   4.831  1.5789 -0.5742 -0.1209
  170MOL0     N22867   7.040   2.417   4.906  0.0450 -0.6780 -0.2255
  170MOL0     C22868   8.223   2.294   5.445 -0.3486  0.4403  0.1385
  170MOL0     C22869   8.355   2.289   5.485 -0.5630  0.1050  0.1186
  170MOL0     C22870   8.783   2.212   5.464 -0.3628  0.1862  0.4722
  170MOL0     C22871   8.842   2.329   5.523  0.0631 -0.4416 -0.3376
  170MOL0     C22872   8.970   2.335   5.571 -0.4373  0.7609 -0.6493
  170MOL0     C22873   9.048   2.216   5.553 -0.2188 -0.4836  0.0287
  170MOL0     O22874   9.181   2.196   5.587  0.1506  0.2094 -0.0789
  170MOL0     C22875   9.258   2.313   5.573 -0.1095 -0.2415  0.1439
  170MOL0     C22876   9.403   2.274   5.574  0.3042  0.6556  0.4766
  170MOL0     C22877   9.427   2.160   5.473 -0.0922  0.7557 -0.0154
  170MOL0     C22878   9.390   2.197   5.324 -1.2651  0.1559 -0.6020
  170MOL0     C22879   9.463   2.310   5.264  0.4120  0.0757 -0.6406
  170MOL0     C22880   9.534   2.393   5.204 -0.5250  0.1132  0.1021
  170MOL0     C22881   9.001   2.105   5.480  0.7458  0.7235  0.0950
  170MOL0     C22882   8.870   2.096   5.434  0.6280  0.7840 -0.7324
  170MOL0     H22883   8.469   2.542   5.290 -0.7321  0.7941 -1.0422
  170MOL0     H22884   8.239   2.558   5.233 -0.6305  0.5839 -0.2260
  170MOL0     H22885   8.005   2.551   5.198  1.2078  0.9716 -0.3567
  170MOL0     H22886   8.045   2.396   5.121 -1.0275  0.1599 -0.9481
  170MOL0     H22887   7.820   2.297   5.206 -3.4464  0.7760 -1.2288
  170MOL0     H22888   7.789   2.443   5.283  0.1404 -0.2437  0.6564
  170MOL0     H22889   7.780   2.570   5.078  0.6529 -0.1365  1.8457
  170MOL0     H22890   7.811   2.427   4.979 -3.8328 -0.7750 -1.1909
  170MOL0     H22891   7.613   2.318   5.042  2.3059  0.4004 -1.5111
  170MOL0     H22892   7.578   2.424   5.173  1.3750 -1.1661  1.0421
  170MOL0     H22893   7.565   2.622   5.020 -1.6555 -0.1022  0.6298
  170MOL0     H22894   7.581   2.507   4.883 -1.0571 -1.3268 -0.4067
  170MOL0     H22895   7.378   2.400   4.970 -0.2632 -0.1880  1.2062
  170MOL0     H22896   7.360   2.510   5.092  1.7129 -1.7107 -0.1548
  170MOL0     H22897   7.384   2.714   4.925 -1.0428  0.5859 -2.7270
  170MOL0     H22898   7.395   2.602   4.796  1.1262  3.0142  0.1534
  170MOL0     H22899   7.163   2.689   4.802 -1.7194 -0.2069  0.3936
  170MOL0     H22900   7.161   2.648   4.976 -0.3242  0.6102 -0.4134
  170MOL0     H22901   7.219   2.455   4.632  2.2798  0.1472  1.5089
  170MOL0     H22902   7.109   2.284   4.513 -0.7502 -1.9986 -1.1975
  170MOL0     H22903   7.075   2.147   4.620  0.5148  0.4221  1.9268
  170MOL0     H22904   6.874   2.354   4.531 -6.7214 -0.4353  2.6479
  170MOL0     H22905   6.827   2.217   4.624 -0.2339  2.5447  1.3177
  170MOL0     H22906   6.910   2.068   4.442  0.0132  0.3933  0.8618
  170MOL0     H22907   6.946   2.200   4.339  1.8919 -1.3674  1.1336
  170MOL0     H22908   6.679   2.086   4.427  0.7714  0.1106  1.7968
  170MOL0     H22909   6.743   2.108   4.264  4.4340  0.0960 -0.3730
  170MOL0     H22910   6.472   2.082   4.311 -2.6379  0.0088 -0.5607
  170MOL0     H22911   6.119   2.095   4.333 -0.0092 -1.9470 -0.0337
  170MOL0     H22912   6.242   2.017   4.248 -0.2720 -0.1613  0.7826
  170MOL0     H22913   6.254   2.043   4.427 -0.5950 -1.0787 -0.9988
  170MOL0     H22914   5.852   2.168   4.364  1.8457 -0.3726 -1.0377
  170MOL0     H22915   5.608   2.245   4.382  1.4404  3.9072  3.4458
  170MOL0     H22916   5.450   2.534   4.053 -0.0244 -1.1542 -2.6992
  170MOL0     H22917   5.436   2.366   4.021 -0.1981 -1.8899  1.7371
  170MOL0     H22918   5.234   2.333   4.110  2.8089 -0.5393 -0.9360
  170MOL0     H22919   5.242   2.455   4.230 -1.7120  0.6978  0.9603
  170MOL0     H22920   5.210   2.492   3.929 -2.5611 -0.3206  0.0471
  170MOL0     H22921   5.248   2.619   4.043 -0.6245  0.1456  1.6313
  170MOL0     H22922   5.014   2.425   4.066 -1.1598  0.0747  5.1813
  170MOL0     H22923   5.049   2.558   4.177 -0.6821 -0.3703  0.1654
  170MOL0     H22924   5.001   2.630   3.888  1.7049  1.0274  0.6520
  170MOL0     H22925   4.997   2.737   4.031 -2.2682 -0.2435  2.7860
  170MOL0     H22926   4.783   2.551   3.947 -1.8639  0.1177  0.8378
  170MOL0     H22927   4.795   2.619   4.112 -2.1898 -0.1680 -0.5615
  170MOL0     H22928   4.773   2.798   3.871 -0.1244 -0.1116 -0.3168
  170MOL0     H22929   4.796   2.843   4.046 -0.7436 -0.1584  0.4434
  170MOL0     H22930   4.605   2.747   4.116  0.9735 -0.4289 -0.5585
  170MOL0     H22931   4.577   2.653   3.968  1.0515 -1.2498  1.0879
  170MOL0     H22932   5.690   2.525   4.064 -3.2212 -0.4939  0.1150
  170MOL0     H22933   5.929   2.482   4.099  0.3224  2.2941  0.1514
  170MOL0     H22934   6.332   2.559   4.351  0.1181  0.3620 -0.1327
  170MOL0     H22935   6.573   2.499   4.366  0.3438 -1.1806  2.0870
  170MOL0     H22936   8.151   2.224   5.485 -0.8939  2.4694  3.0052
  170MOL0     H22937   8.384   2.212   5.556  0.1234 -1.9282 -2.2167
  170MOL0     H22938   8.777   2.409   5.556 -0.6840 -0.9123 -0.6382
  170MOL0     H22939   9.015   2.415   5.628 -0.5243  1.0983 -1.0545
  170MOL0     H22940   9.243   2.367   5.479  3.1772 -1.8912 -1.4888
  170MOL0     H22941   9.232   2.381   5.654  0.4210 -1.3419  1.2700
  170MOL0     H22942   9.428   2.240   5.675  1.8567  1.0626  0.2651
  170MOL0     H22943   9.464   2.361   5.550 -2.2175  2.5603  0.5986
  170MOL0     H22944   9.361   2.078   5.501 -0.6121  0.5011 -1.8710
  170MOL0     H22945   9.534   2.138   5.474  0.5811  3.3606 -2.2109
  170MOL0     H22946   9.284   2.223   5.321 -1.2716  0.1998 -0.1203
  170MOL0     H22947   9.406   2.112   5.256  1.8990 -1.1106  1.4694
  170MOL0     H22948   9.584   2.480   5.168  2.4303 -1.6508 -0.4101
  170MOL0     H22949   9.077   2.027   5.478 -0.7077 -0.7342  0.1923
  170MOL0     H22950   8.831   2.008   5.384 -1.1296  0.3702  1.2371
  171MOL0     O22951   3.652   8.803   9.398 -0.1756  0.2742  0.4727
  171MOL0     C22952   3.724   8.889   9.444  0.0811  0.6955  0.2984
  171MOL0     O22953   3.699   8.962   9.557 -0.0735  0.0025  0.6618
  171MOL0     C22954   3.570   8.967   9.600 -0.1391 -0.3774  0.1687
  171MOL0     C22955   3.496   9.078   9.569  0.5765  0.0816 -0.9472
  171MOL0     C22956   3.369   9.091   9.629 -1.0075  0.5596 -0.9231
  171MOL0     C22957   3.314   8.994   9.708 -0.2090  0.7149 -0.0980
  171MOL0     O22958   3.178   9.015   9.737  0.3546  0.0556 -0.5999
  171MOL0     C22959   3.105   8.908   9.797 -1.2982  0.4804  0.1827
  171MOL0     C22960   2.952   8.939   9.806  0.0309  0.1273 -0.4429
  171MOL0     C22961   2.890   8.967   9.670  0.5771  0.1862  0.1750
  171MOL0     C22962   2.746   9.029   9.681 -0.0595 -0.3969 -0.5184
  171MOL0     C22963   2.693   9.076   9.542 -0.0560 -0.8887  0.3958
  171MOL0     C22964   2.548   9.085   9.519 -0.9887 -0.4957 -0.6220
  171MOL0     C22965   2.504   9.119   9.376 -0.2521 -0.2084  0.0231
  171MOL0     C22966   2.357   9.168   9.367  0.2504 -0.4424 -0.7479
  171MOL0     N22967   2.302   9.210   9.236 -0.0345 -0.7253  0.4007
  171MOL0     C22968   2.342   9.152   9.115  1.0532 -0.1867  0.2527
  171MOL0     C22969   2.260   9.203   9.028  0.2435 -0.1881  1.2078
  171MOL0     C22970   2.276   9.196   8.880 -0.1124 -0.8994  0.1501
  171MOL0     C22971   2.161   9.133   8.817 -0.1083  0.4943  0.3520
  171MOL0     C22972   2.034   9.227   8.800  0.7693  0.2629  0.7121
  171MOL0     C22973   1.917   9.160   8.730 -0.5445 -0.1470 -0.0996
  171MOL0     O22974   1.948   9.095   8.608 -0.4472  0.3416 -0.4712
  171MOL0     C22975   1.842   9.037   8.545  0.1484 -0.2221 -0.7242
  171MOL0     C22976   1.867   8.960   8.431 -0.2022  0.4348 -0.3274
  171MOL0     C22977   1.774   8.871   8.365  0.0894 -0.3094  0.6306
  171MOL0     C22978   1.829   8.771   8.258  0.3045  0.0020 -0.5364
  171MOL0     C22979   1.640   8.889   8.400 -0.9566  0.2531  0.0077
  171MOL0     C22980   1.529   8.809   8.346 -0.1170 -0.2819  0.1368
  171MOL0     O22981   1.410   8.863   8.364 -0.2250  0.2720  0.4000
  171MOL0     C22982   1.288   8.822   8.306 -0.1931 -0.2167  0.1057
  171MOL0     C22983   1.168   8.854   8.369  0.5729 -0.0320  0.6483
  171MOL0     C22984   1.047   8.814   8.317 -0.1381  0.9714 -0.3953
  171MOL0     C22985   1.034   8.723   8.208  0.9901 -0.1402 -0.7737
  171MOL0     O22986   0.920   8.661   8.162 -0.0241 -0.0613  0.0507
  171MOL0     C22987   0.800   8.730   8.177 -0.3539  0.3309 -0.0473
  171MOL0     C22988   0.686   8.655   8.117  0.0831  0.7015 -0.2858
  171MOL0     C22989   0.548   8.710   8.144  0.2299 -0.9767  0.0603
  171MOL0     C22990   0.444   8.628   8.073 -0.3110  0.0758  0.6747
  171MOL0     C22991   0.298   8.662   8.098 -0.0287 -0.4412 -0.6645
  171MOL0     C22992   0.233   8.777   8.011  0.0525  1.1300  0.1578
  171MOL0     C22993   0.081   8.800   8.035  0.6190  0.2936 -0.2205
  171MOL0     C22994   0.018   8.877   7.918 -0.0166  0.4715 -0.2385
  171MOL0    Cl22995  -0.000   8.764   7.783 -0.3796  0.0166  0.3196
  171MOL0     C22996   1.154   8.694   8.152 -1.2677  0.0028  0.6751
  171MOL0     C22997   1.280   8.737   8.194  0.4238 -0.3857  0.0006
  171MOL0     O22998   1.547   8.697   8.299 -0.5625  0.4014  0.5708
  171MOL0     C22999   1.611   8.965   8.517  0.5264  0.2283  0.1449
  171MOL0     C23000   1.708   9.035   8.588  0.1528 -0.3488  0.0329
  171MOL0     N23001   2.181   9.297   9.082  0.0500  0.1863 -0.2415
  171MOL0     N23002   2.201   9.292   9.212  0.9822 -1.0466  1.0579
  171MOL0     C23003   3.390   8.878   9.743  0.3666  0.0793 -1.3758
  171MOL0     C23004   3.520   8.868   9.687  0.1084 -0.4030 -0.3699
  171MOL0     C23005   3.848   8.915   9.362  0.3623 -0.2151  0.0458
  171MOL0     C23006   3.904   8.811   9.276  0.3203 -0.3545  0.4688
  171MOL0     C23007   4.029   8.829   9.219 -0.4954 -0.6213 -0.1203
  171MOL0     C23008   4.105   8.950   9.239 -0.3015  0.1056 -0.2143
  171MOL0     O23009   4.234   8.973   9.196  0.6701 -0.5749  0.0808
  171MOL0     C23010   4.331   8.870   9.235  0.2786 -0.1082  0.6190
  171MOL0     C23011   4.452   8.881   9.137 -0.3363  0.1487  0.2509
  171MOL0     C23012   4.523   9.023   9.136  0.9607  0.0124 -0.2934
  171MOL0     C23013   4.648   9.012   9.054  0.0132  0.6695  0.1870
  171MOL0     C23014   4.755   8.926   9.103 -0.6708  0.3431  0.3094
  171MOL0     C23015   4.848   8.855   9.140 -0.6616  0.2157  0.0107
  171MOL0     C23016   4.048   9.047   9.317 -0.5465 -0.1935 -0.2950
  171MOL0     C23017   3.927   9.033   9.381 -0.1793  0.1939 -0.1879
  171MOL0     H23018   3.553   9.155   9.518  1.2795  1.5305  1.8470
  171MOL0     H23019   3.314   9.183   9.609  1.6976  1.6961 -4.1164
  171MOL0     H23020   3.121   8.814   9.743  2.3248  0.2135  1.4269
  171MOL0     H23021   3.144   8.881   9.895  1.1264 -2.9042 -1.5060
  171MOL0     H23022   2.899   8.855   9.852  1.0047 -0.3808 -0.2242
  171MOL0     H23023   2.936   9.029   9.865 -1.3033  0.4749 -1.2874
  171MOL0     H23024   2.950   9.024   9.600 -0.1168 -0.9994 -1.4434
  171MOL0     H23025   2.877   8.872   9.618 -0.4427  1.7769 -2.6731
  171MOL0     H23026   2.681   8.953   9.726 -0.1666 -0.6668 -1.1134
  171MOL0     H23027   2.756   9.113   9.749 -0.0617 -0.3652 -0.5573
  171MOL0     H23028   2.731   9.173   9.511 -0.9857 -0.5315  0.3432
  171MOL0     H23029   2.724   9.000   9.469 -3.1929 -2.5740  0.6520
  171MOL0     H23030   2.506   8.996   9.568  0.6554  0.6484  3.2908
  171MOL0     H23031   2.512   9.170   9.578  0.2621  0.3874 -1.0934
  171MOL0     H23032   2.571   9.200   9.345 -0.9307  0.5032  0.3630
  171MOL0     H23033   2.512   9.028   9.316  1.1553 -1.4334  1.9705
  171MOL0     H23034   2.336   9.254   9.431 -3.6252 -1.5630 -0.2488
  171MOL0     H23035   2.289   9.095   9.412  0.0731  1.4441  2.3598
  171MOL0     H23036   2.420   9.082   9.089 -0.5419 -1.5135 -1.1358
  171MOL0     H23037   2.291   9.293   8.833  0.2606 -0.5841  0.9167
  171MOL0     H23038   2.357   9.124   8.865  0.0467 -0.9388  1.1446
  171MOL0     H23039   2.125   9.044   8.869 -2.6068  0.9658 -0.4435
  171MOL0     H23040   2.194   9.108   8.715  1.4270 -0.0187  0.9453
  171MOL0     H23041   2.064   9.308   8.733  0.1886 -0.2263 -0.1658
  171MOL0     H23042   2.002   9.259   8.899  1.1360  0.1393  0.8729
  171MOL0     H23043   1.837   9.233   8.719 -1.3036 -1.2654 -2.8083
  171MOL0     H23044   1.881   9.083   8.799 -0.8977 -0.9006 -1.1005
  171MOL0     H23045   1.968   8.953   8.390  0.1708 -0.2948  0.6708
  171MOL0     H23046   1.778   8.769   8.162  0.6411  1.9200 -0.8012
  171MOL0     H23047   1.934   8.794   8.236  0.0079  0.4022 -1.5995
  171MOL0     H23048   1.831   8.666   8.288  1.6280  0.5473  1.4752
  171MOL0     H23049   1.173   8.918   8.457 -2.6447 -2.6575  2.9918
  171MOL0     H23050   0.961   8.839   8.378  0.9625  2.9650  0.4111
  171MOL0     H23051   0.772   8.740   8.283 -2.4719  0.0388 -0.5417
  171MOL0     H23052   0.791   8.828   8.129  1.2208  0.6994  0.3685
  171MOL0     H23053   0.688   8.655   8.008 -3.4623  1.4360 -0.4652
  171MOL0     H23054   0.696   8.552   8.151  0.0916 -0.6193 -3.9073
  171MOL0     H23055   0.544   8.813   8.106  2.2845 -1.3272 -1.3062
  171MOL0     H23056   0.521   8.696   8.249 -0.8269  3.7895  0.6562
  171MOL0     H23057   0.459   8.628   7.965  0.9129 -0.5149  0.8298
  171MOL0     H23058   0.452   8.523   8.101  0.4951 -0.2048 -0.5669
  171MOL0     H23059   0.286   8.672   8.206 -0.4365 -1.2083 -0.6319
  171MOL0     H23060   0.247   8.570   8.069 -0.8277  0.2412 -1.4730
  171MOL0     H23061   0.298   8.865   8.017  0.6650  0.5957  1.9181
  171MOL0     H23062   0.233   8.749   7.905  0.9024  1.4592  0.0575
  171MOL0     H23063   0.066   8.851   8.131 -2.2179 -3.0542  1.3363
  171MOL0     H23064   0.026   8.707   8.047 -0.1979  0.7364 -0.4359
  171MOL0     H23065   0.073   8.968   7.890 -1.1942  1.8732  1.7393
  171MOL0     H23066  -0.080   8.909   7.955 -0.1063 -2.1521  2.0507
  171MOL0     H23067   1.157   8.632   8.063 -2.3832  0.6957  0.1315
  171MOL0     H23068   1.371   8.701   8.148  0.8789  0.8378 -0.1043
  171MOL0     H23069   1.509   8.960   8.554  0.1836 -0.9454 -0.9091
  171MOL0     H23070   1.681   9.090   8.677  0.4424 -0.8483  0.4335
  171MOL0     H23071   3.364   8.803   9.817  0.7879 -0.1850 -1.4874
  171MOL0     H23072   3.585   8.785   9.715  0.4175 -0.2292 -0.5595
  171MOL0     H23073   3.840   8.727   9.250 -2.2780  2.0625 -1.4611
  171MOL0     H23074   4.065   8.754   9.149  1.9294  0.3675 -0.0448
  171MOL0     H23075   4.364   8.894   9.336 -0.8312  2.3024  0.4671
  171MOL0     H23076   4.286   8.770   9.239 -0.4863  0.1418 -0.7792
  171MOL0     H23077   4.415   8.854   9.038  1.4367 -1.8916  0.0670
  171MOL0     H23078   4.513   8.799   9.177  0.8335  1.1417  0.5426
  171MOL0     H23079   4.556   9.047   9.237 -0.4701 -2.0195  0.7353
  171MOL0     H23080   4.450   9.100   9.111  1.6029  1.8656  2.9519
  171MOL0     H23081   4.697   9.109   9.043  1.2589 -0.0140 -0.5587
  171MOL0     H23082   4.626   8.973   8.954  1.3232 -0.3254  0.2601
  171MOL0     H23083   4.936   8.804   9.175  0.7468  1.2804 -1.8115
  171MOL0     H23084   4.112   9.126   9.355 -0.2426 -0.7134  0.2790
  171MOL0     H23085   3.894   9.108   9.452 -0.5033 -0.6043  0.5144
  172MOL0     O23086   9.893   5.560   8.849  0.3717  0.2636  0.3713
  172MOL0     C23087   9.958   5.456   8.849 -0.3151 -0.0963 -0.7150
  172MOL0     O23088   9.908   5.332   8.867 -0.9727 -0.0328  0.8318
  172MOL0     C23089   9.770   5.299   8.861  0.4625  0.1797  0.1859
  172MOL0     C23090   9.668   5.387   8.822  1.2511 -0.2219  0.4231
  172MOL0     C23091   9.532   5.341   8.816  0.6490  0.1830 -0.2384
  172MOL0     C23092   9.501   5.207   8.832  0.1454  0.0853  0.3589
  172MOL0     O23093   9.377   5.157   8.794  0.5915  0.1500  0.1403
  172MOL0     C23094   9.298   5.219   8.692  0.8416  0.3206  0.6862
  172MOL0     C23095   9.213   5.121   8.610  0.6457  0.0727 -0.1839
  172MOL0     C23096   9.102   5.187   8.541 -0.5336 -0.4656  0.7933
  172MOL0     C23097   9.022   5.090   8.457 -0.6616 -0.8868 -0.5625
  172MOL0     C23098   8.901   5.157   8.397  0.3113  0.4854 -0.4418
  172MOL0     C23099   8.922   5.263   8.289  0.5110  0.8250  0.1800
  172MOL0     C23100   8.846   5.385   8.326  0.0659  0.9519 -0.3637
  172MOL0     C23101   8.861   5.511   8.239 -0.0120 -0.3916 -0.0818
  172MOL0     N23102   8.756   5.603   8.284  0.5148  0.1326 -0.3213
  172MOL0     C23103   8.753   5.662   8.403  0.9054 -0.0585 -0.8793
  172MOL0     C23104   8.644   5.741   8.405  0.0768  0.1459  0.8868
  172MOL0     C23105   8.600   5.832   8.514  0.3903 -0.0281  0.2708
  172MOL0     C23106   8.448   5.864   8.495 -0.1695  0.8904 -0.5890
  172MOL0     C23107   8.403   5.962   8.608 -0.1028 -0.1021  0.9458
  172MOL0     C23108   8.250   5.981   8.617 -0.5881 -0.6892  0.4561
  172MOL0     O23109   8.189   6.025   8.484 -0.3918 -0.0197  0.4639
  172MOL0     C23110   8.050   6.050   8.474 -0.8098 -0.1901  0.0588
  172MOL0     C23111   7.997   6.094   8.349  0.0139 -0.1823 -0.2191
  172MOL0     C23112   7.862   6.109   8.321 -0.5136 -0.6310 -0.7827
  172MOL0     C23113   7.827   6.159   8.181  0.7836 -0.0448  0.3506
  172MOL0     C23114   7.768   6.073   8.424  0.7867 -0.0629 -0.2160
  172MOL0     C23115   7.622   6.098   8.414  0.3512  1.3370 -0.6129
  172MOL0     O23116   7.534   6.000   8.457  0.0277  0.5708 -0.5445
  172MOL0     C23117   7.403   6.012   8.428 -0.8664  0.4160 -0.1906
  172MOL0     C23118   7.325   6.120   8.468  0.0539 -0.5296  0.3970
  172MOL0     C23119   7.194   6.145   8.430  0.2367 -0.7137 -0.2099
  172MOL0     C23120   7.127   6.044   8.363  0.4740 -0.3141  0.5482
  172MOL0     O23121   6.994   6.060   8.329 -0.1730 -0.1380 -0.4487
  172MOL0     C23122   6.905   5.963   8.388 -1.2607 -0.1267  0.1045
  172MOL0     C23123   6.900   5.980   8.543  0.9090 -0.7947 -0.0215
  172MOL0     C23124   6.828   6.106   8.593  0.4612  0.4561  0.6267
  172MOL0     C23125   6.674   6.122   8.579 -0.4436 -0.3248 -0.0838
  172MOL0     C23126   6.605   6.009   8.646 -0.3952  0.5874  0.5515
  172MOL0     C23127   6.450   6.010   8.625 -0.4028 -0.5127 -0.2713
  172MOL0     C23128   6.381   6.125   8.688  0.9129 -0.5964  0.4290
  172MOL0     C23129   6.229   6.153   8.649  0.3899  0.0130 -0.2300
  172MOL0    Cl23130   6.117   6.009   8.637  0.7470 -0.2188 -0.3500
  172MOL0     C23131   7.202   5.925   8.327 -0.1429 -0.3167  0.4664
  172MOL0     C23132   7.341   5.907   8.366  0.4363  0.0515  0.0894
  172MOL0     O23133   7.588   6.203   8.370 -0.1801  0.2229 -0.5175
  172MOL0     C23134   7.816   6.009   8.541 -0.1727 -0.4443 -0.3100
  172MOL0     C23135   7.959   6.001   8.571 -0.6269 -0.2172 -0.1571
  172MOL0     N23136   8.574   5.739   8.278 -0.4671  0.3861  0.5573
  172MOL0     N23137   8.647   5.647   8.211  0.0675  0.1774  0.7900
  172MOL0     C23138   9.600   5.135   8.892 -0.0435  0.3418 -0.0959
  172MOL0     C23139   9.731   5.175   8.916 -0.3877  0.2324 -0.1309
  172MOL0     C23140  10.111   5.460   8.827 -0.4187 -0.4475 -0.2899
  172MOL0     C23141  10.171   5.363   8.742  0.5195  0.5598  0.5899
  172MOL0     C23142  10.304   5.373   8.690  0.7518 -0.4963  0.8604
  172MOL0     C23143  10.381   5.479   8.737  0.1170 -0.1776  0.2981
  172MOL0     O23144  10.512   5.486   8.696 -0.3493  0.4286 -0.5369
  172MOL0     C23145  10.602   5.582   8.770  0.0887  0.0749  0.0300
  172MOL0     C23146  10.747   5.559   8.729  0.0742  0.2507 -0.0110
  172MOL0     C23147  10.837   5.669   8.761 -0.2406 -0.0630 -0.0668
  172MOL0     C23148  10.987   5.636   8.767  0.7116 -0.2432 -0.2154
  172MOL0     C23149  11.017   5.511   8.840  0.7199  0.1653 -0.8337
  172MOL0     C23150  11.049   5.407   8.892 -0.0769 -0.0376 -0.0038
  172MOL0     C23151  10.323   5.572   8.822  0.3618 -0.3468  0.5805
  172MOL0     C23152  10.192   5.564   8.861 -1.5149  0.0155  0.7031
  172MOL0     H23153   9.685   5.490   8.793 -0.9298 -0.0500 -0.4188
  172MOL0     H23154   9.449   5.408   8.794 -1.1312 -2.0694 -0.7325
  172MOL0     H23155   9.248   5.306   8.736 -0.4120  0.4450 -0.8578
  172MOL0     H23156   9.360   5.264   8.614 -0.0730  1.4307  0.5748
  172MOL0     H23157   9.286   5.073   8.545  0.7590 -1.4440  0.9958
  172MOL0     H23158   9.168   5.056   8.685  0.0663  0.4304 -0.2176
  172MOL0     H23159   9.041   5.238   8.617 -1.0420 -1.3955  1.0302
  172MOL0     H23160   9.142   5.256   8.467 -1.1376 -0.5650  0.3729
  172MOL0     H23161   9.082   5.042   8.379  0.0526 -0.6946 -0.1355
  172MOL0     H23162   8.992   5.009   8.525  0.6325  0.1661  1.3575
  172MOL0     H23163   8.828   5.086   8.358  0.3747  1.4489 -2.4635
  172MOL0     H23164   8.845   5.202   8.480 -1.8017 -1.7069 -0.5935
  172MOL0     H23165   9.028   5.288   8.288  0.4216  1.2226  0.3405
  172MOL0     H23166   8.891   5.219   8.194  0.8007  0.0725  0.4312
  172MOL0     H23167   8.746   5.342   8.324  0.7639 -0.9869 -3.8985
  172MOL0     H23168   8.864   5.415   8.429  0.2654  1.7383 -0.6187
  172MOL0     H23169   8.856   5.504   8.130 -1.7053  3.2872 -0.3878
  172MOL0     H23170   8.964   5.545   8.258  0.5347 -1.9053 -0.2178
  172MOL0     H23171   8.806   5.630   8.492 -0.9829 -1.6748 -0.2324
  172MOL0     H23172   8.617   5.795   8.616  0.1735 -2.1073 -0.4208
  172MOL0     H23173   8.668   5.917   8.504  0.9232 -0.7135 -3.1723
  172MOL0     H23174   8.395   5.768   8.487  0.3172  0.6390 -0.8271
  172MOL0     H23175   8.434   5.908   8.396 -0.0530  0.8166 -0.6379
  172MOL0     H23176   8.450   6.061   8.602 -0.5698  0.1509  1.3865
  172MOL0     H23177   8.451   5.939   8.703  1.5899  2.1537  0.7353
  172MOL0     H23178   8.243   6.055   8.697  1.8648  1.0579 -0.8108
  172MOL0     H23179   8.208   5.883   8.641  0.1996 -1.4695 -1.2207
  172MOL0     H23180   8.066   6.112   8.268 -1.3122 -0.2538 -1.3974
  172MOL0     H23181   7.777   6.076   8.129 -0.5310 -0.3079  1.9390
  172MOL0     H23182   7.769   6.251   8.189 -0.1556 -0.7242  1.9225
  172MOL0     H23183   7.916   6.186   8.124  1.7042  0.4436  1.9689
  172MOL0     H23184   7.375   6.198   8.525  0.0369  1.2503 -1.8605
  172MOL0     H23185   7.142   6.238   8.451 -0.4128 -1.0092 -0.4876
  172MOL0     H23186   6.803   5.964   8.351 -0.6972 -2.2966 -1.6985
  172MOL0     H23187   6.932   5.862   8.357 -2.1964  0.0998 -1.5607
  172MOL0     H23188   6.848   5.895   8.587 -0.4855  2.0143  4.4646
  172MOL0     H23189   6.996   5.977   8.596 -0.0075 -0.2357  1.7545
  172MOL0     H23190   6.861   6.191   8.532 -0.2712  0.3040 -0.0014
  172MOL0     H23191   6.859   6.118   8.697  1.8042  2.5528  0.0371
  172MOL0     H23192   6.657   6.219   8.625  2.0579  0.8273 -1.3611
  172MOL0     H23193   6.644   6.122   8.473  1.8905 -1.0807 -0.8029
  172MOL0     H23194   6.628   6.014   8.753  3.1610 -1.5829  0.0743
  172MOL0     H23195   6.641   5.916   8.599 -0.1729  1.7289 -1.6483
  172MOL0     H23196   6.432   6.006   8.518 -1.4452  0.1482 -0.1366
  172MOL0     H23197   6.406   5.925   8.679 -1.2491  2.1694  3.7325
  172MOL0     H23198   6.440   6.216   8.672 -1.2294  1.0550  1.3455
  172MOL0     H23199   6.386   6.100   8.794  0.0654  1.0623  0.8986
  172MOL0     H23200   6.225   6.206   8.553 -0.8045 -1.6536 -1.1557
  172MOL0     H23201   6.193   6.228   8.719 -0.7899  1.4318 -2.2679
  172MOL0     H23202   7.153   5.850   8.265  0.5164  0.8849 -1.6313
  172MOL0     H23203   7.393   5.816   8.337 -0.6383 -0.2220 -1.0547
  172MOL0     H23204   7.747   5.972   8.616 -1.7847  0.3925 -1.3093
  172MOL0     H23205   7.998   5.959   8.663  1.6323  0.3273 -0.7997
  172MOL0     H23206   9.567   5.035   8.918 -0.8692  0.8379  0.8470
  172MOL0     H23207   9.808   5.103   8.943  0.1173  0.7203 -0.2583
  172MOL0     H23208  10.116   5.275   8.708 -0.4455  1.5413 -0.4864
  172MOL0     H23209  10.332   5.294   8.620 -3.1670  1.1417 -3.0741
  172MOL0     H23210  10.560   5.680   8.743  0.1707  0.6945  1.9763
  172MOL0     H23211  10.594   5.570   8.879  0.9529 -0.3300  0.0508
  172MOL0     H23212  10.752   5.539   8.622 -1.3374 -0.7680  0.0761
  172MOL0     H23213  10.759   5.467   8.788 -4.8346  0.3358  1.5791
  172MOL0     H23214  10.799   5.688   8.862  0.3992 -0.3760  0.2324
  172MOL0     H23215  10.827   5.755   8.694 -1.7196  0.0042  0.2065
  172MOL0     H23216  11.037   5.722   8.813 -3.4033  1.3697  1.7847
  172MOL0     H23217  11.028   5.610   8.670 -0.7333  1.5961 -1.3919
  172MOL0     H23218  11.062   5.307   8.929 -0.9677  0.0299  0.5205
  172MOL0     H23219  10.380   5.658   8.855  1.7139 -0.2563 -1.7702
  172MOL0     H23220  10.153   5.652   8.912  0.6127  2.0434 -0.9967
  173MOL0     O23221   4.416   7.781   3.654  0.4486  0.4788  0.2059
  173MOL0     C23222   4.421   7.659   3.644 -0.1580  0.0809  0.3094
  173MOL0     O23223   4.315   7.574   3.611 -0.0532 -0.0013 -1.0996
  173MOL0     C23224   4.192   7.622   3.578  0.0018  0.2718 -0.2730
  173MOL0     C23225   4.075   7.566   3.616  0.7579 -0.1807  1.4541
  173MOL0     C23226   3.949   7.616   3.591  0.4234 -0.4577  0.6657
  173MOL0     C23227   3.942   7.726   3.506  0.3899 -0.0525 -0.6369
  173MOL0     O23228   3.826   7.777   3.451  0.1690 -0.3205  0.6636
  173MOL0     C23229   3.726   7.686   3.406 -0.5239  0.6827  0.6096
  173MOL0     C23230   3.625   7.755   3.330 -0.1347 -0.3307  0.0962
  173MOL0     C23231   3.605   7.690   3.194 -0.0377  0.0488  0.3527
  173MOL0     C23232   3.519   7.772   3.097  0.5833 -0.1535 -0.7175
  173MOL0     C23233   3.477   7.688   2.979  0.9522  0.5550  0.4445
  173MOL0     C23234   3.370   7.579   3.020 -0.3327  0.1540 -0.6869
  173MOL0     C23235   3.300   7.532   2.893  1.0220  0.8054  0.0223
  173MOL0     C23236   3.196   7.421   2.933 -0.1885 -0.4133 -0.0019
  173MOL0     N23237   3.068   7.424   2.862 -0.5611  0.0189  0.3126
  173MOL0     C23238   2.974   7.512   2.892  0.0764  0.1205 -0.1255
  173MOL0     C23239   2.872   7.491   2.803 -0.5066  0.5481 -0.3671
  173MOL0     C23240   2.739   7.565   2.806 -0.1719  0.0212  1.1853
  173MOL0     C23241   2.612   7.481   2.763 -0.2238  0.3410 -0.3590
  173MOL0     C23242   2.487   7.568   2.763 -0.2792  0.1531  0.1178
  173MOL0     C23243   2.365   7.492   2.695 -0.9195 -0.3537 -0.6070
  173MOL0     O23244   2.257   7.580   2.720  0.2566  0.3721  0.4612
  173MOL0     C23245   2.126   7.532   2.720  0.2281  0.7031 -0.9766
  173MOL0     C23246   2.029   7.631   2.732  1.1975  0.1858  0.2333
  173MOL0     C23247   1.889   7.605   2.730  0.1767 -0.4583  0.6407
  173MOL0     C23248   1.790   7.718   2.757 -0.0093 -0.7233 -0.5983
  173MOL0     C23249   1.851   7.465   2.703  0.5048 -0.7299 -0.0481
  173MOL0     C23250   1.706   7.424   2.682  0.1028 -0.4882 -0.2890
  173MOL0     O23251   1.692   7.290   2.661 -0.5277 -0.2827  0.0529
  173MOL0     C23252   1.560   7.254   2.655 -0.1919 -0.0771  1.2373
  173MOL0     C23253   1.498   7.227   2.531  0.0144 -0.5473 -1.4475
  173MOL0     C23254   1.359   7.173   2.532 -0.6852  0.1125 -0.1684
  173MOL0     C23255   1.290   7.145   2.654  0.3946  0.8187 -0.3917
  173MOL0     O23256   1.158   7.102   2.646 -0.3145  0.1022  0.6469
  173MOL0     C23257   1.078   7.137   2.750  0.8245 -0.4095 -0.3864
  173MOL0     C23258   0.928   7.152   2.698 -1.2605 -0.4853 -0.2603
  173MOL0     C23259   0.862   7.027   2.666  0.0856 -0.0905 -0.9772
  173MOL0     C23260   0.723   7.045   2.619  0.4573 -0.2791 -0.8841
  173MOL0     C23261   0.647   6.916   2.591 -0.9176 -0.3223  0.3749
  173MOL0     C23262   0.494   6.942   2.599  0.8016  0.6681 -0.5443
  173MOL0     C23263   0.412   6.852   2.498  1.3328  0.3294 -0.0054
  173MOL0     C23264   0.386   6.716   2.560  0.3951  0.0953 -0.0651
  173MOL0    Cl23265   0.295   6.614   2.449  0.3033 -0.1935  0.2873
  173MOL0     C23266   1.355   7.180   2.775 -0.6492 -1.0300  0.7040
  173MOL0     C23267   1.491   7.229   2.774  0.0468 -0.4053  0.9144
  173MOL0     O23268   1.614   7.505   2.700 -0.1222 -0.5217 -0.0066
  173MOL0     C23269   1.953   7.370   2.674 -0.3296  0.7677 -0.3546
  173MOL0     C23270   2.090   7.402   2.686  0.1014 -0.5658  0.5008
  173MOL0     N23271   2.924   7.404   2.701 -0.1271  0.3012  0.8792
  173MOL0     N23272   3.050   7.381   2.731 -0.1496  0.0640  0.0355
  173MOL0     C23273   4.056   7.794   3.461  0.2489 -0.7958 -0.6104
  173MOL0     C23274   4.174   7.740   3.500 -0.5494 -0.7926 -0.4699
  173MOL0     C23275   4.552   7.592   3.666 -0.3400 -1.0024 -0.8547
  173MOL0     C23276   4.603   7.484   3.583 -0.0885 -0.6028  0.7463
  173MOL0     C23277   4.730   7.432   3.607  0.5067  0.2914 -0.3873
  173MOL0     C23278   4.807   7.466   3.722 -0.4148  0.2802 -0.4443
  173MOL0     O23279   4.922   7.400   3.747 -0.4903  0.1530 -0.3848
  173MOL0     C23280   5.010   7.420   3.869  0.6593  0.0841  0.8489
  173MOL0     C23281   5.110   7.313   3.870 -1.3016  0.5883  0.2331
  173MOL0     C23282   5.229   7.319   3.772 -1.1761  1.1798  0.0053
  173MOL0     C23283   5.322   7.201   3.770  0.6130 -0.8332 -0.5799
  173MOL0     C23284   5.430   7.219   3.666  0.5718 -0.1388 -0.8135
  173MOL0     C23285   5.504   7.238   3.570  0.1873 -0.2150 -0.4023
  173MOL0     C23286   4.752   7.560   3.811 -0.1989 -0.1233  0.1752
  173MOL0     C23287   4.637   7.631   3.779  0.1650 -0.1895  1.2260
  173MOL0     H23288   4.089   7.475   3.673  2.0841 -3.3841 -3.4534
  173MOL0     H23289   3.859   7.563   3.622  0.7663 -0.5381  1.5427
  173MOL0     H23290   3.771   7.610   3.342 -2.4283 -2.5634  2.8635
  173MOL0     H23291   3.671   7.634   3.485  0.0620  1.2302  1.4063
  173MOL0     H23292   3.532   7.750   3.388  0.4889 -2.7277  1.0120
  173MOL0     H23293   3.651   7.861   3.321 -1.5831  0.0664  0.2812
  173MOL0     H23294   3.700   7.691   3.139 -0.7077  0.0393 -0.8278
  173MOL0     H23295   3.571   7.587   3.205  1.7086 -0.6112 -0.0916
  173MOL0     H23296   3.435   7.808   3.156  0.9918 -0.1585 -0.1201
  173MOL0     H23297   3.583   7.854   3.063  0.8621  1.3606  2.9669
  173MOL0     H23298   3.438   7.745   2.893  0.0192 -0.6206  0.0608
  173MOL0     H23299   3.566   7.636   2.944  1.8593  0.1692  3.1431
  173MOL0     H23300   3.422   7.495   3.067 -1.3978  1.1500  2.4825
  173MOL0     H23301   3.304   7.601   3.105 -1.9367 -0.9315 -1.5713
  173MOL0     H23302   3.248   7.622   2.858  0.9089  0.7073 -0.0605
  173MOL0     H23303   3.366   7.502   2.812  0.9095  0.3469  0.1009
  173MOL0     H23304   3.180   7.414   3.041 -1.0192 -0.3441 -0.1149
  173MOL0     H23305   3.244   7.326   2.905  0.1031 -0.3713  0.3466
  173MOL0     H23306   2.967   7.586   2.971  3.7344  0.4874  0.0037
  173MOL0     H23307   2.717   7.591   2.910 -1.3338 -0.0660  0.9789
  173MOL0     H23308   2.752   7.657   2.748  0.7466 -1.1620 -0.5710
  173MOL0     H23309   2.609   7.403   2.839 -0.9295  0.1544 -0.5692
  173MOL0     H23310   2.626   7.434   2.666 -0.3548  2.3121 -1.3958
  173MOL0     H23311   2.516   7.668   2.729  0.1115  0.6794  1.9023
  173MOL0     H23312   2.457   7.569   2.868 -1.1017 -1.2848 -0.0778
  173MOL0     H23313   2.347   7.395   2.741 -1.9932 -0.7858 -1.8600
  173MOL0     H23314   2.380   7.487   2.587 -1.9426 -1.6589 -0.7065
  173MOL0     H23315   2.065   7.728   2.766  5.0076 -1.6020  1.9769
  173MOL0     H23316   1.838   7.805   2.802 -1.0737 -1.6632  2.6245
  173MOL0     H23317   1.732   7.733   2.666  0.9541 -0.0520 -1.1121
  173MOL0     H23318   1.727   7.677   2.837  0.5970 -1.1146 -0.3132
  173MOL0     H23319   1.556   7.242   2.441  0.5194  3.9186 -0.6425
  173MOL0     H23320   1.304   7.141   2.443 -0.3280  0.7330 -0.6211
  173MOL0     H23321   1.085   7.066   2.832 -1.8114  1.4316  1.5788
  173MOL0     H23322   1.107   7.230   2.800 -1.1167 -1.4382  2.9540
  173MOL0     H23323   0.864   7.192   2.777 -0.9394 -2.4474  1.0601
  173MOL0     H23324   0.927   7.224   2.616  1.2517  0.6393  0.5781
  173MOL0     H23325   0.860   6.967   2.758  1.1887 -0.2412 -1.0318
  173MOL0     H23326   0.924   6.976   2.592 -2.1827  0.3034 -3.2849
  173MOL0     H23327   0.669   7.091   2.702 -0.2605 -0.8175 -1.0376
  173MOL0     H23328   0.709   7.103   2.527 -4.8409  1.8278  0.8408
  173MOL0     H23329   0.682   6.838   2.659 -0.0161 -1.2080 -1.0446
  173MOL0     H23330   0.686   6.882   2.494  1.0179 -2.3315  1.7556
  173MOL0     H23331   0.460   6.921   2.700 -0.3009 -2.6038 -1.4451
  173MOL0     H23332   0.467   7.047   2.588  0.1856  0.6412  0.6000
  173MOL0     H23333   0.468   6.828   2.406  1.4839  1.8210 -0.3215
  173MOL0     H23334   0.329   6.908   2.455  1.1576 -1.6108 -2.4221
  173MOL0     H23335   0.325   6.714   2.650  2.8786  3.5131  1.9426
  173MOL0     H23336   0.478   6.662   2.584  0.6995  0.2646 -0.7971
  173MOL0     H23337   1.313   7.164   2.873 -0.5826 -2.8356  0.4752
  173MOL0     H23338   1.543   7.254   2.865 -1.3923 -0.7911  1.8837
  173MOL0     H23339   1.935   7.269   2.640 -0.0430  0.5855  0.0317
  173MOL0     H23340   2.155   7.316   2.670  0.1787 -0.9578  2.5419
  173MOL0     H23341   4.053   7.878   3.393 -3.3133  0.4538  0.9009
  173MOL0     H23342   4.260   7.795   3.465 -1.4327  2.1566  1.5666
  173MOL0     H23343   4.552   7.455   3.492 -0.3208  1.8473  0.0407
  173MOL0     H23344   4.766   7.346   3.551 -1.4325 -0.0706 -1.1795
  173MOL0     H23345   5.045   7.524   3.869 -1.4972  0.8758  2.4856
  173MOL0     H23346   4.941   7.396   3.950  0.2388 -3.1215 -0.3247
  173MOL0     H23347   5.065   7.214   3.855  1.6087 -0.5483 -2.1622
  173MOL0     H23348   5.154   7.333   3.968 -2.0468  2.9228  0.1468
  173MOL0     H23349   5.295   7.404   3.789  1.1971 -0.4515 -0.6588
  173MOL0     H23350   5.180   7.327   3.675  3.2923 -0.7126 -2.6725
  173MOL0     H23351   5.277   7.102   3.765  3.7613 -2.4767  0.4809
  173MOL0     H23352   5.363   7.196   3.872 -1.8244  0.9560  0.5922
  173MOL0     H23353   5.573   7.255   3.490  0.0160 -1.4530 -0.8328
  173MOL0     H23354   4.810   7.586   3.899  1.2553  0.2018 -0.8322
  173MOL0     H23355   4.614   7.719   3.838 -0.2846  0.4852  0.0857
  174MOL0     O23356   1.621   5.810  10.410 -0.5855  0.6119  0.4680
  174MOL0     C23357   1.675   5.913  10.445  0.0283  0.6704  0.0137
  174MOL0     O23358   1.615   6.033  10.460  1.0036  0.2382  0.4583
  174MOL0     C23359   1.482   6.038  10.483 -0.5518  0.2670 -0.4566
  174MOL0     C23360   1.422   6.164  10.459  0.3904  1.1873  0.4441
  174MOL0     C23361   1.283   6.192  10.469 -0.7516 -0.7031  0.6696
  174MOL0     C23362   1.197   6.097  10.510 -0.1597  0.1315  0.0552
  174MOL0     O23363   1.058   6.129  10.520 -0.2678 -0.0896  0.7924
  174MOL0     C23364   0.971   6.041  10.596  0.0449  0.2597 -0.1214
  174MOL0     C23365   0.998   6.077  10.747 -0.4844 -0.3171 -1.1280
  174MOL0     C23366   0.896   6.015  10.850 -0.7280 -0.5449  0.0472
  174MOL0     C23367   0.755   6.070  10.844 -0.0233  0.3288  0.4138
  174MOL0     C23368   0.661   5.995  10.941 -0.1502  0.4081  0.0093
  174MOL0     C23369   0.521   6.060  10.941 -0.4280 -1.7083 -0.1867
  174MOL0     C23370   0.430   5.976  11.037 -0.3938  0.1885  0.3752
  174MOL0     C23371   0.301   6.032  11.034  1.3289  0.4747  0.1214
  174MOL0     N23372   0.197   5.944  11.076  0.4805  0.0118  0.1658
  174MOL0     C23373   0.138   5.938  11.197 -0.3164 -0.4110 -0.1158
  174MOL0     C23374   0.039   5.845  11.189  0.6975 -0.3215  0.1840
  174MOL0     C23375  -0.047   5.807  11.304 -0.1484 -0.3891  0.3010
  174MOL0     C23376  -0.179   5.881  11.291  0.1421 -0.6939 -0.6267
  174MOL0     C23377  -0.277   5.853  11.405 -0.4348 -0.4414  1.3442
  174MOL0     C23378  -0.425   5.896  11.381  1.3457 -0.0481 -0.0741
  174MOL0     O23379  -0.508   5.827  11.483 -0.0961  0.2142 -0.4983
  174MOL0     C23380  -0.641   5.856  11.470  0.1747  0.2272 -0.0977
  174MOL0     C23381  -0.700   5.978  11.461 -0.3039 -0.0103 -0.4391
  174MOL0     C23382  -0.838   5.989  11.436 -0.7281 -0.3415 -0.0199
  174MOL0     C23383  -0.888   6.128  11.393 -0.0338 -0.0342  0.1181
  174MOL0     C23384  -0.921   5.878  11.453 -0.9395 -0.0865  0.8725
  174MOL0     C23385  -1.077   5.894  11.452  0.7939  0.1115 -0.2846
  174MOL0     O23386  -1.152   5.785  11.415  0.1447  0.9127 -0.2903
  174MOL0     C23387  -1.287   5.799  11.431 -0.2717 -0.0409 -0.3193
  174MOL0     C23388  -1.355   5.814  11.309 -1.0147 -0.2350  0.1082
  174MOL0     C23389  -1.489   5.852  11.314 -0.6792 -0.1892 -0.0564
  174MOL0     C23390  -1.561   5.865  11.441  0.8736 -0.0847 -0.4317
  174MOL0     O23391  -1.696   5.900  11.457 -0.7211  0.5016  0.3387
  174MOL0     C23392  -1.783   5.906  11.351 -0.8827  0.3749  1.5118
  174MOL0     C23393  -1.923   5.901  11.410 -0.3026 -0.6593  0.4843
  174MOL0     C23394  -2.034   5.895  11.297 -0.4824 -0.7895 -0.0350
  174MOL0     C23395  -2.165   5.955  11.346  0.0772  1.3301 -0.5229
  174MOL0     C23396  -2.284   5.939  11.245  0.1938  0.5856  0.4770
  174MOL0     C23397  -2.417   6.004  11.300  0.7947  0.4758  0.4386
  174MOL0     C23398  -2.512   6.041  11.189 -0.3500  0.5591 -0.6017
  174MOL0     C23399  -2.625   5.947  11.185  0.6388 -0.1072  0.7009
  174MOL0    Cl23400  -2.756   5.954  11.314 -0.0383  0.3503  0.2447
  174MOL0     C23401  -1.485   5.830  11.557  0.7912 -1.3917 -0.7790
  174MOL0     C23402  -1.353   5.801  11.553 -0.8128  0.2603  0.1543
  174MOL0     O23403  -1.133   5.994  11.497  0.2773 -0.4426 -0.3531
  174MOL0     C23404  -0.863   5.754  11.476  0.1247  0.1029  0.4713
  174MOL0     C23405  -0.726   5.747  11.482  0.0670  0.2263  0.2756
  174MOL0     N23406   0.032   5.800  11.056  0.4423 -0.1084 -0.0634
  174MOL0     N23407   0.124   5.861  10.988 -0.7939 -0.3965 -0.0114
  174MOL0     C23408   1.251   5.968  10.540  0.2137  0.3355  0.0682
  174MOL0     C23409   1.389   5.945  10.523 -0.0088  0.0067 -0.0604
  174MOL0     C23410   1.826   5.917  10.460  0.1211 -0.5802  0.3468
  174MOL0     C23411   1.903   5.803  10.455  0.1202 -0.5354  0.4656
  174MOL0     C23412   2.045   5.790  10.469  0.2061  0.5835  0.3333
  174MOL0     C23413   2.120   5.911  10.481  0.1863  1.0469  0.1512
  174MOL0     O23414   2.261   5.904  10.497  0.6113  0.3758  0.8127
  174MOL0     C23415   2.308   6.017  10.578  0.0064  0.3298  0.7172
  174MOL0     C23416   2.449   5.985  10.620  0.4618  0.4309 -0.0270
  174MOL0     C23417   2.530   6.110  10.628  0.6407 -0.2331  0.3723
  174MOL0     C23418   2.683   6.067  10.655  0.3471  0.0402  0.1334
  174MOL0     C23419   2.772   6.177  10.624 -0.6240  0.1691  0.1327
  174MOL0     C23420   2.849   6.266  10.598  0.4380 -0.9001 -0.9720
  174MOL0     C23421   2.050   6.030  10.463 -0.1977 -0.3880 -0.0625
  174MOL0     C23422   1.909   6.032  10.452  0.4792  0.4104 -0.0473
  174MOL0     H23423   1.489   6.242  10.425 -0.7420  1.5662 -1.0240
  174MOL0     H23424   1.242   6.289  10.443  2.0410  0.3554 -0.0943
  174MOL0     H23425   0.867   6.069  10.577 -0.8436 -1.9069  1.1886
  174MOL0     H23426   0.977   5.934  10.578 -0.6183 -0.3560  2.8428
  174MOL0     H23427   1.096   6.037  10.775  0.6950  2.2433 -1.3257
  174MOL0     H23428   0.998   6.185  10.763  0.3044 -0.6209  1.4067
  174MOL0     H23429   0.896   5.909  10.822  2.5455 -0.4079 -0.8204
  174MOL0     H23430   0.929   6.027  10.954 -1.4327  1.0689  0.1068
  174MOL0     H23431   0.755   6.176  10.873 -2.9370 -0.0203  2.1088
  174MOL0     H23432   0.712   6.063  10.744  3.6726 -0.7269 -1.2678
  174MOL0     H23433   0.661   5.891  10.905  1.1557 -0.4940  2.4300
  174MOL0     H23434   0.710   5.981  11.037  0.5783 -4.7052 -0.7978
  174MOL0     H23435   0.538   6.158  10.987  1.5638 -1.7471 -0.7630
  174MOL0     H23436   0.473   6.070  10.843 -1.3166  2.0714  0.4633
  174MOL0     H23437   0.412   5.874  11.004 -0.7826  0.1790  0.6107
  174MOL0     H23438   0.487   5.968  11.131  0.3690 -0.0167 -0.0966
  174MOL0     H23439   0.285   6.074  10.934  0.9404  0.8100  0.3227
  174MOL0     H23440   0.299   6.119  11.099 -0.7194 -1.3989  2.7818
  174MOL0     H23441   0.155   6.003  11.281 -3.0891  1.3612 -0.7899
  174MOL0     H23442  -0.068   5.700  11.300  0.9169 -0.6287  0.6048
  174MOL0     H23443   0.004   5.833  11.397 -1.4885  2.5719  0.3459
  174MOL0     H23444  -0.231   5.851  11.200 -2.0556 -1.8782  0.9207
  174MOL0     H23445  -0.153   5.987  11.287  0.9360 -0.7785  1.1913
  174MOL0     H23446  -0.241   5.906  11.494  2.8599  1.0945 -0.6926
  174MOL0     H23447  -0.268   5.743  11.404  1.7346 -0.3649 -1.4415
  174MOL0     H23448  -0.453   5.870  11.279  2.9708  0.7350 -0.7526
  174MOL0     H23449  -0.436   6.003  11.396 -3.1392 -0.5626  2.0558
  174MOL0     H23450  -0.642   6.070  11.458 -1.2692  0.6045 -0.9403
  174MOL0     H23451  -0.821   6.167  11.316 -0.1787  0.4322  0.2232
  174MOL0     H23452  -0.987   6.121  11.347 -0.0650 -0.7952  0.2878
  174MOL0     H23453  -0.880   6.186  11.486  3.4786 -1.6843  1.0142
  174MOL0     H23454  -1.302   5.815  11.214 -0.8471  2.7237  0.1462
  174MOL0     H23455  -1.551   5.871  11.227 -1.7041  1.2106  0.9258
  174MOL0     H23456  -1.770   5.989  11.282  1.2926 -2.7577 -2.2637
  174MOL0     H23457  -1.768   5.817  11.289  1.0859  1.9095 -0.3417
  174MOL0     H23458  -1.928   5.821  11.484 -2.4949  0.5540  1.7315
  174MOL0     H23459  -1.932   6.002  11.452  1.8873 -0.0607 -0.3361
  174MOL0     H23460  -2.048   5.797  11.252  1.0915  1.0858 -5.3266
  174MOL0     H23461  -1.993   5.956  11.216  0.8505 -2.3431 -0.5746
  174MOL0     H23462  -2.191   5.912  11.443  0.8690  1.4680 -0.2453
  174MOL0     H23463  -2.155   6.061  11.371 -0.2360  1.5260 -1.2137
  174MOL0     H23464  -2.306   5.838  11.210 -3.4250  0.6401  2.1196
  174MOL0     H23465  -2.257   6.001  11.159 -1.7635  3.0380  1.4904
  174MOL0     H23466  -2.466   5.922  11.354 -0.1408 -0.4582 -1.7103
  174MOL0     H23467  -2.402   6.091  11.364  2.5051 -0.3263  1.1993
  174MOL0     H23468  -2.460   6.038  11.093 -1.9329  1.2655 -1.5349
  174MOL0     H23469  -2.553   6.142  11.199 -0.1994  0.7533 -1.7746
  174MOL0     H23470  -2.599   5.841  11.182 -4.3819 -1.6212  0.4134
  174MOL0     H23471  -2.689   5.964  11.098  2.6525  2.1190 -0.4426
  174MOL0     H23472  -1.538   5.846  11.650  1.0486 -0.1949 -0.8254
  174MOL0     H23473  -1.293   5.765  11.636  1.2281  1.5529 -0.7118
  174MOL0     H23474  -0.936   5.675  11.493 -0.8943  1.3534  2.2703
  174MOL0     H23475  -0.681   5.648  11.490  0.2558 -0.0962 -3.1934
  174MOL0     H23476   1.196   5.883  10.580  2.4043 -1.9353 -1.4725
  174MOL0     H23477   1.420   5.846  10.552  1.3728 -0.3359 -2.4357
  174MOL0     H23478   1.849   5.709  10.441  0.2388 -0.5988  0.4322
  174MOL0     H23479   2.092   5.692  10.472 -1.2555 -0.1457  0.4179
  174MOL0     H23480   2.307   6.109  10.519 -1.0436 -1.7481 -2.8166
  174MOL0     H23481   2.249   6.027  10.669 -2.9455  0.6170 -1.0912
  174MOL0     H23482   2.502   5.918  10.552 -0.3665 -0.6856  0.4009
  174MOL0     H23483   2.444   5.941  10.720  1.2318  2.8605  1.1744
  174MOL0     H23484   2.496   6.169  10.713 -0.7590 -0.1350 -0.2230
  174MOL0     H23485   2.522   6.161  10.531  0.0436  0.5105  0.7993
  174MOL0     H23486   2.714   5.992  10.581  0.6133  1.2519 -1.0259
  174MOL0     H23487   2.706   6.031  10.755  0.2607 -0.2069  0.0654
  174MOL0     H23488   2.913   6.346  10.567  0.2207 -0.8264 -1.2433
  174MOL0     H23489   2.109   6.120  10.447 -1.3480  0.0700 -1.9208
  174MOL0     H23490   1.862   6.130  10.447 -0.3968  0.0471  0.7257
  175MOL0     O23491   5.866   9.306  10.597  0.2752 -0.2385 -0.2099
  175MOL0     C23492   5.868   9.194  10.634  0.5295  0.9498 -0.7053
  175MOL0     O23493   5.756   9.119  10.679 -0.3686  0.8837 -0.3528
  175MOL0     C23494   5.621   9.161  10.665  0.0522 -0.8029 -0.4380
  175MOL0     C23495   5.517   9.124  10.747  0.3476 -0.2515 -0.4017
  175MOL0     C23496   5.385   9.176  10.732 -0.2608  1.0055 -0.1455
  175MOL0     C23497   5.354   9.260  10.622  0.0192 -0.7500  1.0161
  175MOL0     O23498   5.228   9.314  10.623  0.3191 -0.6687  0.5980
  175MOL0     C23499   5.168   9.335  10.501 -0.3843  1.1335  0.7932
  175MOL0     C23500   5.035   9.392  10.524  0.5033  0.1745 -0.1918
  175MOL0     C23501   4.917   9.299  10.527  0.2308  0.0833  0.3570
  175MOL0     C23502   4.880   9.241  10.389 -0.9988  0.0459 -0.2906
  175MOL0     C23503   4.775   9.133  10.398  0.6595  0.0606  0.0814
  175MOL0     C23504   4.747   9.084  10.256  0.4074 -1.0366 -0.0573
  175MOL0     C23505   4.625   8.985  10.248  0.5432  0.1806  0.1754
  175MOL0     C23506   4.661   8.836  10.277  0.9794 -0.8321  0.3112
  175MOL0     N23507   4.793   8.794  10.235  0.8019 -0.5434  0.5019
  175MOL0     C23508   4.910   8.798  10.311  0.0487 -0.3402  0.3699
  175MOL0     C23509   4.996   8.725  10.238 -0.3169  0.5318  0.3419
  175MOL0     C23510   5.143   8.701  10.274  0.1208  0.1479 -0.3199
  175MOL0     C23511   5.166   8.619  10.404 -0.1626  0.6601  0.1489
  175MOL0     C23512   5.091   8.481  10.395  0.4755  0.1492 -0.2980
  175MOL0     C23513   5.073   8.409  10.533 -0.5603 -0.9354 -0.7604
  175MOL0     O23514   5.011   8.487  10.642  0.7204  0.4832  0.6580
  175MOL0     C23515   4.871   8.488  10.645  0.7763 -0.3307  0.1837
  175MOL0     C23516   4.797   8.375  10.683 -0.5288  0.6063 -1.7408
  175MOL0     C23517   4.659   8.342  10.648  0.4595 -1.5143  0.2100
  175MOL0     C23518   4.599   8.213  10.684  0.7577  1.0773  0.9465
  175MOL0     C23519   4.584   8.445  10.589 -0.3325 -0.0441 -1.0229
  175MOL0     C23520   4.443   8.438  10.561  0.1491 -0.1769  0.3636
  175MOL0     O23521   4.395   8.319  10.523  0.0953  0.2054 -0.1375
  175MOL0     C23522   4.261   8.313  10.501 -1.0311 -0.1252 -0.0369
  175MOL0     C23523   4.168   8.262  10.598 -0.4517  0.2290  1.5485
  175MOL0     C23524   4.030   8.262  10.567 -0.0676 -0.3343  0.2898
  175MOL0     C23525   3.981   8.315  10.447  0.1731  0.0171 -0.2068
  175MOL0     O23526   3.842   8.310  10.427 -0.2950  0.0822  0.3883
  175MOL0     C23527   3.796   8.382  10.312 -0.2168 -0.5455  0.1808
  175MOL0     C23528   3.645   8.391  10.314  0.4001  0.4319  0.0042
  175MOL0     C23529   3.585   8.250  10.339  0.5572 -0.7941  0.1277
  175MOL0     C23530   3.431   8.246  10.330  0.2420  0.8234  0.0728
  175MOL0     C23531   3.376   8.100  10.293  0.5480 -0.4743 -0.5082
  175MOL0     C23532   3.223   8.092  10.328 -0.4049  0.8262  0.9321
  175MOL0     C23533   3.136   8.209  10.267 -0.0653 -0.4067 -0.0224
  175MOL0     C23534   2.989   8.204  10.292  0.2026  0.1762 -0.2303
  175MOL0    Cl23535   2.898   8.059  10.219 -0.8019 -0.3639  0.4349
  175MOL0     C23536   4.076   8.367  10.360  0.1393 -1.0137 -0.0634
  175MOL0     C23537   4.212   8.361  10.383 -0.4530  0.2692 -0.0644
  175MOL0     O23538   4.375   8.531  10.592  0.1484 -0.0470 -0.0143
  175MOL0     C23539   4.642   8.568  10.574  1.3305  0.2397  0.2850
  175MOL0     C23540   4.780   8.590  10.596  0.1875  1.0079 -0.6321
  175MOL0     N23541   4.926   8.677  10.127 -0.4516 -0.3438 -0.0079
  175MOL0     N23542   4.813   8.734  10.117 -0.1046  0.0909 -0.0624
  175MOL0     C23543   5.456   9.290  10.531  0.2052  0.0087 -0.4146
  175MOL0     C23544   5.590   9.246  10.553  0.2765 -0.2985 -0.5716
  175MOL0     C23545   6.001   9.136  10.652 -0.4476  0.2334  1.1689
  175MOL0     C23546   6.024   9.000  10.680 -0.2119 -0.7694 -0.7496
  175MOL0     C23547   6.156   8.950  10.696  0.9356 -0.3164 -1.1008
  175MOL0     C23548   6.270   9.032  10.693 -0.1780 -0.3785 -0.0662
  175MOL0     O23549   6.396   8.976  10.699  0.5136 -0.2711  0.0902
  175MOL0     C23550   6.416   8.901  10.821  0.5669  0.2838 -0.8419
  175MOL0     C23551   6.566   8.898  10.850 -1.0214 -0.0253  0.8472
  175MOL0     C23552   6.640   8.828  10.742  0.5178  0.2098  0.0268
  175MOL0     C23553   6.794   8.842  10.771  0.5044  0.9090  0.1192
  175MOL0     C23554   6.853   8.969  10.712 -0.0243  0.2859 -0.5598
  175MOL0     C23555   6.909   9.070  10.672  0.7722  1.3432 -0.6339
  175MOL0     C23556   6.248   9.166  10.665 -0.5461 -0.5399 -0.6357
  175MOL0     C23557   6.122   9.214  10.641  0.2076  0.5607  0.1871
  175MOL0     H23558   5.513   9.051  10.828 -0.9494  2.3642  2.0362
  175MOL0     H23559   5.314   9.147  10.810  0.3403  0.2032  0.1238
  175MOL0     H23560   5.230   9.407  10.446  1.1555  1.5271  2.9369
  175MOL0     H23561   5.155   9.233  10.464 -0.3930  0.6939  1.9610
  175MOL0     H23562   5.038   9.440  10.622 -0.2194  0.7449 -0.4406
  175MOL0     H23563   5.012   9.469  10.449 -2.0965  2.7061  2.8805
  175MOL0     H23564   4.925   9.218  10.600 -0.2095 -1.0013 -0.7688
  175MOL0     H23565   4.832   9.358  10.561  0.8228  0.8403  0.5578
  175MOL0     H23566   4.837   9.322  10.330  0.9459  2.5315  1.4631
  175MOL0     H23567   4.966   9.198  10.337  0.1389  0.8993  0.8085
  175MOL0     H23568   4.814   9.049  10.455 -0.1378 -1.2288 -1.2191
  175MOL0     H23569   4.686   9.177  10.444  0.7308  1.3019 -0.8817
  175MOL0     H23570   4.716   9.170  10.196  3.4192 -0.8616 -1.5147
  175MOL0     H23571   4.841   9.048  10.214  0.6487  2.2134 -2.7680
  175MOL0     H23572   4.553   9.024  10.322 -0.8710 -1.3110 -0.3445
  175MOL0     H23573   4.569   9.006  10.157 -1.3605 -0.6830  1.0865
  175MOL0     H23574   4.590   8.783  10.213  0.6294 -0.0785  0.0608
  175MOL0     H23575   4.647   8.813  10.383 -1.6900  2.0607  0.7419
  175MOL0     H23576   4.907   8.847  10.408 -0.9320  0.9287 -0.2845
  175MOL0     H23577   5.190   8.648  10.191  0.2330  0.5743 -0.5322
  175MOL0     H23578   5.182   8.802  10.293  0.8659 -0.2155  0.1552
  175MOL0     H23579   5.130   8.678  10.489  0.8800 -0.1027  1.1472
  175MOL0     H23580   5.275   8.608  10.410 -0.2849 -0.3018  0.8153
  175MOL0     H23581   5.142   8.410  10.329 -4.7182 -5.0751  0.5124
  175MOL0     H23582   4.994   8.473  10.346  0.1234 -1.7655  0.5820
  175MOL0     H23583   5.174   8.381  10.563 -0.1810 -0.7886 -1.8614
  175MOL0     H23584   5.020   8.313  10.525  3.2354 -3.6600  2.7734
  175MOL0     H23585   4.850   8.301  10.741 -2.0380 -0.2092 -1.3387
  175MOL0     H23586   4.673   8.153  10.737 -0.5156  0.3364  1.9614
  175MOL0     H23587   4.511   8.241  10.743 -1.6679  2.5511 -2.9580
  175MOL0     H23588   4.568   8.144  10.604  0.3157 -0.5479  2.4428
  175MOL0     H23589   4.214   8.222  10.688  2.3520  0.7588  0.4560
  175MOL0     H23590   3.955   8.227  10.637  0.3034  3.0736  2.6504
  175MOL0     H23591   3.835   8.484  10.313  0.8463 -0.9368  0.3137
  175MOL0     H23592   3.827   8.325  10.223 -2.8387 -2.0343  0.1237
  175MOL0     H23593   3.596   8.448  10.393  0.5166  0.8420 -0.2157
  175MOL0     H23594   3.608   8.423  10.216  0.0447  1.5913  0.4988
  175MOL0     H23595   3.619   8.210  10.435 -0.3537 -0.1821  0.7253
  175MOL0     H23596   3.613   8.177  10.263 -1.9433  0.2230 -1.8851
  175MOL0     H23597   3.393   8.274  10.428 -1.0274 -0.9041  0.1157
  175MOL0     H23598   3.400   8.310  10.246  0.0018  1.2895  0.5148
  175MOL0     H23599   3.427   8.023  10.352 -1.9618 -2.5610 -0.8814
  175MOL0     H23600   3.379   8.080  10.186  0.1639 -2.1330 -0.2419
  175MOL0     H23601   3.186   7.995  10.293 -0.6565  1.0589  0.5436
  175MOL0     H23602   3.194   8.069  10.431 -3.2941 -1.4728 -0.2348
  175MOL0     H23603   3.154   8.187  10.161 -0.7608 -2.0960  0.1894
  175MOL0     H23604   3.172   8.310  10.292  1.4316 -0.3753 -2.0416
  175MOL0     H23605   2.948   8.291  10.240 -0.4141  0.1618  0.2204
  175MOL0     H23606   2.976   8.210  10.400  0.4003 -1.2672 -0.1082
  175MOL0     H23607   4.058   8.418  10.265  1.2000 -3.2963 -1.5921
  175MOL0     H23608   4.282   8.411  10.316  3.7697 -2.3789  1.9125
  175MOL0     H23609   4.592   8.657  10.538  0.4042 -0.1729  0.5156
  175MOL0     H23610   4.821   8.688  10.572 -0.1157  1.3771  0.3026
  175MOL0     H23611   5.439   9.346  10.440 -4.0132 -0.2210  0.0187
  175MOL0     H23612   5.662   9.284  10.481  0.1406  2.6493  0.6814
  175MOL0     H23613   5.939   8.936  10.698  0.2570 -0.9506  1.0759
  175MOL0     H23614   6.168   8.843  10.714 -2.2581 -0.3482  1.7538
  175MOL0     H23615   6.353   8.934  10.904  0.2829 -0.4957 -0.7389
  175MOL0     H23616   6.388   8.799  10.792 -1.5004  0.2579  1.0210
  175MOL0     H23617   6.587   8.843  10.942  0.3230 -0.6948  0.1613
  175MOL0     H23618   6.602   9.001  10.849 -0.7708 -0.1152  0.1905
  175MOL0     H23619   6.614   8.870  10.644  0.9087 -2.6402 -1.4132
  175MOL0     H23620   6.607   8.724  10.729  0.0842  0.4165 -0.5844
  175MOL0     H23621   6.839   8.755  10.722  0.1210 -0.5981  2.3189
  175MOL0     H23622   6.819   8.838  10.877  2.1836  0.0468 -0.2704
  175MOL0     H23623   6.953   9.160  10.634 -2.4623  2.3334 -2.4332
  175MOL0     H23624   6.339   9.225  10.657 -1.0946  0.5806  0.9639
  175MOL0     H23625   6.105   9.315  10.604  0.7462  1.6674  2.7770
  176MOL0     O23626   6.441   0.389   5.327  0.3104 -0.1031 -0.0860
  176MOL0     C23627   6.460   0.380   5.449  0.1263 -0.3008  0.0543
  176MOL0     O23628   6.363   0.373   5.546  0.3031  0.1868 -0.3044
  176MOL0     C23629   6.226   0.375   5.507 -0.1447  0.6586 -0.2694
  176MOL0     C23630   6.160   0.492   5.478 -0.3283 -0.9833  0.2292
  176MOL0     C23631   6.022   0.496   5.449 -0.0848 -1.5093 -0.2721
  176MOL0     C23632   5.946   0.379   5.450  0.0017 -0.5020 -0.0373
  176MOL0     O23633   5.811   0.405   5.426 -0.6592 -0.0911  0.1688
  176MOL0     C23634   5.719   0.296   5.399 -0.6569 -0.4688  0.2173
  176MOL0     C23635   5.585   0.368   5.409  0.5556  0.0737 -0.6203
  176MOL0     C23636   5.471   0.260   5.429  0.3629 -0.8396 -0.3141
  176MOL0     C23637   5.334   0.323   5.383  0.8649 -0.4861  0.0674
  176MOL0     C23638   5.224   0.221   5.415 -0.6302  0.4172  0.1473
  176MOL0     C23639   5.077   0.275   5.396 -0.2053  0.5857 -0.9953
  176MOL0     C23640   4.967   0.175   5.418 -0.2032  0.9268 -0.0808
  176MOL0     C23641   4.969   0.062   5.313 -0.0046 -0.0944 -0.1095
  176MOL0     N23642   4.877  -0.037   5.348 -0.3686  0.5496 -0.1431
  176MOL0     C23643   4.741  -0.014   5.352 -0.3671 -0.2635  0.5606
  176MOL0     C23644   4.696  -0.119   5.421  0.5532  0.2960 -0.5059
  176MOL0     C23645   4.549  -0.139   5.452 -0.9843 -0.4285  0.1786
  176MOL0     C23646   4.443  -0.063   5.370  0.4068  1.0965 -0.2089
  176MOL0     C23647   4.314  -0.150   5.368  0.6022 -0.7255  0.7652
  176MOL0     C23648   4.271  -0.187   5.220 -0.1594  0.3725 -0.2314
  176MOL0     O23649   4.359  -0.293   5.182  0.8617  0.8472  0.1368
  176MOL0     C23650   4.333  -0.346   5.057 -0.7661  0.5217 -0.1358
  176MOL0     C23651   4.232  -0.299   4.973  0.7026  0.0272  0.0648
  176MOL0     C23652   4.211  -0.355   4.841  0.1966  0.3717  0.3278
  176MOL0     C23653   4.116  -0.276   4.746  0.0938 -0.2269 -0.4014
  176MOL0     C23654   4.287  -0.464   4.804 -0.0229 -0.7845  0.1101
  176MOL0     C23655   4.295  -0.525   4.664 -0.3169 -0.0902 -0.3122
  176MOL0     O23656   4.324  -0.655   4.657 -0.1446  0.0008  0.1009
  176MOL0     C23657   4.369  -0.693   4.535  0.1811  0.4070 -0.1486
  176MOL0     C23658   4.507  -0.706   4.521 -1.1981  0.4340 -0.3955
  176MOL0     C23659   4.559  -0.766   4.404 -0.4844  0.3064 -0.2689
  176MOL0     C23660   4.469  -0.816   4.304  0.7532 -0.1067  0.4106
  176MOL0     O23661   4.506  -0.887   4.196 -0.0185 -0.8397 -0.1176
  176MOL0     C23662   4.600  -0.994   4.232  0.2476  0.6344 -0.3234
  176MOL0     C23663   4.737  -0.945   4.188 -0.3484 -0.0004 -0.8382
  176MOL0     C23664   4.779  -0.991   4.050 -0.5219  0.6577  0.6654
  176MOL0     C23665   4.722  -0.906   3.931  0.0877 -0.0618 -1.0571
  176MOL0     C23666   4.809  -0.886   3.813  0.0063 -0.2044 -0.9663
  176MOL0     C23667   4.901  -0.774   3.826  0.5018  0.5482 -0.6273
  176MOL0     C23668   4.983  -0.766   3.701  1.0727 -0.1170 -0.5840
  176MOL0     C23669   5.064  -0.637   3.699 -0.1043  0.4152 -0.1190
  176MOL0    Cl23670   5.197  -0.624   3.819  0.1716 -0.3038 -0.1056
  176MOL0     C23671   4.332  -0.800   4.320 -0.1799  0.2893  0.9214
  176MOL0     C23672   4.285  -0.733   4.433  0.1251  0.4375  0.1451
  176MOL0     O23673   4.280  -0.447   4.573  0.0598 -0.1232 -0.4555
  176MOL0     C23674   4.384  -0.517   4.894 -0.1508  0.2166  0.3834
  176MOL0     C23675   4.405  -0.460   5.015 -0.5018 -1.1110 -0.3408
  176MOL0     N23676   4.797  -0.205   5.458  0.4158 -0.0673  0.5573
  176MOL0     N23677   4.909  -0.150   5.422  0.4619  0.1870  0.4053
  176MOL0     C23678   6.009   0.248   5.466 -0.2389 -0.6149 -0.0442
  176MOL0     C23679   6.153   0.253   5.486  0.1257 -0.0621 -0.1564
  176MOL0     C23680   6.600   0.350   5.487 -0.4070 -0.6548 -0.0977
  176MOL0     C23681   6.709   0.384   5.393  0.1091  0.5932 -0.1240
  176MOL0     C23682   6.839   0.347   5.423  0.2383 -0.0254  0.7195
  176MOL0     C23683   6.867   0.286   5.540 -0.6329  1.0214 -0.8334
  176MOL0     O23684   7.003   0.259   5.580 -0.2608 -0.3979 -0.3597
  176MOL0     C23685   7.109   0.294   5.488  0.3885  0.2539 -0.3338
  176MOL0     C23686   7.241   0.248   5.542 -0.2659 -0.2389  0.2543
  176MOL0     C23687   7.356   0.309   5.455 -0.4741  0.6966  0.5221
  176MOL0     C23688   7.365   0.273   5.312 -0.8942  0.2789  0.5182
  176MOL0     C23689   7.487   0.338   5.255 -0.3934  0.3184 -0.2846
  176MOL0     C23690   7.577   0.411   5.214  0.4145 -0.3500  0.4766
  176MOL0     C23691   6.767   0.243   5.631 -0.3467  0.0569  0.1468
  176MOL0     C23692   6.638   0.276   5.602  0.8077 -0.0834  1.0120
  176MOL0     H23693   6.222   0.580   5.488 -1.1094  0.0839 -3.0450
  176MOL0     H23694   5.981   0.596   5.441  2.1997 -0.3562  1.3404
  176MOL0     H23695   5.742   0.246   5.304  0.0264 -1.0046  0.6484
  176MOL0     H23696   5.729   0.225   5.481  1.6378  0.1321  0.5565
  176MOL0     H23697   5.580   0.429   5.499 -0.2997 -0.4565 -0.2918
  176MOL0     H23698   5.558   0.429   5.322 -0.0483 -1.1516 -1.3316
  176MOL0     H23699   5.483   0.183   5.352  1.3634  1.0716 -2.1772
  176MOL0     H23700   5.470   0.217   5.530 -0.4746  0.5878  0.3192
  176MOL0     H23701   5.322   0.419   5.433 -0.3558  0.1869 -1.4401
  176MOL0     H23702   5.335   0.353   5.278  0.4320 -0.5493  0.0420
  176MOL0     H23703   5.242   0.138   5.346  0.4434  1.3594 -0.7609
  176MOL0     H23704   5.247   0.189   5.517  0.2291 -0.7076 -0.3788
  176MOL0     H23705   5.050   0.356   5.465 -1.6331 -1.1488  0.5849
  176MOL0     H23706   5.078   0.314   5.294  0.6584 -1.9882 -2.0424
  176MOL0     H23707   4.973   0.132   5.518 -1.8609 -1.4355 -0.8958
  176MOL0     H23708   4.874   0.231   5.406 -1.0790  0.0652  2.1011
  176MOL0     H23709   5.073   0.029   5.300 -0.1692 -0.3593 -0.8265
  176MOL0     H23710   4.943   0.105   5.216  0.9087  1.1842  0.1909
  176MOL0     H23711   4.678   0.067   5.317 -3.0342 -2.9992 -1.5058
  176MOL0     H23712   4.545  -0.248   5.445  0.7223 -0.6478  1.5407
  176MOL0     H23713   4.535  -0.109   5.557 -1.3743  0.1788 -0.0464
  176MOL0     H23714   4.462  -0.050   5.263 -2.7882  0.7414 -0.9177
  176MOL0     H23715   4.426   0.033   5.420  1.6669  0.0106  2.5298
  176MOL0     H23716   4.231  -0.102   5.422 -1.0597 -0.6205 -1.7372
  176MOL0     H23717   4.334  -0.245   5.419  0.1036  0.0997  2.6131
  176MOL0     H23718   4.278  -0.092   5.166 -1.6329  1.6371  1.6459
  176MOL0     H23719   4.169  -0.225   5.207  0.9312 -1.7069 -3.9740
  176MOL0     H23720   4.179  -0.212   5.008  3.1250  0.8533  2.0561
  176MOL0     H23721   4.085  -0.336   4.660 -2.5545 -0.6595  0.7629
  176MOL0     H23722   4.030  -0.244   4.806  1.7297  0.5686  1.6583
  176MOL0     H23723   4.160  -0.194   4.687  0.6254 -2.2186 -2.9515
  176MOL0     H23724   4.583  -0.672   4.590 -0.9737  3.5409 -1.9751
  176MOL0     H23725   4.667  -0.771   4.407 -0.4624  1.0232  1.0532
  176MOL0     H23726   4.598  -1.006   4.341  0.2786  1.4480 -0.2262
  176MOL0     H23727   4.569  -1.088   4.187 -2.1148 -1.2398  4.4960
  176MOL0     H23728   4.750  -0.836   4.186 -0.1503  0.0516  0.9780
  176MOL0     H23729   4.811  -0.988   4.257 -0.4568  0.1677 -0.6144
  176MOL0     H23730   4.748  -1.096   4.039 -3.6594  1.3236  1.9258
  176MOL0     H23731   4.887  -0.997   4.035 -0.4098 -0.3466  1.7039
  176MOL0     H23732   4.637  -0.964   3.894 -0.6985  0.7019 -0.4919
  176MOL0     H23733   4.688  -0.806   3.960  2.3581  0.2652  0.8236
  176MOL0     H23734   4.753  -0.876   3.719 -0.1352  0.8399 -0.7844
  176MOL0     H23735   4.866  -0.979   3.816  1.2006  0.5291  0.1306
  176MOL0     H23736   4.854  -0.676   3.836  1.4534  1.2652 -2.5982
  176MOL0     H23737   4.964  -0.781   3.915 -0.9183  0.4226  0.4051
  176MOL0     H23738   4.916  -0.760   3.615 -0.2106  0.1259  0.3985
  176MOL0     H23739   5.053  -0.849   3.687 -0.8927 -1.4691 -3.1464
  176MOL0     H23740   4.991  -0.557   3.721  0.5311  1.5330 -1.8500
  176MOL0     H23741   5.108  -0.622   3.601 -1.4810  0.6496 -0.7341
  176MOL0     H23742   4.261  -0.833   4.244 -1.0479 -0.2633  1.9490
  176MOL0     H23743   4.177  -0.723   4.441  0.2920  2.2564  0.4550
  176MOL0     H23744   4.456  -0.595   4.870 -1.2047 -1.5403  2.5399
  176MOL0     H23745   4.477  -0.509   5.080 -0.4931 -0.7696 -0.0876
  176MOL0     H23746   5.959   0.152   5.463  0.9877 -1.2752 -0.5868
  176MOL0     H23747   6.202   0.156   5.482 -0.9595 -0.6464  0.4764
  176MOL0     H23748   6.682   0.447   5.309  1.0476  2.1936  0.7422
  176MOL0     H23749   6.911   0.373   5.346 -0.4871 -0.7322 -0.2399
  176MOL0     H23750   7.085   0.247   5.392  0.1034 -2.9596  1.1605
  176MOL0     H23751   7.105   0.403   5.480  0.1801  1.0345  5.5853
  176MOL0     H23752   7.247   0.141   5.563  2.3987 -0.0255  1.0587
  176MOL0     H23753   7.260   0.282   5.644  1.1459 -4.1902  1.4987
  176MOL0     H23754   7.451   0.272   5.493 -1.4066 -1.2277  1.0991
  176MOL0     H23755   7.358   0.418   5.460  2.6461  0.7887 -0.2892
  176MOL0     H23756   7.282   0.314   5.253 -0.9818  0.2987  0.6545
  176MOL0     H23757   7.376   0.165   5.298  1.0792  0.8174 -3.6157
  176MOL0     H23758   7.653   0.459   5.156 -0.6827 -0.7842 -1.4195
  176MOL0     H23759   6.792   0.188   5.721  0.9509 -0.0957 -0.2860
  176MOL0     H23760   6.559   0.240   5.667  1.0457  1.5153  2.2457
  177MOL0     O23761   7.493   3.063   3.895 -0.2849  0.0037  0.2811
  177MOL0     C23762   7.536   3.029   4.002 -0.8053  0.3065  0.2591
  177MOL0     O23763   7.463   2.984   4.110  0.2269 -0.6168  0.3816
  177MOL0     C23764   7.326   2.965   4.088 -0.0149 -0.6992 -0.3320
  177MOL0     C23765   7.272   2.834   4.070  0.4175  0.2244 -0.4099
  177MOL0     C23766   7.129   2.819   4.067 -0.2079 -0.0664 -1.0303
  177MOL0     C23767   7.034   2.920   4.081 -0.2455  0.1018  0.9378
  177MOL0     O23768   6.902   2.911   4.079 -0.5148  0.8126  0.2680
  177MOL0     C23769   6.851   2.887   4.210  0.4814  0.7606  0.7675
  177MOL0     C23770   6.705   2.911   4.211  1.1493 -0.2154  0.1424
  177MOL0     C23771   6.631   2.800   4.145  0.0209  0.4109  0.8334
  177MOL0     C23772   6.476   2.808   4.124  0.6900 -0.3536 -1.3177
  177MOL0     C23773   6.446   2.861   3.976 -0.1388  0.2038 -0.3018
  177MOL0     C23774   6.299   2.871   3.944  0.8652 -0.2038  0.4853
  177MOL0     C23775   6.236   2.737   3.897  0.4790 -0.6299 -0.2350
  177MOL0     C23776   6.102   2.758   3.819  0.2801 -0.5523 -0.1201
  177MOL0     N23777   5.986   2.809   3.889  0.7660 -0.4778 -0.0316
  177MOL0     C23778   5.940   2.939   3.889  0.7844  0.0588  0.5091
  177MOL0     C23779   5.821   2.925   3.962  0.7066  0.7913 -0.0233
  177MOL0     C23780   5.720   3.024   3.992 -0.0006  0.2512  0.9785
  177MOL0     C23781   5.615   3.053   3.879  0.4182  0.2144  0.7387
  177MOL0     C23782   5.507   2.943   3.847 -0.6292  0.0042 -0.2134
  177MOL0     C23783   5.423   2.901   3.968  0.4278  0.0218 -0.1596
  177MOL0     O23784   5.350   3.011   4.020  0.3717  0.5835 -0.3300
  177MOL0     C23785   5.227   3.040   3.972  0.3529  0.6981  0.6582
  177MOL0     C23786   5.169   2.993   3.851  0.4500 -0.0931 -0.1021
  177MOL0     C23787   5.035   3.035   3.815 -0.0638  0.6169 -0.7237
  177MOL0     C23788   4.971   2.967   3.702  0.0110  0.0641 -0.3149
  177MOL0     C23789   4.966   3.130   3.905  0.4465 -0.0697 -0.0909
  177MOL0     C23790   4.827   3.181   3.878  0.4453  0.6404 -0.4311
  177MOL0     O23791   4.796   3.212   3.747 -0.3994  0.3859  0.0822
  177MOL0     C23792   4.666   3.209   3.706 -0.6840  0.0860  0.7395
  177MOL0     C23793   4.580   3.315   3.726 -0.0421  0.5216 -0.2353
  177MOL0     C23794   4.448   3.320   3.668 -0.2890  0.0097  0.3310
  177MOL0     C23795   4.407   3.211   3.589 -0.5446  0.2562 -1.0327
  177MOL0     O23796   4.284   3.221   3.524 -0.0956  0.1032  0.9351
  177MOL0     C23797   4.209   3.106   3.493 -0.7652  0.0773  0.8611
  177MOL0     C23798   4.077   3.136   3.425 -0.9739 -0.8125 -0.4462
  177MOL0     C23799   4.012   3.010   3.354 -0.6835 -0.2095  0.0935
  177MOL0     C23800   3.878   3.039   3.287  0.7799 -0.9247  0.3575
  177MOL0     C23801   3.871   2.995   3.139  0.2940 -0.0537 -0.3330
  177MOL0     C23802   3.731   3.034   3.086 -0.0448  0.4398  0.7591
  177MOL0     C23803   3.619   2.977   3.166 -0.0782  0.3228  0.6448
  177MOL0     C23804   3.483   2.999   3.104 -0.0254 -0.1940  0.3136
  177MOL0    Cl23805   3.445   2.874   2.977  0.2684  0.0745  0.0285
  177MOL0     C23806   4.487   3.093   3.586  0.0301 -0.1137  0.1588
  177MOL0     C23807   4.615   3.093   3.652 -0.0543  0.0113 -0.0872
  177MOL0     O23808   4.759   3.205   3.980 -0.1631  0.4731  0.6715
  177MOL0     C23809   5.030   3.173   4.024  0.2360  1.2917  0.1341
  177MOL0     C23810   5.158   3.131   4.052 -0.2324 -0.3822 -0.6137
  177MOL0     N23811   5.807   2.794   3.998  0.7206 -0.0876  0.0100
  177MOL0     N23812   5.906   2.727   3.955  0.0984 -0.2272 -0.7564
  177MOL0     C23813   7.099   3.045   4.089  0.0240 -0.1334 -0.2213
  177MOL0     C23814   7.239   3.073   4.098  0.3943  0.4779  0.2697
  177MOL0     C23815   7.675   3.025   4.018 -0.1896  0.1097  0.4061
  177MOL0     C23816   7.760   2.986   3.913 -0.4898 -0.5480 -0.1081
  177MOL0     C23817   7.902   2.980   3.940  0.2089 -0.3272 -0.1312
  177MOL0     C23818   7.953   3.015   4.065 -0.1680 -0.2562  0.2902
  177MOL0     O23819   8.089   3.006   4.074  0.1236 -0.1361 -0.0996
  177MOL0     C23820   8.161   3.052   4.186  0.7751 -0.8179 -0.7129
  177MOL0     C23821   8.305   3.019   4.177  0.2684  0.3664 -0.3016
  177MOL0     C23822   8.381   3.106   4.080  0.1188  0.5743 -0.1492
  177MOL0     C23823   8.534   3.082   4.088  0.4575  0.3037  0.2483
  177MOL0     C23824   8.575   3.164   4.204 -0.3210 -0.3521  0.3589
  177MOL0     C23825   8.598   3.248   4.286  0.7336 -0.4916 -0.8748
  177MOL0     C23826   7.862   3.043   4.167  0.6240  0.5597 -0.8383
  177MOL0     C23827   7.728   3.051   4.140  0.0177 -0.6149  0.7675
  177MOL0     H23828   7.340   2.750   4.060  0.1010 -0.0573 -0.1993
  177MOL0     H23829   7.084   2.724   4.037 -3.7581  1.7788 -2.1611
  177MOL0     H23830   6.878   2.785   4.238  0.3292  0.9118  1.5005
  177MOL0     H23831   6.892   2.963   4.278 -1.7892  1.2423  1.6888
  177MOL0     H23832   6.668   2.924   4.313  2.0107  0.3349  0.3984
  177MOL0     H23833   6.677   3.003   4.158 -0.9002 -0.4079  0.7834
  177MOL0     H23834   6.690   2.774   4.057  0.1016  1.6377  0.5003
  177MOL0     H23835   6.635   2.718   4.218 -2.4942 -0.0670  0.5222
  177MOL0     H23836   6.431   2.709   4.134  1.0598 -0.2568  2.6529
  177MOL0     H23837   6.432   2.871   4.202 -1.1049 -0.7295 -1.9749
  177MOL0     H23838   6.494   2.958   3.963  3.6418 -1.7329 -2.5963
  177MOL0     H23839   6.504   2.805   3.902  0.7549  3.4096 -2.2125
  177MOL0     H23840   6.245   2.911   4.031 -1.3408 -0.0608 -0.8789
  177MOL0     H23841   6.289   2.943   3.862 -0.9914 -1.2515 -0.2620
  177MOL0     H23842   6.310   2.695   3.828  0.4143 -2.5710  0.8059
  177MOL0     H23843   6.231   2.663   3.978 -0.3127  0.8588  1.1301
  177MOL0     H23844   6.068   2.668   3.766 -0.5509 -0.0222 -0.5122
  177MOL0     H23845   6.133   2.824   3.738 -1.1123  1.2304  0.7301
  177MOL0     H23846   5.974   3.029   3.840  1.9221 -1.0786 -0.8712
  177MOL0     H23847   5.653   3.004   4.077  0.6282 -1.6096  1.0919
  177MOL0     H23848   5.766   3.121   4.011 -3.6784  2.9389 -2.2492
  177MOL0     H23849   5.675   3.090   3.796 -1.2883  1.7437  0.1114
  177MOL0     H23850   5.556   3.132   3.927 -0.4177  0.3893 -0.5456
  177MOL0     H23851   5.555   2.846   3.829 -1.7113 -0.4104 -0.9164
  177MOL0     H23852   5.444   2.966   3.761  2.4737 -1.6396 -3.1270
  177MOL0     H23853   5.501   2.863   4.036 -0.1267 -1.9952 -0.5762
  177MOL0     H23854   5.353   2.818   3.953  0.6046 -0.2309  0.3601
  177MOL0     H23855   5.219   2.915   3.795 -0.0183 -0.0762 -0.5449
  177MOL0     H23856   4.928   2.871   3.733 -0.3557 -0.0202 -1.0712
  177MOL0     H23857   4.897   3.023   3.645  0.7448 -1.4095 -2.9195
  177MOL0     H23858   5.046   2.949   3.625 -2.0451  0.4165 -2.5150
  177MOL0     H23859   4.627   3.404   3.765  2.0579  0.1936 -1.8856
  177MOL0     H23860   4.401   3.417   3.678  0.3067  0.5858 -1.9198
  177MOL0     H23861   4.263   3.046   3.420 -1.5522  2.1075 -1.5433
  177MOL0     H23862   4.194   3.053   3.588 -0.3025  1.4772  1.7473
  177MOL0     H23863   4.007   3.178   3.497 -0.4990 -0.3961 -0.2199
  177MOL0     H23864   4.086   3.212   3.347 -0.6739 -1.0039 -0.6014
  177MOL0     H23865   3.993   2.932   3.429  2.2874 -0.3659  0.7964
  177MOL0     H23866   4.079   2.964   3.281  0.9765  1.6875  0.3528
  177MOL0     H23867   3.799   2.997   3.349 -1.1547 -0.9024 -1.9385
  177MOL0     H23868   3.867   3.148   3.285  0.0272 -1.0039 -0.3181
  177MOL0     H23869   3.886   2.888   3.123  0.2136  0.2580 -2.8569
  177MOL0     H23870   3.948   3.043   3.078  0.1360 -1.7056 -1.9010
  177MOL0     H23871   3.722   3.143   3.083 -0.3545  0.5064  2.7533
  177MOL0     H23872   3.733   2.998   2.983 -3.6130 -0.5124  0.8880
  177MOL0     H23873   3.602   3.023   3.264 -5.1374  0.3737  0.0421
  177MOL0     H23874   3.636   2.871   3.183 -1.8437  0.5675  5.7200
  177MOL0     H23875   3.466   3.097   3.060  2.8683  0.3064  0.0918
  177MOL0     H23876   3.418   3.004   3.191 -0.7631  1.3228 -0.2889
  177MOL0     H23877   4.449   3.007   3.531  2.4814 -0.6933 -0.7299
  177MOL0     H23878   4.680   3.007   3.641  0.8553  0.2957  2.3176
  177MOL0     H23879   4.975   3.246   4.083 -0.4168  2.3391 -1.6918
  177MOL0     H23880   5.202   3.160   4.147 -2.2211 -1.7327  0.7990
  177MOL0     H23881   7.036   3.133   4.093  0.9319  0.6032 -1.5106
  177MOL0     H23882   7.268   3.176   4.112 -0.3896  0.7703 -0.2005
  177MOL0     H23883   7.706   2.950   3.826 -2.3726 -0.6423  1.0126
  177MOL0     H23884   7.979   2.959   3.867 -0.2742 -2.2551 -0.1371
  177MOL0     H23885   8.162   3.161   4.195  6.5235 -0.4648 -2.0495
  177MOL0     H23886   8.125   3.008   4.279  1.4839 -1.2277 -0.6280
  177MOL0     H23887   8.309   2.916   4.141  0.9569 -0.1667  1.1780
  177MOL0     H23888   8.350   3.031   4.276  0.1979  0.0009 -0.2249
  177MOL0     H23889   8.355   3.210   4.098 -1.9577 -0.3154  2.7079
  177MOL0     H23890   8.350   3.075   3.979  0.0717 -0.0170  0.0383
  177MOL0     H23891   8.572   3.128   3.996 -1.2158  0.4589 -0.3986
  177MOL0     H23892   8.561   2.978   4.107 -1.4126 -0.1753  0.4570
  177MOL0     H23893   8.616   3.336   4.345  2.7409 -0.5720 -1.2949
  177MOL0     H23894   7.900   3.074   4.263 -0.5069 -3.3441  1.1012
  177MOL0     H23895   7.667   3.066   4.229  2.4480 -0.4204  2.4982
  178MOL0     O23896   6.387   5.027   1.330 -0.0607 -0.3330  0.5849
  178MOL0     C23897   6.483   5.054   1.406  0.0623  1.3658 -0.0995
  178MOL0     O23898   6.466   5.096   1.534  0.2420  0.2871  0.3832
  178MOL0     C23899   6.342   5.110   1.590 -0.1826 -0.4725 -0.5470
  178MOL0     C23900   6.221   5.047   1.552 -0.4048  0.3717 -1.2912
  178MOL0     C23901   6.100   5.082   1.626 -0.2754 -0.1502 -0.0538
  178MOL0     C23902   6.089   5.168   1.735  0.4929 -0.5223 -0.3013
  178MOL0     O23903   5.970   5.210   1.790  0.8030  0.0975 -0.4633
  178MOL0     C23904   5.857   5.126   1.769  0.4241  0.3052  0.1843
  178MOL0     C23905   5.732   5.203   1.811  0.2080 -0.3377  1.4663
  178MOL0     C23906   5.605   5.125   1.795 -0.2570  0.0886 -0.5211
  178MOL0     C23907   5.489   5.211   1.833  0.4528 -0.0203  0.6371
  178MOL0     C23908   5.352   5.153   1.842 -0.2813  0.0946  0.1518
  178MOL0     C23909   5.241   5.254   1.874  0.2133  0.9065 -0.0625
  178MOL0     C23910   5.096   5.210   1.842 -0.1209 -0.5241 -0.1834
  178MOL0     C23911   5.052   5.093   1.928 -0.2633 -0.0940 -0.6432
  178MOL0     N23912   4.907   5.075   1.899 -0.0844 -0.1176 -0.7465
  178MOL0     C23913   4.800   5.123   1.969  0.3583  0.3048 -0.1429
  178MOL0     C23914   4.686   5.076   1.908 -0.0460 -0.0851 -0.4201
  178MOL0     C23915   4.553   5.122   1.958  0.2664 -0.7585  0.8601
  178MOL0     C23916   4.536   5.274   1.900 -0.4642  0.5727  0.2396
  178MOL0     C23917   4.417   5.348   1.954 -0.5508 -0.1087 -0.3002
  178MOL0     C23918   4.275   5.303   1.900  0.5886 -0.1815  0.6582
  178MOL0     O23919   4.184   5.410   1.924 -1.0510 -0.0530 -0.5164
  178MOL0     C23920   4.056   5.401   1.879  0.3350  0.1348 -0.0689
  178MOL0     C23921   3.965   5.496   1.927 -1.1536  0.4788 -0.1907
  178MOL0     C23922   3.835   5.516   1.887  0.5361  0.1042  0.1753
  178MOL0     C23923   3.753   5.629   1.949  0.3978  0.1220  0.2687
  178MOL0     C23924   3.787   5.426   1.788 -0.0647 -0.2185  0.8893
  178MOL0     C23925   3.643   5.412   1.746 -0.3397  0.7037 -0.1714
  178MOL0     O23926   3.572   5.530   1.733  0.4538 -0.3263  0.5098
  178MOL0     C23927   3.438   5.519   1.692  0.9209  0.0370 -0.6799
  178MOL0     C23928   3.342   5.480   1.790 -0.6104 -1.1232 -0.1723
  178MOL0     C23929   3.210   5.477   1.748  0.0421 -0.5835  0.5805
  178MOL0     C23930   3.165   5.500   1.618 -0.6128  0.6150  0.9770
  178MOL0     O23931   3.037   5.487   1.583 -0.2183  0.7286 -0.0042
  178MOL0     C23932   2.995   5.553   1.463 -0.7598 -0.0733 -0.3986
  178MOL0     C23933   2.982   5.444   1.352 -0.4011  0.1713 -0.4733
  178MOL0     C23934   2.842   5.388   1.366 -0.1044 -0.0954 -0.7756
  178MOL0     C23935   2.790   5.321   1.239  0.0260 -0.4643  0.8323
  178MOL0     C23936   2.645   5.278   1.253  0.0128 -1.2187 -0.2024
  178MOL0     C23937   2.553   5.395   1.300  0.0600  0.0961 -0.7386
  178MOL0     C23938   2.408   5.351   1.288 -0.8499 -0.2617 -0.1790
  178MOL0     C23939   2.367   5.225   1.367  0.0287 -0.8101 -0.9278
  178MOL0    Cl23940   2.184   5.211   1.367 -0.5879  0.4599 -0.3116
  178MOL0     C23941   3.269   5.523   1.525 -0.5945  0.0525 -1.1177
  178MOL0     C23942   3.407   5.545   1.560 -0.3818  0.3419  0.0620
  178MOL0     O23943   3.605   5.297   1.713  0.0723 -0.1681 -0.2203
  178MOL0     C23944   3.880   5.331   1.737 -0.4756  0.1999 -0.1727
  178MOL0     C23945   4.012   5.317   1.784 -0.0433 -0.5659  0.1489
  178MOL0     N23946   4.727   5.000   1.797 -0.4802  0.2404 -0.0036
  178MOL0     N23947   4.864   5.001   1.795  0.5101 -0.3153 -0.0485
  178MOL0     C23948   6.214   5.221   1.774 -0.0142 -0.1248 -0.8068
  178MOL0     C23949   6.335   5.203   1.701 -0.6137 -0.3076  0.3958
  178MOL0     C23950   6.614   5.060   1.340 -0.4261  0.7411 -1.1175
  178MOL0     C23951   6.718   5.120   1.411 -0.3733  0.3441  0.3364
  178MOL0     C23952   6.848   5.108   1.355  0.2105  0.8508 -1.0549
  178MOL0     C23953   6.871   5.037   1.239  0.0371 -0.5405 -0.2622
  178MOL0     O23954   6.999   5.035   1.190  0.0634 -0.0457  0.2342
  178MOL0     C23955   7.021   5.067   1.046 -0.2207  0.3416 -0.3939
  178MOL0     C23956   7.157   5.118   1.018 -0.4110  0.4921  0.5962
  178MOL0     C23957   7.261   5.009   1.003  0.0250  0.4607  0.3789
  178MOL0     C23958   7.311   4.980   1.141  0.4454 -0.0041  0.2306
  178MOL0     C23959   7.415   4.879   1.135 -0.0636  1.3905  0.6344
  178MOL0     C23960   7.497   4.791   1.142  0.1056 -0.6294  0.7721
  178MOL0     C23961   6.763   5.005   1.160 -1.0003  1.2476  0.0491
  178MOL0     C23962   6.640   5.006   1.212 -0.9052  1.0231 -0.5643
  178MOL0     H23963   6.198   4.982   1.467  4.4611 -2.5878 -0.6901
  178MOL0     H23964   6.016   5.039   1.572 -0.3882 -0.4640  0.3662
  178MOL0     H23965   5.851   5.094   1.665  1.8638 -1.7981  0.6815
  178MOL0     H23966   5.861   5.034   1.828 -0.7736 -0.6439 -1.1455
  178MOL0     H23967   5.742   5.231   1.917 -0.8440  0.4538  1.3674
  178MOL0     H23968   5.723   5.299   1.759 -1.4859 -0.3910  1.6128
  178MOL0     H23969   5.595   5.088   1.692  2.9101  1.1414 -1.3355
  178MOL0     H23970   5.611   5.039   1.863  1.3053 -1.2862 -2.2699
  178MOL0     H23971   5.516   5.245   1.934  3.3116  0.2762 -0.1203
  178MOL0     H23972   5.486   5.304   1.776 -0.0079  0.6826  1.7746
  178MOL0     H23973   5.337   5.106   1.745  0.8763  0.4103 -0.1856
  178MOL0     H23974   5.352   5.070   1.913  1.6581  1.3941  1.7601
  178MOL0     H23975   5.247   5.283   1.979 -2.5509 -3.2619  1.5223
  178MOL0     H23976   5.265   5.346   1.821 -2.0928  3.2688  2.6402
  178MOL0     H23977   5.022   5.285   1.870 -0.4561 -0.8304 -0.2476
  178MOL0     H23978   5.100   5.189   1.735 -0.0672 -0.6195 -0.1627
  178MOL0     H23979   5.060   5.118   2.034  0.4482  0.6614 -0.8709
  178MOL0     H23980   5.107   5.001   1.906 -0.0365 -0.9270  2.8431
  178MOL0     H23981   4.812   5.185   2.058 -2.5578  0.7674  0.0183
  178MOL0     H23982   4.477   5.055   1.916  1.0789 -1.9488  1.2444
  178MOL0     H23983   4.550   5.109   2.066 -5.1981  0.1105  1.1133
  178MOL0     H23984   4.514   5.262   1.794 -2.6462  1.6034  0.5074
  178MOL0     H23985   4.622   5.339   1.916 -1.1812  1.7705 -0.6380
  178MOL0     H23986   4.433   5.455   1.937  2.7822 -0.1340  1.8473
  178MOL0     H23987   4.418   5.339   2.063  1.1118 -1.0351 -0.3746
  178MOL0     H23988   4.233   5.211   1.942 -3.2579  0.3410 -1.6039
  178MOL0     H23989   4.285   5.291   1.792  1.0436  1.9139  0.4226
  178MOL0     H23990   3.987   5.566   2.008 -1.1712  0.8500 -0.5051
  178MOL0     H23991   3.645   5.611   1.947 -0.3141  3.7423 -0.7963
  178MOL0     H23992   3.788   5.636   2.052  1.6967 -1.3732 -0.0259
  178MOL0     H23993   3.775   5.721   1.895  1.2521 -0.3644 -0.2450
  178MOL0     H23994   3.368   5.468   1.895 -1.6723 -0.7663  0.1429
  178MOL0     H23995   3.128   5.445   1.811  1.3063 -1.8464  1.6297
  178MOL0     H23996   2.901   5.608   1.479 -0.9507 -0.9762  2.1143
  178MOL0     H23997   3.063   5.628   1.423  1.3820 -3.4736 -3.7475
  178MOL0     H23998   2.994   5.491   1.254 -2.9758  2.8645  0.3428
  178MOL0     H23999   3.058   5.367   1.363 -0.4499  0.2151  0.1842
  178MOL0     H24000   2.784   5.476   1.396  2.0648  0.9568  0.5962
  178MOL0     H24001   2.828   5.304   1.434 -1.7798  0.0494 -0.9063
  178MOL0     H24002   2.794   5.388   1.153 -3.2837  1.1686  1.7755
  178MOL0     H24003   2.858   5.239   1.213  0.0866 -0.1190 -0.1374
  178MOL0     H24004   2.644   5.201   1.331  0.2052 -0.9278  0.0897
  178MOL0     H24005   2.612   5.228   1.162 -2.2806  1.4333 -0.9919
  178MOL0     H24006   2.576   5.427   1.402 -0.3699  2.3647 -1.3009
  178MOL0     H24007   2.568   5.488   1.245  0.4181 -0.4491 -1.5833
  178MOL0     H24008   2.397   5.325   1.182  2.1480 -1.2950 -0.3171
  178MOL0     H24009   2.344   5.434   1.321 -0.4725  0.1286 -0.4082
  178MOL0     H24010   2.380   5.237   1.475  0.2222 -0.9263 -0.9389
  178MOL0     H24011   2.423   5.135   1.342  0.3155 -1.1589  0.7899
  178MOL0     H24012   3.236   5.535   1.422 -0.0042 -0.7430 -1.4096
  178MOL0     H24013   3.477   5.568   1.480 -0.3199  1.4974  0.4229
  178MOL0     H24014   3.851   5.256   1.664  0.4626  2.0622 -2.5916
  178MOL0     H24015   4.076   5.256   1.721  0.8995 -1.2599  1.7189
  178MOL0     H24016   6.219   5.295   1.854  0.4782  1.8930 -2.6202
  178MOL0     H24017   6.430   5.244   1.735 -0.7311 -1.3500  2.0986
  178MOL0     H24018   6.706   5.174   1.505 -0.9190  1.7010 -0.4906
  178MOL0     H24019   6.940   5.143   1.402 -0.0048  0.0355  0.0137
  178MOL0     H24020   7.009   4.969   1.000  0.9213 -1.4300  2.7559
  178MOL0     H24021   6.947   5.138   1.008  0.8859  1.3351 -0.7576
  178MOL0     H24022   7.188   5.195   1.089 -1.4604  0.1717  1.4360
  178MOL0     H24023   7.147   5.154   0.915 -2.4275 -0.3392  0.4540
  178MOL0     H24024   7.342   5.050   0.942  1.2754 -1.3742  0.7610
  178MOL0     H24025   7.222   4.919   0.955 -2.6850  1.9154 -0.3616
  178MOL0     H24026   7.227   4.947   1.203 -0.0822  0.3737 -0.2767
  178MOL0     H24027   7.367   5.064   1.184  1.0631 -1.1313  1.7453
  178MOL0     H24028   7.563   4.707   1.154  0.5010 -0.8013 -1.9370
  178MOL0     H24029   6.767   4.973   1.057 -1.1270 -2.8203  1.1275
  178MOL0     H24030   6.557   4.965   1.156 -0.5809  0.4631 -0.6471
  179MOL0     O24031   3.088  10.381   6.668  0.4662  0.7367 -0.1964
  179MOL0     C24032   3.147  10.281   6.614 -0.4327 -0.2634 -0.2247
  179MOL0     O24033   3.087  10.186   6.537  0.6288 -0.3409  0.3402
  179MOL0     C24034   2.953  10.204   6.496 -0.4321 -0.1873  0.5803
  179MOL0     C24035   2.925  10.209   6.354  0.1316  0.5626  0.3355
  179MOL0     C24036   2.795  10.218   6.321  0.3747  0.4284 -0.9299
  179MOL0     C24037   2.690  10.231   6.415  0.9697 -0.2950 -0.5017
  179MOL0     O24038   2.564  10.273   6.372 -0.2210 -0.3429 -0.1748
  179MOL0     C24039   2.515  10.390   6.440 -0.5215 -0.5407  0.0108
  179MOL0     C24040   2.401  10.451   6.373  0.3368  0.2482 -0.0325
  179MOL0     C24041   2.264  10.380   6.408  0.4053  0.5725 -0.3545
  179MOL0     C24042   2.239  10.246   6.338  0.5654 -0.2442  0.4002
  179MOL0     C24043   2.097  10.191   6.344 -0.1671  0.3590  0.7437
  179MOL0     C24044   1.992  10.264   6.262  0.3010  0.9637  0.3038
  179MOL0     C24045   1.857  10.192   6.251 -0.2046  0.7575  0.2363
  179MOL0     C24046   1.746  10.270   6.187  0.0356 -0.4125  0.7631
  179MOL0     N24047   1.641  10.189   6.123  0.5115  0.2097  0.7309
  179MOL0     C24048   1.647  10.127   6.000  0.1187  0.1121 -0.2227
  179MOL0     C24049   1.519  10.106   5.965 -0.1128  0.1511 -0.1941
  179MOL0     C24050   1.469  10.007   5.851 -0.3102 -0.4686  0.5454
  179MOL0     C24051   1.494  10.067   5.709 -0.1186 -0.0596 -0.5634
  179MOL0     C24052   1.419   9.975   5.610 -0.1649 -0.2852 -0.1224
  179MOL0     C24053   1.417  10.027   5.467 -0.2766 -0.2393  0.5055
  179MOL0     O24054   1.551  10.043   5.415  0.5134  0.5910  0.3917
  179MOL0     C24055   1.613   9.922   5.392  0.2746 -0.1096 -0.2180
  179MOL0     C24056   1.558   9.822   5.309  0.3274  0.2332  0.1311
  179MOL0     C24057   1.637   9.705   5.284  0.1890  0.3732  0.3975
  179MOL0     C24058   1.568   9.621   5.186  0.1151  0.3527  0.3951
  179MOL0     C24059   1.754   9.675   5.352  0.7372  0.3693  0.3253
  179MOL0     C24060   1.838   9.551   5.328  0.6027 -0.2470  0.3566
  179MOL0     O24061   1.947   9.537   5.400 -0.1050  0.2151  0.0689
  179MOL0     C24062   2.053   9.447   5.368  0.3137 -0.0132 -0.5065
  179MOL0     C24063   2.041   9.328   5.294 -0.6721 -1.0065 -0.3617
  179MOL0     C24064   2.157   9.258   5.270  0.4140  0.3849 -0.2382
  179MOL0     C24065   2.280   9.292   5.315  0.6351  0.5973 -0.1166
  179MOL0     O24066   2.386   9.219   5.286  0.1598  0.6986  0.1804
  179MOL0     C24067   2.419   9.190   5.153 -0.2107  0.8690 -0.5912
  179MOL0     C24068   2.564   9.135   5.156  0.2044 -0.1763  0.1586
  179MOL0     C24069   2.665   9.218   5.242 -0.6252  0.0401 -0.3819
  179MOL0     C24070   2.817   9.198   5.213  1.1581 -0.2320 -0.1518
  179MOL0     C24071   2.895   9.265   5.324  0.1453  0.0782 -0.0184
  179MOL0     C24072   3.031   9.330   5.279 -0.0430 -0.1597  0.2604
  179MOL0     C24073   3.131   9.247   5.188  0.3331 -0.0674  0.5778
  179MOL0     C24074   3.273   9.304   5.155  0.6835  0.3347 -0.1459
  179MOL0    Cl24075   3.375   9.188   5.060  0.0689  0.3261 -0.0943
  179MOL0     C24076   2.291   9.404   5.392 -0.2635 -0.5666 -0.4825
  179MOL0     C24077   2.176   9.483   5.418  0.4450  0.4824 -0.0120
  179MOL0     O24078   1.801   9.480   5.239  0.1476  0.0525 -0.2298
  179MOL0     C24079   1.809   9.777   5.434  0.3223  0.1775  0.1710
  179MOL0     C24080   1.739   9.893   5.452  0.0689  0.5437  0.6188
  179MOL0     N24081   1.438  10.146   6.063  1.3033  0.4608 -0.0828
  179MOL0     N24082   1.506  10.196   6.160 -0.3314  0.0125  0.5923
  179MOL0     C24083   2.717  10.213   6.551  0.7779  0.2636  0.2633
  179MOL0     C24084   2.855  10.209   6.591 -0.7574  0.1268 -0.2450
  179MOL0     C24085   3.287  10.259   6.649  0.1896  0.7641  0.7639
  179MOL0     C24086   3.368  10.353   6.716  0.1441 -0.4262  0.1657
  179MOL0     C24087   3.505  10.335   6.743  0.1514  0.2932  0.0537
  179MOL0     C24088   3.566  10.211   6.704  0.7655 -0.7783 -0.3058
  179MOL0     O24089   3.696  10.189   6.741  0.4228  0.2239  0.0390
  179MOL0     C24090   3.790  10.292   6.714 -0.0115 -0.1741  1.1418
  179MOL0     C24091   3.934  10.251   6.741  0.2886 -0.6689 -0.4027
  179MOL0     C24092   3.990  10.149   6.652  0.8060  0.5214  0.4472
  179MOL0     C24093   4.110  10.072   6.705  0.0792 -0.1160 -0.4050
  179MOL0     C24094   4.169   9.982   6.596  0.0366  0.1141 -0.3867
  179MOL0     C24095   4.217   9.907   6.514 -0.3470 -0.2272 -0.7381
  179MOL0     C24096   3.489  10.111   6.641  0.6077  0.0647 -0.4255
  179MOL0     C24097   3.354  10.137   6.622 -0.0612  0.5821 -0.0472
  179MOL0     H24098   3.004  10.211   6.279 -0.2250  0.2841 -0.0505
  179MOL0     H24099   2.763  10.209   6.218 -0.9894 -1.5243 -0.3897
  179MOL0     H24100   2.476  10.370   6.540  0.0239  0.2528  0.3846
  179MOL0     H24101   2.597  10.462   6.452 -1.7849  1.1510 -1.0818
  179MOL0     H24102   2.392  10.548   6.422  0.6701 -0.6979  1.9788
  179MOL0     H24103   2.422  10.465   6.266 -1.6594  0.1177 -0.4971
  179MOL0     H24104   2.262  10.366   6.517 -1.5778  3.4980  0.1266
  179MOL0     H24105   2.188  10.459   6.411 -0.1034  0.1465  3.1156
  179MOL0     H24106   2.261  10.263   6.232 -3.0160  2.5538 -0.1061
  179MOL0     H24107   2.308  10.169   6.374  1.0658  0.3820  0.8252
  179MOL0     H24108   2.112  10.090   6.304 -2.4201  0.7234 -1.2303
  179MOL0     H24109   2.043  10.191   6.439 -3.2922  1.1157 -0.8981
  179MOL0     H24110   1.982  10.365   6.302 -0.7883  1.4882 -1.1810
  179MOL0     H24111   2.018  10.285   6.158 -1.1285 -1.2821 -0.5817
  179MOL0     H24112   1.865  10.096   6.199  0.0530  1.9260 -1.9839
  179MOL0     H24113   1.830  10.165   6.353  0.8845 -2.1327 -0.1260
  179MOL0     H24114   1.793  10.322   6.104  0.4213 -3.0930 -0.8249
  179MOL0     H24115   1.702  10.347   6.251  0.1761  0.5456 -0.2746
  179MOL0     H24116   1.739  10.106   5.946  1.7244 -1.1959  2.7696
  179MOL0     H24117   1.510   9.906   5.855 -1.8946 -1.1090  2.7297
  179MOL0     H24118   1.362   9.999   5.873 -0.5727  1.0933 -0.0101
  179MOL0     H24119   1.600  10.066   5.682 -0.1509  1.2179 -0.8227
  179MOL0     H24120   1.453  10.168   5.716  0.9254  0.3896 -0.6955
  179MOL0     H24121   1.314   9.975   5.640 -0.5785  0.3408 -1.5051
  179MOL0     H24122   1.457   9.873   5.604 -0.1255 -0.1897 -1.9668
  179MOL0     H24123   1.355  10.116   5.457  0.6950  0.4825  0.7420
  179MOL0     H24124   1.357   9.949   5.419 -1.6640  1.4058 -0.5359
  179MOL0     H24125   1.459   9.831   5.265 -0.5063  0.1580  1.9206
  179MOL0     H24126   1.545   9.529   5.240 -0.0925  2.1062  3.5658
  179MOL0     H24127   1.474   9.659   5.144  0.9084  0.0338 -1.8040
  179MOL0     H24128   1.637   9.603   5.103 -1.0541 -2.7553 -0.0139
  179MOL0     H24129   1.948   9.282   5.261 -0.7591 -0.1212 -1.4160
  179MOL0     H24130   2.159   9.161   5.222  0.8633 -0.5468  1.5550
  179MOL0     H24131   2.340   9.127   5.110 -0.0381  0.1301  0.1440
  179MOL0     H24132   2.426   9.282   5.096  2.4257  1.7925  1.0705
  179MOL0     H24133   2.549   9.036   5.201 -0.7650  0.2598  0.8146
  179MOL0     H24134   2.594   9.115   5.053  0.3308  3.6603 -0.7068
  179MOL0     H24135   2.652   9.186   5.346  2.3743  0.7533  0.3140
  179MOL0     H24136   2.648   9.325   5.231 -1.2631  0.0666  0.7977
  179MOL0     H24137   2.849   9.094   5.207 -0.4355 -0.7978  0.4960
  179MOL0     H24138   2.848   9.241   5.118  3.1950 -1.1829  0.0270
  179MOL0     H24139   2.909   9.202   5.412  2.0806  0.7459  0.2042
  179MOL0     H24140   2.843   9.356   5.354  2.1007  1.7621 -1.3526
  179MOL0     H24141   3.019   9.429   5.232  0.2849  0.5023  1.5401
  179MOL0     H24142   3.086   9.354   5.370  2.3060 -4.4414  0.2037
  179MOL0     H24143   3.087   9.217   5.092  2.7484 -0.6017 -0.4488
  179MOL0     H24144   3.151   9.154   5.241 -0.9127 -0.9061 -0.3571
  179MOL0     H24145   3.320   9.319   5.252  1.2380  2.3672 -0.6716
  179MOL0     H24146   3.256   9.397   5.100 -2.7750 -0.7493 -1.2198
  179MOL0     H24147   2.388   9.440   5.424 -0.9410  0.0497  0.9387
  179MOL0     H24148   2.174   9.575   5.476  0.0988  0.1710  0.4780
  179MOL0     H24149   1.910   9.775   5.474  0.7976  2.8834 -0.6673
  179MOL0     H24150   1.783   9.977   5.503  2.5248 -1.1694  1.5041
  179MOL0     H24151   2.630  10.220   6.615  0.7550 -2.7935  0.6792
  179MOL0     H24152   2.884  10.200   6.696  0.2809 -0.8621 -0.5988
  179MOL0     H24153   3.313  10.440   6.750 -3.1686 -2.9923  1.9690
  179MOL0     H24154   3.562  10.410   6.799  0.8638 -0.9968  1.1135
  179MOL0     H24155   3.779  10.318   6.609 -1.8537  0.7211  1.5152
  179MOL0     H24156   3.760  10.376   6.777  0.7442  1.0052 -0.0391
  179MOL0     H24157   3.943  10.218   6.845  1.2820  0.4880 -0.0931
  179MOL0     H24158   4.002  10.335   6.727  2.5602 -2.4661 -0.8722
  179MOL0     H24159   4.024  10.200   6.562  2.5195  0.5394  1.0740
  179MOL0     H24160   3.918  10.072   6.622  2.6028  0.3944 -4.3282
  179MOL0     H24161   4.098  10.024   6.802  1.1060 -1.0597 -0.7176
  179MOL0     H24162   4.181  10.153   6.724  1.2188 -1.4222  1.2714
  179MOL0     H24163   4.263   9.827   6.460  1.7067  0.5554 -0.2479
  179MOL0     H24164   3.531  10.016   6.610  3.6334  1.1973 -0.2135
  179MOL0     H24165   3.296  10.063   6.568  1.4590 -0.9310  0.2984
  180MOL0     O24166   3.702   8.718   3.979 -0.0186  0.4094 -0.4946
  180MOL0     C24167   3.760   8.612   3.977 -0.1382 -0.1471 -0.5659
  180MOL0     O24168   3.706   8.487   3.944  0.4980 -0.5675  0.2118
  180MOL0     C24169   3.578   8.484   3.900 -0.0245  1.1075 -0.0172
  180MOL0     C24170   3.545   8.472   3.768 -0.1675 -0.7285  0.2819
  180MOL0     C24171   3.417   8.442   3.725 -0.2528  0.1710  0.1779
  180MOL0     C24172   3.316   8.428   3.823  0.3895 -1.1408 -0.1287
  180MOL0     O24173   3.188   8.391   3.787  0.2267  0.9109 -0.2627
  180MOL0     C24174   3.176   8.266   3.715  0.5781  0.3236 -0.5031
  180MOL0     C24175   3.033   8.208   3.735 -1.0119 -0.0678 -0.2846
  180MOL0     C24176   3.032   8.136   3.874  0.4455 -0.1094 -0.6636
  180MOL0     C24177   2.894   8.071   3.897 -0.4143 -0.4662 -0.4076
  180MOL0     C24178   2.887   8.004   4.033 -0.1209  0.6211 -0.2225
  180MOL0     C24179   2.744   7.957   4.057 -0.3829 -0.7248 -0.6684
  180MOL0     C24180   2.717   7.889   4.196 -0.6704 -1.0247 -0.0999
  180MOL0     C24181   2.740   7.975   4.324  0.4419 -0.6635  0.3604
  180MOL0     N24182   2.670   8.106   4.304  0.4143 -0.3548 -0.4016
  180MOL0     C24183   2.537   8.121   4.273  0.4960  0.6384 -0.1191
  180MOL0     C24184   2.507   8.253   4.288  0.6277  0.0480  0.3737
  180MOL0     C24185   2.366   8.308   4.290 -0.4247 -0.2809 -0.7025
  180MOL0     C24186   2.287   8.274   4.167 -0.0290  0.1340  0.0233
  180MOL0     C24187   2.177   8.385   4.144 -0.9215  0.2500  0.1927
  180MOL0     C24188   2.215   8.508   4.050  0.1878  0.1642 -1.0847
  180MOL0     O24189   2.262   8.471   3.922  0.7930 -0.6765 -0.1908
  180MOL0     C24190   2.180   8.472   3.811  0.0933  0.6531  0.7715
  180MOL0     C24191   2.211   8.541   3.692  0.1211  0.4583  0.2216
  180MOL0     C24192   2.110   8.568   3.592 -0.4322 -0.4483  0.4837
  180MOL0     C24193   2.154   8.645   3.469  0.2895 -0.4515 -0.0822
  180MOL0     C24194   1.978   8.531   3.613  0.1723  0.0520 -0.1887
  180MOL0     C24195   1.869   8.562   3.517 -0.1266 -0.6629 -0.4312
  180MOL0     O24196   1.749   8.585   3.578 -0.6535 -0.0664 -0.6486
  180MOL0     C24197   1.627   8.579   3.515 -0.9561  0.1711  0.0398
  180MOL0     C24198   1.513   8.633   3.569 -0.0931 -1.0044 -0.2586
  180MOL0     C24199   1.382   8.626   3.513 -0.6563 -0.9547 -0.2031
  180MOL0     C24200   1.372   8.563   3.381 -0.0994 -0.2000 -0.3087
  180MOL0     O24201   1.256   8.523   3.324  0.8209 -0.0155  0.0489
  180MOL0     C24202   1.137   8.531   3.405 -0.1381  0.0885  0.4455
  180MOL0     C24203   1.028   8.459   3.329 -0.1967 -0.3982  0.3347
  180MOL0     C24204   0.895   8.462   3.408  0.3263 -0.3903 -0.8321
  180MOL0     C24205   0.798   8.379   3.339  0.1416 -0.0675  0.5996
  180MOL0     C24206   0.659   8.392   3.419  0.2236 -0.4862  0.0936
  180MOL0     C24207   0.606   8.255   3.476 -0.3158  0.2120 -0.0628
  180MOL0     C24208   0.477   8.271   3.550 -0.5609 -1.3175  0.3188
  180MOL0     C24209   0.460   8.142   3.635 -0.2419  0.5903 -0.1633
  180MOL0    Cl24210   0.572   8.148   3.773  0.2834 -0.4941 -0.0051
  180MOL0     C24211   1.483   8.506   3.333 -0.2640  0.0628  0.5832
  180MOL0     C24212   1.612   8.509   3.395  0.5517 -1.1419  0.9683
  180MOL0     O24213   1.897   8.578   3.399 -0.0093  0.0340 -0.0767
  180MOL0     C24214   1.943   8.457   3.727 -1.1098 -0.6185 -0.5186
  180MOL0     C24215   2.046   8.428   3.822 -0.1120 -0.0383 -0.2301
  180MOL0     N24216   2.623   8.317   4.316 -0.3183 -0.3740  0.2663
  180MOL0     N24217   2.724   8.230   4.325  0.7174  0.0173  0.5538
  180MOL0     C24218   3.347   8.443   3.952  0.6283 -0.9455  0.1944
  180MOL0     C24219   3.483   8.472   3.994  0.5586  0.1418  0.3029
  180MOL0     C24220   3.905   8.618   3.998 -0.0986 -0.4886 -0.1952
  180MOL0     C24221   3.989   8.504   3.977 -0.4799 -0.2071 -0.0522
  180MOL0     C24222   4.129   8.513   4.012  0.9941  0.8063 -0.4871
  180MOL0     C24223   4.182   8.624   4.067  0.3067 -0.8243  0.6643
  180MOL0     O24224   4.307   8.619   4.115  0.1556  0.2599 -0.3106
  180MOL0     C24225   4.409   8.675   4.034 -0.2988 -0.1547  0.4783
  180MOL0     C24226   4.545   8.615   4.064  0.1158  0.2296  0.3807
  180MOL0     C24227   4.556   8.465   4.061 -0.5530  0.5107 -0.2432
  180MOL0     C24228   4.699   8.438   4.099 -0.1340 -0.5431 -0.2960
  180MOL0     C24229   4.705   8.304   4.155  0.2816  0.4591 -0.1151
  180MOL0     C24230   4.709   8.200   4.225 -0.0910  0.0075 -0.7185
  180MOL0     C24231   4.100   8.737   4.090  0.4641  0.2678  0.8914
  180MOL0     C24232   3.961   8.733   4.058 -0.2869 -0.6194  1.3280
  180MOL0     H24233   3.625   8.467   3.695 -1.1653 -2.0950 -0.7785
  180MOL0     H24234   3.390   8.428   3.621  3.2400  0.6834 -0.9316
  180MOL0     H24235   3.179   8.285   3.608 -0.9507 -1.9046 -1.0334
  180MOL0     H24236   3.250   8.190   3.741  1.5896  2.1062  2.2434
  180MOL0     H24237   2.956   8.285   3.723 -1.4584 -0.1224  1.9074
  180MOL0     H24238   3.025   8.139   3.651  0.0986  1.7119 -1.9349
  180MOL0     H24239   3.102   8.052   3.879 -1.3849 -1.9083 -2.9325
  180MOL0     H24240   3.049   8.210   3.952  1.2744 -0.4950 -0.4716
  180MOL0     H24241   2.815   8.147   3.893  0.7472  0.7547 -3.9647
  180MOL0     H24242   2.887   7.994   3.820 -1.2133 -0.7200 -0.0828
  180MOL0     H24243   2.957   7.920   4.037 -1.7825 -0.8586 -1.0933
  180MOL0     H24244   2.911   8.077   4.111  1.4999  1.1665 -1.1677
  180MOL0     H24245   2.671   8.036   4.037 -1.0662 -0.9351  0.8294
  180MOL0     H24246   2.732   7.873   3.988  1.4143 -0.0008 -1.9505
  180MOL0     H24247   2.620   7.838   4.187 -0.4696 -1.2071 -1.3959
  180MOL0     H24248   2.788   7.807   4.200  0.9838  0.3410 -0.3069
  180MOL0     H24249   2.846   7.987   4.345 -0.0875 -0.1831  3.1114
  180MOL0     H24250   2.696   7.917   4.406 -0.6985  0.7166  0.7669
  180MOL0     H24251   2.462   8.045   4.252  2.4327 -1.6362  0.6593
  180MOL0     H24252   2.322   8.263   4.379  1.6547  1.0324  1.0877
  180MOL0     H24253   2.354   8.415   4.308 -2.1989 -0.6785  0.7595
  180MOL0     H24254   2.235   8.178   4.171 -1.7597  0.8954 -2.1116
  180MOL0     H24255   2.353   8.288   4.081  2.3072  2.2514  1.9790
  180MOL0     H24256   2.142   8.428   4.239 -0.6927  0.0555  0.3670
  180MOL0     H24257   2.091   8.329   4.107 -2.4364  0.5805  2.9155
  180MOL0     H24258   2.279   8.567   4.115  0.3692 -1.8742  0.7077
  180MOL0     H24259   2.122   8.566   4.044  0.4211  0.5871 -0.6486
  180MOL0     H24260   2.303   8.594   3.670 -0.2017  0.6297 -0.7587
  180MOL0     H24261   2.136   8.579   3.383  3.5567 -3.6073  1.3853
  180MOL0     H24262   2.101   8.740   3.453 -0.1423 -0.7756 -0.6060
  180MOL0     H24263   2.261   8.670   3.469  0.1231  0.3008  0.0632
  180MOL0     H24264   1.533   8.683   3.663  2.8679  1.5154 -2.0464
  180MOL0     H24265   1.293   8.671   3.556  0.9256  0.3494  1.9209
  180MOL0     H24266   1.159   8.497   3.506  2.3821 -0.0418 -0.0651
  180MOL0     H24267   1.126   8.640   3.410  2.8171  0.4326  1.4221
  180MOL0     H24268   1.017   8.515   3.236 -0.3186 -0.5005  0.2884
  180MOL0     H24269   1.053   8.355   3.306 -4.1600 -1.2087 -1.0855
  180MOL0     H24270   0.853   8.559   3.435 -1.7725 -2.0059  2.5140
  180MOL0     H24271   0.925   8.423   3.506  1.9263  1.5322 -0.4908
  180MOL0     H24272   0.802   8.412   3.235  1.5476  2.3948  1.3464
  180MOL0     H24273   0.823   8.274   3.321  1.4123  0.5371 -1.4918
  180MOL0     H24274   0.583   8.434   3.353  1.6126  1.9068 -0.0912
  180MOL0     H24275   0.666   8.467   3.498  2.3449 -1.4145  0.8445
  180MOL0     H24276   0.573   8.191   3.393 -4.1135 -0.3096  1.6394
  180MOL0     H24277   0.681   8.209   3.541 -1.9302  0.7243  2.2683
  180MOL0     H24278   0.401   8.270   3.471  1.8231  2.0288 -2.3573
  180MOL0     H24279   0.476   8.365   3.606 -1.0210 -1.6736  0.9233
  180MOL0     H24280   0.495   8.063   3.567 -0.7740  0.8157 -0.7130
  180MOL0     H24281   0.356   8.127   3.663  0.2581  0.1948  1.5491
  180MOL0     H24282   1.470   8.464   3.234 -0.2009  2.8834 -0.7212
  180MOL0     H24283   1.692   8.450   3.351 -0.7874 -2.7515  0.6063
  180MOL0     H24284   1.841   8.423   3.744 -0.9300 -1.7993 -1.6155
  180MOL0     H24285   2.010   8.380   3.913  0.3338 -1.6080 -0.8533
  180MOL0     H24286   3.271   8.428   4.028 -0.3831  2.6519  0.0702
  180MOL0     H24287   3.502   8.478   4.101 -2.5544  2.0150  0.8604
  180MOL0     H24288   3.946   8.417   3.929 -1.2291  0.5255 -0.7557
  180MOL0     H24289   4.190   8.424   3.997 -2.2932 -1.5559 -1.0495
  180MOL0     H24290   4.399   8.644   3.930  1.5246 -0.0439  0.2378
  180MOL0     H24291   4.416   8.784   4.027  0.1936 -0.2350 -0.4285
  180MOL0     H24292   4.562   8.663   4.161 -1.3557  4.0654 -1.0489
  180MOL0     H24293   4.620   8.653   3.994  0.7887 -0.4231  0.7419
  180MOL0     H24294   4.528   8.428   3.962  0.0807 -1.1369  0.1619
  180MOL0     H24295   4.487   8.419   4.132 -0.3983 -0.5656 -0.7810
  180MOL0     H24296   4.734   8.505   4.178 -0.5354 -0.2297 -0.3768
  180MOL0     H24297   4.772   8.447   4.018 -0.2352 -1.6877 -0.5285
  180MOL0     H24298   4.707   8.113   4.287  1.3015 -1.3572 -2.4632
  180MOL0     H24299   4.151   8.825   4.129  1.2385 -0.3390  1.2694
  180MOL0     H24300   3.901   8.821   4.078 -0.6676 -0.0371 -1.9172
  181MOL0     O24301   0.010   0.489   6.255 -0.2403 -0.7016  0.1118
  181MOL0     C24302   0.079   0.584   6.287  0.9515  0.1408 -0.2930
  181MOL0     O24303   0.054   0.713   6.249 -0.4241  0.0507 -0.1819
  181MOL0     C24304  -0.057   0.744   6.167 -0.0598 -0.4182 -0.7636
  181MOL0     C24305  -0.120   0.858   6.211  0.0721 -0.3103  0.4948
  181MOL0     C24306  -0.244   0.902   6.145 -0.0617  0.9295  0.0402
  181MOL0     C24307  -0.298   0.825   6.042  0.8682 -0.0725  0.7489
  181MOL0     O24308  -0.415   0.857   5.967  0.6412  0.1570 -0.2238
  181MOL0     C24309  -0.487   0.979   5.995 -0.6861 -0.0072 -0.2607
  181MOL0     C24310  -0.609   0.994   5.906 -0.3791  0.0895 -0.4724
  181MOL0     C24311  -0.689   1.123   5.925 -0.1608 -0.0647 -0.0706
  181MOL0     C24312  -0.813   1.119   5.834 -0.3536  0.0972  0.5771
  181MOL0     C24313  -0.885   1.252   5.810  0.0383 -0.1588  0.8974
  181MOL0     C24314  -1.018   1.243   5.721 -0.0714 -0.2226 -0.3512
  181MOL0     C24315  -1.138   1.178   5.786 -0.0435  0.7967 -1.0086
  181MOL0     C24316  -1.278   1.192   5.716 -0.2171 -0.4736 -0.6402
  181MOL0     N24317  -1.338   1.321   5.755 -0.6871 -0.6465  0.5680
  181MOL0     C24318  -1.349   1.371   5.888 -0.5528  0.9719 -0.2707
  181MOL0     C24319  -1.384   1.503   5.879  0.8667 -0.3720 -0.1828
  181MOL0     C24320  -1.418   1.594   5.993  0.0328  0.5574 -0.1928
  181MOL0     C24321  -1.563   1.574   6.033  0.3263  0.6098  0.3083
  181MOL0     C24322  -1.597   1.437   6.109 -0.2789 -0.1413 -0.1229
  181MOL0     C24323  -1.738   1.424   6.139  0.5340  0.3618 -0.4631
  181MOL0     O24324  -1.783   1.531   6.219 -0.4993  0.2896 -0.0720
  181MOL0     C24325  -1.916   1.534   6.253 -0.6518 -0.5842 -0.6578
  181MOL0     C24326  -1.965   1.649   6.325 -0.5885  0.7083 -0.1354
  181MOL0     C24327  -2.096   1.670   6.370 -0.0952  0.6941  1.2992
  181MOL0     C24328  -2.136   1.799   6.439  0.6824  0.4033  0.2760
  181MOL0     C24329  -2.189   1.571   6.344 -0.6013  0.7611  0.3781
  181MOL0     C24330  -2.332   1.578   6.358  1.1306  0.7197  0.0503
  181MOL0     O24331  -2.387   1.698   6.402  0.2512 -0.1441  0.2877
  181MOL0     C24332  -2.523   1.718   6.385 -0.5839  0.0868  0.0847
  181MOL0     C24333  -2.586   1.770   6.495  0.7327  0.2549  0.3252
  181MOL0     C24334  -2.725   1.801   6.488  0.6277  0.3412  0.4549
  181MOL0     C24335  -2.799   1.784   6.370 -0.0686  0.0366 -0.1840
  181MOL0     O24336  -2.931   1.808   6.382 -0.0729 -0.0336  0.6049
  181MOL0     C24337  -3.033   1.760   6.283 -0.9665 -0.0999 -0.3325
  181MOL0     C24338  -3.055   1.615   6.301 -0.1739 -0.2070 -0.1536
  181MOL0     C24339  -3.089   1.567   6.445 -0.7696 -0.4928 -0.2660
  181MOL0     C24340  -3.218   1.632   6.508 -0.4575  0.3211  0.2388
  181MOL0     C24341  -3.268   1.563   6.637  0.1556  0.3311  0.9571
  181MOL0     C24342  -3.388   1.631   6.686  1.0644 -0.7470 -0.7401
  181MOL0     C24343  -3.422   1.585   6.837 -0.4622 -0.7602 -0.0060
  181MOL0     C24344  -3.572   1.606   6.865  0.0802  0.9950  0.0105
  181MOL0    Cl24345  -3.665   1.490   6.762 -0.3333 -0.1432 -0.0518
  181MOL0     C24346  -2.728   1.733   6.261 -0.1019  0.1006  0.7422
  181MOL0     C24347  -2.591   1.701   6.264 -0.4025 -0.7537 -0.2067
  181MOL0     O24348  -2.397   1.479   6.329  0.2708  0.3535  0.1536
  181MOL0     C24349  -2.139   1.449   6.287  0.8000 -0.1232  0.5637
  181MOL0     C24350  -2.008   1.432   6.242 -0.1892  0.4323  0.1054
  181MOL0     N24351  -1.419   1.521   5.745 -0.3941  0.2617 -0.1075
  181MOL0     N24352  -1.379   1.421   5.670  0.0155 -0.5278 -0.4336
  181MOL0     C24353  -0.235   0.702   6.010  0.3650  0.1429 -0.5390
  181MOL0     C24354  -0.117   0.657   6.070  0.3651  0.0382 -0.5729
  181MOL0     C24355   0.195   0.551   6.379 -0.0757 -0.7576  0.7016
  181MOL0     C24356   0.253   0.424   6.400  0.8147  0.3236 -0.3098
  181MOL0     C24357   0.363   0.414   6.480  0.5670 -0.1905 -0.6134
  181MOL0     C24358   0.403   0.517   6.570 -0.3495  0.3067 -0.1197
  181MOL0     O24359   0.499   0.508   6.666 -0.4308 -0.0859  0.7647
  181MOL0     C24360   0.612   0.425   6.640  0.1535 -1.0918  0.0807
  181MOL0     C24361   0.734   0.511   6.640 -0.2155 -0.0125 -0.4165
  181MOL0     C24362   0.744   0.615   6.762  0.1519 -0.4229  0.2813
  181MOL0     C24363   0.747   0.545   6.897  0.2741  0.8564 -0.5191
  181MOL0     C24364   0.742   0.642   7.008  0.3327  0.0197 -1.5450
  181MOL0     C24365   0.738   0.712   7.109  0.2134  0.2783  0.8296
  181MOL0     C24366   0.352   0.646   6.546 -0.8165 -0.1796 -0.1713
  181MOL0     C24367   0.252   0.664   6.447 -0.1092  0.6985 -0.3318
  181MOL0     H24368  -0.075   0.912   6.294 -0.0727 -0.3862  0.6224
  181MOL0     H24369  -0.285   0.998   6.175  1.0456  1.3779  0.1819
  181MOL0     H24370  -0.519   0.971   6.099  1.7417 -3.5811  0.4101
  181MOL0     H24371  -0.424   1.067   5.983 -2.2776  0.9500 -2.1002
  181MOL0     H24372  -0.573   0.989   5.803 -2.1909  0.0369 -1.1430
  181MOL0     H24373  -0.678   0.911   5.924  0.4150 -0.5538 -0.3457
  181MOL0     H24374  -0.719   1.123   6.031 -0.3908  1.6089 -0.1221
  181MOL0     H24375  -0.640   1.218   5.905 -1.0764  0.2041 -1.0570
  181MOL0     H24376  -0.785   1.099   5.731  0.6295 -0.8124  1.0038
  181MOL0     H24377  -0.884   1.041   5.865  0.2117 -0.1053  1.4013
  181MOL0     H24378  -0.924   1.300   5.901 -0.9582 -0.2115  0.5107
  181MOL0     H24379  -0.820   1.325   5.761 -1.9888 -1.3104 -4.0732
  181MOL0     H24380  -1.047   1.345   5.695 -1.5951 -0.6660 -0.4783
  181MOL0     H24381  -0.997   1.184   5.632  1.5886 -1.2454  0.6752
  181MOL0     H24382  -1.116   1.070   5.788 -1.5280  0.4433 -1.9689
  181MOL0     H24383  -1.150   1.208   5.890  1.4688  1.6806 -1.0684
  181MOL0     H24384  -1.345   1.110   5.743  0.7504 -1.5074 -1.2996
  181MOL0     H24385  -1.260   1.189   5.609 -1.1973 -0.3855 -0.8133
  181MOL0     H24386  -1.328   1.313   5.977 -1.9917 -1.6474 -1.5149
  181MOL0     H24387  -1.362   1.569   6.084 -2.4517 -1.8453  0.8110
  181MOL0     H24388  -1.400   1.696   5.956 -1.0723  0.9105  0.2188
  181MOL0     H24389  -1.617   1.574   5.938 -0.0158 -2.3917  0.4037
  181MOL0     H24390  -1.601   1.661   6.088 -0.7715  0.5703 -0.3519
  181MOL0     H24391  -1.540   1.442   6.202  1.2978  0.1705 -1.0557
  181MOL0     H24392  -1.566   1.346   6.057  1.1668  1.7675 -2.9035
  181MOL0     H24393  -1.750   1.330   6.194 -2.1348  0.8979  0.0206
  181MOL0     H24394  -1.803   1.418   6.051 -0.4695 -1.6971  0.3397
  181MOL0     H24395  -1.878   1.709   6.351  0.1416 -1.4741  3.0835
  181MOL0     H24396  -2.168   1.780   6.543 -1.5132  1.3748 -0.1570
  181MOL0     H24397  -2.049   1.864   6.445  3.8145 -3.3674 -0.2973
  181MOL0     H24398  -2.215   1.845   6.379  0.3263  0.2199  0.5892
  181MOL0     H24399  -2.536   1.796   6.588 -1.7875 -0.0843  1.8956
  181MOL0     H24400  -2.785   1.832   6.573  0.3419  1.9092 -0.2756
  181MOL0     H24401  -3.121   1.820   6.308 -1.0134 -0.1957 -0.2700
  181MOL0     H24402  -3.002   1.775   6.179  1.1346 -3.3980 -0.3169
  181MOL0     H24403  -3.145   1.591   6.244  1.1023  0.3055 -2.4974
  181MOL0     H24404  -2.974   1.560   6.252 -0.1729 -0.1158 -0.2532
  181MOL0     H24405  -3.006   1.601   6.507 -0.1151  0.7677 -1.7632
  181MOL0     H24406  -3.097   1.458   6.450 -2.2501 -0.3424  1.3360
  181MOL0     H24407  -3.194   1.734   6.538  1.7350  0.7722 -2.6311
  181MOL0     H24408  -3.299   1.634   6.435 -0.7763  2.0498  0.5939
  181MOL0     H24409  -3.193   1.563   6.717 -0.7088 -3.1160  1.9296
  181MOL0     H24410  -3.288   1.459   6.610 -2.3038  0.8246  0.7149
  181MOL0     H24411  -3.372   1.740   6.690  1.7100 -0.8645  1.4439
  181MOL0     H24412  -3.475   1.605   6.627  0.8407 -2.4977  0.2972
  181MOL0     H24413  -3.368   1.646   6.910  2.3220 -1.3768 -1.4381
  181MOL0     H24414  -3.395   1.479   6.847  2.0320 -0.0942  1.0270
  181MOL0     H24415  -3.611   1.707   6.848  0.3965  1.2022  0.5135
  181MOL0     H24416  -3.597   1.567   6.964  1.4003 -0.2678 -0.1180
  181MOL0     H24417  -2.788   1.729   6.171 -2.1456 -2.3560  2.0689
  181MOL0     H24418  -2.531   1.665   6.181 -0.4437  0.6454 -0.8655
  181MOL0     H24419  -2.209   1.375   6.250 -0.0502  0.6931  0.4996
  181MOL0     H24420  -1.984   1.338   6.194 -0.2586  0.6148 -0.2852
  181MOL0     H24421  -0.296   0.630   5.956  0.3542 -0.5277  0.3621
  181MOL0     H24422  -0.080   0.561   6.035 -1.6205 -1.7484  1.8655
  181MOL0     H24423   0.213   0.337   6.349 -1.5684 -0.4936  2.6895
  181MOL0     H24424   0.416   0.321   6.462  1.5130  0.4582 -1.2089
  181MOL0     H24425   0.625   0.357   6.725  2.7498  0.1158  0.7648
  181MOL0     H24426   0.606   0.359   6.552 -2.9032 -0.2835 -0.4070
  181MOL0     H24427   0.726   0.566   6.547  3.8644  1.5926 -0.0401
  181MOL0     H24428   0.821   0.444   6.641  0.6779  1.1211 -0.3562
  181MOL0     H24429   0.656   0.679   6.767  1.8130  1.9794  0.8399
  181MOL0     H24430   0.832   0.677   6.742  0.0277 -0.1039  0.6984
  181MOL0     H24431   0.833   0.478   6.908 -2.2826 -2.9356 -1.5280
  181MOL0     H24432   0.665   0.473   6.903  1.1526 -0.0784  1.2287
  181MOL0     H24433   0.743   0.781   7.190 -1.2422 -0.6435  1.7567
  181MOL0     H24434   0.400   0.734   6.587  1.8178 -1.5814 -0.0409
  181MOL0     H24435   0.198   0.757   6.435  0.0523  0.9883  0.9806
  182MOL0     O24436   9.137   7.478   1.108  0.9884 -0.1479  0.3860
  182MOL0     C24437   9.092   7.459   0.993 -1.0840  0.4610  0.1013
  182MOL0     O24438   8.973   7.411   0.960  0.5639 -0.2306  0.2434
  182MOL0     C24439   8.889   7.362   1.056  0.3802 -0.9660  0.2774
  182MOL0     C24440   8.751   7.390   1.045  0.5839 -0.0886  0.9763
  182MOL0     C24441   8.667   7.328   1.131  0.2627  0.1855  0.1960
  182MOL0     C24442   8.712   7.236   1.226  0.4800 -0.5859  0.5923
  182MOL0     O24443   8.629   7.186   1.323  0.3038 -0.3423 -0.1776
  182MOL0     C24444   8.498   7.248   1.339 -0.0304 -0.3275 -0.4154
  182MOL0     C24445   8.443   7.205   1.473  0.0026 -0.0922  0.2217
  182MOL0     C24446   8.290   7.224   1.476  0.4250 -0.9341  0.6512
  182MOL0     C24447   8.232   7.211   1.618  0.2604 -0.3678 -0.3100
  182MOL0     C24448   8.077   7.230   1.613 -0.3508 -0.5221  1.7346
  182MOL0     C24449   8.037   7.199   1.757  0.0678  0.0769 -0.3963
  182MOL0     C24450   7.891   7.163   1.777 -0.1509  0.3802  0.0509
  182MOL0     C24451   7.883   7.153   1.934 -0.1759  0.0617  0.0327
  182MOL0     N24452   7.784   7.246   1.991  0.4149  0.0378 -0.0075
  182MOL0     C24453   7.803   7.367   2.050  0.4178  0.2046  0.1211
  182MOL0     C24454   7.682   7.412   2.077  0.1043  0.0655  0.5591
  182MOL0     C24455   7.643   7.545   2.134  0.3129  0.4625  0.4294
  182MOL0     C24456   7.652   7.655   2.036  0.6138  0.2256 -0.1323
  182MOL0     C24457   7.578   7.626   1.893  0.6005 -0.4135  0.1083
  182MOL0     C24458   7.421   7.609   1.911 -0.6240 -0.5725  0.4265
  182MOL0     O24459   7.361   7.708   2.000  0.2997 -0.2541  0.0510
  182MOL0     C24460   7.298   7.815   1.952 -0.1086 -0.1517  0.1408
  182MOL0     C24461   7.234   7.890   2.052  0.6283  0.2709 -0.6918
  182MOL0     C24462   7.170   8.009   2.036 -0.0286 -0.5718  0.4045
  182MOL0     C24463   7.089   8.070   2.156 -0.2084 -0.8012  0.3101
  182MOL0     C24464   7.186   8.070   1.904  0.5443 -0.3139 -0.0111
  182MOL0     C24465   7.105   8.194   1.861 -0.0615 -0.2454  0.0926
  182MOL0     O24466   6.991   8.227   1.932  0.8068  0.1319 -0.3673
  182MOL0     C24467   6.899   8.323   1.885  0.4889 -0.6493  0.2194
  182MOL0     C24468   6.761   8.314   1.914  0.2838 -0.9878  0.0106
  182MOL0     C24469   6.668   8.391   1.865  0.7230  0.0370 -0.0554
  182MOL0     C24470   6.698   8.503   1.796 -0.1376 -0.0681 -0.0902
  182MOL0     O24471   6.612   8.607   1.761 -0.1915  0.8087 -0.0088
  182MOL0     C24472   6.475   8.583   1.754  0.7570 -0.9772 -0.3368
  182MOL0     C24473   6.414   8.719   1.757  0.0705 -0.0357  0.5434
  182MOL0     C24474   6.259   8.721   1.755 -0.2719  0.1615  0.5196
  182MOL0     C24475   6.196   8.862   1.746  0.1894 -0.3786  0.3417
  182MOL0     C24476   6.043   8.850   1.734 -0.2377 -0.3299 -0.3556
  182MOL0     C24477   5.984   8.996   1.751 -0.1457 -0.0662  0.0694
  182MOL0     C24478   5.837   8.981   1.761  0.3644 -0.9619  0.5105
  182MOL0     C24479   5.766   9.114   1.747 -0.1157 -0.5327 -0.3001
  182MOL0    Cl24480   5.594   9.081   1.758 -0.3895 -0.2979  0.5317
  182MOL0     C24481   6.836   8.519   1.769  0.5089 -0.9002  0.6627
  182MOL0     C24482   6.939   8.433   1.802 -0.1913  0.7198  0.1819
  182MOL0     O24483   7.135   8.238   1.750  1.2453  0.5548 -1.0474
  182MOL0     C24484   7.252   8.005   1.803 -0.7324  0.3927  0.0718
  182MOL0     C24485   7.311   7.876   1.831  0.7551 -0.5697  1.5540
  182MOL0     N24486   7.590   7.308   2.045 -0.3809 -0.3297 -0.3488
  182MOL0     N24487   7.650   7.215   1.994 -0.0730  0.1199  0.0584
  182MOL0     C24488   8.841   7.200   1.241 -1.1389  1.1983  0.3757
  182MOL0     C24489   8.933   7.264   1.153  0.0836 -0.5081  0.5833
  182MOL0     C24490   9.185   7.510   0.882  0.3613 -0.1958 -0.0435
  182MOL0     C24491   9.317   7.556   0.904  0.3467  0.0026 -1.1753
  182MOL0     C24492   9.405   7.587   0.800 -0.0915 -0.0559 -0.5237
  182MOL0     C24493   9.359   7.577   0.668 -0.9189 -1.5016  0.0741
  182MOL0     O24494   9.425   7.602   0.552 -0.1957 -0.9842 -0.0934
  182MOL0     C24495   9.555   7.664   0.564 -0.2445  0.4954  1.3476
  182MOL0     C24496   9.622   7.626   0.429 -0.0138 -0.1170 -0.4602
  182MOL0     C24497   9.633   7.473   0.408 -0.4007  0.3293 -0.2979
  182MOL0     C24498   9.686   7.437   0.270  0.3347 -0.2249 -0.3122
  182MOL0     C24499   9.621   7.517   0.167 -0.5781 -0.2598 -0.3876
  182MOL0     C24500   9.583   7.573   0.066  0.3012  0.5441 -0.5742
  182MOL0     C24501   9.224   7.544   0.649 -0.1598  0.7557  0.2839
  182MOL0     C24502   9.141   7.506   0.748 -0.4914  0.1389  0.2159
  182MOL0     H24503   8.715   7.452   0.964  2.1056 -0.9571 -0.4416
  182MOL0     H24504   8.563   7.352   1.109 -0.2123 -1.3839  0.6640
  182MOL0     H24505   8.495   7.356   1.329  2.3867 -0.3112 -1.9711
  182MOL0     H24506   8.445   7.210   1.251  0.6531  3.4719 -2.6945
  182MOL0     H24507   8.460   7.098   1.485 -0.1570  0.0894  2.5652
  182MOL0     H24508   8.497   7.255   1.554 -0.2168  0.0745  0.2657
  182MOL0     H24509   8.265   7.319   1.428  2.4202 -0.7357 -0.1152
  182MOL0     H24510   8.238   7.154   1.409 -5.1298  2.6572  0.5590
  182MOL0     H24511   8.258   7.112   1.659 -0.3772  0.5750  2.6172
  182MOL0     H24512   8.273   7.284   1.688 -2.6162  2.6504 -1.5084
  182MOL0     H24513   8.048   7.331   1.583 -0.3098 -0.2380  2.6154
  182MOL0     H24514   8.031   7.155   1.547  5.3072 -2.0723 -1.0787
  182MOL0     H24515   8.096   7.118   1.801  0.5676  0.7943  0.2744
  182MOL0     H24516   8.077   7.281   1.818  0.7055  1.8469 -3.0455
  182MOL0     H24517   7.824   7.243   1.743 -2.8830 -0.3770  3.1657
  182MOL0     H24518   7.875   7.068   1.726  0.8870 -0.7092  1.6649
  182MOL0     H24519   7.977   7.175   1.986  0.0572 -0.3183 -0.2165
  182MOL0     H24520   7.839   7.054   1.949 -1.2721  0.8904  2.8707
  182MOL0     H24521   7.897   7.419   2.057 -0.0983  1.1759 -0.0035
  182MOL0     H24522   7.536   7.539   2.158 -0.3990 -0.7703 -2.5429
  182MOL0     H24523   7.702   7.559   2.225 -0.8664 -0.4671  1.3723
  182MOL0     H24524   7.759   7.669   2.014  0.5028 -0.4461 -1.1641
  182MOL0     H24525   7.615   7.749   2.077  1.8297  0.6958 -0.0746
  182MOL0     H24526   7.622   7.533   1.854 -0.9719 -1.3646  0.4947
  182MOL0     H24527   7.595   7.705   1.820  0.0124  1.6823  2.1383
  182MOL0     H24528   7.400   7.506   1.942  0.4954 -0.2408  2.5073
  182MOL0     H24529   7.381   7.606   1.809  0.0274 -2.4088  0.1840
  182MOL0     H24530   7.232   7.847   2.151 -1.3821 -1.6424 -1.4674
  182MOL0     H24531   7.134   8.167   2.181  0.7430 -1.4296  1.0948
  182MOL0     H24532   6.987   8.073   2.118 -0.1820  0.9949  0.3050
  182MOL0     H24533   7.094   8.011   2.248  0.2949  0.4963  1.1539
  182MOL0     H24534   6.739   8.227   1.975 -2.5044 -0.1711  0.3156
  182MOL0     H24535   6.571   8.373   1.910  1.0263  0.2789  0.7063
  182MOL0     H24536   6.454   8.528   1.662 -1.6845  0.4583 -0.7312
  182MOL0     H24537   6.435   8.541   1.847 -1.7669  0.0549 -0.8671
  182MOL0     H24538   6.456   8.768   1.845  2.9048 -1.1448 -0.1041
  182MOL0     H24539   6.439   8.781   1.670 -0.4289  0.7106  0.9114
  182MOL0     H24540   6.220   8.686   1.851  1.0931 -1.5982  0.4731
  182MOL0     H24541   6.223   8.649   1.681  1.1824 -0.5863  0.4972
  182MOL0     H24542   6.210   8.912   1.842 -1.3076  0.9268 -0.0746
  182MOL0     H24543   6.240   8.915   1.661 -1.7071 -0.7830 -0.9568
  182MOL0     H24544   6.007   8.783   1.813 -0.6696 -0.2844 -0.5147
  182MOL0     H24545   6.020   8.810   1.635  1.3140 -1.0347 -0.4702
  182MOL0     H24546   6.025   9.043   1.841 -2.4109 -0.4863  1.3856
  182MOL0     H24547   6.012   9.065   1.671 -1.5330  1.9449  1.2393
  182MOL0     H24548   5.827   8.944   1.863 -0.9419  0.1230  0.8078
  182MOL0     H24549   5.809   8.905   1.687 -0.0366 -0.9790  0.6754
  182MOL0     H24550   5.783   9.155   1.647  2.5188  0.6420  0.5315
  182MOL0     H24551   5.802   9.190   1.817  1.2821 -0.8223 -0.6662
  182MOL0     H24552   6.863   8.614   1.724 -2.3172  1.0273  2.6952
  182MOL0     H24553   7.038   8.447   1.759 -0.4746  0.3873 -0.5886
  182MOL0     H24554   7.241   8.046   1.703  0.2567 -0.1455 -0.2702
  182MOL0     H24555   7.370   7.836   1.749 -0.4220  1.8911 -0.6358
  182MOL0     H24556   8.876   7.124   1.310  0.5106  1.4729 -0.1016
  182MOL0     H24557   9.037   7.234   1.144  0.1782 -0.3293  1.0582
  182MOL0     H24558   9.348   7.567   1.008 -0.3676  2.1827 -1.1504
  182MOL0     H24559   9.506   7.614   0.829  0.6897 -2.9439 -0.2443
  182MOL0     H24560   9.553   7.773   0.572 -3.4766  0.6179  0.4248
  182MOL0     H24561   9.625   7.624   0.638  0.7797  1.7241  1.0650
  182MOL0     H24562   9.715   7.682   0.419 -0.7029  0.6859 -3.4325
  182MOL0     H24563   9.542   7.657   0.360 -0.7383  0.0823  0.4408
  182MOL0     H24564   9.538   7.420   0.420 -0.4604 -0.1115 -2.3383
  182MOL0     H24565   9.709   7.443   0.482 -0.3655 -1.0145 -0.8508
  182MOL0     H24566   9.675   7.332   0.241 -1.2705  0.2758 -1.7052
  182MOL0     H24567   9.793   7.458   0.277  0.1016  0.4771  2.6821
  182MOL0     H24568   9.535   7.625  -0.014 -3.2135 -2.3307 -0.6209
  182MOL0     H24569   9.201   7.533   0.544  1.3802  1.2223 -0.1267
  182MOL0     H24570   9.043   7.467   0.727  0.1502 -0.3952 -2.0142
  183MOL0     O24571   8.342   1.161   5.824  0.2098  0.8815  0.1209
  183MOL0     C24572   8.339   1.156   5.701  0.1338  0.3625 -0.4004
  183MOL0     O24573   8.230   1.144   5.622  0.4122  0.6997  0.1409
  183MOL0     C24574   8.109   1.109   5.683 -0.5965 -1.0946 -0.1926
  183MOL0     C24575   8.054   1.180   5.793  0.0946 -0.1219 -0.2131
  183MOL0     C24576   7.930   1.146   5.836 -0.4497  0.2751 -0.7211
  183MOL0     C24577   7.861   1.036   5.783 -1.1311  0.0211  0.1809
  183MOL0     O24578   7.741   1.002   5.836 -0.3325  0.5222  1.0353
  183MOL0     C24579   7.708   0.863   5.838  0.6592 -0.0712  0.4169
  183MOL0     C24580   7.611   0.842   5.949 -0.0525 -0.0798  0.1629
  183MOL0     C24581   7.471   0.902   5.908  0.1885  0.7796  0.3399
  183MOL0     C24582   7.367   0.883   6.029  0.9395  0.2290 -0.1868
  183MOL0     C24583   7.222   0.909   5.985  0.4335 -0.3726 -0.2948
  183MOL0     C24584   7.213   1.049   5.924  0.2306 -0.3121  0.0473
  183MOL0     C24585   7.064   1.082   5.906  0.4192  0.3762  0.6672
  183MOL0     C24586   6.985   1.006   5.796  0.5512 -0.8646 -0.1938
  183MOL0     N24587   7.014   1.075   5.667 -0.2210  0.2542  0.7860
  183MOL0     C24588   7.121   1.027   5.588  0.0202 -0.7955  0.7126
  183MOL0     C24589   7.105   1.082   5.464 -0.2809  0.8861 -0.9687
  183MOL0     C24590   7.202   1.057   5.354  0.8583 -1.1460  0.4627
  183MOL0     C24591   7.204   1.172   5.247 -0.7146  0.0748 -0.1064
  183MOL0     C24592   7.288   1.139   5.127 -0.1987 -0.0487 -0.6830
  183MOL0     C24593   7.295   1.234   5.018 -0.1604  0.2903  0.0891
  183MOL0     O24594   7.357   1.157   4.910  0.2709  0.0896 -0.1641
  183MOL0     C24595   7.494   1.148   4.898  1.0162  0.0290  0.2590
  183MOL0     C24596   7.596   1.213   4.971 -0.5862  0.9735 -0.9686
  183MOL0     C24597   7.731   1.179   4.955  0.7703 -0.5690  0.7227
  183MOL0     C24598   7.828   1.264   5.037  0.5016  0.0281  0.5454
  183MOL0     C24599   7.771   1.080   4.857 -1.0940 -0.5021  0.0798
  183MOL0     C24600   7.919   1.051   4.818  0.2043 -0.0670 -0.2182
  183MOL0     O24601   7.935   0.945   4.738  0.5201  0.2546  0.3193
  183MOL0     C24602   8.065   0.905   4.710  0.5050 -0.1345 -0.3647
  183MOL0     C24603   8.112   0.924   4.580 -0.3318  0.2419 -0.4405
  183MOL0     C24604   8.244   0.882   4.547  0.2437 -0.1823 -0.6277
  183MOL0     C24605   8.322   0.817   4.656 -0.7396 -0.5866  0.4216
  183MOL0     O24606   8.449   0.787   4.614 -0.0976  0.2572  0.4344
  183MOL0     C24607   8.511   0.678   4.690  0.0617 -0.4847 -0.0424
  183MOL0     C24608   8.656   0.668   4.646 -0.1652 -0.3563  0.2963
  183MOL0     C24609   8.666   0.612   4.504  0.1861  0.6568 -0.2017
  183MOL0     C24610   8.814   0.624   4.475  0.5358  0.4226 -0.4087
  183MOL0     C24611   8.868   0.547   4.352  0.1579  1.2151 -0.7103
  183MOL0     C24612   8.832   0.399   4.360 -0.3620  0.2458  0.2522
  183MOL0     C24613   8.926   0.316   4.278 -0.3473  0.0652 -0.1962
  183MOL0     C24614   8.889   0.167   4.280 -0.2719  0.3626 -0.6692
  183MOL0    Cl24615   8.732   0.143   4.197  0.3384  0.0929 -0.0355
  183MOL0     C24616   8.263   0.785   4.777  0.9264  1.0116 -0.0700
  183MOL0     C24617   8.137   0.838   4.804 -0.4954  0.7140  1.2528
  183MOL0     O24618   8.009   1.124   4.849 -0.2898  0.4650 -0.2687
  183MOL0     C24619   7.667   1.015   4.778 -0.8498  1.1928  0.2270
  183MOL0     C24620   7.535   1.056   4.802 -0.4165 -0.2316  0.0807
  183MOL0     N24621   6.981   1.148   5.462  0.0339  0.4037 -0.4004
  183MOL0     N24622   6.931   1.145   5.584  0.1309  0.4262 -0.4142
  183MOL0     C24623   7.914   0.960   5.681 -0.4757 -0.9676 -0.0322
  183MOL0     C24624   8.039   1.002   5.630  0.2400 -0.1775  0.3305
  183MOL0     C24625   8.463   1.192   5.631  0.7154  0.4072  0.4120
  183MOL0     C24626   8.468   1.186   5.491 -0.5681  0.2614  0.9790
  183MOL0     C24627   8.589   1.190   5.424  0.7557  0.2744 -0.1742
  183MOL0     C24628   8.712   1.210   5.486  0.5172 -0.2286 -0.4813
  183MOL0     O24629   8.821   1.188   5.407 -0.3771  0.4483  0.1934
  183MOL0     C24630   8.948   1.214   5.469  0.3316 -0.7078 -1.2349
  183MOL0     C24631   9.055   1.222   5.359 -0.2675  0.1829 -1.0666
  183MOL0     C24632   9.194   1.254   5.427  0.4652  0.4249 -0.1831
  183MOL0     C24633   9.226   1.170   5.561 -0.1062 -0.3192  0.8431
  183MOL0     C24634   9.358   1.213   5.607  0.6529  0.7731  0.3230
  183MOL0     C24635   9.463   1.214   5.662 -0.9064  0.6353 -0.8685
  183MOL0     C24636   8.711   1.234   5.625 -0.2564 -0.2416  0.5162
  183MOL0     C24637   8.586   1.221   5.700  0.8166  0.5958  0.6306
  183MOL0     H24638   8.102   1.267   5.836 -0.3152  0.1242 -0.2488
  183MOL0     H24639   7.900   1.205   5.922 -1.1864  0.6283 -1.2160
  183MOL0     H24640   7.658   0.830   5.747 -1.7511  1.4713  1.0921
  183MOL0     H24641   7.799   0.803   5.853  1.4718  0.4927 -1.8591
  183MOL0     H24642   7.608   0.733   5.944  2.3126 -0.1599 -1.8889
  183MOL0     H24643   7.637   0.887   6.045 -0.0381  2.7085 -1.0232
  183MOL0     H24644   7.474   1.008   5.880  1.6195  0.2963 -1.5261
  183MOL0     H24645   7.432   0.846   5.823 -1.1467  1.5062  0.4451
  183MOL0     H24646   7.363   0.779   6.063 -1.2115 -0.1900 -1.5212
  183MOL0     H24647   7.394   0.945   6.115  0.7623 -1.3881  1.0999
  183MOL0     H24648   7.184   0.839   5.909  2.4676 -1.6923 -0.1867
  183MOL0     H24649   7.169   0.896   6.079  1.3887  1.7635  0.5996
  183MOL0     H24650   7.262   1.124   5.988  1.5031 -0.5769 -0.5905
  183MOL0     H24651   7.261   1.069   5.828 -0.5959  3.2081  0.2174
  183MOL0     H24652   7.002   1.056   5.992 -3.7423 -0.2091 -2.2103
  183MOL0     H24653   7.061   1.191   5.893  0.8692  0.1963 -1.2446
  183MOL0     H24654   6.882   1.015   5.830  0.1984  2.4878 -1.7581
  183MOL0     H24655   7.016   0.902   5.788  0.0975 -0.9399 -0.9921
  183MOL0     H24656   7.205   0.962   5.612  0.2990 -1.8856 -2.7509
  183MOL0     H24657   7.299   1.045   5.402 -0.9296 -1.4705  4.4200
  183MOL0     H24658   7.171   0.959   5.316 -0.3111 -1.6610  2.5462
  183MOL0     H24659   7.249   1.258   5.298  1.9047 -0.8082 -0.7521
  183MOL0     H24660   7.102   1.204   5.223 -0.4576  2.0481  1.1580
  183MOL0     H24661   7.252   1.043   5.090 -3.3817 -0.2768  2.4341
  183MOL0     H24662   7.391   1.119   5.159  0.6342  0.6201 -2.7771
  183MOL0     H24663   7.348   1.328   5.038  0.4891 -0.5864  2.9409
  183MOL0     H24664   7.197   1.248   4.971 -0.2382 -0.2846  0.0684
  183MOL0     H24665   7.555   1.274   5.051  1.0862  0.1204  0.6203
  183MOL0     H24666   7.869   1.202   5.118  2.4901  1.0813  0.4218
  183MOL0     H24667   7.906   1.311   4.976 -0.5521  2.6206  1.0700
  183MOL0     H24668   7.782   1.342   5.098 -0.1996  0.4378 -0.4897
  183MOL0     H24669   8.057   0.974   4.501 -1.3007  1.1913  0.7921
  183MOL0     H24670   8.297   0.904   4.456 -0.8270  2.2345 -0.7719
  183MOL0     H24671   8.513   0.704   4.796 -0.0908 -0.0895 -0.1382
  183MOL0     H24672   8.463   0.580   4.677  1.1290 -0.7656 -2.3342
  183MOL0     H24673   8.698   0.768   4.638  0.8139 -0.8313 -0.7930
  183MOL0     H24674   8.712   0.608   4.719  3.0508 -0.3175 -1.9467
  183MOL0     H24675   8.599   0.667   4.438  0.3897 -2.2557 -3.0947
  183MOL0     H24676   8.635   0.507   4.507 -1.7620  1.1803 -0.8489
  183MOL0     H24677   8.840   0.730   4.462  0.5429  0.6307  1.1071
  183MOL0     H24678   8.875   0.577   4.552 -0.2841 -2.6290 -1.4803
  183MOL0     H24679   8.977   0.542   4.352  0.1566  0.8257  0.4613
  183MOL0     H24680   8.828   0.588   4.259  0.9292  0.0275 -1.5857
  183MOL0     H24681   8.857   0.372   4.463 -0.8411  0.8195  0.5248
  183MOL0     H24682   8.728   0.372   4.338 -0.7210  1.0537  0.9234
  183MOL0     H24683   9.032   0.322   4.308 -0.0538  0.5372 -1.2892
  183MOL0     H24684   8.941   0.356   4.178  0.6885 -0.0967 -0.1269
  183MOL0     H24685   8.875   0.132   4.383 -1.8943 -4.6265 -2.2977
  183MOL0     H24686   8.963   0.110   4.223 -0.4904  0.3013 -0.8909
  183MOL0     H24687   8.311   0.752   4.869 -3.7146  0.5606  2.4914
  183MOL0     H24688   8.089   0.817   4.900 -1.3013  0.8124  0.8798
  183MOL0     H24689   7.682   0.934   4.707 -0.5339  0.3265  1.2552
  183MOL0     H24690   7.454   1.013   4.745 -1.3317  0.7158  0.6331
  183MOL0     H24691   7.854   0.878   5.641 -0.4046 -1.9079  1.7074
  183MOL0     H24692   8.083   0.959   5.541 -1.7167  3.6304 -2.7754
  183MOL0     H24693   8.376   1.184   5.434  0.4138 -0.8591 -0.6428
  183MOL0     H24694   8.597   1.171   5.317 -0.3760 -0.0204 -0.2247
  183MOL0     H24695   8.939   1.315   5.510 -2.6009 -0.5172 -2.1041
  183MOL0     H24696   8.970   1.140   5.546  1.8903  0.0818 -0.8890
  183MOL0     H24697   9.023   1.305   5.294 -0.7778  1.8245  1.1407
  183MOL0     H24698   9.058   1.128   5.304  1.6919 -0.6561  0.3806
  183MOL0     H24699   9.191   1.359   5.457 -0.2079  0.3411  0.0502
  183MOL0     H24700   9.262   1.233   5.344 -0.9855  1.2957 -1.6582
  183MOL0     H24701   9.243   1.062   5.549  2.6864  0.2668 -1.8247
  183MOL0     H24702   9.151   1.188   5.638 -1.2662  2.3082 -0.7590
  183MOL0     H24703   9.556   1.214   5.714 -1.5521 -3.3968  0.6530
  183MOL0     H24704   8.797   1.257   5.687  1.7239 -2.7300 -1.1127
  183MOL0     H24705   8.589   1.231   5.808 -1.8868 -0.4061  0.8928
  184MOL0     O24706   7.499  10.892   7.944  0.0656  0.0273  0.6518
  184MOL0     C24707   7.596  10.819   7.988  0.4981  0.1830  0.5197
  184MOL0     O24708   7.578  10.730   8.088 -0.3016  0.8011 -0.0133
  184MOL0     C24709   7.457  10.737   8.150 -0.0859  0.7064  0.7381
  184MOL0     C24710   7.452  10.755   8.292 -0.0678 -0.6850  0.1154
  184MOL0     C24711   7.332  10.749   8.355  0.1490  0.1261 -0.8157
  184MOL0     C24712   7.205  10.725   8.295  0.5429  1.0096  0.9119
  184MOL0     O24713   7.084  10.734   8.363 -0.4811 -0.2381 -0.0916
  184MOL0     C24714   6.969  10.679   8.306 -0.0243  0.3173 -0.2744
  184MOL0     C24715   6.860  10.662   8.417 -0.6603 -0.2373  0.0624
  184MOL0     C24716   6.799  10.799   8.451  0.0874 -1.2594  0.3399
  184MOL0     C24717   6.730  10.865   8.323  0.3791  0.0578 -0.3123
  184MOL0     C24718   6.635  10.972   8.368  0.4951 -0.0857 -0.3305
  184MOL0     C24719   6.506  10.908   8.415  0.2782  0.1282  0.5217
  184MOL0     C24720   6.411  11.028   8.447 -1.2376 -0.6544 -0.1235
  184MOL0     C24721   6.289  10.977   8.511 -0.0719  0.1149 -0.8274
  184MOL0     N24722   6.222  11.084   8.594  0.3568  0.1436 -0.2885
  184MOL0     C24723   6.157  11.191   8.543  0.3882  1.6623 -0.3988
  184MOL0     C24724   6.091  11.249   8.644 -0.3734  0.9913  0.0276
  184MOL0     C24725   5.990  11.359   8.633  0.0794  0.3654  0.7000
  184MOL0     C24726   5.874  11.338   8.529 -0.5944 -1.0430 -0.6646
  184MOL0     C24727   5.799  11.204   8.559  0.6872 -0.4402  0.0842
  184MOL0     C24728   5.701  11.229   8.678  0.5001 -0.3226 -0.3323
  184MOL0     O24729   5.676  11.101   8.742  0.0457 -0.4344 -0.4337
  184MOL0     C24730   5.557  11.082   8.810 -0.0787  0.1859  0.2209
  184MOL0     C24731   5.509  10.949   8.819  0.5962  0.6321 -0.2192
  184MOL0     C24732   5.386  10.921   8.871  0.6418  0.1633 -0.8179
  184MOL0     C24733   5.363  10.774   8.912  0.1560  0.4748  0.4367
  184MOL0     C24734   5.296  11.029   8.904  0.1787  0.1073 -0.6126
  184MOL0     C24735   5.157  11.003   8.974  0.2035  0.1096  0.2897
  184MOL0     O24736   5.097  11.099   9.054 -0.2731  0.0244  0.1765
  184MOL0     C24737   4.964  11.094   9.083  0.0967 -0.5775  0.2897
  184MOL0     C24738   4.937  11.117   9.215  0.0344 -0.1809  0.1435
  184MOL0     C24739   4.806  11.126   9.263  0.0702  0.3881 -0.5716
  184MOL0     C24740   4.695  11.097   9.180 -0.4034 -1.0519  0.1618
  184MOL0     O24741   4.572  11.117   9.233 -0.1591 -0.3003  0.5265
  184MOL0     C24742   4.458  11.068   9.156  0.3193 -0.1345  0.0568
  184MOL0     C24743   4.334  11.083   9.244 -0.1509 -0.2079  0.2541
  184MOL0     C24744   4.207  11.076   9.158  1.0035  0.0306  0.4893
  184MOL0     C24745   4.155  10.933   9.109 -0.3396 -0.4146 -0.2978
  184MOL0     C24746   4.008  10.945   9.081 -0.4705 -0.0795  0.1806
  184MOL0     C24747   3.945  10.806   9.048 -0.3888  0.0913  0.7000
  184MOL0     C24748   3.820  10.827   8.963  0.0009 -0.2677 -0.1819
  184MOL0     C24749   3.771  10.698   8.907  0.2552  0.6017  1.6717
  184MOL0    Cl24750   3.736  10.568   9.022 -0.2672  0.5198  0.5724
  184MOL0     C24751   4.729  11.070   9.045  0.1510 -0.1856 -1.2920
  184MOL0     C24752   4.861  11.077   8.992  0.4507  0.1456  0.3168
  184MOL0     O24753   5.095  10.914   8.918 -0.1024 -0.2567  0.4975
  184MOL0     C24754   5.339  11.161   8.881  0.4883  0.2882 -0.6467
  184MOL0     C24755   5.469  11.182   8.841  0.1097 -0.7222 -1.0809
  184MOL0     N24756   6.119  11.172   8.754 -0.0031 -0.4605 -0.2202
  184MOL0     N24757   6.196  11.077   8.725  0.9339 -0.3382 -0.7475
  184MOL0     C24758   7.214  10.708   8.151  0.1050  0.0910 -0.1791
  184MOL0     C24759   7.336  10.706   8.088 -0.3966 -0.1651 -0.7957
  184MOL0     C24760   7.720  10.814   7.917  0.0422  0.4364  0.1050
  184MOL0     C24761   7.754  10.903   7.812 -0.0561 -0.1588 -1.1847
  184MOL0     C24762   7.884  10.887   7.746 -0.0886  1.1062 -0.5884
  184MOL0     C24763   7.975  10.779   7.782  0.1189 -0.5560  0.1948
  184MOL0     O24764   8.090  10.752   7.712 -0.0669 -0.3843 -0.4317
  184MOL0     C24765   8.171  10.870   7.695 -0.2450  0.0863 -0.5342
  184MOL0     C24766   8.285  10.817   7.598  0.0394 -0.5048 -0.3252
  184MOL0     C24767   8.400  10.923   7.591  0.0295  0.2912  0.2493
  184MOL0     C24768   8.511  10.872   7.498 -0.5453  0.2682  0.1467
  184MOL0     C24769   8.631  10.948   7.518 -0.3206  0.3128 -0.8058
  184MOL0     C24770   8.730  11.015   7.544 -0.5047  0.1435 -0.4992
  184MOL0     C24771   7.934  10.705   7.892 -0.1535  1.2030 -0.1330
  184MOL0     C24772   7.816  10.716   7.955 -0.0891  0.3116 -0.3896
  184MOL0     H24773   7.542  10.770   8.352  0.3071  2.0512 -0.9721
  184MOL0     H24774   7.339  10.749   8.463  0.6865 -0.4782 -0.8414
  184MOL0     H24775   6.928  10.739   8.225  2.1675  1.3084 -0.7419
  184MOL0     H24776   6.995  10.579   8.270 -0.6559  0.5032 -1.2831
  184MOL0     H24777   6.794  10.583   8.380  1.1521 -0.7825 -2.3008
  184MOL0     H24778   6.901  10.616   8.507 -0.4870 -0.8042 -0.3009
  184MOL0     H24779   6.730  10.790   8.535  0.9468 -0.6713  1.1378
  184MOL0     H24780   6.875  10.871   8.485 -1.1686 -1.3754  3.8261
  184MOL0     H24781   6.812  10.909   8.265  0.5054  1.2962  0.7803
  184MOL0     H24782   6.672  10.793   8.264 -0.8045  0.0079  0.8740
  184MOL0     H24783   6.679  11.030   8.450 -3.6274  0.3271  1.8440
  184MOL0     H24784   6.627  11.039   8.282  1.0320  0.4717  0.0426
  184MOL0     H24785   6.460  10.849   8.336  1.3985  1.4460 -1.2022
  184MOL0     H24786   6.511  10.830   8.491  0.4714 -0.1210  0.2562
  184MOL0     H24787   6.473  11.089   8.513 -0.3904 -1.0813 -0.5020
  184MOL0     H24788   6.394  11.100   8.366  1.6602  0.9270  0.5448
  184MOL0     H24789   6.297  10.880   8.559  1.1123 -0.7370 -2.6316
  184MOL0     H24790   6.217  10.954   8.432 -0.3580 -2.2765  0.0621
  184MOL0     H24791   6.152  11.219   8.438  0.8554  0.0954 -0.8749
  184MOL0     H24792   5.955  11.382   8.734 -3.5571 -0.2418 -0.2942
  184MOL0     H24793   6.050  11.447   8.607  0.0636  1.5977  4.2886
  184MOL0     H24794   5.916  11.325   8.429  0.9652  1.6860 -0.4499
  184MOL0     H24795   5.818  11.432   8.533  0.3313 -0.5004  2.0354
  184MOL0     H24796   5.870  11.122   8.570  0.4948 -0.6194 -0.0232
  184MOL0     H24797   5.740  11.208   8.467 -0.1809  2.3595  0.6762
  184MOL0     H24798   5.609  11.282   8.651 -0.2728 -1.9786 -1.1088
  184MOL0     H24799   5.746  11.286   8.759 -1.9619 -1.6529  2.1130
  184MOL0     H24800   5.577  10.867   8.797  0.3125  0.5386 -0.7616
  184MOL0     H24801   5.442  10.705   8.879 -1.2547  0.1478 -2.5925
  184MOL0     H24802   5.366  10.789   9.020  0.8616  2.7870  0.1638
  184MOL0     H24803   5.265  10.732   8.891  0.0201  0.9567  0.0903
  184MOL0     H24804   5.012  11.119   9.293  0.1058  2.2803  0.0975
  184MOL0     H24805   4.800  11.135   9.371  2.0018 -0.1731 -0.3870
  184MOL0     H24806   4.448  11.128   9.065 -5.4502 -0.4474  0.1285
  184MOL0     H24807   4.462  10.963   9.128  0.7023  0.1687 -1.1083
  184MOL0     H24808   4.334  10.999   9.314  1.5428  0.4011  1.0581
  184MOL0     H24809   4.344  11.180   9.294 -0.3494  0.7703 -1.5360
  184MOL0     H24810   4.220  11.144   9.073  3.4384 -0.0094  0.7676
  184MOL0     H24811   4.133  11.121   9.225  0.3748 -0.3267  0.0497
  184MOL0     H24812   4.218  10.914   9.021  2.1483  1.2124  1.0059
  184MOL0     H24813   4.171  10.856   9.185  0.3658 -1.5262 -1.5180
  184MOL0     H24814   3.995  11.017   9.001  0.5631 -0.4404 -0.3276
  184MOL0     H24815   3.961  10.996   9.166 -1.7935  0.0641 -0.6061
  184MOL0     H24816   4.021  10.754   8.990 -0.3549 -0.9893  1.6741
  184MOL0     H24817   3.917  10.747   9.136 -0.0598 -1.8845 -0.4734
  184MOL0     H24818   3.840  10.896   8.881  2.1313 -0.8846 -0.2355
  184MOL0     H24819   3.745  10.874   9.027  0.6446 -0.4852  0.7465
  184MOL0     H24820   3.853  10.674   8.838 -0.2660  3.5721 -0.2186
  184MOL0     H24821   3.677  10.710   8.853  0.8939  0.0242  0.3827
  184MOL0     H24822   4.655  11.039   8.972 -0.6827 -2.7462  0.4795
  184MOL0     H24823   4.883  11.058   8.887  2.1623  0.5726  0.5654
  184MOL0     H24824   5.269  11.237   8.913  0.5722  0.1110 -0.0133
  184MOL0     H24825   5.515  11.280   8.832  3.4640 -2.1727 -1.2764
  184MOL0     H24826   7.121  10.677   8.105 -1.0632 -0.3665  2.3240
  184MOL0     H24827   7.340  10.680   7.983  4.1009 -3.6859 -0.0321
  184MOL0     H24828   7.677  10.977   7.791 -0.4534 -0.1070  0.3236
  184MOL0     H24829   7.912  10.948   7.661  2.0170  3.1482  1.4264
  184MOL0     H24830   8.110  10.951   7.654 -3.5851 -0.3159  3.0708
  184MOL0     H24831   8.208  10.899   7.794  1.7984 -1.7492 -0.6733
  184MOL0     H24832   8.252  10.791   7.497 -0.2317 -0.8698 -0.1447
  184MOL0     H24833   8.318  10.727   7.650 -1.9209 -3.2947 -3.4623
  184MOL0     H24834   8.444  10.934   7.690 -1.9614 -0.6896  1.3158
  184MOL0     H24835   8.355  11.015   7.554 -0.4736 -0.3208 -0.7034
  184MOL0     H24836   8.492  10.882   7.391  2.7575  0.3662 -0.5331
  184MOL0     H24837   8.536  10.767   7.516  1.6088  1.1640  3.4103
  184MOL0     H24838   8.818  11.068   7.574  0.0192 -0.9948  0.0182
  184MOL0     H24839   7.995  10.619   7.919 -2.4827  0.2694  2.8017
  184MOL0     H24840   7.793  10.635   8.023  0.8967 -0.7287 -1.2398
  185MOL0     O24841   4.006   1.640   1.217 -0.3697  0.1630 -0.3740
  185MOL0     C24842   4.013   1.692   1.328 -0.0656  0.1172 -0.7390
  185MOL0     O24843   3.920   1.765   1.397 -0.2291  0.2692 -0.1861
  185MOL0     C24844   3.813   1.834   1.335  0.3148 -1.1167 -0.1522
  185MOL0     C24845   3.751   1.938   1.414  1.0831  0.3950  0.4138
  185MOL0     C24846   3.643   2.006   1.363  0.3967 -0.4677 -0.2341
  185MOL0     C24847   3.593   1.983   1.231 -0.0363 -0.1781 -0.3190
  185MOL0     O24848   3.483   2.045   1.179  0.1293  0.6104  0.3503
  185MOL0     C24849   3.391   2.093   1.276 -0.3424  0.3141 -0.2185
  185MOL0     C24850   3.258   2.135   1.200 -0.7169  0.3759  0.5273
  185MOL0     C24851   3.177   2.015   1.134  0.6931 -0.2078  0.0105
  185MOL0     C24852   3.188   2.012   0.978 -0.7960  0.7290 -0.1099
  185MOL0     C24853   3.095   1.907   0.914  0.0282 -0.9340 -0.7201
  185MOL0     C24854   3.068   1.918   0.769 -0.0493  0.1144  0.5180
  185MOL0     C24855   2.942   1.855   0.724 -0.3201 -0.6466  0.1243
  185MOL0     C24856   2.950   1.811   0.577 -0.2050 -0.4801 -0.9771
  185MOL0     N24857   2.819   1.761   0.528  0.4304  0.2436 -0.1368
  185MOL0     C24858   2.707   1.829   0.490 -0.2369 -0.3989 -0.4281
  185MOL0     C24859   2.631   1.733   0.439  0.5782 -0.9346  0.4642
  185MOL0     C24860   2.491   1.766   0.385  0.4636  0.3655  0.2193
  185MOL0     C24861   2.394   1.650   0.402 -0.4140  0.2715  0.2627
  185MOL0     C24862   2.287   1.669   0.298 -0.4841 -0.2218  0.7056
  185MOL0     C24863   2.329   1.603   0.163 -0.1245  0.3115 -0.7349
  185MOL0     O24864   2.260   1.649   0.045  0.6309 -0.3652  0.1943
  185MOL0     C24865   2.139   1.590   0.023 -1.0358 -0.0825 -0.5914
  185MOL0     C24866   2.074   1.607  -0.094  0.4383  0.0579  0.5361
  185MOL0     C24867   1.950   1.557  -0.139 -0.5702  0.0945 -1.1882
  185MOL0     C24868   1.905   1.607  -0.266 -0.1452 -0.0052 -0.1635
  185MOL0     C24869   1.889   1.469  -0.052 -0.0052  0.5240  0.9646
  185MOL0     C24870   1.755   1.403  -0.070  0.4431 -0.7034  0.8740
  185MOL0     O24871   1.653   1.489  -0.117  0.8995  0.0151 -0.7445
  185MOL0     C24872   1.540   1.429  -0.162 -0.1157  0.1570  0.4479
  185MOL0     C24873   1.501   1.454  -0.288 -0.2090  0.5131  0.2536
  185MOL0     C24874   1.376   1.412  -0.329  0.8448 -0.1821  0.1361
  185MOL0     C24875   1.285   1.345  -0.248  0.0146  0.1336 -0.8424
  185MOL0     O24876   1.165   1.306  -0.305 -0.2429  0.3422  0.1350
  185MOL0     C24877   1.142   1.166  -0.312 -0.7774 -0.5336  0.4941
  185MOL0     C24878   1.028   1.136  -0.216 -0.0019 -0.8106 -0.5635
  185MOL0     C24879   1.011   0.987  -0.174  1.1105  0.9413  0.3271
  185MOL0     C24880   0.904   0.958  -0.071  0.3498 -0.0795 -0.4841
  185MOL0     C24881   0.766   0.941  -0.128 -0.4507  0.7176  0.1430
  185MOL0     C24882   0.667   0.902  -0.007 -0.1711 -0.0263  0.7164
  185MOL0     C24883   0.530   0.912  -0.072  0.4073 -0.5977  0.3409
  185MOL0     C24884   0.428   0.831   0.015 -0.5533 -0.6974  0.5733
  185MOL0    Cl24885   0.248   0.854  -0.039 -0.1682  0.2625  0.2384
  185MOL0     C24886   1.330   1.321  -0.115  0.2295  0.7720  0.0331
  185MOL0     C24887   1.458   1.355  -0.072  0.1614  0.2631 -0.5353
  185MOL0     O24888   1.751   1.278  -0.052 -0.7006  0.1412 -0.3056
  185MOL0     C24889   1.953   1.429   0.071  0.1910 -0.0612  0.0610
  185MOL0     C24890   2.075   1.495   0.107  0.2719  0.1664  0.6706
  185MOL0     N24891   2.704   1.612   0.437 -0.3887 -0.6797  0.5070
  185MOL0     N24892   2.816   1.631   0.493  0.9410  0.2923 -0.8923
  185MOL0     C24893   3.638   1.879   1.157 -0.3520  0.4772  1.2183
  185MOL0     C24894   3.753   1.809   1.204  0.7066 -0.3079  0.4199
  185MOL0     C24895   4.145   1.676   1.404 -0.6189  0.1511  0.0012
  185MOL0     C24896   4.246   1.579   1.381  0.8691 -0.4096  0.2957
  185MOL0     C24897   4.367   1.590   1.456 -0.3576 -0.1374 -0.1969
  185MOL0     C24898   4.397   1.691   1.549 -0.0376 -0.5269  0.3378
  185MOL0     O24899   4.512   1.713   1.619  0.3242 -0.0177 -0.0383
  185MOL0     C24900   4.621   1.630   1.596  0.3792  0.0142 -0.0831
  185MOL0     C24901   4.641   1.530   1.711 -0.0171 -0.2668  0.1154
  185MOL0     C24902   4.788   1.492   1.735  0.5419 -0.2647  0.3592
  185MOL0     C24903   4.869   1.448   1.609  1.2318 -0.3199  0.8398
  185MOL0     C24904   4.805   1.334   1.530  0.1028  0.1107 -0.1098
  185MOL0     C24905   4.756   1.244   1.462 -0.3923  0.0683  0.4215
  185MOL0     C24906   4.300   1.780   1.571  0.2748  0.3267 -0.1909
  185MOL0     C24907   4.180   1.781   1.499  0.7093 -1.0035  0.4779
  185MOL0     H24908   3.776   1.968   1.515  0.1920 -0.1042  0.7971
  185MOL0     H24909   3.604   2.083   1.428 -1.5026 -0.9884 -0.7019
  185MOL0     H24910   3.367   2.032   1.363 -0.8718  0.1077 -0.5047
  185MOL0     H24911   3.438   2.186   1.309  1.9640  0.6250 -3.8373
  185MOL0     H24912   3.197   2.172   1.282 -2.0586 -0.0097 -0.2754
  185MOL0     H24913   3.274   2.216   1.128 -0.6348 -0.6683 -0.6600
  185MOL0     H24914   3.225   1.920   1.161 -2.2334 -1.1199  2.5882
  185MOL0     H24915   3.072   2.027   1.160  0.8758  1.8096 -0.0617
  185MOL0     H24916   3.169   2.112   0.939 -1.3513 -0.4969 -3.3037
  185MOL0     H24917   3.293   1.991   0.952 -0.5770  0.3395  1.0286
  185MOL0     H24918   3.145   1.810   0.922  2.9861  0.2896 -2.9061
  185MOL0     H24919   3.000   1.907   0.969  1.0515 -0.0468  1.1373
  185MOL0     H24920   3.059   2.023   0.737  0.3365 -0.4954 -1.7772
  185MOL0     H24921   3.152   1.879   0.712 -0.2339  1.0404 -0.4262
  185MOL0     H24922   2.933   1.764   0.785  3.4038 -1.2202  0.0577
  185MOL0     H24923   2.850   1.909   0.746 -1.6411 -1.5904 -2.6996
  185MOL0     H24924   3.025   1.734   0.560 -0.4381 -1.1452  0.7732
  185MOL0     H24925   2.976   1.896   0.513 -0.3578  0.2561 -0.1005
  185MOL0     H24926   2.693   1.936   0.500 -0.8070 -0.6674  2.2249
  185MOL0     H24927   2.442   1.850   0.434 -1.8220 -1.6127  1.5613
  185MOL0     H24928   2.501   1.792   0.279  0.7971 -1.2380 -0.1842
  185MOL0     H24929   2.348   1.643   0.501 -1.5520  0.9410 -0.2009
  185MOL0     H24930   2.454   1.561   0.380  1.8287  0.9059  3.0998
  185MOL0     H24931   2.256   1.772   0.278  1.3581  0.1668 -0.3512
  185MOL0     H24932   2.203   1.610   0.335 -2.3660  0.9621 -1.4291
  185MOL0     H24933   2.323   1.495   0.175  0.0625  0.5650  2.3049
  185MOL0     H24934   2.435   1.628   0.151 -0.2167 -0.0228 -2.5094
  185MOL0     H24935   2.117   1.661  -0.177  3.5090 -2.1156  0.5229
  185MOL0     H24936   1.798   1.628  -0.260 -0.1527  1.1203 -2.9347
  185MOL0     H24937   1.956   1.695  -0.306  1.0561  1.0010  3.2134
  185MOL0     H24938   1.922   1.526  -0.338 -0.1113  1.3835 -1.7756
  185MOL0     H24939   1.568   1.493  -0.364 -1.0585 -0.6806 -1.1683
  185MOL0     H24940   1.337   1.420  -0.430  0.3244  0.3992  0.3799
  185MOL0     H24941   1.112   1.135  -0.412  1.7081  0.5566 -0.6762
  185MOL0     H24942   1.237   1.117  -0.288  0.6485  2.3110  1.0648
  185MOL0     H24943   1.048   1.185  -0.120  0.0620 -0.2088 -0.8795
  185MOL0     H24944   0.931   1.162  -0.259 -1.5496 -2.2284  1.7963
  185MOL0     H24945   1.105   0.941  -0.143  1.2432  1.5789  0.8759
  185MOL0     H24946   0.991   0.934  -0.268  2.4917 -0.5251  0.8140
  185MOL0     H24947   0.940   0.869  -0.018 -1.8201 -1.2827 -0.9351
  185MOL0     H24948   0.890   1.043  -0.004  0.6605 -0.4562  0.0708
  185MOL0     H24949   0.775   0.859  -0.199  2.2117  1.4665 -0.4959
  185MOL0     H24950   0.737   1.037  -0.172  0.7378  1.1106  0.1700
  185MOL0     H24951   0.691   0.798   0.017  0.7457  0.3814  1.7068
  185MOL0     H24952   0.684   0.960   0.084  2.2247  0.6272 -0.0758
  185MOL0     H24953   0.526   0.870  -0.173 -2.2352 -0.9334  0.5005
  185MOL0     H24954   0.501   1.018  -0.069  2.1352 -0.0390 -1.1870
  185MOL0     H24955   0.435   0.867   0.118 -2.2221 -1.7798  1.1079
  185MOL0     H24956   0.453   0.725   0.015 -0.9422 -0.7901  0.5159
  185MOL0     H24957   1.256   1.296  -0.041  0.6474  1.2824  0.6321
  185MOL0     H24958   1.485   1.347   0.033 -2.1821 -1.7481  0.0113
  185MOL0     H24959   1.892   1.366   0.136 -1.1070  0.3554 -0.7174
  185MOL0     H24960   2.113   1.478   0.207 -0.2120 -2.2055  0.5314
  185MOL0     H24961   3.596   1.855   1.060 -0.3205 -2.3929  1.8266
  185MOL0     H24962   3.792   1.729   1.142 -0.2614 -0.7608  0.3789
  185MOL0     H24963   4.235   1.492   1.317  1.1995 -0.4348  0.2711
  185MOL0     H24964   4.438   1.509   1.448  2.2914  1.8008  1.9158
  185MOL0     H24965   4.613   1.584   1.497 -0.4537  1.1007 -0.5369
  185MOL0     H24966   4.706   1.698   1.594  0.6030 -0.0863  2.4653
  185MOL0     H24967   4.574   1.445   1.702  0.7396 -0.9551  0.8002
  185MOL0     H24968   4.599   1.572   1.803  2.7053  1.5640  0.6466
  185MOL0     H24969   4.795   1.407   1.804 -1.3930 -3.7141 -3.2362
  185MOL0     H24970   4.838   1.578   1.780 -2.7037  1.0668  1.6783
  185MOL0     H24971   4.967   1.412   1.643  0.9905 -0.3757  1.4828
  185MOL0     H24972   4.874   1.531   1.538  2.0630  1.1031  2.4855
  185MOL0     H24973   4.721   1.161   1.404 -0.2086 -0.0079  0.4181
  185MOL0     H24974   4.335   1.860   1.637 -3.3175 -0.5779  3.1817
  185MOL0     H24975   4.118   1.868   1.522  1.0558  0.5107 -3.5631
  186MOL0     O24976   8.625   3.553   0.662 -0.2669 -0.0095  0.0399
  186MOL0     C24977   8.658   3.663   0.687 -0.1411  0.0974  0.0934
  186MOL0     O24978   8.577   3.764   0.728 -0.8668  0.1824 -0.4761
  186MOL0     C24979   8.448   3.765   0.702 -0.2604 -0.5458 -0.0992
  186MOL0     C24980   8.352   3.785   0.802  0.4500  0.0331 -0.2758
  186MOL0     C24981   8.210   3.781   0.773 -0.1966 -0.2828 -0.5919
  186MOL0     C24982   8.165   3.766   0.643 -0.2684  0.9169 -0.8885
  186MOL0     O24983   8.034   3.759   0.601  0.0726 -0.3876 -0.0246
  186MOL0     C24984   7.939   3.805   0.703 -0.6565  0.3622  0.3774
  186MOL0     C24985   7.808   3.834   0.627 -0.2666 -0.7287 -0.5112
  186MOL0     C24986   7.816   3.976   0.572 -0.2570 -0.6607 -0.8115
  186MOL0     C24987   7.683   4.032   0.528  0.8395 -0.9544  0.6184
  186MOL0     C24988   7.623   4.103   0.652 -0.0364  0.0008 -0.0700
  186MOL0     C24989   7.496   4.176   0.636  0.8795 -0.3901  0.1260
  186MOL0     C24990   7.437   4.228   0.767 -0.1100  0.4607 -0.0358
  186MOL0     C24991   7.296   4.288   0.748 -0.1039 -0.2217 -0.3282
  186MOL0     N24992   7.234   4.340   0.868  0.1678  0.4483  0.6401
  186MOL0     C24993   7.220   4.281   0.992 -0.7612  0.1739 -0.0249
  186MOL0     C24994   7.164   4.382   1.067  0.3092  0.7087 -0.2143
  186MOL0     C24995   7.083   4.363   1.195 -0.2687  0.3527  0.2957
  186MOL0     C24996   6.939   4.333   1.170  0.7119 -0.0143 -0.4558
  186MOL0     C24997   6.861   4.460   1.132 -0.1637 -0.2391 -0.3413
  186MOL0     C24998   6.710   4.455   1.164 -1.6598 -0.5348  0.3340
  186MOL0     O24999   6.665   4.564   1.088  0.1589  0.3069  0.1446
  186MOL0     C25000   6.539   4.605   1.122  0.1282  0.6519  0.5155
  186MOL0     C25001   6.486   4.719   1.060  0.5385 -0.6549  0.0072
  186MOL0     C25002   6.369   4.784   1.086  0.2210  0.0674 -0.2137
  186MOL0     C25003   6.343   4.926   1.027 -0.0349  0.3036 -0.6347
  186MOL0     C25004   6.280   4.722   1.181 -0.0241 -0.3258  0.1524
  186MOL0     C25005   6.141   4.777   1.208 -0.5355 -0.1489  0.1393
  186MOL0     O25006   6.079   4.727   1.313  0.2428 -0.5278 -0.0553
  186MOL0     C25007   5.946   4.757   1.355 -0.9478 -0.0661 -0.1397
  186MOL0     C25008   5.891   4.667   1.456  0.2962  0.4477  0.2251
  186MOL0     C25009   5.770   4.701   1.517 -0.8900  0.3343 -0.1191
  186MOL0     C25010   5.693   4.811   1.473 -0.1909  0.5445 -0.5994
  186MOL0     O25011   5.575   4.838   1.542 -0.3601  0.4705  0.2993
  186MOL0     C25012   5.451   4.811   1.474 -0.1059 -0.1621  0.2763
  186MOL0     C25013   5.330   4.906   1.517 -0.0272 -0.6403 -0.9059
  186MOL0     C25014   5.193   4.861   1.454  0.4052  0.4904  0.4076
  186MOL0     C25015   5.074   4.912   1.534  0.4130 -0.1318  0.1017
  186MOL0     C25016   4.935   4.884   1.478 -0.0963 -0.0779  0.1118
  186MOL0     C25017   4.908   4.947   1.348  0.9205 -0.0174 -0.4774
  186MOL0     C25018   4.774   4.896   1.293 -0.8147  0.7877  0.1948
  186MOL0     C25019   4.738   4.960   1.164 -0.1822  0.7143  0.0287
  186MOL0    Cl25020   4.746   5.142   1.164 -0.2058 -0.2422  0.2767
  186MOL0     C25021   5.739   4.889   1.365  0.7721  0.6104 -0.5838
  186MOL0     C25022   5.863   4.860   1.311 -0.1770  0.3952 -0.6497
  186MOL0     O25023   6.088   4.846   1.120 -0.1107 -0.3753  0.4262
  186MOL0     C25024   6.332   4.612   1.258  0.4762 -0.5954  0.1909
  186MOL0     C25025   6.452   4.551   1.221 -0.4117  0.5275 -0.5579
  186MOL0     N25026   7.145   4.492   0.989  0.7458 -0.0922  0.6759
  186MOL0     N25027   7.196   4.468   0.875  0.0247 -0.6052 -0.0400
  186MOL0     C25028   8.264   3.743   0.549  0.6501  0.0904  0.2579
  186MOL0     C25029   8.404   3.753   0.575  0.6086 -0.1198 -0.3939
  186MOL0     C25030   8.807   3.680   0.701  0.1246 -0.3598  0.2558
  186MOL0     C25031   8.870   3.802   0.745  0.0268  0.4012 -0.1770
  186MOL0     C25032   9.003   3.800   0.783 -0.4376  0.4532 -0.1373
  186MOL0     C25033   9.087   3.685   0.776 -0.3679  0.7325  0.1800
  186MOL0     O25034   9.215   3.690   0.821  0.7692 -0.1531 -0.3264
  186MOL0     C25035   9.306   3.590   0.784 -0.4557  0.0356  0.3457
  186MOL0     C25036   9.444   3.602   0.845 -0.0482 -0.0743  0.1002
  186MOL0     C25037   9.521   3.471   0.842  0.1527  0.4221  0.4142
  186MOL0     C25038   9.679   3.471   0.835 -0.8166 -0.8122 -0.5232
  186MOL0     C25039   9.722   3.468   0.697 -0.3439 -0.3008 -0.4407
  186MOL0     C25040   9.754   3.472   0.580 -0.7989 -0.1150  0.5855
  186MOL0     C25041   9.031   3.574   0.715  0.7065 -0.1252  0.1641
  186MOL0     C25042   8.897   3.575   0.665 -0.4446  0.1937 -0.1378
  186MOL0     H25043   8.380   3.805   0.905 -1.3257 -0.4262  0.3525
  186MOL0     H25044   8.147   3.784   0.862 -1.8948 -1.3032 -1.7005
  186MOL0     H25045   7.924   3.728   0.779 -3.8217  0.9038  0.4153
  186MOL0     H25046   7.968   3.901   0.748 -0.7671  0.9699 -0.8034
  186MOL0     H25047   7.793   3.755   0.553 -0.0842 -3.5254  2.2252
  186MOL0     H25048   7.721   3.826   0.693  0.9612 -1.2778  1.1217
  186MOL0     H25049   7.861   4.044   0.645 -1.2166 -0.6016 -0.2564
  186MOL0     H25050   7.882   3.987   0.485 -2.0479  1.2816 -2.0178
  186MOL0     H25051   7.687   4.096   0.439  0.1952 -0.8110  0.6936
  186MOL0     H25052   7.621   3.948   0.497  0.0698  0.0456 -0.6394
  186MOL0     H25053   7.611   4.031   0.733 -1.6263 -0.8398 -0.9982
  186MOL0     H25054   7.696   4.179   0.681 -2.6347  1.9534  1.7714
  186MOL0     H25055   7.507   4.270   0.582 -6.1232  1.2678  0.6183
  186MOL0     H25056   7.425   4.113   0.581  1.1280  0.7750 -1.6148
  186MOL0     H25057   7.437   4.143   0.836 -0.6301  0.4371 -0.0620
  186MOL0     H25058   7.506   4.306   0.801  1.5580 -1.0640  0.2334
  186MOL0     H25059   7.227   4.217   0.702 -0.9184  0.2728  0.1067
  186MOL0     H25060   7.306   4.360   0.666 -2.2866 -0.6212 -0.9894
  186MOL0     H25061   7.237   4.179   1.027  3.2760  0.8932  0.5929
  186MOL0     H25062   7.119   4.274   1.248 -1.5327 -0.1081  0.3979
  186MOL0     H25063   7.098   4.454   1.253 -0.0401  0.7760 -0.4069
  186MOL0     H25064   6.900   4.276   1.254 -1.8534  0.7325 -1.0440
  186MOL0     H25065   6.920   4.261   1.090 -1.0908 -0.6910  0.5398
  186MOL0     H25066   6.884   4.480   1.027 -0.6435 -2.2503 -0.8774
  186MOL0     H25067   6.902   4.538   1.198  0.1147 -0.4937 -0.2115
  186MOL0     H25068   6.687   4.466   1.271  2.0747 -4.6631  1.8856
  186MOL0     H25069   6.673   4.361   1.123  1.5575 -2.2604  1.0777
  186MOL0     H25070   6.553   4.773   0.993  0.3317  0.1616  0.4455
  186MOL0     H25071   6.306   4.995   1.103 -1.6467 -0.3309 -0.8102
  186MOL0     H25072   6.434   4.955   0.973  0.3924  0.9586  0.4185
  186MOL0     H25073   6.260   4.916   0.956 -1.0279  0.9512  0.3904
  186MOL0     H25074   5.949   4.581   1.488  1.1220  0.7805 -0.3251
  186MOL0     H25075   5.736   4.644   1.603  1.5072  0.1473  0.7795
  186MOL0     H25076   5.459   4.827   1.366  2.8247  0.9236  0.5555
  186MOL0     H25077   5.423   4.707   1.496  0.8006 -0.2814  0.9572
  186MOL0     H25078   5.320   4.904   1.626  0.8687 -0.9053 -0.8206
  186MOL0     H25079   5.365   5.003   1.481 -0.2862 -0.3258 -0.3217
  186MOL0     H25080   5.195   4.752   1.466  2.4978  0.6633  2.5550
  186MOL0     H25081   5.191   4.895   1.350  0.2239  1.3142  0.6767
  186MOL0     H25082   5.073   4.873   1.636  0.4924  0.8200  0.4730
  186MOL0     H25083   5.085   5.020   1.546  2.6161 -0.3405  0.2777
  186MOL0     H25084   4.863   4.929   1.547  1.2133 -0.9909  2.1824
  186MOL0     H25085   4.930   4.775   1.468  0.8348 -0.0509 -0.7675
  186MOL0     H25086   4.906   5.055   1.367 -3.0144 -0.2301  1.1714
  186MOL0     H25087   4.981   4.919   1.272  0.4383  2.3268 -1.8965
  186MOL0     H25088   4.701   4.897   1.374 -0.3751  0.5940  0.5999
  186MOL0     H25089   4.783   4.790   1.270  2.0194  1.3274 -1.7687
  186MOL0     H25090   4.638   4.926   1.136 -0.4383  0.6111  1.0195
  186MOL0     H25091   4.800   4.925   1.081 -0.9488  3.3165 -1.7590
  186MOL0     H25092   5.671   4.964   1.326  0.4756 -0.0313 -1.3525
  186MOL0     H25093   5.888   4.928   1.230 -1.2207  1.0955 -0.4146
  186MOL0     H25094   6.282   4.560   1.340  0.6499  0.2789  0.8622
  186MOL0     H25095   6.482   4.468   1.285  0.2451  0.0189 -1.4899
  186MOL0     H25096   8.227   3.720   0.450  0.8454 -1.0184  0.4319
  186MOL0     H25097   8.465   3.738   0.487 -0.9846  1.7171 -1.9135
  186MOL0     H25098   8.806   3.890   0.754 -0.1172  0.7346 -3.3750
  186MOL0     H25099   9.048   3.888   0.828 -0.3124 -0.0004  0.6635
  186MOL0     H25100   9.267   3.490   0.806  2.0785 -1.1734 -0.2956
  186MOL0     H25101   9.324   3.584   0.676  0.8418  0.3598  0.5259
  186MOL0     H25102   9.418   3.638   0.945 -0.4653 -1.1881  0.4110
  186MOL0     H25103   9.502   3.676   0.790 -0.2125 -1.2840 -1.8093
  186MOL0     H25104   9.499   3.404   0.759 -0.9037 -1.1748  1.8982
  186MOL0     H25105   9.499   3.404   0.926 -1.3897 -0.9014 -0.9815
  186MOL0     H25106   9.718   3.393   0.901  0.2546  0.2776  0.1680
  186MOL0     H25107   9.720   3.562   0.879  0.9639 -1.8380  0.0585
  186MOL0     H25108   9.792   3.463   0.481  2.8597  2.4760  1.5598
  186MOL0     H25109   9.088   3.483   0.698 -1.2070 -1.0646 -1.9263
  186MOL0     H25110   8.868   3.484   0.614  0.7890 -0.6808  0.6937
  187MOL0     O25111   0.610   3.004  11.107  0.5857 -0.3279 -0.0276
  187MOL0     C25112   0.651   2.894  11.136 -0.3903  0.2775 -0.4727
  187MOL0     O25113   0.582   2.783  11.133  0.4014  0.3500  0.7943
  187MOL0     C25114   0.464   2.777  11.060 -0.6368 -0.7448 -0.2241
  187MOL0     C25115   0.340   2.818  11.115 -0.5259  0.2769 -0.7851
  187MOL0     C25116   0.226   2.823  11.032 -1.1219 -0.1885  0.8576
  187MOL0     C25117   0.242   2.800  10.895  0.3535 -0.0032  0.0766
  187MOL0     O25118   0.140   2.821  10.803  0.9612  0.0257  0.2041
  187MOL0     C25119   0.009   2.835  10.852 -0.2212 -0.5962  0.0269
  187MOL0     C25120  -0.079   2.831  10.729 -0.2008  0.3483  0.1413
  187MOL0     C25121  -0.222   2.869  10.766  0.3043  0.3058 -0.3259
  187MOL0     C25122  -0.296   2.896  10.636  0.5734  0.7150  0.0341
  187MOL0     C25123  -0.422   2.979  10.655 -0.5780 -0.4667  0.1098
  187MOL0     C25124  -0.547   2.900  10.673 -0.1616  0.1978 -0.5008
  187MOL0     C25125  -0.672   2.986  10.690 -0.1178 -0.0246  0.1791
  187MOL0     C25126  -0.699   3.043  10.828 -0.1384 -0.4033 -0.1076
  187MOL0     N25127  -0.845   3.063  10.849  0.5364  0.3780  0.4062
  187MOL0     C25128  -0.925   3.133  10.758  0.5685  0.2945 -0.1985
  187MOL0     C25129  -1.052   3.078  10.783  0.1912 -0.7333  0.0013
  187MOL0     C25130  -1.169   3.130  10.713  0.8707 -0.4831  0.2741
  187MOL0     C25131  -1.300   3.104  10.792 -0.4368 -0.0194  0.7516
  187MOL0     C25132  -1.424   3.160  10.726  0.4527 -0.3031  0.9074
  187MOL0     C25133  -1.539   3.213  10.819  0.2743 -0.2622 -0.6837
  187MOL0     O25134  -1.644   3.285  10.743  0.4230 -0.1590 -0.2894
  187MOL0     C25135  -1.772   3.277  10.790 -0.6181  0.3741  0.5709
  187MOL0     C25136  -1.819   3.227  10.917 -0.1623 -0.4095  0.2792
  187MOL0     C25137  -1.949   3.215  10.945  0.0210 -0.4607  0.7462
  187MOL0     C25138  -1.974   3.171  11.090 -0.0753  0.4707 -0.5497
  187MOL0     C25139  -2.050   3.260  10.853  0.2467 -0.3232 -0.4458
  187MOL0     C25140  -2.195   3.238  10.881 -0.2442 -0.6347 -0.6392
  187MOL0     O25141  -2.277   3.263  10.778 -0.5930 -0.1166  0.7226
  187MOL0     C25142  -2.394   3.202  10.752 -0.7337  0.0386  0.4563
  187MOL0     C25143  -2.418   3.078  10.807  0.3051 -0.4797  0.4528
  187MOL0     C25144  -2.533   3.002  10.777 -0.0513 -0.1911 -0.0299
  187MOL0     C25145  -2.632   3.056  10.695 -0.7716  0.0034 -0.8978
  187MOL0     O25146  -2.751   2.987  10.690 -0.3229 -0.1278  0.7407
  187MOL0     C25147  -2.864   3.050  10.626 -0.6233  0.2577 -0.7690
  187MOL0     C25148  -2.993   2.963  10.622  0.0432 -0.1228  0.6133
  187MOL0     C25149  -3.111   3.046  10.578  0.4245  0.0222 -0.2124
  187MOL0     C25150  -3.236   2.978  10.621 -1.0390  0.6972 -0.1848
  187MOL0     C25151  -3.289   2.878  10.530  0.0473 -0.6990 -0.8044
  187MOL0     C25152  -3.392   2.942  10.425  0.8621  0.2945 -0.1139
  187MOL0     C25153  -3.532   2.938  10.478 -0.3085 -0.1189  0.2062
  187MOL0     C25154  -3.596   2.805  10.457 -0.2175  0.2272 -1.0587
  187MOL0    Cl25155  -3.746   2.778  10.554 -0.0530  0.1824 -0.1563
  187MOL0     C25156  -2.613   3.192  10.644  0.0196  0.5519 -0.0122
  187MOL0     C25157  -2.485   3.252  10.659 -0.0662 -0.0883  0.1334
  187MOL0     O25158  -2.244   3.209  10.991 -0.3459  0.0890 -0.3127
  187MOL0     C25159  -2.004   3.312  10.731 -0.0350 -0.4576  0.3442
  187MOL0     C25160  -1.875   3.318  10.696  0.1426  0.1230  0.0841
  187MOL0     N25161  -1.042   2.986  10.889 -0.1505  0.4428  0.4385
  187MOL0     N25162  -0.923   2.974  10.916  0.0765 -0.2182 -0.6020
  187MOL0     C25163   0.362   2.745  10.847  0.7283 -0.2216  0.0612
  187MOL0     C25164   0.475   2.741  10.928 -0.6836  0.2803 -0.2034
  187MOL0     C25165   0.795   2.878  11.172 -0.6808 -0.6516  0.3178
  187MOL0     C25166   0.873   2.988  11.178 -0.4456  0.2095  0.1017
  187MOL0     C25167   1.005   2.988  11.213  0.2267 -0.2030 -0.2575
  187MOL0     C25168   1.073   2.868  11.244 -0.8798 -0.3388 -0.6260
  187MOL0     O25169   1.209   2.886  11.277  0.8720 -0.4103  0.0458
  187MOL0     C25170   1.259   2.777  11.361 -0.4529  0.3107 -0.1445
  187MOL0     C25171   1.333   2.683  11.266 -0.2744  0.2443  0.7871
  187MOL0     C25172   1.439   2.758  11.180  0.2423  0.5318 -0.1338
  187MOL0     C25173   1.476   2.674  11.060 -0.4248  0.7835 -0.4320
  187MOL0     C25174   1.599   2.599  11.090 -0.0478  0.2155 -0.0418
  187MOL0     C25175   1.692   2.519  11.095 -0.1308  0.6371 -0.3308
  187MOL0     C25176   0.988   2.752  11.248 -0.0083 -0.0734  0.2965
  187MOL0     C25177   0.857   2.757  11.199 -0.4051 -0.1869  0.1802
  187MOL0     H25178   0.342   2.849  11.219  0.1098  0.1926 -0.7649
  187MOL0     H25179   0.136   2.864  11.077 -0.8264  1.8059 -0.2835
  187MOL0     H25180  -0.028   2.763  10.925 -3.2110  1.0283  0.2486
  187MOL0     H25181   0.000   2.934  10.896 -1.0475 -1.2297  1.3316
  187MOL0     H25182  -0.030   2.898  10.657 -2.6699  1.5388 -0.5556
  187MOL0     H25183  -0.090   2.730  10.687 -1.3715  0.0451  1.1265
  187MOL0     H25184  -0.277   2.795  10.826  0.6649 -0.2985 -0.7284
  187MOL0     H25185  -0.212   2.958  10.828 -0.6219 -1.8682  3.2473
  187MOL0     H25186  -0.233   2.955  10.570 -0.0429 -1.0963 -2.3072
  187MOL0     H25187  -0.301   2.798  10.588  2.1053 -0.2413  1.7189
  187MOL0     H25188  -0.412   3.052  10.735 -0.2384 -0.3621 -0.0245
  187MOL0     H25189  -0.435   3.032  10.560  1.7561  0.1821  0.0884
  187MOL0     H25190  -0.571   2.844  10.582 -2.4988  1.9261 -1.0435
  187MOL0     H25191  -0.530   2.830  10.755  0.4002 -0.8343 -1.4764
  187MOL0     H25192  -0.669   3.076  10.628  3.4584 -0.0473  0.1045
  187MOL0     H25193  -0.751   2.918  10.657  0.5130 -0.5183 -0.3588
  187MOL0     H25194  -0.643   3.136  10.844 -0.2085 -0.4672  0.5354
  187MOL0     H25195  -0.665   2.979  10.911  1.4704 -0.0149 -0.4414
  187MOL0     H25196  -0.901   3.202  10.677  2.3268 -0.1666 -0.1104
  187MOL0     H25197  -1.167   3.239  10.711  0.3539 -0.4709  0.1654
  187MOL0     H25198  -1.180   3.084  10.614 -0.0597 -1.2302  0.7002
  187MOL0     H25199  -1.280   3.147  10.890  3.6894 -0.8279  0.4305
  187MOL0     H25200  -1.320   2.997  10.798  0.3990 -0.1482  1.3029
  187MOL0     H25201  -1.462   3.083  10.658  0.2363 -0.4061  1.1419
  187MOL0     H25202  -1.397   3.250  10.671 -1.6002  1.8831  3.2261
  187MOL0     H25203  -1.493   3.285  10.887  2.0042  0.0723 -2.1367
  187MOL0     H25204  -1.583   3.130  10.875 -0.9670  1.2356  0.6811
  187MOL0     H25205  -1.756   3.201  11.002 -0.3892  0.6575  0.7795
  187MOL0     H25206  -2.050   3.227  11.145  1.0690  0.9594  0.5896
  187MOL0     H25207  -2.002   3.066  11.078 -1.4875  0.7992 -0.2832
  187MOL0     H25208  -1.884   3.183  11.151 -0.0374 -0.9307 -0.2979
  187MOL0     H25209  -2.336   3.033  10.862  0.6740  2.0318  2.1621
  187MOL0     H25210  -2.552   2.903  10.817 -2.6306 -0.3742 -1.4807
  187MOL0     H25211  -2.882   3.147  10.674  0.6319  0.5845 -0.9197
  187MOL0     H25212  -2.847   3.070  10.520  1.2063  2.2619 -0.1768
  187MOL0     H25213  -2.983   2.880  10.551 -2.4183  1.6597 -2.0943
  187MOL0     H25214  -3.014   2.927  10.722 -3.8392 -0.8614 -0.3117
  187MOL0     H25215  -3.123   3.065  10.471  1.9174  4.5364  0.1929
  187MOL0     H25216  -3.103   3.143  10.629 -2.3569  0.1886  0.0465
  187MOL0     H25217  -3.220   2.940  10.722  1.2908 -2.5955 -1.6149
  187MOL0     H25218  -3.311   3.057  10.634  0.2234  2.2374 -1.8419
  187MOL0     H25219  -3.320   2.789  10.585  0.5148 -1.3149 -1.5103
  187MOL0     H25220  -3.203   2.834  10.479  0.9525  0.8194 -0.6298
  187MOL0     H25221  -3.353   3.043  10.406 -1.3052  0.7517 -2.6642
  187MOL0     H25222  -3.387   2.887  10.331 -1.6445  1.9854 -1.3394
  187MOL0     H25223  -3.608   2.994  10.422 -0.6891 -0.8299 -0.0093
  187MOL0     H25224  -3.544   2.968  10.583 -2.4182  0.8960 -0.2627
  187MOL0     H25225  -3.524   2.726  10.482  1.3257  1.3374 -1.8433
  187MOL0     H25226  -3.641   2.792  10.358 -1.0563 -0.9617 -0.5458
  187MOL0     H25227  -2.684   3.251  10.587 -0.3576 -0.2877 -0.4263
  187MOL0     H25228  -2.456   3.343  10.607 -0.6777 -1.0407 -1.9605
  187MOL0     H25229  -2.057   3.345  10.642  3.0741 -2.1466 -2.3563
  187MOL0     H25230  -1.843   3.376  10.611 -1.9478  1.6644  0.2917
  187MOL0     H25231   0.381   2.718  10.743  1.8828 -0.4530  0.3221
  187MOL0     H25232   0.571   2.719  10.882  0.1993  1.9094  0.7894
  187MOL0     H25233   0.832   3.087  11.159  1.3619  0.5565 -2.4397
  187MOL0     H25234   1.062   3.079  11.222 -0.0328 -0.1177  0.6480
  187MOL0     H25235   1.324   2.823  11.436 -0.8453  0.2272  0.2455
  187MOL0     H25236   1.185   2.725  11.423 -4.3777  2.8504 -2.2862
  187MOL0     H25237   1.254   2.645  11.200  1.0096 -0.1338 -0.5744
  187MOL0     H25238   1.376   2.596  11.316 -1.0496 -1.8343 -1.9316
  187MOL0     H25239   1.528   2.778  11.242 -0.7050 -1.9187  2.2299
  187MOL0     H25240   1.402   2.855  11.146 -0.9895  0.4593  0.9127
  187MOL0     H25241   1.495   2.729  10.968  0.9214 -0.4739 -0.9520
  187MOL0     H25242   1.405   2.592  11.041 -0.8618  1.0430  0.0564
  187MOL0     H25243   1.751   2.438  11.132  0.2980  0.2909 -1.6901
  187MOL0     H25244   1.033   2.656  11.271  1.4219  0.7148  0.8938
  187MOL0     H25245   0.807   2.661  11.201  1.5730 -1.3448 -1.6518
  188MOL0     O25246  10.376   8.272   2.645  0.3055  0.4006 -0.4442
  188MOL0     C25247  10.431   8.191   2.720 -0.6191  0.2374 -0.2409
  188MOL0     O25248  10.371   8.099   2.814 -0.0598  0.5267  0.0616
  188MOL0     C25249  10.267   8.152   2.880 -0.8749  0.7279 -0.3517
  188MOL0     C25250  10.138   8.117   2.855 -0.0938 -0.2347 -0.1981
  188MOL0     C25251  10.036   8.166   2.939  0.4978  0.3833 -0.4134
  188MOL0     C25252  10.060   8.240   3.045 -0.3232  0.0303  0.4980
  188MOL0     O25253   9.954   8.269   3.131 -0.4001  1.5209  0.6333
  188MOL0     C25254   9.964   8.386   3.196 -1.0906 -0.5109  0.7495
  188MOL0     C25255   9.832   8.433   3.254  0.2075  0.2480 -0.8769
  188MOL0     C25256   9.750   8.502   3.149  0.7482 -0.6128 -0.9509
  188MOL0     C25257   9.599   8.498   3.193 -0.2859 -0.3140  0.2841
  188MOL0     C25258   9.497   8.552   3.090  0.0358  0.0899 -0.1102
  188MOL0     C25259   9.388   8.651   3.152 -0.3037  0.1558  0.1158
  188MOL0     C25260   9.263   8.659   3.067 -1.0302  0.6147  0.2885
  188MOL0     C25261   9.275   8.704   2.922  0.3147 -0.5065 -0.1504
  188MOL0     N25262   9.137   8.731   2.868 -0.1972  0.6472 -0.5190
  188MOL0     C25263   9.107   8.744   2.738  0.0577 -0.3028 -0.6003
  188MOL0     C25264   8.975   8.781   2.741 -0.3896  0.8592 -0.5581
  188MOL0     C25265   8.901   8.812   2.615 -0.2768 -0.2649  0.2591
  188MOL0     C25266   8.789   8.711   2.590  0.3715  0.3478  0.0675
  188MOL0     C25267   8.827   8.568   2.562  0.4143  0.2105 -0.4273
  188MOL0     C25268   8.877   8.542   2.419 -0.4405  1.1078 -0.6349
  188MOL0     O25269   9.023   8.564   2.414 -0.0903  0.9572 -0.4481
  188MOL0     C25270   9.089   8.564   2.292 -0.0524  0.0914  0.5022
  188MOL0     C25271   9.027   8.522   2.169 -0.0416  0.5750 -0.3048
  188MOL0     C25272   9.099   8.529   2.053 -0.4779  0.2238 -0.0037
  188MOL0     C25273   9.016   8.509   1.929  0.6949 -0.7912 -1.3948
  188MOL0     C25274   9.238   8.554   2.041  0.3128  0.7078  0.1034
  188MOL0     C25275   9.322   8.538   1.927 -0.9861  0.6131  0.0157
  188MOL0     O25276   9.457   8.587   1.941  0.4805  0.5216  0.3257
  188MOL0     C25277   9.544   8.597   1.834  0.6903  0.1561 -0.4427
  188MOL0     C25278   9.574   8.506   1.731 -1.0741  0.0143 -0.2425
  188MOL0     C25279   9.671   8.529   1.638  0.8713  0.2267  0.6962
  188MOL0     C25280   9.735   8.655   1.633  0.6398 -0.1415 -0.3543
  188MOL0     O25281   9.824   8.690   1.546  0.4690  0.0531 -0.2576
  188MOL0     C25282   9.895   8.588   1.480 -0.5196  0.1804  1.2382
  188MOL0     C25283  10.019   8.657   1.411 -0.8880  0.2979  0.2568
  188MOL0     C25284  10.119   8.719   1.504  0.2764 -0.1497  0.2423
  188MOL0     C25285  10.243   8.782   1.432  0.5358 -0.0913  0.7113
  188MOL0     C25286  10.324   8.873   1.519  0.1512  0.2095 -0.8926
  188MOL0     C25287  10.429   8.786   1.598 -0.8894 -0.5702  0.4817
  188MOL0     C25288  10.492   8.868   1.716  0.6644 -0.7169 -0.3341
  188MOL0     C25289  10.412   8.853   1.850 -0.7993  0.1055 -0.1880
  188MOL0    Cl25290  10.454   8.688   1.925  0.3090 -0.0187  0.0488
  188MOL0     C25291   9.704   8.750   1.727  1.4369  0.0365  0.2533
  188MOL0     C25292   9.612   8.721   1.829  0.0032  0.0789 -0.1476
  188MOL0     O25293   9.280   8.484   1.833  0.1942  0.4285  0.1162
  188MOL0     C25294   9.290   8.597   2.162 -0.2562 -0.3094 -0.7171
  188MOL0     C25295   9.218   8.603   2.283 -0.6135  0.0456 -0.0291
  188MOL0     N25296   8.938   8.794   2.874 -0.0611  0.1956  0.0819
  188MOL0     N25297   9.035   8.774   2.945 -0.3076 -0.2960 -0.0468
  188MOL0     C25298  10.193   8.288   3.061  0.0217 -0.3961 -0.4230
  188MOL0     C25299  10.300   8.238   2.982  0.1446 -0.1790  1.0391
  188MOL0     C25300  10.584   8.182   2.705 -0.3266  0.7462  0.2537
  188MOL0     C25301  10.658   8.102   2.797 -0.4357 -0.7443 -0.0124
  188MOL0     C25302  10.792   8.081   2.781 -1.1268  0.2944  0.3452
  188MOL0     C25303  10.862   8.148   2.682  0.3705 -0.6110  0.3520
  188MOL0     O25304  10.998   8.118   2.673 -0.0932 -0.9252  0.6418
  188MOL0     C25305  11.083   8.203   2.588 -0.0855  0.8634  0.4307
  188MOL0     C25306  11.223   8.151   2.581 -0.3154  0.1286 -0.1103
  188MOL0     C25307  11.279   8.114   2.718  0.1248 -0.0994 -0.1265
  188MOL0     C25308  11.434   8.099   2.716  0.5011  0.3348  0.3971
  188MOL0     C25309  11.487   8.236   2.705  0.2049 -0.0733 -0.0798
  188MOL0     C25310  11.530   8.347   2.680 -0.3123  0.7468 -0.0698
  188MOL0     C25311  10.798   8.234   2.593  0.2931 -0.3432  0.1528
  188MOL0     C25312  10.657   8.237   2.595 -0.3833 -0.1609  0.1059
  188MOL0     H25313  10.113   8.051   2.772 -0.4093 -2.4368  1.5482
  188MOL0     H25314   9.933   8.135   2.923  0.5072  1.2094 -2.4533
  188MOL0     H25315  10.035   8.368   3.278 -0.2396  1.4035  0.4786
  188MOL0     H25316  10.010   8.462   3.131 -0.3007 -1.9579 -0.4491
  188MOL0     H25317   9.785   8.340   3.287  0.7097  0.2470 -0.1281
  188MOL0     H25318   9.840   8.499   3.341 -1.0017 -0.9370  0.1935
  188MOL0     H25319   9.780   8.607   3.143  0.0899 -0.3904 -0.4085
  188MOL0     H25320   9.782   8.462   3.052  0.2164 -0.4340 -1.2041
  188MOL0     H25321   9.575   8.392   3.210  1.6766 -1.0898 -1.3417
  188MOL0     H25322   9.588   8.545   3.292  3.1431  1.7229 -0.1493
  188MOL0     H25323   9.540   8.587   2.995  1.1938  1.0699  0.7424
  188MOL0     H25324   9.440   8.463   3.060  3.6134 -1.9567 -1.4116
  188MOL0     H25325   9.363   8.607   3.249  0.7725  0.7824  0.6939
  188MOL0     H25326   9.430   8.751   3.166 -0.2101  0.0226  0.8044
  188MOL0     H25327   9.223   8.558   3.058  0.8704 -0.1065 -0.7530
  188MOL0     H25328   9.196   8.723   3.124 -0.8903  0.4962  0.5869
  188MOL0     H25329   9.314   8.622   2.860 -0.4570 -2.9993  2.4453
  188MOL0     H25330   9.334   8.796   2.916 -1.2909  0.5851 -0.0054
  188MOL0     H25331   9.166   8.744   2.647 -0.1113 -0.4738 -0.7091
  188MOL0     H25332   8.867   8.914   2.634  1.6770  0.5675 -0.4677
  188MOL0     H25333   8.967   8.821   2.528 -0.5408  3.0056  0.2556
  188MOL0     H25334   8.722   8.739   2.508  0.4782 -1.6316 -0.7667
  188MOL0     H25335   8.725   8.714   2.678 -2.3110  2.0259 -1.7883
  188MOL0     H25336   8.739   8.505   2.569  1.7851 -2.2653 -3.2302
  188MOL0     H25337   8.892   8.523   2.638  0.1069  0.3015 -0.1108
  188MOL0     H25338   8.825   8.606   2.347 -1.9857 -0.0319 -0.5744
  188MOL0     H25339   8.861   8.436   2.396 -0.6569  1.2992 -1.3940
  188MOL0     H25340   8.925   8.485   2.179  0.9673 -2.9700 -1.8320
  188MOL0     H25341   8.907   8.517   1.943  0.8116 -0.6814 -0.4281
  188MOL0     H25342   9.042   8.598   1.870 -2.7755  0.6900 -0.9632
  188MOL0     H25343   9.049   8.424   1.870  0.6060 -0.4442 -1.9570
  188MOL0     H25344   9.527   8.408   1.725  3.8349 -2.6913  0.2865
  188MOL0     H25345   9.691   8.460   1.557  1.9312  0.8206  0.4328
  188MOL0     H25346   9.918   8.504   1.547 -1.4559 -4.5685 -3.6090
  188MOL0     H25347   9.831   8.548   1.401  0.5543 -0.6984  0.7688
  188MOL0     H25348  10.070   8.579   1.355  1.9059  0.8564  1.7983
  188MOL0     H25349   9.981   8.735   1.345 -2.7940  0.6495  1.6643
  188MOL0     H25350  10.146   8.640   1.575  0.7242 -2.5719 -2.4665
  188MOL0     H25351  10.065   8.804   1.546  0.8329 -1.4005  3.8307
  188MOL0     H25352  10.307   8.706   1.385  1.5511  0.1379  1.6697
  188MOL0     H25353  10.206   8.840   1.347  1.6658 -1.1833 -0.5834
  188MOL0     H25354  10.273   8.931   1.596  1.1996 -0.8685  0.6753
  188MOL0     H25355  10.387   8.933   1.453  3.1695 -1.3967  0.3145
  188MOL0     H25356  10.376   8.702   1.644 -0.5336 -0.4531  1.1293
  188MOL0     H25357  10.500   8.746   1.526 -0.5504  0.1990  0.3749
  188MOL0     H25358  10.505   8.969   1.677 -0.0114 -2.0885 -4.6110
  188MOL0     H25359  10.593   8.834   1.737  0.5526 -0.8043  0.0721
  188MOL0     H25360  10.303   8.860   1.845 -0.7839  1.4207  0.6818
  188MOL0     H25361  10.443   8.937   1.914  3.7422  0.1473 -2.0209
  188MOL0     H25362   9.751   8.846   1.710 -0.2931  0.7720 -0.5682
  188MOL0     H25363   9.572   8.792   1.900  0.9112 -0.3356  0.7928
  188MOL0     H25364   9.398   8.614   2.160  0.0155 -1.8920 -1.3535
  188MOL0     H25365   9.277   8.643   2.364 -0.2653  1.4090 -0.9068
  188MOL0     H25366  10.225   8.346   3.147 -4.0589  3.0896 -0.9661
  188MOL0     H25367  10.404   8.265   2.995  0.6082 -2.2266  2.0278
  188MOL0     H25368  10.611   8.047   2.878 -1.0906  1.9173  1.5351
  188MOL0     H25369  10.843   8.019   2.854 -0.1817 -1.8741 -1.9884
  188MOL0     H25370  11.035   8.213   2.490 -1.9280  1.6232  1.3457
  188MOL0     H25371  11.076   8.303   2.633 -0.5126  0.4219  1.3853
  188MOL0     H25372  11.287   8.221   2.527  1.2580  1.4295  3.1988
  188MOL0     H25373  11.229   8.054   2.530  1.2313  0.2506 -0.1908
  188MOL0     H25374  11.248   8.021   2.767 -0.3043  0.3698  0.5193
  188MOL0     H25375  11.255   8.195   2.789  1.1447  0.7707 -0.7372
  188MOL0     H25376  11.468   8.034   2.634 -0.6561  0.5534 -0.2838
  188MOL0     H25377  11.468   8.060   2.812  0.3085  0.2945  0.4495
  188MOL0     H25378  11.562   8.449   2.665 -1.9995  1.1121 -1.6217
  188MOL0     H25379  10.852   8.280   2.511 -1.1263  1.2065  0.0238
  188MOL0     H25380  10.608   8.296   2.518 -1.0491  0.0715  0.6926
  189MOL0     O25381   4.851   2.866   1.765  0.6442 -0.0000 -0.3731
  189MOL0     C25382   4.914   2.943   1.699  0.6050  0.0514 -0.7298
  189MOL0     O25383   4.873   3.010   1.584 -0.1959  0.3071 -0.1214
  189MOL0     C25384   4.755   2.966   1.517 -0.2081 -0.4191  0.4297
  189MOL0     C25385   4.632   2.932   1.586 -0.3795 -0.4094 -0.2358
  189MOL0     C25386   4.513   2.909   1.510 -0.7265  0.2158 -0.5317
  189MOL0     C25387   4.522   2.888   1.367 -0.7488  0.2653 -0.3498
  189MOL0     O25388   4.417   2.858   1.284  0.3660  0.8197  0.6573
  189MOL0     C25389   4.273   2.863   1.315 -0.6110 -0.0330 -0.3990
  189MOL0     C25390   4.188   2.789   1.214  0.7766  0.3408 -0.1262
  189MOL0     C25391   4.045   2.768   1.259  0.6281 -0.7263  0.3849
  189MOL0     C25392   3.968   2.673   1.166 -0.0886  0.3506 -0.3486
  189MOL0     C25393   3.819   2.668   1.205  0.5071  0.1856 -0.4534
  189MOL0     C25394   3.785   2.583   1.323 -0.1361  0.5629 -0.5509
  189MOL0     C25395   3.646   2.588   1.360  0.7440  0.1040 -0.4089
  189MOL0     C25396   3.597   2.458   1.431  0.2052 -0.7322  0.3743
  189MOL0     N25397   3.448   2.458   1.428  0.3928 -0.5495 -0.1363
  189MOL0     C25398   3.368   2.482   1.318 -0.5116 -1.1183 -0.1091
  189MOL0     C25399   3.242   2.461   1.365 -0.0689 -0.2606 -0.6661
  189MOL0     C25400   3.126   2.462   1.274  0.3724  0.3733  0.5900
  189MOL0     C25401   2.996   2.473   1.362 -0.0013  0.2676  0.7771
  189MOL0     C25402   2.866   2.452   1.276  0.0382  0.0410 -0.1135
  189MOL0     C25403   2.747   2.516   1.341 -0.6036 -0.5988  0.2297
  189MOL0     O25404   2.673   2.438   1.430  0.8651  0.8151 -0.2852
  189MOL0     C25405   2.592   2.343   1.384 -0.0807  0.2383  0.7369
  189MOL0     C25406   2.553   2.241   1.468 -0.3950  0.6004 -0.1850
  189MOL0     C25407   2.463   2.143   1.428 -0.8988 -0.0452 -0.5920
  189MOL0     C25408   2.425   2.050   1.541 -0.2814  0.7456 -0.6669
  189MOL0     C25409   2.425   2.135   1.292 -1.0410 -0.5095 -0.6588
  189MOL0     C25410   2.336   2.035   1.239 -0.2431  0.7259 -0.0894
  189MOL0     O25411   2.331   2.016   1.106  0.0653  0.0790  0.1012
  189MOL0     C25412   2.247   1.915   1.061 -1.2193  1.0771 -0.0691
  189MOL0     C25413   2.276   1.777   1.063 -0.0678 -0.2999 -0.6678
  189MOL0     C25414   2.180   1.689   1.007  0.6791  0.6720 -0.5105
  189MOL0     C25415   2.049   1.728   0.961 -0.7851  0.4706  0.9817
  189MOL0     O25416   1.983   1.624   0.907  0.8460 -0.4592 -0.2575
  189MOL0     C25417   1.846   1.652   0.854 -0.1494  0.1796 -0.3960
  189MOL0     C25418   1.798   1.529   0.776  0.3456 -0.5737  0.1995
  189MOL0     C25419   1.655   1.535   0.716  0.3213  0.3790  0.2417
  189MOL0     C25420   1.643   1.456   0.583 -0.0548  0.4763 -0.3309
  189MOL0     C25421   1.499   1.483   0.523  0.0307 -0.2740 -0.1592
  189MOL0     C25422   1.476   1.393   0.397 -0.1603  0.0832 -0.2836
  189MOL0     C25423   1.322   1.402   0.362 -0.1757 -0.6593  0.2902
  189MOL0     C25424   1.295   1.523   0.277  0.2174  0.4597 -0.1452
  189MOL0    Cl25425   1.130   1.501   0.212 -0.1877 -0.3860 -0.3727
  189MOL0     C25426   2.022   1.860   0.969  0.1232 -0.9936  0.4638
  189MOL0     C25427   2.119   1.955   1.015  0.1256  0.1544 -0.4929
  189MOL0     O25428   2.249   1.982   1.311 -0.3750 -0.2284 -0.4198
  189MOL0     C25429   2.462   2.237   1.209 -0.9152  0.2129  1.1306
  189MOL0     C25430   2.546   2.337   1.253 -0.1460  0.0211  0.2476
  189MOL0     N25431   3.245   2.435   1.500  0.0258 -0.6132 -0.3299
  189MOL0     N25432   3.365   2.433   1.534 -0.4942  0.0706 -0.0216
  189MOL0     C25433   4.646   2.906   1.306  0.1569  0.2547  1.1927
  189MOL0     C25434   4.760   2.953   1.377 -0.0285 -0.0563 -0.2240
  189MOL0     C25435   5.036   2.987   1.763 -0.5989  0.0520  0.4119
  189MOL0     C25436   5.137   3.056   1.694 -0.7583  0.1450 -0.4815
  189MOL0     C25437   5.256   3.094   1.747 -0.9318 -0.4347 -0.2928
  189MOL0     C25438   5.282   3.059   1.875 -0.4254 -0.8971  0.0674
  189MOL0     O25439   5.409   3.094   1.916 -0.1384 -0.1043 -0.2626
  189MOL0     C25440   5.470   3.022   2.028 -0.0605 -0.0947  0.8283
  189MOL0     C25441   5.432   3.095   2.161 -0.3815  0.1832  0.1763
  189MOL0     C25442   5.537   3.064   2.278  0.1128 -1.2781 -0.7076
  189MOL0     C25443   5.673   3.133   2.264 -1.2681 -0.4765 -0.2936
  189MOL0     C25444   5.679   3.279   2.262  0.6889 -0.5148  0.1474
  189MOL0     C25445   5.677   3.399   2.247  0.6599  0.7566  0.0868
  189MOL0     C25446   5.181   2.998   1.953  0.4174 -0.0376 -0.8542
  189MOL0     C25447   5.056   2.974   1.900 -0.6859  0.3134 -0.3462
  189MOL0     H25448   4.629   2.947   1.694  2.2097 -0.1183 -0.1391
  189MOL0     H25449   4.418   2.922   1.561  0.2140  3.0800  0.6775
  189MOL0     H25450   4.257   2.820   1.414  0.7619  0.9275  0.2708
  189MOL0     H25451   4.234   2.965   1.314  0.3229  0.3904  1.4794
  189MOL0     H25452   4.185   2.854   1.126 -5.5805 -0.0458 -0.6729
  189MOL0     H25453   4.234   2.692   1.191  1.4609  0.9063 -1.2152
  189MOL0     H25454   4.039   2.721   1.358 -1.5133 -1.8364 -0.1961
  189MOL0     H25455   3.997   2.866   1.269 -0.8114 -1.4542  1.0002
  189MOL0     H25456   3.977   2.694   1.059  0.8811  0.7854 -0.1959
  189MOL0     H25457   4.014   2.576   1.184 -2.7724 -0.5052  2.7535
  189MOL0     H25458   3.783   2.769   1.228 -0.6286 -0.2488 -0.2468
  189MOL0     H25459   3.774   2.617   1.119 -0.2020 -1.5282  0.8740
  189MOL0     H25460   3.814   2.482   1.294 -1.6478  0.2685 -1.1384
  189MOL0     H25461   3.840   2.613   1.413  1.6692 -0.3545 -1.3000
  189MOL0     H25462   3.616   2.665   1.433 -0.7553  0.9937 -1.8989
  189MOL0     H25463   3.578   2.606   1.276 -1.1020 -1.9478  0.5367
  189MOL0     H25464   3.629   2.454   1.535  0.5674  3.4067  0.6192
  189MOL0     H25465   3.626   2.368   1.377 -0.7806 -1.0734  0.4003
  189MOL0     H25466   3.397   2.503   1.216 -0.9563  1.1696  0.1731
  189MOL0     H25467   3.127   2.543   1.201 -2.0069  0.1854  0.2645
  189MOL0     H25468   3.127   2.371   1.214 -0.3438  2.4689 -2.8696
  189MOL0     H25469   2.979   2.561   1.424 -2.8176  0.9934 -0.8498
  189MOL0     H25470   2.996   2.383   1.425  0.4223  1.5484  2.6750
  189MOL0     H25471   2.832   2.349   1.264  0.4280  0.0915 -1.9093
  189MOL0     H25472   2.872   2.488   1.173  0.1904 -3.0513 -1.2820
  189MOL0     H25473   2.686   2.566   1.264  0.3966 -2.2613 -1.7318
  189MOL0     H25474   2.789   2.593   1.406 -0.4022  0.8178 -1.4920
  189MOL0     H25475   2.596   2.246   1.567  1.6371  3.5421 -1.0738
  189MOL0     H25476   2.353   2.095   1.610 -0.4454  0.6018 -0.7438
  189MOL0     H25477   2.380   1.954   1.512  1.7151 -0.0563 -1.3058
  189MOL0     H25478   2.516   2.014   1.590  0.6541  2.3865 -1.1084
  189MOL0     H25479   2.373   1.738   1.092 -0.5836  0.0059  1.6949
  189MOL0     H25480   2.206   1.584   0.996  0.4703  0.5112  0.4607
  189MOL0     H25481   1.776   1.673   0.936  1.8972 -0.1904  1.5241
  189MOL0     H25482   1.849   1.734   0.782  0.1505  1.8122  1.3657
  189MOL0     H25483   1.868   1.522   0.693 -1.3207  0.5263 -1.3799
  189MOL0     H25484   1.801   1.442   0.843 -1.8228 -1.7384 -1.1259
  189MOL0     H25485   1.634   1.637   0.685  0.9701  0.4269 -0.0507
  189MOL0     H25486   1.576   1.503   0.785  0.7332 -2.7416 -0.5465
  189MOL0     H25487   1.719   1.488   0.512  0.5469 -2.6060 -1.2231
  189MOL0     H25488   1.657   1.348   0.597 -3.6250 -0.4910 -2.7547
  189MOL0     H25489   1.470   1.588   0.514  0.4504 -0.2950 -2.3815
  189MOL0     H25490   1.424   1.455   0.598 -1.0016  1.4164 -0.4958
  189MOL0     H25491   1.545   1.426   0.318 -0.5208  0.3731 -0.4813
  189MOL0     H25492   1.498   1.291   0.430  1.4661  1.0888  2.0156
  189MOL0     H25493   1.261   1.408   0.452 -1.7683  4.4920 -0.8297
  189MOL0     H25494   1.305   1.317   0.295  0.5296 -0.6628  0.1056
  189MOL0     H25495   1.365   1.530   0.194  3.0301  0.4442  2.0810
  189MOL0     H25496   1.293   1.611   0.342  2.4221 -0.3962  1.1627
  189MOL0     H25497   1.927   1.894   0.928 -0.8601 -0.6080  2.8678
  189MOL0     H25498   2.093   2.060   1.011  1.4504  0.5074 -0.2347
  189MOL0     H25499   2.432   2.227   1.105  0.6049 -3.2279  0.8915
  189MOL0     H25500   2.581   2.397   1.169 -2.3177  2.8944  1.2270
  189MOL0     H25501   4.659   2.904   1.198 -1.9564  4.1786  0.6753
  189MOL0     H25502   4.847   2.981   1.318  0.1129 -0.2703 -0.1177
  189MOL0     H25503   5.133   3.076   1.588  1.7306  4.2683 -0.0055
  189MOL0     H25504   5.332   3.147   1.689  0.1198 -0.3620  1.1136
  189MOL0     H25505   5.448   2.915   2.035  1.2761 -0.4341  0.3128
  189MOL0     H25506   5.577   3.022   2.006 -0.3810 -2.3565 -1.1965
  189MOL0     H25507   5.333   3.057   2.189 -1.1670  1.1008 -1.2000
  189MOL0     H25508   5.426   3.201   2.137 -0.0542  0.2916  0.5648
  189MOL0     H25509   5.568   2.961   2.297  0.8027 -0.5447  2.7577
  189MOL0     H25510   5.497   3.098   2.374 -0.6085 -0.6411 -1.2255
  189MOL0     H25511   5.725   3.095   2.176  0.0876  1.1947 -0.2713
  189MOL0     H25512   5.737   3.114   2.351  0.1157  2.0105 -0.6635
  189MOL0     H25513   5.673   3.504   2.268 -2.4597  0.6550  0.3938
  189MOL0     H25514   5.202   2.958   2.052  1.7016  1.9036 -0.2822
  189MOL0     H25515   4.984   2.917   1.959  2.0223 -1.7324  1.1844
  190MOL0     O25516   9.949   2.973   5.167  0.3470  0.4286 -0.6560
  190MOL0     C25517   9.943   2.920   5.061  0.5745  0.1823 -0.1659
  190MOL0     O25518   9.825   2.877   5.003  0.3684  0.1505 -0.2675
  190MOL0     C25519   9.717   2.856   5.087 -0.4211  0.1283 -0.3984
  190MOL0     C25520   9.720   2.753   5.181 -1.0682  0.1608  0.2503
  190MOL0     C25521   9.618   2.741   5.276 -0.0657 -0.0064 -0.4780
  190MOL0     C25522   9.509   2.822   5.268 -0.0116  0.7092  0.3871
  190MOL0     O25523   9.410   2.795   5.353  0.4114  0.1909  0.0539
  190MOL0     C25524   9.278   2.783   5.299  0.3672 -0.6748 -0.2734
  190MOL0     C25525   9.259   2.674   5.194 -0.4002  0.4412  0.4075
  190MOL0     C25526   9.112   2.652   5.149 -1.0004 -0.8061 -0.6685
  190MOL0     C25527   9.031   2.577   5.249  0.1707 -0.0465  0.8856
  190MOL0     C25528   8.880   2.580   5.215  1.0560  0.3460 -0.2912
  190MOL0     C25529   8.858   2.500   5.085  0.3011  0.9948  0.4357
  190MOL0     C25530   8.708   2.484   5.067  0.5471  0.0748  0.0381
  190MOL0     C25531   8.681   2.364   4.978 -0.2785  0.1426  0.2954
  190MOL0     N25532   8.554   2.298   5.003  0.3141 -0.0306  0.4751
  190MOL0     C25533   8.533   2.204   5.091  0.4749 -0.1545 -0.1747
  190MOL0     C25534   8.395   2.179   5.080 -0.7607  0.8858  0.0628
  190MOL0     C25535   8.320   2.087   5.171 -0.1172 -0.2479  0.1365
  190MOL0     C25536   8.174   2.089   5.146 -0.2449 -0.6264 -0.4445
  190MOL0     C25537   8.102   2.005   5.251 -0.1051 -0.3095  0.2859
  190MOL0     C25538   7.960   2.015   5.228  0.9501  0.1433  0.3579
  190MOL0     O25539   7.879   1.945   5.325  0.3109 -0.3170  0.4309
  190MOL0     C25540   7.747   1.958   5.323  0.2592 -0.1276 -0.2600
  190MOL0     C25541   7.663   1.881   5.402  0.1233 -0.5914 -0.4525
  190MOL0     C25542   7.524   1.892   5.405 -0.7387  0.2257 -0.3170
  190MOL0     C25543   7.450   1.797   5.494  0.1615  0.0246 -0.4860
  190MOL0     C25544   7.462   1.993   5.331  0.4172 -0.0328 -0.3468
  190MOL0     C25545   7.324   2.018   5.345  0.0676  0.7778 -0.4880
  190MOL0     O25546   7.287   2.146   5.302 -0.5534 -0.2878 -0.4227
  190MOL0     C25547   7.154   2.179   5.304 -0.3967  0.3080  0.3208
  190MOL0     C25548   7.087   2.184   5.430 -0.1834  0.0309  0.0497
  190MOL0     C25549   6.963   2.238   5.451 -0.0737 -0.5468  0.2472
  190MOL0     C25550   6.893   2.294   5.343  0.4698  0.3815 -0.1458
  190MOL0     O25551   6.763   2.332   5.365 -0.4244 -0.1743 -0.2355
  190MOL0     C25552   6.722   2.437   5.269  0.0539 -0.4736 -0.1190
  190MOL0     C25553   6.634   2.381   5.167  0.0154  0.1805  0.2218
  190MOL0     C25554   6.504   2.330   5.226  1.1081 -0.4909 -0.3465
  190MOL0     C25555   6.431   2.439   5.289 -0.7525  0.2599 -0.7208
  190MOL0     C25556   6.284   2.412   5.321 -0.4696 -0.0064  0.3018
  190MOL0     C25557   6.185   2.406   5.194 -0.2833 -0.4992  0.4872
  190MOL0     C25558   6.039   2.386   5.252  0.3315  0.7024 -0.5840
  190MOL0     C25559   5.932   2.344   5.147 -0.3248 -0.4014 -0.2981
  190MOL0    Cl25560   5.916   2.465   5.020 -0.6951  0.2158  0.2344
  190MOL0     C25561   6.960   2.288   5.212 -0.4159 -0.1047  0.4313
  190MOL0     C25562   7.094   2.237   5.196 -0.1595 -0.1423 -0.3016
  190MOL0     O25563   7.242   1.923   5.367  0.8399 -0.5469  1.4729
  190MOL0     C25564   7.544   2.068   5.241 -0.4233  0.3699  0.4183
  190MOL0     C25565   7.685   2.049   5.232 -0.1622 -0.9224  0.0763
  190MOL0     N25566   8.341   2.268   4.986  0.2825  0.2679 -0.3490
  190MOL0     N25567   8.440   2.340   4.935  0.2624  0.2378  0.9562
  190MOL0     C25568   9.507   2.929   5.177 -0.4392 -0.5195  0.7038
  190MOL0     C25569   9.614   2.946   5.088  0.7148  0.1502 -0.1271
  190MOL0     C25570  10.070   2.899   4.984  0.8092  0.5034 -0.0400
  190MOL0     C25571  10.079   2.795   4.889 -0.2209 -0.6345 -0.1938
  190MOL0     C25572  10.195   2.772   4.816  1.0374 -0.9091 -0.5188
  190MOL0     C25573  10.310   2.851   4.839  0.7830  0.2170  0.4585
  190MOL0     O25574  10.429   2.829   4.770 -0.3252 -0.3396  0.2405
  190MOL0     C25575  10.461   2.690   4.755  0.1167 -0.1345  0.5132
  190MOL0     C25576  10.610   2.665   4.760 -0.5616 -0.2424 -0.8986
  190MOL0     C25577  10.635   2.526   4.693  0.0478  0.3021  0.1508
  190MOL0     C25578  10.782   2.500   4.682  0.9085  0.0077 -0.1044
  190MOL0     C25579  10.830   2.452   4.809  0.4731  0.0275 -0.3394
  190MOL0     C25580  10.878   2.388   4.903 -0.5615 -0.0430  0.4292
  190MOL0     C25581  10.300   2.951   4.939 -0.2072 -0.1518  0.6047
  190MOL0     C25582  10.183   2.971   5.012 -0.3932  0.1149 -0.4863
  190MOL0     H25583   9.813   2.697   5.170 -0.5549  1.1147 -0.3963
  190MOL0     H25584   9.618   2.665   5.354  0.2065 -0.0274 -0.4957
  190MOL0     H25585   9.217   2.766   5.389  0.0011  1.8592  0.0316
  190MOL0     H25586   9.243   2.881   5.264  1.2610 -0.6573 -1.1606
  190MOL0     H25587   9.315   2.707   5.106  0.1374 -2.1101 -0.2904
  190MOL0     H25588   9.292   2.575   5.224 -0.7060 -0.7337 -2.7437
  190MOL0     H25589   9.069   2.751   5.135 -1.4761 -1.2191 -2.3899
  190MOL0     H25590   9.103   2.602   5.052 -0.1176 -1.7378 -0.2934
  190MOL0     H25591   9.068   2.475   5.255  0.3685  0.0271  0.9052
  190MOL0     H25592   9.046   2.613   5.351  1.6726 -3.1584  1.8698
  190MOL0     H25593   8.829   2.534   5.300  2.7575  0.4121  0.8147
  190MOL0     H25594   8.848   2.684   5.204  0.4354  0.1048 -0.8448
  190MOL0     H25595   8.900   2.556   5.000  1.7802  0.4912  0.7938
  190MOL0     H25596   8.909   2.404   5.095 -3.0621 -0.8876  0.6095
  190MOL0     H25597   8.657   2.481   5.164 -2.8897  2.3439 -1.4965
  190MOL0     H25598   8.677   2.576   5.016  1.7241  0.5738  0.1925
  190MOL0     H25599   8.753   2.283   4.994 -1.6396 -1.1624  0.0152
  190MOL0     H25600   8.703   2.392   4.874  2.0577 -0.9138  0.4343
  190MOL0     H25601   8.614   2.152   5.142  1.7721 -4.7595 -5.7351
  190MOL0     H25602   8.354   1.983   5.168  2.9079  0.5886  1.2686
  190MOL0     H25603   8.334   2.124   5.273 -1.8886  1.4587 -0.1930
  190MOL0     H25604   8.153   2.048   5.047 -1.3164 -2.6231  0.5485
  190MOL0     H25605   8.127   2.188   5.135  2.2538  0.7259  0.1394
  190MOL0     H25606   8.115   2.048   5.351 -0.7999 -2.0615  1.1705
  190MOL0     H25607   8.133   1.900   5.254  2.9977  0.4548 -0.6558
  190MOL0     H25608   7.924   1.996   5.127 -1.9338  1.0805  1.1053
  190MOL0     H25609   7.941   2.122   5.243 -1.4008 -0.2774  0.8796
  190MOL0     H25610   7.711   1.817   5.475  0.1349 -0.8333 -0.6713
  190MOL0     H25611   7.375   1.851   5.553  0.2038  2.1684 -2.2666
  190MOL0     H25612   7.405   1.715   5.437 -2.5460  0.2212  1.1925
  190MOL0     H25613   7.515   1.749   5.568 -0.4183 -1.2267 -0.7515
  190MOL0     H25614   7.140   2.159   5.522  1.7151  2.4523 -0.3006
  190MOL0     H25615   6.911   2.232   5.546  0.3571 -3.5955  0.3851
  190MOL0     H25616   6.663   2.517   5.313 -1.0496 -0.6762 -1.1788
  190MOL0     H25617   6.815   2.477   5.228  2.0104 -3.0316  1.4711
  190MOL0     H25618   6.621   2.452   5.084 -0.0698 -1.6954 -1.4609
  190MOL0     H25619   6.688   2.296   5.123  0.7912  0.1752  1.1519
  190MOL0     H25620   6.518   2.255   5.304 -1.0721  0.2945  0.8937
  190MOL0     H25621   6.451   2.287   5.140 -0.5471  1.9621 -0.6855
  190MOL0     H25622   6.474   2.456   5.388  1.8496 -0.1897 -1.7047
  190MOL0     H25623   6.429   2.533   5.233  1.5542  1.7192  1.4614
  190MOL0     H25624   6.251   2.499   5.380  0.3908 -0.2193  1.1094
  190MOL0     H25625   6.276   2.325   5.386 -1.6011  0.4763  0.8416
  190MOL0     H25626   6.208   2.500   5.143  2.4977 -0.9565  0.7489
  190MOL0     H25627   6.208   2.319   5.133  2.8028  0.1853  0.5340
  190MOL0     H25628   6.001   2.482   5.288 -0.9295  0.1426 -0.3798
  190MOL0     H25629   6.038   2.310   5.331 -0.3414  0.9650 -0.3324
  190MOL0     H25630   5.835   2.345   5.197 -0.7735  0.2084 -1.1508
  190MOL0     H25631   5.958   2.247   5.103  3.1405  0.2645  0.0423
  190MOL0     H25632   6.919   2.335   5.123 -0.1582 -0.6861  0.0033
  190MOL0     H25633   7.146   2.231   5.101  0.6102  1.1207  0.0199
  190MOL0     H25634   7.494   2.132   5.168 -0.3588 -0.6721 -0.5686
  190MOL0     H25635   7.741   2.102   5.155  1.9702 -1.2764  1.2809
  190MOL0     H25636   9.432   3.007   5.170  0.9276  0.8098  0.1052
  190MOL0     H25637   9.625   3.033   5.024 -0.2545  0.7170  0.4639
  190MOL0     H25638   9.993   2.732   4.869 -0.9781 -0.7693  2.9171
  190MOL0     H25639  10.187   2.707   4.730 -3.3097  2.5913 -3.2363
  190MOL0     H25640  10.410   2.637   4.836 -2.2479  0.8226 -0.2645
  190MOL0     H25641  10.418   2.667   4.658 -1.5865 -0.0740  1.2221
  190MOL0     H25642  10.631   2.679   4.866  2.1189 -1.3498 -1.2101
  190MOL0     H25643  10.664   2.742   4.705  0.1265  1.7663  2.3495
  190MOL0     H25644  10.593   2.531   4.593 -0.0153  0.1612  0.1698
  190MOL0     H25645  10.582   2.441   4.736 -2.4444  1.8514  0.3734
  190MOL0     H25646  10.841   2.588   4.653  1.4096 -0.6646 -1.1625
  190MOL0     H25647  10.803   2.425   4.606 -0.7473 -2.6502  1.8788
  190MOL0     H25648  10.926   2.333   4.981 -0.3268  0.4707  0.6472
  190MOL0     H25649  10.389   3.004   4.969  1.2564  0.5926 -4.2825
  190MOL0     H25650  10.182   3.056   5.080  1.0569  0.1334 -0.4640
  191MOL0     O25651   2.762   7.738   8.288  0.1739 -0.2298 -0.1898
  191MOL0     C25652   2.772   7.854   8.308  0.0477 -0.5213 -0.2058
  191MOL0     O25653   2.678   7.940   8.355 -0.1080 -0.1553 -0.1385
  191MOL0     C25654   2.554   7.881   8.401 -0.2176  0.8280  0.2506
  191MOL0     C25655   2.465   7.801   8.329  0.0105 -0.7180  0.3878
  191MOL0     C25656   2.358   7.740   8.383 -0.2107  0.2332 -0.5696
  191MOL0     C25657   2.328   7.764   8.520  0.6532 -0.3179 -0.2176
  191MOL0     O25658   2.223   7.714   8.588  0.3980 -0.4605  0.1111
  191MOL0     C25659   2.178   7.579   8.570 -0.3008  0.0433 -0.6812
  191MOL0     C25660   2.167   7.507   8.714 -0.8334 -0.1131  0.3909
  191MOL0     C25661   2.039   7.551   8.783  0.5195  0.5885 -0.3299
  191MOL0     C25662   1.913   7.473   8.730  0.1387 -0.6388  0.9807
  191MOL0     C25663   1.787   7.506   8.814  0.1101 -0.0812 -0.2638
  191MOL0     C25664   1.686   7.396   8.790  0.2147  0.5366 -0.2543
  191MOL0     C25665   1.610   7.361   8.920 -0.0671  0.0701  0.7301
  191MOL0     C25666   1.509   7.243   8.896 -0.1401  0.4401 -0.1923
  191MOL0     N25667   1.385   7.282   8.831 -0.4072  0.3815 -0.4066
  191MOL0     C25668   1.313   7.382   8.879 -0.5473 -0.2451  0.6965
  191MOL0     C25669   1.204   7.382   8.795  0.0973  0.9794  0.0798
  191MOL0     C25670   1.096   7.484   8.794  0.0254  0.1899  0.4585
  191MOL0     C25671   0.987   7.473   8.907 -0.4660  0.3144 -0.2718
  191MOL0     C25672   0.950   7.603   8.972  0.1414 -0.0053 -0.5733
  191MOL0     C25673   0.857   7.691   8.885  0.1572 -0.6295 -0.2210
  191MOL0     O25674   0.791   7.797   8.956 -0.9116 -0.6488 -0.6400
  191MOL0     C25675   0.684   7.858   8.892 -0.3921 -0.3358  0.2568
  191MOL0     C25676   0.665   7.865   8.748  0.0064 -0.6342 -0.2928
  191MOL0     C25677   0.545   7.906   8.692  0.2913  0.1404  0.2330
  191MOL0     C25678   0.527   7.890   8.550 -0.6759 -0.2158 -0.0584
  191MOL0     C25679   0.432   7.945   8.774  0.2356 -0.6669 -0.1329
  191MOL0     C25680   0.289   7.984   8.718 -0.3178  0.6046  0.1424
  191MOL0     O25681   0.189   8.005   8.805 -0.7377 -0.3480 -0.2622
  191MOL0     C25682   0.059   8.013   8.766  0.0473  0.4080  0.6028
  191MOL0     C25683   0.001   8.127   8.716 -0.9703 -0.1748 -0.4595
  191MOL0     C25684  -0.120   8.125   8.659 -0.0052  0.2148 -0.0733
  191MOL0     C25685  -0.202   8.011   8.648 -0.0262  0.0790  0.4084
  191MOL0     O25686  -0.330   8.029   8.592  0.5054  0.1768  0.1859
  191MOL0     C25687  -0.437   7.945   8.639  0.3133 -0.1098 -0.2293
  191MOL0     C25688  -0.581   7.994   8.594 -0.6185  0.9473  0.1570
  191MOL0     C25689  -0.614   8.134   8.657  0.1968  0.7893  0.4872
  191MOL0     C25690  -0.744   8.195   8.596 -0.3506 -0.3267  0.4436
  191MOL0     C25691  -0.749   8.343   8.619 -0.6053 -0.0215  0.9502
  191MOL0     C25692  -0.869   8.403   8.554  0.0222  0.0265 -1.7620
  191MOL0     C25693  -0.879   8.553   8.586  0.6373 -0.0701 -0.3953
  191MOL0     C25694  -1.018   8.600   8.583  0.1383  0.9626  0.4418
  191MOL0    Cl25695  -1.035   8.761   8.630 -0.2777 -0.1227  0.0787
  191MOL0     C25696  -0.150   7.898   8.707 -0.7159  0.6871 -0.0509
  191MOL0     C25697  -0.022   7.892   8.770 -0.2836  0.8434 -0.3240
  191MOL0     O25698   0.277   7.985   8.595 -0.1763 -0.5950  0.2026
  191MOL0     C25699   0.455   7.950   8.909  0.1377  0.2833 -0.5072
  191MOL0     C25700   0.576   7.910   8.966  0.1894  0.4401  0.3816
  191MOL0     N25701   1.208   7.276   8.706 -0.1841 -0.4310  0.2884
  191MOL0     N25702   1.318   7.209   8.737  0.1480  0.4521  0.1075
  191MOL0     C25703   2.412   7.857   8.588 -0.0125  0.2740  0.8484
  191MOL0     C25704   2.523   7.906   8.528  0.1788 -0.6201 -0.0843
  191MOL0     C25705   2.910   7.907   8.295  0.1734 -0.3209  0.0219
  191MOL0     C25706   2.958   8.021   8.363 -0.6869 -0.5129 -0.0796
  191MOL0     C25707   3.097   8.056   8.356 -0.0472 -0.6982 -0.2807
  191MOL0     C25708   3.192   7.979   8.281  0.3529 -0.7123  0.6841
  191MOL0     O25709   3.320   8.033   8.277 -0.9558  0.0660  0.0350
  191MOL0     C25710   3.416   7.971   8.193  0.3656  0.4701  0.7447
  191MOL0     C25711   3.537   8.060   8.177  0.5400 -0.3635  0.8180
  191MOL0     C25712   3.656   8.021   8.080 -0.6402 -0.3489  0.5618
  191MOL0     C25713   3.724   7.899   8.123  0.7104 -0.2800 -0.1773
  191MOL0     C25714   3.854   7.901   8.058  0.2648 -0.2142 -0.1945
  191MOL0     C25715   3.957   7.910   8.002 -0.0177  0.3703  0.0590
  191MOL0     C25716   3.135   7.872   8.208 -0.7897  0.2350 -0.2563
  191MOL0     C25717   3.004   7.832   8.221  0.3016 -0.2601  0.1778
  191MOL0     H25718   2.489   7.769   8.229 -0.5765  1.0488 -0.3567
  191MOL0     H25719   2.285   7.681   8.330  0.3851 -4.0588  2.7471
  191MOL0     H25720   2.084   7.575   8.515  0.1409  0.9053 -1.5334
  191MOL0     H25721   2.257   7.530   8.513  2.1413  0.7556  1.8486
  191MOL0     H25722   2.163   7.399   8.700  0.1760 -0.4698  2.4974
  191MOL0     H25723   2.252   7.540   8.774 -0.6331 -0.7733  0.4818
  191MOL0     H25724   2.039   7.526   8.890  0.0892 -0.0288 -0.4716
  191MOL0     H25725   2.020   7.659   8.780  0.2847  0.5199 -1.6695
  191MOL0     H25726   1.896   7.501   8.626  1.0279 -1.3296  0.6413
  191MOL0     H25727   1.925   7.364   8.740 -2.2651 -1.1377 -0.6762
  191MOL0     H25728   1.811   7.532   8.917 -2.4156 -1.7146  0.8297
  191MOL0     H25729   1.739   7.593   8.767 -0.7467 -1.0219 -1.1692
  191MOL0     H25730   1.605   7.427   8.722 -1.8417  0.0030  1.8219
  191MOL0     H25731   1.725   7.300   8.754 -1.2284 -0.3251  0.3919
  191MOL0     H25732   1.682   7.328   8.995 -0.4671  1.5640  1.7999
  191MOL0     H25733   1.554   7.442   8.967 -3.7597 -0.9961 -1.4256
  191MOL0     H25734   1.477   7.219   8.998 -0.6684  0.6823 -0.3006
  191MOL0     H25735   1.573   7.166   8.852  0.8309  2.3112 -2.2401
  191MOL0     H25736   1.343   7.464   8.944 -2.5099  0.5162  0.7089
  191MOL0     H25737   1.152   7.577   8.804 -1.4510  1.0963  0.4407
  191MOL0     H25738   1.057   7.484   8.692  1.7556 -0.3829 -0.2463
  191MOL0     H25739   1.030   7.403   8.980  1.4909 -1.5299 -3.0106
  191MOL0     H25740   0.897   7.426   8.867 -0.6907 -1.4615  2.0813
  191MOL0     H25741   1.049   7.649   8.987  0.0498 -0.1890  0.7145
  191MOL0     H25742   0.906   7.580   9.069 -2.7715  0.9936 -1.5400
  191MOL0     H25743   0.784   7.623   8.840 -1.1681  0.1392  0.6957
  191MOL0     H25744   0.917   7.743   8.810  0.4987 -1.0171 -0.2226
  191MOL0     H25745   0.738   7.819   8.682 -1.6077 -0.1913 -2.5021
  191MOL0     H25746   0.518   7.986   8.499  1.5682 -1.2794 -2.7437
  191MOL0     H25747   0.608   7.841   8.495 -0.5791 -0.4879  0.3193
  191MOL0     H25748   0.443   7.821   8.537 -0.3867 -0.5188 -0.3292
  191MOL0     H25749   0.062   8.217   8.718  0.2098 -0.9555  0.2405
  191MOL0     H25750  -0.153   8.221   8.620  1.4470 -0.2126 -2.5356
  191MOL0     H25751  -0.411   7.841   8.617  0.7693  0.2315 -1.4097
  191MOL0     H25752  -0.434   7.934   8.747 -1.4837  0.8243 -0.0380
  191MOL0     H25753  -0.582   8.017   8.487  1.2402  0.2072 -0.0580
  191MOL0     H25754  -0.662   7.923   8.613 -2.7004  2.9286 -0.8380
  191MOL0     H25755  -0.527   8.198   8.640  1.0962 -0.5804 -0.2585
  191MOL0     H25756  -0.620   8.136   8.766 -2.3407  2.4448  0.3921
  191MOL0     H25757  -0.756   8.171   8.489  1.4598 -0.0309  0.1392
  191MOL0     H25758  -0.829   8.148   8.646 -0.7482  0.3034  0.3715
  191MOL0     H25759  -0.670   8.393   8.562 -1.6102  0.4907 -0.0431
  191MOL0     H25760  -0.721   8.359   8.723  1.9519 -0.8232  0.4673
  191MOL0     H25761  -0.853   8.393   8.446 -0.3973 -1.8357 -1.6881
  191MOL0     H25762  -0.953   8.345   8.592  1.2286 -0.3850  0.3910
  191MOL0     H25763  -0.824   8.618   8.518  0.3475  0.1593 -0.4134
  191MOL0     H25764  -0.843   8.567   8.688  0.4622 -0.6268 -0.2574
  191MOL0     H25765  -1.079   8.532   8.644  1.6448 -0.0588  0.8809
  191MOL0     H25766  -1.050   8.599   8.479 -2.9571  2.1666  1.2814
  191MOL0     H25767  -0.222   7.817   8.700 -1.9094  1.8532 -4.2615
  191MOL0     H25768   0.012   7.807   8.830 -1.4208 -0.5123 -1.5362
  191MOL0     H25769   0.376   7.975   8.979 -1.1073  0.3609 -1.8972
  191MOL0     H25770   0.587   7.890   9.072  1.6766 -0.5433  0.0618
  191MOL0     H25771   2.382   7.892   8.686  0.6005  2.4292  0.3040
  191MOL0     H25772   2.586   7.963   8.596  0.2784 -1.4913  0.5685
  191MOL0     H25773   2.893   8.085   8.422  0.6768 -1.1628  2.2898
  191MOL0     H25774   3.142   8.137   8.412 -2.8937  3.2246 -3.0761
  191MOL0     H25775   3.446   7.874   8.232  0.0299  1.1285  2.7623
  191MOL0     H25776   3.372   7.957   8.094 -2.6136  3.9596  1.3388
  191MOL0     H25777   3.576   8.079   8.277 -0.6737  0.0748  1.2283
  191MOL0     H25778   3.495   8.156   8.145 -2.2383 -1.2558  1.5303
  191MOL0     H25779   3.725   8.106   8.082  1.5495 -1.9980 -0.7303
  191MOL0     H25780   3.619   8.008   7.978 -1.1010  2.0937  0.3518
  191MOL0     H25781   3.662   7.810   8.103  0.4657 -0.8965  2.8571
  191MOL0     H25782   3.737   7.901   8.232 -1.8475  0.3857  0.1969
  191MOL0     H25783   4.046   7.911   7.942 -0.2731 -0.7909 -0.3663
  191MOL0     H25784   3.208   7.823   8.143  1.6649  1.7550  1.2039
  191MOL0     H25785   2.963   7.744   8.172 -1.0348  0.7325 -0.5774
  192MOL0     O25786   2.744   3.392   4.318 -0.0911 -0.2823  0.9128
  192MOL0     C25787   2.768   3.440   4.200 -1.3932 -0.8010 -0.7645
  192MOL0     O25788   2.680   3.504   4.113 -0.3364 -0.9907  0.0931
  192MOL0     C25789   2.552   3.508   4.156 -1.1062 -0.7924  0.1839
  192MOL0     C25790   2.503   3.638   4.193  0.2298  0.1800  0.1823
  192MOL0     C25791   2.372   3.652   4.239 -0.0972  0.4827 -0.0113
  192MOL0     C25792   2.295   3.542   4.251 -0.8791 -0.3794  0.2377
  192MOL0     O25793   2.157   3.569   4.279 -0.7164  0.8976  0.5379
  192MOL0     C25794   2.060   3.473   4.253 -0.4599 -0.3394 -0.0537
  192MOL0     C25795   1.924   3.538   4.281 -0.7126  0.1086  0.7440
  192MOL0     C25796   1.899   3.634   4.158  0.0404 -0.5666 -0.3057
  192MOL0     C25797   1.753   3.685   4.171 -0.2091  0.4607  0.7247
  192MOL0     C25798   1.695   3.776   4.063  0.5589 -0.2641  1.8787
  192MOL0     C25799   1.738   3.927   4.066 -0.5567 -0.0758  0.6098
  192MOL0     C25800   1.653   4.005   3.955 -0.4860  0.9519  0.4167
  192MOL0     C25801   1.542   4.087   4.017 -0.6241 -0.1965 -0.0520
  192MOL0     N25802   1.441   4.002   4.081 -0.7677  0.0732 -0.3644
  192MOL0     C25803   1.433   3.982   4.215 -0.7118  0.7944 -0.3333
  192MOL0     C25804   1.317   3.914   4.231 -0.4414  0.6665  0.1924
  192MOL0     C25805   1.251   3.867   4.354  0.4310 -0.7957  0.2240
  192MOL0     C25806   1.097   3.840   4.338  0.7232  0.4172  0.8062
  192MOL0     C25807   1.056   3.777   4.469 -0.5576 -0.2213 -0.3981
  192MOL0     C25808   0.903   3.730   4.457 -0.2309  0.3606 -0.1727
  192MOL0     O25809   0.824   3.840   4.429  0.3557  0.0822 -0.1762
  192MOL0     C25810   0.688   3.809   4.407 -0.8658 -0.5397  0.1096
  192MOL0     C25811   0.630   3.865   4.299  0.8440  0.1813 -0.7635
  192MOL0     C25812   0.495   3.843   4.262  0.2864 -0.9761  0.2969
  192MOL0     C25813   0.438   3.906   4.144  0.1017  1.3063 -0.5944
  192MOL0     C25814   0.408   3.785   4.358  0.2862  0.1073 -0.1617
  192MOL0     C25815   0.260   3.770   4.346 -0.6644 -0.1490  0.2929
  192MOL0     O25816   0.194   3.878   4.286  0.1714  1.1497 -0.8127
  192MOL0     C25817   0.065   3.862   4.248 -0.4695 -0.0320 -0.1400
  192MOL0     C25818   0.023   3.759   4.157 -0.8256 -1.0101  0.1506
  192MOL0     C25819  -0.102   3.756   4.106 -0.0487 -1.0221  0.1777
  192MOL0     C25820  -0.201   3.844   4.158 -0.3259  0.5641 -0.0984
  192MOL0     O25821  -0.334   3.826   4.122 -0.5062  0.7091  0.5223
  192MOL0     C25822  -0.433   3.864   4.228 -0.2853 -0.6867 -0.6768
  192MOL0     C25823  -0.569   3.819   4.168  0.0631 -0.7012 -0.0737
  192MOL0     C25824  -0.686   3.837   4.270 -0.3361 -0.7522  0.0685
  192MOL0     C25825  -0.835   3.843   4.198 -0.2756  0.4466 -0.0487
  192MOL0     C25826  -0.896   3.708   4.216 -0.2396  1.2494  0.0857
  192MOL0     C25827  -1.025   3.692   4.123 -0.0526 -0.6916 -1.0132
  192MOL0     C25828  -1.134   3.800   4.163 -0.4058 -0.6692 -0.7720
  192MOL0     C25829  -1.273   3.762   4.109  0.2884  1.1816 -0.5531
  192MOL0    Cl25830  -1.343   3.628   4.210  0.4808  0.2229 -0.1909
  192MOL0     C25831  -0.160   3.946   4.246 -0.6979  0.1330  0.3156
  192MOL0     C25832  -0.031   3.951   4.286  0.4711 -0.6036 -0.5013
  192MOL0     O25833   0.210   3.668   4.397 -0.2496  0.5976  0.5396
  192MOL0     C25834   0.471   3.733   4.478 -0.2075 -0.0854  0.2061
  192MOL0     C25835   0.607   3.751   4.499  0.4003  0.8054  0.0803
  192MOL0     N25836   1.261   3.896   4.104 -0.0585 -0.1049  0.1448
  192MOL0     N25837   1.339   3.948   4.014  0.5324 -0.0137  0.2351
  192MOL0     C25838   2.350   3.417   4.224  0.6901 -0.2801 -0.0243
  192MOL0     C25839   2.472   3.400   4.171 -0.1512 -0.1204 -0.1775
  192MOL0     C25840   2.905   3.436   4.160  1.1546 -0.4139  0.6514
  192MOL0     C25841   3.001   3.355   4.226  0.5330 -0.1741 -0.4927
  192MOL0     C25842   3.133   3.348   4.176  0.5885  0.4363 -0.1171
  192MOL0     C25843   3.178   3.412   4.062  0.5004  0.1456  0.8738
  192MOL0     O25844   3.299   3.405   4.002  0.4486  0.2346 -0.2243
  192MOL0     C25845   3.412   3.374   4.086  0.0182  0.0966  0.9430
  192MOL0     C25846   3.532   3.395   3.992 -0.0966  0.5276  0.2383
  192MOL0     C25847   3.670   3.392   4.067 -0.0978 -0.5891 -0.9507
  192MOL0     C25848   3.729   3.247   4.065 -0.5198 -0.3527 -0.4234
  192MOL0     C25849   3.871   3.241   4.125  1.2434  0.3125 -0.1496
  192MOL0     C25850   3.982   3.257   4.181  0.0103 -0.6211 -1.1338
  192MOL0     C25851   3.083   3.490   4.001 -0.5278  0.0320  0.2837
  192MOL0     C25852   2.949   3.501   4.040  0.3688 -0.2216 -0.1935
  192MOL0     H25853   2.566   3.725   4.182 -0.8580  1.1870  1.4818
  192MOL0     H25854   2.326   3.747   4.262  0.0737  0.8614 -1.1588
  192MOL0     H25855   2.062   3.442   4.148 -0.1945 -0.6904  0.0545
  192MOL0     H25856   2.062   3.389   4.323 -1.6307 -1.9330 -1.8037
  192MOL0     H25857   1.840   3.467   4.282 -2.2678  1.8393 -0.1018
  192MOL0     H25858   1.916   3.581   4.381 -2.3743 -0.8988  1.0851
  192MOL0     H25859   1.969   3.718   4.156  1.6657 -1.8581 -0.1964
  192MOL0     H25860   1.907   3.576   4.065 -1.9557 -2.9309  0.8721
  192MOL0     H25861   1.686   3.599   4.165 -0.5387  0.8130 -1.5562
  192MOL0     H25862   1.741   3.741   4.265 -1.9768  1.6622 -0.1559
  192MOL0     H25863   1.719   3.728   3.968 -1.4669 -0.0745  1.2224
  192MOL0     H25864   1.586   3.776   4.075 -0.1645  1.1830 -2.9290
  192MOL0     H25865   1.731   3.983   4.160  0.2328  1.2846 -0.1025
  192MOL0     H25866   1.845   3.934   4.043 -0.4386  2.3005  1.5583
  192MOL0     H25867   1.718   4.066   3.892  0.5514 -2.5038 -2.1796
  192MOL0     H25868   1.607   3.943   3.878 -1.3060  0.9555  0.8869
  192MOL0     H25869   1.492   4.150   3.943 -0.5263  1.2186  1.0425
  192MOL0     H25870   1.579   4.163   4.086  0.4360 -1.3060  0.6578
  192MOL0     H25871   1.504   4.007   4.293  0.9101 -0.7033 -1.2416
  192MOL0     H25872   1.318   3.782   4.369  2.4778  0.7716  0.5023
  192MOL0     H25873   1.263   3.935   4.438 -1.6827 -2.1496  1.7088
  192MOL0     H25874   1.075   3.773   4.254  0.0100 -0.3525  1.5875
  192MOL0     H25875   1.052   3.937   4.314  1.4261  0.0904 -2.2140
  192MOL0     H25876   1.060   3.850   4.550  0.1432  1.2694 -1.7404
  192MOL0     H25877   1.111   3.684   4.489 -0.0968 -0.1726 -1.3934
  192MOL0     H25878   0.873   3.675   4.547 -0.0278 -0.7400 -0.7640
  192MOL0     H25879   0.886   3.661   4.374 -2.4190  0.1417  0.3725
  192MOL0     H25880   0.699   3.917   4.232 -0.3183 -0.2599 -2.3538
  192MOL0     H25881   0.385   3.998   4.168 -1.3707  0.6841 -1.3712
  192MOL0     H25882   0.523   3.922   4.076 -1.6803 -4.4730 -4.9934
  192MOL0     H25883   0.363   3.844   4.095  0.1229  2.1365 -1.7179
  192MOL0     H25884   0.101   3.687   4.137  1.9834  1.3491  1.7893
  192MOL0     H25885  -0.123   3.677   4.034  2.6258 -1.1251 -0.6044
  192MOL0     H25886  -0.427   3.809   4.322 -0.5736 -0.5284 -0.5647
  192MOL0     H25887  -0.438   3.972   4.244  1.5813 -0.2938 -2.2611
  192MOL0     H25888  -0.588   3.865   4.070  3.2721  1.5901  0.2079
  192MOL0     H25889  -0.567   3.713   4.139 -1.5716 -0.6416 -0.4746
  192MOL0     H25890  -0.669   3.928   4.328  0.9403 -1.7709  1.3463
  192MOL0     H25891  -0.688   3.755   4.342 -0.3387 -1.3196 -0.5581
  192MOL0     H25892  -0.900   3.923   4.235 -0.0373  0.2394  0.8575
  192MOL0     H25893  -0.822   3.857   4.090  0.2150  2.3059  0.2181
  192MOL0     H25894  -0.922   3.694   4.322 -1.6409  1.2064 -0.2469
  192MOL0     H25895  -0.820   3.635   4.187  1.7175  1.6074  3.6765
  192MOL0     H25896  -0.996   3.697   4.018  1.6847  0.8248 -0.5163
  192MOL0     H25897  -1.058   3.591   4.150  0.1228 -0.2241  1.1401
  192MOL0     H25898  -1.120   3.893   4.108 -2.7959 -1.3482 -2.6840
  192MOL0     H25899  -1.142   3.815   4.271 -1.0310  0.1085 -0.9244
  192MOL0     H25900  -1.255   3.722   4.009  1.4822 -3.5843  1.3271
  192MOL0     H25901  -1.337   3.851   4.102  1.0302  1.6008 -2.7386
  192MOL0     H25902  -0.223   4.029   4.277 -0.5875  0.6224 -0.7246
  192MOL0     H25903   0.001   4.026   4.357  0.5551  0.4769 -1.6487
  192MOL0     H25904   0.414   3.693   4.562  0.3421 -3.4177 -0.8512
  192MOL0     H25905   0.653   3.739   4.596  0.2502 -1.7805 -0.1092
  192MOL0     H25906   2.289   3.327   4.227  1.0116 -0.5087 -0.2657
  192MOL0     H25907   2.511   3.302   4.144  2.9469  1.0020 -0.1650
  192MOL0     H25908   2.982   3.295   4.315 -1.8237 -2.1979 -2.2116
  192MOL0     H25909   3.204   3.283   4.225 -0.7904 -0.8404  0.2600
  192MOL0     H25910   3.427   3.437   4.175 -0.9970 -0.9779  1.9051
  192MOL0     H25911   3.404   3.269   4.114 -2.5064  0.0816  0.3512
  192MOL0     H25912   3.522   3.497   3.953 -0.7384  0.5614  0.4799
  192MOL0     H25913   3.529   3.331   3.903  2.3437  0.0815  0.4032
  192MOL0     H25914   3.669   3.440   4.165 -0.3452 -0.1306 -1.1767
  192MOL0     H25915   3.740   3.457   4.014 -0.6858  2.0994  1.3455
  192MOL0     H25916   3.749   3.202   3.968  3.0876  0.2327 -0.0906
  192MOL0     H25917   3.674   3.169   4.120 -0.3052 -1.1665 -1.3519
  192MOL0     H25918   4.076   3.265   4.231 -1.2909 -3.1327  2.0255
  192MOL0     H25919   3.133   3.533   3.915 -1.5319 -0.3085 -0.4924
  192MOL0     H25920   2.880   3.562   3.982  0.5812  0.6675  0.4674
  193MOL0     O25921   0.143   4.455   6.202 -0.7903  0.1483 -0.2035
  193MOL0     C25922   0.195   4.495   6.097 -0.4289 -0.1236  0.1140
  193MOL0     O25923   0.132   4.531   5.979  0.1018  0.1191 -0.4160
  193MOL0     C25924  -0.001   4.509   5.958 -0.4954 -0.0050 -0.6570
  193MOL0     C25925  -0.091   4.617   5.982 -1.1849 -0.5271 -0.3530
  193MOL0     C25926  -0.230   4.591   6.004 -0.6283 -0.5927 -0.1673
  193MOL0     C25927  -0.277   4.457   5.999 -0.1981 -0.1785  1.3130
  193MOL0     O25928  -0.401   4.421   6.044  0.0601 -0.4656  0.0943
  193MOL0     C25929  -0.498   4.516   6.084  0.9155  0.5921 -0.7614
  193MOL0     C25930  -0.638   4.460   6.091  0.2921 -0.2993  0.2820
  193MOL0     C25931  -0.698   4.434   5.949  0.1549  0.6988  0.5582
  193MOL0     C25932  -0.719   4.573   5.885  0.0779 -0.0165 -0.1425
  193MOL0     C25933  -0.842   4.569   5.792 -0.1198 -0.5069  0.4234
  193MOL0     C25934  -0.803   4.506   5.660  0.0612  1.2798 -0.2091
  193MOL0     C25935  -0.927   4.511   5.558 -0.0516  0.1581 -0.4486
  193MOL0     C25936  -0.927   4.420   5.440 -0.5529  0.3927  0.6992
  193MOL0     N25937  -1.044   4.446   5.351  0.6885 -0.9035  0.8233
  193MOL0     C25938  -1.178   4.406   5.372  0.1301 -0.1396 -0.2246
  193MOL0     C25939  -1.246   4.446   5.255  0.5338  0.2615  0.4636
  193MOL0     C25940  -1.375   4.373   5.208 -0.1140 -0.8967  0.5726
  193MOL0     C25941  -1.499   4.446   5.266  0.8162 -0.0327 -0.7522
  193MOL0     C25942  -1.623   4.381   5.196  1.0993 -0.0459 -0.5753
  193MOL0     C25943  -1.721   4.338   5.304 -0.6178 -0.1377 -0.7314
  193MOL0     O25944  -1.767   4.456   5.373 -0.3630 -0.0239  0.1702
  193MOL0     C25945  -1.909   4.475   5.368  0.1845 -0.0692  0.0583
  193MOL0     C25946  -1.961   4.603   5.380 -0.4149  0.5183 -0.8659
  193MOL0     C25947  -2.100   4.627   5.387 -0.2948 -1.0342  0.2873
  193MOL0     C25948  -2.141   4.771   5.399  0.1274  0.3666  0.6848
  193MOL0     C25949  -2.190   4.521   5.388 -0.7936  0.3626 -0.0953
  193MOL0     C25950  -2.339   4.534   5.384 -0.7341  0.1927  0.8594
  193MOL0     O25951  -2.394   4.642   5.443 -0.2252  1.0776  0.3584
  193MOL0     C25952  -2.527   4.661   5.431  1.1537  0.5578 -0.7697
  193MOL0     C25953  -2.625   4.572   5.484  0.0688 -0.0933 -0.9885
  193MOL0     C25954  -2.762   4.594   5.454  0.2910  0.5033 -0.4265
  193MOL0     C25955  -2.811   4.699   5.374  0.1737 -0.1099 -0.5935
  193MOL0     O25956  -2.945   4.729   5.348 -0.4466 -0.1160 -0.4439
  193MOL0     C25957  -3.042   4.663   5.432  0.0340 -0.2643 -0.8586
  193MOL0     C25958  -3.189   4.700   5.406  0.3648  0.0979 -0.3893
  193MOL0     C25959  -3.230   4.837   5.456 -0.4698 -0.3125  0.4823
  193MOL0     C25960  -3.368   4.881   5.404  0.0384 -1.1666 -0.5366
  193MOL0     C25961  -3.392   5.030   5.429  0.0954 -0.0879 -0.3814
  193MOL0     C25962  -3.382   5.077   5.573 -0.5811  0.3078 -0.0505
  193MOL0     C25963  -3.445   5.215   5.592 -0.1373  0.4358  0.4153
  193MOL0     C25964  -3.494   5.249   5.732  0.1168 -0.3964  0.0684
  193MOL0    Cl25965  -3.364   5.259   5.845 -0.1136 -0.3096  0.2354
  193MOL0     C25966  -2.711   4.790   5.332 -0.3359  0.7267 -0.1306
  193MOL0     C25967  -2.576   4.767   5.354 -0.3502  0.5673  0.5447
  193MOL0     O25968  -2.405   4.450   5.326 -0.1816  0.2099 -0.2136
  193MOL0     C25969  -2.139   4.395   5.371 -0.0233  0.1213 -0.4259
  193MOL0     C25970  -1.999   4.371   5.360  0.4237  0.1654 -0.1023
  193MOL0     N25971  -1.152   4.512   5.173  0.4336 -0.6022  0.2480
  193MOL0     N25972  -1.037   4.507   5.228  0.0778  0.8167  0.5483
  193MOL0     C25973  -0.187   4.349   5.966 -0.2563  0.6203  0.7257
  193MOL0     C25974  -0.050   4.384   5.948  0.7299  0.8906 -0.4179
  193MOL0     C25975   0.345   4.509   6.094  0.5456  0.5821 -0.7855
  193MOL0     C25976   0.409   4.538   5.973 -0.1243  0.6494 -0.2539
  193MOL0     C25977   0.546   4.564   5.972 -0.0195  1.0395  0.4058
  193MOL0     C25978   0.630   4.559   6.087  0.8334  0.0595 -0.4663
  193MOL0     O25979   0.765   4.567   6.095  0.2042 -0.6588  0.0085
  193MOL0     C25980   0.839   4.632   5.991  0.3727  0.5429 -0.3017
  193MOL0     C25981   0.988   4.620   6.019 -0.2957 -0.0892 -0.0403
  193MOL0     C25982   1.044   4.496   5.947  0.0784  0.2640 -0.7274
  193MOL0     C25983   1.191   4.499   5.930 -0.0347  0.4705  0.2759
  193MOL0     C25984   1.268   4.553   6.046  0.8619  0.2718  0.7687
  193MOL0     C25985   1.312   4.611   6.137 -0.4242 -0.3527 -0.0360
  193MOL0     C25986   0.566   4.526   6.207  0.1136  0.7327 -0.1493
  193MOL0     C25987   0.430   4.498   6.207 -1.4388  0.2813 -0.0287
  193MOL0     H25988  -0.048   4.716   5.990  1.2143 -1.4061 -1.2952
  193MOL0     H25989  -0.286   4.680   6.032 -2.4108 -1.5634 -0.4997
  193MOL0     H25990  -0.477   4.546   6.187 -0.5469 -0.9727  0.0501
  193MOL0     H25991  -0.496   4.607   6.024  3.1779  0.6087 -0.7361
  193MOL0     H25992  -0.630   4.362   6.141  0.9144 -0.3102  0.1586
  193MOL0     H25993  -0.705   4.524   6.149  2.6287  2.1299  0.4487
  193MOL0     H25994  -0.634   4.375   5.882 -0.2631  1.8758 -0.9566
  193MOL0     H25995  -0.785   4.369   5.959  1.5978 -1.4238  0.0042
  193MOL0     H25996  -0.741   4.648   5.961 -1.1746 -0.6769  0.1816
  193MOL0     H25997  -0.624   4.599   5.836  1.8311 -1.9938  1.9617
  193MOL0     H25998  -0.933   4.531   5.840 -1.9202  0.6151 -1.9164
  193MOL0     H25999  -0.869   4.673   5.775 -1.7567 -0.7002  1.6108
  193MOL0     H26000  -0.719   4.556   5.611  0.1867 -1.3675 -2.9927
  193MOL0     H26001  -0.779   4.402   5.684  3.3894  2.3988  2.1261
  193MOL0     H26002  -1.019   4.499   5.616  0.2138  4.5113  1.2742
  193MOL0     H26003  -0.941   4.617   5.533  1.1415  0.8188  1.4296
  193MOL0     H26004  -0.936   4.322   5.488  0.9525 -1.1781 -2.0323
  193MOL0     H26005  -0.830   4.418   5.391 -0.5819 -2.4918  0.5808
  193MOL0     H26006  -1.198   4.346   5.460 -0.1845 -0.7393 -0.6943
  193MOL0     H26007  -1.374   4.366   5.099  2.1621  2.5637  0.2057
  193MOL0     H26008  -1.374   4.270   5.244  1.4331 -1.1472 -0.0870
  193MOL0     H26009  -1.503   4.551   5.236  1.6872 -0.1837 -1.4387
  193MOL0     H26010  -1.500   4.447   5.376 -0.3190 -0.0250 -0.7445
  193MOL0     H26011  -1.609   4.293   5.133 -1.3322 -1.3535  0.5687
  193MOL0     H26012  -1.676   4.456   5.136 -1.4595 -0.3886  1.1353
  193MOL0     H26013  -1.681   4.274   5.383 -1.6174  1.3290  1.0311
  193MOL0     H26014  -1.787   4.273   5.245  0.4410 -1.5127 -0.4635
  193MOL0     H26015  -1.893   4.687   5.377  0.0503  0.1140 -3.2256
  193MOL0     H26016  -2.191   4.804   5.307  0.4532 -1.4999 -0.2029
  193MOL0     H26017  -2.198   4.787   5.491 -0.1731 -0.4961  0.6551
  193MOL0     H26018  -2.049   4.830   5.401 -0.1806  0.9387 -0.7134
  193MOL0     H26019  -2.586   4.498   5.553  0.9981  0.5388 -0.8224
  193MOL0     H26020  -2.829   4.524   5.502  0.2174 -0.8395 -2.3749
  193MOL0     H26021  -3.042   4.557   5.405 -4.3403 -0.2644 -1.5027
  193MOL0     H26022  -3.020   4.681   5.538 -0.1541 -1.1533 -0.6563
  193MOL0     H26023  -3.217   4.686   5.301 -1.4305 -1.8100  0.2640
  193MOL0     H26024  -3.239   4.623   5.467  0.9026 -0.6972 -0.9338
  193MOL0     H26025  -3.151   4.909   5.433 -1.4049  0.7982  0.6545
  193MOL0     H26026  -3.223   4.828   5.564  2.8420 -4.7089  0.1957
  193MOL0     H26027  -3.366   4.859   5.297 -0.6714 -2.1085 -0.3574
  193MOL0     H26028  -3.451   4.828   5.450  0.4440 -0.5996  0.8984
  193MOL0     H26029  -3.492   5.051   5.390  0.0605 -1.6712 -1.2336
  193MOL0     H26030  -3.321   5.083   5.364  1.6161 -0.5433  0.8395
  193MOL0     H26031  -3.435   5.009   5.641 -0.7989  2.3291  1.9208
  193MOL0     H26032  -3.281   5.086   5.615 -1.0452 -0.8739  1.3858
  193MOL0     H26033  -3.525   5.233   5.519  0.2828  5.2853  0.8161
  193MOL0     H26034  -3.365   5.287   5.569 -1.0853  0.8236 -1.9874
  193MOL0     H26035  -3.567   5.176   5.769  0.4812 -1.5274 -1.3502
  193MOL0     H26036  -3.544   5.346   5.729  0.3563 -0.2451 -3.5115
  193MOL0     H26037  -2.719   4.873   5.263  0.6986 -0.6293 -1.9573
  193MOL0     H26038  -2.500   4.830   5.309  1.5688 -2.5768 -0.9306
  193MOL0     H26039  -2.202   4.311   5.344 -1.1845  0.3059  1.4778
  193MOL0     H26040  -1.961   4.269   5.362  1.6867  0.6283  0.5798
  193MOL0     H26041  -0.212   4.244   5.957 -0.6364  0.7796 -0.1815
  193MOL0     H26042   0.012   4.295   5.945  1.0592  1.0600  0.9197
  193MOL0     H26043   0.355   4.549   5.880  0.2774 -0.0941 -0.5881
  193MOL0     H26044   0.599   4.572   5.877 -1.6745 -1.8655 -0.9339
  193MOL0     H26045   0.810   4.584   5.897 -2.8504  1.7765 -0.0649
  193MOL0     H26046   0.817   4.739   5.991  1.9625  0.9111  1.0053
  193MOL0     H26047   1.002   4.620   6.128  0.1205  2.1598 -0.0439
  193MOL0     H26048   1.035   4.708   5.975 -1.0878 -0.5952 -1.9712
  193MOL0     H26049   1.009   4.491   5.844 -0.1692  1.7019 -0.7353
  193MOL0     H26050   1.012   4.404   5.997  0.8232  0.0687 -0.5927
  193MOL0     H26051   1.221   4.552   5.839  1.6435 -2.1964 -0.8125
  193MOL0     H26052   1.215   4.396   5.905 -2.2223  0.1063 -0.5830
  193MOL0     H26053   1.360   4.674   6.210  0.1398 -2.5742  1.6329
  193MOL0     H26054   0.628   4.519   6.295  1.4018 -0.7680 -1.1121
  193MOL0     H26055   0.379   4.470   6.298 -0.1998  0.4128  0.7395
  194MOL0     O26056   6.291   3.526   1.650  0.0152 -0.0766  0.2107
  194MOL0     C26057   6.336   3.606   1.571 -0.6693 -0.6725 -0.1120
  194MOL0     O26058   6.281   3.730   1.532  0.0757  0.0990  0.3233
  194MOL0     C26059   6.152   3.756   1.582 -0.1907  0.3099 -0.3589
  194MOL0     C26060   6.128   3.846   1.680 -0.1852  0.8620  0.3497
  194MOL0     C26061   5.999   3.876   1.719  1.6279 -0.0321  0.8986
  194MOL0     C26062   5.891   3.805   1.665  0.2114 -0.3294 -0.7784
  194MOL0     O26063   5.759   3.808   1.707 -0.5463  0.1530  0.0620
  194MOL0     C26064   5.728   3.905   1.816  0.3195  0.3054  0.7285
  194MOL0     C26065   5.582   3.907   1.856 -0.3745  0.2145  0.0199
  194MOL0     C26066   5.482   3.976   1.760  0.0007 -0.1576 -0.6666
  194MOL0     C26067   5.336   3.957   1.808  0.3161 -0.1089 -0.1000
  194MOL0     C26068   5.241   4.026   1.710 -0.8278  0.1924  0.6559
  194MOL0     C26069   5.093   4.005   1.752  0.4336 -0.2715 -0.3214
  194MOL0     C26070   4.999   4.103   1.674 -0.0062  0.8100 -0.3827
  194MOL0     C26071   4.976   4.059   1.535 -0.5093  0.0729  0.1996
  194MOL0     N26072   4.901   3.934   1.538  0.1004 -0.2160 -0.2608
  194MOL0     C26073   4.766   3.934   1.541 -0.1428  0.1767  0.1311
  194MOL0     C26074   4.736   3.806   1.531  0.4749 -0.3989  0.2302
  194MOL0     C26075   4.593   3.766   1.520 -0.4559 -0.5600 -0.7471
  194MOL0     C26076   4.516   3.835   1.407  0.7254  0.9364 -0.1918
  194MOL0     C26077   4.440   3.726   1.329 -0.0206 -0.1399  0.2319
  194MOL0     C26078   4.338   3.783   1.224  0.1328  0.2372 -0.7808
  194MOL0     O26079   4.239   3.859   1.290 -0.2462 -0.5603 -0.0981
  194MOL0     C26080   4.115   3.880   1.231  0.4810  0.0602  0.4546
  194MOL0     C26081   4.016   3.939   1.302 -0.4004 -0.1463  0.2067
  194MOL0     C26082   3.886   3.955   1.253  0.3068 -0.8185 -0.5279
  194MOL0     C26083   3.792   4.019   1.353  0.7494  0.1021 -0.1010
  194MOL0     C26084   3.849   3.920   1.120 -0.6907 -0.2575 -0.2891
  194MOL0     C26085   3.714   3.934   1.069  0.4167  0.1583 -0.3029
  194MOL0     O26086   3.700   3.899   0.932  0.0703 -0.2089  0.1333
  194MOL0     C26087   3.611   3.979   0.868 -0.1041  1.0442  0.3176
  194MOL0     C26088   3.641   4.110   0.824 -0.0448 -0.2808 -0.1918
  194MOL0     C26089   3.555   4.180   0.737 -0.0367  1.3435 -0.4531
  194MOL0     C26090   3.432   4.109   0.695 -0.2145  0.2869  0.3683
  194MOL0     O26091   3.344   4.176   0.619  0.4037 -0.3975 -0.2154
  194MOL0     C26092   3.290   4.296   0.684 -0.0582 -0.6926  1.1038
  194MOL0     C26093   3.171   4.349   0.598 -1.0490  0.6522  0.4657
  194MOL0     C26094   3.050   4.261   0.588  0.0173  0.1857  0.7308
  194MOL0     C26095   2.950   4.345   0.495  0.2553  0.4530 -0.2284
  194MOL0     C26096   2.820   4.264   0.474 -0.0418  0.5378  0.3453
  194MOL0     C26097   2.715   4.351   0.399  0.3635 -0.1581 -0.3185
  194MOL0     C26098   2.593   4.269   0.399  0.3586 -0.9824  0.5951
  194MOL0     C26099   2.476   4.358   0.351 -0.1211 -1.0409  0.3773
  194MOL0    Cl26100   2.320   4.273   0.356 -0.0625  0.3647 -0.6502
  194MOL0     C26101   3.398   3.978   0.729 -0.0101  0.0466  0.6335
  194MOL0     C26102   3.499   3.907   0.809 -0.1026 -0.5171 -0.8815
  194MOL0     O26103   3.616   3.939   1.151 -0.1153  0.1653  0.9592
  194MOL0     C26104   3.961   3.871   1.043  0.1151  0.8401 -0.3164
  194MOL0     C26105   4.082   3.841   1.104  0.1516  1.0077 -0.5656
  194MOL0     N26106   4.841   3.727   1.509  0.4687 -0.1168 -1.2807
  194MOL0     N26107   4.942   3.800   1.509  0.7249 -0.1546  0.7421
  194MOL0     C26108   5.915   3.697   1.575  0.2381 -0.3692  0.5650
  194MOL0     C26109   6.044   3.678   1.532 -0.7404 -1.0206  0.4342
  194MOL0     C26110   6.473   3.585   1.522 -0.5190  0.8904  0.5725
  194MOL0     C26111   6.544   3.464   1.541  0.2771 -0.2121 -0.5479
  194MOL0     C26112   6.683   3.460   1.515  0.7867  0.2433  0.0473
  194MOL0     C26113   6.746   3.575   1.470 -0.4443  0.3277 -0.1257
  194MOL0     O26114   6.880   3.578   1.445  0.3345  0.1994  0.9008
  194MOL0     C26115   6.922   3.516   1.322  0.3755 -0.1837 -0.1861
  194MOL0     C26116   6.961   3.618   1.220 -0.3751 -0.1027 -0.0683
  194MOL0     C26117   7.007   3.541   1.092 -0.5385  1.1456 -0.1635
  194MOL0     C26118   6.878   3.537   0.999 -0.2091  0.3230 -0.2681
  194MOL0     C26119   6.895   3.447   0.891  0.8111  0.1638  0.7314
  194MOL0     C26120   6.898   3.373   0.797  1.2236 -0.6908 -0.0651
  194MOL0     C26121   6.674   3.680   1.442  0.2299 -1.0135 -0.0461
  194MOL0     C26122   6.536   3.686   1.460 -0.8179  0.1993  0.1135
  194MOL0     H26123   6.210   3.905   1.723 -0.2410  2.5824 -1.7290
  194MOL0     H26124   5.991   3.951   1.798 -3.7463  1.9666 -1.0861
  194MOL0     H26125   5.785   3.887   1.908  1.8369  3.2698  0.4964
  194MOL0     H26126   5.761   4.006   1.791 -0.7542  0.1823 -1.4081
  194MOL0     H26127   5.554   3.802   1.873 -0.5045  0.4933  1.6555
  194MOL0     H26128   5.570   3.958   1.952 -4.3200  0.8756 -0.6624
  194MOL0     H26129   5.512   4.081   1.763 -1.1714  0.1787  2.4915
  194MOL0     H26130   5.480   3.933   1.659  2.0127  0.0307 -0.8394
  194MOL0     H26131   5.325   3.850   1.826  3.1299 -0.4395  0.0433
  194MOL0     H26132   5.337   4.013   1.902  0.8677  0.7755 -0.6206
  194MOL0     H26133   5.259   4.134   1.715  0.6644 -0.0141  0.1377
  194MOL0     H26134   5.255   3.990   1.608 -1.9628 -2.6740  1.4252
  194MOL0     H26135   5.059   3.905   1.722  2.0517 -0.6734 -0.8632
  194MOL0     H26136   5.077   4.027   1.858 -1.8229  0.0023 -0.6651
  194MOL0     H26137   4.909   4.095   1.737  1.4105  0.9317  1.7677
  194MOL0     H26138   5.040   4.204   1.676  1.4389  0.2379  0.3750
  194MOL0     H26139   5.076   4.050   1.491  0.2254 -1.1003  1.9755
  194MOL0     H26140   4.918   4.135   1.482 -1.5560  0.1614  1.4224
  194MOL0     H26141   4.697   4.018   1.547 -3.6060 -2.4724  1.0107
  194MOL0     H26142   4.574   3.658   1.514 -2.7673 -0.2262 -0.5129
  194MOL0     H26143   4.539   3.807   1.606 -2.8703  1.3029 -3.0055
  194MOL0     H26144   4.577   3.886   1.332 -1.7567  1.6179 -1.8779
  194MOL0     H26145   4.438   3.893   1.457 -1.0003 -1.5126  0.1241
  194MOL0     H26146   4.376   3.665   1.393 -2.9760 -0.7599 -2.9520
  194MOL0     H26147   4.514   3.663   1.279 -1.6485  0.6262 -3.5332
  194MOL0     H26148   4.295   3.693   1.179  3.3599  0.5849 -5.2326
  194MOL0     H26149   4.385   3.844   1.146  1.7887 -2.4259 -2.0090
  194MOL0     H26150   4.046   3.982   1.397 -0.6349  0.2746  0.0932
  194MOL0     H26151   3.733   4.086   1.290  1.7114 -0.7674 -1.9979
  194MOL0     H26152   3.718   3.954   1.400 -1.9870  1.8955 -1.6655
  194MOL0     H26153   3.838   4.069   1.439 -0.3200  3.0770 -1.1291
  194MOL0     H26154   3.740   4.147   0.851 -0.9565  0.6324  2.2376
  194MOL0     H26155   3.596   4.278   0.714 -2.0215  2.3102 -0.0810
  194MOL0     H26156   3.246   4.284   0.784 -0.7539  0.6601  0.9800
  194MOL0     H26157   3.377   4.362   0.688  0.3205 -0.9738 -1.2220
  194MOL0     H26158   3.140   4.444   0.641 -2.3845  0.5547 -0.2239
  194MOL0     H26159   3.209   4.364   0.496 -5.8592  0.3790 -1.6224
  194MOL0     H26160   3.013   4.245   0.690 -1.1956  1.4453  0.5138
  194MOL0     H26161   3.079   4.164   0.546 -3.4422 -0.8102  0.3787
  194MOL0     H26162   2.933   4.438   0.549  0.2532  2.5058 -3.4629
  194MOL0     H26163   2.986   4.381   0.398 -0.6876  0.0699 -0.7320
  194MOL0     H26164   2.781   4.229   0.570 -0.0835  0.3072  0.2443
  194MOL0     H26165   2.830   4.170   0.419  0.4878 -0.7125  2.4707
  194MOL0     H26166   2.687   4.434   0.464  2.1659 -1.4482  2.2803
  194MOL0     H26167   2.747   4.392   0.303 -0.0006  0.4534 -0.1829
  194MOL0     H26168   2.567   4.237   0.501 -0.5843 -1.4832  0.2056
  194MOL0     H26169   2.597   4.185   0.329  1.2341  0.3972 -1.1074
  194MOL0     H26170   2.483   4.391   0.247 -0.3915  0.3779  0.7857
  194MOL0     H26171   2.467   4.453   0.406 -0.6895  0.9150 -2.8126
  194MOL0     H26172   3.313   3.929   0.682  0.9935 -2.6813  1.4350
  194MOL0     H26173   3.493   3.800   0.829 -0.2242 -0.8313 -2.4916
  194MOL0     H26174   3.948   3.844   0.939 -0.1350  1.1029 -0.3543
  194MOL0     H26175   4.148   3.795   1.031 -1.3372 -1.1795 -0.6052
  194MOL0     H26176   5.839   3.636   1.528  1.2635 -0.6572 -0.7671
  194MOL0     H26177   6.058   3.599   1.460 -0.0608 -0.6422  0.1423
  194MOL0     H26178   6.495   3.379   1.588 -0.0556 -0.1852 -0.8376
  194MOL0     H26179   6.734   3.365   1.532  0.7859  0.2779  0.2493
  194MOL0     H26180   7.019   3.469   1.338  0.2804 -0.3816 -0.1821
  194MOL0     H26181   6.855   3.433   1.296 -1.1562  0.4768  1.4236
  194MOL0     H26182   7.040   3.679   1.265  1.2220 -2.0843 -0.0402
  194MOL0     H26183   6.869   3.676   1.205  0.6851  1.2527 -1.7018
  194MOL0     H26184   7.039   3.438   1.109 -0.4356  1.2881  0.5704
  194MOL0     H26185   7.091   3.588   1.041  1.7741 -1.2394  1.2050
  194MOL0     H26186   6.854   3.639   0.967 -0.0890  0.9678  1.6271
  194MOL0     H26187   6.805   3.499   1.071  2.1072  0.7706  2.4557
  194MOL0     H26188   6.892   3.302   0.718  0.8444 -0.0558 -0.6174
  194MOL0     H26189   6.725   3.767   1.403 -0.5770 -0.4069  0.2258
  194MOL0     H26190   6.494   3.783   1.438 -0.0392  0.7180  0.8496
  195MOL0     O26191   6.692  10.925   4.341  0.0919  0.2670  0.1898
  195MOL0     C26192   6.712  11.015   4.260  0.3714  1.0087 -1.2138
  195MOL0     O26193   6.617  11.096   4.192 -0.3760  0.9506 -0.2577
  195MOL0     C26194   6.486  11.071   4.179 -0.1443 -0.0266 -0.4392
  195MOL0     C26195   6.408  11.054   4.294  0.7510  0.2193 -0.5723
  195MOL0     C26196   6.273  11.015   4.278 -0.7902 -0.2702  0.3643
  195MOL0     C26197   6.216  10.998   4.150 -0.1039 -0.0608 -0.0092
  195MOL0     O26198   6.078  10.971   4.129 -1.2146  0.1829 -0.0574
  195MOL0     C26199   5.985  10.993   4.233  0.2742 -0.3106  0.1416
  195MOL0     C26200   5.960  11.144   4.251 -0.0532 -0.2073 -0.1067
  195MOL0     C26201   5.824  11.152   4.316  0.3436 -0.5119 -0.4410
  195MOL0     C26202   5.815  11.276   4.399 -0.6150 -0.3486 -0.3835
  195MOL0     C26203   5.681  11.291   4.461  1.0260  0.1295 -0.0100
  195MOL0     C26204   5.676  11.421   4.537 -0.1115 -0.2378 -0.4644
  195MOL0     C26205   5.535  11.470   4.544  0.9475  0.9254 -0.5105
  195MOL0     C26206   5.451  11.383   4.638 -0.3111 -0.4112  0.3756
  195MOL0     N26207   5.308  11.426   4.640  0.6165  0.6976 -0.2648
  195MOL0     C26208   5.253  11.553   4.669  0.1383 -0.2407 -0.2856
  195MOL0     C26209   5.120  11.544   4.648 -0.8981  0.3330 -0.1500
  195MOL0     C26210   5.015  11.648   4.674 -0.4585  0.5337  0.3104
  195MOL0     C26211   5.004  11.686   4.826 -0.1185 -0.4994  0.8256
  195MOL0     C26212   4.928  11.592   4.920  0.8462  0.4096  0.2759
  195MOL0     C26213   4.990  11.455   4.946 -0.5686  0.5620  0.4312
  195MOL0     O26214   5.107  11.484   5.021  0.2727  0.6684 -0.2281
  195MOL0     C26215   5.212  11.394   5.013  0.7945  0.2661 -0.3729
  195MOL0     C26216   5.196  11.260   4.985 -0.6089 -0.1844 -0.7710
  195MOL0     C26217   5.309  11.170   4.966 -0.1197 -0.9994 -0.4309
  195MOL0     C26218   5.270  11.025   4.944  0.4276  0.5014  0.1606
  195MOL0     C26219   5.443  11.226   4.976  0.2723  1.5258  0.3725
  195MOL0     C26220   5.561  11.155   4.940  0.2800 -0.7416 -0.2967
  195MOL0     O26221   5.663  11.237   4.911  1.2013 -0.5224  0.7758
  195MOL0     C26222   5.787  11.202   4.867  0.8990 -0.6758 -0.5152
  195MOL0     C26223   5.811  11.118   4.758  0.4744  0.2643  0.3404
  195MOL0     C26224   5.943  11.100   4.713 -0.5244 -0.0392 -1.0200
  195MOL0     C26225   6.053  11.147   4.772 -0.8427  0.3482  0.1244
  195MOL0     O26226   6.175  11.114   4.715  0.7321  0.3851 -0.0155
  195MOL0     C26227   6.295  11.185   4.758 -0.7518 -0.5845 -0.4138
  195MOL0     C26228   6.421  11.152   4.689 -0.3021 -0.1987 -0.2408
  195MOL0     C26229   6.547  11.190   4.772  0.4402  0.2551  1.2930
  195MOL0     C26230   6.662  11.200   4.673 -0.8121 -1.4655  0.0597
  195MOL0     C26231   6.771  11.289   4.734  0.4888 -0.5235  0.0046
  195MOL0     C26232   6.899  11.278   4.650 -0.3032  0.5988 -0.4018
  195MOL0     C26233   6.895  11.358   4.519  0.5108  0.3248 -0.1713
  195MOL0     C26234   7.026  11.323   4.438  0.2899  0.0315 -0.0686
  195MOL0    Cl26235   7.157  11.431   4.487  0.0994 -0.3060 -0.3099
  195MOL0     C26236   6.030  11.221   4.887  0.0292  0.7825  0.4136
  195MOL0     C26237   5.900  11.253   4.932 -0.0011 -0.4618 -0.3191
  195MOL0     O26238   5.569  11.033   4.937 -0.5670 -0.4819  0.1542
  195MOL0     C26239   5.454  11.362   5.010 -0.0265  0.6908 -0.6045
  195MOL0     C26240   5.345  11.439   5.041  0.8348  0.0365  1.0532
  195MOL0     N26241   5.099  11.418   4.601  0.4127 -0.1051  0.4887
  195MOL0     N26242   5.207  11.344   4.597  0.4436 -0.2731  0.5096
  195MOL0     C26243   6.295  11.018   4.037 -0.3439 -0.3753 -0.7716
  195MOL0     C26244   6.426  11.069   4.054  1.2361  0.1016  0.2848
  195MOL0     C26245   6.854  11.046   4.222 -0.4805 -0.2493 -0.5369
  195MOL0     C26246   6.962  10.962   4.261  0.2994  0.3850 -0.7239
  195MOL0     C26247   7.096  10.989   4.226  0.5291  0.5770  0.4124
  195MOL0     C26248   7.122  11.104   4.154  0.4564 -0.9582 -0.0433
  195MOL0     O26249   7.260  11.133   4.148 -0.4544 -1.0200  0.1002
  195MOL0     C26250   7.294  11.245   4.069  1.2470  0.5375 -0.3110
  195MOL0     C26251   7.435  11.278   4.114  0.4727  0.4810  0.1314
  195MOL0     C26252   7.439  11.324   4.258  0.3824 -0.7457  0.5680
  195MOL0     C26253   7.568  11.399   4.287  0.0348  0.8679  0.6085
  195MOL0     C26254   7.552  11.483   4.404 -0.4542 -0.0493 -0.3915
  195MOL0     C26255   7.539  11.543   4.511  0.4996 -0.7471 -0.0806
  195MOL0     C26256   7.015  11.163   4.093  0.1629 -0.5347  0.0396
  195MOL0     C26257   6.882  11.148   4.134  0.1799 -0.2779  0.4622
  195MOL0     H26258   6.448  11.048   4.394  1.2084 -1.5702 -0.8215
  195MOL0     H26259   6.228  10.993   4.374 -0.9504 -0.3399  0.2751
  195MOL0     H26260   5.892  10.941   4.210 -0.6065  0.5718  1.5026
  195MOL0     H26261   6.023  10.952   4.327 -0.4571  0.5275  0.8286
  195MOL0     H26262   6.030  11.194   4.318  0.9381  1.0012 -1.9849
  195MOL0     H26263   5.971  11.186   4.151 -0.9005 -1.5213 -0.7885
  195MOL0     H26264   5.748  11.152   4.238  0.0053 -3.1980 -0.1968
  195MOL0     H26265   5.811  11.065   4.382 -0.8602 -0.2189 -0.2679
  195MOL0     H26266   5.895  11.266   4.473  1.0075 -1.0316 -2.1308
  195MOL0     H26267   5.835  11.370   4.346  2.3213 -0.8919 -0.4315
  195MOL0     H26268   5.604  11.298   4.383  0.6376  5.1141  0.5049
  195MOL0     H26269   5.667  11.202   4.523  0.0749 -0.6594 -1.3119
  195MOL0     H26270   5.719  11.417   4.638 -2.1913  1.2995  0.5726
  195MOL0     H26271   5.725  11.501   4.481 -1.2518  0.8028 -0.0233
  195MOL0     H26272   5.536  11.571   4.586 -2.1450  1.2715 -1.0076
  195MOL0     H26273   5.489  11.472   4.445  2.6225  0.7172 -1.3308
  195MOL0     H26274   5.482  11.388   4.743 -1.0536  0.7358  0.5648
  195MOL0     H26275   5.457  11.277   4.612 -0.6337  0.0245 -1.6080
  195MOL0     H26276   5.303  11.643   4.702  1.3170 -1.2189  0.6944
  195MOL0     H26277   5.018  11.736   4.610 -2.6254 -0.3660 -1.1357
  195MOL0     H26278   4.921  11.603   4.640 -0.0510  0.7531 -1.1498
  195MOL0     H26279   4.956  11.784   4.822 -1.0767 -0.9944 -2.2007
  195MOL0     H26280   5.106  11.698   4.864 -0.1245  2.3773  0.1127
  195MOL0     H26281   4.826  11.576   4.884  0.2424 -1.7304  2.6790
  195MOL0     H26282   4.919  11.643   5.016  0.6617 -0.6311  0.8290
  195MOL0     H26283   5.009  11.410   4.848  3.0938 -0.1609  1.2994
  195MOL0     H26284   4.928  11.381   4.997  2.2034 -1.1281  1.6200
  195MOL0     H26285   5.094  11.228   4.966 -1.6359  2.1790  0.4061
  195MOL0     H26286   5.163  11.023   4.921  0.7771  1.5076 -1.7242
  195MOL0     H26287   5.326  10.979   4.862 -3.4650  0.7112 -2.9115
  195MOL0     H26288   5.281  10.970   5.038 -5.0158  1.8173  1.9186
  195MOL0     H26289   5.722  11.072   4.716 -0.3834  2.8762 -0.9376
  195MOL0     H26290   5.952  11.041   4.622 -4.1482  2.2359 -3.1420
  195MOL0     H26291   6.289  11.292   4.777 -2.6289 -1.0450  2.1504
  195MOL0     H26292   6.312  11.146   4.859 -1.1749 -0.9361 -0.4782
  195MOL0     H26293   6.436  11.047   4.662 -0.0055 -0.4716  0.9470
  195MOL0     H26294   6.414  11.203   4.592  2.5000  0.7367 -0.0571
  195MOL0     H26295   6.568  11.116   4.850 -2.9337 -2.2777  0.0329
  195MOL0     H26296   6.532  11.286   4.823  0.6759  2.5934 -2.6636
  195MOL0     H26297   6.696  11.103   4.637 -2.6097 -1.8111 -0.8187
  195MOL0     H26298   6.624  11.257   4.588  1.0449 -1.2886 -0.6954
  195MOL0     H26299   6.794  11.266   4.839  2.1675  2.2028  0.3208
  195MOL0     H26300   6.748  11.396   4.736  2.2093 -0.0796 -1.5895
  195MOL0     H26301   6.978  11.317   4.714  0.6111 -1.0265 -0.4656
  195MOL0     H26302   6.924  11.173   4.628 -1.1846  0.3152 -0.1131
  195MOL0     H26303   6.896  11.464   4.545 -0.1230  0.6191 -1.2944
  195MOL0     H26304   6.814  11.338   4.449  1.9866  0.3336 -1.9788
  195MOL0     H26305   7.000  11.354   4.337  0.0060  1.4237  0.3987
  195MOL0     H26306   7.049  11.217   4.453 -2.6309 -0.4849  1.3988
  195MOL0     H26307   6.119  11.258   4.936 -1.5267  3.8273  1.1589
  195MOL0     H26308   5.890  11.330   5.008  3.8946 -0.2480  0.1677
  195MOL0     H26309   5.550  11.410   5.021  0.0092  0.6338 -0.6633
  195MOL0     H26310   5.369  11.543   5.056 -3.5966  1.5947 -0.9567
  195MOL0     H26311   6.259  11.018   3.934 -3.4055 -0.3595  0.1909
  195MOL0     H26312   6.487  11.089   3.966  0.2393 -3.8755 -1.5231
  195MOL0     H26313   6.938  10.880   4.328  0.2348  0.4147 -0.7107
  195MOL0     H26314   7.187  10.941   4.262 -0.0027 -0.6436  0.1664
  195MOL0     H26315   7.272  11.226   3.964 -0.3392  2.7298 -0.4691
  195MOL0     H26316   7.235  11.333   4.098 -2.1365 -1.5037 -0.3661
  195MOL0     H26317   7.462  11.361   4.049  0.4931  1.3472  1.2261
  195MOL0     H26318   7.509  11.198   4.100  1.4836  0.5560  3.9056
  195MOL0     H26319   7.424  11.237   4.323  0.5128  0.1394  1.8276
  195MOL0     H26320   7.359  11.398   4.271  1.3499  1.0857 -2.7531
  195MOL0     H26321   7.605  11.451   4.198 -0.6055 -0.3112 -0.3822
  195MOL0     H26322   7.643  11.322   4.309  2.1332  2.1460 -1.5086
  195MOL0     H26323   7.513  11.589   4.604 -1.6168  1.5184 -1.6266
  195MOL0     H26324   7.034  11.228   4.008 -0.6026 -1.6844 -1.0715
  195MOL0     H26325   6.799  11.192   4.079 -0.9365 -1.4832  1.1210
  196MOL0     O26326   1.338   0.022   2.459 -0.3925  0.3228 -0.1875
  196MOL0     C26327   1.384  -0.065   2.534 -0.7717 -0.3078 -0.4365
  196MOL0     O26328   1.322  -0.188   2.569 -1.5187 -0.0428 -0.3188
  196MOL0     C26329   1.203  -0.214   2.502 -0.1741 -0.5615 -0.6790
  196MOL0     C26330   1.097  -0.261   2.581 -0.5682  0.0126 -0.2668
  196MOL0     C26331   0.969  -0.275   2.524  0.4649  0.2853  0.3084
  196MOL0     C26332   0.942  -0.246   2.389  0.5013 -0.4889 -0.4726
  196MOL0     O26333   0.810  -0.255   2.351 -0.1161 -0.0252  0.3772
  196MOL0     C26334   0.766  -0.203   2.227  0.4427 -0.5705 -0.7248
  196MOL0     C26335   0.614  -0.167   2.230  0.3816 -0.1783  0.2343
  196MOL0     C26336   0.578  -0.145   2.084  0.0807  0.0578  0.6690
  196MOL0     C26337   0.430  -0.101   2.070 -0.0043 -0.0396  0.0430
  196MOL0     C26338   0.397  -0.064   1.927 -0.2722 -0.2459  0.1648
  196MOL0     C26339   0.244  -0.094   1.896 -0.5718 -0.2940 -1.0861
  196MOL0     C26340   0.201  -0.048   1.751 -0.7794 -0.1339 -0.4813
  196MOL0     C26341   0.076  -0.129   1.706 -0.3070 -0.1997 -0.0635
  196MOL0     N26342  -0.053  -0.101   1.775  0.0725 -0.2602  0.1934
  196MOL0     C26343  -0.086   0.025   1.821 -0.6126 -0.0976 -0.7150
  196MOL0     C26344  -0.201   0.006   1.897  0.3776  0.1426  0.8087
  196MOL0     C26345  -0.290   0.117   1.942  0.8214  0.2717  0.7119
  196MOL0     C26346  -0.224   0.192   2.054 -0.0401 -0.3070 -0.7330
  196MOL0     C26347  -0.306   0.277   2.139 -0.2012 -0.3467 -0.3301
  196MOL0     C26348  -0.461   0.245   2.155 -1.0760 -0.4274  0.9345
  196MOL0     O26349  -0.519   0.322   2.042  0.2406 -0.7509 -0.0987
  196MOL0     C26350  -0.655   0.309   2.027 -0.1526 -0.4971  0.2335
  196MOL0     C26351  -0.702   0.353   1.908  0.4310 -0.8586 -1.0164
  196MOL0     C26352  -0.835   0.332   1.863 -0.1540 -0.0319 -0.1701
  196MOL0     C26353  -0.869   0.366   1.724  0.1293 -0.3315 -0.2415
  196MOL0     C26354  -0.928   0.281   1.952 -0.3572  0.8723 -0.0867
  196MOL0     C26355  -1.074   0.279   1.927  0.0188 -0.1202  0.1326
  196MOL0     O26356  -1.117   0.360   1.826  0.0628  0.0919 -0.0280
  196MOL0     C26357  -1.252   0.362   1.796  0.5490 -1.0249 -0.0724
  196MOL0     C26358  -1.298   0.256   1.723 -0.2547 -0.3757 -0.4413
  196MOL0     C26359  -1.432   0.241   1.684 -0.3492  0.2685 -0.2094
  196MOL0     C26360  -1.526   0.350   1.717 -0.5347 -0.1020 -0.4286
  196MOL0     O26361  -1.656   0.331   1.676  0.2551 -0.6669 -0.4142
  196MOL0     C26362  -1.726   0.450   1.652 -0.5191 -0.1214 -0.4674
  196MOL0     C26363  -1.859   0.416   1.576 -0.6723 -0.7401 -0.0353
  196MOL0     C26364  -1.947   0.542   1.554  0.3158  0.0711 -1.1922
  196MOL0     C26365  -2.068   0.499   1.480  0.4533  0.5025  0.2187
  196MOL0     C26366  -2.177   0.612   1.480 -0.5240  0.0938 -0.3125
  196MOL0     C26367  -2.298   0.564   1.411 -0.5212  1.0415 -0.7522
  196MOL0     C26368  -2.391   0.685   1.385 -0.6008 -0.3458 -0.4080
  196MOL0     C26369  -2.510   0.662   1.285  0.5866  0.0930  0.2183
  196MOL0    Cl26370  -2.644   0.598   1.378 -0.1003 -0.4652 -0.1108
  196MOL0     C26371  -1.487   0.454   1.802  0.1162 -0.6019  0.0806
  196MOL0     C26372  -1.345   0.460   1.835  0.0367  0.0980  0.2234
  196MOL0     O26373  -1.148   0.211   1.999 -0.1401 -0.2744  0.1558
  196MOL0     C26374  -0.880   0.237   2.077  0.3719  0.4842 -0.8416
  196MOL0     C26375  -0.744   0.239   2.103 -0.1586 -0.3222 -0.4268
  196MOL0     N26376  -0.231  -0.136   1.899 -0.0554  0.0008  0.3447
  196MOL0     N26377  -0.141  -0.193   1.819  0.1622 -0.5091  0.3223
  196MOL0     C26378   1.057  -0.220   2.315 -0.0830  0.0537 -0.3759
  196MOL0     C26379   1.181  -0.201   2.369  0.1432  0.2592  0.3413
  196MOL0     C26380   1.516  -0.042   2.596 -0.0357 -0.0631  0.1765
  196MOL0     C26381   1.581  -0.139   2.675  0.6003 -1.0073 -0.3390
  196MOL0     C26382   1.709  -0.119   2.723 -1.1629  0.1938 -0.1380
  196MOL0     C26383   1.787  -0.005   2.690 -0.1700 -0.1450 -0.5280
  196MOL0     O26384   1.909   0.010   2.731  0.1733  0.2429 -0.5279
  196MOL0     C26385   1.996   0.110   2.673  0.5758 -0.7878 -0.8032
  196MOL0     C26386   2.140   0.101   2.727  0.5785  0.1485 -0.4053
  196MOL0     C26387   2.233   0.008   2.651 -0.2932 -0.0786  0.9600
  196MOL0     C26388   2.363  -0.015   2.729  0.7208 -0.5589  0.0138
  196MOL0     C26389   2.471  -0.065   2.639 -0.0522  0.4516 -0.0910
  196MOL0     C26390   2.582  -0.116   2.603 -0.0370  0.3253 -0.2887
  196MOL0     C26391   1.716   0.089   2.614 -0.5240 -0.8095  0.9080
  196MOL0     C26392   1.589   0.072   2.569  0.5371 -0.1307  0.8831
  196MOL0     H26393   1.106  -0.288   2.686 -1.2357  3.3109  0.7661
  196MOL0     H26394   0.888  -0.309   2.588  0.2895 -1.7799 -0.9325
  196MOL0     H26395   0.825  -0.118   2.191  0.6456 -1.6696 -3.1786
  196MOL0     H26396   0.783  -0.285   2.156  1.7993 -0.1206 -0.9529
  196MOL0     H26397   0.559  -0.244   2.285  0.7366  0.9419  2.2543
  196MOL0     H26398   0.596  -0.077   2.290  1.4630  0.5834 -0.5465
  196MOL0     H26399   0.635  -0.059   2.048  1.4748 -0.6532  1.0737
  196MOL0     H26400   0.602  -0.235   2.026 -2.0051  0.6651 -1.2910
  196MOL0     H26401   0.372  -0.186   2.106 -1.1186  0.8279  0.3719
  196MOL0     H26402   0.413  -0.011   2.130  3.4919  1.8425 -1.4370
  196MOL0     H26403   0.435   0.034   1.897 -2.6212  0.7096  0.0729
  196MOL0     H26404   0.443  -0.136   1.859  1.0756  0.0576  0.7297
  196MOL0     H26405   0.225  -0.201   1.911 -0.0524 -0.3873 -1.0693
  196MOL0     H26406   0.182  -0.043   1.970  1.7584  1.5510 -0.3124
  196MOL0     H26407   0.185   0.059   1.762 -0.0142 -0.0689  0.0754
  196MOL0     H26408   0.293  -0.073   1.698 -0.6637  0.6557 -0.6586
  196MOL0     H26409   0.099  -0.236   1.705  2.3750  0.3135 -0.6214
  196MOL0     H26410   0.056  -0.092   1.605  1.3243  0.1636 -0.2868
  196MOL0     H26411  -0.032   0.115   1.795  0.2262  0.2675  1.9709
  196MOL0     H26412  -0.304   0.184   1.857 -1.1251 -0.6299  0.2780
  196MOL0     H26413  -0.389   0.088   1.979  1.3245 -0.0634  1.8409
  196MOL0     H26414  -0.148   0.257   2.010 -1.2925  0.0466 -2.4778
  196MOL0     H26415  -0.173   0.116   2.113  2.7067  0.6111 -1.7469
  196MOL0     H26416  -0.292   0.383   2.116  1.6906  0.1161  2.5062
  196MOL0     H26417  -0.262   0.273   2.239  1.2293 -1.1095 -0.9579
  196MOL0     H26418  -0.500   0.281   2.250 -0.1267  0.7801  0.9034
  196MOL0     H26419  -0.484   0.139   2.152 -1.7296 -0.4147 -4.5885
  196MOL0     H26420  -0.629   0.408   1.849  0.6621 -0.4661 -0.3692
  196MOL0     H26421  -0.919   0.284   1.672  0.7030  0.5495 -2.2598
  196MOL0     H26422  -0.923   0.460   1.718  2.6101  1.3210  1.2660
  196MOL0     H26423  -0.780   0.375   1.661 -0.1214  1.9099 -0.3461
  196MOL0     H26424  -1.232   0.177   1.688 -2.6034 -3.0364  0.8036
  196MOL0     H26425  -1.462   0.160   1.619  0.0591  1.2356 -1.6434
  196MOL0     H26426  -1.756   0.500   1.745  2.6995  1.8798 -0.3763
  196MOL0     H26427  -1.661   0.516   1.595  1.5424 -0.8851  0.8683
  196MOL0     H26428  -1.833   0.373   1.479 -0.4610  1.2572 -0.8897
  196MOL0     H26429  -1.914   0.353   1.646  0.9337  0.9107  2.8992
  196MOL0     H26430  -1.881   0.614   1.504  1.7546 -0.4492 -0.1097
  196MOL0     H26431  -1.981   0.587   1.648 -3.2145 -2.8107 -0.8629
  196MOL0     H26432  -2.039   0.483   1.376 -0.0812 -0.0626  0.1551
  196MOL0     H26433  -2.107   0.402   1.512  0.1682 -0.9444 -3.8468
  196MOL0     H26434  -2.135   0.695   1.423 -3.1202 -0.3007 -3.0504
  196MOL0     H26435  -2.205   0.653   1.578 -1.9947  1.7211 -1.3506
  196MOL0     H26436  -2.257   0.522   1.318  1.2549 -3.5939  1.7668
  196MOL0     H26437  -2.349   0.487   1.471  1.1142  0.7114  0.2826
  196MOL0     H26438  -2.330   0.769   1.354  1.2727 -1.1872  0.8057
  196MOL0     H26439  -2.425   0.721   1.483 -1.9109  1.8402 -1.5961
  196MOL0     H26440  -2.488   0.590   1.206 -3.5838  1.8119 -2.9117
  196MOL0     H26441  -2.537   0.755   1.235 -1.9249 -1.3965 -1.4385
  196MOL0     H26442  -1.553   0.532   1.840 -0.6476 -1.0733 -0.2596
  196MOL0     H26443  -1.310   0.544   1.894 -1.0647  1.2810 -0.7624
  196MOL0     H26444  -0.953   0.203   2.150  0.8579 -0.3413 -0.7359
  196MOL0     H26445  -0.711   0.191   2.194  0.3255 -1.0437 -0.9733
  196MOL0     H26446   1.043  -0.210   2.208  2.1401 -0.8118 -0.8019
  196MOL0     H26447   1.264  -0.174   2.304 -0.5227 -2.8152 -2.0315
  196MOL0     H26448   1.532  -0.231   2.702 -0.3439 -0.4823 -0.2274
  196MOL0     H26449   1.763  -0.196   2.776  0.7989  1.8676  0.4587
  196MOL0     H26450   2.007   0.097   2.565  0.9644 -0.2694 -0.8252
  196MOL0     H26451   1.956   0.209   2.697 -2.7606 -1.7092 -1.9494
  196MOL0     H26452   2.141   0.056   2.826 -0.4099 -0.9473 -0.8691
  196MOL0     H26453   2.184   0.201   2.732 -0.7959  0.7013  1.8396
  196MOL0     H26454   2.253   0.060   2.557 -0.8488 -2.0142 -0.2813
  196MOL0     H26455   2.175  -0.083   2.630 -1.7430  1.6716 -4.2027
  196MOL0     H26456   2.349  -0.081   2.816 -0.2482 -2.9247 -1.8071
  196MOL0     H26457   2.388   0.079   2.777  2.2706 -1.2785  0.6810
  196MOL0     H26458   2.678  -0.153   2.574 -0.1430  1.0497 -1.6650
  196MOL0     H26459   1.775   0.169   2.572 -1.0750 -0.3230  1.0585
  196MOL0     H26460   1.549   0.159   2.519 -2.3294 -1.0384  1.4067
  197MOL0     O26461   8.204   2.222   6.287  0.0500  0.5434  0.1194
  197MOL0     C26462   8.266   2.326   6.259  0.3096 -0.0480  0.3434
  197MOL0     O26463   8.205   2.441   6.230  0.1711  0.4273 -0.8017
  197MOL0     C26464   8.072   2.433   6.216 -0.2316  0.8304 -0.5760
  197MOL0     C26465   7.981   2.464   6.320 -0.5528  0.5204  0.8939
  197MOL0     C26466   7.841   2.439   6.298 -0.2609 -0.1612  0.3696
  197MOL0     C26467   7.791   2.424   6.172 -0.7310  0.0460  0.2129
  197MOL0     O26468   7.655   2.414   6.156  0.0183  0.0716  0.5283
  197MOL0     C26469   7.593   2.474   6.039  0.3739 -0.0219  0.2622
  197MOL0     C26470   7.653   2.622   6.011 -0.1549  0.3517  0.0195
  197MOL0     C26471   7.539   2.720   5.984 -0.1245  0.1710 -0.3132
  197MOL0     C26472   7.474   2.696   5.846  0.0793  0.3280 -0.0518
  197MOL0     C26473   7.359   2.794   5.825 -0.6272 -0.1952 -0.6618
  197MOL0     C26474   7.339   2.831   5.683 -0.4345 -0.4987  0.1979
  197MOL0     C26475   7.205   2.898   5.653 -0.0526  0.7222  0.3679
  197MOL0     C26476   7.199   2.983   5.529  0.0645  0.1092  0.0164
  197MOL0     N26477   7.061   3.036   5.525 -0.0908 -0.3455  0.0068
  197MOL0     C26478   6.962   2.978   5.456  0.7626  0.1337 -0.5269
  197MOL0     C26479   6.870   3.083   5.433 -0.1859 -0.5296  0.0912
  197MOL0     C26480   6.747   3.054   5.363  1.3511 -0.1553 -0.0988
  197MOL0     C26481   6.699   3.173   5.276 -0.0256 -0.6221  0.1967
  197MOL0     C26482   6.563   3.143   5.203  0.7015  0.2897  0.2799
  197MOL0     C26483   6.435   3.141   5.286 -0.4544 -0.1254 -0.4959
  197MOL0     O26484   6.410   3.271   5.341  0.3893  0.2689 -0.1372
  197MOL0     C26485   6.285   3.286   5.399  0.3011 -0.1284  0.2857
  197MOL0     C26486   6.252   3.416   5.437  0.8402  0.4675 -0.5618
  197MOL0     C26487   6.126   3.440   5.500  0.2443  0.1418  0.5122
  197MOL0     C26488   6.084   3.580   5.541 -0.0916 -0.3215 -0.4775
  197MOL0     C26489   6.025   3.342   5.502 -0.6254  0.6016 -0.2877
  197MOL0     C26490   5.877   3.364   5.517  0.5623 -0.3760  0.5014
  197MOL0     O26491   5.833   3.486   5.477  0.6276 -0.4110 -0.6932
  197MOL0     C26492   5.698   3.515   5.502 -0.6530  1.1107 -0.1361
  197MOL0     C26493   5.660   3.562   5.624 -0.0522 -0.4870  0.8349
  197MOL0     C26494   5.524   3.597   5.645 -0.8984 -0.0340  1.0369
  197MOL0     C26495   5.428   3.563   5.551 -0.1719  0.3436  0.7383
  197MOL0     O26496   5.302   3.584   5.594 -0.1113 -0.0956 -0.0824
  197MOL0     C26497   5.198   3.565   5.489 -0.1424  0.2867  0.5119
  197MOL0     C26498   5.057   3.575   5.552  0.8631  0.5662 -0.3856
  197MOL0     C26499   4.956   3.639   5.445  0.1594 -0.3161 -0.1346
  197MOL0     C26500   4.815   3.660   5.509 -0.2892 -0.8478 -0.4257
  197MOL0     C26501   4.712   3.712   5.406  0.1622 -0.7174  0.5016
  197MOL0     C26502   4.573   3.733   5.471  0.0185 -0.1671  0.7725
  197MOL0     C26503   4.569   3.848   5.576 -0.0318 -0.5964  0.2958
  197MOL0     C26504   4.437   3.926   5.599 -0.0443 -0.2087 -0.3666
  197MOL0    Cl26505   4.304   3.806   5.630  0.1117  0.0043  0.3525
  197MOL0     C26506   5.471   3.514   5.424 -0.3519  0.0944  0.1344
  197MOL0     C26507   5.607   3.489   5.401 -0.5679  0.5816  0.0344
  197MOL0     O26508   5.808   3.271   5.569 -0.7821 -0.6560 -0.2772
  197MOL0     C26509   6.061   3.214   5.461  0.0730  0.7206  0.2791
  197MOL0     C26510   6.187   3.184   5.418  0.6970  0.0528  1.2839
  197MOL0     N26511   6.921   3.203   5.476 -0.2245  0.1741 -0.1600
  197MOL0     N26512   7.037   3.169   5.523 -0.2355  0.3780 -0.1241
  197MOL0     C26513   7.886   2.407   6.070 -0.1126  0.4110  0.1030
  197MOL0     C26514   8.020   2.402   6.092 -0.6669 -0.1414  0.0649
  197MOL0     C26515   8.419   2.320   6.267 -0.8472  0.0490  0.2483
  197MOL0     C26516   8.481   2.199   6.294  0.6979  0.8246  0.3112
  197MOL0     C26517   8.612   2.193   6.312 -0.2483  0.3381 -1.0561
  197MOL0     C26518   8.702   2.300   6.296  0.6060  0.3394  0.2319
  197MOL0     O26519   8.843   2.302   6.300 -0.0817  0.5243 -0.2153
  197MOL0     C26520   8.907   2.172   6.278  0.3662 -0.6540 -0.6495
  197MOL0     C26521   9.027   2.190   6.375  0.1615 -0.6062 -0.6171
  197MOL0     C26522   8.987   2.219   6.525  0.3547 -0.5206 -0.0982
  197MOL0     C26523   9.106   2.240   6.609  0.3193 -0.3412  0.5633
  197MOL0     C26524   9.179   2.112   6.655  0.3697 -0.5009 -0.6535
  197MOL0     C26525   9.239   2.020   6.708 -0.9315  0.5832 -0.6280
  197MOL0     C26526   8.633   2.414   6.260 -0.4161  0.5826  1.6437
  197MOL0     C26527   8.498   2.429   6.241 -0.4994 -0.1519 -0.0474
  197MOL0     H26528   8.040   2.485   6.409 -0.7376  1.8230  0.7272
  197MOL0     H26529   7.771   2.455   6.380 -0.5876 -0.2846  0.1169
  197MOL0     H26530   7.609   2.424   5.943 -0.6908  0.3637 -0.1267
  197MOL0     H26531   7.486   2.480   6.061  0.5337  0.3932  0.9357
  197MOL0     H26532   7.718   2.663   6.089  0.3285 -0.9953  0.3600
  197MOL0     H26533   7.728   2.614   5.931 -0.2939  0.5065 -0.1246
  197MOL0     H26534   7.460   2.718   6.059 -0.2433  1.2153 -0.3898
  197MOL0     H26535   7.574   2.823   5.975  0.5273  0.1686  1.7170
  197MOL0     H26536   7.546   2.713   5.765 -0.4673  3.9811  0.0803
  197MOL0     H26537   7.444   2.591   5.836  2.2370 -0.2070 -1.7686
  197MOL0     H26538   7.271   2.753   5.876 -0.0308  0.2492  0.7798
  197MOL0     H26539   7.394   2.881   5.882  1.2757 -2.2588  1.5148
  197MOL0     H26540   7.415   2.897   5.640 -0.3645 -1.1491 -0.7051
  197MOL0     H26541   7.346   2.742   5.620 -4.6241 -0.2966 -0.8848
  197MOL0     H26542   7.122   2.827   5.648  1.9757 -1.6898 -1.2496
  197MOL0     H26543   7.190   2.959   5.743  4.1937  1.6526  0.6276
  197MOL0     H26544   7.221   2.916   5.445  1.4088  1.2940 -0.6138
  197MOL0     H26545   7.279   3.057   5.535 -1.2807  1.4909  3.6419
  197MOL0     H26546   6.953   2.879   5.412  0.4949  0.6663 -1.6978
  197MOL0     H26547   6.771   2.970   5.297  3.3868 -0.2081  0.6393
  197MOL0     H26548   6.665   3.025   5.429 -0.1648  1.2432 -1.2611
  197MOL0     H26549   6.772   3.179   5.195 -0.6834 -1.4779 -0.4861
  197MOL0     H26550   6.693   3.261   5.340 -0.1606 -0.9834  0.6912
  197MOL0     H26551   6.572   3.044   5.157  1.6114  0.8738 -0.8533
  197MOL0     H26552   6.558   3.214   5.119  0.6546  0.9106  0.7964
  197MOL0     H26553   6.443   3.071   5.370  0.2948  1.7832  1.1072
  197MOL0     H26554   6.361   3.112   5.211 -1.0647  3.1080 -1.2872
  197MOL0     H26555   6.332   3.490   5.443 -0.1076  1.4246  0.6927
  197MOL0     H26556   6.017   3.627   5.467 -1.7597 -0.9456  0.5770
  197MOL0     H26557   6.029   3.582   5.635 -1.4081 -3.5442 -1.0460
  197MOL0     H26558   6.168   3.649   5.549 -1.3638  1.7969 -3.4342
  197MOL0     H26559   5.733   3.568   5.704 -1.2945 -1.1220  2.0665
  197MOL0     H26560   5.487   3.640   5.738  0.8044 -0.7280  2.0814
  197MOL0     H26561   5.200   3.639   5.409 -0.0022  1.1766  1.3341
  197MOL0     H26562   5.215   3.470   5.437  0.2890  0.6499 -0.0278
  197MOL0     H26563   5.026   3.473   5.574 -0.1045  1.0664  0.6947
  197MOL0     H26564   5.054   3.637   5.642 -1.0161 -0.2907  0.2073
  197MOL0     H26565   4.955   3.567   5.364  2.5537  0.3261 -0.8103
  197MOL0     H26566   4.986   3.738   5.408  1.5984  0.2436  2.2470
  197MOL0     H26567   4.772   3.569   5.551 -1.0007  0.2666  1.3897
  197MOL0     H26568   4.829   3.730   5.592 -0.4136 -0.6393 -0.5779
  197MOL0     H26569   4.704   3.637   5.326 -0.8709  1.1424 -1.2368
  197MOL0     H26570   4.746   3.800   5.350 -2.5412 -1.0835 -1.9424
  197MOL0     H26571   4.504   3.763   5.392 -0.2718 -0.1546  1.0290
  197MOL0     H26572   4.522   3.652   5.524 -2.5497  2.3773  2.4359
  197MOL0     H26573   4.639   3.927   5.547 -1.1149  1.3796  2.6806
  197MOL0     H26574   4.583   3.819   5.680 -0.2190  2.8576  1.4048
  197MOL0     H26575   4.419   3.979   5.506  0.2592  1.3846  0.4460
  197MOL0     H26576   4.464   3.997   5.678  0.3962  0.9404 -1.5149
  197MOL0     H26577   5.403   3.494   5.341  0.6511 -0.1133 -0.6540
  197MOL0     H26578   5.649   3.449   5.309  0.0855 -2.6427  1.5766
  197MOL0     H26579   5.990   3.135   5.443 -1.1505  2.3688 -2.8290
  197MOL0     H26580   6.202   3.080   5.391  1.1559  0.5537 -0.5098
  197MOL0     H26581   7.852   2.394   5.968  0.2401  1.0613 -0.1040
  197MOL0     H26582   8.083   2.365   6.011 -2.1403  0.2369 -1.3015
  197MOL0     H26583   8.423   2.114   6.327  1.5830  0.5941  1.3274
  197MOL0     H26584   8.652   2.101   6.354  0.1850  1.4086  0.9672
  197MOL0     H26585   8.846   2.085   6.303  1.5176 -0.9912  1.1445
  197MOL0     H26586   8.937   2.172   6.173 -1.6711  2.4471 -1.3599
  197MOL0     H26587   9.093   2.272   6.346 -0.2382  1.9642  4.4610
  197MOL0     H26588   9.097   2.106   6.385  1.4482  0.5972  1.2906
  197MOL0     H26589   8.918   2.149   6.573  1.1738 -0.8309  0.6481
  197MOL0     H26590   8.935   2.314   6.538  0.2295 -0.7803  1.5930
  197MOL0     H26591   9.073   2.299   6.695 -0.6893  0.1485 -0.1461
  197MOL0     H26592   9.172   2.298   6.543  0.3270 -2.4941 -1.4194
  197MOL0     H26593   9.293   1.935   6.746  0.0801  2.0885  1.5312
  197MOL0     H26594   8.694   2.503   6.251  2.6838 -1.5596 -0.3950
  197MOL0     H26595   8.450   2.520   6.207 -2.6131 -0.8890  0.8149
  198MOL0     O26596   2.038   0.953   6.618  0.5841  0.3487 -0.0819
  198MOL0     C26597   2.020   0.856   6.689 -0.6654 -0.0708 -0.1803
  198MOL0     O26598   1.903   0.784   6.698 -0.3971  0.3432 -0.3410
  198MOL0     C26599   1.795   0.848   6.650 -0.5381 -0.1097 -0.3356
  198MOL0     C26600   1.742   0.956   6.713  0.0829  0.3936 -0.3970
  198MOL0     C26601   1.631   1.027   6.651 -0.9069 -0.5016  0.3741
  198MOL0     C26602   1.588   0.988   6.523 -0.1154  0.1886 -0.2073
  198MOL0     O26603   1.493   1.057   6.449  0.7089  0.4151 -0.2059
  198MOL0     C26604   1.435   1.173   6.504  0.0422  0.2263 -0.1693
  198MOL0     C26605   1.328   1.231   6.402  0.4392 -0.2498 -0.5101
  198MOL0     C26606   1.216   1.129   6.385 -0.1607  0.9974 -0.3358
  198MOL0     C26607   1.103   1.182   6.304  0.0727  0.6330 -0.5881
  198MOL0     C26608   1.004   1.266   6.385 -0.1256 -0.3288 -0.5382
  198MOL0     C26609   0.938   1.361   6.279 -0.4527  1.2180 -0.6788
  198MOL0     C26610   0.806   1.409   6.336 -0.4673 -0.9475  0.5173
  198MOL0     C26611   0.690   1.317   6.321  0.1495 -0.4341 -0.3229
  198MOL0     N26612   0.652   1.302   6.182  0.2550  0.1248  0.2061
  198MOL0     C26613   0.570   1.397   6.120 -1.0709  0.4145  0.6478
  198MOL0     C26614   0.533   1.344   6.003  0.1988 -0.1232 -0.1907
  198MOL0     C26615   0.442   1.407   5.900 -0.0802 -0.4605 -0.3932
  198MOL0     C26616   0.492   1.390   5.757 -0.2710 -0.2861  0.0531
  198MOL0     C26617   0.404   1.439   5.640  0.3028  0.3881  0.6892
  198MOL0     C26618   0.487   1.471   5.512  0.8205  0.0320 -0.8155
  198MOL0     O26619   0.437   1.584   5.443  0.0998  0.5518  0.8169
  198MOL0     C26620   0.314   1.580   5.380  0.0794  0.4932  0.0745
  198MOL0     C26621   0.241   1.700   5.378  0.0431  0.0736  0.0256
  198MOL0     C26622   0.108   1.700   5.320 -0.2141  0.0477  0.1330
  198MOL0     C26623   0.035   1.829   5.350 -0.1200  0.0764  0.5625
  198MOL0     C26624   0.055   1.581   5.263 -1.1826  0.5758 -0.4408
  198MOL0     C26625  -0.086   1.566   5.213  0.1366  0.2627 -0.1607
  198MOL0     O26626  -0.171   1.677   5.214 -0.2687 -0.2065  0.0474
  198MOL0     C26627  -0.291   1.658   5.151 -0.0211 -0.0243 -0.9847
  198MOL0     C26628  -0.415   1.640   5.220 -0.0087 -0.1226 -0.8789
  198MOL0     C26629  -0.531   1.641   5.152  0.6987  0.1106 -0.5987
  198MOL0     C26630  -0.536   1.657   5.015  0.3676 -0.2681 -0.2860
  198MOL0     O26631  -0.649   1.650   4.936 -0.6697  0.4828 -0.4759
  198MOL0     C26632  -0.780   1.674   4.994 -0.3849  0.1864 -0.7810
  198MOL0     C26633  -0.872   1.758   4.908  0.2148 -0.5338 -0.5107
  198MOL0     C26634  -0.930   1.690   4.787 -0.7727 -0.0759  0.0779
  198MOL0     C26635  -0.830   1.629   4.684  0.3425  0.4182  0.1924
  198MOL0     C26636  -0.895   1.579   4.557 -0.3721  0.1002  0.0058
  198MOL0     C26637  -0.925   1.695   4.452 -0.2167  1.4862 -0.4623
  198MOL0     C26638  -0.979   1.634   4.323 -0.7923 -0.0061  0.7979
  198MOL0     C26639  -1.089   1.714   4.243 -0.0253  0.0534  0.5611
  198MOL0    Cl26640  -1.001   1.856   4.158 -0.2601  0.2099  0.4965
  198MOL0     C26641  -0.410   1.669   4.949 -0.3753 -0.1481 -0.0072
  198MOL0     C26642  -0.288   1.671   5.017 -0.0394 -0.1544  0.1615
  198MOL0     O26643  -0.125   1.453   5.172 -0.0757 -0.4606 -0.2467
  198MOL0     C26644   0.137   1.469   5.258 -0.0443 -0.3077 -0.1988
  198MOL0     C26645   0.261   1.466   5.316  0.1006  0.2033  0.4243
  198MOL0     N26646   0.573   1.207   6.003 -0.0228  0.2014  0.1147
  198MOL0     N26647   0.643   1.184   6.107  0.1800 -0.3769  0.0527
  198MOL0     C26648   1.649   0.875   6.462  0.1303 -0.0824  0.7673
  198MOL0     C26649   1.747   0.800   6.527 -0.1927 -1.3263 -0.6261
  198MOL0     C26650   2.144   0.806   6.748 -0.0355  0.9981 -0.7731
  198MOL0     C26651   2.141   0.684   6.815 -0.0141  0.3235  0.6062
  198MOL0     C26652   2.258   0.618   6.855 -0.5103 -0.1107 -0.1499
  198MOL0     C26653   2.381   0.675   6.835 -0.5368  1.1323 -0.1006
  198MOL0     O26654   2.498   0.627   6.883 -0.1630  0.1277  0.6255
  198MOL0     C26655   2.498   0.508   6.955 -0.9955 -0.2139 -0.4522
  198MOL0     C26656   2.643   0.478   6.977  0.0100 -0.8745 -0.0473
  198MOL0     C26657   2.668   0.345   7.046 -0.0323  0.2094  0.0384
  198MOL0     C26658   2.813   0.328   7.079 -0.0280  0.2235 -0.4943
  198MOL0     C26659   2.838   0.187   7.109  0.1164 -0.4320  0.7865
  198MOL0     C26660   2.863   0.079   7.151 -0.6324  0.3089 -0.8656
  198MOL0     C26661   2.386   0.802   6.782 -0.6538 -0.1519  0.3858
  198MOL0     C26662   2.268   0.866   6.734  0.2559 -0.3604  0.3988
  198MOL0     H26663   1.784   0.990   6.807 -1.7583 -2.0050  1.4286
  198MOL0     H26664   1.590   1.120   6.688  0.0135  0.0908 -0.0659
  198MOL0     H26665   1.385   1.143   6.597 -0.5389 -2.6056 -1.3017
  198MOL0     H26666   1.516   1.246   6.513  0.5267 -0.4778  1.5365
  198MOL0     H26667   1.283   1.323   6.439  0.1839 -0.7929  0.5857
  198MOL0     H26668   1.374   1.252   6.305 -0.2022  1.0688 -0.5542
  198MOL0     H26669   1.253   1.035   6.342  1.2090  1.1890  0.3656
  198MOL0     H26670   1.180   1.116   6.487 -0.1588 -0.3367 -0.4887
  198MOL0     H26671   1.142   1.247   6.225 -0.7876  2.5359  0.4601
  198MOL0     H26672   1.051   1.099   6.255  1.6911 -0.5614 -0.3581
  198MOL0     H26673   0.929   1.200   6.429 -0.2137 -1.0496 -1.7386
  198MOL0     H26674   1.052   1.328   6.461 -2.0543  0.2845  0.2475
  198MOL0     H26675   1.010   1.438   6.250 -0.0202 -0.0606 -3.2884
  198MOL0     H26676   0.909   1.311   6.186 -2.9610 -1.4004  1.3165
  198MOL0     H26677   0.822   1.430   6.442 -1.9058  1.6097  0.3056
  198MOL0     H26678   0.774   1.501   6.285 -1.5683 -1.7890 -0.3651
  198MOL0     H26679   0.615   1.364   6.385  0.4714  0.3608 -0.5206
  198MOL0     H26680   0.708   1.220   6.368 -0.3747 -1.1840 -1.6203
  198MOL0     H26681   0.536   1.492   6.159 -3.0418 -0.2117  0.5664
  198MOL0     H26682   0.339   1.373   5.912 -0.7403  1.1785 -1.1602
  198MOL0     H26683   0.436   1.515   5.913  0.6031 -0.6424  1.7427
  198MOL0     H26684   0.503   1.281   5.749  0.5433 -0.3754  1.8416
  198MOL0     H26685   0.588   1.440   5.742 -1.0254  2.2704  2.7588
  198MOL0     H26686   0.356   1.529   5.678 -0.5631  0.7797 -1.2305
  198MOL0     H26687   0.339   1.364   5.594  2.1226  0.9107 -3.0542
  198MOL0     H26688   0.491   1.392   5.437  1.3619  2.5702 -3.6830
  198MOL0     H26689   0.590   1.491   5.543 -0.0997 -0.4401  2.9927
  198MOL0     H26690   0.287   1.788   5.421 -0.4532  1.3197 -1.8781
  198MOL0     H26691  -0.001   1.877   5.259  0.8778  1.2318  0.7485
  198MOL0     H26692  -0.046   1.826   5.423 -0.3579  0.7423  0.3283
  198MOL0     H26693   0.111   1.896   5.392  1.3831 -1.5014  0.4840
  198MOL0     H26694  -0.404   1.642   5.328  1.2250 -1.1025 -0.9673
  198MOL0     H26695  -0.614   1.595   5.205 -1.6654  2.7030 -1.7852
  198MOL0     H26696  -0.833   1.580   5.015  0.2378  0.5039  2.9135
  198MOL0     H26697  -0.769   1.727   5.089 -0.7505 -3.9486  1.8499
  198MOL0     H26698  -0.954   1.786   4.974  0.6139 -1.9787  0.6466
  198MOL0     H26699  -0.832   1.856   4.879  0.3873  1.4390  5.1757
  198MOL0     H26700  -0.980   1.768   4.728  2.0966  1.1381 -0.9063
  198MOL0     H26701  -0.998   1.606   4.807 -1.1479 -0.0560 -1.0236
  198MOL0     H26702  -0.747   1.699   4.671 -0.0687  0.5328 -2.3735
  198MOL0     H26703  -0.789   1.543   4.737  0.7202  1.0082  0.8661
  198MOL0     H26704  -0.987   1.524   4.578 -0.5921  0.7816  0.8974
  198MOL0     H26705  -0.821   1.508   4.519  0.6473  1.3049 -0.3159
  198MOL0     H26706  -1.005   1.760   4.488 -1.0369  0.1376  0.2676
  198MOL0     H26707  -0.834   1.755   4.443 -0.0043  0.8539 -4.0326
  198MOL0     H26708  -1.030   1.540   4.349 -2.5963  0.3915 -1.0692
  198MOL0     H26709  -0.898   1.612   4.253 -1.3729 -1.3605  0.5089
  198MOL0     H26710  -1.160   1.741   4.322  1.6696  1.1929  1.7671
  198MOL0     H26711  -1.127   1.641   4.171  0.4123 -1.5530  1.9151
  198MOL0     H26712  -0.396   1.673   4.842  2.4700  0.6749  0.3023
  198MOL0     H26713  -0.198   1.678   4.956 -1.6391 -4.0191 -3.1227
  198MOL0     H26714   0.113   1.371   5.218 -1.9267  0.1105 -0.1960
  198MOL0     H26715   0.312   1.371   5.310  2.0272  1.2287 -0.2912
  198MOL0     H26716   1.620   0.852   6.360 -0.1127 -1.5254  1.1314
  198MOL0     H26717   1.796   0.707   6.501 -0.7253 -2.3881  1.9223
  198MOL0     H26718   2.047   0.641   6.847 -1.0739  1.7021 -0.4919
  198MOL0     H26719   2.259   0.520   6.903 -0.7565 -0.4692 -0.8591
  198MOL0     H26720   2.438   0.534   7.042 -0.2871 -0.8209  0.2360
  198MOL0     H26721   2.450   0.425   6.903 -2.4549 -1.6870  2.9601
  198MOL0     H26722   2.693   0.564   7.024  0.5751 -0.7203 -0.8938
  198MOL0     H26723   2.676   0.470   6.873 -1.3690 -0.5881 -0.5272
  198MOL0     H26724   2.628   0.260   6.990 -1.9857  1.0835  0.0228
  198MOL0     H26725   2.621   0.352   7.145  0.7859  2.1691  0.3375
  198MOL0     H26726   2.834   0.377   7.174  0.8236 -1.4375  0.2093
  198MOL0     H26727   2.882   0.357   6.998  1.3548  2.1534  1.2555
  198MOL0     H26728   2.897  -0.015   7.189  1.5223  1.1639 -0.5018
  198MOL0     H26729   2.476   0.863   6.770 -0.1106 -0.9241  0.4731
  198MOL0     H26730   2.268   0.966   6.692  1.5505 -1.2573 -1.9229
  199MOL0     O26731   5.127   8.115   7.064 -0.5222 -0.6859 -0.3376
  199MOL0     C26732   5.217   8.127   6.981  0.4016 -0.3627  0.8041
  199MOL0     O26733   5.211   8.090   6.847 -0.3908 -0.0879  0.0232
  199MOL0     C26734   5.102   8.047   6.790 -0.1741  0.2376  0.2029
  199MOL0     C26735   4.999   7.967   6.848 -0.0666  0.2864  0.4957
  199MOL0     C26736   4.898   7.928   6.764  0.7410 -0.1384  0.0905
  199MOL0     C26737   4.880   7.968   6.632  0.1560 -0.2541 -0.4208
  199MOL0     O26738   4.759   7.931   6.575 -0.1131 -0.3492  0.4928
  199MOL0     C26739   4.688   7.989   6.463  0.0494  0.1785  0.9112
  199MOL0     C26740   4.603   8.107   6.503 -0.0380 -0.3023 -0.0850
  199MOL0     C26741   4.467   8.083   6.553 -0.1708 -0.0244 -0.3357
  199MOL0     C26742   4.402   8.212   6.601  0.2382 -0.8280 -0.3961
  199MOL0     C26743   4.278   8.200   6.681  0.7734  1.2410 -0.1920
  199MOL0     C26744   4.241   8.314   6.778  0.0346  0.3470 -0.1443
  199MOL0     C26745   4.310   8.289   6.910  0.4733 -0.1937  0.4315
  199MOL0     C26746   4.291   8.403   7.017 -0.2179  0.1054  0.1349
  199MOL0     N26747   4.149   8.422   7.045  0.0061 -0.6346  0.4919
  199MOL0     C26748   4.058   8.342   7.094  0.4037 -0.2714  0.9278
  199MOL0     C26749   3.939   8.402   7.083  0.0624 -0.3924  0.3987
  199MOL0     C26750   3.812   8.340   7.137  0.0536 -0.3142 -0.7138
  199MOL0     C26751   3.693   8.329   7.049  0.1597 -1.1151  0.3412
  199MOL0     C26752   3.719   8.233   6.925 -0.5565  0.0329 -0.3817
  199MOL0     C26753   3.757   8.313   6.803 -0.8061 -0.0656  0.1298
  199MOL0     O26754   3.681   8.426   6.748 -0.4310 -0.5228 -0.0891
  199MOL0     C26755   3.545   8.401   6.759 -0.8162 -0.3038 -0.3109
  199MOL0     C26756   3.469   8.486   6.837 -0.5783  0.3778 -0.1282
  199MOL0     C26757   3.334   8.476   6.863  0.5327 -0.7027 -0.0037
  199MOL0     C26758   3.274   8.569   6.965  0.4882  0.3832  0.5760
  199MOL0     C26759   3.263   8.382   6.779  0.0830 -0.2027 -0.0481
  199MOL0     C26760   3.114   8.364   6.778 -0.5979  1.0316  0.2553
  199MOL0     O26761   3.050   8.301   6.667  0.2359  0.3709 -1.0728
  199MOL0     C26762   2.910   8.275   6.668 -0.8955 -1.0162 -0.2551
  199MOL0     C26763   2.819   8.355   6.733  0.0592 -0.1613  0.3123
  199MOL0     C26764   2.684   8.337   6.715  0.5340  0.3067  0.6653
  199MOL0     C26765   2.630   8.241   6.635  0.1570  0.2875  0.3277
  199MOL0     O26766   2.497   8.228   6.622  0.1871 -0.1762 -0.0134
  199MOL0     C26767   2.429   8.220   6.495 -0.6234 -0.0721 -0.7578
  199MOL0     C26768   2.371   8.074   6.470  1.0023 -0.5314 -0.3291
  199MOL0     C26769   2.241   8.045   6.547 -0.7700  0.4937 -0.4877
  199MOL0     C26770   2.133   7.988   6.458  0.0050 -0.2231 -0.4639
  199MOL0     C26771   2.020   7.926   6.538 -0.3953 -0.9289 -0.4988
  199MOL0     C26772   1.939   8.032   6.617 -0.4496  0.1892 -0.7270
  199MOL0     C26773   1.790   7.994   6.650  0.8621  0.1744  0.1213
  199MOL0     C26774   1.708   7.982   6.523  0.0661 -0.2666 -0.1440
  199MOL0    Cl26775   1.528   7.998   6.551 -0.0479  0.3990  0.2625
  199MOL0     C26776   2.716   8.153   6.576  0.1258 -0.1049  0.3920
  199MOL0     C26777   2.854   8.173   6.591 -0.8205 -0.4234 -0.1685
  199MOL0     O26778   3.066   8.393   6.889  0.4743  0.0746  0.4140
  199MOL0     C26779   3.341   8.304   6.695 -0.3005 -0.8697 -0.2664
  199MOL0     C26780   3.476   8.312   6.678 -0.0946 -1.0706  0.5728
  199MOL0     N26781   3.954   8.514   7.009  0.2951  0.6197  0.0191
  199MOL0     N26782   4.085   8.523   6.984  0.5106  0.4156 -0.7426
  199MOL0     C26783   4.993   8.032   6.569  1.3531 -0.0957 -0.0353
  199MOL0     C26784   5.102   8.072   6.653  0.4455 -0.0755  0.4166
  199MOL0     C26785   5.347   8.186   7.022  0.1387 -0.1021 -0.3268
  199MOL0     C26786   5.355   8.258   7.143  0.1711 -0.3241  0.4521
  199MOL0     C26787   5.476   8.321   7.181  0.3664  0.3288 -0.2965
  199MOL0     C26788   5.592   8.301   7.112 -0.5075  0.9460  0.5215
  199MOL0     O26789   5.711   8.351   7.160 -0.3833 -0.2459  0.4698
  199MOL0     C26790   5.830   8.348   7.078  0.9001 -0.5784 -0.1018
  199MOL0     C26791   5.935   8.417   7.158 -0.1015  0.3686 -0.2125
  199MOL0     C26792   5.968   8.351   7.288  0.2218 -0.3285  0.2196
  199MOL0     C26793   6.099   8.394   7.359 -0.7035 -0.3167  0.1115
  199MOL0     C26794   6.223   8.324   7.323 -0.1638  0.0425 -0.0930
  199MOL0     C26795   6.325   8.277   7.285 -0.0269 -0.9221  0.1595
  199MOL0     C26796   5.585   8.232   6.988 -0.6181 -1.1256 -0.4665
  199MOL0     C26797   5.466   8.175   6.944  0.9189 -0.5394  0.9515
  199MOL0     H26798   5.005   7.925   6.948  0.7514  0.9372  0.7274
  199MOL0     H26799   4.821   7.861   6.800  0.2571 -1.1004 -2.4672
  199MOL0     H26800   4.765   8.019   6.391  1.3524 -4.6983 -0.0676
  199MOL0     H26801   4.622   7.915   6.419  1.2799 -0.4993  0.1522
  199MOL0     H26802   4.651   8.173   6.575 -1.6636  0.4145  0.3894
  199MOL0     H26803   4.578   8.160   6.411 -1.1954  1.7192  1.3266
  199MOL0     H26804   4.407   8.040   6.472  0.5023 -0.8552 -0.4142
  199MOL0     H26805   4.472   8.005   6.630  0.4050 -2.1183 -2.3781
  199MOL0     H26806   4.466   8.262   6.674 -0.5274  1.0119 -0.9244
  199MOL0     H26807   4.389   8.283   6.519  2.0169 -3.0537 -2.8001
  199MOL0     H26808   4.198   8.199   6.607  0.3130 -0.4943  0.2698
  199MOL0     H26809   4.270   8.102   6.729  0.0060 -0.0016 -2.6896
  199MOL0     H26810   4.272   8.413   6.743  0.7625  0.2202  0.1265
  199MOL0     H26811   4.132   8.314   6.786 -0.0094  0.2837 -0.6602
  199MOL0     H26812   4.275   8.197   6.958  2.8245 -2.0082 -1.0929
  199MOL0     H26813   4.416   8.274   6.887  0.3310  0.3343 -0.5948
  199MOL0     H26814   4.337   8.494   6.977 -1.3060  1.3767  1.6347
  199MOL0     H26815   4.331   8.382   7.117 -0.5598  1.3915  0.5559
  199MOL0     H26816   4.079   8.250   7.148  0.7932 -1.7217 -1.5363
  199MOL0     H26817   3.839   8.244   7.183  1.2155  0.5967  0.5944
  199MOL0     H26818   3.782   8.402   7.222  0.4874 -2.8101  1.4059
  199MOL0     H26819   3.674   8.429   7.010 -2.1157 -1.5208  0.2503
  199MOL0     H26820   3.614   8.298   7.118  0.9425  0.5512  2.0726
  199MOL0     H26821   3.633   8.176   6.888 -0.6920  0.8930 -1.4765
  199MOL0     H26822   3.794   8.161   6.957  1.0350  1.1151 -1.5155
  199MOL0     H26823   3.767   8.236   6.725 -2.1425 -0.5643  0.4341
  199MOL0     H26824   3.857   8.351   6.828 -0.3112 -1.0927 -0.2073
  199MOL0     H26825   3.531   8.561   6.886  1.7687 -1.6131  0.1484
  199MOL0     H26826   3.202   8.633   6.915  0.3051  1.0667  1.6708
  199MOL0     H26827   3.216   8.521   7.045 -4.1099 -0.0620 -2.6573
  199MOL0     H26828   3.352   8.625   7.018  0.4908 -0.6904  1.7605
  199MOL0     H26829   2.855   8.446   6.779  2.4067 -0.2149 -1.2725
  199MOL0     H26830   2.613   8.399   6.768  0.1307  0.8443 -0.4803
  199MOL0     H26831   2.344   8.289   6.489 -2.2677 -1.8492  0.5599
  199MOL0     H26832   2.500   8.241   6.414 -0.6138  0.5038 -0.6050
  199MOL0     H26833   2.339   8.055   6.367 -3.8277 -0.1343  0.8851
  199MOL0     H26834   2.454   8.009   6.500 -0.1498 -1.0842  1.9010
  199MOL0     H26835   2.204   8.136   6.595  0.6643  1.4428 -1.1230
  199MOL0     H26836   2.267   7.980   6.631  1.1123  2.7471  0.8136
  199MOL0     H26837   2.110   8.076   6.396  2.1355  1.8529  1.4945
  199MOL0     H26838   2.163   7.905   6.394 -1.8960 -0.7249 -0.7693
  199MOL0     H26839   2.060   7.853   6.609 -0.4737 -1.6533 -1.1847
  199MOL0     H26840   1.954   7.882   6.462 -1.6499  0.3091 -0.1701
  199MOL0     H26841   1.991   8.058   6.709 -0.4613  2.6939 -1.3532
  199MOL0     H26842   1.935   8.126   6.560  1.2235  0.3062 -0.6937
  199MOL0     H26843   1.742   8.071   6.712  1.4606 -0.0824  0.9288
  199MOL0     H26844   1.790   7.895   6.697 -0.1034  0.7954  1.5114
  199MOL0     H26845   1.734   7.892   6.466 -0.1724 -0.5463  0.1795
  199MOL0     H26846   1.740   8.062   6.456 -1.1956  1.1705  0.9035
  199MOL0     H26847   2.692   8.066   6.515  1.4011 -0.3765  0.2502
  199MOL0     H26848   2.930   8.107   6.548  0.4483  0.9970 -0.1887
  199MOL0     H26849   3.287   8.229   6.638 -1.2700 -0.6410  0.3312
  199MOL0     H26850   3.541   8.273   6.601  1.4595  1.4393  0.4819
  199MOL0     H26851   4.990   8.048   6.462  0.6092  0.4119  0.0559
  199MOL0     H26852   5.184   8.131   6.614 -1.4829  2.2948 -0.3448
  199MOL0     H26853   5.271   8.254   7.212 -1.0338 -1.3505 -1.0166
  199MOL0     H26854   5.476   8.373   7.276 -1.6421 -1.0017  0.4945
  199MOL0     H26855   5.857   8.244   7.059  0.9605 -1.1394  2.7408
  199MOL0     H26856   5.819   8.396   6.980  1.9203 -0.2939 -0.0894
  199MOL0     H26857   5.905   8.514   7.198  3.0153 -0.2665  4.4151
  199MOL0     H26858   6.025   8.405   7.097  0.2001  2.0884 -0.1482
  199MOL0     H26859   5.959   8.243   7.273 -0.0235  0.0480 -3.2479
  199MOL0     H26860   5.886   8.382   7.353  2.3777  3.4327  1.4062
  199MOL0     H26861   6.085   8.378   7.467 -1.5304 -1.7272 -0.1746
  199MOL0     H26862   6.111   8.498   7.328  2.0048 -0.6870 -0.2514
  199MOL0     H26863   6.421   8.243   7.250  0.6725 -0.1100  1.2496
  199MOL0     H26864   5.669   8.226   6.920 -1.0319 -0.8578 -1.0054
  199MOL0     H26865   5.471   8.124   6.848  2.4627  0.3474  0.5318
  200MOL0     O26866   6.539  11.244   5.412 -0.0286 -0.0800  0.3881
  200MOL0     C26867   6.585  11.247   5.298  0.8826 -0.1150  0.1437
  200MOL0     O26868   6.510  11.273   5.185  0.2674  0.1149  0.3157
  200MOL0     C26869   6.374  11.272   5.204  0.7913 -0.9461  0.5713
  200MOL0     C26870   6.305  11.153   5.235 -0.0749 -0.5483 -1.0060
  200MOL0     C26871   6.163  11.170   5.254 -0.8274 -0.3576 -0.2881
  200MOL0     C26872   6.099  11.292   5.246 -0.0692 -0.4804  0.3673
  200MOL0     O26873   5.962  11.306   5.257 -0.2165  0.6661 -0.2381
  200MOL0     C26874   5.885  11.195   5.285  0.1954  0.7641  0.3408
  200MOL0     C26875   5.743  11.244   5.267 -0.1636  0.5979 -0.4793
  200MOL0     C26876   5.651  11.140   5.333 -0.2526  0.3677 -0.3189
  200MOL0     C26877   5.514  11.204   5.371 -0.6357 -0.1438 -0.7885
  200MOL0     C26878   5.437  11.085   5.442  0.5315 -0.0210 -0.1346
  200MOL0     C26879   5.316  11.030   5.359  0.0716  0.3502 -0.5034
  200MOL0     C26880   5.240  10.907   5.409  0.7439  0.5142 -0.6164
  200MOL0     C26881   5.115  10.872   5.322 -0.2019  0.2522  0.6669
  200MOL0     N26882   5.028  10.778   5.387  0.2974  0.7028  0.0012
  200MOL0     C26883   4.947  10.805   5.485  0.0435  0.2092 -0.1755
  200MOL0     C26884   4.881  10.687   5.510 -0.2589  1.2143 -0.6778
  200MOL0     C26885   4.784  10.675   5.625  0.5505  0.0865  0.4288
  200MOL0     C26886   4.645  10.645   5.571  0.0089 -0.3221 -0.3235
  200MOL0     C26887   4.606  10.749   5.460  0.1724 -0.1318 -0.4861
  200MOL0     C26888   4.468  10.711   5.405 -0.6019  0.1751 -1.0160
  200MOL0     O26889   4.371  10.718   5.507  0.2991 -0.1319 -0.7162
  200MOL0     C26890   4.250  10.681   5.456  0.1058  0.7393  1.1126
  200MOL0     C26891   4.162  10.768   5.381 -0.0128  0.3813 -0.3613
  200MOL0     C26892   4.045  10.713   5.328 -0.0795 -0.2972 -0.3355
  200MOL0     C26893   3.964  10.806   5.233 -0.0957 -0.4670  0.0176
  200MOL0     C26894   4.005  10.584   5.369 -0.5034  0.1330 -1.3150
  200MOL0     C26895   3.895  10.511   5.316  0.2714 -0.1216  1.0918
  200MOL0     O26896   3.822  10.439   5.406  0.1349  0.2345 -1.0723
  200MOL0     C26897   3.707  10.367   5.382  0.5422  0.3579  0.8506
  200MOL0     C26898   3.694  10.250   5.455  0.3640 -0.6245  0.6513
  200MOL0     C26899   3.589  10.168   5.426 -0.1932  1.7169  0.5967
  200MOL0     C26900   3.489  10.202   5.334  0.4936 -0.3119  0.2375
  200MOL0     O26901   3.395  10.109   5.308  0.6544 -0.4320  0.7912
  200MOL0     C26902   3.258  10.140   5.329 -1.0140  0.6500 -0.2342
  200MOL0     C26903   3.184  10.025   5.378  0.0888 -0.5739  0.0904
  200MOL0     C26904   3.034  10.062   5.425  0.5107  0.4687  0.0959
  200MOL0     C26905   2.950  10.076   5.295 -0.1452  0.2991  0.9076
  200MOL0     C26906   2.800  10.088   5.322 -0.3156 -0.3026  0.9950
  200MOL0     C26907   2.730  10.072   5.182  0.1502  0.4316 -0.0220
  200MOL0     C26908   2.580  10.083   5.195 -0.0754 -0.1864  0.0119
  200MOL0     C26909   2.510  10.054   5.058  0.5881  0.4849 -0.1338
  200MOL0    Cl26910   2.340  10.087   5.085 -0.5099 -0.4798  0.3012
  200MOL0     C26911   3.490  10.334   5.275  0.4972 -0.1933 -0.2913
  200MOL0     C26912   3.601  10.406   5.293  0.0121  0.1066  0.2798
  200MOL0     O26913   3.864  10.525   5.196  0.0308  0.4306  0.2393
  200MOL0     C26914   4.083  10.511   5.461  0.2625  0.0885  0.3311
  200MOL0     C26915   4.202  10.559   5.497 -0.5892  0.7357  0.8890
  200MOL0     N26916   4.914  10.598   5.410  0.0663  0.3740  0.4991
  200MOL0     N26917   4.998  10.654   5.335 -0.6869 -0.1788  0.0411
  200MOL0     C26918   6.170  11.407   5.212 -0.2516 -0.5339  0.0037
  200MOL0     C26919   6.305  11.397   5.188 -0.7866 -0.9352 -0.1482
  200MOL0     C26920   6.732  11.239   5.279 -0.0259 -1.0577  0.0848
  200MOL0     C26921   6.788  11.211   5.156  0.7024 -0.4579 -0.4833
  200MOL0     C26922   6.919  11.208   5.122  0.2210  0.4370 -0.5906
  200MOL0     C26923   7.021  11.208   5.221  0.2276  0.5814  0.8797
  200MOL0     O26924   7.152  11.184   5.195 -0.4874 -0.2973 -0.5509
  200MOL0     C26925   7.236  11.137   5.304  0.6571 -0.0329  0.8437
  200MOL0     C26926   7.352  11.068   5.223  0.4453 -0.8199  0.5602
  200MOL0     C26927   7.480  11.087   5.305  0.2408  0.6050  0.1917
  200MOL0     C26928   7.587  10.992   5.253  0.9799 -0.1531  0.0724
  200MOL0     C26929   7.714  11.024   5.316 -1.1903  0.3435  0.0920
  200MOL0     C26930   7.818  11.054   5.364  0.4169  0.4157  0.0988
  200MOL0     C26931   6.972  11.237   5.354 -0.4398  0.3858 -0.7109
  200MOL0     C26932   6.828  11.258   5.376 -0.1599 -0.5255 -0.5050
  200MOL0     H26933   6.362  11.061   5.232 -0.4288 -0.7396 -2.7386
  200MOL0     H26934   6.113  11.075   5.273  3.7099 -2.5333  2.5744
  200MOL0     H26935   5.896  11.114   5.212  0.2674  0.9583  0.1347
  200MOL0     H26936   5.909  11.151   5.382 -1.8641  0.5942  0.8288
  200MOL0     H26937   5.727  11.343   5.311  1.6111  0.4174  0.6689
  200MOL0     H26938   5.721  11.255   5.161  1.6391 -2.0866 -1.2353
  200MOL0     H26939   5.628  11.051   5.274 -1.9555 -0.5430  1.6095
  200MOL0     H26940   5.708  11.108   5.421  1.4376  1.5053 -0.9350
  200MOL0     H26941   5.531  11.285   5.443 -0.1728 -0.9223  0.0014
  200MOL0     H26942   5.473  11.254   5.283 -0.3992  4.2694  1.3069
  200MOL0     H26943   5.511  11.008   5.465  2.1154  1.1983 -0.9679
  200MOL0     H26944   5.390  11.124   5.533  2.2138  4.3094 -0.8782
  200MOL0     H26945   5.246  11.114   5.365  0.6839  1.0697 -2.4987
  200MOL0     H26946   5.343  11.012   5.254 -1.0211 -1.0169 -0.5799
  200MOL0     H26947   5.305  10.819   5.417 -2.1357 -1.6458  1.3346
  200MOL0     H26948   5.211  10.922   5.514  2.3679  1.7302 -0.2911
  200MOL0     H26949   5.166  10.830   5.235  2.2141 -2.7806  3.2776
  200MOL0     H26950   5.050  10.958   5.303 -0.2199  0.2628  0.7714
  200MOL0     H26951   4.940  10.892   5.549  1.3269  0.1535  0.0699
  200MOL0     H26952   4.812  10.590   5.686  0.5696  0.9238  1.6126
  200MOL0     H26953   4.779  10.758   5.696  0.4124  0.9012 -0.5079
  200MOL0     H26954   4.577  10.653   5.657  2.4242  2.2295  1.5158
  200MOL0     H26955   4.647  10.551   5.516 -1.1841 -0.1856 -0.6236
  200MOL0     H26956   4.680  10.760   5.380  2.8152  0.6914  1.8899
  200MOL0     H26957   4.591  10.845   5.510 -2.8571 -0.8142  0.1246
  200MOL0     H26958   4.472  10.604   5.380  2.2315 -0.2593  0.7599
  200MOL0     H26959   4.445  10.769   5.315  0.0027 -2.1344 -2.7848
  200MOL0     H26960   4.199  10.867   5.357  0.7446 -0.0168 -0.8375
  200MOL0     H26961   3.858  10.810   5.262 -0.1409  2.0064 -0.2851
  200MOL0     H26962   3.993  10.912   5.234  0.2365 -0.5522  1.6128
  200MOL0     H26963   3.968  10.780   5.127  1.0910  1.4333 -0.4544
  200MOL0     H26964   3.769  10.221   5.529 -0.7507 -2.3712  1.1494
  200MOL0     H26965   3.569  10.072   5.473 -1.1972  1.0723 -1.0431
  200MOL0     H26966   3.254  10.221   5.403 -2.1014 -1.0803  1.7000
  200MOL0     H26967   3.210  10.170   5.236 -2.5924 -1.4809 -0.1786
  200MOL0     H26968   3.182   9.959   5.290 -0.4879 -0.2207 -0.1656
  200MOL0     H26969   3.241   9.981   5.461  1.8438 -0.8741 -1.2151
  200MOL0     H26970   3.028  10.152   5.487 -1.7183 -0.8202  1.8617
  200MOL0     H26971   2.994   9.976   5.478  0.9156  1.9079  2.9180
  200MOL0     H26972   2.985  10.164   5.239 -1.1943  1.9351  2.6678
  200MOL0     H26973   2.959   9.991   5.228 -1.7191 -0.9773  2.2508
  200MOL0     H26974   2.772  10.181   5.373 -0.2842  1.4195 -1.9162
  200MOL0     H26975   2.780   9.998   5.381 -0.1889 -0.6120  0.5670
  200MOL0     H26976   2.776  10.141   5.111 -1.8402 -1.7848 -3.7877
  200MOL0     H26977   2.757   9.972   5.146  0.8737  0.8007 -0.5270
  200MOL0     H26978   2.555  10.187   5.219  2.8507  0.6761 -0.2835
  200MOL0     H26979   2.549  10.010   5.270 -1.6662  0.5897  0.1561
  200MOL0     H26980   2.518   9.952   5.020  0.1556  0.8328 -1.2013
  200MOL0     H26981   2.548  10.131   4.989  0.9561 -0.6131 -1.1834
  200MOL0     H26982   3.413  10.367   5.205  0.7999  1.4747  0.1113
  200MOL0     H26983   3.609  10.494   5.230  0.1162  0.4421  0.7619
  200MOL0     H26984   4.050  10.414   5.497  0.5608 -0.0309  0.2898
  200MOL0     H26985   4.260  10.506   5.571  3.1643  0.4103 -1.9756
  200MOL0     H26986   6.127  11.506   5.201  0.4592 -0.1932  0.2343
  200MOL0     H26987   6.354  11.487   5.150 -2.9109  0.6874  0.7465
  200MOL0     H26988   6.720  11.176   5.078 -0.9129 -1.1499  1.1653
  200MOL0     H26989   6.951  11.192   5.019  1.1619 -0.0098 -0.2332
  200MOL0     H26990   7.276  11.223   5.358 -0.2139  1.5620 -0.9159
  200MOL0     H26991   7.180  11.067   5.366 -2.3360  2.0032  0.6520
  200MOL0     H26992   7.375  11.107   5.123 -0.3025  0.9538  1.0429
  200MOL0     H26993   7.337  10.960   5.221  0.4260 -0.8777  2.5309
  200MOL0     H26994   7.473  11.062   5.411 -0.8317 -2.3137 -0.4534
  200MOL0     H26995   7.507  11.192   5.298  1.1045  0.6166  2.6660
  200MOL0     H26996   7.602  11.005   5.145  1.6024 -1.7804 -0.0643
  200MOL0     H26997   7.568  10.886   5.270  2.1535 -0.4945 -0.5783
  200MOL0     H26998   7.911  11.081   5.410  0.2572  1.3433 -0.0978
  200MOL0     H26999   7.039  11.235   5.439 -1.4969 -3.8665  0.2758
  200MOL0     H27000   6.798  11.289   5.476  2.1516 -0.1462  0.1175
  201MOL0     O27001   9.182  11.266  11.178 -0.4081 -0.8185  0.0893
  201MOL0     C27002   9.210  11.145  11.163 -0.3156 -0.4622 -0.0742
  201MOL0     O27003   9.129  11.058  11.109 -0.5870 -0.2111 -0.7403
  201MOL0     C27004   9.009  11.102  11.069  0.1085 -0.3264 -0.1537
  201MOL0     C27005   8.920  11.185  11.130 -0.5594 -0.7139 -0.3339
  201MOL0     C27006   8.800  11.221  11.064  0.4577 -0.1942 -0.4045
  201MOL0     C27007   8.764  11.169  10.937 -1.0931  0.3500 -0.1325
  201MOL0     O27008   8.652  11.205  10.870  0.0369 -0.0512 -0.4323
  201MOL0     C27009   8.644  11.346  10.831 -0.7089 -0.2715 -0.0960
  201MOL0     C27010   8.763  11.393  10.746  0.1391 -0.1418 -0.5388
  201MOL0     C27011   8.761  11.539  10.748  0.8164  0.4485  0.2345
  201MOL0     C27012   8.857  11.585  10.630  0.3233 -0.4969  0.5523
  201MOL0     C27013   8.842  11.729  10.579 -0.5685 -0.1615  0.0533
  201MOL0     C27014   8.883  11.833  10.693 -0.0051  0.1842  1.2795
  201MOL0     C27015   8.814  11.963  10.680  0.0991 -0.9699 -0.5321
  201MOL0     C27016   8.817  12.055  10.805  0.0033 -0.5656  0.6676
  201MOL0     N27017   8.798  12.200  10.801  0.5012 -0.4057  0.2489
  201MOL0     C27018   8.700  12.270  10.867  0.0275  0.9247 -0.6558
  201MOL0     C27019   8.726  12.394  10.837 -0.9071 -0.0952 -0.0723
  201MOL0     C27020   8.642  12.504  10.904  0.3576 -0.1104 -0.1749
  201MOL0     C27021   8.528  12.567  10.822 -0.7383  0.6475  0.4203
  201MOL0     C27022   8.456  12.684  10.890  0.3124  0.4487  0.1647
  201MOL0     C27023   8.345  12.637  10.992 -0.0461 -0.2639 -0.0715
  201MOL0     O27024   8.275  12.756  11.040 -0.3635  0.3060  0.0161
  201MOL0     C27025   8.161  12.749  11.112 -0.0663 -0.4689  1.1004
  201MOL0     C27026   8.108  12.630  11.161  0.7183 -0.5280  0.2345
  201MOL0     C27027   7.990  12.647  11.236 -0.2909 -0.4836 -0.4389
  201MOL0     C27028   7.927  12.520  11.286  0.1305  0.1219 -1.3085
  201MOL0     C27029   7.937  12.773  11.285 -0.4739 -0.2109 -0.1251
  201MOL0     C27030   7.816  12.798  11.369 -0.1495  0.6160 -0.7566
  201MOL0     O27031   7.803  12.926  11.414  0.4078 -0.5971  0.1930
  201MOL0     C27032   7.703  12.953  11.497  1.2343 -0.0877  0.2203
  201MOL0     C27033   7.725  13.029  11.610  0.9753 -0.2293 -0.6982
  201MOL0     C27034   7.622  13.063  11.696  0.0683 -0.1879 -0.1382
  201MOL0     C27035   7.486  13.023  11.671 -0.8093  0.2661  0.6286
  201MOL0     O27036   7.372  13.060  11.745 -0.1020  0.3197  1.2124
  201MOL0     C27037   7.396  13.136  11.863  0.4209 -0.5716 -0.1058
  201MOL0     C27038   7.263  13.154  11.939  0.0264 -0.0435  0.3731
  201MOL0     C27039   7.210  13.062  12.043  0.1746  0.2297  0.1853
  201MOL0     C27040   7.053  13.066  12.051 -0.4102  0.8625 -0.3089
  201MOL0     C27041   6.988  12.936  12.106 -0.0636  0.4973  0.1446
  201MOL0     C27042   7.004  12.946  12.263 -0.4638 -0.7817 -0.1427
  201MOL0     C27043   6.918  12.836  12.324 -0.1608  0.6568  0.6024
  201MOL0     C27044   6.917  12.822  12.473  0.2550  0.4107  0.8471
  201MOL0    Cl27045   7.088  12.784  12.535  0.1826  0.1769 -0.0249
  201MOL0     C27046   7.469  12.957  11.548 -0.0198 -0.6693 -1.3356
  201MOL0     C27047   7.570  12.924  11.462  0.9869 -0.8727  0.3911
  201MOL0     O27048   7.737  12.703  11.386 -0.2000 -0.3013  0.0155
  201MOL0     C27049   8.002  12.888  11.233 -0.3045 -0.4445  0.3328
  201MOL0     C27050   8.109  12.878  11.142 -1.1647 -0.0984 -0.3232
  201MOL0     N27051   8.836  12.410  10.757  0.3557  0.3391 -0.3603
  201MOL0     N27052   8.882  12.285  10.746  0.1212 -0.0480  0.0142
  201MOL0     C27053   8.847  11.077  10.875  0.3898  0.3581  0.1337
  201MOL0     C27054   8.961  11.036  10.946 -0.2412  0.2389 -1.2519
  201MOL0     C27055   9.359  11.130  11.190  0.9348  0.0498  0.8357
  201MOL0     C27056   9.417  11.016  11.130  0.2410 -0.8409  0.5518
  201MOL0     C27057   9.550  10.999  11.143 -0.1565  0.4261 -0.9267
  201MOL0     C27058   9.626  11.076  11.230  0.4528 -0.6668 -0.9639
  201MOL0     O27059   9.759  11.071  11.247 -0.6867 -0.3627 -0.1514
  201MOL0     C27060   9.839  10.950  11.229  0.5555  0.1071  0.7468
  201MOL0     C27061   9.882  10.925  11.082 -0.6608 -0.2610 -0.0566
  201MOL0     C27062   9.976  11.031  11.036 -0.0443  0.8863  0.2846
  201MOL0     C27063  10.029  10.983  10.891  0.4403 -0.2207 -1.0531
  201MOL0     C27064  10.130  11.070  10.851  0.1655  0.0834  0.2042
  201MOL0     C27065  10.216  11.157  10.836  0.3294  0.7857  0.7816
  201MOL0     C27066   9.558  11.184  11.305 -1.0790 -0.2126  0.5418
  201MOL0     C27067   9.428  11.215  11.272  0.7976  0.4915  0.4041
  201MOL0     H27068   8.927  11.231  11.228 -2.6696 -2.5099  0.7206
  201MOL0     H27069   8.741  11.298  11.114 -0.6400 -0.4494 -1.2643
  201MOL0     H27070   8.549  11.361  10.778 -4.1880 -0.7849  5.2477
  201MOL0     H27071   8.638  11.413  10.917 -1.0437  2.1430 -1.9024
  201MOL0     H27072   8.860  11.361  10.785  0.1301 -2.2453 -2.0461
  201MOL0     H27073   8.750  11.345  10.648  1.6595 -2.4856  0.3336
  201MOL0     H27074   8.658  11.562  10.719 -0.2479 -3.2055  0.6816
  201MOL0     H27075   8.788  11.573  10.848  0.2451 -2.1473  1.3467
  201MOL0     H27076   8.960  11.567  10.663 -0.2080  2.9687  5.0716
  201MOL0     H27077   8.830  11.523  10.544  0.3453 -2.4730  1.8998
  201MOL0     H27078   8.917  11.737  10.500  0.4631 -1.8670  0.8142
  201MOL0     H27079   8.741  11.744  10.539  0.4914  1.6023 -2.1465
  201MOL0     H27080   8.851  11.809  10.795  0.7131  0.8358  1.6693
  201MOL0     H27081   8.991  11.850  10.686  0.3063 -1.8401  0.3813
  201MOL0     H27082   8.839  12.017  10.589  0.5343  0.0740  0.1856
  201MOL0     H27083   8.706  11.943  10.675 -0.2478  0.9683 -1.8719
  201MOL0     H27084   8.920  12.047  10.839  0.8685 -0.2870 -1.6680
  201MOL0     H27085   8.748  12.014  10.880  1.1213 -1.7887  1.0631
  201MOL0     H27086   8.624  12.225  10.931  1.8330  0.1426  1.0458
  201MOL0     H27087   8.589  12.464  10.990  0.5223 -1.2792 -0.5919
  201MOL0     H27088   8.711  12.582  10.938 -2.7611  2.5786  0.4333
  201MOL0     H27089   8.453  12.492  10.794 -2.2310  2.7963 -1.7309
  201MOL0     H27090   8.572  12.590  10.725  3.3027 -1.5971  1.5076
  201MOL0     H27091   8.415  12.760  10.824  0.1563  0.3682  0.1689
  201MOL0     H27092   8.523  12.748  10.949  0.1529  1.8064 -1.0727
  201MOL0     H27093   8.385  12.574  11.072 -1.7847 -0.8020  0.4017
  201MOL0     H27094   8.269  12.576  10.944  0.2306 -1.8509  1.4203
  201MOL0     H27095   8.144  12.529  11.142 -0.2027 -0.6022 -1.2215
  201MOL0     H27096   7.914  12.514  11.395  0.2918 -0.5393 -1.3268
  201MOL0     H27097   7.832  12.505  11.233  0.0863  0.7522 -1.4256
  201MOL0     H27098   7.991  12.438  11.253  1.4479  0.6721 -0.1852
  201MOL0     H27099   7.829  13.044  11.639  0.7687  0.3963 -0.2605
  201MOL0     H27100   7.641  13.117  11.788 -1.7313 -2.2873  1.6044
  201MOL0     H27101   7.456  13.080  11.935 -2.1188 -1.2057  1.6459
  201MOL0     H27102   7.425  13.239  11.840  0.5478 -1.0839 -2.5279
  201MOL0     H27103   7.273  13.255  11.983 -1.0859 -0.4149  1.5588
  201MOL0     H27104   7.185  13.159  11.863  1.1222 -0.4949 -0.8021
  201MOL0     H27105   7.261  13.083  12.138 -1.9494 -1.7925  1.9157
  201MOL0     H27106   7.243  12.958  12.036  0.3595  0.0782  2.3795
  201MOL0     H27107   7.012  13.153  12.103  0.8379  0.7941  0.8506
  201MOL0     H27108   7.015  13.079  11.949  0.6307 -2.5210 -1.2599
  201MOL0     H27109   7.040  12.848  12.067  0.9614  1.1306  0.0339
  201MOL0     H27110   6.882  12.931  12.081 -0.0525  4.1550 -1.3394
  201MOL0     H27111   7.111  12.936  12.284 -0.4017 -1.8464 -0.8440
  201MOL0     H27112   6.978  13.049  12.287 -0.1490 -0.2919 -1.7757
  201MOL0     H27113   6.957  12.743  12.280 -0.2523  0.8231  0.1683
  201MOL0     H27114   6.818  12.859  12.288 -0.7947 -1.4139  0.8829
  201MOL0     H27115   6.856  12.740  12.511 -1.7601  1.5097  0.1574
  201MOL0     H27116   6.886  12.916  12.520  2.1978  1.1528  0.7501
  201MOL0     H27117   7.369  12.925  11.521 -0.0714 -0.8202 -0.9728
  201MOL0     H27118   7.546  12.882  11.365 -2.4305  1.8807 -0.1767
  201MOL0     H27119   7.968  12.990  11.249 -0.2655 -0.4133  0.2170
  201MOL0     H27120   8.160  12.967  11.107 -0.4277  1.3883  3.8674
  201MOL0     H27121   8.821  11.031  10.780 -3.4435  2.2865  0.0489
  201MOL0     H27122   9.029  10.967  10.898  1.4311  1.7248 -1.1575
  201MOL0     H27123   9.361  10.955  11.059  0.2819 -0.1416 -0.0878
  201MOL0     H27124   9.603  10.929  11.079  0.6443  1.6756 -1.6847
  201MOL0     H27125   9.932  10.955  11.287 -0.0128 -0.1354  1.6851
  201MOL0     H27126   9.781  10.870  11.275  1.1103 -0.1229  1.0596
  201MOL0     H27127   9.805  10.908  11.006  2.1032 -0.5536 -3.0200
  201MOL0     H27128   9.946  10.836  11.078 -1.0757 -0.6033 -4.1484
  201MOL0     H27129  10.065  11.036  11.100  1.2240 -0.8876 -1.2078
  201MOL0     H27130   9.915  11.121  11.040 -0.9996  0.2034  1.6306
  201MOL0     H27131   9.943  10.984  10.823  0.0781 -1.2231 -0.6375
  201MOL0     H27132  10.069  10.881  10.900 -0.2053 -0.3589  0.7193
  201MOL0     H27133  10.284  11.232  10.803  1.2519 -0.2062  0.3801
  201MOL0     H27134   9.616  11.253  11.366  0.7659 -0.9800 -0.2840
  201MOL0     H27135   9.380  11.303  11.313 -0.1167 -0.0794  0.5908
  202MOL0     O27136   9.221   8.987   3.131 -0.5860 -0.0817 -0.1117
  202MOL0     C27137   9.117   9.041   3.100  0.4587  0.4118 -0.0515
  202MOL0     O27138   9.000   9.041   3.165  0.2974  1.1298 -0.1764
  202MOL0     C27139   8.995   8.997   3.295  0.4739 -0.0188  0.0183
  202MOL0     C27140   9.103   8.997   3.389  0.0498  0.2802 -0.0634
  202MOL0     C27141   9.079   8.971   3.527 -0.5077 -0.3984  0.2563
  202MOL0     C27142   8.949   8.943   3.572 -0.7748  0.2003  0.1866
  202MOL0     O27143   8.942   8.884   3.696 -0.0044 -0.3527  0.5140
  202MOL0     C27144   8.825   8.839   3.751  0.4534  0.6670 -0.7550
  202MOL0     C27145   8.866   8.765   3.873  0.5334  0.6564  0.6511
  202MOL0     C27146   8.744   8.734   3.960  0.6637  0.4844  0.1602
  202MOL0     C27147   8.653   8.628   3.894  0.5007 -0.2556 -0.4524
  202MOL0     C27148   8.515   8.612   3.963  0.8964 -0.4610 -0.2255
  202MOL0     C27149   8.432   8.743   3.969 -0.2409 -0.1719  0.7408
  202MOL0     C27150   8.400   8.805   3.832 -0.3337 -0.4368  0.0468
  202MOL0     C27151   8.317   8.720   3.724  0.6457 -0.3720 -0.7613
  202MOL0     N27152   8.199   8.652   3.781 -0.5228  0.2661 -0.3649
  202MOL0     C27153   8.091   8.719   3.826 -0.8802  0.2265  0.2594
  202MOL0     C27154   8.008   8.617   3.856 -0.7379  0.3712  0.1320
  202MOL0     C27155   7.883   8.619   3.939 -0.5462  0.3581 -0.5994
  202MOL0     C27156   7.746   8.617   3.867 -0.5436  1.0161  0.1760
  202MOL0     C27157   7.664   8.498   3.931  0.0055  0.3568  0.4834
  202MOL0     C27158   7.641   8.486   4.090  0.8563 -0.4651 -0.0152
  202MOL0     O27159   7.517   8.409   4.119 -0.1628  0.8897 -0.4637
  202MOL0     C27160   7.399   8.476   4.114  0.1263  0.0426 -0.7273
  202MOL0     C27161   7.378   8.617   4.102  0.3285  0.1663  0.1851
  202MOL0     C27162   7.248   8.676   4.104 -0.0407 -0.2137 -0.2699
  202MOL0     C27163   7.234   8.826   4.066 -0.3926  0.3502  0.0796
  202MOL0     C27164   7.134   8.590   4.117  0.1244 -0.8982  0.8242
  202MOL0     C27165   6.994   8.646   4.110 -0.3485 -0.7207  0.9159
  202MOL0     O27166   6.899   8.579   4.171  0.0470  0.1821 -0.5562
  202MOL0     C27167   6.777   8.639   4.187 -0.5509 -0.0497  0.1115
  202MOL0     C27168   6.671   8.590   4.105 -0.5771  0.2923  0.0743
  202MOL0     C27169   6.542   8.639   4.124  0.0873 -0.2704 -0.1249
  202MOL0     C27170   6.517   8.746   4.218 -0.3960 -0.3609 -0.0789
  202MOL0     O27171   6.399   8.798   4.206  0.3868  0.1199  0.3017
  202MOL0     C27172   6.364   8.924   4.272  0.2780  0.7259  0.9522
  202MOL0     C27173   6.216   8.942   4.258  0.1811  0.3550 -0.4962
  202MOL0     C27174   6.128   8.839   4.324 -0.0893  0.9712 -0.4064
  202MOL0     C27175   5.976   8.866   4.303 -0.4552 -0.3351  0.1545
  202MOL0     C27176   5.912   8.965   4.404  1.1596  0.1273  0.0736
  202MOL0     C27177   5.766   8.988   4.361  0.1271  0.0199 -1.1746
  202MOL0     C27178   5.679   9.050   4.479  0.3323 -0.4738  0.3306
  202MOL0     C27179   5.632   9.189   4.451  0.4436  0.7727  0.2971
  202MOL0    Cl27180   5.772   9.296   4.414  0.1998 -0.2460 -0.7104
  202MOL0     C27181   6.624   8.802   4.289 -0.2278  0.3462 -0.2477
  202MOL0     C27182   6.755   8.743   4.271  0.9729 -0.6542 -0.7353
  202MOL0     O27183   6.971   8.738   4.027 -0.3183 -0.2090 -0.4767
  202MOL0     C27184   7.155   8.457   4.142  0.1431 -0.1725 -0.1050
  202MOL0     C27185   7.287   8.398   4.133 -0.4425  0.0349  0.0376
  202MOL0     N27186   8.061   8.494   3.818 -0.0910  0.3171 -0.4412
  202MOL0     N27187   8.175   8.516   3.776  0.6031  0.4031  0.2743
  202MOL0     C27188   8.844   8.955   3.484  0.5097  0.1991  0.2482
  202MOL0     C27189   8.868   8.983   3.349 -0.9729 -0.5309  0.3088
  202MOL0     C27190   9.114   9.096   2.963 -0.0265  0.0652  0.3674
  202MOL0     C27191   8.999   9.138   2.906 -0.6049  0.0679  0.6294
  202MOL0     C27192   8.986   9.182   2.773  0.3762  0.0621  0.5158
  202MOL0     C27193   9.102   9.199   2.693  0.2000 -0.3075  0.4009
  202MOL0     O27194   9.083   9.257   2.562 -0.2517 -0.0572 -0.1558
  202MOL0     C27195   9.199   9.278   2.484 -0.2507 -0.5357  0.4146
  202MOL0     C27196   9.160   9.320   2.341  0.3843 -0.2736  0.1272
  202MOL0     C27197   9.294   9.343   2.266  0.8268 -0.2769  0.1654
  202MOL0     C27198   9.274   9.356   2.113 -0.0770  0.1116  0.2176
  202MOL0     C27199   9.381   9.422   2.036 -0.0500 -1.1367  0.4101
  202MOL0     C27200   9.470   9.474   1.963  0.0770 -0.2375  0.6520
  202MOL0     C27201   9.230   9.175   2.759  0.1955  0.2132  0.8786
  202MOL0     C27202   9.241   9.126   2.889 -0.0489  0.5512 -0.7520
  202MOL0     H27203   9.205   9.017   3.358  0.6316  0.1127  1.6380
  202MOL0     H27204   9.160   8.976   3.600 -2.0467 -0.6723  2.0414
  202MOL0     H27205   8.754   8.920   3.769 -1.3958 -1.7144  4.9450
  202MOL0     H27206   8.796   8.769   3.672  2.4682 -0.5108 -0.5311
  202MOL0     H27207   8.917   8.672   3.846 -1.2716 -0.0365 -0.4910
  202MOL0     H27208   8.942   8.827   3.923  2.8880  0.6410 -2.6185
  202MOL0     H27209   8.789   8.688   4.048 -0.2769  2.9911  2.0523
  202MOL0     H27210   8.689   8.823   3.992  0.7296  1.2506 -1.7048
  202MOL0     H27211   8.640   8.651   3.787  2.2207  1.5374 -0.3348
  202MOL0     H27212   8.694   8.528   3.912 -4.4797 -2.5822 -0.3925
  202MOL0     H27213   8.456   8.527   3.930  1.1822 -1.2045  1.0974
  202MOL0     H27214   8.543   8.587   4.066  3.4682 -0.7695 -0.9350
  202MOL0     H27215   8.339   8.717   4.020  0.0587 -4.4648 -0.5283
  202MOL0     H27216   8.488   8.819   4.024  0.9791 -0.1204 -0.5119
  202MOL0     H27217   8.342   8.896   3.851  2.3560  1.4028 -0.0358
  202MOL0     H27218   8.489   8.832   3.775 -1.4469 -0.8559 -1.9959
  202MOL0     H27219   8.379   8.638   3.686 -0.4385 -3.1926  2.9106
  202MOL0     H27220   8.288   8.790   3.646  2.7325  0.2264 -1.0518
  202MOL0     H27221   8.080   8.826   3.845  1.0108  0.9248 -2.0393
  202MOL0     H27222   7.892   8.533   4.005 -0.4881 -0.0504 -1.1349
  202MOL0     H27223   7.887   8.704   4.009 -2.2118  1.7754 -2.1263
  202MOL0     H27224   7.749   8.598   3.760  0.3057 -1.2708  0.5523
  202MOL0     H27225   7.693   8.713   3.871  0.6876  1.7361 -0.2898
  202MOL0     H27226   7.717   8.406   3.904  1.7122  1.4521 -0.0314
  202MOL0     H27227   7.567   8.495   3.879  0.0749 -2.8925  0.3218
  202MOL0     H27228   7.643   8.585   4.136  2.2618 -1.2027  1.6255
  202MOL0     H27229   7.721   8.428   4.137  1.5317 -1.0054 -1.7487
  202MOL0     H27230   7.460   8.686   4.082 -1.0871  1.3057 -2.0087
  202MOL0     H27231   7.164   8.873   4.135  2.8488  4.0122  1.2193
  202MOL0     H27232   7.323   8.888   4.080 -0.7611  1.8450 -3.3342
  202MOL0     H27233   7.208   8.838   3.960  0.7473 -1.3569 -0.4448
  202MOL0     H27234   6.698   8.511   4.037  6.5926  0.3005  2.0683
  202MOL0     H27235   6.455   8.591   4.079 -0.3536 -3.1463  3.2702
  202MOL0     H27236   6.379   8.917   4.380  0.8109  0.6403  0.8761
  202MOL0     H27237   6.424   9.004   4.229 -1.0160  0.8005 -0.8105
  202MOL0     H27238   6.187   9.035   4.308  2.3165 -0.5943  2.7995
  202MOL0     H27239   6.200   8.943   4.150 -0.8141  0.1568 -0.3628
  202MOL0     H27240   6.145   8.825   4.431  0.8455  1.4185 -0.4873
  202MOL0     H27241   6.154   8.740   4.285  0.7545  0.3179  1.6940
  202MOL0     H27242   5.958   8.916   4.208 -2.5105  0.6228  0.9770
  202MOL0     H27243   5.921   8.771   4.307  1.3795 -1.3944  2.5032
  202MOL0     H27244   5.963   9.061   4.403 -0.9898  1.3996 -3.2602
  202MOL0     H27245   5.925   8.939   4.509  2.5406  3.0353  0.7325
  202MOL0     H27246   5.755   9.062   4.281  0.1478 -0.3444 -1.5167
  202MOL0     H27247   5.707   8.898   4.341 -0.6134 -0.5204  2.6462
  202MOL0     H27248   5.742   9.052   4.568  0.3113 -0.1222  0.3412
  202MOL0     H27249   5.602   8.974   4.496  0.4810 -0.6981  0.0070
  202MOL0     H27250   5.574   9.232   4.534  1.4136  2.0565  0.3333
  202MOL0     H27251   5.573   9.188   4.359  1.1769 -2.4941 -0.2734
  202MOL0     H27252   6.612   8.882   4.361  3.7323  0.0431  1.0340
  202MOL0     H27253   6.833   8.785   4.334  0.4375 -3.4689  2.0362
  202MOL0     H27254   7.074   8.386   4.149 -0.5590  0.7644  2.4851
  202MOL0     H27255   7.287   8.291   4.152 -1.2185  0.1782  0.9002
  202MOL0     H27256   8.743   8.959   3.524  1.4295  0.3260  2.7034
  202MOL0     H27257   8.786   9.013   3.284  0.5243  1.3937 -0.7904
  202MOL0     H27258   8.905   9.118   2.958  0.4252  0.2511  2.6668
  202MOL0     H27259   8.896   9.223   2.727  0.7138 -0.8380 -1.0015
  202MOL0     H27260   9.257   9.356   2.535 -0.5878  0.4821 -0.7218
  202MOL0     H27261   9.265   9.191   2.476  0.3342 -0.0059 -0.8397
  202MOL0     H27262   9.109   9.416   2.341 -1.2880 -1.1175 -0.9827
  202MOL0     H27263   9.089   9.260   2.285  0.8544 -0.5286 -0.2036
  202MOL0     H27264   9.378   9.276   2.284 -0.3871 -1.7639  0.5643
  202MOL0     H27265   9.319   9.447   2.288 -3.1358  0.4551  2.3145
  202MOL0     H27266   9.184   9.415   2.093 -0.2737  0.1197  1.1038
  202MOL0     H27267   9.250   9.257   2.073 -0.0877 -0.2398  1.0820
  202MOL0     H27268   9.540   9.505   1.887  1.9487 -1.0481  1.9710
  202MOL0     H27269   9.326   9.188   2.709  0.3427  0.7797  1.3063
  202MOL0     H27270   9.341   9.100   2.922  1.7041  4.1675 -2.6669
  203MOL0     O27271   0.865   0.237  10.513 -0.3210  0.2637 -0.0251
  203MOL0     C27272   0.897   0.343  10.554 -0.1520 -0.2527  0.2718
  203MOL0     O27273   0.814   0.449  10.573  0.1559  0.2417 -0.1863
  203MOL0     C27274   0.679   0.440  10.541 -0.0574  0.0688 -0.5006
  203MOL0     C27275   0.586   0.495  10.631  0.1338  1.2495  0.2182
  203MOL0     C27276   0.450   0.507  10.600  0.0478  0.0149  0.0489
  203MOL0     C27277   0.406   0.460  10.474  0.1636  0.1779  0.6113
  203MOL0     O27278   0.278   0.472  10.423 -0.4358 -0.4856  0.6777
  203MOL0     C27279   0.177   0.493  10.518 -0.1893 -0.7342  0.8512
  203MOL0     C27280   0.042   0.472  10.455  0.3364  1.0788 -0.8245
  203MOL0     C27281  -0.075   0.495  10.553  0.4774  0.0690 -0.6484
  203MOL0     C27282  -0.203   0.464  10.479 -0.9581  0.3553  0.4371
  203MOL0     C27283  -0.328   0.432  10.553  0.0341  0.2633  0.3609
  203MOL0     C27284  -0.446   0.413  10.459  0.5333 -0.4488 -0.3893
  203MOL0     C27285  -0.575   0.391  10.537  0.8404 -0.0171  0.2217
  203MOL0     C27286  -0.700   0.324  10.468 -0.3181  0.3434 -0.3034
  203MOL0     N27287  -0.790   0.274  10.571 -0.1365 -0.9957 -0.2950
  203MOL0     C27288  -0.874   0.357  10.644 -0.3448 -0.4545 -0.0963
  203MOL0     C27289  -0.955   0.274  10.712  0.3425 -1.1486 -0.3545
  203MOL0     C27290  -1.081   0.325  10.790  0.8816  0.5894  0.2132
  203MOL0     C27291  -1.181   0.361  10.682 -0.2305  0.0429 -1.4240
  203MOL0     C27292  -1.331   0.334  10.717  0.1466  0.2129 -0.8195
  203MOL0     C27293  -1.377   0.420  10.839 -0.0174 -0.4665  0.4373
  203MOL0     O27294  -1.520   0.438  10.832 -0.4176 -0.6877 -0.1957
  203MOL0     C27295  -1.565   0.569  10.799  0.4058 -0.6011  0.1144
  203MOL0     C27296  -1.490   0.671  10.749  0.2839 -0.8401  0.1484
  203MOL0     C27297  -1.537   0.799  10.718 -0.5624 -0.4910  0.0018
  203MOL0     C27298  -1.444   0.899  10.652  0.0265 -0.1687 -0.2334
  203MOL0     C27299  -1.671   0.831  10.723  0.2118  0.8753 -1.1547
  203MOL0     C27300  -1.716   0.965  10.686  0.1033 -0.2385  0.3148
  203MOL0     O27301  -1.838   0.970  10.624 -0.7254 -0.7185 -0.5305
  203MOL0     C27302  -1.893   1.089  10.600  0.7010 -0.3166 -0.5146
  203MOL0     C27303  -2.018   1.122  10.657  0.6738 -0.0405  0.0096
  203MOL0     C27304  -2.084   1.250  10.628  0.3925  0.2473 -0.0892
  203MOL0     C27305  -2.019   1.335  10.539 -0.4583 -0.4953 -0.1222
  203MOL0     O27306  -2.080   1.456  10.513 -0.5200 -0.1722  0.9787
  203MOL0     C27307  -2.002   1.561  10.449  0.6732 -0.4003 -0.6919
  203MOL0     C27308  -2.094   1.687  10.435 -0.6949  0.5953 -1.7252
  203MOL0     C27309  -2.000   1.814  10.412 -0.4903  0.4200 -0.4430
  203MOL0     C27310  -1.997   1.853  10.259  0.0949  0.5820 -1.0151
  203MOL0     C27311  -1.875   1.933  10.232  0.0697 -0.0071 -0.0334
  203MOL0     C27312  -1.854   1.991  10.090 -0.2615 -0.1397  0.4849
  203MOL0     C27313  -1.717   2.055  10.065 -0.3594  0.5910 -0.1989
  203MOL0     C27314  -1.606   1.957  10.045  0.4454 -0.3566  0.9510
  203MOL0    Cl27315  -1.637   1.847   9.901  0.0899 -0.8819  0.0082
  203MOL0     C27316  -1.902   1.301  10.474 -0.1322 -0.5051  0.4645
  203MOL0     C27317  -1.833   1.182  10.511 -0.2469 -0.8602 -0.2231
  203MOL0     O27318  -1.651   1.063  10.717 -0.7652  0.2699  0.0865
  203MOL0     C27319  -1.761   0.726  10.779  0.0917  0.5182  0.5887
  203MOL0     C27320  -1.705   0.600  10.806  0.4685  0.6544  0.7158
  203MOL0     N27321  -0.918   0.149  10.686  0.6695 -0.6782  0.6879
  203MOL0     N27322  -0.819   0.147  10.601 -0.0877 -0.2405  0.2418
  203MOL0     C27323   0.495   0.401  10.387  0.2470  0.4473  0.7667
  203MOL0     C27324   0.636   0.399  10.413  1.2786  0.1995  0.3399
  203MOL0     C27325   1.039   0.358  10.587  0.0562  0.0339 -0.5874
  203MOL0     C27326   1.085   0.477  10.647  0.1077  0.3326  0.0691
  203MOL0     C27327   1.214   0.495  10.705  0.6629  0.2101 -1.0698
  203MOL0     C27328   1.296   0.381  10.702 -0.6876  0.3149 -0.4925
  203MOL0     O27329   1.418   0.379  10.770 -0.0147 -0.1400  0.0143
  203MOL0     C27330   1.483   0.501  10.802 -0.7813 -0.0832 -0.2601
  203MOL0     C27331   1.629   0.473  10.836 -0.6145 -0.4298 -0.7189
  203MOL0     C27332   1.702   0.594  10.874  0.4419 -0.6108  0.4012
  203MOL0     C27333   1.856   0.573  10.899  0.2387 -0.0441 -0.2650
  203MOL0     C27334   1.943   0.694  10.878  0.1378  0.5329 -0.0915
  203MOL0     C27335   2.009   0.795  10.859  0.5511  0.3455 -0.0128
  203MOL0     C27336   1.257   0.263  10.640 -0.5953  0.5640 -0.4197
  203MOL0     C27337   1.130   0.253  10.585 -0.7076  0.2945 -0.1370
  203MOL0     H27338   0.624   0.538  10.723  0.1106  2.1470 -0.1831
  203MOL0     H27339   0.384   0.549  10.674  2.0944  1.2839  1.2331
  203MOL0     H27340   0.181   0.426  10.604 -1.0506 -0.7175  0.9198
  203MOL0     H27341   0.183   0.597  10.553  0.4474  0.1586 -1.6510
  203MOL0     H27342   0.036   0.535  10.366 -1.4803  0.0647 -1.4764
  203MOL0     H27343   0.039   0.366  10.429 -1.9599  0.6824  0.6783
  203MOL0     H27344  -0.070   0.438  10.646 -0.5873  0.9894 -0.0076
  203MOL0     H27345  -0.091   0.599  10.581 -1.6428 -0.1909 -0.7587
  203MOL0     H27346  -0.231   0.535  10.401 -1.3885 -0.2052  0.0706
  203MOL0     H27347  -0.171   0.372  10.427 -1.2689  1.7045 -2.3138
  203MOL0     H27348  -0.319   0.333  10.599 -0.1952 -1.7418 -3.4843
  203MOL0     H27349  -0.351   0.504  10.632  2.2931 -1.2400  2.5421
  203MOL0     H27350  -0.454   0.500  10.393  2.5560  0.2854  0.2369
  203MOL0     H27351  -0.419   0.329  10.395  0.7441  1.1685 -2.5540
  203MOL0     H27352  -0.549   0.325  10.621  1.0667  0.9846  0.9610
  203MOL0     H27353  -0.608   0.490  10.569  0.8715  0.0035  0.1897
  203MOL0     H27354  -0.658   0.241  10.410 -1.2963 -0.8100  0.5885
  203MOL0     H27355  -0.753   0.397  10.407 -0.9269  0.7732  0.7293
  203MOL0     H27356  -0.881   0.464  10.662 -0.4136 -0.9210  3.3995
  203MOL0     H27357  -1.115   0.240  10.851  2.6840  0.8003  1.6014
  203MOL0     H27358  -1.058   0.409  10.857 -0.4372 -1.0857  2.9518
  203MOL0     H27359  -1.168   0.298  10.593 -0.8763 -1.4162 -0.5103
  203MOL0     H27360  -1.176   0.470  10.675 -3.2321  0.4651  0.9836
  203MOL0     H27361  -1.355   0.235  10.756 -1.6463  0.7086 -0.5417
  203MOL0     H27362  -1.395   0.342  10.629 -0.9705  1.0885  0.0462
  203MOL0     H27363  -1.322   0.514  10.850  0.8052 -1.1717  2.8534
  203MOL0     H27364  -1.351   0.358  10.925 -0.5474  1.1114  1.7778
  203MOL0     H27365  -1.385   0.665  10.721  0.6461  0.2208  1.2197
  203MOL0     H27366  -1.486   0.931  10.556 -1.3760  0.7479  0.6548
  203MOL0     H27367  -1.419   0.983  10.717 -0.7690  1.8766 -2.3980
  203MOL0     H27368  -1.348   0.853  10.625  0.0568 -0.3484  0.1786
  203MOL0     H27369  -2.077   1.058  10.722  2.6674 -0.0497  1.9179
  203MOL0     H27370  -2.182   1.271  10.672  0.4550 -0.7161  0.5327
  203MOL0     H27371  -1.917   1.584  10.515  0.7695 -1.3707 -0.4486
  203MOL0     H27372  -1.967   1.529  10.350 -1.8669 -0.9828 -1.4544
  203MOL0     H27373  -2.165   1.675  10.352 -2.0026  1.7661 -0.8220
  203MOL0     H27374  -2.158   1.712  10.520  1.3592 -1.1940  0.4921
  203MOL0     H27375  -1.901   1.782  10.444 -1.2909 -2.1922 -0.3813
  203MOL0     H27376  -2.037   1.899  10.471 -2.2391  0.1234 -1.0330
  203MOL0     H27377  -1.988   1.758  10.205  0.5502 -0.6978  1.1818
  203MOL0     H27378  -2.089   1.905  10.230 -0.3184  0.1526 -0.5013
  203MOL0     H27379  -1.793   1.867  10.263 -0.7007 -2.1392 -2.2487
  203MOL0     H27380  -1.883   2.018  10.300  1.3296 -0.7108  1.0383
  203MOL0     H27381  -1.876   1.909  10.020  2.9284  0.7695 -1.8166
  203MOL0     H27382  -1.932   2.063  10.068  0.5687  0.7291  0.3257
  203MOL0     H27383  -1.686   2.122  10.145  0.4563 -1.7045  1.5031
  203MOL0     H27384  -1.708   2.116   9.974  1.1522 -2.1667 -2.0547
  203MOL0     H27385  -1.584   1.896  10.133  0.7760  0.4008  1.4023
  203MOL0     H27386  -1.513   2.010  10.023 -0.2409 -0.0169 -1.4463
  203MOL0     H27387  -1.862   1.354  10.388 -3.6140 -1.5380 -2.0249
  203MOL0     H27388  -1.733   1.168  10.471 -0.8335  1.0974 -2.6378
  203MOL0     H27389  -1.869   0.732  10.778  0.0669  2.2108 -2.8504
  203MOL0     H27390  -1.771   0.523  10.844 -2.2194  2.3578 -0.2583
  203MOL0     H27391   0.463   0.360  10.293 -0.1704  1.1715  0.5882
  203MOL0     H27392   0.701   0.361  10.335  0.6627  1.4599 -0.8343
  203MOL0     H27393   1.017   0.560  10.661 -1.0871 -0.8628  1.6667
  203MOL0     H27394   1.243   0.589  10.750  0.2581 -0.8078  1.4723
  203MOL0     H27395   1.466   0.574  10.722  1.1615  0.5434 -0.1465
  203MOL0     H27396   1.437   0.544  10.891  3.0682 -0.4856  2.1287
  203MOL0     H27397   1.677   0.424  10.751  0.8376  0.6878 -0.5793
  203MOL0     H27398   1.644   0.412  10.926 -0.8068  0.5586  0.0067
  203MOL0     H27399   1.662   0.634  10.967 -1.5553 -1.5212 -0.0146
  203MOL0     H27400   1.679   0.670  10.799  0.2637  1.6057  2.5799
  203MOL0     H27401   1.900   0.494  10.839  2.4819 -0.4558  1.7822
  203MOL0     H27402   1.869   0.530  10.999 -0.3528  0.4079  0.0110
  203MOL0     H27403   2.062   0.886  10.841  0.7356  0.0116 -1.2320
  203MOL0     H27404   1.318   0.174  10.628  0.9376  1.5891 -0.4958
  203MOL0     H27405   1.091   0.160  10.544  0.2287 -0.7380  1.2152
  204MOL0     O27406  10.040  10.547  11.163 -0.0447 -0.5476 -0.0667
  204MOL0     C27407   9.981  10.589  11.263 -0.2816 -0.2030 -0.0915
  204MOL0     O27408   9.843  10.586  11.283 -0.2348 -0.1718  0.6982
  204MOL0     C27409   9.771  10.563  11.169  0.0100 -0.5415  0.4199
  204MOL0     C27410   9.654  10.639  11.135  0.9092  0.4741 -0.0003
  204MOL0     C27411   9.581  10.628  11.022  0.0005 -0.4079  0.0587
  204MOL0     C27412   9.611  10.519  10.943  0.4521  0.9423 -0.7548
  204MOL0     O27413   9.533  10.518  10.825  0.3372  0.9587 -0.2511
  204MOL0     C27414   9.515  10.386  10.767  0.2929 -0.1377 -0.3031
  204MOL0     C27415   9.410  10.385  10.663  1.3864 -0.7752  0.0404
  204MOL0     C27416   9.269  10.440  10.702 -0.4053 -0.8127  0.5288
  204MOL0     C27417   9.217  10.381  10.832  0.3589  0.6740  0.3259
  204MOL0     C27418   9.191  10.233  10.834  0.6486 -0.4009 -0.5403
  204MOL0     C27419   9.067  10.205  10.749  0.0127  0.1607  0.3152
  204MOL0     C27420   9.030  10.061  10.757  0.3766  0.2174  0.0173
  204MOL0     C27421   9.007  10.002  10.893 -0.5583 -0.5227 -0.8011
  204MOL0     N27422   8.915   9.886  10.884  0.4175  0.0318  0.3868
  204MOL0     C27423   8.774   9.898  10.855 -0.7635  0.1575  0.2003
  204MOL0     C27424   8.731   9.768  10.865 -0.1377 -1.2757 -0.1754
  204MOL0     C27425   8.592   9.730  10.845 -0.2054  0.0089 -1.0474
  204MOL0     C27426   8.514   9.659  10.959 -0.5927 -0.0630  0.0672
  204MOL0     C27427   8.362   9.682  10.951  1.1632  0.9490  0.2186
  204MOL0     C27428   8.279   9.581  11.029  0.1418  0.2211  0.0544
  204MOL0     O27429   8.280   9.460  10.946 -0.3091  0.2595 -0.0754
  204MOL0     C27430   8.186   9.365  10.971 -0.4664  0.3174 -0.3541
  204MOL0     C27431   8.189   9.261  10.881 -0.1407  0.8854  0.5672
  204MOL0     C27432   8.095   9.159  10.885  0.6301  0.0368 -0.6617
  204MOL0     C27433   8.099   9.049  10.776 -0.8094 -0.2629 -0.2992
  204MOL0     C27434   7.990   9.163  10.978 -0.2062 -0.2451  0.4984
  204MOL0     C27435   7.872   9.061  10.969 -0.5065 -0.2323 -0.0855
  204MOL0     O27436   7.824   9.014  11.086  0.5663  0.0904  0.6757
  204MOL0     C27437   7.720   8.930  11.088 -0.0155  0.1895 -0.2898
  204MOL0     C27438   7.706   8.824  10.987  1.1899  0.3774 -0.2885
  204MOL0     C27439   7.592   8.739  10.981  0.0406  0.5020 -0.6871
  204MOL0     C27440   7.495   8.753  11.080  0.0698 -0.6820  0.1191
  204MOL0     O27441   7.395   8.666  11.080  0.7396  0.4731 -0.2950
  204MOL0     C27442   7.278   8.691  11.161 -0.4107  0.4753 -0.1361
  204MOL0     C27443   7.180   8.581  11.163  0.2145  0.5440  0.0932
  204MOL0     C27444   7.114   8.587  11.027 -0.3012  0.9159  0.4145
  204MOL0     C27445   7.012   8.478  11.023  0.2896  0.0925  1.2045
  204MOL0     C27446   6.983   8.449  10.882 -0.5129  0.4175  0.1722
  204MOL0     C27447   6.864   8.361  10.864  0.3030 -0.3371 -0.4623
  204MOL0     C27448   6.852   8.294  10.725  0.0383 -0.0767 -0.2066
  204MOL0     C27449   6.712   8.231  10.704  0.5901  0.6909 -0.2576
  204MOL0    Cl27450   6.696   8.113  10.823  0.0083  0.4694 -0.1626
  204MOL0     C27451   7.509   8.854  11.175  0.0387  0.1433 -0.0199
  204MOL0     C27452   7.615   8.944  11.176  0.7905 -0.2678 -1.1044
  204MOL0     O27453   7.826   9.034  10.858  0.1015  0.1549 -0.5644
  204MOL0     C27454   7.995   9.271  11.066 -0.0315  0.8280  0.6160
  204MOL0     C27455   8.094   9.363  11.070  0.4072 -0.6174 -0.0693
  204MOL0     N27456   8.838   9.684  10.895 -0.4951  0.2418 -0.6624
  204MOL0     N27457   8.942   9.755  10.907  0.4033 -0.4964  1.0760
  204MOL0     C27458   9.709  10.422  10.980  0.0907 -0.4448 -0.4762
  204MOL0     C27459   9.796  10.447  11.086 -0.6247 -0.2847 -0.2600
  204MOL0     C27460  10.069  10.620  11.374  0.4555  0.3992 -0.1700
  204MOL0     C27461  10.009  10.638  11.501  0.2243  0.6019 -0.4936
  204MOL0     C27462  10.097  10.672  11.605 -0.2343 -0.1374 -0.0648
  204MOL0     C27463  10.231  10.682  11.586 -0.3466 -0.0682 -0.2178
  204MOL0     O27464  10.307  10.723  11.698  0.2257 -0.5680 -0.2899
  204MOL0     C27465  10.278  10.857  11.747  0.1284  0.1410  0.0241
  204MOL0     C27466  10.413  10.945  11.775 -0.2051 -0.4429  0.4864
  204MOL0     C27467  10.520  10.859  11.847  0.0457  0.1501  0.0992
  204MOL0     C27468  10.646  10.950  11.878 -0.1147 -0.2086 -0.2686
  204MOL0     C27469  10.741  10.887  11.969  0.5444 -0.2189 -0.0407
  204MOL0     C27470  10.822  10.837  12.042 -0.1664 -0.3496 -0.2953
  204MOL0     C27471  10.293  10.662  11.462 -0.5903 -0.6094 -0.1571
  204MOL0     C27472  10.208  10.635  11.352 -0.5755 -0.0111 -0.0550
  204MOL0     H27473   9.626  10.727  11.192  1.0646  0.6561 -0.2023
  204MOL0     H27474   9.504  10.701  10.995 -1.4854 -1.3879  1.4487
  204MOL0     H27475   9.614  10.356  10.730  1.6102 -0.3635  3.0848
  204MOL0     H27476   9.485  10.320  10.849 -0.2459  1.7435  1.0677
  204MOL0     H27477   9.445  10.453  10.584 -2.3700  1.0673 -0.2576
  204MOL0     H27478   9.394  10.292  10.607 -0.0021 -2.4539  2.9953
  204MOL0     H27479   9.276  10.549  10.709 -0.0802 -0.5914 -2.2840
  204MOL0     H27480   9.205  10.414  10.617  0.0854  2.1314 -0.8372
  204MOL0     H27481   9.290  10.407  10.909 -2.7564 -0.1215  3.8568
  204MOL0     H27482   9.129  10.443  10.849  0.5256  0.8139  0.6939
  204MOL0     H27483   9.279  10.174  10.805  0.0782 -0.7682 -1.5930
  204MOL0     H27484   9.164  10.206  10.936 -1.8287  0.2327 -0.9616
  204MOL0     H27485   8.979  10.262  10.781  0.7142  1.1886  0.4502
  204MOL0     H27486   9.083  10.224  10.643 -0.2521 -2.2411 -0.2245
  204MOL0     H27487   8.940  10.047  10.698  0.7409 -0.5143 -0.3850
  204MOL0     H27488   9.104   9.995  10.709  0.1172 -1.2765  1.5437
  204MOL0     H27489   8.963  10.078  10.958  1.7438  0.3776 -0.2024
  204MOL0     H27490   9.103   9.987  10.942 -1.1466  0.3706  0.6859
  204MOL0     H27491   8.717   9.990  10.851  2.7288  2.5803  0.9511
  204MOL0     H27492   8.542   9.826  10.829 -3.1249 -1.5616 -2.0456
  204MOL0     H27493   8.585   9.668  10.756  0.7320 -2.4226  0.4527
  204MOL0     H27494   8.549   9.700  11.054  1.6197  1.6734 -1.4184
  204MOL0     H27495   8.542   9.554  10.950 -0.3720  0.0366 -0.4341
  204MOL0     H27496   8.325   9.695  10.849  0.7105 -1.1768  0.0691
  204MOL0     H27497   8.347   9.775  11.007  0.3909 -0.1883  1.9851
  204MOL0     H27498   8.176   9.615  11.043 -0.1368 -0.6319  0.1700
  204MOL0     H27499   8.321   9.556  11.127  0.3056  1.1677  0.2348
  204MOL0     H27500   8.257   9.276  10.798  0.3341 -1.1622  0.5325
  204MOL0     H27501   8.201   9.041  10.737  0.6169  0.4988  2.9561
  204MOL0     H27502   8.065   8.954  10.818  1.0598 -2.2246 -2.9405
  204MOL0     H27503   8.029   9.074  10.695 -0.3170  1.2419 -0.2869
  204MOL0     H27504   7.779   8.807  10.909 -0.4189  1.7008 -2.1902
  204MOL0     H27505   7.580   8.670  10.898 -0.5095 -0.5361  0.2312
  204MOL0     H27506   7.310   8.691  11.266 -1.8650  3.0603  0.3979
  204MOL0     H27507   7.231   8.788  11.143  0.3976  0.9610  0.3269
  204MOL0     H27508   7.230   8.486  11.181 -1.1413 -0.7399 -2.3149
  204MOL0     H27509   7.101   8.600  11.236 -0.5137  2.3059 -1.0708
  204MOL0     H27510   7.181   8.580  10.941 -3.0444  2.5943 -2.0616
  204MOL0     H27511   7.072   8.687  11.013  0.1627  0.8912 -1.4326
  204MOL0     H27512   7.032   8.394  11.089 -4.4139 -0.2695  2.5281
  204MOL0     H27513   6.920   8.529  11.052  0.3835  0.6300  0.5991
  204MOL0     H27514   7.071   8.413  10.827  0.3502 -0.3104  1.9402
  204MOL0     H27515   6.951   8.541  10.833 -1.1492  0.3441  0.4493
  204MOL0     H27516   6.873   8.285  10.942 -0.1100  0.8757  0.8093
  204MOL0     H27517   6.772   8.418  10.878  1.9358  2.3083  0.3582
  204MOL0     H27518   6.931   8.219  10.715 -2.0331 -2.0863 -6.5460
  204MOL0     H27519   6.875   8.361  10.643  1.9633 -2.7433 -2.0183
  204MOL0     H27520   6.688   8.186  10.608 -0.4218 -0.1907  0.3884
  204MOL0     H27521   6.634   8.306  10.720 -0.5762 -0.9394  2.3855
  204MOL0     H27522   7.438   8.882  11.252  0.2675 -0.3938  0.3942
  204MOL0     H27523   7.633   9.015  11.256  0.2140 -1.8643  0.5114
  204MOL0     H27524   7.909   9.267  11.132 -1.2862  0.4617 -0.9800
  204MOL0     H27525   8.090   9.444  11.143 -0.4432 -0.9021  0.2052
  204MOL0     H27526   9.718  10.330  10.922 -0.9145 -0.6596 -0.3167
  204MOL0     H27527   9.876  10.377  11.111 -0.9331  0.1248  2.1241
  204MOL0     H27528   9.903  10.631  11.520  0.4721 -3.0837  0.3658
  204MOL0     H27529  10.059  10.698  11.703 -2.1964 -1.5907 -0.3827
  204MOL0     H27530  10.229  10.909  11.664 -0.9728  0.8479  1.0798
  204MOL0     H27531  10.208  10.862  11.831 -1.7775  2.5496 -1.5507
  204MOL0     H27532  10.389  11.029  11.840 -0.4980 -0.1257 -0.0323
  204MOL0     H27533  10.454  10.985  11.682 -4.3541  2.5924 -0.3376
  204MOL0     H27534  10.564  10.779  11.787  2.5399  1.1805  0.4181
  204MOL0     H27535  10.480  10.818  11.940  1.7734 -1.6679  0.0942
  204MOL0     H27536  10.616  11.045  11.924 -0.3380 -0.2385 -0.3546
  204MOL0     H27537  10.696  10.955  11.780 -0.7040 -2.5277 -0.7433
  204MOL0     H27538  10.906  10.815  12.106  0.1626 -0.8003 -0.8700
  204MOL0     H27539  10.398  10.674  11.440 -0.5348 -1.7914 -0.6414
  204MOL0     H27540  10.247  10.607  11.255 -2.0259 -1.0503 -0.3669
  205MOL0     O27541   9.078   9.790   5.907  0.1030  0.6040  0.9895
  205MOL0     C27542   9.100   9.867   5.812  0.2449  0.0401 -0.4389
  205MOL0     O27543   9.003   9.920   5.730 -0.3445 -0.2655 -0.8119
  205MOL0     C27544   8.877   9.870   5.743 -1.0635  0.0594 -0.2469
  205MOL0     C27545   8.796   9.911   5.846 -0.3968  0.2726  0.6648
  205MOL0     C27546   8.655   9.883   5.845  0.2073 -0.1168 -0.0506
  205MOL0     C27547   8.601   9.806   5.739 -1.1673  0.1907 -0.7512
  205MOL0     O27548   8.468   9.749   5.739  0.0037  0.5476 -0.0419
  205MOL0     C27549   8.365   9.816   5.814 -0.9319  0.0845  0.0120
  205MOL0     C27550   8.273   9.697   5.848  0.2793 -0.0842 -0.6211
  205MOL0     C27551   8.172   9.722   5.961 -0.2536  0.3339 -0.3253
  205MOL0     C27552   8.087   9.847   5.932 -0.1365  0.2587  0.7868
  205MOL0     C27553   7.954   9.858   6.006 -0.3447 -0.1791 -0.2251
  205MOL0     C27554   7.863   9.982   5.962 -0.0721  0.0804  0.5563
  205MOL0     C27555   7.718   9.974   6.010  0.0711  0.1646  0.6207
  205MOL0     C27556   7.651  10.111   5.997  0.4143 -0.6189  0.6256
  205MOL0     N27557   7.510  10.092   6.022  0.0398  0.6703 -0.1892
  205MOL0     C27558   7.421  10.052   5.920  0.7074  0.4419 -0.8550
  205MOL0     C27559   7.302  10.067   5.977 -0.0008  0.5801 -0.1026
  205MOL0     C27560   7.169  10.062   5.911 -0.2001 -0.4154 -0.2007
  205MOL0     C27561   7.142  10.184   5.828  0.7944 -0.4131  0.3490
  205MOL0     C27562   7.006  10.186   5.764 -0.0759 -0.6156  0.6064
  205MOL0     C27563   6.999  10.288   5.645 -0.3396  0.8272  0.3169
  205MOL0     O27564   6.889  10.274   5.554  0.3629  0.3664  0.2187
  205MOL0     C27565   6.768  10.336   5.580 -0.0533 -0.6568  0.7665
  205MOL0     C27566   6.743  10.429   5.674  0.3079 -0.3143 -0.1942
  205MOL0     C27567   6.613  10.485   5.700  0.8030 -0.3910 -0.6327
  205MOL0     C27568   6.612  10.590   5.804  0.9546 -0.1240  0.0554
  205MOL0     C27569   6.500  10.436   5.630 -0.0432 -0.5382 -0.3364
  205MOL0     C27570   6.364  10.477   5.658  0.5550 -0.3194  0.2573
  205MOL0     O27571   6.268  10.400   5.601  0.2618 -0.1333 -0.0768
  205MOL0     C27572   6.146  10.452   5.575  0.4925 -0.3188  0.0945
  205MOL0     C27573   6.023  10.387   5.617 -0.5515 -0.0945  0.6467
  205MOL0     C27574   5.908  10.448   5.591  0.0881 -1.6443  0.5826
  205MOL0     C27575   5.888  10.576   5.531  0.0530  0.3383 -0.3927
  205MOL0     O27576   5.767  10.638   5.515  0.4306  0.3809  0.2331
  205MOL0     C27577   5.657  10.577   5.591  0.3419 -0.4840 -0.2957
  205MOL0     C27578   5.538  10.669   5.581  0.1969  0.3530  0.4270
  205MOL0     C27579   5.411  10.605   5.649  0.0059  0.1733 -0.1416
  205MOL0     C27580   5.346  10.710   5.729  0.4085  0.2023  0.2612
  205MOL0     C27581   5.236  10.663   5.823  0.4625 -0.1535 -0.3055
  205MOL0     C27582   5.137  10.555   5.760 -0.2084  0.3268 -0.7453
  205MOL0     C27583   5.022  10.528   5.852  0.9348  0.4258 -0.4968
  205MOL0     C27584   4.945  10.400   5.805 -0.0114 -0.2378  0.1094
  205MOL0    Cl27585   4.778  10.419   5.889  0.0610 -0.5801  0.1269
  205MOL0     C27586   6.008  10.635   5.483 -0.0971 -0.4983 -0.4606
  205MOL0     C27587   6.134  10.573   5.511 -0.0023  0.5679 -0.3705
  205MOL0     O27588   6.345  10.593   5.709  0.2259  0.3842  0.3073
  205MOL0     C27589   6.526  10.348   5.520 -1.2519 -0.4305  0.4485
  205MOL0     C27590   6.656  10.301   5.502 -0.4138 -0.2033  0.1955
  205MOL0     N27591   7.317  10.090   6.116  0.4645  0.0409  0.5364
  205MOL0     N27592   7.443  10.111   6.138 -0.0011  0.4673 -0.1579
  205MOL0     C27593   8.682   9.769   5.638  0.8604  0.0614 -1.1074
  205MOL0     C27594   8.820   9.793   5.646  0.6259 -0.1664  0.7763
  205MOL0     C27595   9.241   9.875   5.793  0.0640 -0.5457  0.2779
  205MOL0     C27596   9.338   9.818   5.878 -0.2278 -0.7875  0.0112
  205MOL0     C27597   9.477   9.831   5.839  0.2128 -0.5688 -0.2569
  205MOL0     C27598   9.511   9.894   5.719  0.6904  0.0830  0.9120
  205MOL0     O27599   9.646   9.902   5.677 -0.1532 -0.6503 -0.3148
  205MOL0     C27600   9.752   9.838   5.752  0.8761  0.0740 -0.6164
  205MOL0     C27601   9.781   9.702   5.689  0.0250 -0.0022 -0.3755
  205MOL0     C27602   9.889   9.627   5.765 -0.4487 -0.3402 -0.3272
  205MOL0     C27603   9.944   9.508   5.694 -0.0896 -0.4359  0.8493
  205MOL0     C27604   9.844   9.398   5.691 -0.1489 -0.4700 -1.4401
  205MOL0     C27605   9.777   9.302   5.696  0.4613  0.2469  0.3249
  205MOL0     C27606   9.409   9.935   5.629 -0.3859 -0.0960 -0.3901
  205MOL0     C27607   9.279   9.933   5.665 -0.0941  0.2790 -0.1212
  205MOL0     H27608   8.839   9.981   5.917  0.6240  0.7893 -0.4307
  205MOL0     H27609   8.591   9.915   5.926  2.1087  1.5625  0.8763
  205MOL0     H27610   8.399   9.846   5.914 -0.2773 -1.0741  0.1562
  205MOL0     H27611   8.323   9.895   5.751  2.2385  1.0351 -1.1028
  205MOL0     H27612   8.209   9.676   5.762 -0.5969 -0.6917  0.1555
  205MOL0     H27613   8.332   9.609   5.873  0.3144  0.2602  0.5541
  205MOL0     H27614   8.118   9.627   5.969  1.3094 -0.5032  0.9032
  205MOL0     H27615   8.224   9.739   6.056 -2.1427  5.1504  0.1535
  205MOL0     H27616   8.150   9.935   5.949 -2.6162  2.5798 -1.0676
  205MOL0     H27617   8.077   9.839   5.823  1.1337  1.5400  0.5424
  205MOL0     H27618   7.903   9.766   5.976  1.6586 -0.9576 -1.4637
  205MOL0     H27619   7.977   9.863   6.112 -4.2039  0.7812  0.7074
  205MOL0     H27620   7.910  10.072   6.002 -0.6171  0.7449 -0.2556
  205MOL0     H27621   7.871   9.980   5.853  2.1126  2.1605  0.5847
  205MOL0     H27622   7.677   9.890   5.952 -0.0983  0.5223  0.2191
  205MOL0     H27623   7.707   9.933   6.110 -0.2700 -1.1471  0.0713
  205MOL0     H27624   7.662  10.146   5.894  2.4300  2.3215  1.7446
  205MOL0     H27625   7.685  10.184   6.071 -1.1658  2.6984 -1.6832
  205MOL0     H27626   7.431  10.027   5.815 -0.4953 -0.3430 -0.8036
  205MOL0     H27627   7.165   9.962   5.868 -0.7139 -1.0056  1.1614
  205MOL0     H27628   7.093  10.077   5.988  0.0164 -0.7021  0.0738
  205MOL0     H27629   7.222  10.186   5.753 -0.2295  2.2158 -0.8059
  205MOL0     H27630   7.158  10.281   5.877  2.9455 -0.6419  0.1924
  205MOL0     H27631   6.924  10.210   5.833  2.6106  2.9045  2.9728
  205MOL0     H27632   6.996  10.086   5.721 -0.9406 -0.5668  0.6585
  205MOL0     H27633   7.093  10.280   5.589  0.4739 -1.2340  1.8593
  205MOL0     H27634   7.001  10.388   5.690  0.9096  0.7587  0.4706
  205MOL0     H27635   6.818  10.458   5.747 -3.5403  2.7576  3.0288
  205MOL0     H27636   6.698  10.592   5.871 -0.2511  2.4370  1.6956
  205MOL0     H27637   6.603  10.686   5.753 -0.1742  0.9258  2.1193
  205MOL0     H27638   6.524  10.577   5.869 -0.5975 -1.3670 -2.1499
  205MOL0     H27639   6.038  10.292   5.668  0.0431 -0.0765  0.5057
  205MOL0     H27640   5.827  10.389   5.633 -0.5910 -0.7623  0.5313
  205MOL0     H27641   5.640  10.479   5.547 -2.4845 -0.6348  0.9164
  205MOL0     H27642   5.677  10.562   5.698 -2.2721 -0.7701  0.2214
  205MOL0     H27643   5.570  10.768   5.616 -1.9338  1.8824 -1.6616
  205MOL0     H27644   5.509  10.686   5.477 -1.2093  0.7671  0.8588
  205MOL0     H27645   5.437  10.526   5.719  0.7293 -0.1984 -0.8128
  205MOL0     H27646   5.337  10.561   5.582 -1.7745  0.8885  1.2905
  205MOL0     H27647   5.431  10.757   5.779  0.2011  3.0843 -1.7968
  205MOL0     H27648   5.306  10.781   5.656  1.2630 -0.1750 -0.5931
  205MOL0     H27649   5.185  10.757   5.847 -0.3318 -0.2962 -1.3309
  205MOL0     H27650   5.288  10.618   5.908 -0.5302 -0.8308 -0.0312
  205MOL0     H27651   5.086  10.588   5.669  2.6560  1.5562 -2.0616
  205MOL0     H27652   5.201  10.468   5.741 -0.7040 -0.2204  0.0681
  205MOL0     H27653   4.956  10.614   5.862  2.3217  1.3277  1.8139
  205MOL0     H27654   5.062  10.516   5.953 -0.1949  1.0550  0.0312
  205MOL0     H27655   4.992  10.306   5.836 -1.8915 -2.0903 -2.2371
  205MOL0     H27656   4.943  10.400   5.696  2.8932  2.1408 -0.0595
  205MOL0     H27657   5.996  10.732   5.435 -2.1116 -1.3270 -1.7567
  205MOL0     H27658   6.227  10.619   5.479 -0.0007 -1.0617 -2.9605
  205MOL0     H27659   6.446  10.310   5.457  0.7773 -0.9985 -1.9546
  205MOL0     H27660   6.686  10.246   5.414  3.4311  3.4234 -1.0841
  205MOL0     H27661   8.650   9.703   5.558  1.7970 -0.7401 -0.8388
  205MOL0     H27662   8.874   9.744   5.565 -1.4411 -1.8516  0.3408
  205MOL0     H27663   9.306   9.777   5.973 -2.3884  1.1032  0.1874
  205MOL0     H27664   9.536   9.784   5.916 -0.6539  0.3914  1.0500
  205MOL0     H27665   9.835   9.906   5.732  2.3928 -2.0881 -1.9939
  205MOL0     H27666   9.731   9.829   5.859 -0.3532  0.2719 -0.8235
  205MOL0     H27667   9.818   9.717   5.588 -0.8423  0.9018 -0.5759
  205MOL0     H27668   9.687   9.647   5.685 -1.3414  2.2916 -2.1828
  205MOL0     H27669   9.853   9.581   5.858  2.7835  0.1396  1.3042
  205MOL0     H27670   9.971   9.694   5.788 -1.4191  0.3723  1.2232
  205MOL0     H27671  10.034   9.480   5.749  0.4294 -2.5487 -0.9305
  205MOL0     H27672   9.971   9.529   5.590 -0.0127  0.2320  0.9978
  205MOL0     H27673   9.714   9.215   5.694  2.0429 -0.9195 -0.9046
  205MOL0     H27674   9.445   9.971   5.533  1.6672  1.4870  0.8788
  205MOL0     H27675   9.203   9.965   5.595 -1.4204 -0.7241  0.8191
  206MOL0     O27676   9.818   4.248   1.409  0.1518 -0.0356 -0.5960
  206MOL0     C27677   9.921   4.291   1.460 -0.0374 -0.6246 -0.4971
  206MOL0     O27678   9.930   4.412   1.512 -0.0775 -0.1509 -0.3488
  206MOL0     C27679   9.804   4.468   1.542 -1.1122 -0.5061  0.4334
  206MOL0     C27680   9.703   4.407   1.615 -0.3480 -0.6002  0.3951
  206MOL0     C27681   9.589   4.473   1.648 -0.1355  0.5430  0.3943
  206MOL0     C27682   9.572   4.605   1.606  0.0107  0.3684  0.1536
  206MOL0     O27683   9.464   4.680   1.650  0.5085 -0.0398  0.2297
  206MOL0     C27684   9.337   4.619   1.616 -0.2232 -0.6325 -1.1074
  206MOL0     C27685   9.225   4.712   1.609  0.9234 -0.7475 -0.6219
  206MOL0     C27686   9.201   4.810   1.731 -0.1850 -0.6418  0.2304
  206MOL0     C27687   9.077   4.890   1.717 -0.1825  0.1572 -0.4646
  206MOL0     C27688   8.949   4.809   1.743 -0.0135 -0.4537 -0.5593
  206MOL0     C27689   8.816   4.870   1.701 -0.2518 -0.3226 -0.0088
  206MOL0     C27690   8.704   4.774   1.725  0.1223  0.1618 -0.4377
  206MOL0     C27691   8.562   4.840   1.735 -0.1815  0.8401  0.1924
  206MOL0     N27692   8.469   4.734   1.708  0.2466  0.3874  0.1328
  206MOL0     C27693   8.432   4.634   1.795 -0.4992  1.4069  0.0811
  206MOL0     C27694   8.324   4.577   1.741 -0.0937 -0.1740 -0.0167
  206MOL0     C27695   8.244   4.460   1.795  0.3081 -0.8837  0.2852
  206MOL0     C27696   8.146   4.521   1.900  0.7985  0.6701  0.6417
  206MOL0     C27697   8.021   4.449   1.940  0.7929 -0.2012  0.3786
  206MOL0     C27698   7.916   4.531   2.023 -0.2155  0.4718 -0.4489
  206MOL0     O27699   7.803   4.442   2.023  0.1762  0.1013  0.1188
  206MOL0     C27700   7.685   4.489   1.962 -1.7303 -0.7140  0.6745
  206MOL0     C27701   7.655   4.617   1.917  0.0971 -0.4642 -0.5603
  206MOL0     C27702   7.519   4.647   1.872 -0.5586  0.0566 -0.5927
  206MOL0     C27703   7.481   4.787   1.833 -0.3645 -0.5029  0.0427
  206MOL0     C27704   7.427   4.540   1.858  0.3120  0.0524  0.2452
  206MOL0     C27705   7.293   4.556   1.797  0.2238 -0.2808 -0.4986
  206MOL0     O27706   7.293   4.535   1.663 -0.2468  0.3147 -0.3724
  206MOL0     C27707   7.168   4.551   1.604 -0.4508  0.4458  0.1478
  206MOL0     C27708   7.126   4.669   1.549 -0.0682 -0.2210  0.4877
  206MOL0     C27709   7.000   4.676   1.492 -0.0911 -0.2194 -0.1971
  206MOL0     C27710   6.911   4.572   1.518 -0.1707  0.6230  0.6452
  206MOL0     O27711   6.771   4.578   1.498  0.2075 -0.7081 -0.1431
  206MOL0     C27712   6.708   4.704   1.522  0.1777 -0.2765 -0.6348
  206MOL0     C27713   6.712   4.735   1.676 -0.7476 -0.2705 -0.6610
  206MOL0     C27714   6.672   4.618   1.772 -0.4535  0.1234 -0.3094
  206MOL0     C27715   6.526   4.588   1.745 -0.1142  0.0219  0.0172
  206MOL0     C27716   6.433   4.693   1.798 -0.5916 -0.3817 -0.1973
  206MOL0     C27717   6.285   4.664   1.758  0.0158 -0.5319 -0.3657
  206MOL0     C27718   6.198   4.766   1.830  0.0774 -1.0084  0.8970
  206MOL0     C27719   6.064   4.791   1.757  0.0731  0.5850 -0.4201
  206MOL0    Cl27720   5.955   4.642   1.774  0.0851  0.0614  0.2978
  206MOL0     C27721   6.955   4.452   1.572 -0.4007 -0.7564 -0.0420
  206MOL0     C27722   7.084   4.439   1.614 -0.7226  0.0281  0.8557
  206MOL0     O27723   7.198   4.572   1.874  0.8078  0.0821 -0.2658
  206MOL0     C27724   7.458   4.415   1.900 -0.0096  0.4302 -0.5791
  206MOL0     C27725   7.584   4.400   1.950 -0.2032  0.4877 -0.3071
  206MOL0     N27726   8.303   4.630   1.619  0.2422  0.1908  0.7771
  206MOL0     N27727   8.401   4.713   1.593 -0.2083 -0.3699 -0.3456
  206MOL0     C27728   9.672   4.665   1.535  0.0265  0.0106  0.2322
  206MOL0     C27729   9.787   4.599   1.499 -0.6795 -0.0320  0.2294
  206MOL0     C27730  10.044   4.213   1.449  0.1698  0.3633  0.5883
  206MOL0     C27731  10.021   4.069   1.445 -0.3196 -1.0362  0.2995
  206MOL0     C27732  10.128   3.987   1.427 -0.7047  0.3286  0.3653
  206MOL0     C27733  10.262   4.041   1.430 -0.2003  0.3281  0.3714
  206MOL0     O27734  10.377   3.963   1.411 -0.6022  0.0891 -0.4260
  206MOL0     C27735  10.372   3.820   1.399 -0.1763 -0.2052 -1.1069
  206MOL0     C27736  10.506   3.763   1.346 -0.8313 -0.0552  0.4431
  206MOL0     C27737  10.509   3.621   1.306  0.4974  0.0124  0.5239
  206MOL0     C27738  10.491   3.600   1.156 -0.4076  0.1493 -0.1801
  206MOL0     C27739  10.463   3.463   1.121  0.1704  0.2992 -0.3908
  206MOL0     C27740  10.445   3.354   1.082 -0.1806  0.5811 -0.3093
  206MOL0     C27741  10.279   4.174   1.451  0.1464 -0.1897  0.1755
  206MOL0     C27742  10.175   4.266   1.455 -0.0901  0.1267  0.3993
  206MOL0     H27743   9.707   4.307   1.658  1.0180 -0.3867  0.8244
  206MOL0     H27744   9.530   4.411   1.715 -1.8044 -0.6626 -2.0594
  206MOL0     H27745   9.337   4.575   1.516  1.1109 -3.8932  0.2139
  206MOL0     H27746   9.318   4.535   1.683  0.4238  0.3724  0.3897
  206MOL0     H27747   9.226   4.775   1.520  4.2657  0.4395  0.1244
  206MOL0     H27748   9.137   4.647   1.604 -1.3354  1.8566  1.7498
  206MOL0     H27749   9.199   4.747   1.820  1.2354 -1.0577 -0.0087
  206MOL0     H27750   9.280   4.884   1.741 -1.0683  0.3804 -0.0898
  206MOL0     H27751   9.081   4.979   1.780 -2.7939 -0.4519  0.7058
  206MOL0     H27752   9.065   4.926   1.614 -0.8696  1.5430  0.0749
  206MOL0     H27753   8.964   4.710   1.699 -1.1230 -1.0279  0.3165
  206MOL0     H27754   8.951   4.786   1.850  0.4989 -0.4951 -0.5724
  206MOL0     H27755   8.806   4.944   1.781 -0.5233 -2.1495  1.7301
  206MOL0     H27756   8.824   4.906   1.598 -1.2592  0.2270  0.0954
  206MOL0     H27757   8.710   4.700   1.644  2.3044 -0.2439  0.0334
  206MOL0     H27758   8.736   4.719   1.814 -2.0554  0.4083  0.5784
  206MOL0     H27759   8.551   4.918   1.659  0.1591  0.2528 -0.4691
  206MOL0     H27760   8.562   4.882   1.836  3.4533  0.1818  0.6056
  206MOL0     H27761   8.481   4.605   1.888  0.4237  2.8692  0.0844
  206MOL0     H27762   8.179   4.425   1.715  0.2911  0.8063 -0.4915
  206MOL0     H27763   8.305   4.382   1.842 -0.3807 -0.1258  2.6023
  206MOL0     H27764   8.109   4.618   1.864  0.8285  1.1956  1.9626
  206MOL0     H27765   8.200   4.545   1.993  0.6060  1.2756  0.6033
  206MOL0     H27766   8.049   4.363   2.002  1.8324  1.6519  2.6375
  206MOL0     H27767   7.966   4.413   1.853  0.6852  0.6971  0.0688
  206MOL0     H27768   7.907   4.621   1.962  0.4626 -1.1319 -3.1105
  206MOL0     H27769   7.968   4.540   2.119 -0.3928  0.2318 -0.3289
  206MOL0     H27770   7.719   4.702   1.939 -0.3852 -0.8606  2.9926
  206MOL0     H27771   7.442   4.790   1.731 -0.3428  1.1232  0.0557
  206MOL0     H27772   7.404   4.806   1.909  1.5261 -1.2621  2.2769
  206MOL0     H27773   7.560   4.862   1.840  1.2990 -2.2011  0.2417
  206MOL0     H27774   7.199   4.747   1.529 -0.8467  0.2592 -0.5261
  206MOL0     H27775   6.969   4.760   1.430 -3.1824 -0.7392  0.4745
  206MOL0     H27776   6.755   4.780   1.459  0.9531 -0.7712 -0.6702
  206MOL0     H27777   6.602   4.703   1.496  0.2524 -0.2199 -0.9415
  206MOL0     H27778   6.813   4.769   1.697 -0.3841 -2.9859  2.9129
  206MOL0     H27779   6.647   4.822   1.689 -0.7172 -0.4119  0.4974
  206MOL0     H27780   6.691   4.633   1.878 -0.7922  0.8710 -0.3529
  206MOL0     H27781   6.735   4.529   1.761 -1.4260 -0.5645 -0.5273
  206MOL0     H27782   6.510   4.566   1.639 -0.2300 -0.0409  0.0484
  206MOL0     H27783   6.504   4.498   1.803 -0.4949 -0.0413 -0.2208
  206MOL0     H27784   6.456   4.789   1.751  1.4004 -0.8068 -0.1803
  206MOL0     H27785   6.441   4.699   1.906 -3.2930 -5.8379  0.6607
  206MOL0     H27786   6.273   4.674   1.649 -0.7283  1.2556 -0.1583
  206MOL0     H27787   6.272   4.561   1.791  0.1677 -0.5456 -0.3517
  206MOL0     H27788   6.252   4.861   1.821  0.5712 -1.3688 -0.0839
  206MOL0     H27789   6.171   4.734   1.931 -1.8626 -2.4963 -0.0398
  206MOL0     H27790   6.064   4.808   1.649 -1.3283 -0.1104 -0.5467
  206MOL0     H27791   6.026   4.885   1.798 -0.4920  0.9292 -1.6871
  206MOL0     H27792   6.883   4.378   1.606 -1.1724  0.5699  1.3235
  206MOL0     H27793   7.117   4.343   1.653 -0.2260 -0.7738 -1.3844
  206MOL0     H27794   7.394   4.329   1.916 -0.2674  0.9150  1.2486
  206MOL0     H27795   7.606   4.301   1.990  0.4115  1.1987  1.1826
  206MOL0     H27796   9.678   4.767   1.497 -1.3494 -0.0808 -0.3143
  206MOL0     H27797   9.858   4.637   1.427 -0.8399  1.7886  0.9912
  206MOL0     H27798   9.923   4.026   1.463 -1.1529  1.0466  1.0957
  206MOL0     H27799  10.113   3.880   1.425 -0.2240  0.2713 -0.2402
  206MOL0     H27800  10.348   3.778   1.497 -2.4961 -2.2008 -2.4497
  206MOL0     H27801  10.291   3.780   1.338 -0.2644 -1.7165 -0.0438
  206MOL0     H27802  10.582   3.786   1.421 -2.1698  0.4357  1.6940
  206MOL0     H27803  10.531   3.821   1.256  0.4717 -3.8497 -1.9024
  206MOL0     H27804  10.433   3.561   1.359  0.5368 -1.7136 -1.2585
  206MOL0     H27805  10.609   3.584   1.330  1.2379  2.1359  0.9124
  206MOL0     H27806  10.590   3.623   1.114 -1.4036  1.0401 -2.1961
  206MOL0     H27807  10.425   3.666   1.099  2.1597  1.4245 -1.8928
  206MOL0     H27808  10.447   3.253   1.047  0.0310  0.9377 -1.3633
  206MOL0     H27809  10.386   4.191   1.459  0.2418 -1.1937  1.2525
  206MOL0     H27810  10.182   4.374   1.458  0.2545  0.0867  1.4700
  207MOL0     O27811   4.742   9.349   9.171  0.0037  0.4820 -0.7988
  207MOL0     C27812   4.737   9.291   9.273  0.7932 -0.0982 -0.9061
  207MOL0     O27813   4.622   9.273   9.347  0.3717  0.8248  0.5253
  207MOL0     C27814   4.525   9.361   9.346  0.2825  0.8215 -0.6740
  207MOL0     C27815   4.391   9.307   9.344 -0.1529 -1.5614  0.5456
  207MOL0     C27816   4.283   9.394   9.334 -0.2081  0.0182  0.3858
  207MOL0     C27817   4.315   9.533   9.323 -0.4102 -0.0737 -0.2950
  207MOL0     O27818   4.216   9.629   9.323 -0.0058 -0.1464  0.1178
  207MOL0     C27819   4.095   9.607   9.250 -0.0284 -0.7694  0.1954
  207MOL0     C27820   3.982   9.709   9.280  0.0900  0.3716  0.6521
  207MOL0     C27821   3.943   9.703   9.424 -0.0088 -0.2108 -0.6345
  207MOL0     C27822   3.827   9.798   9.458  0.0555 -0.2293 -0.3104
  207MOL0     C27823   3.711   9.815   9.358  0.2947 -0.4760 -0.3679
  207MOL0     C27824   3.594   9.891   9.421  0.5407  0.1963  0.0938
  207MOL0     C27825   3.489   9.796   9.478  0.6169 -0.1270 -1.3913
  207MOL0     C27826   3.369   9.853   9.556 -0.3609 -0.2288 -0.1784
  207MOL0     N27827   3.407   9.946   9.663  0.5203  0.3107 -0.7667
  207MOL0     C27828   3.312  10.025   9.722  0.4697  0.2222 -0.3671
  207MOL0     C27829   3.368  10.070   9.840 -0.1548  0.3947 -0.4115
  207MOL0     C27830   3.314  10.175   9.937 -0.9660  0.4481 -0.4583
  207MOL0     C27831   3.266  10.295   9.861  0.0756 -0.0535  0.1067
  207MOL0     C27832   3.225  10.416   9.942 -0.4817  0.0041  0.4162
  207MOL0     C27833   3.179  10.534   9.869 -0.6674  0.4370 -0.5457
  207MOL0     O27834   3.040  10.498   9.830 -0.5431  0.1461 -0.5679
  207MOL0     C27835   2.939  10.587   9.811 -0.2143 -0.9156  0.2368
  207MOL0     C27836   2.952  10.718   9.849 -0.0551 -1.5395  0.6443
  207MOL0     C27837   2.841  10.802   9.829  0.6633 -0.8964  0.2956
  207MOL0     C27838   2.855  10.947   9.883 -0.3820  0.3283 -0.3936
  207MOL0     C27839   2.720  10.750   9.778  0.6911 -0.0801  0.8112
  207MOL0     C27840   2.595  10.832   9.750 -0.8153  0.5116  0.4205
  207MOL0     O27841   2.513  10.789   9.651  0.0471 -0.5342 -0.1467
  207MOL0     C27842   2.389  10.846   9.641 -0.2886  0.3258 -0.6006
  207MOL0     C27843   2.292  10.865   9.744  0.2436 -0.2219 -0.5331
  207MOL0     C27844   2.183  10.943   9.735  0.7046  0.0779  0.4120
  207MOL0     C27845   2.147  11.002   9.609 -0.0511 -0.1498 -0.5564
  207MOL0     O27846   2.031  11.067   9.585  0.2930 -0.1852  0.0520
  207MOL0     C27847   1.930  11.039   9.689 -0.6021 -0.0525 -0.2926
  207MOL0     C27848   1.796  11.076   9.626  0.2925 -0.0020 -0.1497
  207MOL0     C27849   1.694  11.121   9.720  0.5773  0.3791  0.7161
  207MOL0     C27850   1.554  11.137   9.658 -0.2177 -0.4892 -0.1692
  207MOL0     C27851   1.466  11.223   9.754  0.5805 -0.1988  0.3434
  207MOL0     C27852   1.330  11.258   9.683 -0.7489 -0.2459  0.0951
  207MOL0     C27853   1.243  11.137   9.653 -0.5867 -0.0714  0.3045
  207MOL0     C27854   1.098  11.182   9.631  0.2498 -0.8095  0.8646
  207MOL0    Cl27855   1.013  11.251   9.786 -0.0524  0.5163  0.0059
  207MOL0     C27856   2.238  10.981   9.504 -0.3449 -0.4992 -0.9425
  207MOL0     C27857   2.352  10.907   9.521  0.1767  0.6767  0.2259
  207MOL0     O27858   2.578  10.933   9.812  0.5547 -0.6618  0.1605
  207MOL0     C27859   2.712  10.618   9.736 -0.0038  0.5866 -0.1808
  207MOL0     C27860   2.816  10.535   9.763  0.2567 -0.4480  0.2817
  207MOL0     N27861   3.491  10.007   9.856 -0.1516  0.4356  0.3382
  207MOL0     N27862   3.515   9.939   9.746 -0.2271 -0.7982  0.1153
  207MOL0     C27863   4.441   9.580   9.322  0.2629 -0.0282  0.3023
  207MOL0     C27864   4.552   9.497   9.333  0.6036 -1.0700 -0.7737
  207MOL0     C27865   4.858   9.223   9.323 -0.8069 -1.2421  0.5030
  207MOL0     C27866   4.844   9.109   9.398 -0.0385 -0.6331  0.9578
  207MOL0     C27867   4.957   9.044   9.453 -0.2831 -0.0441  0.4492
  207MOL0     C27868   5.086   9.085   9.416 -0.0279  0.2466  0.2815
  207MOL0     O27869   5.181   9.011   9.475  0.1109 -0.1193  0.7163
  207MOL0     C27870   5.325   9.022   9.448  0.5514 -0.0632 -0.5163
  207MOL0     C27871   5.399   8.922   9.521  0.3639 -0.6520 -0.4236
  207MOL0     C27872   5.549   8.965   9.523 -0.0962  0.5553 -0.4232
  207MOL0     C27873   5.632   8.886   9.625  0.2522 -0.1192 -0.5306
  207MOL0     C27874   5.661   8.748   9.584  0.8880  0.0455  0.8568
  207MOL0     C27875   5.686   8.631   9.542 -0.9362 -0.1308  0.2344
  207MOL0     C27876   5.104   9.197   9.336 -0.5333 -0.1514 -0.4042
  207MOL0     C27877   4.992   9.263   9.288  0.2716 -0.6638  0.0956
  207MOL0     H27878   4.382   9.199   9.346 -0.9958 -1.4946  0.6986
  207MOL0     H27879   4.181   9.356   9.336 -0.0570 -0.4238 -0.0649
  207MOL0     H27880   4.117   9.623   9.144 -1.1957  2.8012  0.3518
  207MOL0     H27881   4.062   9.504   9.268  1.5540 -1.5795 -1.2536
  207MOL0     H27882   4.019   9.810   9.260  1.1086 -0.0839  0.1531
  207MOL0     H27883   3.896   9.695   9.214  0.6142  3.1903 -0.8073
  207MOL0     H27884   3.916   9.597   9.428  1.0697 -0.4591  0.9615
  207MOL0     H27885   4.028   9.724   9.489 -0.6491  2.1490 -0.4765
  207MOL0     H27886   3.792   9.758   9.554 -0.3135  3.8336  1.4985
  207MOL0     H27887   3.871   9.894   9.487 -1.0183 -0.6349  3.2356
  207MOL0     H27888   3.739   9.877   9.272  0.8156 -0.6836 -0.3505
  207MOL0     H27889   3.686   9.715   9.321 -1.3808  0.5747 -2.2680
  207MOL0     H27890   3.615   9.971   9.493 -1.9527  1.6568 -0.6674
  207MOL0     H27891   3.536   9.947   9.346 -0.4731  0.7934  1.2848
  207MOL0     H27892   3.450   9.738   9.393 -2.9817  1.5681 -1.1266
  207MOL0     H27893   3.537   9.728   9.548  2.1410  2.4138  0.1690
  207MOL0     H27894   3.317   9.766   9.596 -0.0016 -0.4903 -0.2701
  207MOL0     H27895   3.302   9.904   9.487 -0.0988  0.0330 -0.2401
  207MOL0     H27896   3.208  10.051   9.705 -0.4170  0.6328  4.2910
  207MOL0     H27897   3.238  10.124   9.997 -2.4510  0.4241 -2.2717
  207MOL0     H27898   3.392  10.212  10.003 -0.5321  3.1411 -2.3470
  207MOL0     H27899   3.182  10.259   9.802  2.1545 -0.0604 -3.1199
  207MOL0     H27900   3.341  10.324   9.787  2.1498 -1.1370  1.6858
  207MOL0     H27901   3.318  10.443   9.993  0.3572  0.1203 -1.0994
  207MOL0     H27902   3.151  10.384  10.016  2.5325 -0.7722  3.3873
  207MOL0     H27903   3.232  10.544   9.774 -0.6213  2.4012 -0.3542
  207MOL0     H27904   3.200  10.628   9.921 -1.3915  0.2579  0.0963
  207MOL0     H27905   3.042  10.750   9.900  0.7660 -0.5763 -1.3270
  207MOL0     H27906   2.957  10.979   9.906 -0.1329 -1.5638  1.5875
  207MOL0     H27907   2.821  11.021   9.811  0.9877  0.4878 -0.8908
  207MOL0     H27908   2.790  10.954   9.971 -2.0467 -1.2290 -1.4150
  207MOL0     H27909   2.320  10.829   9.842 -1.1286  1.2497  0.4367
  207MOL0     H27910   2.125  10.967   9.824  2.6107  2.2691  1.1750
  207MOL0     H27911   1.925  10.930   9.699  0.4199 -0.2643 -1.7352
  207MOL0     H27912   1.955  11.097   9.778 -1.6034  0.3268 -0.2524
  207MOL0     H27913   1.820  11.158   9.557 -3.4173 -1.5336 -3.6620
  207MOL0     H27914   1.761  10.997   9.559  0.9698 -0.1881 -0.2943
  207MOL0     H27915   1.727  11.215   9.765  1.4562  1.7751 -2.5502
  207MOL0     H27916   1.682  11.048   9.801 -0.6676 -1.1551 -0.7679
  207MOL0     H27917   1.569  11.194   9.567  0.5243 -0.1473  0.1577
  207MOL0     H27918   1.502  11.045   9.631 -0.9226  0.5263 -2.4173
  207MOL0     H27919   1.524  11.313   9.777  2.2330 -0.6478 -1.8105
  207MOL0     H27920   1.442  11.168   9.846  0.6788  0.0491  0.5179
  207MOL0     H27921   1.277  11.329   9.747 -0.6941  0.4000 -0.5619
  207MOL0     H27922   1.357  11.303   9.587  6.3076 -3.3555 -0.0254
  207MOL0     H27923   1.252  11.071   9.739  2.1995  2.8833  2.5321
  207MOL0     H27924   1.281  11.075   9.571 -0.9132 -1.9278  1.5098
  207MOL0     H27925   1.042  11.097   9.592  2.4507 -1.5383 -0.9039
  207MOL0     H27926   1.083  11.261   9.557  2.1902  1.7687  2.9991
  207MOL0     H27927   2.220  11.031   9.409 -2.2161 -1.9285 -1.3937
  207MOL0     H27928   2.424  10.914   9.439 -0.9821 -0.0782 -0.8849
  207MOL0     H27929   2.617  10.581   9.697  0.1644  0.7895 -0.7952
  207MOL0     H27930   2.819  10.427   9.759  2.9270 -0.4149 -1.3845
  207MOL0     H27931   4.453   9.688   9.318  1.5490 -0.1029  1.4510
  207MOL0     H27932   4.650   9.545   9.340 -0.0454  0.0294  2.0021
  207MOL0     H27933   4.745   9.068   9.413 -1.1828  1.8137  0.5267
  207MOL0     H27934   4.936   8.959   9.516 -0.1021 -0.5427 -0.1481
  207MOL0     H27935   5.330   9.006   9.340 -3.1285 -0.0711 -0.8259
  207MOL0     H27936   5.360   9.123   9.471  2.0457 -0.4471 -0.9939
  207MOL0     H27937   5.379   8.816   9.499  1.2339 -1.2477  1.4007
  207MOL0     H27938   5.366   8.943   9.623  0.9887  1.2759 -0.5771
  207MOL0     H27939   5.550   9.071   9.548  0.1790  0.1084  1.6682
  207MOL0     H27940   5.609   8.938   9.435 -1.5561 -3.4690 -0.3885
  207MOL0     H27941   5.580   8.886   9.722  1.5449 -0.5503  0.1793
  207MOL0     H27942   5.728   8.936   9.638  0.8626 -1.8499  2.4411
  207MOL0     H27943   5.703   8.544   9.482 -1.4386  2.1682 -3.5498
  207MOL0     H27944   5.200   9.238   9.305 -0.7234  0.4913 -0.1589
  207MOL0     H27945   5.005   9.354   9.230 -1.4514  0.6523  1.6323
  208MOL0     O27946   9.872   3.137   2.187  0.3973  0.4290  0.4936
  208MOL0     C27947   9.897   3.133   2.072 -0.6402  0.6086 -0.5434
  208MOL0     O27948   9.810   3.113   1.970 -0.0408  0.5897 -0.6877
  208MOL0     C27949   9.679   3.115   1.992 -0.9292 -0.3403 -0.1352
  208MOL0     C27950   9.594   3.027   1.925 -0.0167  1.0186  0.2864
  208MOL0     C27951   9.448   3.028   1.941 -0.2943  0.3609  0.8409
  208MOL0     C27952   9.389   3.114   2.032 -0.7385 -0.1837 -0.1796
  208MOL0     O27953   9.253   3.108   2.060 -0.1852  0.6281 -1.1197
  208MOL0     C27954   9.170   3.223   2.079 -0.1056 -0.5176  0.3450
  208MOL0     C27955   9.055   3.199   2.172 -0.4555  0.5416  0.4635
  208MOL0     C27956   8.953   3.309   2.164 -0.1907  0.1559  0.2742
  208MOL0     C27957   9.005   3.451   2.212 -0.0212  1.0055 -0.3987
  208MOL0     C27958   8.907   3.562   2.222 -0.6406 -0.1256  0.2820
  208MOL0     C27959   8.831   3.594   2.094  0.1327  0.6734  0.2992
  208MOL0     C27960   8.740   3.726   2.104  0.0579  0.1511 -0.1504
  208MOL0     C27961   8.670   3.759   1.973  0.3822 -0.0339 -0.9735
  208MOL0     N27962   8.580   3.870   2.000 -0.3645 -0.3867 -0.0605
  208MOL0     C27963   8.594   4.002   1.966 -0.2063  0.1113 -0.9078
  208MOL0     C27964   8.486   4.065   2.005  0.8731 -0.0215 -0.8738
  208MOL0     C27965   8.473   4.210   1.986  0.1625  0.5380 -0.4008
  208MOL0     C27966   8.371   4.270   2.076 -0.5431  0.7347 -0.4118
  208MOL0     C27967   8.396   4.241   2.224 -0.2160  0.9679 -0.7754
  208MOL0     C27968   8.262   4.184   2.291 -0.7526  0.7575  0.2624
  208MOL0     O27969   8.166   4.283   2.290  0.3949  0.8055  0.3224
  208MOL0     C27970   8.030   4.256   2.291 -0.7082 -0.0829 -0.5951
  208MOL0     C27971   7.968   4.135   2.272 -0.3761 -0.2123 -0.2187
  208MOL0     C27972   7.826   4.122   2.267 -0.9835  0.0169  0.3026
  208MOL0     C27973   7.771   3.980   2.242 -0.1415 -0.0015  0.7690
  208MOL0     C27974   7.747   4.231   2.299  0.2313  0.9555  0.4667
  208MOL0     C27975   7.594   4.239   2.310  0.0509 -0.1796  0.3857
  208MOL0     O27976   7.547   4.365   2.346 -0.0302  0.3415  0.1918
  208MOL0     C27977   7.417   4.389   2.354  0.2206 -0.3083  1.1162
  208MOL0     C27978   7.339   4.450   2.260  0.1855 -0.6189  0.8774
  208MOL0     C27979   7.207   4.477   2.270  0.5075  0.5620  0.3976
  208MOL0     C27980   7.145   4.453   2.390  0.6228 -0.5685  0.0317
  208MOL0     O27981   7.014   4.479   2.417 -0.5518 -0.0900  0.3653
  208MOL0     C27982   6.940   4.551   2.314 -0.3883 -0.1927 -0.6723
  208MOL0     C27983   6.795   4.576   2.360 -0.0522 -0.7162  0.1980
  208MOL0     C27984   6.718   4.654   2.251 -0.3577  0.3710  0.3313
  208MOL0     C27985   6.562   4.678   2.277  0.2149 -0.0503  0.0264
  208MOL0     C27986   6.481   4.546   2.277 -0.1969  0.4491  0.3590
  208MOL0     C27987   6.334   4.580   2.235  0.3356  0.4085  0.6442
  208MOL0     C27988   6.242   4.465   2.261 -0.6988  0.1603  0.2990
  208MOL0     C27989   6.103   4.481   2.205 -0.1276  0.0404  0.4109
  208MOL0    Cl27990   6.015   4.588   2.323  0.7461  0.2907  0.4233
  208MOL0     C27991   7.214   4.385   2.490 -0.6480 -0.6330  0.3054
  208MOL0     C27992   7.352   4.354   2.473 -0.0780 -0.2494  0.5130
  208MOL0     O27993   7.526   4.148   2.266  0.0697 -0.2229 -0.4588
  208MOL0     C27994   7.807   4.346   2.317  0.5702 -0.2331 -1.1530
  208MOL0     C27995   7.946   4.360   2.314  0.7898 -0.3720  0.3463
  208MOL0     N27996   8.390   3.979   2.055  0.6903  0.1823  0.4902
  208MOL0     N27997   8.450   3.859   2.052 -0.3509 -0.3694 -0.0639
  208MOL0     C27998   9.474   3.205   2.098 -0.0629 -0.2688 -0.1954
  208MOL0     C27999   9.613   3.209   2.076  0.1800  0.6699  0.9052
  208MOL0     C28000  10.036   3.159   2.027 -0.5184 -0.3979 -0.2191
  208MOL0     C28001  10.061   3.143   1.892  0.4640  0.3578  0.3112
  208MOL0     C28002  10.188   3.160   1.838  0.2312  0.8365 -0.5717
  208MOL0     C28003  10.294   3.196   1.916 -0.2340  0.1208  0.9958
  208MOL0     O28004  10.423   3.179   1.857  0.1551 -0.4383 -0.4694
  208MOL0     C28005  10.531   3.247   1.923 -0.0079 -0.6491  0.3630
  208MOL0     C28006  10.647   3.243   1.819 -0.0891  0.6620  0.2819
  208MOL0     C28007  10.780   3.284   1.892 -0.6644 -0.3464  0.5524
  208MOL0     C28008  10.905   3.247   1.811 -0.4906  0.5701  0.3512
  208MOL0     C28009  10.898   3.299   1.674  0.3442  0.6472  0.2852
  208MOL0     C28010  10.920   3.349   1.563 -0.1672 -1.0968 -0.4469
  208MOL0     C28011  10.270   3.217   2.056 -0.6208 -0.3843  1.1620
  208MOL0     C28012  10.143   3.195   2.111  0.3771  0.6659 -0.6072
  208MOL0     H28013   9.633   2.958   1.851 -2.1416  0.7946 -0.6809
  208MOL0     H28014   9.393   2.950   1.890  2.0722 -0.3922 -0.7831
  208MOL0     H28015   9.233   3.306   2.114 -0.0866 -1.1739  1.9817
  208MOL0     H28016   9.126   3.248   1.982  1.6056  0.1480 -0.2977
  208MOL0     H28017   9.000   3.109   2.145  0.8296  0.0178 -0.5505
  208MOL0     H28018   9.093   3.186   2.274 -0.6756 -1.9170  0.2936
  208MOL0     H28019   8.925   3.331   2.061 -1.5790  0.8871  0.7833
  208MOL0     H28020   8.863   3.273   2.216  0.8669  0.2804  2.2923
  208MOL0     H28021   9.047   3.436   2.312 -3.4300 -1.3149  0.8489
  208MOL0     H28022   9.083   3.477   2.140 -0.7478  0.9762 -1.2133
  208MOL0     H28023   8.832   3.552   2.300 -0.6636 -0.2318  0.2457
  208MOL0     H28024   8.970   3.649   2.244 -0.2274 -1.1009  3.4952
  208MOL0     H28025   8.903   3.607   2.013 -1.3132 -1.5545 -1.4784
  208MOL0     H28026   8.782   3.500   2.066  0.1496  0.4508  1.0029
  208MOL0     H28027   8.670   3.717   2.187  1.9116  0.9495  1.5873
  208MOL0     H28028   8.802   3.810   2.138  1.4839 -0.4950 -1.0265
  208MOL0     H28029   8.616   3.670   1.940 -1.8153  1.1783 -0.8053
  208MOL0     H28030   8.735   3.795   1.892 -0.0240  2.3807 -0.2757
  208MOL0     H28031   8.685   4.048   1.931  0.0945 -1.6244 -2.5464
  208MOL0     H28032   8.565   4.262   2.014 -0.4633  1.7210 -0.4852
  208MOL0     H28033   8.459   4.213   1.878 -1.6229 -0.5538 -0.2391
  208MOL0     H28034   8.280   4.220   2.041  0.6429 -0.1534 -2.4414
  208MOL0     H28035   8.369   4.379   2.075  2.4057  0.8673 -0.0398
  208MOL0     H28036   8.416   4.331   2.283 -0.9153 -1.4347  3.5418
  208MOL0     H28037   8.475   4.168   2.242 -1.3853  0.3079  2.3651
  208MOL0     H28038   8.286   4.152   2.392  1.3283  0.4454 -0.2817
  208MOL0     H28039   8.232   4.092   2.239  0.9384  0.0257  0.5167
  208MOL0     H28040   8.023   4.047   2.240  0.1656  0.6024 -1.6224
  208MOL0     H28041   7.849   3.904   2.244  0.8639  0.6309 -3.7844
  208MOL0     H28042   7.682   3.964   2.305  0.0974 -2.1915  0.5931
  208MOL0     H28043   7.734   3.978   2.139  2.9186 -0.9321 -0.4313
  208MOL0     H28044   7.387   4.471   2.165  1.6926 -1.0523  1.5155
  208MOL0     H28045   7.153   4.515   2.184 -0.3853 -2.9466 -0.7459
  208MOL0     H28046   6.987   4.644   2.281 -0.2404 -1.1489 -3.3494
  208MOL0     H28047   6.927   4.490   2.224 -0.3720 -1.8780  0.4239
  208MOL0     H28048   6.740   4.482   2.366  0.2653 -1.1289 -2.2600
  208MOL0     H28049   6.791   4.625   2.458 -2.0382 -0.3777 -0.0192
  208MOL0     H28050   6.727   4.610   2.151  2.0923  0.7352  0.3381
  208MOL0     H28051   6.768   4.751   2.241  0.3586  0.1564  1.5333
  208MOL0     H28052   6.551   4.723   2.375  1.5048  2.0339 -0.7262
  208MOL0     H28053   6.522   4.743   2.198  2.7687 -0.1436 -1.4668
  208MOL0     H28054   6.478   4.500   2.376 -2.5590  0.3453  0.2842
  208MOL0     H28055   6.516   4.475   2.200  0.2821  1.3464 -0.2781
  208MOL0     H28056   6.296   4.658   2.302 -3.0389 -1.7624  1.5352
  208MOL0     H28057   6.324   4.612   2.131  0.5336 -3.8216 -0.8837
  208MOL0     H28058   6.227   4.464   2.369  0.2540  1.4860  0.4614
  208MOL0     H28059   6.293   4.374   2.228  1.2529  0.9239  1.1111
  208MOL0     H28060   6.059   4.381   2.203  1.3917 -0.6908 -1.8642
  208MOL0     H28061   6.103   4.538   2.111 -0.0573  1.7741  1.4343
  208MOL0     H28062   7.164   4.355   2.582  0.9245  1.1274  1.8182
  208MOL0     H28063   7.403   4.308   2.557  1.7555  2.3279  0.9323
  208MOL0     H28064   7.762   4.442   2.337  3.7670  1.2987 -0.8866
  208MOL0     H28065   7.982   4.454   2.354  1.6042 -1.3601  2.0027
  208MOL0     H28066   9.427   3.268   2.172 -2.2458 -0.7481 -1.0827
  208MOL0     H28067   9.666   3.281   2.137  0.7736 -0.5378  1.8753
  208MOL0     H28068   9.989   3.134   1.811  0.0027  1.6686  0.5517
  208MOL0     H28069  10.208   3.124   1.737  1.4803  1.8975 -0.7289
  208MOL0     H28070  10.500   3.351   1.934 -1.2881 -1.0747  0.9798
  208MOL0     H28071  10.557   3.203   2.020 -2.0488 -0.0465  1.2224
  208MOL0     H28072  10.620   3.300   1.730 -0.3998 -0.7585 -0.5616
  208MOL0     H28073  10.650   3.143   1.774 -0.4294  1.2156 -1.0080
  208MOL0     H28074  10.783   3.241   1.993  2.1643  1.4336  1.3165
  208MOL0     H28075  10.780   3.392   1.908 -0.1751 -0.2766  0.0989
  208MOL0     H28076  10.934   3.142   1.808 -0.5963  0.5381  0.4408
  208MOL0     H28077  10.991   3.287   1.867  0.0169 -0.4082  0.2989
  208MOL0     H28078  10.938   3.378   1.461  2.2156  1.9770  0.6845
  208MOL0     H28079  10.355   3.261   2.107  0.7927  0.8505 -2.0123
  208MOL0     H28080  10.121   3.210   2.216  1.5972 -0.6467 -0.1147
  209MOL0     O28081   7.497   5.252   7.780 -0.0305 -0.2804 -0.5697
  209MOL0     C28082   7.557   5.159   7.816  0.6377 -0.4775  0.2703
  209MOL0     O28083   7.509   5.035   7.838  0.5946 -0.8288  0.5637
  209MOL0     C28084   7.374   5.002   7.818  0.0074 -0.2827 -0.4604
  209MOL0     C28085   7.312   4.920   7.917  0.0073 -0.6374  0.9225
  209MOL0     C28086   7.175   4.883   7.902  0.4608  0.5487  0.5176
  209MOL0     C28087   7.099   4.928   7.799  0.3862 -0.4475 -0.1644
  209MOL0     O28088   6.971   4.888   7.794 -0.1316 -0.2016  0.3678
  209MOL0     C28089   6.893   4.917   7.682  0.1259  0.1380 -0.3417
  209MOL0     C28090   6.747   4.865   7.701  0.2972  0.2093  0.1879
  209MOL0     C28091   6.742   4.710   7.691  0.0007 -0.0899 -0.4908
  209MOL0     C28092   6.600   4.673   7.734 -0.2713 -0.0273  0.7763
  209MOL0     C28093   6.594   4.520   7.750 -0.7251  0.2143 -0.2262
  209MOL0     C28094   6.447   4.469   7.748  0.1291  0.6103 -0.2139
  209MOL0     C28095   6.398   4.458   7.597  0.5620 -0.2126  0.4862
  209MOL0     C28096   6.459   4.339   7.522  0.7145  0.0587 -0.3314
  209MOL0     N28097   6.444   4.354   7.382  0.3495 -0.1150  0.2791
  209MOL0     C28098   6.322   4.354   7.317  0.8501 -0.2447  0.0038
  209MOL0     C28099   6.348   4.407   7.191 -0.6121  0.5515 -0.3477
  209MOL0     C28100   6.250   4.424   7.080  0.0090  0.0591 -0.3935
  209MOL0     C28101   6.177   4.300   7.021 -0.1638  0.2077 -0.4767
  209MOL0     C28102   6.054   4.346   6.936 -0.4394  0.0799  0.0347
  209MOL0     C28103   5.939   4.393   7.035  0.3783  0.7425  0.0944
  209MOL0     O28104   5.807   4.380   6.966  0.1736 -0.3336 -0.4176
  209MOL0     C28105   5.701   4.397   7.058  0.1010  0.9024  0.4080
  209MOL0     C28106   5.704   4.427   7.194 -0.2260 -0.2477 -0.4302
  209MOL0     C28107   5.589   4.439   7.269 -0.3045  0.2225 -0.8565
  209MOL0     C28108   5.615   4.488   7.408  0.6093  0.5277  0.7995
  209MOL0     C28109   5.461   4.398   7.219  0.0384 -0.4565 -0.1182
  209MOL0     C28110   5.331   4.402   7.285  0.4256 -0.3153 -0.7829
  209MOL0     O28111   5.335   4.461   7.406  1.3933  0.6248  0.1737
  209MOL0     C28112   5.218   4.488   7.480  0.5940 -0.3891  1.4629
  209MOL0     C28113   5.107   4.575   7.437 -0.0170  1.0086 -0.4760
  209MOL0     C28114   4.992   4.590   7.522 -0.2215 -0.1080 -0.7899
  209MOL0     C28115   4.995   4.538   7.649  1.0310  0.0886  0.4539
  209MOL0     O28116   4.883   4.567   7.724  0.2679  0.4008 -0.4165
  209MOL0     C28117   4.850   4.466   7.816  0.4994  0.4021 -0.2868
  209MOL0     C28118   4.703   4.469   7.848  0.3104 -0.7178 -0.7430
  209MOL0     C28119   4.623   4.430   7.730  0.6155  0.5643  1.1801
  209MOL0     C28120   4.478   4.415   7.757  0.2310  0.3984 -0.4026
  209MOL0     C28121   4.405   4.411   7.628 -0.2178 -0.0076  0.1108
  209MOL0     C28122   4.270   4.343   7.648 -0.0513  0.5212  0.0984
  209MOL0     C28123   4.185   4.397   7.764 -0.5177  0.4273 -0.2109
  209MOL0     C28124   4.048   4.338   7.759 -0.6261 -0.0013 -0.0296
  209MOL0    Cl28125   3.946   4.429   7.870 -0.0688 -0.1724 -0.2382
  209MOL0     C28126   5.108   4.471   7.695 -0.5160 -0.3531  0.3352
  209MOL0     C28127   5.218   4.453   7.612  0.6948 -0.4680 -0.5498
  209MOL0     O28128   5.231   4.343   7.244 -0.8970  0.0288  0.0440
  209MOL0     C28129   5.454   4.367   7.080  0.2139  0.3136  0.4856
  209MOL0     C28130   5.579   4.358   7.012 -0.4646  1.3492  0.1989
  209MOL0     N28131   6.484   4.437   7.189 -0.1129 -0.5357 -0.8053
  209MOL0     N28132   6.533   4.417   7.308 -0.1930 -0.1521 -0.6033
  209MOL0     C28133   7.161   5.012   7.696  0.5345  0.5199 -1.1979
  209MOL0     C28134   7.295   5.050   7.712 -1.4190 -1.0301  0.3071
  209MOL0     C28135   7.699   5.174   7.858 -0.1524  0.1599 -0.6246
  209MOL0     C28136   7.763   5.292   7.832  0.0108  0.3091 -1.1227
  209MOL0     C28137   7.901   5.302   7.854 -0.5879  0.4749 -0.0356
  209MOL0     C28138   7.969   5.196   7.906  0.1307  0.0516  0.6955
  209MOL0     O28139   8.100   5.202   7.920 -0.4308  0.1048 -0.4991
  209MOL0     C28140   8.181   5.249   7.813 -0.1654  0.0177  0.6613
  209MOL0     C28141   8.244   5.383   7.848  0.0520  0.1420  0.8685
  209MOL0     C28142   8.372   5.364   7.920 -0.7105 -0.7246  0.2740
  209MOL0     C28143   8.428   5.494   7.984 -0.5481 -0.1428 -0.1984
  209MOL0     C28144   8.509   5.574   7.884  0.8871 -0.1191 -0.4668
  209MOL0     C28145   8.574   5.633   7.805 -0.1524 -0.0045 -0.5971
  209MOL0     C28146   7.906   5.079   7.937 -0.7093  0.1750  0.4539
  209MOL0     C28147   7.772   5.063   7.917  0.1846  0.1990  0.1513
  209MOL0     H28148   7.371   4.885   8.002  1.3584 -0.9640 -0.1207
  209MOL0     H28149   7.134   4.815   7.976  0.6507 -1.9735 -1.5360
  209MOL0     H28150   6.891   5.025   7.667 -0.5635 -0.0346 -1.7208
  209MOL0     H28151   6.938   4.874   7.592  2.8549  0.0809  0.9528
  209MOL0     H28152   6.706   4.893   7.798  0.0926 -2.3519  0.9270
  209MOL0     H28153   6.679   4.904   7.625  0.4861 -2.5706 -1.5513
  209MOL0     H28154   6.754   4.696   7.583 -0.4120  3.0599 -1.0543
  209MOL0     H28155   6.822   4.664   7.749  0.9845 -0.4223 -2.0688
  209MOL0     H28156   6.567   4.733   7.819 -1.0403  1.6139 -0.6324
  209MOL0     H28157   6.533   4.708   7.656 -0.1073 -1.4247 -0.0338
  209MOL0     H28158   6.650   4.463   7.674  0.5129 -1.0758  1.5694
  209MOL0     H28159   6.644   4.497   7.844  1.7747  0.0448 -1.5112
  209MOL0     H28160   6.445   4.371   7.796  1.4579  0.5461 -0.2387
  209MOL0     H28161   6.380   4.536   7.801 -1.7541 -0.3248 -1.2867
  209MOL0     H28162   6.289   4.455   7.585  0.7066  2.1920 -2.4889
  209MOL0     H28163   6.423   4.551   7.547 -3.4336  1.2286  0.8539
  209MOL0     H28164   6.401   4.254   7.561 -2.2721  1.1700 -2.0033
  209MOL0     H28165   6.565   4.325   7.543  0.8798 -0.5557 -1.4892
  209MOL0     H28166   6.222   4.333   7.355  0.7851  0.7761  0.4281
  209MOL0     H28167   6.168   4.478   7.128 -1.2491 -2.9059  1.0246
  209MOL0     H28168   6.291   4.486   6.999 -2.8637 -0.0313 -2.0338
  209MOL0     H28169   6.158   4.227   7.101  0.4284 -1.4718 -1.7955
  209MOL0     H28170   6.236   4.235   6.954  0.2211 -0.0973  0.1475
  209MOL0     H28171   6.019   4.259   6.881 -0.4551 -0.3529  0.7126
  209MOL0     H28172   6.066   4.432   6.870 -3.3706 -0.9880 -2.1053
  209MOL0     H28173   5.952   4.493   7.077 -0.8742  0.2564  1.7807
  209MOL0     H28174   5.941   4.324   7.121 -1.7058  0.3721 -0.1052
  209MOL0     H28175   5.798   4.440   7.246 -0.6610 -0.7643  0.5055
  209MOL0     H28176   5.551   4.577   7.419 -1.5429 -0.3673 -2.7885
  209MOL0     H28177   5.576   4.417   7.482 -0.6241 -0.5785 -0.8475
  209MOL0     H28178   5.720   4.510   7.425  0.4194  1.6658  0.5875
  209MOL0     H28179   5.092   4.618   7.339 -3.3923 -2.5849 -1.7935
  209MOL0     H28180   4.917   4.665   7.498 -2.8444 -1.5090  2.2959
  209MOL0     H28181   4.875   4.365   7.784 -0.0836  0.7423 -1.9194
  209MOL0     H28182   4.905   4.481   7.910  0.3742  0.8596 -0.2848
  209MOL0     H28183   4.681   4.391   7.921 -0.2619 -1.4009 -1.6197
  209MOL0     H28184   4.671   4.564   7.890  0.0036 -1.1378 -0.0046
  209MOL0     H28185   4.667   4.339   7.687 -1.0064 -0.3153  1.2954
  209MOL0     H28186   4.635   4.508   7.654 -1.1641 -0.3742 -0.1480
  209MOL0     H28187   4.452   4.328   7.818 -1.1290 -0.6135 -2.3112
  209MOL0     H28188   4.453   4.507   7.811  0.7183  1.9603 -2.6934
  209MOL0     H28189   4.462   4.361   7.548 -0.6123 -2.4876  1.2913
  209MOL0     H28190   4.397   4.511   7.585  2.3641  0.1413 -0.2012
  209MOL0     H28191   4.221   4.363   7.552  0.5934  2.1881  0.0847
  209MOL0     H28192   4.274   4.235   7.665 -0.8653  0.5540  0.5968
  209MOL0     H28193   4.160   4.503   7.751  0.9259  0.8796  0.4550
  209MOL0     H28194   4.226   4.378   7.864 -0.7815 -2.0696 -0.5336
  209MOL0     H28195   4.036   4.231   7.778 -1.1016  0.1003  0.2695
  209MOL0     H28196   4.020   4.352   7.654 -0.0899 -0.2475 -0.2059
  209MOL0     H28197   5.117   4.435   7.797 -0.9704 -0.5516  0.3060
  209MOL0     H28198   5.307   4.410   7.656  0.0107 -0.3262  1.0779
  209MOL0     H28199   5.361   4.332   7.038  1.1740 -2.2774  0.3249
  209MOL0     H28200   5.578   4.312   6.914  0.9358 -1.0273  1.2055
  209MOL0     H28201   7.104   5.038   7.608  2.6051 -0.1597 -2.8270
  209MOL0     H28202   7.340   5.112   7.635  0.4343 -2.4744  0.1570
  209MOL0     H28203   7.714   5.380   7.793  2.3865  1.7634 -0.9840
  209MOL0     H28204   7.953   5.398   7.855  2.3834 -0.8759  4.2979
  209MOL0     H28205   8.253   5.171   7.787 -0.0341  0.5386 -0.6201
  209MOL0     H28206   8.125   5.267   7.721 -1.1162  2.3762  1.6145
  209MOL0     H28207   8.167   5.438   7.901  0.0162  2.3492 -1.2907
  209MOL0     H28208   8.253   5.444   7.758  0.4293  0.6442  1.2366
  209MOL0     H28209   8.452   5.327   7.855 -0.7252  1.4105 -1.0445
  209MOL0     H28210   8.359   5.281   7.989  1.4535 -2.4611 -1.2538
  209MOL0     H28211   8.482   5.470   8.075 -2.1372  0.5824  0.9896
  209MOL0     H28212   8.345   5.557   8.017  0.2399  0.7270  0.1715
  209MOL0     H28213   8.638   5.666   7.727  1.5204  0.1358  0.7850
  209MOL0     H28214   7.978   5.008   7.979 -1.6294 -0.4395  1.0222
  209MOL0     H28215   7.714   4.973   7.935  0.0038  0.4202  0.7103
  210MOL0     O28216  10.999  10.064   4.075  0.5648 -0.2560  0.8067
  210MOL0     C28217  11.054  10.115   3.970 -0.2767  0.0921 -0.3244
  210MOL0     O28218  10.986  10.154   3.857 -0.8398  1.0032  0.2404
  210MOL0     C28219  10.856  10.133   3.833 -0.1592 -0.5467  0.4622
  210MOL0     C28220  10.804  10.198   3.723 -0.2524  0.1533  0.1194
  210MOL0     C28221  10.667  10.208   3.692  0.7762 -0.1739  0.1797
  210MOL0     C28222  10.581  10.120   3.757 -0.3333 -0.4217 -0.6465
  210MOL0     O28223  10.458  10.110   3.720 -0.0581  0.5522  0.0119
  210MOL0     C28224  10.362  10.191   3.791 -0.5652  0.2655  0.0986
  210MOL0     C28225  10.275  10.247   3.678  0.0721  1.2866  1.2396
  210MOL0     C28226  10.173  10.342   3.735 -0.0479  0.4565  0.9564
  210MOL0     C28227  10.055  10.283   3.830  0.4133 -0.2397  0.9765
  210MOL0     C28228   9.931  10.226   3.759  0.0840 -0.0017 -0.5591
  210MOL0     C28229   9.838  10.154   3.847  0.6876  0.3873 -1.0268
  210MOL0     C28230   9.728  10.079   3.772  0.2917 -0.4578 -0.7431
  210MOL0     C28231   9.660   9.973   3.863 -0.1985  0.2515  0.2506
  210MOL0     N28232   9.547   9.907   3.797 -0.3942  0.8342  0.0008
  210MOL0     C28233   9.415   9.906   3.818  0.2215  1.0332 -0.0942
  210MOL0     C28234   9.359   9.821   3.734  0.0236 -0.6530 -0.0128
  210MOL0     C28235   9.208   9.803   3.731 -0.3278 -0.1256  0.0299
  210MOL0     C28236   9.175   9.656   3.703  0.0468 -0.7987  0.1424
  210MOL0     C28237   9.027   9.641   3.683  0.2393  0.3086 -0.3218
  210MOL0     C28238   8.968   9.730   3.579 -0.6086  0.2324  0.9543
  210MOL0     O28239   8.853   9.665   3.526  0.1176  0.3397  0.2375
  210MOL0     C28240   8.769   9.729   3.443 -0.7969  0.0977 -1.0075
  210MOL0     C28241   8.771   9.864   3.408  1.1820  0.9450  0.2881
  210MOL0     C28242   8.677   9.910   3.314 -0.9582 -0.7122  0.4269
  210MOL0     C28243   8.681  10.055   3.302  0.0203 -0.7635 -0.3109
  210MOL0     C28244   8.578   9.829   3.254 -0.4739  0.6434 -0.0140
  210MOL0     C28245   8.483   9.871   3.152  0.6292 -0.4044 -0.3705
  210MOL0     O28246   8.455   9.778   3.057  0.5277  0.1951 -1.0714
  210MOL0     C28247   8.321   9.766   3.026  0.7711  0.4733  0.0342
  210MOL0     C28248   8.208   9.801   3.098  0.4247  0.1180 -1.7414
  210MOL0     C28249   8.078   9.790   3.050 -0.9780  0.2100  0.3644
  210MOL0     C28250   8.059   9.737   2.924  0.3886  0.2747  0.9376
  210MOL0     O28251   7.934   9.725   2.853 -0.5998  0.9951  0.1011
  210MOL0     C28252   7.811   9.771   2.900 -0.2755  0.1377  0.2046
  210MOL0     C28253   7.708   9.716   2.813 -0.2157  0.0544 -0.1793
  210MOL0     C28254   7.576   9.791   2.823 -0.2892  0.3799  0.0437
  210MOL0     C28255   7.472   9.717   2.733 -0.2140  0.2764  0.0997
  210MOL0     C28256   7.329   9.746   2.787 -0.3761 -0.0986 -0.0430
  210MOL0     C28257   7.239   9.631   2.751  0.2068 -0.3401  0.7147
  210MOL0     C28258   7.095   9.675   2.776  0.9999  0.4139 -0.6286
  210MOL0     C28259   7.055   9.683   2.926  0.0304 -0.1920 -0.5690
  210MOL0    Cl28260   6.903   9.770   2.938 -0.7108  0.4056 -0.5452
  210MOL0     C28261   8.166   9.692   2.856 -0.5482  1.2011  0.7436
  210MOL0     C28262   8.298   9.719   2.894 -0.0343 -0.2046 -0.1572
  210MOL0     O28263   8.441   9.989   3.150 -0.2475 -0.9442 -0.4186
  210MOL0     C28264   8.590   9.688   3.295 -0.3050 -0.6098  0.2190
  210MOL0     C28265   8.683   9.643   3.384  0.7577 -0.0249  0.2047
  210MOL0     N28266   9.461   9.755   3.664 -0.6028  0.4657 -0.4406
  210MOL0     N28267   9.567   9.815   3.697 -1.0509  0.4043  0.3010
  210MOL0     C28268  10.627  10.040   3.862 -0.8584 -0.0828 -0.2591
  210MOL0     C28269  10.765  10.041   3.901 -0.2001 -0.2974  0.7947
  210MOL0     C28270  11.204  10.102   3.959  0.1268 -0.1961 -0.7107
  210MOL0     C28271  11.277  10.105   4.078 -0.3125  0.0671  0.2624
  210MOL0     C28272  11.414  10.078   4.067  0.2521 -0.9188 -0.5626
  210MOL0     C28273  11.473  10.057   3.946 -0.8484  0.1562  0.0482
  210MOL0     O28274  11.611  10.037   3.925  0.0063 -0.2545 -0.1160
  210MOL0     C28275  11.679   9.965   4.035  0.5841 -0.0897 -1.3091
  210MOL0     C28276  11.815   9.915   3.996  0.0046 -0.0612  0.3809
  210MOL0     C28277  11.809   9.823   3.877  0.2813 -0.9232  0.1863
  210MOL0     C28278  11.943   9.755   3.839  0.2004 -0.1102  0.8802
  210MOL0     C28279  12.035   9.845   3.770 -0.2590 -0.0943 -0.0524
  210MOL0     C28280  12.129   9.912   3.722 -0.2051  0.5090 -0.4262
  210MOL0     C28281  11.398  10.057   3.824  0.3565  0.1776 -0.7068
  210MOL0     C28282  11.259  10.080   3.838 -0.3986 -0.0634  0.6624
  210MOL0     H28283  10.864  10.256   3.654  0.2176 -0.7637 -0.2559
  210MOL0     H28284  10.633  10.266   3.607  0.3399 -0.2717  0.2857
  210MOL0     H28285  10.311  10.143   3.875  1.0183  0.0618  0.9730
  210MOL0     H28286  10.416  10.275   3.834 -0.8411  0.5666 -0.1381
  210MOL0     H28287  10.340  10.309   3.617 -0.6153  1.9347  1.1494
  210MOL0     H28288  10.231  10.163   3.623  2.0641  1.3197 -0.5183
  210MOL0     H28289  10.226  10.423   3.786  1.6182 -1.2929  2.1404
  210MOL0     H28290  10.125  10.390   3.649 -1.4125 -0.4841  1.1596
  210MOL0     H28291  10.084  10.219   3.914 -3.3374 -0.4724  2.2996
  210MOL0     H28292  10.015  10.370   3.883 -0.4553  1.4197 -2.1655
  210MOL0     H28293   9.883  10.310   3.708 -0.7489 -0.8967 -1.2709
  210MOL0     H28294   9.962  10.145   3.692  1.2232 -1.2133  1.3356
  210MOL0     H28295   9.891  10.081   3.909  1.3804 -0.0213 -2.0852
  210MOL0     H28296   9.788  10.218   3.920  1.3188  1.3153 -1.3906
  210MOL0     H28297   9.660  10.151   3.726  1.3959  2.0163  1.2035
  210MOL0     H28298   9.776  10.030   3.687 -0.5129 -5.4785  1.3547
  210MOL0     H28299   9.619  10.017   3.954 -1.8940  2.0298 -1.2752
  210MOL0     H28300   9.741   9.903   3.888 -0.5457 -0.0797  0.4506
  210MOL0     H28301   9.364   9.961   3.897  2.1622  1.6775  0.7609
  210MOL0     H28302   9.172   9.832   3.830  1.7482  0.9601  0.5367
  210MOL0     H28303   9.166   9.873   3.659 -1.3657  0.1796  0.9016
  210MOL0     H28304   9.215   9.598   3.787  4.0086  0.2275 -0.7893
  210MOL0     H28305   9.233   9.628   3.614 -0.1472  0.3247 -0.3636
  210MOL0     H28306   8.981   9.665   3.779  0.2225  3.4485 -1.0227
  210MOL0     H28307   9.019   9.535   3.656  0.1219 -0.1845  1.4606
  210MOL0     H28308   9.037   9.746   3.496 -2.2453 -1.2844 -0.7950
  210MOL0     H28309   8.941   9.824   3.627 -0.9928 -0.3735  1.9534
  210MOL0     H28310   8.842   9.929   3.458  0.5150  0.9068  1.3088
  210MOL0     H28311   8.780  10.098   3.318  0.6502 -1.0502 -2.9381
  210MOL0     H28312   8.663  10.077   3.196 -1.5337  0.6671  0.1897
  210MOL0     H28313   8.604  10.110   3.357 -0.7492 -0.6472 -1.4649
  210MOL0     H28314   8.219   9.835   3.201  1.6953 -1.8980 -1.1519
  210MOL0     H28315   7.985   9.819   3.099 -0.1963  0.0680  1.9986
  210MOL0     H28316   7.798   9.753   3.007  0.8444  0.4277  0.4087
  210MOL0     H28317   7.811   9.877   2.872  0.7822  0.3093  0.7901
  210MOL0     H28318   7.732   9.729   2.707 -3.4552 -1.2042 -1.1910
  210MOL0     H28319   7.692   9.609   2.826 -0.1285  0.2078  1.3160
  210MOL0     H28320   7.579   9.892   2.783  0.0198  0.3781  0.0587
  210MOL0     H28321   7.543   9.805   2.927 -1.1595  1.7062 -0.3918
  210MOL0     H28322   7.484   9.747   2.629  0.4532 -1.6417 -0.4192
  210MOL0     H28323   7.497   9.611   2.724  2.4648  0.8198  0.3053
  210MOL0     H28324   7.288   9.842   2.754 -1.3024 -0.7293 -0.7855
  210MOL0     H28325   7.335   9.743   2.896  1.1691  1.7535 -0.0236
  210MOL0     H28326   7.250   9.604   2.646 -0.2972  0.8261  0.3499
  210MOL0     H28327   7.258   9.540   2.809  3.4291  1.1656  2.2599
  210MOL0     H28328   7.035   9.601   2.722  1.6273  1.1000 -2.3635
  210MOL0     H28329   7.076   9.770   2.725  1.9131  0.3125 -1.1866
  210MOL0     H28330   7.127   9.744   2.982 -2.6219  2.3352  0.3786
  210MOL0     H28331   7.058   9.583   2.971  2.4625 -0.6351 -1.5950
  210MOL0     H28332   8.154   9.656   2.754  2.2386 -0.4790  0.8979
  210MOL0     H28333   8.379   9.705   2.822 -1.6235  0.4896 -2.1680
  210MOL0     H28334   8.531   9.608   3.252 -1.0334 -0.4019  0.8073
  210MOL0     H28335   8.690   9.540   3.418 -1.1001 -0.0945  0.4782
  210MOL0     H28336  10.553   9.984   3.918 -1.1427  0.0633 -0.4884
  210MOL0     H28337  10.794   9.977   3.983  0.0891  1.7698  2.3969
  210MOL0     H28338  11.229  10.120   4.174 -1.2191  0.9033 -0.3034
  210MOL0     H28339  11.467  10.094   4.160 -0.8473  0.2161 -0.1007
  210MOL0     H28340  11.686  10.029   4.123  1.9777 -1.9681  0.0344
  210MOL0     H28341  11.617   9.878   4.062  0.1488  0.0873 -1.7183
  210MOL0     H28342  11.855   9.858   4.080 -0.5406 -1.3886 -0.2410
  210MOL0     H28343  11.879  10.003   3.984  2.3006 -1.7526 -0.5974
  210MOL0     H28344  11.778   9.879   3.788 -1.9008 -2.2701  0.0184
  210MOL0     H28345  11.732   9.752   3.908  1.9558 -1.1313  4.6614
  210MOL0     H28346  11.923   9.665   3.780 -2.4861 -0.5193  2.2556
  210MOL0     H28347  11.985   9.713   3.931  2.8150 -2.2005 -1.1027
  210MOL0     H28348  12.200   9.987   3.694 -0.7862  1.5627  0.7943
  210MOL0     H28349  11.455  10.042   3.732  2.3316  0.4571  0.4037
  210MOL0     H28350  11.202  10.098   3.747 -1.2973  0.5178  1.3241
  211MOL0     O28351   7.754  10.336   1.334  0.3711  0.7765 -0.0355
  211MOL0     C28352   7.797  10.232   1.275  0.7992 -0.4829 -0.1351
  211MOL0     O28353   7.746  10.180   1.165 -0.2273  0.3466  0.1495
  211MOL0     C28354   7.621  10.224   1.128 -0.6993 -0.5806 -1.0405
  211MOL0     C28355   7.512  10.197   1.215  0.0135 -0.0802 -0.0158
  211MOL0     C28356   7.389  10.244   1.184  0.6701 -0.1073 -0.6408
  211MOL0     C28357   7.363  10.308   1.059 -1.1132 -0.2476  0.1795
  211MOL0     O28358   7.249  10.357   1.012 -0.3810 -0.3918 -0.5367
  211MOL0     C28359   7.131  10.325   1.081 -0.2181  0.2622 -0.0349
  211MOL0     C28360   7.017  10.390   1.007 -0.7515  1.1211  0.4071
  211MOL0     C28361   7.019  10.546   1.008  0.0517 -0.4019  0.7032
  211MOL0     C28362   6.941  10.598   0.883  0.0109  0.7000  0.1628
  211MOL0     C28363   6.789  10.575   0.904  0.0064 -0.3617  0.2430
  211MOL0     C28364   6.700  10.642   0.799  0.3456  0.6167 -0.4399
  211MOL0     C28365   6.550  10.639   0.836  0.7184  0.8353  0.2663
  211MOL0     C28366   6.455  10.698   0.730  0.1125  0.2096  0.3160
  211MOL0     N28367   6.320  10.688   0.787  0.0044 -0.6102  0.4796
  211MOL0     C28368   6.259  10.781   0.867  0.1986 -0.3767  0.5428
  211MOL0     C28369   6.121  10.769   0.849  0.2021  0.5417 -0.9331
  211MOL0     C28370   6.000  10.853   0.908 -0.2226  0.2234  0.0252
  211MOL0     C28371   5.890  10.836   0.807 -0.0420 -0.3178 -0.3996
  211MOL0     C28372   5.769  10.936   0.817  0.1679 -0.2530 -0.3924
  211MOL0     C28373   5.718  10.959   0.960 -0.1274  0.8364 -0.8755
  211MOL0     O28374   5.611  11.048   0.951  0.0740 -0.6004  0.5265
  211MOL0     C28375   5.488  11.021   0.906 -0.3487 -0.5341 -0.2512
  211MOL0     C28376   5.391  11.123   0.914 -0.2420 -0.7345  0.8578
  211MOL0     C28377   5.253  11.101   0.894  1.2000 -0.5235 -0.1007
  211MOL0     C28378   5.172  11.215   0.908  0.3097 -0.6321 -0.0073
  211MOL0     C28379   5.209  10.966   0.863 -0.6796  0.1489 -0.8627
  211MOL0     C28380   5.065  10.932   0.823 -0.0744 -0.5306 -0.7525
  211MOL0     O28381   4.964  11.028   0.805  0.2145 -0.4175  0.3021
  211MOL0     C28382   4.827  10.988   0.804 -0.3095  0.4301 -0.0045
  211MOL0     C28383   4.736  11.029   0.705 -0.4106 -0.0575  0.2284
  211MOL0     C28384   4.603  10.988   0.708 -0.3550 -0.9861  0.1313
  211MOL0     C28385   4.550  10.906   0.816 -0.5409  0.0013  0.2609
  211MOL0     O28386   4.422  10.868   0.837 -0.0706  0.6087 -0.7953
  211MOL0     C28387   4.330  10.978   0.827  0.9757 -0.3291 -0.0394
  211MOL0     C28388   4.259  10.980   0.692  0.0609 -0.0214 -0.2339
  211MOL0     C28389   4.122  11.063   0.693 -1.5329 -0.6366 -0.3183
  211MOL0     C28390   4.036  11.076   0.826 -0.6137 -0.3274 -0.2620
  211MOL0     C28391   3.907  11.146   0.789  0.0287 -0.4891 -0.2465
  211MOL0     C28392   3.802  11.145   0.902  0.6727  0.2931  0.0500
  211MOL0     C28393   3.670  11.181   0.841 -0.1109  0.1305 -0.1096
  211MOL0     C28394   3.682  11.293   0.734 -0.8034  0.6511  0.0000
  211MOL0    Cl28395   3.523  11.357   0.689 -0.7886 -0.0988 -0.0497
  211MOL0     C28396   4.649  10.874   0.914 -0.2607  0.5017  0.4136
  211MOL0     C28397   4.782  10.909   0.907 -0.2012  0.1854  1.4042
  211MOL0     O28398   5.042  10.813   0.795  0.1975 -0.5077 -0.1253
  211MOL0     C28399   5.305  10.864   0.853 -0.2639 -1.0830 -0.7124
  211MOL0     C28400   5.439  10.892   0.879 -0.4804 -0.3813  0.2129
  211MOL0     N28401   6.102  10.668   0.760  0.0587 -0.3699  0.1317
  211MOL0     N28402   6.219  10.629   0.720  0.1997  0.1033  0.1955
  211MOL0     C28403   7.474  10.329   0.973 -0.0923 -0.1434  0.7127
  211MOL0     C28404   7.602  10.288   1.011  0.2339  0.0914  0.1144
  211MOL0     C28405   7.931  10.173   1.317  0.4842 -1.6456 -0.0132
  211MOL0     C28406   7.964  10.186   1.452  0.0378  0.6818 -0.2409
  211MOL0     C28407   8.087  10.133   1.498 -0.2522 -0.2477 -0.0274
  211MOL0     C28408   8.166  10.050   1.417  0.7747 -0.0817  0.5650
  211MOL0     O28409   8.258   9.984   1.485 -0.1246 -0.0139  0.7269
  211MOL0     C28410   8.357   9.901   1.417 -0.1239 -0.4490  0.5996
  211MOL0     C28411   8.446   9.836   1.524 -0.5338  0.2306  0.3568
  211MOL0     C28412   8.517   9.950   1.597 -0.0710 -0.6943 -0.2806
  211MOL0     C28413   8.628   9.892   1.681 -0.2101 -0.1134 -0.9460
  211MOL0     C28414   8.752   9.862   1.607  0.1880  0.4438 -0.8149
  211MOL0     C28415   8.856   9.821   1.559 -0.1248 -0.7929 -0.3045
  211MOL0     C28416   8.143  10.059   1.272 -0.1039 -0.1060 -0.2252
  211MOL0     C28417   8.025  10.117   1.225  0.0015 -0.1896 -0.5755
  211MOL0     H28418   7.534  10.138   1.304 -0.8051 -1.6172 -0.8015
  211MOL0     H28419   7.302  10.218   1.244  0.7511  0.6592 -0.1862
  211MOL0     H28420   7.127  10.217   1.070 -0.1126  0.4969 -3.3035
  211MOL0     H28421   7.137  10.353   1.187 -0.8753  3.1050 -0.6506
  211MOL0     H28422   7.020  10.343   0.908  2.4519  0.4419  0.7009
  211MOL0     H28423   6.918  10.363   1.044 -0.7993 -1.3035 -1.2711
  211MOL0     H28424   6.961  10.585   1.092  0.6022  0.7685  0.5643
  211MOL0     H28425   7.115  10.599   1.011  0.1128 -0.4877  0.3058
  211MOL0     H28426   6.949  10.707   0.880 -1.3884  0.8412  0.9215
  211MOL0     H28427   6.982  10.549   0.795  2.5051  3.1230 -0.1817
  211MOL0     H28428   6.771  10.467   0.901  1.2520 -0.5781 -0.0778
  211MOL0     H28429   6.759  10.618   1.000 -2.1012 -0.6130 -0.2474
  211MOL0     H28430   6.728  10.747   0.786  1.4361  0.5949  1.4051
  211MOL0     H28431   6.714  10.582   0.709  0.3259 -0.9158  0.5567
  211MOL0     H28432   6.519  10.536   0.855 -1.1227  1.5198  1.2034
  211MOL0     H28433   6.535  10.685   0.934  0.0850 -3.1872  2.2708
  211MOL0     H28434   6.471  10.642   0.638  0.9430  0.1829  0.4678
  211MOL0     H28435   6.484  10.801   0.708 -0.3215 -0.2880 -3.0637
  211MOL0     H28436   6.304  10.860   0.926 -1.4547  0.1986  1.0935
  211MOL0     H28437   5.968  10.805   1.001 -1.6060 -0.6738 -0.8596
  211MOL0     H28438   6.026  10.958   0.921 -0.4024  0.0259  2.4522
  211MOL0     H28439   5.855  10.733   0.819  0.7261 -0.5198  0.1794
  211MOL0     H28440   5.929  10.854   0.706  2.9260  1.2778  0.9056
  211MOL0     H28441   5.691  10.893   0.755 -0.4349  1.2415 -0.7311
  211MOL0     H28442   5.795  11.037   0.782  1.9428  0.1949  1.9188
  211MOL0     H28443   5.805  11.002   1.011  1.0318 -0.2971 -1.8147
  211MOL0     H28444   5.683  10.870   1.013 -0.5853  0.2961 -2.0521
  211MOL0     H28445   5.415  11.227   0.936 -0.0873 -0.4827 -0.4051
  211MOL0     H28446   5.076  11.186   0.953  0.8827 -2.8316 -0.1146
  211MOL0     H28447   5.214  11.301   0.962 -1.7715  1.2945 -1.2151
  211MOL0     H28448   5.160  11.263   0.810  2.3575  3.6637  1.5576
  211MOL0     H28449   4.784  11.089   0.628  0.0934 -3.7905 -2.6736
  211MOL0     H28450   4.550  11.012   0.617 -2.5273  0.0699  1.5987
  211MOL0     H28451   4.257  10.958   0.906  1.4911 -0.0603  0.5151
  211MOL0     H28452   4.380  11.074   0.845  1.0376 -0.6743  1.8384
  211MOL0     H28453   4.326  11.009   0.611 -0.1977 -0.5393 -0.6396
  211MOL0     H28454   4.241  10.874   0.673  0.2988 -0.1030 -0.0167
  211MOL0     H28455   4.061  11.024   0.610 -1.2365 -2.7166  0.3643
  211MOL0     H28456   4.153  11.164   0.667  0.2356 -1.5728 -2.1779
  211MOL0     H28457   4.007  10.979   0.867 -1.7269  1.1498  2.6586
  211MOL0     H28458   4.091  11.115   0.912 -0.1321 -1.4893 -0.0143
  211MOL0     H28459   3.874  11.078   0.710  0.8336  0.2748 -1.2727
  211MOL0     H28460   3.935  11.242   0.743 -1.8487  0.7040  0.9630
  211MOL0     H28461   3.803  11.043   0.942  2.7573 -0.0763 -0.8141
  211MOL0     H28462   3.826  11.218   0.980  1.1819  1.8225 -1.4806
  211MOL0     H28463   3.607  11.212   0.925  1.0341  0.6731  0.5834
  211MOL0     H28464   3.625  11.092   0.797  1.4513 -1.1638  0.8030
  211MOL0     H28465   3.736  11.272   0.642 -4.5002 -2.4595 -1.7603
  211MOL0     H28466   3.741  11.368   0.788 -2.3913  0.7214  1.7860
  211MOL0     H28467   4.632  10.799   0.991  2.5982  1.4404  2.1477
  211MOL0     H28468   4.861  10.878   0.974  1.3107 -0.0367 -0.4261
  211MOL0     H28469   5.280  10.764   0.820  0.3118 -0.8297 -1.9699
  211MOL0     H28470   5.521  10.822   0.890 -1.3370 -1.2156  1.6869
  211MOL0     H28471   7.451  10.380   0.879  0.4719  1.5770  1.4790
  211MOL0     H28472   7.684  10.304   0.943 -1.4144  1.6798 -1.6146
  211MOL0     H28473   7.920  10.256   1.522  0.0762  1.0726 -0.6041
  211MOL0     H28474   8.115  10.144   1.602  3.1908  0.7214 -0.8952
  211MOL0     H28475   8.309   9.823   1.358 -2.9348 -0.2023  2.3875
  211MOL0     H28476   8.426   9.967   1.364 -0.8045  1.6296  2.1644
  211MOL0     H28477   8.524   9.778   1.473 -0.2668  0.4194  0.5414
  211MOL0     H28478   8.392   9.775   1.597 -1.2451  2.1270  1.4975
  211MOL0     H28479   8.439   9.997   1.657 -2.6160 -2.1567 -2.2241
  211MOL0     H28480   8.557  10.021   1.523  1.1802 -2.1084 -1.0129
  211MOL0     H28481   8.592   9.813   1.747 -0.7891  1.1765  0.3561
  211MOL0     H28482   8.653   9.971   1.753 -0.2592 -2.4396  1.8111
  211MOL0     H28483   8.943   9.787   1.505  1.5261  2.1294  0.3183
  211MOL0     H28484   8.203  10.008   1.197 -1.1485  1.0034 -1.8653
  211MOL0     H28485   8.007  10.134   1.119 -0.5538  2.3091 -0.1654
  212MOL0     O28486   7.746  10.195   4.525  0.2373 -0.3586 -0.0576
  212MOL0     C28487   7.821  10.143   4.437  0.7155 -0.5865 -0.3738
  212MOL0     O28488   7.789  10.052   4.350  0.5551 -0.3557  0.3223
  212MOL0     C28489   7.667  10.000   4.333 -0.2855  0.5082 -1.2667
  212MOL0     C28490   7.654   9.864   4.306 -0.5103  0.5429 -0.6471
  212MOL0     C28491   7.531   9.805   4.272 -0.0236 -0.4989  0.6174
  212MOL0     C28492   7.413   9.891   4.260  0.0997 -0.3919 -0.6963
  212MOL0     O28493   7.296   9.821   4.239  0.0294 -0.7018  0.9187
  212MOL0     C28494   7.196   9.904   4.181  0.4028  0.2317  0.2260
  212MOL0     C28495   7.061   9.827   4.175 -0.0387 -0.4055 -0.6477
  212MOL0     C28496   6.945   9.916   4.137 -0.0081 -0.3794  0.2524
  212MOL0     C28497   6.815   9.827   4.137 -0.0478  0.1777  0.2291
  212MOL0     C28498   6.685   9.911   4.152  0.3673  0.2782 -0.3701
  212MOL0     C28499   6.556   9.842   4.095 -0.3992 -0.9057 -0.1150
  212MOL0     C28500   6.543   9.697   4.153  0.1778 -0.6180  0.0171
  212MOL0     C28501   6.452   9.602   4.081  0.6915 -0.5598 -0.3111
  212MOL0     N28502   6.318   9.664   4.063  0.9904 -0.7853  0.7995
  212MOL0     C28503   6.225   9.692   4.154 -0.4620 -0.6961  0.3330
  212MOL0     C28504   6.116   9.719   4.076  0.2215 -0.2911  0.2463
  212MOL0     C28505   5.990   9.761   4.146  0.4590 -0.3010  0.0117
  212MOL0     C28506   5.890   9.653   4.145  0.7311 -0.0844 -0.1946
  212MOL0     C28507   5.758   9.704   4.204 -0.3554  0.1037 -0.2414
  212MOL0     C28508   5.650   9.588   4.230 -0.3470 -0.4542 -0.2915
  212MOL0     O28509   5.526   9.625   4.289 -0.7648 -0.3337 -1.0769
  212MOL0     C28510   5.515   9.648   4.425 -0.2758  0.6482 -0.0397
  212MOL0     C28511   5.613   9.626   4.514 -0.1109  0.6952  0.2935
  212MOL0     C28512   5.590   9.644   4.652 -0.7764 -0.2322  0.2130
  212MOL0     C28513   5.721   9.631   4.729 -0.5690 -0.5385  0.6048
  212MOL0     C28514   5.468   9.689   4.708 -0.3369 -0.1241  0.0072
  212MOL0     C28515   5.460   9.724   4.858  0.6059 -0.1708  0.3837
  212MOL0     O28516   5.334   9.702   4.910  0.7033 -0.4523 -0.0825
  212MOL0     C28517   5.312   9.753   5.033  0.2820  0.5171 -0.3267
  212MOL0     C28518   5.358   9.673   5.142 -0.2997  0.5080 -0.6965
  212MOL0     C28519   5.321   9.706   5.271 -0.9835  0.3700  0.0011
  212MOL0     C28520   5.233   9.814   5.292 -0.7176 -0.6814  0.0806
  212MOL0     O28521   5.187   9.857   5.415  0.0299 -0.2342  0.9096
  212MOL0     C28522   5.237   9.795   5.535  0.0609 -0.1280  0.3878
  212MOL0     C28523   5.156   9.846   5.656 -0.8206 -0.2532 -0.1875
  212MOL0     C28524   5.011   9.806   5.651  0.4616  0.9782  0.5684
  212MOL0     C28525   4.923   9.881   5.759  0.0943  0.1169  0.1380
  212MOL0     C28526   4.777   9.844   5.744 -0.2737  0.9348  0.2101
  212MOL0     C28527   4.701   9.930   5.839  0.3698  0.3353 -0.2407
  212MOL0     C28528   4.554   9.887   5.837  0.2408 -0.3095 -0.0339
  212MOL0     C28529   4.490   9.895   5.981  0.1803  0.4257 -1.1651
  212MOL0    Cl28530   4.497  10.066   6.043 -0.0080  0.2884  0.3044
  212MOL0     C28531   5.187   9.891   5.182  0.7148  0.7038 -0.0717
  212MOL0     C28532   5.222   9.866   5.050 -0.5314  0.4197 -0.2675
  212MOL0     O28533   5.553   9.766   4.921  0.2009  0.1192  0.2562
  212MOL0     C28534   5.367   9.705   4.611  0.1999 -0.0294  1.0515
  212MOL0     C28535   5.397   9.693   4.467  0.2829 -1.6140 -0.4078
  212MOL0     N28536   6.141   9.705   3.942  0.1825  0.4858 -0.2665
  212MOL0     N28537   6.265   9.666   3.938 -0.6450  0.5516  0.3690
  212MOL0     C28538   7.430  10.027   4.291  0.2967 -1.1206  0.4576
  212MOL0     C28539   7.554  10.083   4.310 -0.3575  0.2037 -0.1796
  212MOL0     C28540   7.958  10.195   4.435  0.1511  0.0899 -0.1220
  212MOL0     C28541   8.071  10.123   4.394  0.0112 -0.0770  0.7176
  212MOL0     C28542   8.202  10.189   4.394  0.8375 -0.0657  0.1730
  212MOL0     C28543   8.221  10.318   4.448  0.0745  0.0297  0.7461
  212MOL0     O28544   8.344  10.364   4.418  0.1385 -0.0912  0.2390
  212MOL0     C28545   8.379  10.497   4.456 -0.3674  0.0310  0.6962
  212MOL0     C28546   8.485  10.561   4.361  0.2367  0.2223 -0.2775
  212MOL0     C28547   8.516  10.703   4.395  0.0383 -0.6133 -0.0634
  212MOL0     C28548   8.587  10.727   4.522 -0.6279 -0.7222  0.2240
  212MOL0     C28549   8.730  10.712   4.512 -0.9745 -0.1340  0.1798
  212MOL0     C28550   8.854  10.698   4.512  0.6577 -0.7045  0.5035
  212MOL0     C28551   8.111  10.385   4.504 -0.3896 -0.3765  0.0127
  212MOL0     C28552   7.987  10.317   4.493 -0.0213  0.4063  0.9814
  212MOL0     H28553   7.733   9.792   4.328 -1.1716 -1.0190 -2.9826
  212MOL0     H28554   7.521   9.702   4.239 -2.5620  0.6778 -3.0217
  212MOL0     H28555   7.177   9.991   4.244  0.1524 -0.9879  1.9210
  212MOL0     H28556   7.225   9.930   4.079 -0.4202  0.4645  0.0411
  212MOL0     H28557   7.070   9.746   4.102 -1.4243 -0.4542 -0.7915
  212MOL0     H28558   7.039   9.783   4.272 -1.9935  1.8785  0.0314
  212MOL0     H28559   6.930   9.983   4.222 -0.6036  0.4596 -0.5020
  212MOL0     H28560   6.954   9.981   4.050  1.3488 -0.9317 -0.0617
  212MOL0     H28561   6.818   9.779   4.039  1.6361  1.0666 -0.1919
  212MOL0     H28562   6.820   9.745   4.210  0.1931 -2.3683 -2.4394
  212MOL0     H28563   6.662   9.945   4.253 -1.8736  1.8057 -1.3022
  212MOL0     H28564   6.707  10.006   4.101  1.8625  0.4509  0.5169
  212MOL0     H28565   6.467   9.899   4.121  0.3787 -0.2267  1.1383
  212MOL0     H28566   6.551   9.839   3.986 -0.7660 -1.1640 -0.0921
  212MOL0     H28567   6.638   9.646   4.170 -0.2823 -0.5444  3.9197
  212MOL0     H28568   6.509   9.703   4.257  2.2230 -1.5878  0.7875
  212MOL0     H28569   6.435   9.515   4.145 -1.2979  0.1507  0.2158
  212MOL0     H28570   6.495   9.567   3.987 -0.8342 -0.7010 -0.9848
  212MOL0     H28571   6.229   9.689   4.262 -0.4894  0.6377  0.3869
  212MOL0     H28572   6.007   9.793   4.249 -1.6133 -2.6077  1.1542
  212MOL0     H28573   5.947   9.841   4.084  0.8352 -0.5912 -0.6341
  212MOL0     H28574   5.933   9.579   4.214  1.3575 -1.9075 -2.4228
  212MOL0     H28575   5.876   9.600   4.050 -1.4601  2.4086 -1.3835
  212MOL0     H28576   5.726   9.789   4.144 -0.6660  1.0948  1.2920
  212MOL0     H28577   5.798   9.732   4.301  1.9631  0.2791 -1.1811
  212MOL0     H28578   5.694   9.511   4.294  0.3163 -1.6870 -2.1319
  212MOL0     H28579   5.636   9.538   4.134 -2.0712  1.9725 -1.4342
  212MOL0     H28580   5.709   9.586   4.482 -0.8358 -1.1151  0.2347
  212MOL0     H28581   5.711   9.609   4.836 -0.6091 -0.1716  0.6786
  212MOL0     H28582   5.781   9.554   4.681 -1.3041  0.9575 -3.0259
  212MOL0     H28583   5.776   9.725   4.732  1.5612 -1.7472  1.9606
  212MOL0     H28584   5.411   9.582   5.117 -2.7666 -1.5976  1.1356
  212MOL0     H28585   5.356   9.641   5.350 -1.5465  0.6481  0.4848
  212MOL0     H28586   5.236   9.686   5.528 -2.5067 -0.0604 -4.3773
  212MOL0     H28587   5.336   9.842   5.536 -1.3750  3.2236  2.5120
  212MOL0     H28588   5.198   9.800   5.746 -2.6356 -1.7076 -0.0262
  212MOL0     H28589   5.167   9.954   5.664  2.6182 -0.5293  0.2836
  212MOL0     H28590   5.002   9.700   5.678 -1.0926  0.4639 -1.6641
  212MOL0     H28591   4.971   9.819   5.550 -0.0960 -0.8161  0.5186
  212MOL0     H28592   4.963   9.840   5.852  1.4666  0.3940 -0.3153
  212MOL0     H28593   4.932   9.990   5.758 -0.1301  0.1345 -0.4890
  212MOL0     H28594   4.779   9.742   5.786 -0.7712  0.1092 -1.6749
  212MOL0     H28595   4.744   9.836   5.641  1.8811 -1.9725 -0.4082
  212MOL0     H28596   4.737   9.928   5.942  1.6268 -0.9405 -0.6805
  212MOL0     H28597   4.705  10.031   5.797  1.2571 -0.3149 -1.7956
  212MOL0     H28598   4.532   9.787   5.796  1.3054  0.0446 -1.5614
  212MOL0     H28599   4.490   9.945   5.770  0.2118 -1.0359 -0.6530
  212MOL0     H28600   4.539   9.829   6.053 -0.4105 -0.2521 -1.3730
  212MOL0     H28601   4.384   9.866   5.983  0.4077 -1.2475  4.8528
  212MOL0     H28602   5.118   9.969   5.211 -3.1775 -2.0848 -1.0611
  212MOL0     H28603   5.182   9.919   4.964 -1.3365 -1.1027 -0.8668
  212MOL0     H28604   5.266   9.736   4.638  0.4303  0.0400  1.8716
  212MOL0     H28605   5.332   9.717   4.384  1.5990  3.0245 -0.3950
  212MOL0     H28606   7.351  10.100   4.281 -0.1704 -1.0165  3.7587
  212MOL0     H28607   7.562  10.191   4.314 -1.2643  0.2494  0.8727
  212MOL0     H28608   8.084  10.028   4.345  1.2197  0.4643 -0.0507
  212MOL0     H28609   8.284  10.145   4.338  0.3141 -1.8233  0.7252
  212MOL0     H28610   8.287  10.556   4.450 -2.1267 -2.5559  1.0254
  212MOL0     H28611   8.410  10.498   4.561  0.0284  2.2593  0.6196
  212MOL0     H28612   8.458  10.554   4.255 -0.3669  0.8211 -0.1656
  212MOL0     H28613   8.581  10.508   4.367 -0.1016 -0.7078 -2.1970
  212MOL0     H28614   8.417  10.748   4.409  0.3600  1.2157 -2.9067
  212MOL0     H28615   8.564  10.757   4.313 -1.5335  0.4892 -0.2992
  212MOL0     H28616   8.554  10.652   4.594 -1.6467  0.1294  0.6677
  212MOL0     H28617   8.563  10.824   4.565  1.9443 -0.3774  1.0899
  212MOL0     H28618   8.956  10.678   4.486  0.6956 -0.1814  0.2540
  212MOL0     H28619   8.115  10.488   4.539 -2.7935 -0.3336  0.3462
  212MOL0     H28620   7.908  10.381   4.531 -1.0461  0.0621 -0.4773
  213MOL0     O28621  10.664   6.588   8.928  0.3585 -0.6736  0.1374
  213MOL0     C28622  10.712   6.517   8.841 -0.5639 -0.7050  0.4759
  213MOL0     O28623  10.640   6.427   8.765  0.3890 -0.2417  0.2546
  213MOL0     C28624  10.504   6.430   8.785 -0.1242  0.0954 -0.9380
  213MOL0     C28625  10.434   6.502   8.692 -0.3064  0.0720  0.2146
  213MOL0     C28626  10.291   6.492   8.705  0.2733 -0.5714 -0.0980
  213MOL0     C28627  10.227   6.435   8.816  0.6537 -0.1097  0.4304
  213MOL0     O28628  10.089   6.431   8.844 -0.4588 -0.3689  0.0265
  213MOL0     C28629  10.038   6.543   8.910 -0.3270 -0.4674 -0.1977
  213MOL0     C28630   9.893   6.510   8.940  0.7420  0.5616 -0.3315
  213MOL0     C28631   9.802   6.626   8.972  0.1201 -0.1986  1.0770
  213MOL0     C28632   9.640   6.593   8.969 -0.8852  0.2894  0.5434
  213MOL0     C28633   9.562   6.727   8.983 -0.2469  0.0935  0.1305
  213MOL0     C28634   9.415   6.695   8.978 -0.6997 -0.2583 -0.1994
  213MOL0     C28635   9.325   6.811   9.023 -0.0575 -0.7315 -0.5456
  213MOL0     C28636   9.169   6.803   9.011 -0.0218  0.3897  0.2569
  213MOL0     N28637   9.097   6.739   9.128 -0.1653 -0.0833  0.0897
  213MOL0     C28638   9.125   6.614   9.190 -0.4012  0.1461  0.5542
  213MOL0     C28639   9.062   6.612   9.306  0.6505 -0.2125 -0.9144
  213MOL0     C28640   9.071   6.513   9.424 -0.1468  0.2309  0.2100
  213MOL0     C28641   8.940   6.478   9.499  0.3635 -0.1622 -0.5815
  213MOL0     C28642   8.849   6.389   9.422 -0.1623 -0.0222 -0.1889
  213MOL0     C28643   8.703   6.409   9.468 -1.1898 -0.1880  0.6022
  213MOL0     O28644   8.710   6.426   9.616  0.3301  0.1502  0.0511
  213MOL0     C28645   8.589   6.447   9.680 -0.5742  0.6682  0.1969
  213MOL0     C28646   8.473   6.463   9.606  0.3571  1.0579  0.8756
  213MOL0     C28647   8.348   6.488   9.668 -0.0980 -0.1878  0.8971
  213MOL0     C28648   8.231   6.476   9.578 -0.0098 -0.5368  0.5137
  213MOL0     C28649   8.342   6.488   9.811 -0.8319 -0.2177 -0.6715
  213MOL0     C28650   8.228   6.515   9.895  0.8763  0.8114  0.8067
  213MOL0     O28651   8.231   6.462  10.026 -0.4492  0.2268 -0.0926
  213MOL0     C28652   8.122   6.456  10.105  0.1473  0.3978 -0.2490
  213MOL0     C28653   7.997   6.411  10.063  0.0875 -0.4271  0.0759
  213MOL0     C28654   7.887   6.402  10.148 -0.2281 -0.1947 -0.4847
  213MOL0     C28655   7.906   6.437  10.284  0.3145  0.5019  0.5542
  213MOL0     O28656   7.810   6.440  10.377  0.2145  0.0215 -0.1401
  213MOL0     C28657   7.672   6.408  10.349 -0.8742 -0.0107 -0.1132
  213MOL0     C28658   7.603   6.373  10.482 -0.0611  0.1717  0.3769
  213MOL0     C28659   7.456   6.316  10.475 -0.4653  0.0984  0.1658
  213MOL0     C28660   7.342   6.420  10.448  0.0203  0.2060 -0.0063
  213MOL0     C28661   7.206   6.362  10.488  0.1283  0.4894 -0.0653
  213MOL0     C28662   7.103   6.444  10.422 -0.7505 -0.4589 -0.0282
  213MOL0     C28663   7.073   6.568  10.515  0.1802 -0.4873 -1.1066
  213MOL0     C28664   6.943   6.647  10.474  0.9012  0.3672 -0.2712
  213MOL0    Cl28665   6.818   6.535  10.498 -0.0497  0.6250 -0.3504
  213MOL0     C28666   8.032   6.477  10.324  0.0058 -0.4357  0.0391
  213MOL0     C28667   8.137   6.487  10.240  0.9445 -0.0450 -0.5312
  213MOL0     O28668   8.145   6.592   9.855  0.2793  0.0305 -0.0532
  213MOL0     C28669   8.462   6.472   9.889  0.0750  0.7740  1.0802
  213MOL0     C28670   8.583   6.449   9.819  0.2931  0.3535 -0.0630
  213MOL0     N28671   8.976   6.719   9.306 -0.2463 -0.1587  0.1230
  213MOL0     N28672   8.998   6.798   9.212 -0.4300  1.0389  0.2965
  213MOL0     C28673  10.306   6.370   8.908  0.2963 -0.4616  0.5491
  213MOL0     C28674  10.436   6.364   8.893 -0.8990 -0.2050  0.0450
  213MOL0     C28675  10.868   6.515   8.817 -0.0010 -0.8274 -0.6428
  213MOL0     C28676  10.946   6.607   8.896  0.1548 -0.3128  1.0255
  213MOL0     C28677  11.085   6.613   8.888  0.3432  0.0870  0.7191
  213MOL0     C28678  11.146   6.514   8.804 -0.5054 -0.2460 -0.1487
  213MOL0     O28679  11.284   6.510   8.784 -0.1575  0.2883 -0.3015
  213MOL0     C28680  11.355   6.553   8.900 -0.3841  0.2585  0.3007
  213MOL0     C28681  11.503   6.512   8.898  0.0835 -0.0672  0.4418
  213MOL0     C28682  11.520   6.364   8.868  0.5700  0.9057 -0.4225
  213MOL0     C28683  11.510   6.310   8.723  0.5392 -0.0736  1.0763
  213MOL0     C28684  11.624   6.340   8.633  0.0466  0.1171  0.0964
  213MOL0     C28685  11.724   6.337   8.574 -0.8824  0.2729  0.9088
  213MOL0     C28686  11.068   6.439   8.718  0.0675  0.0003 -0.4128
  213MOL0     C28687  10.934   6.435   8.722 -0.2031 -0.2161 -0.7362
  213MOL0     H28688  10.489   6.549   8.611 -1.3662 -2.5173 -2.1618
  213MOL0     H28689  10.239   6.553   8.632  1.3947 -0.5977 -0.9496
  213MOL0     H28690  10.102   6.560   8.997  1.7928 -0.1503 -1.7359
  213MOL0     H28691  10.051   6.634   8.851  2.0518  0.5020  1.6725
  213MOL0     H28692   9.849   6.444   8.864 -1.8531 -0.7662  2.1465
  213MOL0     H28693   9.902   6.456   9.035 -0.7425 -0.0025 -0.4940
  213MOL0     H28694   9.835   6.663   9.069 -2.0397 -0.1722  1.8644
  213MOL0     H28695   9.821   6.706   8.901 -0.6343 -1.1619 -0.2626
  213MOL0     H28696   9.616   6.550   8.871 -0.0164  1.6017 -0.2620
  213MOL0     H28697   9.611   6.524   9.049 -0.5536  0.0942  0.4972
  213MOL0     H28698   9.587   6.766   9.082  1.0233  0.2456 -0.2328
  213MOL0     H28699   9.588   6.806   8.912 -2.5576  0.9668  0.1878
  213MOL0     H28700   9.403   6.665   8.874  0.3493 -2.0580  0.1496
  213MOL0     H28701   9.396   6.609   9.043  1.6435  0.4393  1.5214
  213MOL0     H28702   9.356   6.817   9.128  1.5979 -1.3901 -0.9549
  213MOL0     H28703   9.356   6.903   8.974 -0.7402  1.4112  2.7179
  213MOL0     H28704   9.147   6.758   8.914 -2.7659  3.1892 -0.5920
  213MOL0     H28705   9.126   6.904   9.004  0.0936  0.3175 -2.1511
  213MOL0     H28706   9.189   6.541   9.141 -0.2749  0.2869  0.5071
  213MOL0     H28707   9.120   6.422   9.386 -2.7367 -0.3543 -2.0441
  213MOL0     H28708   9.145   6.547   9.497  3.6642 -1.4337 -2.5226
  213MOL0     H28709   8.898   6.574   9.528 -0.3904 -1.1711  1.9892
  213MOL0     H28710   8.975   6.443   9.597  0.2902 -1.4013 -0.9722
  213MOL0     H28711   8.882   6.285   9.428 -1.4003 -0.4608 -0.5825
  213MOL0     H28712   8.859   6.426   9.320  1.0530  2.3539  0.7062
  213MOL0     H28713   8.638   6.326   9.438 -2.1098 -0.5811  3.3439
  213MOL0     H28714   8.672   6.506   9.428 -1.0936 -0.3857  0.0461
  213MOL0     H28715   8.466   6.472   9.498  0.6535  0.2507  0.7760
  213MOL0     H28716   8.142   6.496   9.639  2.3501  2.0342  3.4007
  213MOL0     H28717   8.234   6.554   9.501  0.2376 -1.9257 -0.9417
  213MOL0     H28718   8.226   6.378   9.528 -1.6372  0.7823 -2.1418
  213MOL0     H28719   7.979   6.378   9.961 -0.2417  0.8774 -0.3119
  213MOL0     H28720   7.788   6.375  10.112  0.6425 -1.1889 -2.2783
  213MOL0     H28721   7.626   6.495  10.302  1.1649  0.0502 -2.1710
  213MOL0     H28722   7.658   6.318  10.288  0.6968 -2.3267  2.6261
  213MOL0     H28723   7.667   6.302  10.536 -0.3391 -0.2540  0.1472
  213MOL0     H28724   7.585   6.468  10.535 -3.5072  0.4236 -0.9960
  213MOL0     H28725   7.435   6.267  10.570  0.8259 -0.4163  0.2117
  213MOL0     H28726   7.455   6.234  10.403  0.0392  0.8586 -0.7427
  213MOL0     H28727   7.365   6.511  10.503 -0.4045  1.3546 -1.6460
  213MOL0     H28728   7.336   6.440  10.340 -2.6190 -0.2469 -0.0117
  213MOL0     H28729   7.194   6.356  10.597  0.9470 -1.5740 -0.0377
  213MOL0     H28730   7.195   6.263  10.445 -1.7951  1.2872 -1.5344
  213MOL0     H28731   7.126   6.482  10.322  2.1366  1.2646  1.1403
  213MOL0     H28732   7.018   6.378  10.407 -0.2637 -0.6227 -2.5806
  213MOL0     H28733   7.157   6.638  10.515 -1.3272  1.3995 -0.4079
  213MOL0     H28734   7.047   6.528  10.613 -3.1162  0.1180 -1.5948
  213MOL0     H28735   6.953   6.673  10.368  2.1773 -2.2793 -0.9072
  213MOL0     H28736   6.939   6.728  10.547  0.6298  1.2027 -1.2043
  213MOL0     H28737   8.052   6.500  10.428 -0.7091 -2.4128  0.6555
  213MOL0     H28738   8.233   6.520  10.279  1.1708 -0.4261 -0.7587
  213MOL0     H28739   8.459   6.454   9.996 -1.6883 -0.5500  0.8400
  213MOL0     H28740   8.679   6.436   9.868  1.2721 -0.4920 -2.0782
  213MOL0     H28741  10.273   6.310   8.993 -0.5369  0.1470  0.6653
  213MOL0     H28742  10.506   6.313   8.958 -1.1740  0.5216  0.9349
  213MOL0     H28743  10.893   6.660   8.975  0.0749  1.9020 -0.4181
  213MOL0     H28744  11.140   6.683   8.951  0.9524 -0.8244  1.2280
  213MOL0     H28745  11.340   6.661   8.899 -0.6348  0.2235 -0.5051
  213MOL0     H28746  11.319   6.500   8.988 -1.2831 -0.6826 -0.6094
  213MOL0     H28747  11.554   6.538   8.991  3.2485 -2.5214 -0.4537
  213MOL0     H28748  11.544   6.569   8.815  0.7426 -0.1762  0.6887
  213MOL0     H28749  11.441   6.310   8.921  0.6918 -0.1465 -1.2733
  213MOL0     H28750  11.613   6.323   8.908 -0.8050 -2.4818 -0.3686
  213MOL0     H28751  11.415   6.325   8.673  2.0009 -1.0010 -2.2297
  213MOL0     H28752  11.501   6.202   8.737  0.0688 -0.6486 -2.7138
  213MOL0     H28753  11.814   6.351   8.518 -0.6900  0.2373  1.2098
  213MOL0     H28754  11.138   6.370   8.670  2.2415  0.1703  2.2227
  213MOL0     H28755  10.888   6.359   8.659  2.4838 -4.4230  1.8174
  214MOL0     O28756   7.850   2.102   7.472 -0.4053  0.2894 -0.0433
  214MOL0     C28757   7.941   2.061   7.397  0.0604  0.7319 -0.0933
  214MOL0     O28758   7.952   2.071   7.264  0.9107  0.1348  0.3181
  214MOL0     C28759   7.866   2.135   7.175  0.2383  0.1649 -0.7626
  214MOL0     C28760   7.854   2.073   7.046  1.4627  0.4153 -0.1757
  214MOL0     C28761   7.761   2.128   6.952 -0.5957  0.6918  0.0332
  214MOL0     C28762   7.676   2.233   6.989  0.5608 -0.4600 -0.1330
  214MOL0     O28763   7.586   2.285   6.898  0.1378 -0.2426 -0.1066
  214MOL0     C28764   7.577   2.228   6.765 -0.3102  0.5526  0.6447
  214MOL0     C28765   7.474   2.319   6.699  0.2751  0.0366  0.2976
  214MOL0     C28766   7.447   2.297   6.552  0.9556 -0.5014  0.9053
  214MOL0     C28767   7.437   2.434   6.484  0.4280 -0.0996  0.2331
  214MOL0     C28768   7.302   2.513   6.503  0.9934  0.0293  0.0345
  214MOL0     C28769   7.181   2.456   6.424  0.7380  0.3667 -0.7623
  214MOL0     C28770   7.199   2.468   6.272 -0.0389 -0.1841  0.1662
  214MOL0     C28771   7.109   2.371   6.196 -0.3631 -0.2079 -1.1377
  214MOL0     N28772   7.128   2.391   6.056 -0.1232  0.5024 -0.3207
  214MOL0     C28773   7.057   2.486   5.981 -0.0750  0.4139 -0.2347
  214MOL0     C28774   7.117   2.472   5.857  0.2923  0.3065  0.1929
  214MOL0     C28775   7.081   2.568   5.750  0.5127 -0.3523 -0.4229
  214MOL0     C28776   6.931   2.558   5.705  0.0301 -0.6845  0.4597
  214MOL0     C28777   6.896   2.664   5.601 -0.1584  0.1134 -0.2328
  214MOL0     C28778   6.749   2.664   5.555 -0.4134 -0.2399  0.3640
  214MOL0     O28779   6.722   2.772   5.468  0.7123 -0.8465 -0.3018
  214MOL0     C28780   6.589   2.772   5.414 -1.0786  0.4618 -0.0043
  214MOL0     C28781   6.565   2.797   5.282 -0.3625  0.3101  1.6327
  214MOL0     C28782   6.431   2.796   5.235  0.6620  0.3526 -1.0759
  214MOL0     C28783   6.411   2.791   5.081 -0.4822 -0.8532  0.1714
  214MOL0     C28784   6.318   2.788   5.317 -0.5491  1.0054  0.5063
  214MOL0     C28785   6.175   2.804   5.285 -0.8225 -0.5946  0.1670
  214MOL0     O28786   6.085   2.818   5.395 -0.4501  0.3507  0.0807
  214MOL0     C28787   5.947   2.817   5.367  0.4908  0.4027  0.2763
  214MOL0     C28788   5.877   2.744   5.269 -0.5662  0.2690  0.1446
  214MOL0     C28789   5.736   2.754   5.269 -0.1060  0.2188  0.7189
  214MOL0     C28790   5.665   2.817   5.371  0.9015  0.3918  0.0574
  214MOL0     O28791   5.526   2.816   5.359 -0.7497 -0.4944  0.1491
  214MOL0     C28792   5.439   2.851   5.467 -0.4544 -0.4486 -0.3869
  214MOL0     C28793   5.299   2.824   5.423  0.2901  0.4269 -0.3755
  214MOL0     C28794   5.194   2.839   5.541  0.7198  0.0119  0.0739
  214MOL0     C28795   5.050   2.854   5.474 -0.0537  0.5171 -0.0767
  214MOL0     C28796   4.949   2.915   5.571  0.8294 -0.2152  0.0503
  214MOL0     C28797   4.803   2.889   5.517 -0.2109 -0.2605 -0.6942
  214MOL0     C28798   4.688   2.965   5.585 -0.0788 -0.1544  0.0574
  214MOL0     C28799   4.647   2.907   5.715  0.2268  1.4540 -0.2637
  214MOL0    Cl28800   4.588   2.747   5.676 -0.4806 -0.1210 -0.3939
  214MOL0     C28801   5.734   2.871   5.476  0.3696  0.0774 -0.5861
  214MOL0     C28802   5.868   2.865   5.474  0.3855 -0.3984  0.0385
  214MOL0     O28803   6.151   2.817   5.169  0.3991  0.2989  0.1516
  214MOL0     C28804   6.353   2.752   5.450 -1.1940  0.4491  0.2272
  214MOL0     C28805   6.489   2.746   5.500  0.7221 -0.8024  0.3198
  214MOL0     N28806   7.212   2.371   5.856  0.0211  0.1314 -0.0507
  214MOL0     N28807   7.225   2.335   5.973 -0.3044  0.0209  0.2908
  214MOL0     C28808   7.691   2.291   7.111  0.1159 -0.5979  0.1123
  214MOL0     C28809   7.776   2.246   7.204  0.5024  0.7785 -0.2703
  214MOL0     C28810   8.044   1.984   7.474 -0.0423 -0.1366 -0.3436
  214MOL0     C28811   8.139   1.905   7.399  0.2705 -0.3403 -0.3208
  214MOL0     C28812   8.237   1.838   7.472 -0.1754  0.4005 -0.5244
  214MOL0     C28813   8.243   1.838   7.611  0.0018 -0.3990  0.1322
  214MOL0     O28814   8.351   1.771   7.670  0.0880 -0.2498 -0.3769
  214MOL0     C28815   8.354   1.763   7.816 -1.1922 -0.2709  0.6596
  214MOL0     C28816   8.504   1.727   7.841  0.3225 -0.7009  0.0774
  214MOL0     C28817   8.535   1.737   7.992 -0.5581  0.3539  0.7004
  214MOL0     C28818   8.683   1.734   8.022 -0.2891 -0.2625 -0.6946
  214MOL0     C28819   8.738   1.597   8.024 -0.0772 -0.4887  0.7591
  214MOL0     C28820   8.780   1.486   8.025 -0.2445  0.2154 -0.6906
  214MOL0     C28821   8.153   1.918   7.683 -1.7418  0.3202  0.6083
  214MOL0     C28822   8.061   1.999   7.614  0.4644  0.5827  0.3029
  214MOL0     H28823   7.907   1.986   7.008 -0.4048 -0.7647 -0.2225
  214MOL0     H28824   7.768   2.083   6.854  1.8492 -1.7540  1.1710
  214MOL0     H28825   7.670   2.238   6.709 -1.0192 -0.6792 -0.8258
  214MOL0     H28826   7.544   2.124   6.770  1.4324 -0.0405  0.4176
  214MOL0     H28827   7.378   2.303   6.748  0.2692 -3.1575 -0.5235
  214MOL0     H28828   7.508   2.421   6.719  1.8280 -0.8696  2.8072
  214MOL0     H28829   7.538   2.247   6.516 -0.0675 -1.7536 -0.0378
  214MOL0     H28830   7.363   2.228   6.543  0.4486  0.4432 -3.4954
  214MOL0     H28831   7.519   2.497   6.518 -0.1664 -0.1270  1.8275
  214MOL0     H28832   7.451   2.417   6.377 -2.6374 -0.4383 -0.2135
  214MOL0     H28833   7.283   2.516   6.611  2.8954  0.1503  0.3937
  214MOL0     H28834   7.310   2.621   6.483 -0.1307 -0.1682 -1.6485
  214MOL0     H28835   7.173   2.350   6.451 -2.0889  0.3272 -1.3902
  214MOL0     H28836   7.085   2.500   6.453 -0.0803 -1.9495  0.2683
  214MOL0     H28837   7.182   2.567   6.231 -0.6798 -1.2804 -2.3879
  214MOL0     H28838   7.304   2.448   6.252 -0.4755 -0.3845 -2.1560
  214MOL0     H28839   7.006   2.376   6.235 -0.3539 -2.8243 -0.5827
  214MOL0     H28840   7.141   2.270   6.225 -3.1541 -0.1798  2.9707
  214MOL0     H28841   6.994   2.572   6.004 -0.3951  1.4345 -4.2323
  214MOL0     H28842   7.102   2.666   5.794  1.3314 -1.1480  1.0482
  214MOL0     H28843   7.139   2.562   5.657  0.2055  0.5769 -0.6774
  214MOL0     H28844   6.875   2.578   5.796 -0.1335 -0.5011  0.3185
  214MOL0     H28845   6.905   2.459   5.666  1.1232 -0.4409 -0.9849
  214MOL0     H28846   6.961   2.672   5.513 -1.2908  4.9538 -0.9162
  214MOL0     H28847   6.907   2.764   5.645 -3.1588 -0.0618  1.1234
  214MOL0     H28848   6.692   2.680   5.646  1.1018 -0.7547  1.4384
  214MOL0     H28849   6.725   2.568   5.508 -0.4952 -0.2078  0.3405
  214MOL0     H28850   6.633   2.805   5.199 -2.5002 -1.9513 -0.4963
  214MOL0     H28851   6.357   2.882   5.055  0.2772 -0.3540  0.3145
  214MOL0     H28852   6.506   2.782   5.029 -0.2567 -0.1762  0.4579
  214MOL0     H28853   6.356   2.699   5.058 -1.8646 -1.0252  3.5305
  214MOL0     H28854   5.922   2.687   5.188 -1.6452  0.7222 -0.8112
  214MOL0     H28855   5.685   2.725   5.178 -1.8012  2.5083  0.8495
  214MOL0     H28856   5.472   2.797   5.557  0.8680  0.3418 -0.3646
  214MOL0     H28857   5.439   2.957   5.496  0.0686 -0.8228  1.0544
  214MOL0     H28858   5.271   2.905   5.354  0.3731  0.2539 -0.6135
  214MOL0     H28859   5.293   2.725   5.377  0.1985  0.8888 -1.3978
  214MOL0     H28860   5.213   2.937   5.587  0.0270 -0.7082  1.9693
  214MOL0     H28861   5.198   2.759   5.615 -2.3375 -0.9396 -0.6541
  214MOL0     H28862   5.043   2.912   5.382 -0.9207 -1.8364 -1.5924
  214MOL0     H28863   5.011   2.752   5.461 -0.5552  0.7971 -0.8693
  214MOL0     H28864   4.980   3.020   5.568 -0.2752  0.0948 -1.1134
  214MOL0     H28865   4.954   2.879   5.675  1.9044 -0.0276  0.0796
  214MOL0     H28866   4.809   2.933   5.417  3.0739  0.0388 -0.4744
  214MOL0     H28867   4.787   2.782   5.504 -0.4225 -0.5323  1.5452
  214MOL0     H28868   4.605   2.969   5.513 -0.2236 -0.5472  0.2029
  214MOL0     H28869   4.717   3.070   5.598  0.4646 -0.0708 -1.5097
  214MOL0     H28870   4.570   2.958   5.774 -1.4781 -0.4722 -0.6718
  214MOL0     H28871   4.732   2.882   5.779 -2.5397 -0.2034  3.1359
  214MOL0     H28872   5.681   2.924   5.554 -1.2981  0.8464 -2.1435
  214MOL0     H28873   5.921   2.912   5.556  0.9420  0.7905 -0.9768
  214MOL0     H28874   6.270   2.750   5.520 -1.3748 -0.5214  0.0015
  214MOL0     H28875   6.495   2.703   5.600 -1.3562 -0.3599  0.6859
  214MOL0     H28876   7.633   2.379   7.137 -2.7064 -2.5917  1.0533
  214MOL0     H28877   7.775   2.302   7.297  3.2992  1.4847 -0.5785
  214MOL0     H28878   8.143   1.901   7.291 -0.4865 -2.4659 -0.3222
  214MOL0     H28879   8.303   1.780   7.408 -3.6415  0.0560 -4.1511
  214MOL0     H28880   8.332   1.858   7.865  2.2603  1.4536 -0.7939
  214MOL0     H28881   8.285   1.682   7.841 -1.6340 -0.0707  0.1292
  214MOL0     H28882   8.556   1.799   7.777  0.4237 -0.5947  0.2789
  214MOL0     H28883   8.530   1.627   7.807  1.1279  0.2160 -2.1778
  214MOL0     H28884   8.491   1.654   8.047  0.3041  1.7516  3.6972
  214MOL0     H28885   8.497   1.832   8.031 -0.7317  0.8620 -0.6407
  214MOL0     H28886   8.698   1.763   8.126 -2.5974 -2.5045  0.3616
  214MOL0     H28887   8.739   1.804   7.959  2.2666  0.2090  1.9180
  214MOL0     H28888   8.823   1.388   8.023  1.5035  0.9109  0.5044
  214MOL0     H28889   8.152   1.916   7.792 -0.1207 -1.4329  0.6183
  214MOL0     H28890   7.997   2.074   7.661 -2.5615  0.8523 -3.7469
  215MOL0     O28891   8.438  10.034   6.619 -0.8540  0.5387 -0.4274
  215MOL0     C28892   8.504  10.062   6.714 -0.6727  0.3599 -0.7264
  215MOL0     O28893   8.454  10.096   6.838  0.2487 -0.0358 -0.6863
  215MOL0     C28894   8.328  10.096   6.876  0.8852  0.4175  1.2350
  215MOL0     C28895   8.227  10.019   6.812 -0.9682  0.6113 -0.0355
  215MOL0     C28896   8.097  10.016   6.854  1.2989 -0.0889 -0.0094
  215MOL0     C28897   8.062  10.088   6.971 -0.1837 -0.5595 -0.0075
  215MOL0     O28898   7.934  10.092   7.019 -0.2251  0.9561 -0.9262
  215MOL0     C28899   7.821  10.045   6.946 -0.2335 -0.1328  0.2586
  215MOL0     C28900   7.765   9.921   7.011 -0.0590  1.4844  0.8887
  215MOL0     C28901   7.631   9.869   6.952 -0.3574  0.3072  0.1040
  215MOL0     C28902   7.541   9.803   7.056  0.1201  0.2669 -0.4440
  215MOL0     C28903   7.430   9.737   6.991  0.6675  0.2428  0.1244
  215MOL0     C28904   7.332   9.821   6.915  0.9934  0.5505 -0.2007
  215MOL0     C28905   7.210   9.736   6.875 -0.4343  0.1795 -0.4882
  215MOL0     C28906   7.135   9.821   6.770  0.0290  0.6245  0.6481
  215MOL0     N28907   7.014   9.751   6.743  0.3588  1.3821  0.0782
  215MOL0     C28908   6.979   9.666   6.638  0.3058 -0.0008 -1.1377
  215MOL0     C28909   6.844   9.631   6.660 -0.8507  0.4910  0.9703
  215MOL0     C28910   6.761   9.532   6.588 -1.1184  0.0993  0.1087
  215MOL0     C28911   6.610   9.537   6.611  0.9546 -0.4356  0.1973
  215MOL0     C28912   6.520   9.436   6.529 -0.4538  0.3801 -0.2619
  215MOL0     C28913   6.538   9.469   6.381  0.1236 -0.3805  0.1787
  215MOL0     O28914   6.504   9.607   6.349 -0.3120 -0.3735  0.1113
  215MOL0     C28915   6.372   9.643   6.346  0.2713 -0.2337 -0.7633
  215MOL0     C28916   6.263   9.557   6.348 -0.9140 -0.6618 -0.2569
  215MOL0     C28917   6.131   9.618   6.365  0.0833  0.8813 -0.2562
  215MOL0     C28918   6.026   9.520   6.414  0.5759  0.4661 -0.0038
  215MOL0     C28919   6.110   9.760   6.356  0.2570  0.4349 -0.0484
  215MOL0     C28920   5.977   9.825   6.360 -0.0296 -0.7263 -0.1210
  215MOL0     O28921   5.973   9.965   6.385  0.4509 -0.2737  0.1109
  215MOL0     C28922   5.847  10.022   6.389 -0.2219 -0.3998  0.1737
  215MOL0     C28923   5.754   9.991   6.492  0.1118 -0.7634  0.5631
  215MOL0     C28924   5.630  10.064   6.505  0.7004  0.0811 -0.1591
  215MOL0     C28925   5.599  10.164   6.409 -0.0679 -0.0591 -0.8050
  215MOL0     O28926   5.489  10.244   6.428 -0.6522 -0.0411  0.2275
  215MOL0     C28927   5.391  10.224   6.535 -0.1550 -0.7426  0.3105
  215MOL0     C28928   5.275  10.330   6.539  0.0647  0.0562 -0.0698
  215MOL0     C28929   5.205  10.317   6.673  0.1370  0.1647  0.7374
  215MOL0     C28930   5.081  10.404   6.693 -0.7932 -0.4832  0.5159
  215MOL0     C28931   5.098  10.559   6.690 -0.6662  1.0244  1.2113
  215MOL0     C28932   4.972  10.637   6.650 -0.7111  0.3993 -0.2629
  215MOL0     C28933   4.844  10.605   6.728  0.1808 -0.5020  0.1418
  215MOL0     C28934   4.728  10.699   6.665 -0.1052 -0.0789  0.0408
  215MOL0    Cl28935   4.562  10.681   6.727  0.4710 -0.4982 -0.0174
  215MOL0     C28936   5.685  10.181   6.297  0.4807 -0.1342  0.1184
  215MOL0     C28937   5.807  10.110   6.282 -1.0269  0.0892 -0.0425
  215MOL0     O28938   5.879   9.754   6.339 -0.3474  0.0167 -0.1979
  215MOL0     C28939   6.227   9.834   6.365 -0.5761  0.0721  0.6465
  215MOL0     C28940   6.356   9.777   6.357 -0.3177  0.2341 -0.3343
  215MOL0     N28941   6.806   9.705   6.773 -0.2439  0.2950  0.5558
  215MOL0     N28942   6.900   9.772   6.820  0.3492 -0.5223  0.4414
  215MOL0     C28943   8.153  10.174   7.030  1.1888 -0.0456  0.6091
  215MOL0     C28944   8.287  10.175   6.984 -0.8414  1.4535 -0.2874
  215MOL0     C28945   8.650  10.086   6.708  0.4846 -0.1327  0.5946
  215MOL0     C28946   8.702  10.076   6.575  0.5572  0.0472  0.2703
  215MOL0     C28947   8.841  10.081   6.556  0.3583  0.1946 -0.8707
  215MOL0     C28948   8.921  10.089   6.673  0.1696 -0.1637 -0.1715
  215MOL0     O28949   9.057  10.086   6.636 -0.6933  0.5738 -0.4949
  215MOL0     C28950   9.156  10.127   6.736  0.3157  1.1318 -0.8399
  215MOL0     C28951   9.297  10.106   6.685 -0.4081 -0.1362  0.2600
  215MOL0     C28952   9.353  10.205   6.579 -0.0789 -0.4308 -0.4713
  215MOL0     C28953   9.480  10.138   6.520 -0.5283 -0.4580  0.0592
  215MOL0     C28954   9.556  10.224   6.428  0.7288 -0.7161  0.3597
  215MOL0     C28955   9.619  10.299   6.361 -0.4304 -0.4999 -0.6409
  215MOL0     C28956   8.873  10.107   6.807 -0.0696 -0.3256 -0.0828
  215MOL0     C28957   8.735  10.099   6.818 -0.8944  0.1705 -0.1308
  215MOL0     H28958   8.252   9.966   6.721  1.0788  0.7957  0.3667
  215MOL0     H28959   8.023   9.968   6.790  0.5528 -0.5485  1.1763
  215MOL0     H28960   7.743  10.121   6.937  1.0959  1.1358 -0.9322
  215MOL0     H28961   7.834  10.018   6.841  0.1092 -0.0690  0.2862
  215MOL0     H28962   7.843   9.845   6.997 -1.1398  0.3698  0.7542
  215MOL0     H28963   7.754   9.932   7.119  2.1736 -1.4980  1.5814
  215MOL0     H28964   7.581   9.954   6.906 -0.3634 -0.5296 -1.5246
  215MOL0     H28965   7.667   9.798   6.876  3.6744  0.6474  1.4413
  215MOL0     H28966   7.604   9.735   7.114 -0.3365 -0.8577 -1.2510
  215MOL0     H28967   7.513   9.884   7.125 -4.1358 -1.8805  0.7176
  215MOL0     H28968   7.469   9.656   6.929  0.1031 -0.4259  0.6241
  215MOL0     H28969   7.375   9.689   7.073 -0.4421  1.1246 -0.0881
  215MOL0     H28970   7.286   9.903   6.970 -3.5074 -0.6498 -1.7713
  215MOL0     H28971   7.382   9.854   6.823  3.3242 -2.4632 -0.1690
  215MOL0     H28972   7.239   9.638   6.835  1.1581  0.1436  0.6496
  215MOL0     H28973   7.148   9.724   6.964  1.7367  1.8915  1.3864
  215MOL0     H28974   7.197   9.810   6.680  0.1236  3.0681  0.3480
  215MOL0     H28975   7.129   9.927   6.796 -0.6911  0.4030  1.4015
  215MOL0     H28976   7.031   9.634   6.548  1.3695  1.7676 -1.1959
  215MOL0     H28977   6.788   9.547   6.483 -1.6690 -0.3614 -0.1068
  215MOL0     H28978   6.800   9.436   6.622 -0.6992  0.2556  0.0748
  215MOL0     H28979   6.575   9.635   6.580 -0.3792 -1.2674 -1.0657
  215MOL0     H28980   6.593   9.520   6.718 -0.5018 -3.2766 -0.3715
  215MOL0     H28981   6.416   9.449   6.558 -0.4385 -0.5529  0.2652
  215MOL0     H28982   6.554   9.333   6.550 -3.1421 -0.2593  1.4211
  215MOL0     H28983   6.482   9.406   6.311 -1.9430  0.7062  0.7929
  215MOL0     H28984   6.642   9.439   6.364  0.0082 -0.7811  0.1750
  215MOL0     H28985   6.294   9.453   6.346  0.2371 -0.3336  0.0388
  215MOL0     H28986   5.981   9.481   6.322  0.6239  2.0241 -0.7077
  215MOL0     H28987   6.077   9.437   6.464  0.7516 -1.0991 -2.5965
  215MOL0     H28988   5.950   9.571   6.474  0.1122  0.1788 -0.3380
  215MOL0     H28989   5.782   9.915   6.564  0.5493 -1.5654 -0.4377
  215MOL0     H28990   5.570  10.044   6.593  1.0804 -2.4084 -0.3819
  215MOL0     H28991   5.350  10.123   6.527  0.4010 -0.9793  0.4093
  215MOL0     H28992   5.450  10.227   6.628  1.3390  1.9793 -0.6001
  215MOL0     H28993   5.320  10.429   6.527 -2.7349  1.2782 -1.1654
  215MOL0     H28994   5.199  10.319   6.461  0.0143  0.1649 -0.0360
  215MOL0     H28995   5.273  10.338   6.755 -1.1240  0.2586  1.7913
  215MOL0     H28996   5.171  10.215   6.693  0.1820 -0.4502 -1.8671
  215MOL0     H28997   5.016  10.377   6.609 -0.1716 -3.2877  0.8571
  215MOL0     H28998   5.034  10.378   6.789 -1.7164  0.3954  0.3247
  215MOL0     H28999   5.178  10.581   6.619 -0.4283 -0.6041  0.9348
  215MOL0     H29000   5.136  10.591   6.787  0.4716 -0.1050  1.1552
  215MOL0     H29001   4.995  10.741   6.674  0.2895 -0.0159  0.6572
  215MOL0     H29002   4.962  10.624   6.541 -3.6987 -1.3055  0.0955
  215MOL0     H29003   4.859  10.607   6.836 -2.4069 -2.9705  0.6882
  215MOL0     H29004   4.819  10.500   6.708  1.5644 -0.8236 -0.0026
  215MOL0     H29005   4.721  10.687   6.557  0.5330  0.2783 -0.0412
  215MOL0     H29006   4.754  10.804   6.679 -0.3322  0.5357 -3.4188
  215MOL0     H29007   5.640  10.240   6.217  1.5892 -0.2312 -0.5975
  215MOL0     H29008   5.881  10.112   6.203 -0.4496  0.5182  0.4985
  215MOL0     H29009   6.225   9.943   6.373 -2.2363  0.3031 -1.6531
  215MOL0     H29010   6.444   9.840   6.359 -2.1585  3.1274 -2.2429
  215MOL0     H29011   8.123  10.238   7.112  1.8715  0.5562  0.4076
  215MOL0     H29012   8.360  10.232   7.040  1.0590  0.7514 -1.9226
  215MOL0     H29013   8.643  10.063   6.485  1.3011  0.9535 -0.3791
  215MOL0     H29014   8.865  10.075   6.451 -2.5248 -1.6265 -1.5561
  215MOL0     H29015   9.128  10.232   6.750 -3.6190  0.5600 -2.9064
  215MOL0     H29016   9.136  10.069   6.827  0.5425 -0.3346 -1.6996
  215MOL0     H29017   9.301  10.005   6.644 -1.6664 -0.3989  0.7401
  215MOL0     H29018   9.358  10.111   6.775 -2.1277  0.3275  1.4489
  215MOL0     H29019   9.386  10.299   6.624  0.1978  0.4183 -2.3568
  215MOL0     H29020   9.271  10.221   6.508 -2.1323  2.2269  2.2150
  215MOL0     H29021   9.437  10.053   6.466  1.3200 -0.4370 -1.5645
  215MOL0     H29022   9.549  10.108   6.599  3.8127 -1.8266 -3.8094
  215MOL0     H29023   9.685  10.364   6.308  0.7571  1.6451  3.0866
  215MOL0     H29024   8.935  10.115   6.896 -0.9121 -1.5965  0.6386
  215MOL0     H29025   8.693  10.110   6.918 -1.5615  2.9011 -0.6349
  216MOL0     O29026   0.348   4.509   3.468 -0.5248  0.4009 -0.2989
  216MOL0     C29027   0.462   4.461   3.452 -0.2334 -0.1342 -0.0782
  216MOL0     O29028   0.557   4.505   3.365  0.3293 -0.1309  0.3850
  216MOL0     C29029   0.511   4.598   3.274  0.4038 -0.0868  0.5821
  216MOL0     C29030   0.608   4.686   3.237 -0.9281 -0.5503 -0.3972
  216MOL0     C29031   0.586   4.769   3.127 -0.1754 -0.2193  0.5574
  216MOL0     C29032   0.468   4.784   3.062  0.8349  0.4406  0.0735
  216MOL0     O29033   0.461   4.886   2.972  0.0761  0.4069  0.5684
  216MOL0     C29034   0.333   4.920   2.921  0.3995 -0.3057 -0.7346
  216MOL0     C29035   0.311   4.832   2.801  0.0141  0.0462  0.0620
  216MOL0     C29036   0.183   4.873   2.726  0.6223 -0.1869 -0.4115
  216MOL0     C29037   0.054   4.818   2.796 -0.6613 -0.1661  0.0535
  216MOL0     C29038   0.035   4.665   2.804  0.6364 -0.1544  0.4202
  216MOL0     C29039  -0.093   4.625   2.882 -0.8645 -0.1397 -0.4266
  216MOL0     C29040  -0.046   4.610   3.028  0.0510 -0.4027 -0.1453
  216MOL0     C29041  -0.151   4.539   3.118 -0.0197  0.4646 -0.1634
  216MOL0     N29042  -0.286   4.592   3.103  0.3262 -0.1908 -0.1653
  216MOL0     C29043  -0.389   4.521   3.044  0.0279  0.0317 -0.2577
  216MOL0     C29044  -0.496   4.604   3.052  0.3348  0.0723 -0.4773
  216MOL0     C29045  -0.631   4.554   3.007 -0.6833 -0.2410 -0.9411
  216MOL0     C29046  -0.685   4.626   2.883 -0.7061  0.6628  0.7796
  216MOL0     C29047  -0.813   4.583   2.829 -0.8888  0.6074  0.1733
  216MOL0     C29048  -0.814   4.463   2.728 -0.3815 -0.2581 -0.0080
  216MOL0     O29049  -0.785   4.346   2.816  0.6987 -0.0146  0.4789
  216MOL0     C29050  -0.897   4.278   2.855  0.3282 -0.6123  0.6653
  216MOL0     C29051  -0.929   4.286   2.989 -1.1626 -1.0536 -0.5887
  216MOL0     C29052  -1.055   4.239   3.027  0.3213  0.3588  0.5229
  216MOL0     C29053  -1.089   4.247   3.182  0.3626  0.3040 -0.0682
  216MOL0     C29054  -1.142   4.183   2.927  0.3113  1.2815 -0.7766
  216MOL0     C29055  -1.281   4.137   2.956 -0.2566 -0.8563 -0.6019
  216MOL0     O29056  -1.347   4.051   2.868 -0.7218 -0.3626 -0.0054
  216MOL0     C29057  -1.478   4.044   2.873  0.5778 -0.0222 -0.0511
  216MOL0     C29058  -1.555   4.120   2.782 -0.6805  0.0951  0.3739
  216MOL0     C29059  -1.694   4.130   2.786 -0.2454  0.6990 -0.4243
  216MOL0     C29060  -1.763   4.047   2.881 -0.4007  0.0604  0.2674
  216MOL0     O29061  -1.901   4.040   2.894 -0.2898  0.2999 -0.4712
  216MOL0     C29062  -1.985   4.118   2.806  0.0262 -0.1487 -0.1581
  216MOL0     C29063  -2.128   4.071   2.809  0.1148  0.0295 -0.2705
  216MOL0     C29064  -2.200   4.101   2.945 -0.2547  0.0619 -0.5147
  216MOL0     C29065  -2.335   4.026   2.962  0.0201  0.5200  0.7170
  216MOL0     C29066  -2.429   4.085   2.868 -0.3201 -0.1742  0.1221
  216MOL0     C29067  -2.556   4.012   2.871 -0.2126  0.4513  0.5621
  216MOL0     C29068  -2.652   4.075   2.766  0.1865 -0.5127 -0.6737
  216MOL0     C29069  -2.775   3.989   2.755 -0.1243  0.5505 -0.3087
  216MOL0    Cl29070  -2.906   4.038   2.655  0.3262  0.6180 -0.2105
  216MOL0     C29071  -1.689   3.974   2.975  0.1669 -0.0067 -0.0321
  216MOL0     C29072  -1.547   3.970   2.964 -0.5210  1.4774 -0.3219
  216MOL0     O29073  -1.331   4.189   3.053 -0.1463  0.0349 -1.0781
  216MOL0     C29074  -1.100   4.161   2.796 -0.8623 -0.0325 -0.9872
  216MOL0     C29075  -0.972   4.218   2.759  0.3628 -0.4441  0.4239
  216MOL0     N29076  -0.459   4.715   3.134 -0.3111  0.7433  0.2948
  216MOL0     N29077  -0.333   4.704   3.160  0.5060 -0.3418 -0.3834
  216MOL0     C29078   0.368   4.692   3.093 -0.4163 -0.8069  0.0262
  216MOL0     C29079   0.396   4.601   3.194  0.1795  0.5660 -0.3436
  216MOL0     C29080   0.510   4.372   3.562  0.3657 -0.3769 -0.7985
  216MOL0     C29081   0.426   4.284   3.636  0.6295 -1.0102 -0.0348
  216MOL0     C29082   0.469   4.205   3.746  0.5302 -0.6076 -0.0760
  216MOL0     C29083   0.607   4.196   3.779  0.3044 -1.1122  0.9772
  216MOL0     O29084   0.659   4.104   3.860 -0.2888  0.1568  0.4479
  216MOL0     C29085   0.803   4.102   3.865  0.1581  0.9016 -0.8527
  216MOL0     C29086   0.850   3.993   3.965  0.0594  0.4683 -0.4152
  216MOL0     C29087   0.830   3.847   3.910 -0.3003 -0.0863 -0.1198
  216MOL0     C29088   0.898   3.742   4.013  0.0953  0.0674  0.8695
  216MOL0     C29089   0.806   3.645   4.057 -0.0686 -0.2244 -0.0657
  216MOL0     C29090   0.721   3.579   4.113  0.4612 -1.1143  0.0622
  216MOL0     C29091   0.683   4.294   3.712 -0.0014 -0.1278  0.4371
  216MOL0     C29092   0.638   4.383   3.614  0.2352 -0.4893  0.9191
  216MOL0     H29093   0.709   4.695   3.276 -0.4725  3.6151 -2.1016
  216MOL0     H29094   0.661   4.843   3.099  0.0997  0.3624  2.6312
  216MOL0     H29095   0.251   4.909   2.992 -0.2724 -0.2348 -1.4809
  216MOL0     H29096   0.350   5.023   2.890 -0.6203  0.0452 -0.1640
  216MOL0     H29097   0.395   4.850   2.733 -0.4227 -1.9465 -1.0829
  216MOL0     H29098   0.310   4.726   2.826 -2.9940 -0.0495 -0.1094
  216MOL0     H29099   0.193   4.982   2.730  2.0919 -0.3432  2.5273
  216MOL0     H29100   0.187   4.852   2.618 -3.4123 -0.2932 -0.6732
  216MOL0     H29101   0.053   4.866   2.895  0.3199 -0.0066 -0.0029
  216MOL0     H29102  -0.035   4.852   2.744 -2.0410  0.1898  2.5047
  216MOL0     H29103   0.030   4.615   2.708 -0.0310  2.2907 -0.9149
  216MOL0     H29104   0.129   4.631   2.847  2.2163  0.6601 -2.2056
  216MOL0     H29105  -0.174   4.698   2.877  0.7380  1.6387 -1.4745
  216MOL0     H29106  -0.132   4.533   2.837  1.2173 -0.2792 -2.0952
  216MOL0     H29107   0.047   4.551   3.035  0.4091  0.1758  0.0578
  216MOL0     H29108  -0.019   4.708   3.067  0.6689 -0.1635 -1.1378
  216MOL0     H29109  -0.130   4.548   3.225  4.0919 -0.6885 -0.6777
  216MOL0     H29110  -0.155   4.430   3.105  2.0226  0.1205  1.3966
  216MOL0     H29111  -0.376   4.428   2.990  1.9061  1.1438 -1.8572
  216MOL0     H29112  -0.619   4.448   2.985 -0.5194 -0.5926  0.7242
  216MOL0     H29113  -0.707   4.579   3.082 -0.3684 -1.9537 -0.0073
  216MOL0     H29114  -0.613   4.623   2.801  0.4521  0.6029  1.7570
  216MOL0     H29115  -0.698   4.730   2.916 -0.8101 -0.0012  3.0213
  216MOL0     H29116  -0.852   4.667   2.771 -2.2261 -0.2492 -0.2116
  216MOL0     H29117  -0.895   4.561   2.899 -1.9692 -1.6677 -1.6902
  216MOL0     H29118  -0.725   4.473   2.665  1.2595 -1.0634  2.0527
  216MOL0     H29119  -0.904   4.460   2.666 -0.3624  1.2890 -0.1381
  216MOL0     H29120  -0.874   4.318   3.077  0.2328 -5.3574  0.3864
  216MOL0     H29121  -1.187   4.289   3.206  0.5006  0.4636  0.2317
  216MOL0     H29122  -1.074   4.151   3.234  4.7791  2.0955  2.5401
  216MOL0     H29123  -1.019   4.312   3.236 -1.1362  3.0458 -1.2462
  216MOL0     H29124  -1.498   4.162   2.699 -0.8776 -0.6633 -0.1611
  216MOL0     H29125  -1.746   4.177   2.703 -2.7099  0.5019  0.9186
  216MOL0     H29126  -1.975   4.221   2.841 -1.8112 -0.2222  0.7371
  216MOL0     H29127  -1.951   4.122   2.702  0.9931 -1.6134  0.0770
  216MOL0     H29128  -2.181   4.114   2.723 -0.2690 -0.4724 -0.2906
  216MOL0     H29129  -2.113   3.965   2.785  1.2787  0.2625 -0.6613
  216MOL0     H29130  -2.221   4.207   2.959  2.1853  0.5770 -0.4456
  216MOL0     H29131  -2.123   4.071   3.016  1.5988  1.3250 -1.9009
  216MOL0     H29132  -2.318   3.919   2.945  1.0475  1.1035 -2.4159
  216MOL0     H29133  -2.372   4.046   3.063  1.0442  0.9569  1.0199
  216MOL0     H29134  -2.384   4.084   2.768  0.1312 -3.6927  0.2346
  216MOL0     H29135  -2.448   4.188   2.900 -0.6511 -0.5655  1.2430
  216MOL0     H29136  -2.549   3.906   2.849 -1.5719  0.5397 -0.4532
  216MOL0     H29137  -2.592   4.019   2.974 -1.7554 -0.4637  0.1230
  216MOL0     H29138  -2.602   4.086   2.670  1.3415  0.7343  0.0300
  216MOL0     H29139  -2.694   4.173   2.793 -1.4330 -1.8831  2.2581
  216MOL0     H29140  -2.817   3.972   2.855 -2.8773  1.0091 -1.2962
  216MOL0     H29141  -2.749   3.887   2.724 -2.4075 -0.1406 -0.1463
  216MOL0     H29142  -1.749   3.931   3.054  1.0248 -0.9968  0.0920
  216MOL0     H29143  -1.485   3.908   3.029 -0.1100  0.4564 -1.6417
  216MOL0     H29144  -1.159   4.103   2.726 -0.7794 -2.6185  0.9500
  216MOL0     H29145  -0.932   4.219   2.658  2.6349  1.1775  1.2431
  216MOL0     H29146   0.270   4.707   3.048  0.2320  0.6077 -1.0114
  216MOL0     H29147   0.316   4.533   3.223  0.1691  1.1807  1.1765
  216MOL0     H29148   0.323   4.276   3.605  1.0908  0.8193 -2.3147
  216MOL0     H29149   0.391   4.147   3.793  0.6474 -1.1660 -0.5656
  216MOL0     H29150   0.847   4.064   3.772  0.9900 -3.7328  1.1698
  216MOL0     H29151   0.848   4.197   3.898  2.3867 -0.4420  0.1909
  216MOL0     H29152   0.797   4.001   4.060  1.5020  1.4200  0.3535
  216MOL0     H29153   0.954   4.022   3.985 -0.3723  1.3693  0.5972
  216MOL0     H29154   0.884   3.837   3.815 -1.6904  1.8849 -1.1733
  216MOL0     H29155   0.723   3.829   3.901 -0.9222  1.5674  2.7255
  216MOL0     H29156   0.949   3.801   4.090  2.6172  0.1112 -0.7141
  216MOL0     H29157   0.956   3.674   3.950 -1.9523  1.1060 -2.3215
  216MOL0     H29158   0.647   3.510   4.146 -0.1027 -1.4070 -1.7182
  216MOL0     H29159   0.783   4.310   3.752  0.2594  1.5086 -0.7534
  216MOL0     H29160   0.700   4.460   3.568 -0.6669  0.0319  0.5542
  217MOL0     O29161   2.329   1.176   6.175  0.0973 -0.0299  0.5410
  217MOL0     C29162   2.294   1.163   6.296 -0.4520  0.9268 -0.2360
  217MOL0     O29163   2.163   1.166   6.346  0.1344 -0.4352 -0.0982
  217MOL0     C29164   2.054   1.135   6.261 -0.2016 -0.2747  0.2790
  217MOL0     C29165   1.934   1.129   6.335 -0.3441 -0.0635  0.7181
  217MOL0     C29166   1.808   1.102   6.267 -0.2524 -0.3386 -0.4160
  217MOL0     C29167   1.807   1.082   6.130  0.8785  0.1764  0.3279
  217MOL0     O29168   1.696   1.039   6.056  0.2828  0.6828 -0.2032
  217MOL0     C29169   1.567   1.057   6.112  0.7327  0.2878 -0.6837
  217MOL0     C29170   1.467   1.011   6.001 -1.1091 -0.4515 -0.4702
  217MOL0     C29171   1.322   1.006   6.066 -1.1821  0.2275 -0.0187
  217MOL0     C29172   1.221   0.938   5.968 -0.2815  0.2385 -0.1485
  217MOL0     C29173   1.082   0.946   6.022 -0.5911 -0.7612  0.0093
  217MOL0     C29174   0.986   0.853   5.937  0.1314  0.0311 -0.2372
  217MOL0     C29175   0.842   0.869   5.988  0.5491  0.3990  0.2347
  217MOL0     C29176   0.756   0.765   5.908  0.2432 -0.5816 -0.5916
  217MOL0     N29177   0.624   0.750   5.973  0.8303 -0.3287  0.1727
  217MOL0     C29178   0.520   0.837   5.946 -0.4173 -0.4111  0.0546
  217MOL0     C29179   0.412   0.770   5.992 -0.1841  0.5154 -0.2656
  217MOL0     C29180   0.274   0.807   5.993  0.3177 -0.3593 -0.7221
  217MOL0     C29181   0.254   0.957   6.037 -0.4852 -0.0902 -0.4809
  217MOL0     C29182   0.254   1.066   5.932  0.2141 -0.4088 -0.5219
  217MOL0     C29183   0.120   1.070   5.863  0.4305  1.0287 -0.2705
  217MOL0     O29184   0.099   1.178   5.775 -0.4449  0.5798  0.3491
  217MOL0     C29185  -0.028   1.185   5.735  0.3382  0.2118  0.8001
  217MOL0     C29186  -0.055   1.302   5.669 -0.3539  0.0546  0.2912
  217MOL0     C29187  -0.180   1.334   5.618 -0.2158  0.4503 -0.3508
  217MOL0     C29188  -0.203   1.458   5.534 -0.6684 -0.0597 -0.9744
  217MOL0     C29189  -0.294   1.248   5.643 -0.1461 -0.4541 -0.2994
  217MOL0     C29190  -0.435   1.265   5.607  0.5364  0.5870 -1.0685
  217MOL0     O29191  -0.463   1.338   5.494  0.2761 -0.1643  0.5057
  217MOL0     C29192  -0.592   1.388   5.478 -0.7461  0.0315 -0.0222
  217MOL0     C29193  -0.693   1.289   5.452  0.0164 -0.0257 -0.1538
  217MOL0     C29194  -0.828   1.337   5.445  0.5762  0.2915 -0.5530
  217MOL0     C29195  -0.870   1.470   5.468 -1.0240 -0.2201  0.3022
  217MOL0     O29196  -0.989   1.515   5.451 -0.0949  0.2849 -0.7706
  217MOL0     C29197  -1.086   1.440   5.382 -0.0709 -0.0881 -0.6155
  217MOL0     C29198  -1.198   1.536   5.342  0.4895 -0.0025 -1.0304
  217MOL0     C29199  -1.152   1.640   5.234  0.6528 -0.7290  0.5381
  217MOL0     C29200  -1.261   1.753   5.215  0.0513  0.5280 -0.4164
  217MOL0     C29201  -1.241   1.860   5.105 -0.0691 -0.0845  0.2313
  217MOL0     C29202  -1.257   1.790   4.968  0.1251 -0.7930 -0.0327
  217MOL0     C29203  -1.250   1.892   4.855  0.5196 -0.0769  0.0657
  217MOL0     C29204  -1.281   1.839   4.718  0.8207 -0.1187 -0.5685
  217MOL0    Cl29205  -1.226   1.946   4.593 -0.4178 -0.3248  0.3115
  217MOL0     C29206  -0.767   1.564   5.485  0.1355  0.5820  0.9832
  217MOL0     C29207  -0.634   1.519   5.490  0.3482 -0.4005 -0.1191
  217MOL0     O29208  -0.520   1.197   5.668 -0.2957 -0.8654 -0.3590
  217MOL0     C29209  -0.263   1.132   5.709 -0.6135  0.2210 -0.3926
  217MOL0     C29210  -0.133   1.096   5.740  0.7536 -0.4672 -0.3581
  217MOL0     N29211   0.454   0.642   6.038  0.4248 -0.6723  0.1729
  217MOL0     N29212   0.576   0.638   6.026 -0.3328  1.1401 -0.9665
  217MOL0     C29213   1.924   1.096   6.060 -0.3475  0.9625 -0.5617
  217MOL0     C29214   2.041   1.124   6.120 -0.4805  0.1012  0.7136
  217MOL0     C29215   2.398   1.150   6.400 -0.3639 -0.2908  0.7494
  217MOL0     C29216   2.539   1.140   6.360 -0.2725  0.4008 -0.0478
  217MOL0     C29217   2.641   1.134   6.452 -0.1145 -0.0615  0.1340
  217MOL0     C29218   2.617   1.143   6.586 -0.6021 -0.6953  0.0683
  217MOL0     O29219   2.715   1.127   6.676 -0.1271  0.0759 -0.9141
  217MOL0     C29220   2.851   1.080   6.650  0.4486 -0.2418  0.1595
  217MOL0     C29221   2.856   0.936   6.612 -0.5268 -0.5196 -0.1066
  217MOL0     C29222   2.887   0.850   6.735 -0.6706 -0.5650  0.1287
  217MOL0     C29223   2.948   0.707   6.714 -0.6000  0.5887 -0.2604
  217MOL0     C29224   2.980   0.660   6.853  0.3606  0.0183 -0.0970
  217MOL0     C29225   3.012   0.615   6.963 -0.4169 -0.0858  0.1043
  217MOL0     C29226   2.491   1.168   6.634  0.3214 -0.0391 -0.3775
  217MOL0     C29227   2.383   1.179   6.540  0.2168 -1.1444 -0.0118
  217MOL0     H29228   1.938   1.130   6.443 -1.2578  1.6325  0.7779
  217MOL0     H29229   1.716   1.094   6.325 -0.4407  3.8706  0.2499
  217MOL0     H29230   1.554   0.990   6.197 -1.4659  0.6917 -0.6284
  217MOL0     H29231   1.544   1.160   6.139 -1.0639 -0.5740  1.3266
  217MOL0     H29232   1.456   1.071   5.910  0.5407  3.2803  1.5775
  217MOL0     H29233   1.498   0.910   5.972 -0.2957 -0.0882 -0.8845
  217MOL0     H29234   1.321   0.946   6.158 -1.2856  1.4505  0.8006
  217MOL0     H29235   1.301   1.111   6.089 -1.1325  0.1254  0.5205
  217MOL0     H29236   1.234   0.991   5.874 -2.8510 -0.1645 -0.7930
  217MOL0     H29237   1.243   0.832   5.955  0.8158 -0.2007  3.9053
  217MOL0     H29238   1.077   0.914   6.126 -0.7271  1.4249  0.7352
  217MOL0     H29239   1.045   1.049   6.022 -0.2893 -0.5971 -2.5103
  217MOL0     H29240   0.991   0.885   5.833 -2.0035  0.8219 -0.1594
  217MOL0     H29241   1.006   0.746   5.945  1.5608  0.3136  0.1928
  217MOL0     H29242   0.828   0.843   6.093  0.0265 -1.4075 -0.2496
  217MOL0     H29243   0.798   0.966   5.962 -0.8189  0.1656  1.5532
  217MOL0     H29244   0.796   0.663   5.902 -4.3950 -2.6181 -2.2638
  217MOL0     H29245   0.756   0.799   5.804 -0.2300  0.0668 -0.3855
  217MOL0     H29246   0.514   0.939   5.909 -3.0140  1.1194  3.9646
  217MOL0     H29247   0.238   0.787   5.891  3.2994  0.1296 -1.9695
  217MOL0     H29248   0.224   0.730   6.053 -0.2053  0.1383 -0.5150
  217MOL0     H29249   0.344   0.980   6.096  0.2796 -0.6847 -1.3694
  217MOL0     H29250   0.173   0.966   6.109  1.0560  0.7095  1.2418
  217MOL0     H29251   0.326   1.041   5.853 -0.2558 -2.7017 -0.2922
  217MOL0     H29252   0.277   1.168   5.962 -0.8104 -0.2951 -0.0898
  217MOL0     H29253   0.039   1.077   5.937  0.5070  1.2300 -0.2045
  217MOL0     H29254   0.113   0.973   5.812 -2.2600  0.1487  1.4958
  217MOL0     H29255   0.019   1.376   5.641  0.0551 -0.6185 -0.4308
  217MOL0     H29256  -0.243   1.434   5.435 -0.1301  0.7593 -1.4084
  217MOL0     H29257  -0.264   1.529   5.591  0.0112  1.4051 -2.0092
  217MOL0     H29258  -0.110   1.513   5.516  0.2444 -0.5949  1.6978
  217MOL0     H29259  -0.666   1.186   5.436 -1.2560 -0.4864  0.4578
  217MOL0     H29260  -0.911   1.273   5.415 -0.2419  1.8123 -1.6373
  217MOL0     H29261  -1.034   1.393   5.297 -0.8964  3.0628 -3.0744
  217MOL0     H29262  -1.118   1.365   5.454  2.8437  0.3093  1.2703
  217MOL0     H29263  -1.283   1.485   5.297 -0.9132  0.3577  1.0434
  217MOL0     H29264  -1.237   1.592   5.428 -1.6581 -1.6404 -0.8544
  217MOL0     H29265  -1.132   1.589   5.139 -1.1049  1.3113 -1.0164
  217MOL0     H29266  -1.060   1.692   5.262 -0.1475  0.7120  0.5785
  217MOL0     H29267  -1.355   1.700   5.196  0.8153 -1.1422  0.2588
  217MOL0     H29268  -1.265   1.805   5.312  0.3478 -2.0299  1.0609
  217MOL0     H29269  -1.149   1.919   5.115  0.6131 -0.8617 -1.1328
  217MOL0     H29270  -1.328   1.925   5.108 -0.9960 -1.2178 -0.8273
  217MOL0     H29271  -1.178   1.717   4.950 -0.1543 -1.3511  0.9351
  217MOL0     H29272  -1.356   1.744   4.960  0.1025 -0.5821 -1.1880
  217MOL0     H29273  -1.146   1.924   4.853  1.6555 -3.1132  2.3751
  217MOL0     H29274  -1.316   1.976   4.880 -1.0892 -1.1441 -0.4585
  217MOL0     H29275  -1.387   1.818   4.705  0.6001  1.2182 -1.1314
  217MOL0     H29276  -1.243   1.737   4.704 -0.0442 -0.5601  0.2124
  217MOL0     H29277  -0.791   1.669   5.498  3.8027  1.5510  0.9747
  217MOL0     H29278  -0.552   1.588   5.505  0.4243 -0.8751  1.9435
  217MOL0     H29279  -0.345   1.062   5.724  0.3982 -1.1202 -0.8704
  217MOL0     H29280  -0.115   1.004   5.794 -2.6007 -1.2161 -0.2967
  217MOL0     H29281   1.913   1.068   5.955 -3.7659 -2.3515  0.4718
  217MOL0     H29282   2.125   1.135   6.052 -0.3669 -1.0371  0.6422
  217MOL0     H29283   2.583   1.143   6.261  2.1158 -1.2933  0.8476
  217MOL0     H29284   2.746   1.132   6.425  0.2405 -0.0324  1.4083
  217MOL0     H29285   2.897   1.139   6.571  1.0252  0.2799  0.8735
  217MOL0     H29286   2.921   1.097   6.732  0.6386 -0.8279  0.1202
  217MOL0     H29287   2.933   0.924   6.535 -1.0828  1.0102 -0.9307
  217MOL0     H29288   2.763   0.902   6.563  0.6347 -1.0044 -2.1188
  217MOL0     H29289   2.786   0.835   6.776 -0.5328 -0.0933  0.6443
  217MOL0     H29290   2.955   0.905   6.799  1.1918 -1.9487 -0.5788
  217MOL0     H29291   3.030   0.700   6.641 -1.2496  0.0271 -0.9509
  217MOL0     H29292   2.866   0.649   6.671 -0.1261  0.4706 -1.0451
  217MOL0     H29293   3.050   0.577   7.055  3.1579 -1.3740 -1.7308
  217MOL0     H29294   2.477   1.193   6.738  0.5310  2.2601 -0.8527
  217MOL0     H29295   2.286   1.182   6.588  0.0806  0.9184 -0.3401
  218MOL0     O29296   5.375   6.973  11.132 -0.7530 -0.0711 -0.1994
  218MOL0     C29297   5.356   6.856  11.093 -0.2832  0.3879 -0.0227
  218MOL0     O29298   5.241   6.782  11.111  0.7541  0.6254 -0.6560
  218MOL0     C29299   5.144   6.842  11.184  0.4898 -0.0588 -0.1867
  218MOL0     C29300   5.148   6.829  11.324  0.0402  0.5429  0.6508
  218MOL0     C29301   5.044   6.896  11.385 -0.2933 -0.6491 -0.6510
  218MOL0     C29302   4.946   6.975  11.321 -0.1691 -0.1024 -0.0739
  218MOL0     O29303   4.858   7.042  11.401 -0.0365  0.3863 -0.3734
  218MOL0     C29304   4.807   7.167  11.362  0.2181  0.4258  0.4573
  218MOL0     C29305   4.706   7.212  11.461  1.2729  0.4664  0.4452
  218MOL0     C29306   4.657   7.344  11.408 -0.5279  0.1749 -0.4802
  218MOL0     C29307   4.549   7.335  11.301  1.2095  0.4193 -0.2235
  218MOL0     C29308   4.412   7.292  11.358  0.8209 -0.1695  0.4879
  218MOL0     C29309   4.313   7.269  11.239  0.1476 -0.1330 -0.8112
  218MOL0     C29310   4.176   7.208  11.285 -0.3631 -0.2843  1.4821
  218MOL0     C29311   4.096   7.179  11.159  0.4359 -0.2512 -0.3781
  218MOL0     N29312   3.972   7.117  11.180 -0.2135 -0.0297  0.5012
  218MOL0     C29313   3.950   6.983  11.203 -0.3689  0.6722 -0.1349
  218MOL0     C29314   3.823   6.961  11.164 -0.4827 -0.0118 -0.3395
  218MOL0     C29315   3.756   6.818  11.171  0.2089 -0.3298  0.2201
  218MOL0     C29316   3.600   6.805  11.218  0.5327 -0.0324  0.1186
  218MOL0     C29317   3.492   6.869  11.120 -0.2276  0.6288  0.1550
  218MOL0     C29318   3.356   6.898  11.169  0.7362 -0.0620 -0.7458
  218MOL0     O29319   3.263   6.928  11.060 -0.6362  0.6243 -0.3245
  218MOL0     C29320   3.135   6.979  11.107 -0.2415 -0.6063  0.1340
  218MOL0     C29321   3.082   6.963  11.236  0.5398 -0.1087 -0.4996
  218MOL0     C29322   2.955   7.020  11.274  0.1766  0.1515 -0.4324
  218MOL0     C29323   2.918   7.013  11.423  0.3332 -0.0911  0.1221
  218MOL0     C29324   2.872   7.086  11.172  0.1097 -0.0268 -0.3623
  218MOL0     C29325   2.739   7.141  11.205  0.0809  0.7266  0.3586
  218MOL0     O29326   2.673   7.198  11.100 -0.8925  0.1931  0.1346
  218MOL0     C29327   2.545   7.252  11.120 -0.2354  0.0367 -0.6715
  218MOL0     C29328   2.512   7.342  11.222  0.5342  0.9981 -0.7465
  218MOL0     C29329   2.381   7.394  11.245 -0.3055  0.0282  0.3099
  218MOL0     C29330   2.280   7.343  11.168  0.2442  0.3237  0.3714
  218MOL0     O29331   2.142   7.374  11.183 -0.0414  0.3643  0.0634
  218MOL0     C29332   2.087   7.432  11.300 -0.8517  0.1376 -0.3175
  218MOL0     C29333   2.110   7.346  11.418 -0.6571 -0.0662 -0.8993
  218MOL0     C29334   2.030   7.378  11.543  0.0352  0.5503 -0.0994
  218MOL0     C29335   1.882   7.318  11.527 -0.8451 -0.4005  0.5330
  218MOL0     C29336   1.807   7.356  11.643  0.0890 -0.5560  0.4974
  218MOL0     C29337   1.664   7.297  11.634 -0.2972 -0.0337 -0.2575
  218MOL0     C29338   1.563   7.350  11.735 -0.0163  0.0971  0.5143
  218MOL0     C29339   1.474   7.466  11.680  0.4138  0.4124 -0.0989
  218MOL0    Cl29340   1.322   7.451  11.778  0.0966  0.0304  0.0236
  218MOL0     C29341   2.309   7.241  11.075 -0.0786  0.1405  0.2281
  218MOL0     C29342   2.440   7.202  11.047  0.4837 -0.3027 -0.4167
  218MOL0     O29343   2.683   7.117  11.311 -0.9813 -0.1113  0.5766
  218MOL0     C29344   2.923   7.099  11.041 -0.3744 -0.4285  0.4278
  218MOL0     C29345   3.052   7.043  11.010 -0.7962  0.0836 -0.5334
  218MOL0     N29346   3.765   7.078  11.111 -0.5753 -0.3938  0.0352
  218MOL0     N29347   3.855   7.169  11.125  0.2819 -1.0920 -0.1685
  218MOL0     C29348   4.947   6.985  11.185  0.5697 -0.0922 -0.5048
  218MOL0     C29349   5.046   6.914  11.117 -0.1070 -0.0811 -0.7808
  218MOL0     C29350   5.468   6.795  11.027 -0.5470 -0.3497 -0.0724
  218MOL0     C29351   5.558   6.878  10.957 -0.6830 -0.1884  0.2086
  218MOL0     C29352   5.674   6.821  10.899  0.0689  0.0357 -0.2098
  218MOL0     C29353   5.697   6.683  10.888  0.0672 -0.1871 -0.3489
  218MOL0     O29354   5.806   6.645  10.806  0.1934  0.1716  0.9340
  218MOL0     C29355   5.824   6.500  10.800  0.2647  0.0881  0.3493
  218MOL0     C29356   5.897   6.445  10.921 -0.8507 -0.1816 -0.4645
  218MOL0     C29357   5.966   6.307  10.910 -0.4582  0.9402  0.6098
  218MOL0     C29358   5.975   6.237  11.041 -0.1635  0.3551 -0.8512
  218MOL0     C29359   6.068   6.127  11.017 -0.6421 -0.0949  0.7667
  218MOL0     C29360   6.157   6.047  11.004 -0.1235 -0.7388  0.3894
  218MOL0     C29361   5.614   6.603  10.960 -0.2546  0.8485  0.0598
  218MOL0     C29362   5.499   6.658  11.019  0.5127  0.4609 -0.2892
  218MOL0     H29363   5.226   6.773  11.376 -0.0963  1.0411  1.4150
  218MOL0     H29364   5.060   6.900  11.493  0.1679  0.0506 -0.7413
  218MOL0     H29365   4.896   7.231  11.353  1.5329 -1.5781 -2.7530
  218MOL0     H29366   4.779   7.167  11.257 -0.5104  0.3989  0.6508
  218MOL0     H29367   4.626   7.137  11.468 -0.6571  1.9992 -2.5997
  218MOL0     H29368   4.744   7.230  11.562 -1.5085 -0.1868  1.7064
  218MOL0     H29369   4.609   7.406  11.484  0.7108  0.9437 -0.3067
  218MOL0     H29370   4.739   7.405  11.370 -0.5500  1.8961  2.0147
  218MOL0     H29371   4.542   7.434  11.256  2.6475  1.1469  1.0424
  218MOL0     H29372   4.583   7.262  11.227  0.4200 -1.9017  1.5920
  218MOL0     H29373   4.415   7.202  11.420  3.9475 -1.2695 -1.0527
  218MOL0     H29374   4.377   7.378  11.416  1.1518 -0.1449  0.6518
  218MOL0     H29375   4.308   7.368  11.191 -0.0780 -0.5185 -1.5884
  218MOL0     H29376   4.367   7.206  11.168  0.0902  0.2180 -1.1685
  218MOL0     H29377   4.196   7.119  11.345  0.2148  0.1064  1.8928
  218MOL0     H29378   4.106   7.272  11.340 -2.4348  0.6681 -1.9285
  218MOL0     H29379   4.151   7.118  11.087 -2.9372 -0.9385 -2.5930
  218MOL0     H29380   4.081   7.272  11.104 -1.4683 -1.2255 -1.6133
  218MOL0     H29381   4.021   6.912  11.244 -0.6815  0.1405 -0.5041
  218MOL0     H29382   3.767   6.774  11.071  0.2388  0.0815  0.0397
  218MOL0     H29383   3.821   6.750  11.225 -2.4111 -0.6370  3.3190
  218MOL0     H29384   3.599   6.860  11.313  3.5972 -0.3823  0.4588
  218MOL0     H29385   3.583   6.699  11.239  2.9189 -1.5398 -4.2397
  218MOL0     H29386   3.473   6.814  11.028  0.5420  0.3819  0.1369
  218MOL0     H29387   3.534   6.965  11.088  3.7411 -0.8100  0.5169
  218MOL0     H29388   3.371   6.979  11.240  2.6809 -0.6042 -0.4695
  218MOL0     H29389   3.317   6.811  11.224  4.8379 -1.2548  0.7178
  218MOL0     H29390   3.134   6.905  11.312 -2.7537 -1.5445  0.8690
  218MOL0     H29391   2.879   7.110  11.454  0.0611  0.0047 -0.5000
  218MOL0     H29392   2.833   6.944  11.427  0.8199 -0.7006  0.1665
  218MOL0     H29393   2.993   6.975  11.493 -0.3238 -0.0672  0.8513
  218MOL0     H29394   2.588   7.361  11.297  0.1149 -2.3189  0.7113
  218MOL0     H29395   2.351   7.473  11.312  0.0450  0.2470  0.2071
  218MOL0     H29396   2.125   7.533  11.319 -1.1289 -0.0770  1.6154
  218MOL0     H29397   1.978   7.440  11.297 -0.9921 -1.7714 -1.9109
  218MOL0     H29398   2.088   7.242  11.392  0.5084 -0.7710  0.7742
  218MOL0     H29399   2.216   7.352  11.444 -0.6271  2.5197 -1.2940
  218MOL0     H29400   2.033   7.487  11.552 -0.6819  0.5835 -0.2043
  218MOL0     H29401   2.082   7.334  11.628  1.7837  0.4478 -1.1928
  218MOL0     H29402   1.834   7.353  11.436  1.2469  0.5367 -0.2753
  218MOL0     H29403   1.891   7.209  11.524  2.9936 -0.1987 -0.7487
  218MOL0     H29404   1.805   7.466  11.647  3.5684 -0.2867 -1.2903
  218MOL0     H29405   1.860   7.324  11.733  1.0985 -2.9728 -0.8926
  218MOL0     H29406   1.620   7.329  11.539  0.5240 -0.2198 -0.7127
  218MOL0     H29407   1.676   7.189  11.637 -0.8903 -0.0900  0.1931
  218MOL0     H29408   1.617   7.386  11.823 -0.0976  1.0543  0.1835
  218MOL0     H29409   1.493   7.271  11.765 -2.5657  2.5777  1.6415
  218MOL0     H29410   1.435   7.448  11.580  0.6926 -0.7502 -0.0204
  218MOL0     H29411   1.513   7.567  11.697 -0.7945  0.6798  1.2913
  218MOL0     H29412   2.223   7.187  11.037 -0.3091  0.8839 -0.3361
  218MOL0     H29413   2.467   7.121  10.980  0.8594 -0.4189 -0.1305
  218MOL0     H29414   2.873   7.156  10.963  1.3646  2.5261  1.3189
  218MOL0     H29415   3.084   7.050  10.907  3.2504 -3.4926  0.1510
  218MOL0     H29416   4.870   7.038  11.131 -0.3559 -1.6491 -0.7970
  218MOL0     H29417   5.058   6.935  11.011  0.2428  1.4957 -0.4382
  218MOL0     H29418   5.539   6.984  10.951  1.6225  0.1905 -3.3449
  218MOL0     H29419   5.747   6.886  10.851  2.2306 -0.3793  2.2857
  218MOL0     H29420   5.728   6.451  10.783  0.6814  0.2231 -3.0384
  218MOL0     H29421   5.881   6.467  10.713  0.0860 -4.7329  1.7916
  218MOL0     H29422   5.837   6.450  11.012  1.4561  2.6067  1.0628
  218MOL0     H29423   5.977   6.518  10.935 -2.0821  0.8220  1.8417
  218MOL0     H29424   6.068   6.312  10.873 -0.1705 -1.3552  0.9457
  218MOL0     H29425   5.898   6.251  10.845 -2.2258  1.3153  2.0354
  218MOL0     H29426   5.878   6.207  11.082  1.0890 -1.1479  1.2297
  218MOL0     H29427   6.021   6.306  11.112  0.6031  0.1124 -1.0995
  218MOL0     H29428   6.238   5.978  10.991 -0.5226 -0.6827 -3.7300
  218MOL0     H29429   5.611   6.495  10.961 -1.7078  0.8649  0.0502
  218MOL0     H29430   5.419   6.589  11.044 -0.4579  0.7389 -2.3650
  219MOL0     O29431   6.481  10.338  10.933 -0.3996 -0.5001 -0.1122
  219MOL0     C29432   6.470  10.221  10.906 -0.5618  0.0941  0.0929
  219MOL0     O29433   6.354  10.173  10.854 -0.4025  0.3532 -0.1697
  219MOL0     C29434   6.239  10.233  10.863  0.6333 -0.2301 -0.4618
  219MOL0     C29435   6.193  10.290  10.981  0.5662  0.5680  0.0406
  219MOL0     C29436   6.066  10.345  10.990  0.6364  0.6108  1.0469
  219MOL0     C29437   5.987  10.358  10.874  0.4614  0.2205  0.5675
  219MOL0     O29438   5.864  10.413  10.885 -0.0518 -0.0188 -0.2816
  219MOL0     C29439   5.842  10.541  10.817  1.0379  0.9177  0.2584
  219MOL0     C29440   5.726  10.618  10.876 -0.2153  0.4874 -0.0159
  219MOL0     C29441   5.595  10.537  10.860  0.7142 -0.4011 -0.0774
  219MOL0     C29442   5.470  10.622  10.856  0.2339 -0.5100 -0.5256
  219MOL0     C29443   5.437  10.663  10.711  0.2069  0.5856  0.7123
  219MOL0     C29444   5.410  10.809  10.693 -0.1977 -0.0019 -0.3160
  219MOL0     C29445   5.291  10.857  10.766  0.3042  0.0802 -0.0693
  219MOL0     C29446   5.152  10.801  10.711 -0.0471  0.5710 -0.0456
  219MOL0     N29447   5.039  10.861  10.779  0.6305  0.8081 -0.8359
  219MOL0     C29448   4.911  10.863  10.722  0.5494 -0.2098  0.8912
  219MOL0     C29449   4.819  10.866  10.823 -1.1784  0.2417 -0.1033
  219MOL0     C29450   4.672  10.852  10.825 -0.3133  0.1595 -0.5924
  219MOL0     C29451   4.601  10.915  10.952 -0.3888 -0.2120  0.5773
  219MOL0     C29452   4.628  11.071  10.964 -0.0384 -0.4236 -0.9759
  219MOL0     C29453   4.600  11.137  11.096 -0.3716 -0.0861  0.6526
  219MOL0     O29454   4.477  11.102  11.151 -0.2733 -0.3593 -0.0454
  219MOL0     C29455   4.362  11.118  11.084  0.4314 -0.5405 -0.3100
  219MOL0     C29456   4.330  11.220  10.991  0.2141 -0.5446 -0.5229
  219MOL0     C29457   4.202  11.230  10.935  0.2518  0.4802  0.3241
  219MOL0     C29458   4.182  11.329  10.822 -0.0920 -0.6503 -0.0673
  219MOL0     C29459   4.097  11.140  10.968 -0.0279  0.0235 -0.0380
  219MOL0     C29460   3.963  11.127  10.905  0.2335 -0.7738  0.0623
  219MOL0     O29461   3.925  11.218  10.802 -0.6989 -0.1750 -0.1406
  219MOL0     C29462   3.790  11.243  10.780 -0.6071 -1.0071  0.4256
  219MOL0     C29463   3.693  11.216  10.872 -0.3102 -0.2107 -0.5108
  219MOL0     C29464   3.557  11.243  10.846 -0.0752 -0.8296 -0.2553
  219MOL0     C29465   3.520  11.288  10.712  0.0921  0.1791 -0.2739
  219MOL0     O29466   3.400  11.300  10.657 -0.3028  0.8129  0.6848
  219MOL0     C29467   3.301  11.200  10.697  0.2930 -1.1134  0.2787
  219MOL0     C29468   3.187  11.187  10.598 -0.3608 -0.2755  0.2209
  219MOL0     C29469   3.112  11.320  10.574  0.2992  0.2601  0.5004
  219MOL0     C29470   3.002  11.298  10.469 -0.4859  0.0923  0.1117
  219MOL0     C29471   2.955  11.420  10.392  0.7036 -0.7437  0.7410
  219MOL0     C29472   2.859  11.505  10.476  1.2102 -0.1436 -0.2180
  219MOL0     C29473   2.776  11.610  10.402  0.4118 -0.9733  0.4438
  219MOL0     C29474   2.745  11.728  10.494  0.3080  0.2446 -0.9729
  219MOL0    Cl29475   2.639  11.839  10.389 -0.0256  0.4785  0.4116
  219MOL0     C29476   3.627  11.319  10.625 -0.2450 -0.7536 -0.1200
  219MOL0     C29477   3.758  11.291  10.657  0.9172  0.4379 -0.4182
  219MOL0     O29478   3.890  11.044  10.955  0.5731  0.1373 -0.1658
  219MOL0     C29479   4.133  11.038  11.061 -0.8258  0.3041 -0.0453
  219MOL0     C29480   4.270  11.013  11.103  0.0015 -0.7848 -0.0129
  219MOL0     N29481   4.893  10.869  10.938 -0.1461 -0.1655 -0.7484
  219MOL0     N29482   5.017  10.871  10.912  0.4071 -0.4091 -0.4429
  219MOL0     C29483   6.035  10.309  10.755  0.1096 -0.0016  0.0428
  219MOL0     C29484   6.158  10.244  10.751 -0.3571  0.3750 -0.1822
  219MOL0     C29485   6.576  10.114  10.919 -0.8670  0.8593  0.1949
  219MOL0     C29486   6.559   9.986  10.863  0.2802  0.8154 -0.8314
  219MOL0     C29487   6.662   9.888  10.876 -0.1381 -0.1992 -0.1397
  219MOL0     C29488   6.783   9.915  10.936 -0.6240 -0.8298  0.0401
  219MOL0     O29489   6.875   9.818  10.954 -0.3670 -0.2094 -0.1604
  219MOL0     C29490   6.954   9.807  10.839 -0.9828  0.3129  0.2651
  219MOL0     C29491   7.076   9.910  10.840 -0.3064 -1.1583  0.2633
  219MOL0     C29492   7.209   9.873  10.909  0.5351  0.4396 -0.2997
  219MOL0     C29493   7.192   9.841  11.057  0.6238  0.3089  0.7311
  219MOL0     C29494   7.153   9.953  11.139 -0.3995 -0.3418 -0.6993
  219MOL0     C29495   7.121  10.050  11.203 -0.4864  0.3340 -0.3587
  219MOL0     C29496   6.805  10.042  10.991 -0.1323  0.3895  0.0799
  219MOL0     C29497   6.697  10.137  10.984 -0.2728 -0.1241 -0.5240
  219MOL0     H29498   6.261  10.293  11.065 -0.9521 -2.9261  1.5651
  219MOL0     H29499   6.024  10.391  11.079  0.5179 -2.6163  2.8447
  219MOL0     H29500   5.935  10.598  10.810 -0.9425  4.3543  0.1049
  219MOL0     H29501   5.828  10.525  10.710  0.3179 -2.3765  0.7107
  219MOL0     H29502   5.749  10.647  10.979  0.3486 -1.8413  0.5740
  219MOL0     H29503   5.715  10.710  10.817 -0.5627 -0.2875 -1.1844
  219MOL0     H29504   5.607  10.488  10.763 -0.6435 -0.1566 -0.3868
  219MOL0     H29505   5.591  10.461  10.938 -1.9151 -0.5339 -0.2729
  219MOL0     H29506   5.394  10.568  10.913  0.5097 -0.1700  0.1709
  219MOL0     H29507   5.492  10.709  10.918  2.2142 -0.4404 -1.2451
  219MOL0     H29508   5.523  10.632  10.652 -0.0507  0.0633  0.6102
  219MOL0     H29509   5.352  10.604  10.678  1.0428 -1.0521  1.3633
  219MOL0     H29510   5.499  10.857  10.735  0.1823 -1.0611  0.1337
  219MOL0     H29511   5.396  10.817  10.585 -3.8057 -1.2167 -0.0636
  219MOL0     H29512   5.302  10.838  10.873 -0.5057 -2.2245 -0.3417
  219MOL0     H29513   5.297  10.965  10.748  1.3931 -0.5028 -4.4184
  219MOL0     H29514   5.147  10.693  10.728  0.3867  0.9185  2.7526
  219MOL0     H29515   5.144  10.818  10.603 -1.0799 -1.3731 -0.3236
  219MOL0     H29516   4.874  10.846  10.622 -5.1054 -0.3909  2.6938
  219MOL0     H29517   4.619  10.889  10.737 -1.5074 -0.6574 -0.2391
  219MOL0     H29518   4.648  10.745  10.818  1.1564 -0.4672  2.4679
  219MOL0     H29519   4.648  10.869  11.039  0.7870 -0.2756 -0.0759
  219MOL0     H29520   4.493  10.897  10.956 -0.5164  0.7629  3.4686
  219MOL0     H29521   4.565  11.113  10.885 -1.4458 -0.8498 -0.1049
  219MOL0     H29522   4.734  11.096  10.952  0.1128 -1.5146 -2.1061
  219MOL0     H29523   4.613  11.245  11.084  0.5925 -0.1731  0.8436
  219MOL0     H29524   4.683  11.106  11.160  0.5179  1.4514  0.2915
  219MOL0     H29525   4.404  11.290  10.953  0.5106 -0.3548  0.3585
  219MOL0     H29526   4.122  11.416  10.849  2.7778  2.0150 -1.6421
  219MOL0     H29527   4.272  11.384  10.795 -3.1373  3.5914 -3.0880
  219MOL0     H29528   4.155  11.273  10.731  0.9509 -1.5688  0.1744
  219MOL0     H29529   3.720  11.181  10.971  0.2252  0.2695 -0.4805
  219MOL0     H29530   3.478  11.226  10.918  0.0156 -1.3917 -0.2827
  219MOL0     H29531   3.346  11.101  10.710  1.8504 -0.6414 -1.0934
  219MOL0     H29532   3.256  11.228  10.793  0.8513  2.7495 -0.4222
  219MOL0     H29533   3.228  11.139  10.509 -1.3262 -0.9616  0.1224
  219MOL0     H29534   3.110  11.118  10.633 -1.9454  0.8202 -0.9506
  219MOL0     H29535   3.171  11.404  10.538  2.8748 -1.9420 -0.8005
  219MOL0     H29536   3.064  11.354  10.666 -2.6848 -1.7977 -0.1345
  219MOL0     H29537   3.046  11.225  10.401  2.1544  0.7836  0.9537
  219MOL0     H29538   2.922  11.244  10.521  0.1408  1.2537  2.4539
  219MOL0     H29539   2.884  11.389  10.315 -2.7197 -0.1660  3.4108
  219MOL0     H29540   3.041  11.467  10.344  1.4370 -0.6997  2.0573
  219MOL0     H29541   2.792  11.435  10.525  2.8089 -1.8334 -0.3441
  219MOL0     H29542   2.921  11.549  10.555 -1.2742  1.7657  0.7894
  219MOL0     H29543   2.686  11.558  10.370  0.3508  0.9489 -2.8988
  219MOL0     H29544   2.837  11.654  10.322  0.4452 -2.4664 -0.4036
  219MOL0     H29545   2.829  11.783  10.536  0.3481 -1.5148  1.4525
  219MOL0     H29546   2.684  11.693  10.577  1.4539  2.9072  1.1154
  219MOL0     H29547   3.608  11.349  10.523 -0.3675 -1.6007 -0.3525
  219MOL0     H29548   3.841  11.310  10.589  0.8760  0.6632 -0.4084
  219MOL0     H29549   4.064  10.957  11.083  1.0889 -1.0382  1.3895
  219MOL0     H29550   4.296  10.929  11.166 -0.7115  0.4938  2.0816
  219MOL0     H29551   5.976  10.318  10.664 -0.9816  0.6180  0.7847
  219MOL0     H29552   6.187  10.207  10.653 -0.3295 -0.6225  0.1928
  219MOL0     H29553   6.474   9.959  10.801  0.2930  0.2890 -0.6225
  219MOL0     H29554   6.658   9.788  10.832  0.3726  0.1875 -1.0901
  219MOL0     H29555   6.990   9.703  10.837  0.0121  0.6488 -1.0711
  219MOL0     H29556   6.894   9.820  10.749 -0.7297 -1.2238 -0.1593
  219MOL0     H29557   7.046  10.009  10.875 -3.0158 -0.6959 -2.8814
  219MOL0     H29558   7.104   9.938  10.738 -0.6792  2.6960  1.0717
  219MOL0     H29559   7.262   9.969  10.908 -0.0405  0.7610 -1.0992
  219MOL0     H29560   7.247   9.787  10.854 -1.1092 -0.5055 -0.0113
  219MOL0     H29561   7.285   9.802  11.101  0.1841  0.8629  2.2254
  219MOL0     H29562   7.119   9.760  11.064  0.9888  0.0072  1.1233
  219MOL0     H29563   7.086  10.137  11.255  0.5153  1.8578 -2.1286
  219MOL0     H29564   6.899  10.058  11.043 -0.6217  1.7652  0.5756
  219MOL0     H29565   6.719  10.236  11.024 -1.8082 -1.3550  3.8932
  220MOL0     O29566   5.100   3.787   9.081 -0.1153  0.2848  0.1042
  220MOL0     C29567   5.186   3.778   8.986  0.6693 -0.7493  0.3572
  220MOL0     O29568   5.147   3.762   8.854 -1.1656 -0.5026 -0.0294
  220MOL0     C29569   5.012   3.742   8.835 -0.5566  0.2074 -0.8466
  220MOL0     C29570   4.932   3.812   8.747 -0.2979 -0.4830  0.1145
  220MOL0     C29571   4.799   3.778   8.721  0.6706 -0.1094  0.9881
  220MOL0     C29572   4.748   3.666   8.782 -0.9598 -0.0992 -0.0242
  220MOL0     O29573   4.620   3.644   8.755 -0.6001 -0.2795  0.0676
  220MOL0     C29574   4.535   3.576   8.851  0.0416  0.2097 -0.6755
  220MOL0     C29575   4.399   3.641   8.824  0.2604 -0.1415 -0.3887
  220MOL0     C29576   4.287   3.595   8.918 -0.8060 -0.5748 -0.7589
  220MOL0     C29577   4.205   3.479   8.867 -0.1324 -0.5550 -0.5338
  220MOL0     C29578   4.068   3.470   8.937  0.0679 -0.2629  0.4800
  220MOL0     C29579   3.969   3.564   8.863 -0.1477 -0.4618  0.4588
  220MOL0     C29580   3.823   3.527   8.891 -0.2454  0.6005  0.1429
  220MOL0     C29581   3.723   3.623   8.839  0.2410 -0.4037 -0.1706
  220MOL0     N29582   3.700   3.646   8.695 -1.2630 -1.3494 -0.3315
  220MOL0     C29583   3.699   3.547   8.597 -0.2915  0.0881 -0.4454
  220MOL0     C29584   3.712   3.604   8.478 -0.2428 -0.3315  0.0668
  220MOL0     C29585   3.727   3.532   8.342 -0.2856 -0.8282 -0.8751
  220MOL0     C29586   3.585   3.486   8.297 -0.5401 -0.4245  0.2939
  220MOL0     C29587   3.502   3.606   8.237 -0.3075 -0.9949 -0.3439
  220MOL0     C29588   3.369   3.568   8.175 -0.7048  0.5682  0.4340
  220MOL0     O29589   3.275   3.521   8.271  0.2004  0.6730  1.2164
  220MOL0     C29590   3.160   3.464   8.225  0.6337 -0.5064  0.0055
  220MOL0     C29591   3.107   3.472   8.089 -0.0179 -0.2049 -0.3937
  220MOL0     C29592   2.982   3.419   8.060  0.2944  0.3804 -0.1586
  220MOL0     C29593   2.947   3.410   7.911  0.3328 -0.0136 -0.0282
  220MOL0     C29594   2.902   3.356   8.163  0.7137 -0.1365  0.4114
  220MOL0     C29595   2.768   3.298   8.138  0.1620  0.3633 -0.4901
  220MOL0     O29596   2.715   3.215   8.239 -0.2481 -0.5727  0.0030
  220MOL0     C29597   2.581   3.183   8.223  0.7755  0.0290 -0.3342
  220MOL0     C29598   2.484   3.260   8.288  0.2578 -0.0733 -0.6432
  220MOL0     C29599   2.344   3.227   8.276 -0.1185  0.6971  0.4103
  220MOL0     C29600   2.300   3.115   8.208 -0.8196 -0.8752 -0.1512
  220MOL0     O29601   2.169   3.083   8.206  0.8011 -0.3701 -0.5983
  220MOL0     C29602   2.113   3.014   8.092  0.1006  0.5412  0.5093
  220MOL0     C29603   1.962   2.987   8.116 -0.9383 -0.1486  0.0744
  220MOL0     C29604   1.895   2.954   7.982 -0.3711 -0.2384 -0.5385
  220MOL0     C29605   1.825   3.075   7.924 -0.5783  0.0032 -0.6153
  220MOL0     C29606   1.747   3.032   7.801 -0.3104 -0.3190 -1.2229
  220MOL0     C29607   1.604   2.989   7.826  0.0433 -0.2576  0.1111
  220MOL0     C29608   1.547   2.916   7.708  0.3121  0.5125  0.0498
  220MOL0     C29609   1.428   2.837   7.753 -0.1808  0.5677 -0.3040
  220MOL0    Cl29610   1.355   2.758   7.619  0.2761  0.4382 -0.2096
  220MOL0     C29611   2.395   3.047   8.136  0.0775  0.4054 -0.9561
  220MOL0     C29612   2.534   3.071   8.152 -0.5089 -0.4532 -0.0246
  220MOL0     O29613   2.698   3.343   8.050  0.6703  0.3549 -0.3291
  220MOL0     C29614   2.963   3.344   8.294 -0.6950 -0.6754  0.0331
  220MOL0     C29615   3.092   3.396   8.327  0.0202  0.4715  0.1365
  220MOL0     N29616   3.716   3.740   8.506  0.2469  0.2617 -0.0501
  220MOL0     N29617   3.714   3.769   8.634 -0.5412 -0.4563 -0.5391
  220MOL0     C29618   4.827   3.597   8.872  0.0034  0.8060  0.3758
  220MOL0     C29619   4.956   3.634   8.905  0.5007  0.2582  0.3116
  220MOL0     C29620   5.330   3.790   9.019 -0.5737  0.1195  0.6590
  220MOL0     C29621   5.375   3.822   9.147 -0.8223 -0.0656  0.2532
  220MOL0     C29622   5.509   3.852   9.154 -0.3414 -0.4484 -0.6303
  220MOL0     C29623   5.600   3.841   9.048 -1.1719 -0.4152  0.0149
  220MOL0     O29624   5.733   3.873   9.069 -0.6571 -0.0081 -0.1479
  220MOL0     C29625   5.778   3.890   9.200  0.8176 -0.1509  0.3046
  220MOL0     C29626   5.930   3.932   9.203  0.3656 -0.3633  0.5674
  220MOL0     C29627   6.019   3.818   9.156  0.2467  0.4962  0.3291
  220MOL0     C29628   6.051   3.728   9.280 -0.3530 -0.1967 -0.3616
  220MOL0     C29629   6.139   3.625   9.231  0.1257  0.2691 -0.5640
  220MOL0     C29630   6.201   3.525   9.207  0.0114  0.4942 -0.6087
  220MOL0     C29631   5.560   3.795   8.923  0.2311 -0.6834  0.1223
  220MOL0     C29632   5.424   3.763   8.912  1.1892 -0.5732  0.1778
  220MOL0     H29633   4.980   3.899   8.703 -3.7894  0.4305 -2.3330
  220MOL0     H29634   4.731   3.845   8.669  2.5695  0.6292 -0.7003
  220MOL0     H29635   4.528   3.469   8.829  1.1619  0.0842 -0.4870
  220MOL0     H29636   4.570   3.603   8.951 -1.0879  0.3610 -0.3076
  220MOL0     H29637   4.402   3.748   8.848 -0.9487 -0.4602  1.3666
  220MOL0     H29638   4.377   3.638   8.717  0.2074 -1.0805 -0.3551
  220MOL0     H29639   4.337   3.560   9.008  1.9783 -1.8919 -2.6578
  220MOL0     H29640   4.214   3.675   8.930 -0.3510  0.1341 -2.3561
  220MOL0     H29641   4.192   3.478   8.758 -0.5657  1.5173 -0.5467
  220MOL0     H29642   4.246   3.382   8.895 -3.1673 -1.9731 -0.5324
  220MOL0     H29643   4.049   3.363   8.925  2.4815 -0.7287  0.2811
  220MOL0     H29644   4.084   3.493   9.043  1.8434 -1.6683  0.5759
  220MOL0     H29645   3.992   3.667   8.890 -0.7400 -0.7490  2.1766
  220MOL0     H29646   3.972   3.555   8.754  1.6366  1.0892  0.3280
  220MOL0     H29647   3.805   3.425   8.856 -0.1911  0.1475  1.4022
  220MOL0     H29648   3.806   3.520   8.998 -0.1086 -0.7363  0.0943
  220MOL0     H29649   3.738   3.723   8.880  2.1672 -0.0310 -1.6639
  220MOL0     H29650   3.633   3.587   8.890  0.5318 -0.4652  0.3066
  220MOL0     H29651   3.684   3.441   8.612 -0.0514 -0.3547 -2.9539
  220MOL0     H29652   3.764   3.605   8.269  1.6304 -0.2111  0.6331
  220MOL0     H29653   3.798   3.449   8.352 -0.4472 -0.7714  1.0280
  220MOL0     H29654   3.540   3.433   8.381 -0.4538  0.1218  0.6930
  220MOL0     H29655   3.599   3.408   8.222 -2.9211  0.3331 -1.0300
  220MOL0     H29656   3.561   3.661   8.163  0.3119  1.5053  1.8526
  220MOL0     H29657   3.495   3.676   8.321  2.4371  1.7042 -2.1539
  220MOL0     H29658   3.395   3.491   8.101  0.1835  3.1775 -2.1592
  220MOL0     H29659   3.328   3.652   8.118  0.2997  1.3019  0.7691
  220MOL0     H29660   3.166   3.522   8.013 -0.6034 -0.2784 -0.9112
  220MOL0     H29661   2.865   3.478   7.889 -0.6939 -1.0310  0.5219
  220MOL0     H29662   3.029   3.435   7.843 -0.0688 -2.2277 -1.4651
  220MOL0     H29663   2.903   3.312   7.891 -1.0071  0.0171  2.4325
  220MOL0     H29664   2.520   3.341   8.351  1.4870 -1.4906  0.5599
  220MOL0     H29665   2.269   3.274   8.339 -0.5391  3.5062 -1.9905
  220MOL0     H29666   2.129   3.074   8.002 -0.0770  0.7152  0.5915
  220MOL0     H29667   2.159   2.916   8.084 -0.1250  0.5977 -2.2420
  220MOL0     H29668   1.952   2.901   8.184 -3.0529  0.3369  0.4567
  220MOL0     H29669   1.913   3.073   8.161 -0.4561  1.3698 -2.1570
  220MOL0     H29670   1.820   2.879   8.007 -0.3600 -0.7772 -1.9941
  220MOL0     H29671   1.954   2.905   7.904  0.1314 -2.4651  1.1584
  220MOL0     H29672   1.756   3.124   7.995  1.0568 -0.4422  1.3804
  220MOL0     H29673   1.903   3.149   7.908  1.5082 -1.9437  0.0721
  220MOL0     H29674   1.797   2.951   7.747  0.4776 -1.5805  1.1965
  220MOL0     H29675   1.743   3.119   7.735  0.4263  0.2449 -0.5574
  220MOL0     H29676   1.592   2.935   7.920 -3.3521  2.0897  1.1930
  220MOL0     H29677   1.543   3.079   7.837  1.7294  0.8464  0.9750
  220MOL0     H29678   1.620   2.848   7.663  0.0011  0.8353 -0.9734
  220MOL0     H29679   1.525   2.981   7.623  1.6806 -0.0193 -0.7500
  220MOL0     H29680   1.360   2.902   7.808  1.0685  1.8962 -0.2777
  220MOL0     H29681   1.473   2.761   7.818 -0.0992  0.3703 -0.5854
  220MOL0     H29682   2.355   2.955   8.094 -0.5901 -0.1624  0.8586
  220MOL0     H29683   2.601   3.008   8.094 -0.1067  1.0227 -1.2334
  220MOL0     H29684   2.910   3.306   8.380 -0.1058  2.7848  2.0986
  220MOL0     H29685   3.124   3.388   8.430 -0.3206 -0.8306  0.1560
  220MOL0     H29686   4.785   3.521   8.938 -1.5187  2.1164  0.9641
  220MOL0     H29687   5.019   3.580   8.975 -0.3222  1.5981  2.1697
  220MOL0     H29688   5.299   3.835   9.224  0.1334  3.1116  0.8079
  220MOL0     H29689   5.542   3.890   9.250 -1.7210 -1.3158  0.2295
  220MOL0     H29690   5.723   3.979   9.232  0.8635 -0.1265  0.3152
  220MOL0     H29691   5.752   3.799   9.255 -2.6130  1.4248  1.5650
  220MOL0     H29692   5.956   3.961   9.305  1.1163  2.6061 -0.3684
  220MOL0     H29693   5.947   4.028   9.153 -1.0362 -1.3458 -1.9712
  220MOL0     H29694   6.111   3.867   9.127  1.7485 -0.8995  2.4209
  220MOL0     H29695   5.973   3.755   9.079  0.4998 -0.7749  1.1736
  220MOL0     H29696   5.965   3.673   9.320 -1.1775  0.7951 -0.7155
  220MOL0     H29697   6.107   3.779   9.358  1.6455  0.9402 -2.4163
  220MOL0     H29698   6.248   3.433   9.179  1.1900  1.2980 -1.4154
  220MOL0     H29699   5.637   3.775   8.850  1.2272  1.5586  0.4694
  220MOL0     H29700   5.395   3.727   8.813  2.5558 -1.2215 -0.0108
  221MOL0     O29701   7.662   0.804  10.063  0.3788  0.0095 -0.1219
  221MOL0     C29702   7.707   0.772   9.956 -0.3914  0.3170  1.3153
  221MOL0     O29703   7.663   0.822   9.839 -0.2208  0.5072  0.5760
  221MOL0     C29704   7.551   0.896   9.830  0.4763  1.1086  0.7420
  221MOL0     C29705   7.568   1.018   9.765  0.2528  0.2305  1.0957
  221MOL0     C29706   7.460   1.095   9.744 -0.2028 -0.1445  0.4877
  221MOL0     C29707   7.332   1.045   9.760 -0.3049 -0.3880 -0.2282
  221MOL0     O29708   7.227   1.121   9.726  0.0909  0.1053 -0.1329
  221MOL0     C29709   7.093   1.073   9.766 -0.7417 -0.3047  0.0522
  221MOL0     C29710   6.987   1.182   9.762 -0.4849 -0.0966  0.7262
  221MOL0     C29711   7.023   1.296   9.860 -0.1396 -0.1271  0.3911
  221MOL0     C29712   6.924   1.413   9.845 -0.1735 -0.2051  0.2390
  221MOL0     C29713   6.935   1.513   9.961  0.1736 -0.1866 -0.9120
  221MOL0     C29714   6.827   1.626   9.948 -0.6362 -0.2614 -0.1797
  221MOL0     C29715   6.828   1.739  10.052 -0.0868 -0.2593 -0.3864
  221MOL0     C29716   6.960   1.823  10.043 -0.2959 -0.0316 -0.2023
  221MOL0     N29717   6.940   1.944   9.953  0.2661 -0.1169  0.4855
  221MOL0     C29718   6.915   1.956   9.819 -0.9790 -0.7207 -0.3246
  221MOL0     C29719   6.870   2.076   9.791 -0.3197  0.4317  0.6178
  221MOL0     C29720   6.823   2.122   9.661  0.4910  0.1833  0.1182
  221MOL0     C29721   6.702   2.217   9.671 -0.5281 -0.1250 -0.0700
  221MOL0     C29722   6.628   2.227   9.537  0.5722 -0.1935  0.1854
  221MOL0     C29723   6.517   2.320   9.566  0.4971 -0.4397 -0.3255
  221MOL0     O29724   6.414   2.235   9.609 -0.8219 -0.6839  0.5450
  221MOL0     C29725   6.285   2.278   9.593  0.2703 -1.0649  0.3094
  221MOL0     C29726   6.237   2.408   9.570 -0.9065  0.4160 -1.4049
  221MOL0     C29727   6.100   2.441   9.556 -0.1290 -0.0896 -0.2148
  221MOL0     C29728   6.051   2.577   9.524 -0.4879 -0.1523  0.0164
  221MOL0     C29729   6.004   2.337   9.558 -0.2640 -0.5623 -0.4002
  221MOL0     C29730   5.854   2.361   9.542 -1.4597  0.2707 -0.5324
  221MOL0     O29731   5.790   2.479   9.563  0.0821 -0.4561 -0.6650
  221MOL0     C29732   5.651   2.473   9.547 -0.0307 -0.5616  0.0710
  221MOL0     C29733   5.581   2.552   9.460 -1.5445 -0.4834 -0.3303
  221MOL0     C29734   5.443   2.563   9.456 -0.9034 -0.2636  0.0278
  221MOL0     C29735   5.364   2.484   9.537  0.1654 -0.3468 -0.3722
  221MOL0     O29736   5.232   2.494   9.521 -0.1018  0.1541  0.7027
  221MOL0     C29737   5.145   2.418   9.608 -0.3167  0.8146  0.1871
  221MOL0     C29738   4.994   2.435   9.565 -0.7111 -0.1035  0.4725
  221MOL0     C29739   4.968   2.392   9.419 -0.0825  0.0282  1.0237
  221MOL0     C29740   4.820   2.405   9.371 -0.5781  0.2460  0.0781
  221MOL0     C29741   4.780   2.333   9.241  0.1370  0.8022  0.3853
  221MOL0     C29742   4.812   2.183   9.250  0.4729 -0.6419  1.3327
  221MOL0     C29743   4.731   2.122   9.137  1.5330  1.5870 -0.7816
  221MOL0     C29744   4.797   2.005   9.065  0.1149  0.0244 -0.0992
  221MOL0    Cl29745   4.847   1.881   9.187  0.6612 -0.0794 -0.0809
  221MOL0     C29746   5.435   2.403   9.632 -0.2745 -0.1935 -0.1349
  221MOL0     C29747   5.575   2.390   9.628  0.0098  0.4404  0.3239
  221MOL0     O29748   5.796   2.262   9.511 -0.6540  0.2210  0.8307
  221MOL0     C29749   6.053   2.214   9.566  0.3783  0.0918  0.5383
  221MOL0     C29750   6.187   2.182   9.575  1.0430 -0.4627 -0.3508
  221MOL0     N29751   6.882   2.152   9.910  0.4857  0.0952  0.0791
  221MOL0     N29752   6.929   2.075  10.004 -0.7477 -0.4493  0.2227
  221MOL0     C29753   7.315   0.917   9.822  0.2144 -0.6241  0.0851
  221MOL0     C29754   7.423   0.849   9.864  0.8144  0.3356 -0.5510
  221MOL0     C29755   7.825   0.680   9.960  0.0438 -0.1604 -0.0818
  221MOL0     C29756   7.847   0.595  10.064  0.5647  0.0763 -0.2964
  221MOL0     C29757   7.974   0.536  10.085  0.4098  0.0239  0.2023
  221MOL0     C29758   8.070   0.548   9.985  0.4237  0.7333  0.7834
  221MOL0     O29759   8.177   0.459   9.985  0.1457  0.0595 -0.6715
  221MOL0     C29760   8.237   0.460  10.117 -0.8712  0.0610 -0.7982
  221MOL0     C29761   8.382   0.495  10.088 -0.7781  0.4280 -0.0053
  221MOL0     C29762   8.405   0.642  10.058 -0.1910 -1.0880  0.1033
  221MOL0     C29763   8.545   0.683  10.018 -0.3116  1.0325  0.6379
  221MOL0     C29764   8.639   0.668  10.131  0.6364  0.4265  0.2936
  221MOL0     C29765   8.726   0.655  10.213 -0.0259  0.3729 -0.5139
  221MOL0     C29766   8.047   0.616   9.870 -0.2325 -0.2098 -0.7213
  221MOL0     C29767   7.925   0.685   9.858  0.0735  0.3124  0.4282
  221MOL0     H29768   7.664   1.052   9.729  0.3437 -0.4232  0.7074
  221MOL0     H29769   7.472   1.193   9.697 -0.4261  0.3747  1.4922
  221MOL0     H29770   7.069   0.993   9.695 -1.4051  0.7218 -0.9110
  221MOL0     H29771   7.099   1.034   9.869 -0.8849  1.4802  0.7650
  221MOL0     H29772   6.984   1.228   9.662  1.1085  1.0580  1.1680
  221MOL0     H29773   6.896   1.128   9.785 -1.8655  2.1784  0.9495
  221MOL0     H29774   7.013   1.257   9.961  1.5183 -0.9655  0.2737
  221MOL0     H29775   7.126   1.332   9.849 -0.8496  1.7283 -0.7592
  221MOL0     H29776   6.928   1.460   9.746 -2.2420  3.3294  1.6304
  221MOL0     H29777   6.822   1.372   9.847 -0.7105  0.8808 -1.9062
  221MOL0     H29778   6.919   1.467  10.058 -0.2248  0.3420 -0.7238
  221MOL0     H29779   7.036   1.557   9.958  0.3002 -0.2432  1.1934
  221MOL0     H29780   6.835   1.669   9.847  0.5719 -0.4154 -0.1565
  221MOL0     H29781   6.727   1.580   9.948 -1.3333  1.1633  1.1277
  221MOL0     H29782   6.747   1.809  10.026  1.7683  1.4268 -1.9994
  221MOL0     H29783   6.824   1.703  10.155  1.9132 -0.8933 -0.4917
  221MOL0     H29784   7.040   1.762  10.000  0.9089 -0.1588  2.0932
  221MOL0     H29785   6.986   1.848  10.146  1.7462 -0.3848 -0.6019
  221MOL0     H29786   6.938   1.880   9.745  0.9752 -0.4250 -0.0824
  221MOL0     H29787   6.902   2.161   9.596  0.3983 -0.7249 -0.5453
  221MOL0     H29788   6.793   2.031   9.608  1.1567  0.9452 -1.6652
  221MOL0     H29789   6.738   2.313   9.707 -0.5830 -0.9085  2.1954
  221MOL0     H29790   6.631   2.182   9.746  0.4014 -0.5749  0.6215
  221MOL0     H29791   6.583   2.133   9.503  1.9433 -1.0887  0.7430
  221MOL0     H29792   6.692   2.260   9.455 -1.8308  2.0547 -0.9135
  221MOL0     H29793   6.487   2.362   9.470 -2.2699  0.3462  0.7680
  221MOL0     H29794   6.547   2.391   9.645  1.7472 -0.9675 -0.3092
  221MOL0     H29795   6.304   2.493   9.585 -1.7286  0.8060  0.2751
  221MOL0     H29796   6.128   2.654   9.531 -0.8877  0.4469 -1.6388
  221MOL0     H29797   6.011   2.568   9.422  0.5730  0.8641 -0.5092
  221MOL0     H29798   5.979   2.598   9.604  2.4912  1.6516  2.4280
  221MOL0     H29799   5.648   2.617   9.404  0.9664  0.0371  2.9766
  221MOL0     H29800   5.400   2.636   9.388  0.0237  0.8698  0.6263
  221MOL0     H29801   5.169   2.312   9.592  1.8123  1.3637 -0.5040
  221MOL0     H29802   5.151   2.449   9.713 -1.6288 -1.4243  0.9974
  221MOL0     H29803   4.922   2.382   9.629 -0.9990 -1.6892 -1.0864
  221MOL0     H29804   4.983   2.544   9.573 -0.1347  0.1420 -1.5760
  221MOL0     H29805   5.000   2.288   9.408  1.5354  0.6407 -0.4872
  221MOL0     H29806   5.031   2.440   9.344 -1.3864  1.0235  0.5311
  221MOL0     H29807   4.768   2.357   9.453  0.4298 -0.4548  0.3277
  221MOL0     H29808   4.800   2.513   9.370 -0.1206  0.3548  1.1117
  221MOL0     H29809   4.840   2.367   9.156  1.5569  2.8170  2.1047
  221MOL0     H29810   4.676   2.360   9.219  0.8811  2.0795 -1.9051
  221MOL0     H29811   4.917   2.163   9.228  0.4213  0.0223  0.4099
  221MOL0     H29812   4.772   2.133   9.338 -1.8097 -0.1286  0.6581
  221MOL0     H29813   4.699   2.199   9.067 -1.5769  2.9849  1.9026
  221MOL0     H29814   4.637   2.084   9.179  3.3512 -1.2147  1.0900
  221MOL0     H29815   4.880   2.041   9.003 -0.8392 -0.1258 -1.4968
  221MOL0     H29816   4.730   1.961   8.991  2.7050 -2.7430 -0.9796
  221MOL0     H29817   5.373   2.346   9.700  1.9555 -1.2143  1.1293
  221MOL0     H29818   5.624   2.316   9.690 -1.3587 -1.4129 -0.7107
  221MOL0     H29819   5.993   2.124   9.555  0.1645  0.5146 -3.2681
  221MOL0     H29820   6.213   2.077   9.581  0.6288 -0.4733  2.2592
  221MOL0     H29821   7.219   0.874   9.849 -1.2807  2.0758 -0.5866
  221MOL0     H29822   7.414   0.760   9.925 -0.2756  0.3282 -0.6931
  221MOL0     H29823   7.771   0.584  10.141 -0.2542 -1.2217 -1.2530
  221MOL0     H29824   7.990   0.483  10.178  2.3195  0.6346  0.2611
  221MOL0     H29825   8.200   0.528  10.195  0.2687 -0.0555 -0.1295
  221MOL0     H29826   8.219   0.357  10.150 -0.2582 -0.6304 -2.5409
  221MOL0     H29827   8.416   0.425  10.010  3.1597 -0.0827  1.9263
  221MOL0     H29828   8.450   0.449  10.161 -1.8963 -0.7466  0.3330
  221MOL0     H29829   8.371   0.700  10.144  0.1914  2.3655 -1.9161
  221MOL0     H29830   8.329   0.673   9.985 -2.5623 -0.4912  2.6581
  221MOL0     H29831   8.546   0.786   9.978  0.0183  0.1909 -1.6983
  221MOL0     H29832   8.591   0.618   9.943 -2.7153 -1.8419  1.5030
  221MOL0     H29833   8.797   0.641  10.291  0.6086  5.2642  0.0870
  221MOL0     H29834   8.134   0.623   9.806  1.2933  0.5477  1.3253
  221MOL0     H29835   7.900   0.730   9.762 -0.5750 -1.0112 -0.0519
  222MOL0     O29836   0.175   3.984   0.052  0.1215  0.1570 -0.2902
  222MOL0     C29837   0.208   3.949  -0.065  0.1913  0.4030  0.2822
  222MOL0     O29838   0.131   3.869  -0.149 -0.6181 -0.3199  0.1701
  222MOL0     C29839   0.001   3.866  -0.127  0.0662  0.2142 -0.1587
  222MOL0     C29840  -0.082   3.984  -0.134 -0.8527  0.3114  0.1699
  222MOL0     C29841  -0.214   3.976  -0.113  0.1187 -0.1539 -0.0863
  222MOL0     C29842  -0.272   3.848  -0.070 -0.7976 -0.7842  1.3070
  222MOL0     O29843  -0.404   3.834  -0.041  0.1100  0.9096 -0.3128
  222MOL0     C29844  -0.491   3.948  -0.033  0.1282 -1.1685 -0.3232
  222MOL0     C29845  -0.569   3.966  -0.166 -0.1972 -0.3418  0.6244
  222MOL0     C29846  -0.685   4.064  -0.149  0.8859  0.8824 -0.5134
  222MOL0     C29847  -0.787   4.009  -0.056  0.8655 -0.1231 -0.8751
  222MOL0     C29848  -0.942   4.058  -0.073  0.1558 -0.1032  0.1491
  222MOL0     C29849  -0.958   4.214  -0.060  0.5060  0.3554  0.3940
  222MOL0     C29850  -1.107   4.253  -0.106 -0.2259  0.0007  0.6820
  222MOL0     C29851  -1.120   4.280  -0.257  0.0875  0.2409  0.0796
  222MOL0     N29852  -1.257   4.327  -0.288 -0.2534 -0.3748  0.0178
  222MOL0     C29853  -1.306   4.460  -0.287  0.5955 -0.3188  0.2487
  222MOL0     C29854  -1.443   4.440  -0.307 -0.1298 -0.6094 -0.3494
  222MOL0     C29855  -1.552   4.550  -0.318  0.0392  0.0283 -0.3261
  222MOL0     C29856  -1.693   4.506  -0.376 -0.2518  1.0308 -0.0824
  222MOL0     C29857  -1.805   4.613  -0.355 -0.3486  0.0213 -0.3575
  222MOL0     C29858  -1.946   4.553  -0.382 -0.4139  0.0800 -0.1998
  222MOL0     O29859  -2.033   4.667  -0.394 -0.5903  0.5090 -0.1412
  222MOL0     C29860  -2.166   4.652  -0.430  0.1385  0.5271 -0.1608
  222MOL0     C29861  -2.227   4.539  -0.494  0.0322 -0.5001  0.8263
  222MOL0     C29862  -2.363   4.550  -0.540 -0.6009  1.0357 -0.0405
  222MOL0     C29863  -2.423   4.445  -0.632  0.1693  0.1455 -0.2981
  222MOL0     C29864  -2.442   4.665  -0.508 -0.1036  0.1998  0.3353
  222MOL0     C29865  -2.583   4.668  -0.538  0.1011  0.0120 -0.8670
  222MOL0     O29866  -2.656   4.558  -0.507  0.2567 -0.1497 -0.0347
  222MOL0     C29867  -2.778   4.539  -0.556  0.7894 -0.0108  0.1312
  222MOL0     C29868  -2.801   4.508  -0.692 -0.0304 -0.5430 -0.1026
  222MOL0     C29869  -2.932   4.479  -0.739 -0.1019  0.1993 -0.3245
  222MOL0     C29870  -3.030   4.485  -0.652 -0.0197  0.4400  0.2197
  222MOL0     O29871  -3.161   4.446  -0.696  0.0803 -0.7544 -1.0814
  222MOL0     C29872  -3.256   4.409  -0.592 -0.6229 -0.3567 -0.6787
  222MOL0     C29873  -3.374   4.337  -0.654  0.0682  0.6489 -0.1924
  222MOL0     C29874  -3.462   4.434  -0.735  0.4330 -0.1639 -0.6008
  222MOL0     C29875  -3.604   4.434  -0.680 -0.3791 -0.9203  0.4726
  222MOL0     C29876  -3.702   4.522  -0.763  0.2300 -0.4834 -0.2305
  222MOL0     C29877  -3.818   4.563  -0.676  0.3221 -0.3884 -0.0752
  222MOL0     C29878  -3.898   4.445  -0.612 -0.5183  0.2843 -0.1785
  222MOL0     C29879  -4.044   4.479  -0.604  0.7256 -0.4349 -0.6971
  222MOL0    Cl29880  -4.072   4.625  -0.518 -0.1115 -0.0827  0.0247
  222MOL0     C29881  -3.008   4.519  -0.518  0.3842 -0.7031  0.0373
  222MOL0     C29882  -2.883   4.545  -0.469 -0.0767 -0.1927  0.2438
  222MOL0     O29883  -2.626   4.773  -0.585 -0.1705  0.0590 -0.1726
  222MOL0     C29884  -2.379   4.760  -0.432  1.0642 -0.3399 -0.0977
  222MOL0     C29885  -2.248   4.759  -0.405 -0.2779  0.2869 -0.2125
  222MOL0     N29886  -1.473   4.307  -0.314  0.1371  0.1437  0.2312
  222MOL0     N29887  -1.363   4.242  -0.295 -0.3180 -0.4214  0.3714
  222MOL0     C29888  -0.189   3.736  -0.064  0.3754 -0.1534 -0.1093
  222MOL0     C29889  -0.053   3.745  -0.105  0.3022  0.0158  0.1663
  222MOL0     C29890   0.340   3.979  -0.118  0.5955 -0.6829  0.3266
  222MOL0     C29891   0.366   3.960  -0.253  0.7010  0.0388 -0.0381
  222MOL0     C29892   0.487   3.995  -0.302  0.0235 -1.0813 -0.4717
  222MOL0     C29893   0.589   4.044  -0.219 -0.9065  1.3371 -0.1956
  222MOL0     O29894   0.699   4.105  -0.266 -0.0826 -0.2584 -0.2665
  222MOL0     C29895   0.805   4.028  -0.307  0.8554 -0.1664  0.4746
  222MOL0     C29896   0.897   4.100  -0.412 -0.4292 -0.4339  0.3826
  222MOL0     C29897   0.929   4.248  -0.372 -0.0087  1.0056 -0.0502
  222MOL0     C29898   1.037   4.300  -0.470  0.5894 -1.0402  0.2904
  222MOL0     C29899   1.079   4.445  -0.450  0.7002  0.2870 -1.7059
  222MOL0     C29900   1.135   4.553  -0.432  0.0780  0.7775 -0.7898
  222MOL0     C29901   0.563   4.054  -0.081  0.4469 -0.7422  0.1320
  222MOL0     C29902   0.436   4.020  -0.026 -0.1298  1.5397  0.2613
  222MOL0     H29903  -0.031   4.074  -0.166  1.7002 -1.5470 -1.4789
  222MOL0     H29904  -0.263   4.071  -0.134  1.2204  0.5826  0.5559
  222MOL0     H29905  -0.557   3.917   0.049  1.6134  1.1660  1.9326
  222MOL0     H29906  -0.439   4.038   0.001  1.9098 -1.6099 -1.7131
  222MOL0     H29907  -0.506   4.003  -0.247  1.1150 -0.6746  1.4705
  222MOL0     H29908  -0.601   3.864  -0.187  0.9938 -0.6671  0.3433
  222MOL0     H29909  -0.649   4.160  -0.110 -1.7966  1.5348  0.5297
  222MOL0     H29910  -0.734   4.066  -0.246  2.0936 -1.9288 -1.2844
  222MOL0     H29911  -0.791   3.900  -0.056  2.5878 -0.2176 -0.4067
  222MOL0     H29912  -0.765   4.029   0.049  1.0282 -4.0788 -0.0017
  222MOL0     H29913  -0.955   4.037  -0.179  1.2486 -1.4903  0.2564
  222MOL0     H29914  -1.014   4.003  -0.012 -1.4857  1.9447  0.1451
  222MOL0     H29915  -0.947   4.251   0.042  0.7181  0.4274  0.3467
  222MOL0     H29916  -0.888   4.263  -0.129  1.2170 -1.6666 -0.4291
  222MOL0     H29917  -1.164   4.161  -0.092  1.9142 -1.8843 -1.9393
  222MOL0     H29918  -1.142   4.336  -0.043 -0.3206 -1.0965  2.1185
  222MOL0     H29919  -1.101   4.193  -0.322 -1.9440 -1.8012  2.0173
  222MOL0     H29920  -1.054   4.365  -0.275 -0.1334  0.7942  1.6834
  222MOL0     H29921  -1.267   4.561  -0.286  2.4144 -0.9588 -0.8226
  222MOL0     H29922  -1.581   4.581  -0.217 -3.6065 -2.5019 -0.4218
  222MOL0     H29923  -1.510   4.635  -0.373  1.2985 -0.7431 -0.6006
  222MOL0     H29924  -1.723   4.409  -0.335 -0.6830  1.3205  0.2978
  222MOL0     H29925  -1.677   4.478  -0.480  3.3329 -2.8643  1.2210
  222MOL0     H29926  -1.791   4.696  -0.424  1.6018 -0.2784 -0.3641
  222MOL0     H29927  -1.800   4.652  -0.252  0.6779  2.2466 -1.1726
  222MOL0     H29928  -1.986   4.490  -0.302  0.0694  1.2300  0.9958
  222MOL0     H29929  -1.939   4.507  -0.481  2.0852  3.3873 -1.7846
  222MOL0     H29930  -2.163   4.455  -0.517  2.5505  0.6628  3.0155
  222MOL0     H29931  -2.487   4.381  -0.569  0.9115 -0.3468 -0.0307
  222MOL0     H29932  -2.479   4.508  -0.702 -2.2897  1.6947  2.7865
  222MOL0     H29933  -2.352   4.378  -0.680 -0.9970 -1.0775 -0.3726
  222MOL0     H29934  -2.727   4.508  -0.771 -2.5104 -0.7272 -2.5894
  222MOL0     H29935  -2.955   4.450  -0.841  2.3069 -0.7441 -0.6861
  222MOL0     H29936  -3.204   4.345  -0.520 -0.0939  3.4225  2.6485
  222MOL0     H29937  -3.293   4.499  -0.543 -0.9649 -0.3231 -0.9951
  222MOL0     H29938  -3.343   4.248  -0.710  2.0830  0.4118  1.1998
  222MOL0     H29939  -3.428   4.295  -0.569  1.2945 -0.4942  0.0522
  222MOL0     H29940  -3.460   4.403  -0.840  1.6883 -0.5950 -0.4690
  222MOL0     H29941  -3.428   4.537  -0.720  0.2247  0.1159 -1.9259
  222MOL0     H29942  -3.647   4.333  -0.676  0.7553 -1.5412 -1.5442
  222MOL0     H29943  -3.597   4.482  -0.582 -0.9843  0.6107 -0.2037
  222MOL0     H29944  -3.743   4.464  -0.846  0.8206 -2.9802  1.1298
  222MOL0     H29945  -3.649   4.611  -0.799 -2.0003  0.2173 -1.9834
  222MOL0     H29946  -3.777   4.628  -0.598  1.7483 -2.3793  0.8971
  222MOL0     H29947  -3.892   4.621  -0.733 -0.8475 -3.3941 -1.8506
  222MOL0     H29948  -3.855   4.414  -0.516 -0.2607 -1.8856 -0.9317
  222MOL0     H29949  -3.898   4.363  -0.684 -0.4030  0.5835 -0.5240
  222MOL0     H29950  -4.107   4.399  -0.564  0.5595 -0.3655 -0.8198
  222MOL0     H29951  -4.077   4.497  -0.707 -1.0703 -3.4396 -0.7807
  222MOL0     H29952  -3.087   4.543  -0.447  0.7645  0.3728  0.1032
  222MOL0     H29953  -2.862   4.576  -0.367  0.0600  2.5996 -0.5273
  222MOL0     H29954  -2.438   4.848  -0.408 -0.2303 -1.6375  1.8007
  222MOL0     H29955  -2.207   4.848  -0.358  1.8530 -1.2902  1.1288
  222MOL0     H29956  -0.238   3.644  -0.032 -0.9958 -0.2094 -2.2216
  222MOL0     H29957   0.007   3.654  -0.104 -0.1859 -0.3059  0.2338
  222MOL0     H29958   0.284   3.929  -0.317 -1.1945  2.3136  1.1334
  222MOL0     H29959   0.498   3.994  -0.410 -0.6226 -1.4065 -0.5402
  222MOL0     H29960   0.877   4.003  -0.228  2.7275 -0.2417 -1.1770
  222MOL0     H29961   0.775   3.934  -0.355  1.1239  0.0432 -0.1118
  222MOL0     H29962   0.849   4.104  -0.510 -0.8224  1.1932  0.6144
  222MOL0     H29963   0.984   4.035  -0.428 -1.1774 -1.5415  0.6911
  222MOL0     H29964   0.969   4.251  -0.270  1.6186  2.0163 -0.6803
  222MOL0     H29965   0.831   4.297  -0.380 -0.1548  0.5845 -1.0692
  222MOL0     H29966   0.992   4.292  -0.569 -0.9363 -0.5323  0.9154
  222MOL0     H29967   1.123   4.232  -0.465  1.6846  0.3736  1.9053
  222MOL0     H29968   1.195   4.641  -0.424 -0.9113  1.3165  1.5837
  222MOL0     H29969   0.629   4.102  -0.010  0.5486 -2.2387  1.0881
  222MOL0     H29970   0.425   4.012   0.082  0.6352 -1.0308  0.2200
  223MOL0     O29971  10.513   7.972   7.549  1.2297  0.5454 -0.6915
  223MOL0     C29972  10.573   7.987   7.445  0.7583 -0.7875  0.4322
  223MOL0     O29973  10.580   7.903   7.339 -0.1701  0.4301  0.1340
  223MOL0     C29974  10.502   7.788   7.347  0.2257  0.3915  1.1042
  223MOL0     C29975  10.420   7.755   7.241  0.6181 -0.4302 -0.1960
  223MOL0     C29976  10.348   7.632   7.236  0.3485  0.1395  0.2324
  223MOL0     C29977  10.350   7.548   7.348 -0.5826 -0.6586  0.8812
  223MOL0     O29978  10.294   7.423   7.360  0.1035  0.2639  0.8979
  223MOL0     C29979  10.288   7.344   7.244  0.3022 -0.4236 -0.0528
  223MOL0     C29980  10.186   7.228   7.262 -0.0552 -0.2517  0.3244
  223MOL0     C29981  10.034   7.254   7.276 -0.5108  0.8688 -1.0715
  223MOL0     C29982   9.982   7.354   7.381  0.8746  0.0404  0.6031
  223MOL0     C29983   9.828   7.377   7.365 -0.3924 -0.4719 -0.8063
  223MOL0     C29984   9.768   7.438   7.494 -0.0037  0.0576  1.2372
  223MOL0     C29985   9.612   7.447   7.495  0.4806  0.5210  0.1438
  223MOL0     C29986   9.549   7.323   7.543 -0.3273  0.0807 -0.4118
  223MOL0     N29987   9.553   7.305   7.692 -0.4955  0.2075 -0.6636
  223MOL0     C29988   9.444   7.328   7.780  0.2240 -0.6197  0.3440
  223MOL0     C29989   9.490   7.304   7.902  1.5112 -0.3540 -0.8962
  223MOL0     C29990   9.414   7.327   8.026  0.0748 -0.3264 -0.0765
  223MOL0     C29991   9.439   7.229   8.134 -0.2053  0.0010 -0.1446
  223MOL0     C29992   9.359   7.274   8.260 -0.1574 -0.3785  0.7174
  223MOL0     C29993   9.209   7.258   8.268  0.0440 -1.3513 -0.3192
  223MOL0     O29994   9.167   7.300   8.397 -0.5296 -0.1843 -0.0559
  223MOL0     C29995   9.035   7.318   8.420  0.6074 -0.6333  0.2675
  223MOL0     C29996   9.008   7.360   8.548  0.6257  0.0930 -0.2473
  223MOL0     C29997   8.878   7.380   8.594 -0.1615 -0.1906  0.8299
  223MOL0     C29998   8.849   7.422   8.737 -0.1738 -0.0610  0.7039
  223MOL0     C29999   8.768   7.348   8.503 -0.0565  0.2349  0.0101
  223MOL0     C30000   8.622   7.369   8.533 -0.1586 -0.2382  0.2212
  223MOL0     O30001   8.576   7.380   8.660  0.5827  0.2557 -0.5375
  223MOL0     C30002   8.446   7.385   8.676  0.3111  0.0708 -0.4309
  223MOL0     C30003   8.372   7.268   8.698 -0.1334  0.0220 -0.5969
  223MOL0     C30004   8.234   7.274   8.724 -0.0118 -0.8251 -0.6260
  223MOL0     C30005   8.175   7.402   8.735 -0.6845  0.5247 -0.5832
  223MOL0     O30006   8.049   7.399   8.776  0.1360  0.3350  0.0642
  223MOL0     C30007   7.954   7.495   8.720 -0.3071  0.5627  0.0388
  223MOL0     C30008   7.815   7.470   8.784 -0.4327  0.2323  0.4351
  223MOL0     C30009   7.704   7.544   8.699 -0.8103  0.3989 -0.0115
  223MOL0     C30010   7.564   7.512   8.752 -0.4485  0.2782 -0.7735
  223MOL0     C30011   7.448   7.559   8.664  0.2553  0.1118  0.2068
  223MOL0     C30012   7.313   7.490   8.705 -0.6313  0.0224 -0.0405
  223MOL0     C30013   7.191   7.563   8.661 -0.1632 -0.4695 -0.0337
  223MOL0     C30014   7.067   7.481   8.697  0.8561  0.0845  0.8018
  223MOL0    Cl30015   6.909   7.574   8.659  0.1886  0.0845  0.1027
  223MOL0     C30016   8.246   7.519   8.707 -0.0835  1.1227 -0.4074
  223MOL0     C30017   8.383   7.507   8.679 -0.1275 -0.3834  0.5917
  223MOL0     O30018   8.548   7.379   8.435  0.3501  0.0442 -0.8971
  223MOL0     C30019   8.805   7.292   8.375 -0.7756 -0.1262  0.7849
  223MOL0     C30020   8.934   7.294   8.336  0.1979  0.0900 -0.1820
  223MOL0     N30021   9.617   7.251   7.891 -0.1643 -0.2651  0.3096
  223MOL0     N30022   9.655   7.236   7.768  0.0321 -0.3634  0.4603
  223MOL0     C30023  10.438   7.576   7.447 -0.3954  0.0317 -0.5904
  223MOL0     C30024  10.524   7.688   7.439  0.1243  0.5200 -1.1401
  223MOL0     C30025  10.658   8.113   7.435 -0.1571 -0.3216  1.0670
  223MOL0     C30026  10.707   8.184   7.540 -0.0115 -0.6709 -0.1913
  223MOL0     C30027  10.799   8.290   7.524  0.1030  0.4851 -1.0494
  223MOL0     C30028  10.845   8.330   7.398  0.4329  0.5181  0.1386
  223MOL0     O30029  10.948   8.420   7.373 -0.1437 -0.3304 -0.1419
  223MOL0     C30030  10.949   8.542   7.443  0.3034  0.2825 -0.4080
  223MOL0     C30031  10.838   8.636   7.385  0.3597  0.3368 -0.2636
  223MOL0     C30032  10.823   8.764   7.468 -0.9201  0.7190  0.8614
  223MOL0     C30033  10.763   8.881   7.390 -0.3989  0.4334  0.1892
  223MOL0     C30034  10.627   8.839   7.355 -0.2341 -0.0562  0.7822
  223MOL0     C30035  10.513   8.817   7.325  0.1771  0.6602 -0.4200
  223MOL0     C30036  10.801   8.260   7.290  0.7069  0.5446 -0.1606
  223MOL0     C30037  10.706   8.156   7.309  0.0778 -0.2305 -0.4298
  223MOL0     H30038  10.405   7.813   7.150  3.3532 -1.6281 -1.5197
  223MOL0     H30039  10.282   7.612   7.152  1.4346  2.4564 -1.2558
  223MOL0     H30040  10.258   7.402   7.156  0.2339 -1.7144 -0.8981
  223MOL0     H30041  10.385   7.300   7.222  1.1828  1.2363  0.3291
  223MOL0     H30042  10.209   7.169   7.173 -0.7139  1.4911 -1.0544
  223MOL0     H30043  10.216   7.163   7.346  0.7389 -1.1261 -0.6012
  223MOL0     H30044  10.001   7.292   7.179 -1.9908 -1.6653 -1.6514
  223MOL0     H30045   9.993   7.153   7.291  2.5911 -0.4114 -0.4098
  223MOL0     H30046   9.991   7.314   7.482 -1.8627 -2.8401 -0.0885
  223MOL0     H30047  10.048   7.441   7.379  1.3805 -0.3331  0.8776
  223MOL0     H30048   9.809   7.429   7.271  0.5801  2.0775  0.3327
  223MOL0     H30049   9.773   7.285   7.341 -1.1777 -0.1219 -0.3859
  223MOL0     H30050   9.809   7.392   7.585  1.9366  0.4058  0.5861
  223MOL0     H30051   9.804   7.541   7.496  2.6720 -0.7942  1.2280
  223MOL0     H30052   9.577   7.540   7.539  3.5728  1.8803 -0.0184
  223MOL0     H30053   9.600   7.451   7.386  3.3180 -2.0526 -0.4242
  223MOL0     H30054   9.603   7.236   7.505  2.9184  1.4029  0.7694
  223MOL0     H30055   9.448   7.323   7.501  0.0442  1.1800 -1.3800
  223MOL0     H30056   9.350   7.373   7.750  1.6298 -0.5174 -4.8927
  223MOL0     H30057   9.437   7.432   8.048  4.1861 -0.5244 -2.4192
  223MOL0     H30058   9.307   7.324   8.005  0.4797  0.8803 -2.6618
  223MOL0     H30059   9.545   7.223   8.159  0.3143 -2.3847 -2.4727
  223MOL0     H30060   9.408   7.127   8.109 -1.6589  0.2807  0.4158
  223MOL0     H30061   9.397   7.370   8.296  2.4065 -0.2980 -1.8270
  223MOL0     H30062   9.395   7.208   8.340  0.5846  0.3845  1.0298
  223MOL0     H30063   9.183   7.153   8.253 -1.0510 -1.3676  1.4028
  223MOL0     H30064   9.166   7.329   8.196 -0.4130 -2.4436 -1.1557
  223MOL0     H30065   9.088   7.364   8.621 -0.0092 -0.6593  0.5046
  223MOL0     H30066   8.941   7.457   8.785 -0.1291  0.4680  0.2473
  223MOL0     H30067   8.770   7.497   8.735 -3.0538 -2.8691 -1.2901
  223MOL0     H30068   8.818   7.336   8.796 -2.0684 -1.7249 -2.4618
  223MOL0     H30069   8.417   7.169   8.705 -4.2157 -1.9412  0.6361
  223MOL0     H30070   8.179   7.181   8.734 -0.9241 -0.0248  3.6143
  223MOL0     H30071   7.985   7.599   8.736 -0.8608  0.6194  0.7864
  223MOL0     H30072   7.944   7.477   8.612  2.8505  0.9518 -0.4137
  223MOL0     H30073   7.798   7.362   8.779 -0.2071  0.0563  2.4866
  223MOL0     H30074   7.810   7.502   8.888  1.2744  0.0947  0.5988
  223MOL0     H30075   7.705   7.508   8.596 -0.1954  2.9416 -0.9593
  223MOL0     H30076   7.730   7.650   8.704 -0.6302  0.3632 -0.1945
  223MOL0     H30077   7.568   7.403   8.748  1.5146  0.3634 -2.7016
  223MOL0     H30078   7.539   7.543   8.854  0.9277 -0.6210 -0.1297
  223MOL0     H30079   7.467   7.538   8.558  0.3397 -1.0160  0.4418
  223MOL0     H30080   7.447   7.667   8.681  1.2782 -0.2590  3.0028
  223MOL0     H30081   7.321   7.393   8.655 -0.5171  0.7213 -1.4221
  223MOL0     H30082   7.309   7.459   8.810 -1.3489 -1.0723 -0.3713
  223MOL0     H30083   7.188   7.586   8.554 -2.1823  1.2991  0.3228
  223MOL0     H30084   7.187   7.655   8.721  1.8951 -1.6102  2.0202
  223MOL0     H30085   7.048   7.449   8.799 -0.1414  0.3601  0.7109
  223MOL0     H30086   7.068   7.388   8.640 -3.6338  1.3203 -1.8068
  223MOL0     H30087   8.215   7.622   8.719  1.2648  1.8329 -2.4589
  223MOL0     H30088   8.437   7.599   8.659  0.2238 -0.7276 -0.0540
  223MOL0     H30089   8.735   7.272   8.294 -0.4746  0.9792  0.2366
  223MOL0     H30090   8.956   7.264   8.234  2.3400 -0.0226  0.2729
  223MOL0     H30091  10.459   7.502   7.524 -3.0784  0.1970  0.4076
  223MOL0     H30092  10.595   7.709   7.519 -0.9636 -2.4410  0.7355
  223MOL0     H30093  10.670   8.156   7.638  0.7130  2.5743  1.1366
  223MOL0     H30094  10.827   8.341   7.616  0.5631  0.8896 -1.4156
  223MOL0     H30095  10.936   8.538   7.552  1.5682  1.3688 -0.1993
  223MOL0     H30096  11.045   8.592   7.429 -0.1710  0.8748 -1.5892
  223MOL0     H30097  10.745   8.579   7.386  2.8071 -4.1661 -0.3797
  223MOL0     H30098  10.857   8.663   7.281  2.3115 -0.1454 -0.0690
  223MOL0     H30099  10.923   8.791   7.501 -0.8883  3.3113 -1.0131
  223MOL0     H30100  10.760   8.758   7.557 -4.6906  3.3929 -1.2988
  223MOL0     H30101  10.829   8.901   7.305 -0.9163  1.1527 -0.0504
  223MOL0     H30102  10.761   8.966   7.459 -0.3432 -1.2414  2.3682
  223MOL0     H30103  10.414   8.787   7.297  0.5246 -0.6079 -0.3332
  223MOL0     H30104  10.839   8.278   7.190  1.4553  1.4436  0.2724
  223MOL0     H30105  10.684   8.092   7.224  2.0728  0.2628 -1.3703
  224MOL0     O30106   9.597   3.888   7.161 -0.1947 -0.1883  0.3711
  224MOL0     C30107   9.643   3.818   7.072  0.0045 -0.3418 -0.3196
  224MOL0     O30108   9.600   3.812   6.945  0.0193  0.9419 -0.8417
  224MOL0     C30109   9.518   3.917   6.906 -0.2152  0.4041  0.6689
  224MOL0     C30110   9.572   4.040   6.865  0.1084  0.0041 -1.1330
  224MOL0     C30111   9.491   4.141   6.822 -0.5432 -0.1276  0.5881
  224MOL0     C30112   9.352   4.126   6.805 -0.3705 -0.0667  0.0829
  224MOL0     O30113   9.278   4.223   6.741  0.7353  0.6999  0.6516
  224MOL0     C30114   9.139   4.193   6.716  0.2474  0.3053 -0.6076
  224MOL0     C30115   9.066   4.313   6.661 -0.2965 -0.6467  0.5742
  224MOL0     C30116   8.923   4.267   6.636  0.6732  0.3088 -0.5261
  224MOL0     C30117   8.853   4.388   6.572 -0.2310 -0.5012  0.0373
  224MOL0     C30118   8.706   4.358   6.543  0.3565 -0.0283  0.0232
  224MOL0     C30119   8.637   4.492   6.501 -0.5011  0.1644 -0.3523
  224MOL0     C30120   8.497   4.470   6.464  0.2066 -1.0716 -0.0609
  224MOL0     C30121   8.440   4.609   6.423 -0.3906 -0.0797  0.2936
  224MOL0     N30122   8.316   4.597   6.338 -0.5712  0.5136  1.0652
  224MOL0     C30123   8.198   4.546   6.385 -0.9028 -0.3291 -0.0801
  224MOL0     C30124   8.118   4.542   6.282 -0.3428 -0.2330 -0.6822
  224MOL0     C30125   7.982   4.474   6.288 -0.0367 -0.0290 -0.8225
  224MOL0     C30126   7.864   4.562   6.260 -0.1614 -0.3505  0.7836
  224MOL0     C30127   7.764   4.594   6.378  0.0371  1.1637  0.0598
  224MOL0     C30128   7.655   4.692   6.345  0.2447 -0.7238 -0.5312
  224MOL0     O30129   7.604   4.678   6.208  0.0129 -0.3038  0.3691
  224MOL0     C30130   7.468   4.693   6.185 -0.9886 -0.0725  0.4786
  224MOL0     C30131   7.389   4.782   6.249 -0.5895 -0.3569  0.6309
  224MOL0     C30132   7.263   4.823   6.195 -0.9785 -0.4349  0.3939
  224MOL0     C30133   7.193   4.946   6.259 -0.4535  0.7936 -0.3902
  224MOL0     C30134   7.213   4.761   6.076  0.4773  0.5260 -0.3558
  224MOL0     C30135   7.077   4.794   6.021  0.8782 -0.4962  0.3452
  224MOL0     O30136   7.069   4.800   5.881  0.1761  0.1919  0.0778
  224MOL0     C30137   6.973   4.885   5.833  0.9351  1.0703  0.0597
  224MOL0     C30138   6.924   4.993   5.914  0.4934 -0.0684  0.8560
  224MOL0     C30139   6.825   5.073   5.859  1.0690 -0.2343  0.2243
  224MOL0     C30140   6.765   5.040   5.736  0.8527 -0.3605 -0.7725
  224MOL0     O30141   6.655   5.113   5.706  0.4045  0.4941 -0.3982
  224MOL0     C30142   6.571   5.086   5.593  0.4121 -1.0059 -0.5600
  224MOL0     C30143   6.464   4.981   5.629 -0.0085  0.8563  0.7866
  224MOL0     C30144   6.381   4.926   5.517 -0.4251  0.0659  0.0425
  224MOL0     C30145   6.271   5.024   5.459  0.6356  0.3414  0.4532
  224MOL0     C30146   6.134   4.997   5.519  0.4054  0.7615 -0.5026
  224MOL0     C30147   6.048   5.120   5.480  0.3712 -0.2194 -0.1640
  224MOL0     C30148   5.986   5.113   5.339  0.3723 -0.2029 -1.1418
  224MOL0     C30149   5.917   5.243   5.301 -0.2698 -0.3186  0.0793
  224MOL0    Cl30150   5.798   5.301   5.411  0.1194 -0.4285 -0.4075
  224MOL0     C30151   6.807   4.923   5.665 -0.6484 -0.3888 -0.3960
  224MOL0     C30152   6.915   4.853   5.710 -0.5900  0.3159 -0.5085
  224MOL0     O30153   6.985   4.805   6.099  0.8816 -0.5274 -0.3321
  224MOL0     C30154   7.296   4.668   6.011  0.0465  0.3199  0.5232
  224MOL0     C30155   7.426   4.641   6.064 -0.5133 -0.2027 -0.4491
  224MOL0     N30156   8.177   4.594   6.169  0.2838  0.6219  0.8578
  224MOL0     N30157   8.299   4.621   6.202  0.1134  0.1858  0.1469
  224MOL0     C30158   9.299   3.999   6.850  0.0589  0.6827 -0.0104
  224MOL0     C30159   9.379   3.895   6.901 -0.3422 -0.3925 -0.0438
  224MOL0     C30160   9.740   3.708   7.100 -0.2481 -1.0299 -0.3813
  224MOL0     C30161   9.764   3.612   7.008  0.6563 -0.1692 -0.2049
  224MOL0     C30162   9.853   3.509   7.047 -0.5735 -0.7582  0.0855
  224MOL0     C30163   9.917   3.508   7.170  0.0831  1.3627 -0.7739
  224MOL0     O30164   9.993   3.408   7.219  0.1356 -0.2943  0.0208
  224MOL0     C30165  10.100   3.372   7.134 -0.3176 -0.6116  0.2925
  224MOL0     C30166  10.163   3.240   7.188  0.9294  0.1001 -0.1578
  224MOL0     C30167  10.084   3.108   7.136  0.1403  0.8580 -0.5536
  224MOL0     C30168  10.164   2.982   7.178  0.0773 -0.1881 -0.3494
  224MOL0     C30169  10.174   2.973   7.322 -0.0447  0.1671  0.2379
  224MOL0     C30170  10.201   2.953   7.441 -0.4577  1.0824  0.3960
  224MOL0     C30171   9.886   3.607   7.261 -0.6816 -0.6646  0.3596
  224MOL0     C30172   9.798   3.713   7.227 -1.0611  0.6871 -0.1029
  224MOL0     H30173   9.678   4.053   6.883 -0.6359  3.9381  1.7874
  224MOL0     H30174   9.530   4.231   6.776 -0.2554 -2.2423 -3.7203
  224MOL0     H30175   9.123   4.106   6.651  0.0967 -1.0202  1.1281
  224MOL0     H30176   9.094   4.171   6.813  1.9707 -0.6954  0.0006
  224MOL0     H30177   9.061   4.402   6.724  0.5335 -0.0450 -0.1759
  224MOL0     H30178   9.116   4.336   6.566  0.3098 -3.3921  0.1497
  224MOL0     H30179   8.920   4.187   6.562 -0.4583  2.1222 -2.5666
  224MOL0     H30180   8.883   4.225   6.728 -0.5968  1.5289 -0.4858
  224MOL0     H30181   8.856   4.469   6.645  1.3914 -1.1788  0.7841
  224MOL0     H30182   8.915   4.420   6.487 -0.0818 -0.8852 -0.0011
  224MOL0     H30183   8.697   4.284   6.463 -3.4693  0.6704 -0.4114
  224MOL0     H30184   8.658   4.315   6.632  0.0616 -1.9107 -0.9942
  224MOL0     H30185   8.645   4.561   6.585  3.8275 -1.4618  0.8806
  224MOL0     H30186   8.694   4.538   6.419  0.7570 -3.0470 -1.4424
  224MOL0     H30187   8.502   4.411   6.372  0.7445  3.5023 -3.3393
  224MOL0     H30188   8.438   4.423   6.544 -1.7685  0.3695 -0.5690
  224MOL0     H30189   8.513   4.647   6.352  0.9921  0.1502  1.7704
  224MOL0     H30190   8.429   4.667   6.516 -1.5155 -1.6023  1.1543
  224MOL0     H30191   8.187   4.494   6.479  1.1386 -1.3752 -0.3563
  224MOL0     H30192   7.985   4.378   6.235  3.3119 -2.0127  2.4734
  224MOL0     H30193   7.960   4.435   6.388  1.9389  1.0530  0.0862
  224MOL0     H30194   7.821   4.516   6.170  1.0604 -1.3374  0.6654
  224MOL0     H30195   7.903   4.658   6.224 -2.6575  0.3016 -0.3687
  224MOL0     H30196   7.824   4.639   6.458 -2.3396  3.9975  0.3925
  224MOL0     H30197   7.716   4.507   6.424  0.9354  2.7585  4.5667
  224MOL0     H30198   7.694   4.793   6.362 -1.6887 -0.2211  1.2824
  224MOL0     H30199   7.568   4.671   6.408 -0.1066 -1.5919 -1.2833
  224MOL0     H30200   7.420   4.823   6.345 -0.2426 -0.6352  0.6380
  224MOL0     H30201   7.255   5.001   6.330  1.3882 -0.5003 -0.9139
  224MOL0     H30202   7.175   5.019   6.180  2.4398  1.7391 -0.3005
  224MOL0     H30203   7.113   4.911   6.324  0.6470 -1.4647 -0.1329
  224MOL0     H30204   6.970   5.025   6.007 -2.2973  1.0331  1.9533
  224MOL0     H30205   6.790   5.153   5.923  2.3542 -0.0457  0.7376
  224MOL0     H30206   6.521   5.183   5.583  0.6883 -0.6438  1.2978
  224MOL0     H30207   6.625   5.060   5.501  0.7972  0.9084 -0.9213
  224MOL0     H30208   6.524   4.899   5.671 -0.4531 -0.9355 -1.8539
  224MOL0     H30209   6.402   5.017   5.711 -1.3972 -0.9347  0.5870
  224MOL0     H30210   6.326   4.839   5.555  1.4390 -0.9100  0.6365
  224MOL0     H30211   6.460   4.893   5.449  0.0682  2.6518 -0.7219
  224MOL0     H30212   6.302   5.129   5.455  0.4017  0.4244  0.8075
  224MOL0     H30213   6.255   5.000   5.354 -2.9534 -0.3689  1.0454
  224MOL0     H30214   6.152   4.974   5.625  2.3228 -2.1099 -1.3367
  224MOL0     H30215   6.095   4.906   5.474  0.6489  0.4925 -0.1799
  224MOL0     H30216   5.959   5.116   5.543 -0.8470  0.5365 -1.7844
  224MOL0     H30217   6.100   5.216   5.493  1.1018 -0.5451 -0.6011
  224MOL0     H30218   5.909   5.035   5.343 -0.6986  0.8678 -0.2650
  224MOL0     H30219   6.065   5.088   5.267  0.9704 -0.5733 -0.3681
  224MOL0     H30220   5.873   5.248   5.201 -1.2397  1.5939  0.5694
  224MOL0     H30221   5.995   5.319   5.298 -2.0623  1.6913  1.5316
  224MOL0     H30222   6.749   4.885   5.582  0.1799  1.2728 -1.8085
  224MOL0     H30223   6.937   4.764   5.652  2.2368  0.7215 -0.1959
  224MOL0     H30224   7.268   4.611   5.923  2.3986 -0.0075 -0.0737
  224MOL0     H30225   7.497   4.576   6.014  2.0357  2.3563 -0.3729
  224MOL0     H30226   9.191   3.992   6.839 -0.1030  0.1048  1.6249
  224MOL0     H30227   9.334   3.801   6.929 -2.3079 -0.2399 -2.3551
  224MOL0     H30228   9.716   3.609   6.911 -2.5772  0.5362  1.2322
  224MOL0     H30229   9.853   3.423   6.981 -3.8650 -1.4953  0.9184
  224MOL0     H30230  10.070   3.349   7.031  0.4715 -0.8164  0.1054
  224MOL0     H30231  10.177   3.450   7.139 -1.4441  0.5329  0.4017
  224MOL0     H30232  10.178   3.241   7.296 -1.0949 -2.3478  0.2322
  224MOL0     H30233  10.264   3.221   7.152  1.2872 -0.6016  1.1546
  224MOL0     H30234  10.067   3.108   7.028 -3.7603  1.4285 -0.0959
  224MOL0     H30235   9.979   3.105   7.168  0.0262 -1.7309 -0.9162
  224MOL0     H30236  10.258   2.978   7.122 -0.1046 -1.7849 -0.6090
  224MOL0     H30237  10.093   2.905   7.146 -0.0284  0.1553 -0.9520
  224MOL0     H30238  10.227   2.947   7.545 -0.5020  0.2555  0.3664
  224MOL0     H30239   9.931   3.600   7.360  0.6041  0.8611 -0.0897
  224MOL0     H30240   9.771   3.787   7.301 -0.8369 -1.7540  2.5614
  225MOL0     O30241   9.966   7.560   0.569  0.3348 -0.0268 -0.1753
  225MOL0     C30242  10.047   7.634   0.521 -1.2304 -0.5549 -0.0920
  225MOL0     O30243  10.053   7.764   0.555 -0.5465 -0.0124 -0.4345
  225MOL0     C30244   9.953   7.817   0.635 -1.0723 -1.1931  0.2368
  225MOL0     C30245   9.882   7.931   0.591 -0.2383 -0.4330 -0.5127
  225MOL0     C30246   9.775   7.976   0.675 -0.5974 -0.8971 -0.2935
  225MOL0     C30247   9.753   7.919   0.801 -0.6943  0.3034  0.5562
  225MOL0     O30248   9.650   7.979   0.869  0.0489  0.0521 -0.1975
  225MOL0     C30249   9.599   7.912   0.987  0.5555 -0.2128 -0.5214
  225MOL0     C30250   9.455   7.970   1.006 -0.6198 -0.9932  0.2617
  225MOL0     C30251   9.367   7.883   1.101  0.1366 -0.9593  0.0259
  225MOL0     C30252   9.248   7.960   1.152 -0.3767  0.6168 -0.9131
  225MOL0     C30253   9.147   7.870   1.223 -0.4670 -0.9610  0.6219
  225MOL0     C30254   9.200   7.769   1.328  0.2030 -1.2176  0.1860
  225MOL0     C30255   9.102   7.722   1.434 -0.1655  1.1218  0.2601
  225MOL0     C30256   8.984   7.647   1.365  0.1904 -0.5791  0.4422
  225MOL0     N30257   8.868   7.647   1.453 -0.6034  0.2680  0.2567
  225MOL0     C30258   8.766   7.543   1.461  0.8212 -1.3119  0.2228
  225MOL0     C30259   8.681   7.594   1.556 -0.0274  0.1745 -0.1944
  225MOL0     C30260   8.549   7.548   1.607 -0.4204 -0.2288  0.1425
  225MOL0     C30261   8.423   7.614   1.529 -0.5176  0.2150 -0.3331
  225MOL0     C30262   8.286   7.591   1.602 -0.9868 -0.3601 -0.5426
  225MOL0     C30263   8.266   7.686   1.719 -0.4743 -0.0791 -0.3485
  225MOL0     O30264   8.125   7.670   1.735  0.2070 -0.4104  0.5435
  225MOL0     C30265   8.086   7.710   1.859 -0.0608  0.4705 -0.0732
  225MOL0     C30266   8.013   7.830   1.881 -0.1762 -0.1508 -0.2920
  225MOL0     C30267   7.963   7.860   2.010  0.7568 -0.4294  0.2656
  225MOL0     C30268   7.879   7.988   2.017  0.5931  0.1582 -0.7943
  225MOL0     C30269   7.981   7.765   2.118  0.5154  0.6962 -0.0267
  225MOL0     C30270   7.932   7.795   2.254 -0.5655  0.0497 -0.2806
  225MOL0     O30271   7.990   7.718   2.356 -0.0517 -0.1350 -0.5573
  225MOL0     C30272   7.986   7.771   2.487 -0.3851 -0.1062 -0.1134
  225MOL0     C30273   8.091   7.830   2.553 -0.0625  0.5023  0.7312
  225MOL0     C30274   8.083   7.868   2.686  0.7152 -0.2995 -0.1817
  225MOL0     C30275   7.958   7.856   2.749  0.0017  0.3704  0.4651
  225MOL0     O30276   7.931   7.897   2.874 -0.1987  0.0982 -0.1704
  225MOL0     C30277   8.024   8.006   2.925  0.1873  0.1461  0.7668
  225MOL0     C30278   7.963   8.105   3.020 -0.1508 -0.0078 -0.1582
  225MOL0     C30279   7.812   8.124   2.997  0.1675  0.8049  0.4026
  225MOL0     C30280   7.770   8.173   2.857 -0.4499 -0.0698  0.0542
  225MOL0     C30281   7.631   8.243   2.839  0.4761  0.5795 -0.4913
  225MOL0     C30282   7.522   8.149   2.880  0.2075 -0.4944 -0.2974
  225MOL0     C30283   7.384   8.228   2.883 -0.4579  0.9403  0.6541
  225MOL0     C30284   7.257   8.133   2.896 -0.3817  0.1794 -0.2496
  225MOL0    Cl30285   7.287   8.014   3.032  0.2387  0.2843 -0.4320
  225MOL0     C30286   7.853   7.798   2.688  0.6990 -0.0376  0.3072
  225MOL0     C30287   7.862   7.756   2.557  0.5852  0.2821 -0.1344
  225MOL0     O30288   7.852   7.886   2.270 -0.0542  1.3640  0.0292
  225MOL0     C30289   8.047   7.644   2.091  0.1720 -0.0420 -0.9235
  225MOL0     C30290   8.107   7.618   1.967  0.2560 -0.2380 -0.2491
  225MOL0     N30291   8.720   7.723   1.599  0.0030 -0.6399 -0.7095
  225MOL0     N30292   8.830   7.747   1.540  0.3332  0.7010 -0.1373
  225MOL0     C30293   9.821   7.803   0.839 -1.3286 -0.2448  0.3135
  225MOL0     C30294   9.924   7.759   0.756 -0.2540 -0.2833  0.3210
  225MOL0     C30295  10.149   7.579   0.425 -0.3181 -0.0420 -0.3748
  225MOL0     C30296  10.263   7.656   0.385 -0.0535  0.0892 -0.4305
  225MOL0     C30297  10.355   7.600   0.299 -1.0160  0.1719  0.7547
  225MOL0     C30298  10.333   7.473   0.239 -0.4153  0.0668 -0.1870
  225MOL0     O30299  10.423   7.433   0.136 -0.3146 -0.4901  0.3298
  225MOL0     C30300  10.410   7.302   0.064  0.3320 -0.2581 -0.3871
  225MOL0     C30301  10.397   7.320  -0.080  0.3638  0.2823  0.8256
  225MOL0     C30302  10.254   7.370  -0.110 -0.4501  0.3915  0.6043
  225MOL0     C30303  10.246   7.499  -0.177 -0.4006 -0.0546  0.3659
  225MOL0     C30304  10.260   7.514  -0.323 -0.0063 -1.4899  0.5757
  225MOL0     C30305  10.266   7.557  -0.434  0.0394  0.4219 -0.0324
  225MOL0     C30306  10.220   7.406   0.289 -0.1998  0.0783  0.4790
  225MOL0     C30307  10.123   7.462   0.370  0.6802 -0.2231  0.8739
  225MOL0     H30308   9.897   7.962   0.488  0.6643 -0.3170 -0.3509
  225MOL0     H30309   9.730   8.067   0.639  1.1002 -0.3897 -1.2574
  225MOL0     H30310   9.591   7.805   0.967  0.1662  0.0474 -1.9033
  225MOL0     H30311   9.656   7.938   1.076  1.0821  3.0893 -1.6538
  225MOL0     H30312   9.458   8.073   1.044 -1.0000 -0.3924 -1.2505
  225MOL0     H30313   9.408   7.972   0.907  0.3329 -1.2719 -0.2117
  225MOL0     H30314   9.331   7.799   1.042 -2.1539  0.7318 -1.1623
  225MOL0     H30315   9.416   7.846   1.191 -2.2986  0.7243  2.2186
  225MOL0     H30316   9.292   8.019   1.233 -1.7972 -0.0329  0.4052
  225MOL0     H30317   9.201   8.019   1.073  1.2822  1.6242 -1.1827
  225MOL0     H30318   9.079   7.936   1.278 -0.3133  0.9892 -1.3887
  225MOL0     H30319   9.095   7.820   1.140 -1.0220 -0.4602  0.6628
  225MOL0     H30320   9.257   7.691   1.278  1.7953  0.6337 -1.0531
  225MOL0     H30321   9.278   7.816   1.390 -2.7535  1.5504  2.1595
  225MOL0     H30322   9.158   7.652   1.497 -1.0469  1.3455  1.3447
  225MOL0     H30323   9.062   7.797   1.503 -0.5948 -0.8714  2.3194
  225MOL0     H30324   9.015   7.545   1.341 -0.1397 -0.2322 -1.6449
  225MOL0     H30325   8.961   7.705   1.275 -0.6554  1.4519  1.9009
  225MOL0     H30326   8.765   7.453   1.400  0.2578 -0.4168 -1.1267
  225MOL0     H30327   8.549   7.439   1.600  0.3076 -0.1781 -0.7563
  225MOL0     H30328   8.536   7.580   1.711  0.6734  1.9037 -0.3247
  225MOL0     H30329   8.412   7.572   1.428  0.2332 -0.6330 -0.0807
  225MOL0     H30330   8.429   7.723   1.520 -0.1056  0.4017  1.7572
  225MOL0     H30331   8.276   7.489   1.639 -2.9842  0.6375  2.0173
  225MOL0     H30332   8.203   7.613   1.534 -0.5847 -1.7892 -1.5240
  225MOL0     H30333   8.296   7.790   1.705  0.7759 -0.1228  1.5935
  225MOL0     H30334   8.317   7.646   1.807 -2.1537  1.1467  1.2462
  225MOL0     H30335   8.007   7.899   1.797 -0.2189  0.0474 -0.1277
  225MOL0     H30336   7.771   7.970   2.025  0.9100 -1.2627  0.8183
  225MOL0     H30337   7.911   8.051   2.102 -0.3860 -2.0217  1.3108
  225MOL0     H30338   7.904   8.032   1.920  1.9264 -1.4099 -1.2108
  225MOL0     H30339   8.189   7.835   2.507 -1.2795  0.8793 -2.0229
  225MOL0     H30340   8.165   7.907   2.746 -1.0023 -0.4682  2.4635
  225MOL0     H30341   8.112   7.970   2.978  1.1024  0.5890 -0.3904
  225MOL0     H30342   8.062   8.061   2.838 -0.0016 -2.1879 -0.8740
  225MOL0     H30343   7.979   8.064   3.121  2.5069 -1.5256 -1.0879
  225MOL0     H30344   8.019   8.198   3.018  1.4941 -0.9718 -1.1830
  225MOL0     H30345   7.768   8.193   3.069 -0.4680  2.2049 -1.2616
  225MOL0     H30346   7.761   8.029   3.016 -2.4692  2.1130  0.3838
  225MOL0     H30347   7.845   8.244   2.823 -0.6815 -0.4703 -1.3472
  225MOL0     H30348   7.771   8.085   2.792 -0.8553 -0.5066  0.6234
  225MOL0     H30349   7.621   8.279   2.736  1.4785 -0.9994 -1.1784
  225MOL0     H30350   7.618   8.335   2.898  2.0135  1.0416 -0.8241
  225MOL0     H30351   7.535   8.053   2.829 -0.3808 -2.1061  2.3777
  225MOL0     H30352   7.537   8.105   2.979  0.3934 -0.2000 -0.1932
  225MOL0     H30353   7.377   8.298   2.799 -1.4202  2.6856  2.1246
  225MOL0     H30354   7.399   8.295   2.968  1.1963  1.4936 -0.0348
  225MOL0     H30355   7.244   8.069   2.809 -1.6864 -0.9951  0.7647
  225MOL0     H30356   7.167   8.191   2.916 -1.0498 -1.0367  0.3763
  225MOL0     H30357   7.762   7.814   2.746  0.4001  0.7634 -0.3640
  225MOL0     H30358   7.771   7.720   2.510  1.6911 -1.4969 -0.9945
  225MOL0     H30359   8.062   7.568   2.167  0.8211  0.9560 -0.0325
  225MOL0     H30360   8.170   7.530   1.956  1.4618 -0.0491  3.5476
  225MOL0     H30361   9.793   7.751   0.930 -3.3098  1.2444  0.6107
  225MOL0     H30362   9.987   7.675   0.784 -0.1152 -0.2309  0.1693
  225MOL0     H30363  10.268   7.761   0.413  0.4311 -0.7468  2.9986
  225MOL0     H30364  10.447   7.650   0.273  0.5857 -2.0703  1.8518
  225MOL0     H30365  10.505   7.249   0.077  1.8086  2.0649 -1.0200
  225MOL0     H30366  10.325   7.244   0.103 -1.3455  1.6126 -1.0825
  225MOL0     H30367  10.414   7.226  -0.133 -0.5953 -0.1678  1.2940
  225MOL0     H30368  10.477   7.388  -0.112 -0.7714  0.8727 -0.8640
  225MOL0     H30369  10.198   7.380  -0.017 -0.1781  2.1237  0.6118
  225MOL0     H30370  10.204   7.289  -0.163  1.8569 -0.7643  0.0441
  225MOL0     H30371  10.324   7.550  -0.120 -1.7310  0.1460  2.0691
  225MOL0     H30372  10.143   7.525  -0.153 -0.4124 -0.9852  1.3981
  225MOL0     H30373  10.268   7.599  -0.533 -2.6743  2.8912  0.8037
  225MOL0     H30374  10.199   7.305   0.258 -2.4739  1.1082 -1.6003
  225MOL0     H30375  10.041   7.401   0.407  3.2941 -2.4543  3.4827
  226MOL0     O30376   7.208   1.968   8.101 -0.1090  0.3172 -0.5817
  226MOL0     C30377   7.234   2.033   8.205  0.3161  0.2180  0.6816
  226MOL0     O30378   7.147   2.112   8.278 -0.4644  0.2890  0.5261
  226MOL0     C30379   7.018   2.144   8.233  0.5239  0.0031 -0.1174
  226MOL0     C30380   6.967   2.149   8.098  0.6997 -0.0648 -0.0123
  226MOL0     C30381   6.832   2.178   8.077  0.0715  0.5503 -0.3254
  226MOL0     C30382   6.743   2.199   8.187 -0.1320  0.3077 -0.7485
  226MOL0     O30383   6.610   2.219   8.150  0.3084  0.6139 -0.3144
  226MOL0     C30384   6.500   2.228   8.239  0.3200  0.4887 -0.5125
  226MOL0     C30385   6.441   2.097   8.274 -0.3203 -0.5500 -0.0714
  226MOL0     C30386   6.329   2.049   8.185 -0.1382  0.3825 -0.4025
  226MOL0     C30387   6.235   1.951   8.255  0.6846  0.3675  0.4125
  226MOL0     C30388   6.124   1.887   8.165  0.4368 -0.4028  0.2085
  226MOL0     C30389   6.022   1.803   8.249  0.5974 -0.0922  0.2840
  226MOL0     C30390   5.940   1.720   8.145 -0.2797 -0.2618 -0.2777
  226MOL0     C30391   5.851   1.616   8.204  0.2016 -0.5299 -0.4529
  226MOL0     N30392   5.721   1.675   8.260  0.4640  0.5246 -0.0090
  226MOL0     C30393   5.700   1.742   8.377  1.0020 -0.1011  0.0275
  226MOL0     C30394   5.566   1.756   8.394  0.4969  0.1215 -0.1981
  226MOL0     C30395   5.498   1.797   8.523  0.8551 -0.0648  0.8259
  226MOL0     C30396   5.481   1.686   8.628  0.4330 -0.1341 -0.0551
  226MOL0     C30397   5.419   1.747   8.764 -0.3451 -0.1467  0.2405
  226MOL0     C30398   5.275   1.774   8.754  0.2311  0.0869  0.1637
  226MOL0     O30399   5.210   1.814   8.636  0.0959 -0.4671 -0.3373
  226MOL0     C30400   5.071   1.825   8.627  0.3118  0.1295 -0.5076
  226MOL0     C30401   4.991   1.797   8.736  0.6166 -0.2577 -1.0258
  226MOL0     C30402   4.848   1.804   8.730 -0.2009  0.1209 -0.7985
  226MOL0     C30403   4.778   1.739   8.844 -0.4777 -0.0639 -0.1640
  226MOL0     C30404   4.782   1.854   8.618 -0.0455  0.1274 -0.3819
  226MOL0     C30405   4.639   1.868   8.604 -0.3692 -0.9369 -0.7335
  226MOL0     O30406   4.584   1.867   8.480 -0.0642  0.8459  1.1343
  226MOL0     C30407   4.450   1.872   8.452 -0.0388  0.4636 -0.0708
  226MOL0     C30408   4.404   1.953   8.349 -0.0603  0.4076  0.1426
  226MOL0     C30409   4.273   1.970   8.320 -0.1582 -0.4825  0.7844
  226MOL0     C30410   4.178   1.883   8.385  0.1274  0.1022  1.0408
  226MOL0     O30411   4.048   1.910   8.355  0.5935  0.7826  0.1416
  226MOL0     C30412   3.951   1.805   8.376 -0.7900 -0.4348  0.2373
  226MOL0     C30413   3.824   1.844   8.294 -0.3700 -0.4160  0.3928
  226MOL0     C30414   3.720   1.733   8.316 -0.4422 -0.4510 -0.1800
  226MOL0     C30415   3.592   1.739   8.224 -0.4807  0.2756  0.2988
  226MOL0     C30416   3.486   1.628   8.256  0.2944  0.6681 -0.6829
  226MOL0     C30417   3.359   1.603   8.173 -0.8111  1.1692 -0.5100
  226MOL0     C30418   3.319   1.728   8.106  0.4946 -0.3020  0.2705
  226MOL0     C30419   3.200   1.705   8.009  1.1116  0.1050 -0.0737
  226MOL0    Cl30420   3.137   1.861   7.941  0.7102  0.0326 -0.1280
  226MOL0     C30421   4.223   1.793   8.480 -0.3022  0.0934 -0.1848
  226MOL0     C30422   4.359   1.790   8.519 -0.0175  0.8387  0.3652
  226MOL0     O30423   4.583   1.917   8.704 -0.7699  0.4449 -0.2358
  226MOL0     C30424   4.870   1.889   8.510  0.4276  0.1329  0.2848
  226MOL0     C30425   5.006   1.881   8.520 -0.7026  0.1247 -0.0402
  226MOL0     N30426   5.511   1.703   8.282  0.3998 -1.0202 -0.0015
  226MOL0     N30427   5.599   1.661   8.199  0.0994 -0.4343 -0.5116
  226MOL0     C30428   6.791   2.187   8.320 -0.1624  0.4235  0.1399
  226MOL0     C30429   6.933   2.171   8.342 -0.3580 -0.5097  1.2286
  226MOL0     C30430   7.375   2.028   8.258 -0.0442  0.0367  1.2246
  226MOL0     C30431   7.468   1.977   8.169  0.2838  0.4791 -0.6250
  226MOL0     C30432   7.600   1.969   8.197  0.3231 -0.3594  0.1043
  226MOL0     C30433   7.639   2.008   8.325  0.5421 -0.1599 -0.0800
  226MOL0     O30434   7.770   1.992   8.340 -0.4448 -0.2816  0.2579
  226MOL0     C30435   7.828   2.026   8.465  0.3641  0.8460  0.2688
  226MOL0     C30436   7.879   2.174   8.475  1.3459 -0.3463  0.1219
  226MOL0     C30437   7.985   2.201   8.367 -0.8089 -0.3683 -0.0926
  226MOL0     C30438   8.029   2.343   8.372  0.6222  0.4515  0.0023
  226MOL0     C30439   8.121   2.390   8.263  0.2683  0.1486  0.2983
  226MOL0     C30440   8.202   2.425   8.176 -0.4529  0.0985  0.4801
  226MOL0     C30441   7.548   2.053   8.424  0.4299  0.6526  1.8212
  226MOL0     C30442   7.413   2.061   8.386  0.2155  0.0180  0.1252
  226MOL0     H30443   7.033   2.106   8.023  1.0914 -2.1821  1.4823
  226MOL0     H30444   6.798   2.172   7.974 -0.0643  0.2490 -0.2632
  226MOL0     H30445   6.531   2.266   8.337  1.4608 -1.9010  0.1168
  226MOL0     H30446   6.418   2.286   8.195 -1.2034 -0.8064  0.4856
  226MOL0     H30447   6.519   2.021   8.284 -0.5420 -0.4637  3.6940
  226MOL0     H30448   6.407   2.109   8.377 -0.4474 -0.0916 -0.1665
  226MOL0     H30449   6.266   2.130   8.150 -1.7129 -1.2399 -1.4984
  226MOL0     H30450   6.378   1.999   8.101  1.5778 -1.1620  1.4082
  226MOL0     H30451   6.296   1.868   8.291  0.9244  0.9924  1.4978
  226MOL0     H30452   6.188   2.000   8.340 -1.1305  0.4450 -0.5932
  226MOL0     H30453   6.072   1.972   8.120  2.6247  0.7304 -0.3422
  226MOL0     H30454   6.177   1.827   8.091  0.3697 -0.1505 -0.0437
  226MOL0     H30455   6.069   1.729   8.315 -1.6926 -1.3238  0.6506
  226MOL0     H30456   5.963   1.863   8.319  0.2025 -2.1354  1.8088
  226MOL0     H30457   5.870   1.778   8.084 -0.2544 -2.0895 -2.1478
  226MOL0     H30458   6.014   1.672   8.080  1.6271  0.3768  1.2937
  226MOL0     H30459   5.910   1.559   8.277  1.0995 -0.9193 -1.4512
  226MOL0     H30460   5.827   1.548   8.123  3.4233 -0.6422 -1.4661
  226MOL0     H30461   5.769   1.769   8.456 -2.0393  2.0912  2.2049
  226MOL0     H30462   5.540   1.886   8.571 -1.5004  1.7919 -0.3262
  226MOL0     H30463   5.404   1.838   8.485  2.9082  3.2758 -1.1650
  226MOL0     H30464   5.579   1.644   8.649 -0.4706 -2.2803  0.1223
  226MOL0     H30465   5.410   1.621   8.576 -0.3376  0.5951  0.0437
  226MOL0     H30466   5.471   1.842   8.777 -1.0462  0.3406 -0.4481
  226MOL0     H30467   5.431   1.676   8.847 -2.9047 -1.5060 -0.4653
  226MOL0     H30468   5.248   1.854   8.823 -0.1871 -0.0074  0.1147
  226MOL0     H30469   5.228   1.679   8.779  0.8502 -0.5510 -1.0346
  226MOL0     H30470   5.024   1.760   8.833  0.6204 -3.3820 -2.0859
  226MOL0     H30471   4.841   1.756   8.932  0.1842 -1.7085 -0.2921
  226MOL0     H30472   4.679   1.784   8.857 -0.1189  1.5564 -2.3982
  226MOL0     H30473   4.771   1.632   8.825  1.9594 -0.3141  0.0646
  226MOL0     H30474   4.471   2.022   8.298  0.4753 -0.9442 -1.0359
  226MOL0     H30475   4.240   2.041   8.245  2.0979 -1.1255 -0.9080
  226MOL0     H30476   3.990   1.714   8.329  0.1485  0.3780 -0.5993
  226MOL0     H30477   3.918   1.791   8.479 -0.5171  2.2647  0.7390
  226MOL0     H30478   3.788   1.942   8.326  0.3038 -0.3362  0.9389
  226MOL0     H30479   3.849   1.852   8.187  2.5271 -0.9769  0.9478
  226MOL0     H30480   3.683   1.741   8.419  1.4111  0.1777  0.4959
  226MOL0     H30481   3.775   1.640   8.299  1.7447  0.2146  2.4292
  226MOL0     H30482   3.553   1.841   8.234 -0.6689  0.3966 -1.3252
  226MOL0     H30483   3.627   1.707   8.125  0.9111 -0.3393  0.9682
  226MOL0     H30484   3.450   1.663   8.353  0.6549 -0.1275 -0.2573
  226MOL0     H30485   3.546   1.538   8.272 -2.6253 -1.5681 -1.4888
  226MOL0     H30486   3.370   1.524   8.098 -1.9793  3.7314 -3.6042
  226MOL0     H30487   3.278   1.558   8.231 -1.1659  3.3127  0.7568
  226MOL0     H30488   3.399   1.758   8.037  0.8354  0.2109  0.8704
  226MOL0     H30489   3.300   1.813   8.173  1.3781  1.8182 -2.0362
  226MOL0     H30490   3.121   1.661   8.072  2.2378  0.9063  2.0075
  226MOL0     H30491   3.217   1.639   7.924 -0.7992  0.7013 -0.9762
  226MOL0     H30492   4.150   1.731   8.532  0.6098 -1.1538 -0.3466
  226MOL0     H30493   4.396   1.717   8.591 -1.0363 -0.0888 -0.0186
  226MOL0     H30494   4.821   1.907   8.415  0.9296  0.6212  0.1105
  226MOL0     H30495   5.058   1.907   8.429 -1.9106  0.1065 -0.7612
  226MOL0     H30496   6.744   2.209   8.415  0.0055 -1.1599  0.6085
  226MOL0     H30497   6.961   2.178   8.446  0.1949  0.3530  1.0348
  226MOL0     H30498   7.433   1.938   8.074 -3.2795  1.2299  0.2124
  226MOL0     H30499   7.670   1.917   8.131 -0.5783 -0.4915 -0.7702
  226MOL0     H30500   7.767   1.986   8.547 -0.5891 -0.7363 -1.1667
  226MOL0     H30501   7.920   1.967   8.474 -0.4417 -0.2863  1.4493
  226MOL0     H30502   7.919   2.204   8.572 -0.2776 -1.4307  1.1843
  226MOL0     H30503   7.791   2.237   8.462  1.3769  0.1123  1.9027
  226MOL0     H30504   7.944   2.194   8.265  0.1186 -0.4103 -0.4708
  226MOL0     H30505   8.070   2.134   8.379  1.4038  1.8587 -2.0959
  226MOL0     H30506   8.092   2.339   8.462  1.8236 -0.2797 -0.8381
  226MOL0     H30507   7.948   2.414   8.386  2.0020  1.9705  0.6552
  226MOL0     H30508   8.279   2.450   8.106 -0.2775 -1.5820  0.0364
  226MOL0     H30509   7.588   2.073   8.522  3.1145  0.4637  0.8340
  226MOL0     H30510   7.338   2.084   8.461  0.3060  2.4460 -0.4475
  227MOL0     O30511   6.087   2.312   8.538  0.0233  0.2002 -0.1882
  227MOL0     C30512   6.143   2.208   8.579 -0.0624 -0.8348 -0.3445
  227MOL0     O30513   6.085   2.089   8.602  0.1051  0.0673  0.7553
  227MOL0     C30514   5.953   2.087   8.611 -0.0240  0.0957 -1.2478
  227MOL0     C30515   5.866   2.093   8.496 -0.0746  0.6416 -0.3695
  227MOL0     C30516   5.725   2.101   8.512 -0.8822  0.5844 -1.8762
  227MOL0     C30517   5.673   2.101   8.648 -0.1491 -1.2048  0.2354
  227MOL0     O30518   5.541   2.114   8.684 -0.4232 -0.2683 -0.0127
  227MOL0     C30519   5.430   2.163   8.593 -0.6477  0.6927 -0.9084
  227MOL0     C30520   5.317   2.210   8.677 -0.3423 -0.3282  1.0299
  227MOL0     C30521   5.211   2.258   8.579 -0.1219  0.0305 -0.2736
  227MOL0     C30522   5.160   2.398   8.608 -0.0032  0.2879 -0.0746
  227MOL0     C30523   5.070   2.419   8.736  0.0324  0.2265  0.5186
  227MOL0     C30524   4.945   2.335   8.743  1.0314  0.3915 -0.4014
  227MOL0     C30525   4.846   2.347   8.626  0.2795 -0.8545  0.1069
  227MOL0     C30526   4.731   2.240   8.643  0.1147 -0.5370 -0.1142
  227MOL0     N30527   4.614   2.290   8.718  0.0558 -0.3607 -0.6389
  227MOL0     C30528   4.498   2.234   8.693 -0.1397  0.1424 -0.3481
  227MOL0     C30529   4.419   2.275   8.802 -0.8217  0.1407 -0.3505
  227MOL0     C30530   4.271   2.249   8.819 -0.2574  0.3997 -0.7632
  227MOL0     C30531   4.186   2.313   8.711 -0.5447  0.0857  0.0764
  227MOL0     C30532   4.124   2.210   8.619 -0.0771 -0.0474  0.4154
  227MOL0     C30533   4.056   2.261   8.497 -0.7144  0.2127 -0.5330
  227MOL0     O30534   3.944   2.337   8.552 -0.2711 -0.3304 -0.2159
  227MOL0     C30535   3.817   2.334   8.504  0.5363 -0.1339  1.2316
  227MOL0     C30536   3.770   2.268   8.393 -0.5609  0.3051 -0.3528
  227MOL0     C30537   3.642   2.258   8.358  0.1005  0.6350 -0.4791
  227MOL0     C30538   3.609   2.184   8.227  0.4912  0.4985  0.4737
  227MOL0     C30539   3.551   2.335   8.432 -0.9656 -0.3065 -0.2292
  227MOL0     C30540   3.409   2.328   8.407  0.3913 -0.6195 -0.4028
  227MOL0     O30541   3.357   2.202   8.380  0.0925  0.4134  0.9179
  227MOL0     C30542   3.225   2.202   8.365  0.0429  0.1475  0.6265
  227MOL0     C30543   3.177   2.182   8.231  0.1397  0.1631  1.0326
  227MOL0     C30544   3.040   2.175   8.199  0.3249  0.3231 -0.2911
  227MOL0     C30545   2.942   2.197   8.296  1.2230 -0.1639  0.1026
  227MOL0     O30546   2.807   2.200   8.250  0.3004  0.0214  0.0014
  227MOL0     C30547   2.711   2.249   8.338  0.6126  0.1039 -0.5724
  227MOL0     C30548   2.665   2.142   8.440 -0.3427  0.1335 -0.3714
  227MOL0     C30549   2.582   2.208   8.555 -0.0768  0.2346  0.6135
  227MOL0     C30550   2.461   2.290   8.502 -0.5568  0.2894 -0.6175
  227MOL0     C30551   2.358   2.306   8.603  0.7595 -0.4737 -0.4313
  227MOL0     C30552   2.400   2.395   8.720  0.3797  0.1527 -0.5546
  227MOL0     C30553   2.286   2.421   8.823  0.0866  0.6606  0.9584
  227MOL0     C30554   2.286   2.564   8.866 -0.3083 -0.3017 -0.3214
  227MOL0    Cl30555   2.200   2.661   8.731 -0.0440 -0.2967 -0.5651
  227MOL0     C30556   2.995   2.215   8.430  0.1476  0.5716  0.6287
  227MOL0     C30557   3.137   2.208   8.463  0.1359  0.5080 -0.6980
  227MOL0     O30558   3.343   2.432   8.419 -0.5476 -0.3914  0.1749
  227MOL0     C30559   3.591   2.425   8.536 -0.7978  0.5610 -0.0624
  227MOL0     C30560   3.726   2.412   8.574 -0.4375 -0.6815 -0.5216
  227MOL0     N30561   4.491   2.359   8.885 -0.5410  0.4724 -0.4759
  227MOL0     N30562   4.611   2.369   8.836 -0.3712  0.6161 -0.0767
  227MOL0     C30563   5.759   2.089   8.766  0.2349 -0.6536 -0.4786
  227MOL0     C30564   5.899   2.083   8.743 -0.3683  0.6738 -0.2069
  227MOL0     C30565   6.286   2.216   8.597 -1.0235  0.5378 -1.0804
  227MOL0     C30566   6.350   2.102   8.652  0.3488  0.0715  0.7675
  227MOL0     C30567   6.495   2.098   8.663 -0.8295 -0.4852  0.4539
  227MOL0     C30568   6.568   2.216   8.647 -0.5290  0.1475 -1.2244
  227MOL0     O30569   6.704   2.202   8.670 -0.0514  0.3054  0.1740
  227MOL0     C30570   6.730   2.251   8.799  0.2492  0.1440  0.1503
  227MOL0     C30571   6.872   2.255   8.837 -0.7143  0.7512 -0.4605
  227MOL0     C30572   6.947   2.121   8.808 -0.2032  0.6558 -0.1287
  227MOL0     C30573   7.091   2.131   8.840 -0.3238 -0.0625  0.1776
  227MOL0     C30574   7.156   2.254   8.793  1.2608 -0.3646 -0.1460
  227MOL0     C30575   7.203   2.354   8.746 -0.0490 -0.0132 -0.9233
  227MOL0     C30576   6.509   2.326   8.586 -0.4563 -0.5610  0.7860
  227MOL0     C30577   6.372   2.328   8.564  0.3275 -0.1299 -0.4068
  227MOL0     H30578   5.906   2.114   8.397  0.6766  0.7414 -0.0521
  227MOL0     H30579   5.657   2.110   8.428  0.7903 -0.4676 -3.4395
  227MOL0     H30580   5.454   2.245   8.525 -2.9212  1.4200 -0.9105
  227MOL0     H30581   5.396   2.078   8.534 -0.1983  1.7161 -2.7148
  227MOL0     H30582   5.283   2.136   8.750 -2.4049  0.2008  0.6555
  227MOL0     H30583   5.359   2.290   8.740  2.1695 -0.9567  0.2700
  227MOL0     H30584   5.251   2.254   8.477 -0.4006 -0.7736 -0.3584
  227MOL0     H30585   5.123   2.193   8.578 -0.5460  0.6004 -0.4092
  227MOL0     H30586   5.245   2.466   8.608 -0.2635  0.7942 -3.5777
  227MOL0     H30587   5.098   2.432   8.525  0.7843  0.8920 -0.4284
  227MOL0     H30588   5.131   2.396   8.825  3.2284  3.4126 -0.5969
  227MOL0     H30589   5.038   2.524   8.738  0.2521  0.3357 -0.7407
  227MOL0     H30590   4.970   2.230   8.763 -0.3091 -0.2128 -1.7120
  227MOL0     H30591   4.892   2.350   8.838 -0.3672 -1.5326 -0.7917
  227MOL0     H30592   4.804   2.448   8.629  0.0624 -0.8895 -1.2275
  227MOL0     H30593   4.896   2.332   8.530 -0.6030  2.4507 -1.0115
  227MOL0     H30594   4.779   2.154   8.691  0.2402  0.0720  0.8853
  227MOL0     H30595   4.690   2.207   8.547 -4.2772  1.4442  0.8275
  227MOL0     H30596   4.449   2.183   8.611 -0.5715  0.9354 -0.5934
  227MOL0     H30597   4.255   2.141   8.818  1.2415  0.1639 -1.5884
  227MOL0     H30598   4.246   2.293   8.916 -0.4779 -1.2651 -0.0273
  227MOL0     H30599   4.249   2.385   8.658  0.2145 -1.4745 -1.2279
  227MOL0     H30600   4.114   2.379   8.761  1.0210  1.0431  1.1430
  227MOL0     H30601   4.068   2.139   8.682  0.3703  0.9643  2.0073
  227MOL0     H30602   4.204   2.154   8.568 -1.0170  1.6427 -3.2150
  227MOL0     H30603   4.028   2.171   8.441 -1.2171  1.2375 -2.0129
  227MOL0     H30604   4.118   2.327   8.435 -0.1265  0.9942  0.8607
  227MOL0     H30605   3.843   2.216   8.333 -0.9470  1.5269 -1.9385
  227MOL0     H30606   3.522   2.230   8.179  1.3752  1.2149 -0.4628
  227MOL0     H30607   3.695   2.194   8.161  0.3390  1.0731  0.3582
  227MOL0     H30608   3.585   2.079   8.249  0.9974  0.1552 -0.5654
  227MOL0     H30609   3.243   2.172   8.146 -2.1548 -1.8590 -0.6987
  227MOL0     H30610   3.011   2.173   8.095  2.8660 -1.5766 -1.0721
  227MOL0     H30611   2.740   2.344   8.383 -1.5596  1.5145 -1.9283
  227MOL0     H30612   2.621   2.259   8.277  1.9952 -1.0875 -2.9677
  227MOL0     H30613   2.608   2.071   8.379 -1.7243  1.3303 -0.5252
  227MOL0     H30614   2.739   2.082   8.494  0.2401  1.7725  0.7093
  227MOL0     H30615   2.647   2.275   8.611 -1.2052  2.2992 -0.4131
  227MOL0     H30616   2.551   2.126   8.620 -0.5941 -0.7947 -0.8670
  227MOL0     H30617   2.507   2.383   8.469  0.6644  0.5130  1.5612
  227MOL0     H30618   2.410   2.239   8.419 -2.1717  2.2961 -0.9380
  227MOL0     H30619   2.322   2.208   8.637  2.4003 -0.5359  1.2370
  227MOL0     H30620   2.271   2.364   8.567 -0.6560 -0.6037  2.4995
  227MOL0     H30621   2.477   2.336   8.770 -0.8063 -1.6298 -0.7621
  227MOL0     H30622   2.419   2.493   8.674 -3.2987  1.6362  0.6932
  227MOL0     H30623   2.286   2.344   8.900 -2.6341 -0.2080  0.1896
  227MOL0     H30624   2.195   2.400   8.767  2.2030 -3.5626 -1.3731
  227MOL0     H30625   2.387   2.606   8.879 -0.4895  0.7380 -2.0336
  227MOL0     H30626   2.231   2.570   8.961 -3.3544 -1.7486 -1.8463
  227MOL0     H30627   2.926   2.228   8.513  1.5097 -0.0402  1.9239
  227MOL0     H30628   3.172   2.227   8.564  5.1316 -1.2301 -1.8183
  227MOL0     H30629   3.527   2.492   8.591 -0.8009  1.1076 -0.7176
  227MOL0     H30630   3.752   2.469   8.663 -0.3893  0.2405 -1.1082
  227MOL0     H30631   5.705   2.089   8.860 -0.1511  0.2659 -0.6910
  227MOL0     H30632   5.967   2.081   8.828 -0.7731 -1.7933  0.1387
  227MOL0     H30633   6.296   2.008   8.659  1.6052 -0.7727 -0.4468
  227MOL0     H30634   6.547   2.007   8.694  0.2964 -0.5499 -1.4582
  227MOL0     H30635   6.690   2.353   8.794  1.2113  0.4788 -2.2099
  227MOL0     H30636   6.666   2.196   8.868  0.0537  0.2867  0.0825
  227MOL0     H30637   6.877   2.283   8.942  1.5605  0.8882 -0.5494
  227MOL0     H30638   6.919   2.341   8.787 -2.4862 -0.0761 -3.8572
  227MOL0     H30639   6.928   2.088   8.706  1.3100  2.1076 -0.9192
  227MOL0     H30640   6.901   2.050   8.878  0.3109  0.7609  0.3215
  227MOL0     H30641   7.143   2.043   8.802 -0.9510  0.0653 -1.0272
  227MOL0     H30642   7.103   2.141   8.948  2.9563  1.7448 -0.2220
  227MOL0     H30643   7.263   2.422   8.689  1.1919  0.2511  0.6382
  227MOL0     H30644   6.568   2.417   8.583 -1.3030 -0.0099  0.3229
  227MOL0     H30645   6.323   2.412   8.516  0.3956 -0.2936 -0.7621
  228MOL0     O30646   9.549   4.848   4.752 -0.2003  0.0743  0.4626
  228MOL0     C30647   9.557   4.770   4.655 -0.3525 -0.0220  0.2095
  228MOL0     O30648   9.463   4.676   4.631 -0.5265  0.0933  0.8690
  228MOL0     C30649   9.346   4.694   4.697 -0.1713  0.3154  0.2503
  228MOL0     C30650   9.315   4.600   4.792 -0.8314  0.3249  0.1556
  228MOL0     C30651   9.192   4.602   4.862  0.3310 -0.4543 -0.1369
  228MOL0     C30652   9.100   4.707   4.833 -0.7031 -0.2118  0.4202
  228MOL0     O30653   8.978   4.722   4.883  0.1594  0.1930  0.0943
  228MOL0     C30654   8.906   4.596   4.911  0.3367 -0.1735 -0.4580
  228MOL0     C30655   8.782   4.623   4.996  0.5566 -0.1210 -0.6236
  228MOL0     C30656   8.698   4.736   4.949 -0.8921 -0.0928 -0.1772
  228MOL0     C30657   8.562   4.716   5.006 -0.0284  0.8251 -0.5036
  228MOL0     C30658   8.479   4.609   4.937  0.1621 -0.0309  0.1194
  228MOL0     C30659   8.331   4.624   4.970  0.1413  0.0021  0.4395
  228MOL0     C30660   8.238   4.520   4.899  0.2763 -0.1557 -0.0229
  228MOL0     C30661   8.100   4.537   4.959 -0.0484 -0.5043 -0.3513
  228MOL0     N30662   8.000   4.444   4.896  0.3544  0.6434  0.0765
  228MOL0     C30663   7.967   4.441   4.761  0.4405 -0.5976  0.2388
  228MOL0     C30664   7.883   4.338   4.748 -0.5248 -0.2558  0.5633
  228MOL0     C30665   7.846   4.277   4.612  0.6200 -0.4800  0.3677
  228MOL0     C30666   7.698   4.283   4.597  0.5062  0.1546  0.4340
  228MOL0     C30667   7.645   4.203   4.473  0.9167  0.1093  0.1516
  228MOL0     C30668   7.495   4.220   4.479 -0.1518  0.2386  0.3215
  228MOL0     O30669   7.465   4.361   4.454  0.1577 -0.0776  0.1302
  228MOL0     C30670   7.353   4.407   4.518  0.5857 -0.2808 -0.3372
  228MOL0     C30671   7.321   4.534   4.495 -0.1438 -0.2491  0.3383
  228MOL0     C30672   7.208   4.604   4.526  0.2872  0.5274  0.5574
  228MOL0     C30673   7.174   4.745   4.485 -0.5135  0.9168  0.4811
  228MOL0     C30674   7.111   4.528   4.607 -0.7024 -0.0874  0.3313
  228MOL0     C30675   6.978   4.587   4.641  0.6008  0.2432 -0.7262
  228MOL0     O30676   6.958   4.720   4.679  0.5039 -0.1364  0.0303
  228MOL0     C30677   6.826   4.768   4.667  0.1192  0.3861 -0.0936
  228MOL0     C30678   6.722   4.754   4.762 -0.4197 -0.1837 -0.3768
  228MOL0     C30679   6.592   4.804   4.726 -0.2655  0.3364 -0.1492
  228MOL0     C30680   6.572   4.864   4.608 -0.0128 -0.8434 -0.4611
  228MOL0     O30681   6.443   4.908   4.584 -0.1389  0.0888  0.0453
  228MOL0     C30682   6.417   5.016   4.495 -0.4781 -0.4062 -0.1166
  228MOL0     C30683   6.280   5.035   4.455  0.6177 -0.6497 -0.3001
  228MOL0     C30684   6.205   5.048   4.590 -0.2891  0.6622  0.3186
  228MOL0     C30685   6.063   5.114   4.564 -0.2968 -0.7201 -0.2061
  228MOL0     C30686   5.979   5.122   4.697  0.1628 -0.6312  0.3766
  228MOL0     C30687   5.858   5.208   4.680 -0.2902  0.0690 -0.5860
  228MOL0     C30688   5.744   5.133   4.619 -0.2591  0.0003  0.0309
  228MOL0     C30689   5.616   5.213   4.621  0.1167 -0.2664  0.0309
  228MOL0    Cl30690   5.501   5.116   4.526  0.0485  0.1314  0.4517
  228MOL0     C30691   6.678   4.889   4.513 -0.0744 -0.3051 -0.8205
  228MOL0     C30692   6.807   4.838   4.549 -0.4151  0.1714  0.0485
  228MOL0     O30693   6.889   4.508   4.628  0.0226 -0.7824 -0.0608
  228MOL0     C30694   7.144   4.392   4.636  0.1538  0.9693 -0.0781
  228MOL0     C30695   7.261   4.326   4.593  0.4447 -1.1037 -0.6143
  228MOL0     N30696   7.883   4.266   4.864  0.0549 -0.3964 -0.0518
  228MOL0     N30697   7.939   4.334   4.955 -0.0984  0.1064 -0.0803
  228MOL0     C30698   9.131   4.804   4.731 -0.0291 -0.7664 -0.3890
  228MOL0     C30699   9.256   4.795   4.671 -0.3723  0.5762 -0.8974
  228MOL0     C30700   9.679   4.767   4.580  0.2795 -0.2265  0.3974
  228MOL0     C30701   9.727   4.646   4.516  0.9613 -0.2342 -0.7003
  228MOL0     C30702   9.857   4.642   4.457 -0.6191  0.6359 -0.0986
  228MOL0     C30703   9.931   4.759   4.439 -0.1102  0.0332  0.2721
  228MOL0     O30704  10.053   4.768   4.372  0.1529 -0.7742 -0.3089
  228MOL0     C30705  10.131   4.654   4.343  0.1683 -0.1606 -1.1355
  228MOL0     C30706  10.232   4.633   4.464  0.5600 -0.3031  0.1575
  228MOL0     C30707  10.321   4.760   4.490 -0.5751 -0.3684  0.7554
  228MOL0     C30708  10.440   4.724   4.570 -0.3748 -0.1012 -0.0180
  228MOL0     C30709  10.419   4.675   4.705  0.3720 -0.7098 -0.1223
  228MOL0     C30710  10.379   4.655   4.821  0.2525 -0.4314  0.1694
  228MOL0     C30711   9.880   4.876   4.494 -0.1890  0.0808  0.1099
  228MOL0     C30712   9.753   4.888   4.559 -0.3399 -0.4371  0.1603
  228MOL0     H30713   9.392   4.528   4.820  1.4336  2.6358  0.3010
  228MOL0     H30714   9.174   4.539   4.949  3.5023 -1.1264  0.1796
  228MOL0     H30715   8.865   4.568   4.814  0.2819  0.6489 -0.6780
  228MOL0     H30716   8.954   4.505   4.949 -1.7660 -1.8473 -1.5582
  228MOL0     H30717   8.731   4.526   4.997  0.0810  0.0968  1.3634
  228MOL0     H30718   8.801   4.631   5.103 -0.6542 -1.3201 -0.2959
  228MOL0     H30719   8.740   4.825   4.998  2.8143 -2.1884  0.8385
  228MOL0     H30720   8.692   4.754   4.841  1.6399 -0.3480 -0.4169
  228MOL0     H30721   8.569   4.684   5.110  0.8384 -0.0662 -0.8186
  228MOL0     H30722   8.506   4.810   5.002 -1.6739 -0.1425 -2.3806
  228MOL0     H30723   8.487   4.614   4.828  1.4032 -0.0740  0.2030
  228MOL0     H30724   8.515   4.510   4.969 -0.5364  0.4090  2.4363
  228MOL0     H30725   8.325   4.614   5.079  0.1830  0.0808  0.4495
  228MOL0     H30726   8.308   4.728   4.945  0.0370 -0.2121 -0.3563
  228MOL0     H30727   8.241   4.537   4.791  0.6949  0.5200  0.0956
  228MOL0     H30728   8.260   4.413   4.911  4.9154  0.4630 -0.9231
  228MOL0     H30729   8.058   4.638   4.960  0.0817 -0.4009  2.3061
  228MOL0     H30730   8.106   4.512   5.066 -0.0100 -1.4559 -0.5629
  228MOL0     H30731   8.004   4.503   4.680 -0.3402 -2.6104 -1.7570
  228MOL0     H30732   7.901   4.315   4.525  0.3752 -0.7171  0.1049
  228MOL0     H30733   7.874   4.172   4.608 -2.2276 -1.4151  2.4943
  228MOL0     H30734   7.669   4.388   4.590  0.1142  0.0244  0.0784
  228MOL0     H30735   7.661   4.240   4.691 -0.0179  1.6539  0.9376
  228MOL0     H30736   7.673   4.099   4.491 -1.3164 -0.9694 -2.0813
  228MOL0     H30737   7.701   4.244   4.388  2.7173 -0.2318  1.1185
  228MOL0     H30738   7.465   4.196   4.581  1.8740  1.2841  1.2284
  228MOL0     H30739   7.442   4.150   4.414  0.5311  0.6588 -0.7286
  228MOL0     H30740   7.390   4.593   4.434  1.4278  0.5083  2.6666
  228MOL0     H30741   7.096   4.746   4.409 -0.7795 -2.1812  0.6045
  228MOL0     H30742   7.148   4.802   4.575 -0.3689  1.1016  0.4082
  228MOL0     H30743   7.263   4.785   4.435 -0.9669 -0.6073 -1.6775
  228MOL0     H30744   6.740   4.701   4.855 -1.3264  0.7112  0.3418
  228MOL0     H30745   6.515   4.791   4.802 -0.5624  1.6723 -0.2019
  228MOL0     H30746   6.449   5.108   4.545 -0.1645  0.0299 -1.0969
  228MOL0     H30747   6.473   5.000   4.402  1.5887  4.0934  0.1060
  228MOL0     H30748   6.280   5.130   4.400 -1.8625  0.1416  0.8943
  228MOL0     H30749   6.253   4.945   4.399  3.7422 -1.1597 -1.1820
  228MOL0     H30750   6.268   5.111   4.654 -0.3495  1.2287 -0.1698
  228MOL0     H30751   6.190   4.954   4.642  0.3944 -0.5563 -1.5834
  228MOL0     H30752   6.076   5.218   4.532 -0.6786 -0.4424  0.5282
  228MOL0     H30753   6.007   5.068   4.481 -0.6212  0.7064 -0.8118
  228MOL0     H30754   6.036   5.168   4.779  0.8380  2.2639 -1.5498
  228MOL0     H30755   5.961   5.019   4.728  1.8695 -0.5825  1.7087
  228MOL0     H30756   5.822   5.229   4.781  1.4035 -0.9345  0.2821
  228MOL0     H30757   5.882   5.301   4.629 -3.3938  0.0478 -2.3338
  228MOL0     H30758   5.732   5.044   4.681  0.7094 -0.2959 -0.1958
  228MOL0     H30759   5.770   5.116   4.514 -0.3642 -0.1134  0.0236
  228MOL0     H30760   5.630   5.316   4.586  1.3407  0.1757  1.7107
  228MOL0     H30761   5.583   5.220   4.725 -2.6449  0.7750 -0.8323
  228MOL0     H30762   6.671   4.945   4.420  0.4568  2.7825  0.8741
  228MOL0     H30763   6.895   4.845   4.485 -0.0026 -2.3081  0.2550
  228MOL0     H30764   7.080   4.330   4.698  0.4352 -1.1245 -1.7987
  228MOL0     H30765   7.273   4.229   4.641  1.5816 -0.8603 -0.3797
  228MOL0     H30766   9.059   4.883   4.711 -0.1005 -0.3513  1.3186
  228MOL0     H30767   9.282   4.871   4.598  2.9572  1.5065  1.0595
  228MOL0     H30768   9.672   4.554   4.528  0.3938  0.1145 -0.5645
  228MOL0     H30769   9.890   4.543   4.426 -2.5664 -1.4788  3.8073
  228MOL0     H30770  10.083   4.558   4.320  2.2048 -2.1949  2.1386
  228MOL0     H30771  10.189   4.676   4.253 -1.5020  0.0117 -2.1963
  228MOL0     H30772  10.300   4.553   4.434  0.4170 -0.7831  1.0703
  228MOL0     H30773  10.182   4.617   4.560  0.7176 -3.5557 -0.1947
  228MOL0     H30774  10.267   4.835   4.549  1.6970 -0.1774  2.7521
  228MOL0     H30775  10.357   4.801   4.396 -1.6113  1.4159  1.0986
  228MOL0     H30776  10.515   4.804   4.567  2.9443 -2.9328  0.5645
  228MOL0     H30777  10.491   4.637   4.527 -1.0220  0.4033 -1.8887
  228MOL0     H30778  10.332   4.633   4.914 -0.9395  0.6156 -0.1647
  228MOL0     H30779   9.958   4.951   4.487  1.1023 -1.1161  1.0908
  228MOL0     H30780   9.731   4.982   4.609  0.0647 -0.9628  1.3767
  229MOL0     O30781   3.493   1.058   2.751 -0.8808 -0.2118  0.4514
  229MOL0     C30782   3.564   1.016   2.844  0.3396 -0.3868  0.2290
  229MOL0     O30783   3.637   0.897   2.835  0.0747 -0.3677 -0.0563
  229MOL0     C30784   3.599   0.787   2.759 -0.5284  0.2500 -0.5200
  229MOL0     C30785   3.695   0.678   2.740  0.3749  0.1775  0.1957
  229MOL0     C30786   3.681   0.568   2.651  1.1896  0.0417 -1.0040
  229MOL0     C30787   3.563   0.553   2.577 -0.2008 -0.6645 -0.5411
  229MOL0     O30788   3.552   0.462   2.482 -0.0323 -0.1900  0.1032
  229MOL0     C30789   3.602   0.332   2.522  0.0191  0.3302 -0.1022
  229MOL0     C30790   3.533   0.231   2.431  0.6713 -0.0354  0.0001
  229MOL0     C30791   3.395   0.185   2.481  0.1423 -0.2133 -0.7633
  229MOL0     C30792   3.289   0.296   2.494  0.2005 -0.5512 -0.7058
  229MOL0     C30793   3.147   0.221   2.500  0.1724 -0.1454 -0.4355
  229MOL0     C30794   3.042   0.307   2.439 -0.2915  0.2246  0.7752
  229MOL0     C30795   3.003   0.443   2.516  0.6650  0.2203  0.1549
  229MOL0     C30796   2.869   0.505   2.466 -0.4462 -0.1319 -0.8198
  229MOL0     N30797   2.753   0.507   2.550  0.3253 -0.3599  0.1088
  229MOL0     C30798   2.709   0.443   2.662  0.3349 -1.0214 -0.4747
  229MOL0     C30799   2.581   0.489   2.687  0.7422 -0.3651 -0.2070
  229MOL0     C30800   2.499   0.449   2.804 -0.0167 -0.2794  1.0710
  229MOL0     C30801   2.477   0.554   2.912 -0.2336  0.1321 -0.9698
  229MOL0     C30802   2.366   0.663   2.881 -0.4270 -0.2590  0.1173
  229MOL0     C30803   2.231   0.649   2.959  0.2095  0.1892 -0.2413
  229MOL0     O30804   2.174   0.528   2.914 -0.4504 -0.2109  0.0993
  229MOL0     C30805   2.043   0.527   2.870  0.5777 -0.2289  0.3086
  229MOL0     C30806   1.933   0.556   2.947 -0.8451 -0.5405  0.0672
  229MOL0     C30807   1.798   0.554   2.896  0.5769  0.1836 -0.9770
  229MOL0     C30808   1.691   0.605   2.994  0.2886 -0.3455  0.5848
  229MOL0     C30809   1.782   0.503   2.768 -0.4494 -0.0635  0.0752
  229MOL0     C30810   1.653   0.487   2.708  0.2005  0.2275 -0.3154
  229MOL0     O30811   1.558   0.447   2.791  0.3660  0.1842 -0.8051
  229MOL0     C30812   1.437   0.410   2.740 -0.0533  0.7266  0.4283
  229MOL0     C30813   1.391   0.276   2.760  0.5015  0.4990 -0.2858
  229MOL0     C30814   1.265   0.236   2.717  1.0549 -0.2007  0.2933
  229MOL0     C30815   1.184   0.332   2.647 -0.4820  0.2011 -0.2541
  229MOL0     O30816   1.055   0.304   2.603 -0.5518 -0.6878  0.1535
  229MOL0     C30817   1.023   0.161   2.582 -0.2085 -0.7854  0.4215
  229MOL0     C30818   0.874   0.152   2.550  0.5174 -0.0189 -0.1927
  229MOL0     C30819   0.850   0.218   2.416  0.2630 -0.9421 -0.6570
  229MOL0     C30820   0.703   0.278   2.417 -0.1632 -0.5143  0.6109
  229MOL0     C30821   0.594   0.182   2.463 -0.0308  0.2713 -0.1631
  229MOL0     C30822   0.447   0.228   2.436 -0.4352  1.0576  0.0349
  229MOL0     C30823   0.343   0.111   2.456  0.5323 -0.6053  0.4714
  229MOL0     C30824   0.197   0.164   2.422  0.2315  0.1694  0.0956
  229MOL0    Cl30825   0.165   0.172   2.248 -0.2668  0.4002 -0.2366
  229MOL0     C30826   1.232   0.462   2.622 -0.9146 -0.6263  0.8569
  229MOL0     C30827   1.356   0.504   2.668 -0.7011 -0.6355 -0.7299
  229MOL0     O30828   1.639   0.519   2.591 -0.1986  0.1596  0.3219
  229MOL0     C30829   1.895   0.467   2.696 -1.0568  0.0082 -0.5934
  229MOL0     C30830   2.026   0.485   2.742  0.2615  0.1374 -0.1412
  229MOL0     N30831   2.548   0.566   2.586 -0.1994 -0.8986 -0.8757
  229MOL0     N30832   2.644   0.579   2.509 -0.7083  0.5011  0.2715
  229MOL0     C30833   3.460   0.647   2.602 -0.6121 -0.8326  0.1065
  229MOL0     C30834   3.476   0.761   2.696 -0.1952  0.5450 -0.3964
  229MOL0     C30835   3.586   1.106   2.961 -0.0817 -0.0625 -0.5568
  229MOL0     C30836   3.713   1.094   3.034 -0.3299 -0.5295  0.8482
  229MOL0     C30837   3.750   1.189   3.128 -0.9311 -0.0347 -0.1722
  229MOL0     C30838   3.686   1.309   3.146 -0.1013  0.0164  0.8150
  229MOL0     O30839   3.720   1.401   3.239 -0.5371  0.5342 -0.3398
  229MOL0     C30840   3.857   1.405   3.278 -0.1837 -0.8400  1.0300
  229MOL0     C30841   3.949   1.439   3.162 -0.5318 -0.2403 -0.1735
  229MOL0     C30842   4.092   1.372   3.177  1.3198 -0.1977 -0.8438
  229MOL0     C30843   4.181   1.392   3.060 -0.0284  0.7577  0.6417
  229MOL0     C30844   4.117   1.350   2.931 -0.3721 -0.0661  0.4037
  229MOL0     C30845   4.071   1.294   2.837 -0.0889  1.5014  0.2339
  229MOL0     C30846   3.566   1.330   3.075  0.0613 -0.1835 -0.0050
  229MOL0     C30847   3.523   1.232   2.976  0.1123  1.5260  0.3029
  229MOL0     H30848   3.792   0.704   2.781  0.3135 -0.4078  0.7293
  229MOL0     H30849   3.769   0.506   2.658  1.1406 -0.0451  5.2453
  229MOL0     H30850   3.712   0.335   2.523  0.0211  2.1724 -1.1076
  229MOL0     H30851   3.573   0.323   2.627 -0.0528 -0.8669 -0.2115
  229MOL0     H30852   3.517   0.268   2.330 -1.0019  2.1241  0.9711
  229MOL0     H30853   3.584   0.134   2.436  1.3437  0.3334  0.3643
  229MOL0     H30854   3.347   0.106   2.422 -2.3376 -0.0564  0.9149
  229MOL0     H30855   3.407   0.139   2.579 -3.0239 -0.4141 -0.3577
  229MOL0     H30856   3.308   0.360   2.581  2.2022  0.3471 -1.7354
  229MOL0     H30857   3.290   0.368   2.411  0.6451  2.3078  1.6226
  229MOL0     H30858   3.148   0.126   2.446 -3.2722  0.0585 -1.0923
  229MOL0     H30859   3.112   0.211   2.603 -1.1681  0.6836 -0.7878
  229MOL0     H30860   3.078   0.338   2.341 -0.6212 -0.2532  0.4948
  229MOL0     H30861   2.955   0.243   2.419 -0.2987  0.6827 -0.7141
  229MOL0     H30862   3.002   0.424   2.623  0.2697 -1.8619 -0.1719
  229MOL0     H30863   3.082   0.514   2.492  2.2859 -1.1649  1.1543
  229MOL0     H30864   2.839   0.468   2.367 -1.9831  0.4259 -0.5874
  229MOL0     H30865   2.882   0.611   2.441 -2.8846  0.1253 -1.2910
  229MOL0     H30866   2.769   0.376   2.723  0.2057 -0.5717  0.1587
  229MOL0     H30867   2.400   0.421   2.767  0.8420 -0.4969 -1.2002
  229MOL0     H30868   2.538   0.364   2.861  4.5084  0.9621  0.2303
  229MOL0     H30869   2.575   0.601   2.928 -0.3864  0.0956  0.1542
  229MOL0     H30870   2.451   0.504   3.006 -1.0484  0.1845 -1.1632
  229MOL0     H30871   2.342   0.659   2.774 -1.9290 -3.0011  0.4723
  229MOL0     H30872   2.402   0.764   2.902 -1.7072  0.1461  0.4623
  229MOL0     H30873   2.168   0.735   2.934  0.5270  0.1470 -1.2042
  229MOL0     H30874   2.254   0.648   3.066 -0.1580  2.7452 -0.0810
  229MOL0     H30875   1.949   0.585   3.050 -3.9011 -3.0893  1.4132
  229MOL0     H30876   1.628   0.679   2.943 -1.5210 -0.6344  2.2511
  229MOL0     H30877   1.632   0.529   3.046  1.6434 -0.8072  1.4947
  229MOL0     H30878   1.735   0.674   3.067  0.0755  0.0228  0.3650
  229MOL0     H30879   1.444   0.201   2.817 -0.4927 -1.4449 -1.8030
  229MOL0     H30880   1.231   0.136   2.741 -0.0874 -0.6168 -2.6551
  229MOL0     H30881   1.084   0.116   2.504  0.5410 -1.0073  1.1176
  229MOL0     H30882   1.032   0.100   2.672 -1.0035  0.0330  1.0844
  229MOL0     H30883   0.840   0.048   2.545 -3.6981  1.2156 -2.1270
  229MOL0     H30884   0.813   0.198   2.629 -2.3810 -2.3030 -0.9151
  229MOL0     H30885   0.847   0.144   2.336 -3.1878  0.4496 -1.9956
  229MOL0     H30886   0.927   0.287   2.379 -0.0016 -0.3618 -0.1380
  229MOL0     H30887   0.698   0.363   2.486 -1.3474  0.5575 -0.7426
  229MOL0     H30888   0.676   0.312   2.317  1.3810  1.7569  0.9000
  229MOL0     H30889   0.595   0.154   2.568 -1.8911 -0.8234 -0.3718
  229MOL0     H30890   0.619   0.088   2.411  0.0237 -0.0320  0.4076
  229MOL0     H30891   0.419   0.318   2.492 -1.7394  2.6924 -3.0284
  229MOL0     H30892   0.449   0.253   2.330  0.0386 -1.1524 -0.5359
  229MOL0     H30893   0.351   0.075   2.559  0.2891 -1.3373  0.2448
  229MOL0     H30894   0.372   0.036   2.381  1.1016 -0.0729  0.1493
  229MOL0     H30895   0.191   0.263   2.469  2.7826  0.3594  0.1989
  229MOL0     H30896   0.121   0.102   2.471  0.0306  1.0619  0.9526
  229MOL0     H30897   1.166   0.535   2.577  2.6423  1.8385 -0.8771
  229MOL0     H30898   1.405   0.600   2.656 -1.8913 -0.2334 -2.6842
  229MOL0     H30899   1.881   0.423   2.597 -1.0418  0.2622 -0.7083
  229MOL0     H30900   2.106   0.443   2.681  1.0938  1.0755  0.2725
  229MOL0     H30901   3.368   0.641   2.546 -0.6217 -0.7106  0.1105
  229MOL0     H30902   3.398   0.836   2.705 -1.8098 -1.1494  0.4319
  229MOL0     H30903   3.785   1.015   3.012  2.4671  2.0897 -0.0132
  229MOL0     H30904   3.843   1.173   3.182  0.9042  2.1968 -2.3643
  229MOL0     H30905   3.864   1.484   3.353 -0.7859  0.9385 -0.6981
  229MOL0     H30906   3.893   1.315   3.329  1.8059 -0.8701 -0.2964
  229MOL0     H30907   3.967   1.546   3.148 -0.1190 -0.5973 -2.9429
  229MOL0     H30908   3.900   1.411   3.068 -1.3724  2.1233 -0.5050
  229MOL0     H30909   4.092   1.267   3.207 -1.4704 -0.0149  0.1595
  229MOL0     H30910   4.138   1.429   3.258 -0.4131  0.4693 -0.2774
  229MOL0     H30911   4.275   1.336   3.070 -0.0586  0.2013 -1.6397
  229MOL0     H30912   4.208   1.498   3.048 -0.0668  0.6711 -0.2741
  229MOL0     H30913   4.014   1.248   2.759  1.2797 -0.9527  0.5752
  229MOL0     H30914   3.506   1.417   3.098  0.2011 -0.3430  1.0155
  229MOL0     H30915   3.437   1.247   2.911  1.4487 -0.1075 -2.0003
  230MOL0     O30916   1.971   2.194   3.429  0.1024 -0.0153  0.9690
  230MOL0     C30917   2.018   2.082   3.458 -0.2946  0.3747 -0.2016
  230MOL0     O30918   1.982   1.959   3.416 -0.3054 -0.2771 -0.2705
  230MOL0     C30919   1.861   1.945   3.371  0.0447  0.7139 -0.5116
  230MOL0     C30920   1.750   1.972   3.450  0.9437 -0.1301  0.0031
  230MOL0     C30921   1.619   1.947   3.403 -0.1853 -0.7849 -0.0497
  230MOL0     C30922   1.602   1.898   3.283  0.5673 -0.1260  0.8826
  230MOL0     O30923   1.474   1.881   3.252  0.6281  0.4626  0.2091
  230MOL0     C30924   1.431   1.859   3.113 -0.5275  0.0137 -0.1728
  230MOL0     C30925   1.277   1.874   3.103  0.8891  0.5226  0.2694
  230MOL0     C30926   1.220   1.799   2.981  0.5128 -0.3545  0.1398
  230MOL0     C30927   1.065   1.811   2.971 -0.1588 -0.0616  0.3087
  230MOL0     C30928   1.000   1.725   2.865 -0.1778 -0.4348 -0.3790
  230MOL0     C30929   0.853   1.738   2.864  0.1496  0.9862 -0.4753
  230MOL0     C30930   0.809   1.865   2.792  0.2032 -0.0659 -0.2362
  230MOL0     C30931   0.668   1.898   2.825  0.7656 -0.4585 -0.8437
  230MOL0     N30932   0.656   1.938   2.966  0.1408  0.1307 -0.6318
  230MOL0     C30933   0.621   1.853   3.061  0.3772  1.6503  0.4732
  230MOL0     C30934   0.621   1.921   3.176  0.2219  0.3087 -0.7093
  230MOL0     C30935   0.590   1.878   3.323  0.0074 -0.1335  0.4668
  230MOL0     C30936   0.720   1.875   3.410  0.9291  0.5462 -0.1275
  230MOL0     C30937   0.842   1.806   3.343  0.2682 -0.0173  0.2136
  230MOL0     C30938   0.970   1.822   3.423 -0.1775  0.6741  0.1544
  230MOL0     O30939   1.006   1.716   3.508  0.1428  0.7065  0.3557
  230MOL0     C30940   1.128   1.722   3.568 -0.1535 -0.0399 -0.2009
  230MOL0     C30941   1.176   1.598   3.624 -0.4638  0.5714  0.3437
  230MOL0     C30942   1.296   1.592   3.699  0.1233 -0.3351 -0.2618
  230MOL0     C30943   1.343   1.460   3.742 -0.3218  0.1993  0.1553
  230MOL0     C30944   1.368   1.717   3.720  0.5037  0.2000  0.6339
  230MOL0     C30945   1.486   1.732   3.801  0.6975 -0.1500 -0.4545
  230MOL0     O30946   1.578   1.819   3.770 -0.3987 -0.3465  0.3966
  230MOL0     C30947   1.680   1.849   3.858 -0.0071 -0.8690 -0.2851
  230MOL0     C30948   1.803   1.877   3.808  0.2276  0.2981  0.3414
  230MOL0     C30949   1.906   1.911   3.899 -0.6060 -0.1789 -0.1708
  230MOL0     C30950   1.893   1.926   4.039 -1.0754 -0.4672 -0.4448
  230MOL0     O30951   1.989   1.969   4.129  0.7433 -0.4405  0.2928
  230MOL0     C30952   2.116   1.997   4.071  0.0210 -0.7735 -0.0296
  230MOL0     C30953   2.224   1.994   4.189  0.2985  0.1325 -0.5809
  230MOL0     C30954   2.238   2.137   4.241 -0.1871  0.7993 -0.4766
  230MOL0     C30955   2.297   2.132   4.393  0.3017 -0.1531  0.1692
  230MOL0     C30956   2.312   2.275   4.457 -0.4696  0.6507  0.3843
  230MOL0     C30957   2.441   2.347   4.404  0.3377 -1.1458  0.0622
  230MOL0     C30958   2.440   2.494   4.457  0.4550  0.4357 -0.2110
  230MOL0     C30959   2.543   2.582   4.396 -0.4992  0.3564  0.1194
  230MOL0    Cl30960   2.503   2.599   4.223 -0.3171  0.1183 -0.1142
  230MOL0     C30961   1.770   1.898   4.088  0.1175  0.2214 -0.7267
  230MOL0     C30962   1.668   1.864   4.001  0.4846 -0.1114 -0.5664
  230MOL0     O30963   1.497   1.656   3.902  0.9134  0.2850 -0.1841
  230MOL0     C30964   1.310   1.832   3.671  0.5506  0.3740 -0.0165
  230MOL0     C30965   1.194   1.843   3.604 -0.6167  0.0257 -0.0102
  230MOL0     N30966   0.668   2.053   3.147 -0.5346 -0.1797 -0.9470
  230MOL0     N30967   0.703   2.045   3.025  0.4346 -0.8689 -0.8713
  230MOL0     C30968   1.707   1.873   3.194  0.1285  0.4233  0.4230
  230MOL0     C30969   1.837   1.890   3.240  0.2596 -0.2874 -0.7348
  230MOL0     C30970   2.132   2.089   3.548  0.2296  0.5224 -0.0051
  230MOL0     C30971   2.170   2.207   3.611  1.0830 -0.3416 -0.0805
  230MOL0     C30972   2.280   2.222   3.696 -0.2585  0.4109  0.0659
  230MOL0     C30973   2.349   2.104   3.744 -0.7472 -0.3886  0.0696
  230MOL0     O30974   2.451   2.095   3.837 -0.2729  0.3095  0.4526
  230MOL0     C30975   2.499   2.211   3.894  0.3753 -0.4338  0.4101
  230MOL0     C30976   2.631   2.181   3.964  0.4086  0.2833  0.2754
  230MOL0     C30977   2.675   2.315   4.039 -0.4239  0.3869  0.3226
  230MOL0     C30978   2.788   2.280   4.138 -0.4552  0.4233 -0.5599
  230MOL0     C30979   2.846   2.407   4.191  0.3816 -0.4837  0.9439
  230MOL0     C30980   2.889   2.512   4.225 -1.2505 -0.2637  0.6489
  230MOL0     C30981   2.317   1.982   3.679 -0.8432 -0.4151 -0.0078
  230MOL0     C30982   2.216   1.979   3.581  0.0220 -0.1606 -0.6302
  230MOL0     H30983   1.752   2.022   3.546  0.2455 -0.0307 -0.0299
  230MOL0     H30984   1.543   1.975   3.476 -0.9281 -1.4396 -0.5559
  230MOL0     H30985   1.479   1.926   3.041  1.1341 -0.3861  0.5227
  230MOL0     H30986   1.465   1.757   3.089 -0.7689 -0.3225  0.8704
  230MOL0     H30987   1.235   1.853   3.201  4.1328 -0.3593  1.6141
  230MOL0     H30988   1.251   1.980   3.103  1.4610  0.6671  0.5503
  230MOL0     H30989   1.254   1.831   2.882 -0.4799 -3.9193 -1.5173
  230MOL0     H30990   1.243   1.692   2.989  0.2439 -0.7163 -2.7150
  230MOL0     H30991   1.028   1.785   3.071 -0.4719 -1.7837 -0.2115
  230MOL0     H30992   1.037   1.915   2.952 -1.3366 -0.3505  0.3872
  230MOL0     H30993   1.034   1.745   2.763  0.5464 -0.9490 -0.2414
  230MOL0     H30994   1.023   1.624   2.899  0.3763 -0.2284 -0.1411
  230MOL0     H30995   0.809   1.648   2.819  3.1787 -1.6223  1.4114
  230MOL0     H30996   0.829   1.744   2.970  0.7962  1.8837 -0.3671
  230MOL0     H30997   0.865   1.955   2.819  1.5305 -0.9963  0.1986
  230MOL0     H30998   0.821   1.855   2.684 -2.2275 -3.5914 -0.3583
  230MOL0     H30999   0.602   1.813   2.803 -0.5465  0.9681 -2.7611
  230MOL0     H31000   0.632   1.984   2.767 -1.0528 -0.3953  0.2853
  230MOL0     H31001   0.619   1.745   3.054 -0.8358  1.6043  1.2115
  230MOL0     H31002   0.530   1.958   3.369  3.3784  2.6856  0.3635
  230MOL0     H31003   0.528   1.789   3.340 -0.0401  0.0222  1.1557
  230MOL0     H31004   0.690   1.818   3.499 -1.4610  1.1286 -0.4914
  230MOL0     H31005   0.736   1.979   3.440 -3.7516  0.8835  2.1331
  230MOL0     H31006   0.861   1.862   3.251  3.9674  0.0762  0.8710
  230MOL0     H31007   0.827   1.701   3.320  0.8054 -0.1410  0.3944
  230MOL0     H31008   0.961   1.908   3.490 -1.6638  1.0944 -0.5411
  230MOL0     H31009   1.057   1.832   3.358  0.3212 -1.8686  0.3413
  230MOL0     H31010   1.116   1.514   3.591  2.0555 -1.0542 -0.3543
  230MOL0     H31011   1.266   1.384   3.729  1.1723 -1.1869 -0.9582
  230MOL0     H31012   1.432   1.421   3.691 -0.6364  0.3467 -0.5105
  230MOL0     H31013   1.373   1.468   3.847  0.0856 -0.8733  0.1384
  230MOL0     H31014   1.820   1.875   3.701  0.7965  1.9874  0.3540
  230MOL0     H31015   1.999   1.926   3.846  0.0692 -4.1473 -0.3573
  230MOL0     H31016   2.159   1.933   3.993  2.6340 -1.7163  2.0177
  230MOL0     H31017   2.105   2.097   4.029  0.7136 -0.8547 -0.4168
  230MOL0     H31018   2.200   1.931   4.275  2.3059  2.0948  1.5297
  230MOL0     H31019   2.318   1.957   4.147  0.7726  1.0602 -0.3663
  230MOL0     H31020   2.140   2.184   4.246  0.0486  1.2096  0.4022
  230MOL0     H31021   2.306   2.192   4.175 -0.0069 -0.5502 -1.4739
  230MOL0     H31022   2.228   2.080   4.461 -0.1798 -0.5824 -0.6387
  230MOL0     H31023   2.389   2.074   4.391 -0.4004 -1.2900 -0.3703
  230MOL0     H31024   2.311   2.258   4.565 -0.0900  0.4592  0.3601
  230MOL0     H31025   2.226   2.333   4.423 -1.2004 -1.6172 -2.0374
  230MOL0     H31026   2.536   2.298   4.426  0.8974 -1.2473 -2.2566
  230MOL0     H31027   2.429   2.349   4.295 -1.8505 -1.5186  0.2497
  230MOL0     H31028   2.456   2.491   4.565 -0.6966 -0.3795 -0.0356
  230MOL0     H31029   2.343   2.541   4.440 -0.6156 -0.5431  2.5437
  230MOL0     H31030   2.645   2.548   4.414  0.3752  2.7484 -0.0020
  230MOL0     H31031   2.539   2.681   4.442 -0.0871  1.8212 -2.7668
  230MOL0     H31032   1.755   1.918   4.194  1.3881  0.2686 -0.5452
  230MOL0     H31033   1.565   1.859   4.036 -0.0936 -0.0387 -2.1724
  230MOL0     H31034   1.335   1.931   3.708 -1.0611  0.9473 -0.3440
  230MOL0     H31035   1.142   1.937   3.589  0.6843  1.0007  1.2264
  230MOL0     H31036   1.692   1.840   3.091 -0.4876  1.5068  0.1465
  230MOL0     H31037   1.912   1.876   3.163  0.9140  0.3111 -0.2326
  230MOL0     H31038   2.126   2.302   3.585 -2.3870 -1.9898 -0.7942
  230MOL0     H31039   2.314   2.319   3.730  0.9957 -0.6692  2.0967
  230MOL0     H31040   2.517   2.283   3.814  0.1268 -0.5703  0.2297
  230MOL0     H31041   2.422   2.239   3.966  1.1958  1.6985  0.5176
  230MOL0     H31042   2.705   2.149   3.890  0.1382  1.7263 -0.6664
  230MOL0     H31043   2.609   2.105   4.040 -0.7396 -0.9577 -1.2218
  230MOL0     H31044   2.599   2.361   4.104  0.9527  2.4738  0.5471
  230MOL0     H31045   2.701   2.395   3.968 -0.5794 -0.3943 -0.6437
  230MOL0     H31046   2.878   2.234   4.097  0.9947 -0.8567  3.5477
  230MOL0     H31047   2.757   2.213   4.218  1.1040  0.5908  0.2260
  230MOL0     H31048   2.904   2.609   4.267  1.0114  0.1073 -0.8926
  230MOL0     H31049   2.377   1.903   3.722  1.4373 -1.0276 -3.8928
  230MOL0     H31050   2.193   1.885   3.531  0.2777 -0.2386 -0.6014
  231MOL0     O31051   3.525   1.050   5.655  0.1323 -0.1949 -0.0805
  231MOL0     C31052   3.580   1.058   5.542 -0.7080 -0.2379 -1.2809
  231MOL0     O31053   3.511   1.035   5.425  0.0060 -1.1319  0.2627
  231MOL0     C31054   3.372   1.033   5.418 -0.6127  0.2338  0.5095
  231MOL0     C31055   3.315   0.964   5.315 -0.0080 -0.1848 -0.6764
  231MOL0     C31056   3.180   0.948   5.297  0.8234  0.4816  0.5639
  231MOL0     C31057   3.086   1.009   5.386  0.1684  0.7827 -0.1355
  231MOL0     O31058   2.951   1.018   5.356  0.2966  0.9091 -0.1961
  231MOL0     C31059   2.859   1.026   5.463  0.1297  0.4436  1.3363
  231MOL0     C31060   2.722   1.033   5.402  0.4772  0.1894  0.6536
  231MOL0     C31061   2.677   1.161   5.333 -0.4038 -0.5595 -0.0342
  231MOL0     C31062   2.743   1.187   5.197  0.3112  0.0951 -0.2172
  231MOL0     C31063   2.687   1.327   5.146 -0.3712  0.0627  0.5691
  231MOL0     C31064   2.700   1.352   4.985  0.3079  0.1825  0.4119
  231MOL0     C31065   2.613   1.478   4.951 -0.1125 -0.1974  0.4204
  231MOL0     C31066   2.567   1.483   4.809 -0.4725  0.0945  0.2817
  231MOL0     N31067   2.465   1.388   4.768 -0.5268  0.6801  0.2389
  231MOL0     C31068   2.330   1.387   4.814 -0.2979 -0.1505  1.2715
  231MOL0     C31069   2.279   1.276   4.758 -0.1195 -0.2118  0.2477
  231MOL0     C31070   2.134   1.250   4.744 -0.3037 -0.0778 -0.1834
  231MOL0     C31071   2.064   1.341   4.650  0.1749  0.3328  0.5833
  231MOL0     C31072   2.120   1.322   4.498  0.0304  0.0255 -0.3396
  231MOL0     C31073   2.090   1.183   4.428 -0.3212  0.6546 -0.5565
  231MOL0     O31074   1.946   1.168   4.408  0.5579  0.5246  0.3703
  231MOL0     C31075   1.896   1.057   4.361  0.9816  0.3544  0.3586
  231MOL0     C31076   1.980   0.950   4.329 -0.4454  1.0102 -0.0216
  231MOL0     C31077   1.921   0.824   4.283  0.5801 -0.1541  0.1197
  231MOL0     C31078   2.026   0.709   4.262  0.0006 -0.5780 -0.7375
  231MOL0     C31079   1.775   0.808   4.281  0.4617 -0.6297  0.7189
  231MOL0     C31080   1.705   0.690   4.220 -0.7540 -0.9142  0.1878
  231MOL0     O31081   1.572   0.690   4.239  0.3845 -0.0490 -0.2300
  231MOL0     C31082   1.482   0.599   4.201  0.2267  1.0372 -0.9397
  231MOL0     C31083   1.354   0.654   4.176 -0.3285  0.3018 -0.0957
  231MOL0     C31084   1.247   0.565   4.142  0.2400 -0.8863  0.0917
  231MOL0     C31085   1.270   0.428   4.109  0.2759 -0.3662  0.0616
  231MOL0     O31086   1.174   0.337   4.063  0.1167  0.1171 -0.1367
  231MOL0     C31087   1.040   0.371   4.033 -0.0343 -0.7902 -0.1067
  231MOL0     C31088   0.971   0.248   3.982 -0.7171 -0.2845  0.8007
  231MOL0     C31089   0.819   0.285   3.954 -0.1570  0.5520  0.0437
  231MOL0     C31090   0.745   0.169   3.890 -0.2793 -0.3829  0.2027
  231MOL0     C31091   0.620   0.224   3.817  0.1847 -0.1628 -0.1474
  231MOL0     C31092   0.535   0.116   3.736  0.2776 -0.8193  0.0406
  231MOL0     C31093   0.438   0.030   3.809  0.1108  0.3016 -0.5371
  231MOL0     C31094   0.362  -0.077   3.727 -0.0426 -0.2905  0.0355
  231MOL0    Cl31095   0.268  -0.002   3.593  0.6245  0.4117 -0.1575
  231MOL0     C31096   1.409   0.386   4.113 -0.0414 -0.3115 -0.8013
  231MOL0     C31097   1.509   0.466   4.166  0.2571 -0.8404  0.5756
  231MOL0     O31098   1.773   0.615   4.149  0.4083 -0.3129  0.7004
  231MOL0     C31099   1.690   0.919   4.321  0.3297  0.3376 -0.4116
  231MOL0     C31100   1.758   1.037   4.357  0.2126 -0.0208 -0.1584
  231MOL0     N31101   2.375   1.204   4.685  0.1174  0.5747 -0.6096
  231MOL0     N31102   2.485   1.267   4.705  0.0634  0.3907  0.0172
  231MOL0     C31103   3.141   1.084   5.487  0.4614 -0.3124 -1.2041
  231MOL0     C31104   3.281   1.102   5.513 -0.1978  0.2131  0.4643
  231MOL0     C31105   3.728   1.085   5.540 -0.4082  0.3723  0.1723
  231MOL0     C31106   3.802   1.058   5.419 -0.4026 -0.3788  0.1094
  231MOL0     C31107   3.933   1.101   5.403 -0.0702 -0.5015 -0.4582
  231MOL0     C31108   3.992   1.182   5.501  0.6111  0.1409  0.5267
  231MOL0     O31109   4.122   1.218   5.500 -0.1726 -0.4822  0.2615
  231MOL0     C31110   4.213   1.135   5.425  0.0701 -0.8948  0.2593
  231MOL0     C31111   4.357   1.182   5.449  0.2346 -0.9845  0.0116
  231MOL0     C31112   4.466   1.137   5.348  0.4302 -0.0386 -0.2340
  231MOL0     C31113   4.593   1.197   5.402 -0.6763  0.2643 -0.2362
  231MOL0     C31114   4.705   1.163   5.313  0.3881  0.1895 -0.3870
  231MOL0     C31115   4.795   1.139   5.234  0.3427 -0.2766  0.7018
  231MOL0     C31116   3.920   1.206   5.620 -0.7539 -0.4850  0.0722
  231MOL0     C31117   3.790   1.164   5.637 -0.6449  1.3811  0.1985
  231MOL0     H31118   3.387   0.913   5.252  0.2635 -0.3642 -0.2235
  231MOL0     H31119   3.148   0.900   5.205  0.0277 -0.7785  1.4719
  231MOL0     H31120   2.875   0.940   5.528 -0.4230  0.5021  1.5554
  231MOL0     H31121   2.874   1.113   5.528  0.5282  0.9842  0.5347
  231MOL0     H31122   2.705   0.944   5.341 -2.6104  0.1767  1.3692
  231MOL0     H31123   2.649   1.023   5.483  0.9273 -1.3495  0.9020
  231MOL0     H31124   2.570   1.183   5.335  0.2976  3.4274  0.2668
  231MOL0     H31125   2.707   1.247   5.393 -1.8240  1.0561 -1.5389
  231MOL0     H31126   2.852   1.189   5.201  0.3578 -1.1522 -0.2709
  231MOL0     H31127   2.730   1.108   5.122  0.1597  0.1790 -0.2795
  231MOL0     H31128   2.581   1.323   5.173 -0.1606  0.4203  1.4715
  231MOL0     H31129   2.733   1.409   5.201 -1.1724 -0.7603  2.5396
  231MOL0     H31130   2.804   1.359   4.952 -0.2462 -1.7032 -1.9655
  231MOL0     H31131   2.649   1.271   4.933  0.9623 -0.5934  0.9494
  231MOL0     H31132   2.524   1.480   5.014  1.3447  3.2023  2.6659
  231MOL0     H31133   2.664   1.573   4.968 -1.9423  0.9197 -0.1109
  231MOL0     H31134   2.649   1.462   4.739  2.6985  1.1211  3.3522
  231MOL0     H31135   2.538   1.586   4.787  2.4845  0.6580 -1.5455
  231MOL0     H31136   2.275   1.460   4.873  0.4582  0.4359  1.2697
  231MOL0     H31137   2.128   1.148   4.705  2.4274 -0.3373 -0.1697
  231MOL0     H31138   2.094   1.248   4.846  0.1052 -0.3225 -0.0241
  231MOL0     H31139   2.078   1.443   4.688 -1.4887  0.7773  0.0982
  231MOL0     H31140   1.958   1.319   4.662  0.4448 -0.0896  2.3917
  231MOL0     H31141   2.229   1.331   4.503 -0.0237  0.3306  0.4766
  231MOL0     H31142   2.080   1.398   4.430 -1.5594 -0.9755 -0.5913
  231MOL0     H31143   2.129   1.113   4.501  2.9862  2.2725 -0.5860
  231MOL0     H31144   2.143   1.170   4.333 -1.9567 -3.6834 -1.0768
  231MOL0     H31145   2.088   0.962   4.327 -0.2072 -0.4052  2.0908
  231MOL0     H31146   2.123   0.719   4.310 -0.6210  0.6605  0.3252
  231MOL0     H31147   1.971   0.624   4.301 -3.6524  2.7677  2.3152
  231MOL0     H31148   2.054   0.706   4.156  0.4356  1.8859 -0.7684
  231MOL0     H31149   1.336   0.758   4.202 -1.2022  0.3516 -0.8610
  231MOL0     H31150   1.141   0.586   4.147  0.1410 -1.1970 -0.5414
  231MOL0     H31151   0.991   0.398   4.127 -0.0660 -2.1413  0.2962
  231MOL0     H31152   1.035   0.451   3.960 -0.8274  0.2759  1.0822
  231MOL0     H31153   1.019   0.223   3.887 -1.7134 -0.2581  0.2797
  231MOL0     H31154   0.986   0.169   4.056 -0.8149 -3.4377 -2.2672
  231MOL0     H31155   0.815   0.374   3.891 -5.3146  1.5736  1.2938
  231MOL0     H31156   0.769   0.313   4.048  2.0326  1.3723  1.0184
  231MOL0     H31157   0.809   0.116   3.818 -0.1139  1.3794 -1.0158
  231MOL0     H31158   0.714   0.098   3.966  2.9717  0.5760  2.6616
  231MOL0     H31159   0.644   0.303   3.745 -0.1427 -0.1614 -0.2547
  231MOL0     H31160   0.550   0.273   3.884  0.3799 -0.7394  0.4877
  231MOL0     H31161   0.485   0.171   3.656  1.3885  1.7147  0.9481
  231MOL0     H31162   0.602   0.043   3.691  1.9603  0.7183 -0.0903
  231MOL0     H31163   0.362   0.101   3.842 -1.8101 -0.2661 -3.3488
  231MOL0     H31164   0.479  -0.034   3.887 -2.4441 -0.6286  0.1398
  231MOL0     H31165   0.301  -0.141   3.791 -1.0035 -0.9853 -1.5116
  231MOL0     H31166   0.436  -0.145   3.684  0.7595 -0.7646  2.0288
  231MOL0     H31167   1.433   0.283   4.087 -0.6855 -1.0220  1.2002
  231MOL0     H31168   1.610   0.426   4.162  0.2576 -0.7461 -0.9184
  231MOL0     H31169   1.586   0.891   4.322  0.7083 -1.3140  1.8086
  231MOL0     H31170   1.708   1.123   4.398  0.6157  0.0097  0.2817
  231MOL0     H31171   3.075   1.136   5.555  0.9440  1.0071 -1.7031
  231MOL0     H31172   3.323   1.159   5.596  4.3465 -0.6051 -0.9965
  231MOL0     H31173   3.754   1.001   5.341 -0.3069 -2.9570  1.7875
  231MOL0     H31174   3.981   1.050   5.320  0.4788 -1.3176  0.3336
  231MOL0     H31175   4.210   1.031   5.457 -1.2895 -1.0763 -0.4087
  231MOL0     H31176   4.189   1.137   5.318 -1.8855 -3.5203  0.5673
  231MOL0     H31177   4.380   1.148   5.551  2.6754  1.4156  0.3606
  231MOL0     H31178   4.346   1.286   5.416 -1.0617 -0.8163  0.8840
  231MOL0     H31179   4.442   1.179   5.250  0.5819 -0.0935 -0.2950
  231MOL0     H31180   4.464   1.027   5.342 -1.7731 -0.0713  0.1601
  231MOL0     H31181   4.618   1.152   5.498  0.0016  2.1799  0.5316
  231MOL0     H31182   4.584   1.306   5.411  1.3691  0.4630 -0.1569
  231MOL0     H31183   4.866   1.126   5.155  0.6712  3.0851  0.3037
  231MOL0     H31184   3.970   1.272   5.690  1.8377 -3.3396  1.1192
  231MOL0     H31185   3.747   1.186   5.735 -2.8095  0.8188 -0.5659
  232MOL0     O31186   9.518   0.828   4.029 -0.1231  0.0573  0.2425
  232MOL0     C31187   9.535   0.942   3.992 -0.0833  0.2297 -0.2473
  232MOL0     O31188   9.652   1.005   3.971  0.3917 -0.7312  0.3935
  232MOL0     C31189   9.773   0.949   4.010 -0.4874 -0.7372 -0.4447
  232MOL0     C31190   9.881   1.001   3.937 -0.2194  0.5790  0.1043
  232MOL0     C31191  10.011   0.948   3.951 -0.3521 -0.0507  0.3587
  232MOL0     C31192  10.026   0.833   4.032 -0.1176  0.1291 -0.2782
  232MOL0     O31193  10.141   0.760   4.034  0.0842 -0.2807  0.4310
  232MOL0     C31194  10.251   0.832   4.096 -0.7366  0.6261 -0.1593
  232MOL0     C31195  10.245   0.793   4.241 -0.0684  0.1021 -0.0798
  232MOL0     C31196  10.385   0.797   4.298 -0.0070 -0.2906 -0.3447
  232MOL0     C31197  10.470   0.666   4.289  0.0486 -0.1255 -0.2697
  232MOL0     C31198  10.608   0.702   4.363  0.3337  0.2507 -0.3252
  232MOL0     C31199  10.707   0.590   4.377 -0.6165  0.3425 -0.0464
  232MOL0     C31200  10.662   0.501   4.490 -0.0060 -0.2131 -0.0439
  232MOL0     C31201  10.767   0.382   4.496 -0.8310  1.0652 -0.4528
  232MOL0     N31202  10.899   0.411   4.551  0.1307  0.0682  0.2327
  232MOL0     C31203  10.920   0.493   4.665 -0.3568  1.1013  0.3899
  232MOL0     C31204  11.055   0.511   4.659 -0.0507 -0.4106 -0.5210
  232MOL0     C31205  11.125   0.610   4.754 -1.3020  0.1441  0.2464
  232MOL0     C31206  11.143   0.749   4.695  0.8309  0.0986  0.1862
  232MOL0     C31207  11.021   0.792   4.598 -0.2873 -0.1048  0.1400
  232MOL0     C31208  11.030   0.945   4.572  0.4278  0.2284 -0.2509
  232MOL0     O31209  10.967   0.983   4.455 -0.1028 -0.0067  0.4599
  232MOL0     C31210  10.832   1.018   4.438 -0.3114  0.0318  0.1996
  232MOL0     C31211  10.740   1.015   4.546  0.2433  0.4537  0.9796
  232MOL0     C31212  10.608   1.056   4.520  0.6946 -1.1349 -1.0177
  232MOL0     C31213  10.516   1.040   4.642 -0.2627 -0.0892  0.5438
  232MOL0     C31214  10.569   1.122   4.399 -0.2371 -1.0265 -0.2677
  232MOL0     C31215  10.431   1.183   4.375  0.0266 -0.0213 -0.2813
  232MOL0     O31216  10.403   1.190   4.247  0.0679  0.0156  0.6145
  232MOL0     C31217  10.270   1.234   4.208 -0.0549 -0.2853  0.1839
  232MOL0     C31218  10.156   1.192   4.270  1.0350  0.5091  0.2462
  232MOL0     C31219  10.031   1.234   4.227  0.0628  0.3604  0.0637
  232MOL0     C31220  10.025   1.324   4.119  0.7418  0.9093  0.2851
  232MOL0     O31221   9.902   1.366   4.057 -0.2318 -0.1262  0.1189
  232MOL0     C31222   9.807   1.427   4.144 -0.0686 -0.3937  0.5213
  232MOL0     C31223   9.669   1.419   4.087 -0.1767  0.4435  0.3313
  232MOL0     C31224   9.573   1.518   4.157  0.5007  0.3772  0.2341
  232MOL0     C31225   9.428   1.475   4.120  0.2460  0.0587  0.2070
  232MOL0     C31226   9.346   1.466   4.251 -0.3541 -0.1805 -0.1879
  232MOL0     C31227   9.193   1.444   4.229 -1.1076  0.3098  0.5106
  232MOL0     C31228   9.114   1.448   4.356  0.2716 -0.1027 -1.0402
  232MOL0     C31229   8.964   1.435   4.333  0.1101 -0.8445 -0.2182
  232MOL0    Cl31230   8.909   1.580   4.253  0.2385  0.2091  0.4121
  232MOL0     C31231  10.136   1.369   4.053 -0.0361 -0.5525 -0.1788
  232MOL0     C31232  10.260   1.331   4.106 -0.6828  0.5656 -0.1798
  232MOL0     O31233  10.372   1.242   4.465  0.5657 -0.0049  0.2304
  232MOL0     C31234  10.663   1.124   4.296  0.2695  0.1180  0.5403
  232MOL0     C31235  10.792   1.079   4.317 -0.8209  0.5524 -1.2010
  232MOL0     N31236  11.107   0.423   4.562 -0.1565 -0.0668 -0.0935
  232MOL0     N31237  11.018   0.363   4.500  0.1417  0.3879  0.4576
  232MOL0     C31238   9.931   0.802   4.119  0.0986  0.3034 -0.3590
  232MOL0     C31239   9.799   0.848   4.103 -0.6102 -0.4840 -1.1407
  232MOL0     C31240   9.407   1.015   3.955  0.4922  1.0580  0.1255
  232MOL0     C31241   9.417   1.139   3.903 -0.6308  0.0963  0.5189
  232MOL0     C31242   9.305   1.212   3.872 -0.2826  0.1080 -0.6127
  232MOL0     C31243   9.179   1.166   3.886  0.0170  0.3650  0.2933
  232MOL0     O31244   9.084   1.255   3.856 -0.1634 -1.1392  0.1802
  232MOL0     C31245   8.972   1.267   3.935  1.1567 -0.7701 -0.2454
  232MOL0     C31246   8.850   1.215   3.865 -0.5125 -0.3303  1.1572
  232MOL0     C31247   8.821   1.274   3.725 -0.0081  0.3657 -0.4153
  232MOL0     C31248   8.668   1.301   3.690 -0.5351  0.2064  0.3007
  232MOL0     C31249   8.607   1.171   3.665 -0.5364  0.6046 -0.4924
  232MOL0     C31250   8.543   1.065   3.657 -0.0312  0.1870  0.6205
  232MOL0     C31251   9.160   1.042   3.940  0.3578 -1.0221 -0.0536
  232MOL0     C31252   9.279   0.961   3.973 -0.2075 -0.3951 -0.1643
  232MOL0     H31253   9.853   1.086   3.874  1.8667  2.1196  1.1467
  232MOL0     H31254  10.095   0.977   3.889  1.0961 -2.8392  0.8519
  232MOL0     H31255  10.347   0.793   4.060  1.0531  1.9224  2.8329
  232MOL0     H31256  10.254   0.938   4.069  0.3615  0.4611 -0.7488
  232MOL0     H31257  10.184   0.860   4.302 -0.5098 -2.3708  2.4239
  232MOL0     H31258  10.213   0.688   4.244  0.1420 -0.0617 -2.2448
  232MOL0     H31259  10.435   0.892   4.276  0.6445 -0.0144  1.9907
  232MOL0     H31260  10.356   0.815   4.402  1.9815  0.3509  0.1459
  232MOL0     H31261  10.414   0.576   4.317  2.4446 -1.4030  0.8058
  232MOL0     H31262  10.495   0.641   4.185 -3.6093 -1.2010 -1.0450
  232MOL0     H31263  10.654   0.792   4.321 -0.6508  0.6273 -0.6225
  232MOL0     H31264  10.588   0.735   4.466  0.1317  1.5662 -0.7681
  232MOL0     H31265  10.714   0.530   4.286 -2.4771  0.0000 -0.0036
  232MOL0     H31266  10.803   0.637   4.401 -0.6554 -0.0515  0.9568
  232MOL0     H31267  10.662   0.555   4.585 -3.1114  1.5817 -0.9135
  232MOL0     H31268  10.557   0.472   4.478 -1.6108  4.4361  0.7113
  232MOL0     H31269  10.773   0.338   4.395  1.0886 -0.4017  0.2289
  232MOL0     H31270  10.715   0.299   4.546  0.4350  0.6472  0.2080
  232MOL0     H31271  10.844   0.525   4.735 -2.3540 -2.2936  0.0021
  232MOL0     H31272  11.065   0.613   4.846 -3.1150 -1.2892 -0.8125
  232MOL0     H31273  11.222   0.568   4.781 -1.7337  0.8753  3.3896
  232MOL0     H31274  11.237   0.745   4.638  0.6011 -1.9744 -0.1306
  232MOL0     H31275  11.135   0.821   4.776 -3.1372  0.8008 -0.5972
  232MOL0     H31276  10.932   0.770   4.658 -1.5753  5.2682  0.6964
  232MOL0     H31277  11.021   0.734   4.505  0.9955 -1.7585  1.1033
  232MOL0     H31278  11.135   0.975   4.564  0.5488  0.0740  0.7304
  232MOL0     H31279  10.987   1.005   4.652 -0.1550  1.9312 -1.7701
  232MOL0     H31280  10.759   0.975   4.645  1.0496 -0.3716  0.5019
  232MOL0     H31281  10.547   0.953   4.702  1.7167 -1.8555 -2.7631
  232MOL0     H31282  10.515   1.131   4.703 -0.4536  0.3693 -0.1327
  232MOL0     H31283  10.414   1.021   4.608  0.2835 -3.7353  0.5236
  232MOL0     H31284  10.167   1.127   4.357  0.2796  2.7265  2.0920
  232MOL0     H31285   9.943   1.198   4.280  1.7619 -2.6316  1.0543
  232MOL0     H31286   9.802   1.375   4.240 -0.9985 -1.9612 -0.3295
  232MOL0     H31287   9.829   1.534   4.151  0.1322 -0.3292 -0.7683
  232MOL0     H31288   9.676   1.446   3.981 -0.6391  2.0332  0.6686
  232MOL0     H31289   9.649   1.314   4.107 -0.5338  0.8536  2.2429
  232MOL0     H31290   9.598   1.615   4.112  2.4648 -0.7776 -1.3391
  232MOL0     H31291   9.592   1.538   4.263  2.6120  0.2983 -0.0810
  232MOL0     H31292   9.374   1.544   4.055  0.2875  0.9482  1.0893
  232MOL0     H31293   9.420   1.381   4.064  0.1600 -0.3369  0.8707
  232MOL0     H31294   9.361   1.558   4.308  1.2810  1.8857 -3.6232
  232MOL0     H31295   9.386   1.391   4.320  1.9903  1.4340  0.3471
  232MOL0     H31296   9.151   1.520   4.162 -2.0047 -0.8541 -0.2848
  232MOL0     H31297   9.185   1.343   4.188  2.0376 -0.7482  2.1922
  232MOL0     H31298   9.125   1.543   4.409 -3.1755 -1.5626  2.7961
  232MOL0     H31299   9.137   1.373   4.432 -0.3189  1.0598  0.3358
  232MOL0     H31300   8.905   1.425   4.425  1.4460  0.5577  0.8447
  232MOL0     H31301   8.944   1.356   4.260  3.9697 -4.1528  1.8926
  232MOL0     H31302  10.127   1.421   3.958 -1.3885 -3.2900 -1.6913
  232MOL0     H31303  10.352   1.386   4.087 -0.9367  2.0285  2.2760
  232MOL0     H31304  10.640   1.166   4.199 -0.5467  2.1341  1.5439
  232MOL0     H31305  10.865   1.069   4.237  0.3057 -0.2727 -0.0993
  232MOL0     H31306   9.957   0.726   4.192  0.2781 -0.1533 -0.8973
  232MOL0     H31307   9.721   0.809   4.168  0.5154  1.4428  1.5379
  232MOL0     H31308   9.512   1.188   3.885 -0.9551  0.2118 -0.9967
  232MOL0     H31309   9.319   1.313   3.834  1.6492 -0.6006 -1.9307
  232MOL0     H31310   8.983   1.222   4.034  2.1490 -0.8144 -0.3595
  232MOL0     H31311   8.951   1.373   3.949 -1.4587 -1.4341  1.6600
  232MOL0     H31312   8.758   1.243   3.918 -2.1992 -0.9143 -1.2872
  232MOL0     H31313   8.858   1.106   3.861  1.2679 -0.1885 -1.0923
  232MOL0     H31314   8.870   1.203   3.658  2.0546  0.7145  0.6204
  232MOL0     H31315   8.872   1.369   3.710  0.6439 -0.0059 -0.6164
  232MOL0     H31316   8.659   1.355   3.595 -0.3970 -1.0210 -0.4285
  232MOL0     H31317   8.626   1.364   3.769  0.2290 -0.1891  1.0467
  232MOL0     H31318   8.491   0.972   3.664  0.0533  0.0657 -0.2202
  232MOL0     H31319   9.064   0.994   3.956 -0.3158  1.1113  3.2577
  232MOL0     H31320   9.260   0.858   4.001  0.4641 -0.4465  0.1084
  233MOL0     O31321   7.728   8.641   1.595  0.2297  0.1470 -0.3074
  233MOL0     C31322   7.781   8.741   1.650 -0.4314  0.0121 -0.0077
  233MOL0     O31323   7.721   8.849   1.706  0.1259 -0.7053 -0.1145
  233MOL0     C31324   7.588   8.847   1.723  0.0180  0.1116  0.1308
  233MOL0     C31325   7.515   8.742   1.789 -0.2942  0.1770 -0.3558
  233MOL0     C31326   7.376   8.755   1.814  0.1256 -0.1317 -0.5875
  233MOL0     C31327   7.306   8.875   1.785 -0.3780  0.0820  0.0179
  233MOL0     O31328   7.178   8.911   1.811  0.5034  0.3402 -0.0732
  233MOL0     C31329   7.090   8.810   1.873 -0.0555  0.1420 -0.2209
  233MOL0     C31330   7.129   8.805   2.026  0.3365  0.5141  0.4412
  233MOL0     C31331   7.096   8.675   2.093  0.1795 -0.3847 -0.1067
  233MOL0     C31332   7.150   8.669   2.232  0.6234  0.3284 -0.3887
  233MOL0     C31333   7.101   8.536   2.292 -0.6246 -0.0010  0.7447
  233MOL0     C31334   7.153   8.506   2.423 -0.3135 -0.6842  0.0057
  233MOL0     C31335   7.104   8.378   2.487  0.0589  0.1931  0.1601
  233MOL0     C31336   7.175   8.339   2.611 -0.5048 -0.5409  0.0821
  233MOL0     N31337   7.120   8.419   2.720  0.2631  0.3217  0.3168
  233MOL0     C31338   6.993   8.416   2.771  0.0675  0.5100  0.4157
  233MOL0     C31339   7.001   8.510   2.864 -0.3521 -0.5595  0.2503
  233MOL0     C31340   6.883   8.544   2.955  0.1297 -0.0110  0.0313
  233MOL0     C31341   6.880   8.694   2.993 -0.1205 -0.5508  0.5257
  233MOL0     C31342   6.754   8.735   3.067  0.1392  0.3675 -0.5369
  233MOL0     C31343   6.628   8.711   2.993  0.0915 -0.0155 -0.0171
  233MOL0     O31344   6.528   8.800   3.043  0.4488 -0.2406  0.4473
  233MOL0     C31345   6.416   8.815   2.975 -0.4162 -0.0935  0.0739
  233MOL0     C31346   6.364   8.712   2.890  0.8749 -0.0854  0.3223
  233MOL0     C31347   6.242   8.741   2.818 -0.0157  0.6474  0.6386
  233MOL0     C31348   6.176   8.621   2.748  0.0685  0.6298 -0.5825
  233MOL0     C31349   6.184   8.869   2.824 -0.0258  0.8891  0.3768
  233MOL0     C31350   6.059   8.896   2.765 -0.0527  0.3041  0.5550
  233MOL0     O31351   5.956   8.812   2.783  0.5192  0.4060  0.8758
  233MOL0     C31352   5.825   8.836   2.768  0.1581  0.1323  0.1751
  233MOL0     C31353   5.769   8.954   2.712 -0.0207 -0.4231  0.5423
  233MOL0     C31354   5.630   8.967   2.699 -0.0914  0.1881  0.3556
  233MOL0     C31355   5.541   8.874   2.740  1.1724 -0.3782 -0.1187
  233MOL0     O31356   5.410   8.911   2.747 -0.0998  0.3213 -0.0797
  233MOL0     C31357   5.313   8.797   2.745 -0.2085  0.1082  0.1316
  233MOL0     C31358   5.175   8.870   2.744  0.3491  0.2442  0.5358
  233MOL0     C31359   5.070   8.771   2.795  0.2378  0.7427  0.3164
  233MOL0     C31360   4.932   8.795   2.735  0.1403 -0.2651 -0.9848
  233MOL0     C31361   4.838   8.703   2.821 -0.2954  0.2655 -0.4462
  233MOL0     C31362   4.693   8.692   2.774 -0.1867 -0.0043 -0.1695
  233MOL0     C31363   4.634   8.827   2.714  0.3585 -0.4757 -0.0518
  233MOL0     C31364   4.483   8.816   2.696 -0.2872  0.2320  0.6633
  233MOL0    Cl31365   4.384   8.836   2.840 -0.0154  0.5150 -0.3674
  233MOL0     C31366   5.591   8.760   2.789 -0.6547  0.4841  0.5458
  233MOL0     C31367   5.728   8.741   2.810  0.0374  1.0761 -0.7950
  233MOL0     O31368   6.052   9.007   2.707  0.5357 -0.1913 -0.1555
  233MOL0     C31369   6.242   8.973   2.903 -0.4083 -0.4443  0.0762
  233MOL0     C31370   6.348   8.944   2.986  0.0898  0.6580 -0.7456
  233MOL0     N31371   7.120   8.577   2.862 -0.5795  0.1896  0.2140
  233MOL0     N31372   7.194   8.509   2.788 -0.3993  0.3021  0.6806
  233MOL0     C31373   7.385   8.982   1.731 -0.6686 -0.7353 -0.4839
  233MOL0     C31374   7.511   8.966   1.695  0.4443  0.4312  0.2589
  233MOL0     C31375   7.926   8.748   1.636  0.0785 -0.9617 -0.7418
  233MOL0     C31376   8.002   8.865   1.636  0.5811 -0.1141  1.0943
  233MOL0     C31377   8.144   8.857   1.618  0.9311 -0.2781 -0.1619
  233MOL0     C31378   8.210   8.739   1.597  0.4686 -0.4467  0.4941
  233MOL0     O31379   8.350   8.743   1.570 -0.1043  0.3032 -0.6400
  233MOL0     C31380   8.406   8.654   1.478  0.0774 -0.4083  0.3399
  233MOL0     C31381   8.547   8.705   1.453 -0.5000 -0.8420 -0.0918
  233MOL0     C31382   8.601   8.655   1.321  0.3922  0.0501  0.3624
  233MOL0     C31383   8.747   8.709   1.316  0.5026 -0.2088 -0.4622
  233MOL0     C31384   8.796   8.690   1.183 -0.4415 -0.0373 -0.0716
  233MOL0     C31385   8.850   8.650   1.078  0.7333  0.6198  0.8106
  233MOL0     C31386   8.131   8.624   1.590 -0.5165 -0.4139 -0.2785
  233MOL0     C31387   8.000   8.625   1.615  0.9025 -0.3996 -0.0021
  233MOL0     H31388   7.575   8.654   1.812  0.7347  0.9292 -0.0498
  233MOL0     H31389   7.319   8.672   1.853  1.1192 -0.1638  0.8609
  233MOL0     H31390   6.987   8.846   1.870 -0.2341 -0.2416  0.7637
  233MOL0     H31391   7.094   8.725   1.805  0.5915 -0.1415  0.1513
  233MOL0     H31392   7.238   8.809   2.037  0.7072 -2.6836 -0.8662
  233MOL0     H31393   7.091   8.890   2.083 -0.8440  0.3319 -0.0420
  233MOL0     H31394   6.987   8.670   2.104 -0.0853  0.5802 -1.8281
  233MOL0     H31395   7.131   8.592   2.031 -0.9991 -0.5660 -0.5585
  233MOL0     H31396   7.259   8.684   2.231  0.4920  1.4362  0.3765
  233MOL0     H31397   7.104   8.751   2.288  0.2363  0.1312 -0.4198
  233MOL0     H31398   6.992   8.535   2.297 -0.6480  0.6024  0.4433
  233MOL0     H31399   7.144   8.452   2.237 -1.5311 -0.4777  0.7526
  233MOL0     H31400   7.262   8.513   2.416 -0.4068  3.8514 -0.1387
  233MOL0     H31401   7.116   8.585   2.490  1.4041 -2.3431  3.1114
  233MOL0     H31402   6.998   8.400   2.496  0.0792  1.0833 -1.4551
  233MOL0     H31403   7.122   8.298   2.414  0.1757  0.9866 -0.7034
  233MOL0     H31404   7.283   8.355   2.600 -0.7878  0.2565 -1.8727
  233MOL0     H31405   7.154   8.233   2.632 -0.5064 -0.4399  0.6029
  233MOL0     H31406   6.913   8.345   2.754 -0.6897  0.8164  2.5057
  233MOL0     H31407   6.794   8.494   2.916 -0.2653 -0.1563  1.0769
  233MOL0     H31408   6.897   8.492   3.050 -2.1245 -0.6575  0.0775
  233MOL0     H31409   6.888   8.758   2.905  0.8536 -1.1380  0.1591
  233MOL0     H31410   6.964   8.714   3.060  0.9900  0.3506 -1.0750
  233MOL0     H31411   6.766   8.842   3.083  0.2518  0.4577 -1.2085
  233MOL0     H31412   6.755   8.670   3.155  1.2358 -1.4484 -1.8138
  233MOL0     H31413   6.595   8.608   3.008 -0.9224  0.4141  0.8976
  233MOL0     H31414   6.646   8.725   2.886 -0.7315  0.2595 -0.1273
  233MOL0     H31415   6.397   8.609   2.887  1.0508 -0.0315  0.4002
  233MOL0     H31416   6.078   8.597   2.790 -0.6270 -3.4934 -3.9527
  233MOL0     H31417   6.158   8.646   2.643 -3.0606 -0.2318 -0.3504
  233MOL0     H31418   6.241   8.533   2.747 -0.6638  0.0829 -2.0839
  233MOL0     H31419   5.822   9.044   2.680  2.0761 -1.0140  2.0756
  233MOL0     H31420   5.585   9.059   2.663  0.0547  1.7124  3.7332
  233MOL0     H31421   5.333   8.735   2.658  0.4071  1.2174 -0.5354
  233MOL0     H31422   5.320   8.747   2.842 -1.2223 -3.7836 -1.5995
  233MOL0     H31423   5.178   8.958   2.809  0.6491 -0.5921  1.6748
  233MOL0     H31424   5.145   8.903   2.644 -0.5996 -2.2136 -0.0452
  233MOL0     H31425   5.066   8.770   2.904 -0.3764 -0.4905  0.3065
  233MOL0     H31426   5.097   8.670   2.763 -0.0620  0.4992  0.8090
  233MOL0     H31427   4.895   8.898   2.732 -0.9362 -0.4257  2.2082
  233MOL0     H31428   4.928   8.763   2.631  2.5013 -0.5044 -1.0427
  233MOL0     H31429   4.831   8.740   2.924  2.8239  0.6048 -0.2820
  233MOL0     H31430   4.879   8.602   2.830 -1.4602 -0.0596  2.8428
  233MOL0     H31431   4.679   8.622   2.691  1.6958 -1.0482  0.3337
  233MOL0     H31432   4.629   8.662   2.857  0.2630 -1.1856 -0.2237
  233MOL0     H31433   4.677   8.845   2.615 -0.4799 -1.0743 -0.5365
  233MOL0     H31434   4.666   8.910   2.778  1.1581 -0.6222 -0.2588
  233MOL0     H31435   4.467   8.713   2.663  0.1094  0.2727  0.3391
  233MOL0     H31436   4.443   8.872   2.612  1.1891 -0.8416 -0.8264
  233MOL0     H31437   5.529   8.679   2.826  1.2548 -0.8279  1.0072
  233MOL0     H31438   5.751   8.647   2.860 -3.6858 -0.1292 -1.0228
  233MOL0     H31439   6.205   9.074   2.915  2.2988  0.5381  0.9629
  233MOL0     H31440   6.398   9.008   3.057  0.5649  1.0413 -1.4094
  233MOL0     H31441   7.338   9.079   1.723  0.8963  0.2808  1.6952
  233MOL0     H31442   7.569   9.048   1.652 -0.0572  0.0459 -1.1782
  233MOL0     H31443   7.956   8.963   1.651 -0.6110 -0.7692  1.8809
  233MOL0     H31444   8.207   8.945   1.604  2.2417 -1.5155 -2.6999
  233MOL0     H31445   8.428   8.554   1.517  0.8403 -0.1717  0.5266
  233MOL0     H31446   8.347   8.646   1.387 -1.9721 -1.3386  1.6651
  233MOL0     H31447   8.616   8.698   1.538 -2.3454  1.8486  1.8240
  233MOL0     H31448   8.548   8.813   1.437 -0.0831 -0.9970 -1.1472
  233MOL0     H31449   8.539   8.698   1.242 -1.7483  1.7267  2.7840
  233MOL0     H31450   8.594   8.545   1.324  2.6093 -0.1417 -0.1252
  233MOL0     H31451   8.814   8.656   1.384  0.6139  1.4053  0.7239
  233MOL0     H31452   8.756   8.816   1.334 -2.1293  0.3037 -1.6272
  233MOL0     H31453   8.895   8.623   0.985  2.1114 -1.3062  1.9487
  233MOL0     H31454   8.181   8.529   1.569 -0.0247 -1.3587  4.1164
  233MOL0     H31455   7.955   8.526   1.612 -0.4202  0.1919 -3.0115
  234MOL0     O31456   6.940   6.117   5.527  0.3445  0.3979 -0.5981
  234MOL0     C31457   7.016   6.045   5.595  0.3074  0.0774 -0.0341
  234MOL0     O31458   7.019   6.059   5.730 -0.2636 -0.0606  0.4083
  234MOL0     C31459   6.924   6.131   5.802  0.3170  1.1890  0.2906
  234MOL0     C31460   6.809   6.059   5.843 -0.4296 -0.1254  0.5171
  234MOL0     C31461   6.721   6.114   5.930  0.0875  0.0393 -0.2612
  234MOL0     C31462   6.741   6.237   5.988  0.8966 -0.8466 -0.8441
  234MOL0     O31463   6.643   6.278   6.085 -0.4499 -0.0175 -0.7329
  234MOL0     C31464   6.563   6.387   6.048 -1.2061  0.4614  0.1677
  234MOL0     C31465   6.420   6.346   6.055 -0.0275  0.3376 -0.2140
  234MOL0     C31466   6.322   6.461   6.050 -0.3080  0.0695 -0.0023
  234MOL0     C31467   6.195   6.436   6.138 -1.2500 -0.3780  0.3701
  234MOL0     C31468   6.097   6.547   6.137 -0.3841  0.1042  0.3755
  234MOL0     C31469   6.025   6.558   5.998  0.5505  0.3902 -0.0940
  234MOL0     C31470   5.948   6.431   5.976  0.3096 -0.6529 -0.0940
  234MOL0     C31471   5.837   6.457   5.873 -0.1585  0.2086  0.6355
  234MOL0     N31472   5.893   6.492   5.740 -1.0983 -0.4803  0.5659
  234MOL0     C31473   5.860   6.599   5.654  1.1020  0.4441 -0.0348
  234MOL0     C31474   5.948   6.586   5.547  0.2030  0.1862 -0.8126
  234MOL0     C31475   5.959   6.675   5.428 -0.0468  0.1926 -0.3595
  234MOL0     C31476   6.092   6.656   5.354 -0.3273 -0.3508 -0.1058
  234MOL0     C31477   6.110   6.765   5.244  0.3926  0.4462  0.5848
  234MOL0     C31478   6.223   6.746   5.145  0.0052  0.6285  0.0689
  234MOL0     O31479   6.351   6.743   5.210 -0.1057 -0.3064 -0.1062
  234MOL0     C31480   6.467   6.714   5.136 -0.3129 -0.0618 -0.3031
  234MOL0     C31481   6.483   6.738   5.003  0.0179  0.5084  0.1732
  234MOL0     C31482   6.604   6.709   4.931 -0.5511  0.6604  0.6389
  234MOL0     C31483   6.600   6.732   4.775 -0.4808 -0.4690  0.0493
  234MOL0     C31484   6.715   6.653   5.006  0.8787 -0.5013  0.4524
  234MOL0     C31485   6.847   6.624   4.941 -0.1915 -0.3822 -0.6164
  234MOL0     O31486   6.947   6.582   5.028  0.6604 -1.1009 -0.3389
  234MOL0     C31487   7.066   6.542   4.969  0.4203 -0.3875  0.1464
  234MOL0     C31488   7.184   6.616   4.997 -0.2625  0.3572 -0.3753
  234MOL0     C31489   7.313   6.582   4.946 -0.3823 -0.9595 -0.7921
  234MOL0     C31490   7.328   6.470   4.863 -0.0639 -0.3895 -0.1346
  234MOL0     O31491   7.447   6.423   4.800 -0.0281 -0.0457 -0.0704
  234MOL0     C31492   7.575   6.461   4.866  0.4666  0.0670 -0.1739
  234MOL0     C31493   7.686   6.381   4.804 -0.1909  0.7077 -0.7455
  234MOL0     C31494   7.816   6.417   4.885  0.0339  0.1278 -0.1347
  234MOL0     C31495   7.925   6.331   4.839 -0.3994  0.1441 -0.6250
  234MOL0     C31496   8.055   6.373   4.918 -0.0581 -0.6270  0.3017
  234MOL0     C31497   8.119   6.515   4.899 -0.2985  0.3109 -0.7660
  234MOL0     C31498   8.137   6.554   4.753  0.3509  0.3130 -0.2158
  234MOL0     C31499   8.197   6.695   4.751  0.7890  0.8265  0.4183
  234MOL0    Cl31500   8.363   6.694   4.835 -0.0409 -0.0528 -0.4045
  234MOL0     C31501   7.212   6.413   4.811  0.8253  0.0504  0.5465
  234MOL0     C31502   7.087   6.448   4.866 -0.3997  0.2713  0.2727
  234MOL0     O31503   6.858   6.634   4.824  0.2928 -0.3703 -0.3507
  234MOL0     C31504   6.695   6.631   5.145  1.0756 -0.2378  0.5363
  234MOL0     C31505   6.568   6.658   5.207 -0.2295 -0.8115 -0.2506
  234MOL0     N31506   6.029   6.478   5.567  0.3160  0.6046 -0.1402
  234MOL0     N31507   6.003   6.427   5.684  0.5096  0.3674 -0.3130
  234MOL0     C31508   6.845   6.324   5.931 -0.0200  0.2984  0.4218
  234MOL0     C31509   6.938   6.263   5.838  0.1238  0.5428  0.2421
  234MOL0     C31510   7.119   5.953   5.531  0.2242  0.2610  0.3916
  234MOL0     C31511   7.129   5.942   5.391  0.6767 -0.1341  0.4589
  234MOL0     C31512   7.228   5.864   5.341  0.4476  0.1327 -0.1643
  234MOL0     C31513   7.317   5.795   5.424 -0.1516  0.2020 -0.7219
  234MOL0     O31514   7.407   5.699   5.360 -0.0538  0.1714  0.1508
  234MOL0     C31515   7.491   5.614   5.443 -0.1997 -0.4768  0.3882
  234MOL0     C31516   7.616   5.691   5.489 -0.2314  0.0215 -0.1841
  234MOL0     C31517   7.688   5.619   5.610 -0.8134 -0.4914 -0.3832
  234MOL0     C31518   7.796   5.711   5.674 -0.1244  0.1623 -0.6307
  234MOL0     C31519   7.908   5.640   5.741  0.0840 -0.1396 -0.5903
  234MOL0     C31520   7.990   5.565   5.785 -0.3010  0.2596  0.5190
  234MOL0     C31521   7.312   5.814   5.562 -0.3335  1.1748 -0.0789
  234MOL0     C31522   7.207   5.881   5.614 -0.1574  0.1534  0.7415
  234MOL0     H31523   6.794   5.959   5.803  1.0885  0.4721 -1.7595
  234MOL0     H31524   6.631   6.060   5.959  2.0717 -2.7497  1.1715
  234MOL0     H31525   6.602   6.473   6.102  1.0152  0.6109 -1.5355
  234MOL0     H31526   6.575   6.421   5.945  1.8286 -1.5616 -0.2653
  234MOL0     H31527   6.404   6.269   5.980 -1.5843 -1.6018  1.9986
  234MOL0     H31528   6.405   6.291   6.148 -0.1544  0.9129  0.1095
  234MOL0     H31529   6.367   6.558   6.071 -0.2002  0.8435 -3.2678
  234MOL0     H31530   6.295   6.474   5.944  0.0863 -0.4308 -0.1673
  234MOL0     H31531   6.156   6.336   6.116 -0.1526 -0.7510  0.0841
  234MOL0     H31532   6.220   6.426   6.244  2.1242 -0.7292 -0.3660
  234MOL0     H31533   6.018   6.533   6.212 -2.1021 -3.7366 -1.8641
  234MOL0     H31534   6.150   6.642   6.144  1.4335 -0.9370  1.6162
  234MOL0     H31535   5.952   6.639   6.007  0.3091  0.1329  0.2985
  234MOL0     H31536   6.076   6.577   5.903 -2.2415 -0.2536 -1.8363
  234MOL0     H31537   6.006   6.344   5.943  0.1217 -1.2510  1.1046
  234MOL0     H31538   5.899   6.405   6.070  0.1448  0.1852  0.0607
  234MOL0     H31539   5.763   6.533   5.901  0.2030  1.4986 -1.7018
  234MOL0     H31540   5.772   6.369   5.869  0.9254 -0.9004  4.0904
  234MOL0     H31541   5.795   6.686   5.661  0.4154  0.3081 -3.1455
  234MOL0     H31542   5.874   6.648   5.365  0.0556 -0.5920 -0.1790
  234MOL0     H31543   5.954   6.781   5.454 -2.3174  1.0152 -3.5413
  234MOL0     H31544   6.085   6.557   5.309  1.6064 -1.4998  1.9108
  234MOL0     H31545   6.181   6.669   5.417  0.9057 -1.8483 -1.4443
  234MOL0     H31546   6.135   6.861   5.290  2.8864 -0.2680  0.8173
  234MOL0     H31547   6.013   6.771   5.192  0.7191  1.9189  0.1110
  234MOL0     H31548   6.219   6.837   5.084 -0.4214  0.5147 -0.0770
  234MOL0     H31549   6.216   6.651   5.091  2.2240 -1.1690  2.6958
  234MOL0     H31550   6.402   6.785   4.947 -0.3319 -0.1314  0.1296
  234MOL0     H31551   6.500   6.766   4.748 -0.3891  0.2977  0.6491
  234MOL0     H31552   6.671   6.808   4.741  1.4624 -2.1133  0.2192
  234MOL0     H31553   6.617   6.634   4.729  0.1248 -0.0486 -0.6417
  234MOL0     H31554   7.162   6.698   5.064  3.0672  1.2109 -0.1897
  234MOL0     H31555   7.393   6.646   4.981 -0.7412 -0.7394 -0.3724
  234MOL0     H31556   7.612   6.565   4.862 -0.0507  0.2637  0.0880
  234MOL0     H31557   7.568   6.434   4.971  0.8318 -1.6515 -0.5617
  234MOL0     H31558   7.666   6.274   4.814  0.6652  0.5413 -0.7956
  234MOL0     H31559   7.699   6.400   4.697 -1.1550  1.3634 -0.7596
  234MOL0     H31560   7.804   6.407   4.993  3.1119 -0.1548  0.2676
  234MOL0     H31561   7.834   6.523   4.866 -1.3400  0.4617  0.2636
  234MOL0     H31562   7.907   6.228   4.873  3.6495 -0.4925  0.0905
  234MOL0     H31563   7.947   6.329   4.732  2.7774  0.0238 -0.0533
  234MOL0     H31564   8.137   6.301   4.910  1.2700  0.2311  3.9885
  234MOL0     H31565   8.023   6.366   5.023 -2.9501  4.9449  0.1619
  234MOL0     H31566   8.045   6.589   4.932  0.5574  1.2595 -0.9476
  234MOL0     H31567   8.214   6.530   4.951 -1.2638  0.4922  1.0433
  234MOL0     H31568   8.039   6.562   4.704 -1.3329  1.1238  2.9690
  234MOL0     H31569   8.205   6.491   4.696 -0.1553 -0.0126 -0.4709
  234MOL0     H31570   8.125   6.764   4.796 -0.2723  0.5340 -0.7763
  234MOL0     H31571   8.206   6.717   4.645  0.4885 -0.0966  0.1972
  234MOL0     H31572   7.217   6.334   4.737  0.3249 -0.1114  0.6797
  234MOL0     H31573   7.003   6.400   4.817  0.2269 -0.3924 -0.1787
  234MOL0     H31574   6.775   6.592   5.207  0.0942 -0.3764  1.7659
  234MOL0     H31575   6.552   6.641   5.313 -0.2031 -2.4769 -0.4878
  234MOL0     H31576   6.859   6.425   5.968 -1.3883  1.4158 -1.8965
  234MOL0     H31577   7.031   6.312   5.812  0.3737 -0.8976 -1.8339
  234MOL0     H31578   7.058   5.987   5.322  0.4802 -0.9342  0.1263
  234MOL0     H31579   7.238   5.840   5.235  0.4915  0.9030 -0.3371
  234MOL0     H31580   7.435   5.582   5.532  2.2323 -1.0700  1.8035
  234MOL0     H31581   7.532   5.532   5.384  0.5415 -0.1589  0.4530
  234MOL0     H31582   7.590   5.793   5.522  4.9851  0.9046  2.1965
  234MOL0     H31583   7.688   5.701   5.408  1.4160  0.3490  1.2634
  234MOL0     H31584   7.747   5.535   5.572  1.3834  0.3296  1.0106
  234MOL0     H31585   7.619   5.582   5.686  0.7744 -0.7342  1.0144
  234MOL0     H31586   7.746   5.771   5.751  1.5857  1.2442 -0.2940
  234MOL0     H31587   7.834   5.782   5.599  0.9711 -0.5018 -0.7278
  234MOL0     H31588   8.060   5.491   5.818 -0.5672 -0.0023  0.4993
  234MOL0     H31589   7.392   5.767   5.619 -1.1902 -2.2700 -1.4512
  234MOL0     H31590   7.195   5.880   5.722 -0.6927 -3.9299  0.8280
  235MOL0     O31591   9.048   9.708   7.591 -0.5001  0.2345  0.1432
  235MOL0     C31592   9.000   9.660   7.695  0.3065 -0.2327 -0.4398
  235MOL0     O31593   9.060   9.574   7.778 -0.1937 -0.4488 -0.1569
  235MOL0     C31594   9.181   9.529   7.738 -0.1711 -0.0136  0.5065
  235MOL0     C31595   9.198   9.421   7.652  0.9328 -0.1543 -0.3825
  235MOL0     C31596   9.320   9.370   7.615 -0.5700  0.0980 -0.1699
  235MOL0     C31597   9.431   9.420   7.679  0.0793 -0.8602 -0.4357
  235MOL0     O31598   9.558   9.381   7.632 -0.1460 -0.2602  0.0433
  235MOL0     C31599   9.666   9.482   7.628  0.7302 -0.7704 -0.5337
  235MOL0     C31600   9.788   9.428   7.563  0.5386 -0.7764 -0.0332
  235MOL0     C31601   9.882   9.544   7.540 -0.2019 -0.4763  0.6490
  235MOL0     C31602   9.992   9.502   7.451 -0.5401 -0.5488  0.1290
  235MOL0     C31603  10.108   9.597   7.438  0.0202 -0.0626 -0.5135
  235MOL0     C31604  10.186   9.623   7.569 -0.4690  0.0123 -0.2558
  235MOL0     C31605  10.334   9.646   7.571  0.5253  0.2639 -0.1455
  235MOL0     C31606  10.410   9.535   7.503  0.4607  0.4296  1.0203
  235MOL0     N31607  10.553   9.562   7.518 -0.2968  0.1189  0.0479
  235MOL0     C31608  10.629   9.665   7.454  0.8449 -0.2022  0.4399
  235MOL0     C31609  10.756   9.648   7.505 -0.5606  0.1939  0.0363
  235MOL0     C31610  10.876   9.732   7.488  0.2760  0.7296  0.2501
  235MOL0     C31611  10.863   9.882   7.511  0.4319  0.7546  0.0148
  235MOL0     C31612  10.862   9.939   7.649  0.5029 -0.0729  0.6338
  235MOL0     C31613  10.741   9.912   7.733  1.6497  0.0803  0.8985
  235MOL0     O31614  10.625   9.958   7.668 -1.2519 -0.4538 -0.7016
  235MOL0     C31615  10.498   9.949   7.724 -0.0918  0.4753  0.8606
  235MOL0     C31616  10.402  10.029   7.666 -0.5690  0.6089 -0.5012
  235MOL0     C31617  10.266  10.020   7.699 -0.4596  0.2267  0.3389
  235MOL0     C31618  10.176  10.102   7.610  0.2623  0.2971  0.1107
  235MOL0     C31619  10.228   9.939   7.809 -0.7419 -0.8110 -0.3673
  235MOL0     C31620  10.088   9.912   7.859  0.1615 -0.5840 -0.0167
  235MOL0     O31621  10.088   9.828   7.971  0.1488  0.3256  0.1075
  235MOL0     C31622   9.959   9.798   8.003 -0.1979  0.7524  0.0754
  235MOL0     C31623   9.886   9.885   8.099 -0.3816  0.0732  0.4018
  235MOL0     C31624   9.755   9.850   8.139 -0.2676 -0.7217  0.5191
  235MOL0     C31625   9.694   9.736   8.092 -0.3791  0.8353  0.3259
  235MOL0     O31626   9.565   9.697   8.115 -0.0598  0.0371 -0.0738
  235MOL0     C31627   9.501   9.742   8.240  1.2076 -0.2748  0.0928
  235MOL0     C31628   9.366   9.666   8.244 -0.4504  0.7894 -0.5296
  235MOL0     C31629   9.244   9.734   8.177  0.5455 -0.1489  0.6120
  235MOL0     C31630   9.131   9.623   8.152 -0.8069 -0.5968  0.2469
  235MOL0     C31631   9.004   9.700   8.144  0.3637 -0.3601  0.3334
  235MOL0     C31632   8.890   9.599   8.141  0.6348 -0.9802  0.5233
  235MOL0     C31633   8.754   9.673   8.146  0.7922 -0.3627  0.7136
  235MOL0     C31634   8.716   9.699   8.297  0.2174  0.0654 -0.0226
  235MOL0    Cl31635   8.647   9.547   8.357 -0.2434 -0.6544 -0.1237
  235MOL0     C31636   9.757   9.657   7.996  0.2966  0.1544  0.3595
  235MOL0     C31637   9.888   9.689   7.951 -0.1903  0.4134 -0.3575
  235MOL0     O31638   9.991   9.960   7.796  0.4970  0.1071 -0.1432
  235MOL0     C31639  10.332   9.859   7.869 -0.6092 -0.7269 -0.6849
  235MOL0     C31640  10.460   9.872   7.832  1.0251 -0.5038  0.4187
  235MOL0     N31641  10.754   9.540   7.603  1.0514 -1.0160  0.4131
  235MOL0     N31642  10.632   9.491   7.603  0.0718  0.1259  0.6589
  235MOL0     C31643   9.422   9.526   7.769  0.1216 -0.5268  0.2604
  235MOL0     C31644   9.296   9.581   7.798  0.3011 -0.4783  1.0426
  235MOL0     C31645   8.851   9.676   7.715 -0.7389  0.6556  0.4884
  235MOL0     C31646   8.779   9.577   7.789 -0.2265 -0.7216  0.5985
  235MOL0     C31647   8.641   9.578   7.792  0.6089 -0.7665  0.0326
  235MOL0     C31648   8.576   9.681   7.733  0.9600  0.3029 -0.2181
  235MOL0     O31649   8.436   9.673   7.721 -0.7184 -0.3849 -0.1468
  235MOL0     C31650   8.370   9.765   7.808 -0.2867 -0.4055 -0.5594
  235MOL0     C31651   8.332   9.700   7.928 -0.1371  0.2783  0.9165
  235MOL0     C31652   8.230   9.783   8.015  0.1988  0.3720 -0.8861
  235MOL0     C31653   8.083   9.748   7.967 -1.1350 -1.1479 -0.1307
  235MOL0     C31654   7.988   9.799   8.069 -0.0563  0.0894 -0.0840
  235MOL0     C31655   7.906   9.819   8.161 -0.7172  0.5737  0.3314
  235MOL0     C31656   8.641   9.780   7.658  0.0722 -0.3617 -0.8112
  235MOL0     C31657   8.781   9.778   7.652  0.1742  0.1819  0.7957
  235MOL0     H31658   9.104   9.380   7.616  1.6643 -2.7768  0.4706
  235MOL0     H31659   9.329   9.289   7.544 -0.0726 -0.7768  0.8610
  235MOL0     H31660   9.622   9.565   7.571  3.6723 -0.5128 -2.6356
  235MOL0     H31661   9.691   9.512   7.730 -0.0726 -0.0421 -0.5345
  235MOL0     H31662   9.825   9.350   7.631 -1.7747 -1.0265  1.0368
  235MOL0     H31663   9.748   9.380   7.473  1.6786  1.1618 -1.6673
  235MOL0     H31664   9.835   9.626   7.485  0.3726 -1.8398 -1.9999
  235MOL0     H31665   9.913   9.583   7.638  0.2867  0.9324 -0.0376
  235MOL0     H31666  10.014   9.403   7.492  0.1234  0.0347  1.2213
  235MOL0     H31667   9.939   9.488   7.357 -2.9130 -3.7630  1.7606
  235MOL0     H31668  10.172   9.561   7.357  1.7168  0.3070  0.6078
  235MOL0     H31669  10.069   9.694   7.407 -0.4981 -0.2859 -0.5743
  235MOL0     H31670  10.137   9.708   7.615  1.0081  0.1087  1.2194
  235MOL0     H31671  10.181   9.541   7.641 -1.1957  0.9789  0.8148
  235MOL0     H31672  10.364   9.740   7.523 -0.7737  0.1158 -1.3174
  235MOL0     H31673  10.358   9.648   7.677  2.0802 -0.1069 -0.4648
  235MOL0     H31674  10.389   9.533   7.396  1.2681  2.6491  0.7813
  235MOL0     H31675  10.382   9.444   7.558 -2.0596  1.2345  1.2182
  235MOL0     H31676  10.593   9.750   7.395 -0.2535 -0.4231  0.7710
  235MOL0     H31677  10.960   9.686   7.541 -0.5161 -4.0552 -2.0321
  235MOL0     H31678  10.908   9.730   7.383  1.6458 -0.6836  0.6525
  235MOL0     H31679  10.785   9.926   7.449 -1.3291 -2.1007  0.0497
  235MOL0     H31680  10.957   9.918   7.468  1.9919  0.4622  2.9229
  235MOL0     H31681  10.877  10.047   7.641  0.7562 -0.2065 -0.8735
  235MOL0     H31682  10.944   9.895   7.706 -0.3756 -2.1787  0.3476
  235MOL0     H31683  10.752   9.957   7.833  0.5100  5.0323 -0.9242
  235MOL0     H31684  10.727   9.804   7.742 -0.0595  0.1639 -0.2202
  235MOL0     H31685  10.440  10.086   7.582  2.1874  0.7512  0.7346
  235MOL0     H31686  10.228  10.190   7.573  0.8308 -1.0075 -2.3929
  235MOL0     H31687  10.161  10.049   7.516 -0.8830  0.2188  0.3180
  235MOL0     H31688  10.088  10.139   7.663  0.1819  1.0724 -0.5548
  235MOL0     H31689   9.938   9.975   8.130  0.6873 -0.3131 -0.1840
  235MOL0     H31690   9.693   9.915   8.201  0.7816  3.5135 -2.4164
  235MOL0     H31691   9.563   9.700   8.319  1.4749 -0.2638 -0.1087
  235MOL0     H31692   9.480   9.849   8.254  0.0385 -0.7617  2.4731
  235MOL0     H31693   9.383   9.567   8.202 -0.2994  0.3095  0.6327
  235MOL0     H31694   9.344   9.652   8.350 -0.6831  1.2246 -0.5158
  235MOL0     H31695   9.276   9.776   8.081 -2.5117 -2.0776 -1.4544
  235MOL0     H31696   9.207   9.810   8.246 -1.1582 -1.0154  0.7234
  235MOL0     H31697   9.155   9.564   8.063 -1.9371 -2.6368  1.2286
  235MOL0     H31698   9.117   9.558   8.239  0.0439  1.4319  2.0122
  235MOL0     H31699   9.016   9.769   8.060  4.4568  3.1178  3.2973
  235MOL0     H31700   9.004   9.764   8.233 -0.0700  0.8705 -0.5210
  235MOL0     H31701   8.891   9.539   8.050  0.9852  1.0966 -0.9223
  235MOL0     H31702   8.898   9.530   8.226 -0.5223 -0.2039  1.2946
  235MOL0     H31703   8.677   9.613   8.097  0.1744  1.1752 -0.2715
  235MOL0     H31704   8.769   9.760   8.082  5.0225 -1.7055 -0.5008
  235MOL0     H31705   8.642   9.779   8.305 -1.0563 -1.0045 -0.5895
  235MOL0     H31706   8.807   9.718   8.355 -1.3729  2.3849  1.9344
  235MOL0     H31707   9.714   9.564   7.960 -0.7113  1.3033 -1.5337
  235MOL0     H31708   9.926   9.617   7.880 -2.8740 -0.0350 -1.4808
  235MOL0     H31709  10.308   9.796   7.954 -3.6869  0.7359 -0.2948
  235MOL0     H31710  10.529   9.806   7.885  0.7721 -1.0662  0.0657
  235MOL0     H31711   9.504   9.561   7.830  1.2549 -0.3340 -1.3162
  235MOL0     H31712   9.292   9.669   7.861 -3.7235  0.5745 -0.3572
  235MOL0     H31713   8.831   9.491   7.830  0.1461 -1.4601 -1.3410
  235MOL0     H31714   8.586   9.495   7.836 -1.2349  1.1012  1.4206
  235MOL0     H31715   8.434   9.848   7.840 -0.2142 -0.5324 -0.3742
  235MOL0     H31716   8.286   9.814   7.757 -1.1102  0.6661  1.7094
  235MOL0     H31717   8.418   9.696   7.995  1.0595  2.9113 -0.3133
  235MOL0     H31718   8.289   9.602   7.908  0.1934  0.0969  1.0903
  235MOL0     H31719   8.251   9.890   8.015 -0.9620  0.8096  3.5439
  235MOL0     H31720   8.240   9.749   8.118  0.9482  3.3932  0.1406
  235MOL0     H31721   8.073   9.641   7.950  0.9938 -1.5052  0.6514
  235MOL0     H31722   8.073   9.805   7.873 -0.7116  1.5921  1.3761
  235MOL0     H31723   7.830   9.837   8.234 -0.6490  1.4435  0.1976
  235MOL0     H31724   8.591   9.856   7.599 -1.7686 -1.0594 -0.2278
  235MOL0     H31725   8.830   9.848   7.585 -1.3269 -0.0685 -0.6175
  236MOL0     O31726   5.690   8.180   8.606 -0.3890  0.3866 -0.2312
  236MOL0     C31727   5.775   8.098   8.639 -0.6920  0.0106 -1.3083
  236MOL0     O31728   5.758   8.003   8.727  0.3977  0.1437  0.1809
  236MOL0     C31729   5.644   8.003   8.799  0.6644 -0.0225  0.1464
  236MOL0     C31730   5.552   7.904   8.762  0.7795  0.4795  0.4886
  236MOL0     C31731   5.417   7.906   8.807 -0.4920  0.5642 -0.0818
  236MOL0     C31732   5.380   8.004   8.894  0.4359 -0.4084  0.4087
  236MOL0     O31733   5.255   7.996   8.949  0.1440 -0.4490  0.0752
  236MOL0     C31734   5.144   7.979   8.866  0.7260  0.7006 -0.8315
  236MOL0     C31735   5.017   8.058   8.920 -0.1977  0.5262  0.1359
  236MOL0     C31736   4.879   8.036   8.847 -0.2486 -0.2113 -0.3078
  236MOL0     C31737   4.839   7.890   8.849 -1.0603  0.5555 -0.3224
  236MOL0     C31738   4.685   7.877   8.834  0.2550 -0.8245  0.0185
  236MOL0     C31739   4.643   7.736   8.826  0.1037 -0.5914 -0.0087
  236MOL0     C31740   4.509   7.717   8.750  0.1187  0.2532 -0.5613
  236MOL0     C31741   4.436   7.589   8.796 -0.8564  0.4865  0.4704
  236MOL0     N31742   4.305   7.573   8.724  0.4337  0.3043 -0.3559
  236MOL0     C31743   4.268   7.625   8.598  0.1049 -0.3934  0.7498
  236MOL0     C31744   4.140   7.586   8.582  0.2298 -0.2932 -0.1141
  236MOL0     C31745   4.050   7.604   8.464 -0.9475  0.1401 -0.7755
  236MOL0     C31746   4.066   7.486   8.370 -0.6889 -1.0060  0.1440
  236MOL0     C31747   3.936   7.459   8.279  0.2134 -0.0489 -0.0870
  236MOL0     C31748   3.891   7.579   8.199 -0.1306  0.2613  0.0704
  236MOL0     O31749   3.772   7.550   8.124  0.2676  0.1170  0.0336
  236MOL0     C31750   3.650   7.542   8.178 -0.2269 -0.3625 -0.0713
  236MOL0     C31751   3.619   7.549   8.315  0.6546  0.5300 -0.2764
  236MOL0     C31752   3.491   7.511   8.367  0.5691 -0.4768  1.5947
  236MOL0     C31753   3.471   7.498   8.509  0.3208 -0.2057  0.3830
  236MOL0     C31754   3.383   7.494   8.276 -0.0546 -0.4483  0.3396
  236MOL0     C31755   3.242   7.466   8.305 -0.4914 -0.1141  0.7644
  236MOL0     O31756   3.196   7.513   8.431 -0.1265  0.0244  0.6120
  236MOL0     C31757   3.072   7.461   8.474  0.2299 -0.9123 -0.4958
  236MOL0     C31758   3.056   7.354   8.563 -0.5404 -0.3747 -0.1950
  236MOL0     C31759   2.937   7.316   8.598  0.8533 -0.2353 -0.1339
  236MOL0     C31760   2.825   7.373   8.546  0.5039 -0.3780  0.4937
  236MOL0     O31761   2.704   7.340   8.594 -0.0844 -0.3194 -0.0911
  236MOL0     C31762   2.589   7.348   8.513  0.5488  0.0155 -0.0503
  236MOL0     C31763   2.481   7.324   8.614  0.3939  0.2285 -0.6272
  236MOL0     C31764   2.495   7.184   8.676  0.1249 -0.3946 -0.1774
  236MOL0     C31765   2.364   7.136   8.742  0.5467 -0.9263 -0.3728
  236MOL0     C31766   2.402   7.001   8.816 -0.2134  0.5755 -0.1706
  236MOL0     C31767   2.269   6.947   8.862  0.1645  0.1377  0.4978
  236MOL0     C31768   2.283   6.823   8.942 -0.0325  0.4063  0.2098
  236MOL0     C31769   2.339   6.707   8.852  0.3610  0.0687 -0.0381
  236MOL0    Cl31770   2.205   6.636   8.752  0.0547  0.0679 -0.3076
  236MOL0     C31771   2.844   7.477   8.449  0.4129  0.7909 -0.7631
  236MOL0     C31772   2.968   7.522   8.411 -0.8116  0.9723  0.4768
  236MOL0     O31773   3.169   7.426   8.213 -0.3585 -0.5927  0.0573
  236MOL0     C31774   3.420   7.486   8.135  0.6039  0.0379 -0.7420
  236MOL0     C31775   3.553   7.510   8.089  0.8806 -0.1830  0.3749
  236MOL0     N31776   4.096   7.523   8.694  0.2610  0.4813 -0.3373
  236MOL0     N31777   4.194   7.514   8.786  0.7342  0.1173  0.9391
  236MOL0     C31778   5.468   8.108   8.931 -0.2901  0.8236 -0.3946
  236MOL0     C31779   5.599   8.107   8.881 -0.8126 -0.2915 -0.0405
  236MOL0     C31780   5.910   8.101   8.579  0.5292 -0.9603 -0.0202
  236MOL0     C31781   5.933   8.176   8.462  0.1079  0.0097 -0.6054
  236MOL0     C31782   6.061   8.184   8.412  0.2758 -0.9532  0.0049
  236MOL0     C31783   6.162   8.116   8.465  0.2773 -0.0419  0.6113
  236MOL0     O31784   6.287   8.112   8.413 -0.2347  0.0605 -0.0939
  236MOL0     C31785   6.325   8.159   8.283 -0.8121 -0.6390 -0.2758
  236MOL0     C31786   6.470   8.126   8.257 -0.5800  0.3972  0.3230
  236MOL0     C31787   6.548   8.204   8.362 -0.4368 -0.8371  0.0741
  236MOL0     C31788   6.693   8.153   8.379  0.0837 -0.3595  0.2944
  236MOL0     C31789   6.791   8.154   8.265  0.4960 -0.5205  0.0181
  236MOL0     C31790   6.860   8.152   8.162  0.4778 -0.0408  0.0208
  236MOL0     C31791   6.140   8.045   8.587 -0.9055  0.2576  0.5528
  236MOL0     C31792   6.014   8.033   8.642  0.2452  0.2869  0.0979
  236MOL0     H31793   5.599   7.825   8.704 -0.5509 -0.3351  0.4922
  236MOL0     H31794   5.342   7.838   8.769 -2.2653  0.8487  2.5918
  236MOL0     H31795   5.161   8.007   8.761  2.9411 -0.0917 -0.7334
  236MOL0     H31796   5.122   7.872   8.860  2.1068  0.2858  0.7648
  236MOL0     H31797   5.018   8.023   9.023  0.0693  2.3084  0.7776
  236MOL0     H31798   5.037   8.166   8.922  0.6877  0.3989 -0.7768
  236MOL0     H31799   4.811   8.091   8.913  2.0185  1.7013  0.5842
  236MOL0     H31800   4.874   8.069   8.742  0.6732  1.1625  0.0418
  236MOL0     H31801   4.909   7.835   8.785  0.2243  2.0245 -0.2551
  236MOL0     H31802   4.864   7.845   8.946 -2.1383 -1.0159 -0.7208
  236MOL0     H31803   4.648   7.928   8.924 -0.7658 -2.1956  0.3911
  236MOL0     H31804   4.665   7.928   8.740  0.0038  0.5892  0.8034
  236MOL0     H31805   4.711   7.681   8.760  1.5396  2.4361 -1.2202
  236MOL0     H31806   4.624   7.688   8.922 -5.2166 -0.8218 -0.8710
  236MOL0     H31807   4.442   7.803   8.759 -0.1380 -0.2007  3.4504
  236MOL0     H31808   4.526   7.709   8.642 -0.7886 -0.5244 -0.6566
  236MOL0     H31809   4.418   7.581   8.904  0.1158 -0.9243  0.5502
  236MOL0     H31810   4.506   7.511   8.765  0.2579  1.6020  0.0794
  236MOL0     H31811   4.325   7.676   8.521 -1.6959  1.1936  0.3844
  236MOL0     H31812   3.945   7.617   8.494 -0.4557  1.5644  0.4649
  236MOL0     H31813   4.089   7.693   8.414  1.4216  1.2657  2.6853
  236MOL0     H31814   4.089   7.396   8.429 -2.6258 -1.4277  0.3332
  236MOL0     H31815   4.147   7.502   8.299 -2.4674  0.9145 -1.5715
  236MOL0     H31816   3.855   7.432   8.348  0.7522  1.1921  1.0716
  236MOL0     H31817   3.955   7.377   8.209 -0.2974 -1.0619  0.9191
  236MOL0     H31818   3.972   7.594   8.127  0.4775  0.7567  0.8350
  236MOL0     H31819   3.870   7.673   8.252  1.8507  0.7219  0.1291
  236MOL0     H31820   3.701   7.587   8.375  1.8375 -2.4693  0.1658
  236MOL0     H31821   3.393   7.425   8.532  0.9130 -0.9776 -0.0067
  236MOL0     H31822   3.565   7.483   8.562  0.4168 -0.0253  0.2673
  236MOL0     H31823   3.435   7.592   8.549  1.0874  2.1977 -3.9184
  236MOL0     H31824   3.151   7.325   8.607 -0.3014  0.0989 -0.3943
  236MOL0     H31825   2.928   7.252   8.685 -1.1174 -0.1704 -0.2469
  236MOL0     H31826   2.566   7.444   8.468 -0.3561  0.8900  2.1185
  236MOL0     H31827   2.575   7.260   8.449  1.0679  1.4337 -2.1995
  236MOL0     H31828   2.475   7.398   8.694  1.4839  1.6741 -1.8321
  236MOL0     H31829   2.390   7.327   8.552 -1.0385 -1.3546  1.2707
  236MOL0     H31830   2.564   7.192   8.760 -2.4606 -0.4013  2.0872
  236MOL0     H31831   2.515   7.104   8.604  2.3087 -1.0862  1.0993
  236MOL0     H31832   2.348   7.218   8.813  1.0864 -0.1622 -1.1038
  236MOL0     H31833   2.279   7.120   8.676 -1.4708  2.4636  1.1385
  236MOL0     H31834   2.457   7.012   8.910 -1.3778  0.5999  0.5277
  236MOL0     H31835   2.466   6.931   8.760  0.4609  1.0567 -0.0099
  236MOL0     H31836   2.211   7.020   8.917  0.6925 -0.8753  2.4773
  236MOL0     H31837   2.202   6.929   8.777  1.0560  0.7462 -0.3706
  236MOL0     H31838   2.191   6.804   8.999  0.5650 -2.2919  0.3936
  236MOL0     H31839   2.358   6.827   9.022 -0.3658  0.6536  0.5134
  236MOL0     H31840   2.385   6.642   8.927 -1.1328  0.1797  1.0233
  236MOL0     H31841   2.413   6.740   8.779  1.6084  1.2114  1.6604
  236MOL0     H31842   2.762   7.535   8.406  1.9159  1.9534 -2.1658
  236MOL0     H31843   2.972   7.595   8.332  0.2995  1.6424  1.1240
  236MOL0     H31844   3.348   7.464   8.057  1.2985 -1.2389 -1.0356
  236MOL0     H31845   3.585   7.501   7.986 -2.0387  0.2986 -0.6646
  236MOL0     H31846   5.438   8.191   8.994  1.4741  2.0593 -1.0926
  236MOL0     H31847   5.674   8.174   8.922 -2.4703  0.6399  1.5922
  236MOL0     H31848   5.857   8.236   8.413 -0.0811 -0.8280 -1.3650
  236MOL0     H31849   6.068   8.245   8.323  1.1267 -3.2364 -1.6034
  236MOL0     H31850   6.258   8.110   8.212 -2.3801 -1.2308  1.5224
  236MOL0     H31851   6.314   8.267   8.289  0.6666 -0.5056  0.5500
  236MOL0     H31852   6.500   8.148   8.155 -1.5987  1.5085  0.2400
  236MOL0     H31853   6.480   8.021   8.285  0.0608  0.8217  1.8195
  236MOL0     H31854   6.503   8.206   8.462  0.1874  1.0093  0.3603
  236MOL0     H31855   6.559   8.308   8.330 -0.9617 -0.9546 -0.4934
  236MOL0     H31856   6.693   8.053   8.424  1.8454 -0.3006  0.5014
  236MOL0     H31857   6.742   8.214   8.455  0.3159 -0.4176  0.1934
  236MOL0     H31858   6.921   8.165   8.075  0.4976  1.6809  0.2592
  236MOL0     H31859   6.232   8.001   8.624  0.2692  1.6646 -0.5721
  236MOL0     H31860   5.997   7.975   8.732  0.6524 -1.5898 -0.9769
  237MOL0     O31861   8.915   8.891   6.976  0.5022  0.4398 -0.3375
  237MOL0     C31862   8.985   8.797   7.009 -0.9278 -0.0520 -1.0961
  237MOL0     O31863   8.949   8.663   7.029  0.4050 -0.2786  0.2013
  237MOL0     C31864   8.814   8.636   7.043 -0.2513 -0.7344 -0.7225
  237MOL0     C31865   8.712   8.683   6.961  0.0283 -0.6152 -0.1481
  237MOL0     C31866   8.579   8.641   6.975  0.1365 -0.1323  0.4917
  237MOL0     C31867   8.534   8.543   7.065 -0.2113 -0.3907  0.4160
  237MOL0     O31868   8.397   8.521   7.081  0.2128  0.7623  0.0539
  237MOL0     C31869   8.359   8.539   7.222  0.0515  1.2204 -0.4251
  237MOL0     C31870   8.204   8.564   7.224 -0.3983  0.6338  0.5139
  237MOL0     C31871   8.160   8.696   7.141  0.4035 -0.2348  0.1036
  237MOL0     C31872   8.002   8.713   7.133 -0.0156  0.2151 -0.0322
  237MOL0     C31873   7.949   8.847   7.071  0.1268  0.2948 -0.0016
  237MOL0     C31874   7.799   8.859   7.042  0.4189 -0.1558 -0.0181
  237MOL0     C31875   7.711   8.816   7.156 -0.1693 -0.2028  0.2953
  237MOL0     C31876   7.562   8.858   7.125 -0.0736 -0.5805 -0.0719
  237MOL0     N31877   7.459   8.763   7.179 -0.0212 -0.5920  0.5649
  237MOL0     C31878   7.445   8.717   7.305  0.4404  0.0120  0.8802
  237MOL0     C31879   7.332   8.653   7.297 -0.2978  0.2332  0.0160
  237MOL0     C31880   7.255   8.563   7.404  0.0947 -0.7368  0.0355
  237MOL0     C31881   7.188   8.664   7.499  1.0530  0.0068  0.1763
  237MOL0     C31882   7.107   8.600   7.612  0.4333  0.2589  0.0017
  237MOL0     C31883   7.015   8.696   7.684 -0.5526 -0.0387 -0.3843
  237MOL0     O31884   7.017   8.667   7.819 -0.3159  0.4416 -0.2923
  237MOL0     C31885   6.888   8.690   7.870  0.4466 -0.7986 -0.5831
  237MOL0     C31886   6.829   8.591   7.944  0.0580 -0.7172  0.6671
  237MOL0     C31887   6.710   8.608   8.016 -0.5499 -0.5109  0.9060
  237MOL0     C31888   6.675   8.502   8.115 -0.6769  0.2531 -0.5526
  237MOL0     C31889   6.633   8.718   7.991 -0.4776 -0.5541  0.1816
  237MOL0     C31890   6.495   8.734   8.050 -0.0088 -0.5869  0.4112
  237MOL0     O31891   6.428   8.636   8.117 -0.3474  0.0490  0.0773
  237MOL0     C31892   6.322   8.658   8.208  1.1562 -0.7545  0.9382
  237MOL0     C31893   6.298   8.781   8.281 -0.6101  0.4577 -0.3515
  237MOL0     C31894   6.183   8.793   8.355  0.4936 -0.4250  0.9446
  237MOL0     C31895   6.079   8.697   8.355  0.1890  0.0368 -0.1983
  237MOL0     O31896   5.984   8.711   8.450  0.5681  0.2158  0.3563
  237MOL0     C31897   5.892   8.607   8.481  0.2922 -0.1859 -0.1616
  237MOL0     C31898   5.782   8.645   8.585 -0.1669 -1.0200 -0.2348
  237MOL0     C31899   5.729   8.530   8.656  0.1882  0.5137  0.1521
  237MOL0     C31900   5.629   8.566   8.770 -0.7523 -0.0864  1.0799
  237MOL0     C31901   5.574   8.454   8.850  0.0215 -0.2148 -0.8506
  237MOL0     C31902   5.481   8.502   8.959  0.5735  0.7523  0.4189
  237MOL0     C31903   5.536   8.617   9.044 -0.1581  0.8206 -0.4788
  237MOL0     C31904   5.467   8.635   9.169  0.2358 -0.1982  0.3978
  237MOL0    Cl31905   5.302   8.705   9.142 -0.2052  0.4901 -0.6640
  237MOL0     C31906   6.108   8.575   8.285  0.1676 -0.0351 -0.1324
  237MOL0     C31907   6.224   8.559   8.213 -0.2967  0.2982  0.1551
  237MOL0     O31908   6.455   8.851   8.047  0.3420 -0.6387 -0.1818
  237MOL0     C31909   6.689   8.818   7.902  0.5666 -0.4703 -1.0583
  237MOL0     C31910   6.818   8.812   7.847  0.7388  0.2967  0.1150
  237MOL0     N31911   7.284   8.656   7.168 -0.4527 -0.0418  0.4278
  237MOL0     N31912   7.369   8.712   7.091 -0.9396  0.3007 -0.6273
  237MOL0     C31913   8.636   8.493   7.146 -0.1275 -0.6996 -0.6008
  237MOL0     C31914   8.771   8.536   7.136  0.1955  0.0377 -0.3038
  237MOL0     C31915   9.130   8.806   6.983  0.0561 -0.3858  0.0161
  237MOL0     C31916   9.192   8.915   6.916 -0.0294  1.2161 -0.3671
  237MOL0     C31917   9.331   8.927   6.904 -0.5175  0.9831  0.7448
  237MOL0     C31918   9.416   8.831   6.956 -0.5229  0.3588  0.9094
  237MOL0     O31919   9.551   8.830   6.947  0.1389 -0.0140 -0.1939
  237MOL0     C31920   9.619   8.895   6.845 -0.2622  0.3256  0.8148
  237MOL0     C31921   9.605   8.845   6.696 -1.3812  0.5067 -0.5408
  237MOL0     C31922   9.672   8.711   6.676  0.2064  0.5303  0.6250
  237MOL0     C31923   9.710   8.680   6.532  0.3032 -0.4834 -0.1073
  237MOL0     C31924   9.834   8.735   6.478 -0.7690 -0.5012 -1.1297
  237MOL0     C31925   9.927   8.801   6.434 -0.2935  0.2643  0.1127
  237MOL0     C31926   9.359   8.728   7.030  0.0887 -0.2687 -0.4432
  237MOL0     C31927   9.220   8.709   7.042  0.6336  0.2164 -0.4247
  237MOL0     H31928   8.735   8.744   6.874  0.5322 -2.3170 -1.2640
  237MOL0     H31929   8.508   8.697   6.914  0.7429 -1.9658 -2.0905
  237MOL0     H31930   8.385   8.447   7.275 -2.4068  1.4474  1.3118
  237MOL0     H31931   8.411   8.621   7.273 -1.3237  1.2843  0.9431
  237MOL0     H31932   8.172   8.473   7.174  1.2592  0.3349 -0.0589
  237MOL0     H31933   8.176   8.568   7.330  1.6372 -0.2221  1.1428
  237MOL0     H31934   8.195   8.789   7.186 -0.5505  0.6838 -0.9967
  237MOL0     H31935   8.198   8.695   7.038  0.8952  1.1936  0.2481
  237MOL0     H31936   7.965   8.622   7.083 -0.6181  0.8626 -0.7948
  237MOL0     H31937   7.968   8.714   7.237 -0.8423  0.5961 -0.2940
  237MOL0     H31938   7.972   8.921   7.149 -0.0510  1.2623 -0.8392
  237MOL0     H31939   8.009   8.886   6.988 -0.0679  1.4629  0.3790
  237MOL0     H31940   7.786   8.967   7.039  3.0265  0.2382  0.4532
  237MOL0     H31941   7.766   8.806   6.953 -1.7891 -1.8628  1.6855
  237MOL0     H31942   7.703   8.708   7.177 -1.9274  0.3801  3.3177
  237MOL0     H31943   7.749   8.859   7.249  0.6220  2.5561 -1.1912
  237MOL0     H31944   7.554   8.881   7.018  0.8916 -0.4231 -0.1120
  237MOL0     H31945   7.546   8.953   7.176 -0.4641 -1.1353  0.8602
  237MOL0     H31946   7.517   8.733   7.385  1.5329  0.1982 -0.1057
  237MOL0     H31947   7.175   8.504   7.357 -0.3406  0.3504 -0.6098
  237MOL0     H31948   7.311   8.491   7.465  1.1833 -0.5573 -0.7224
  237MOL0     H31949   7.124   8.733   7.444  1.9486  0.3370 -0.4901
  237MOL0     H31950   7.262   8.731   7.545 -0.2655  1.3617  0.3954
  237MOL0     H31951   7.181   8.557   7.681  1.1956  2.2841  0.5090
  237MOL0     H31952   7.043   8.520   7.573 -0.5717  0.9207  0.2876
  237MOL0     H31953   6.915   8.680   7.641  0.1247 -1.9200 -1.4010
  237MOL0     H31954   7.047   8.800   7.672 -1.4185  0.1239 -1.4976
  237MOL0     H31955   6.897   8.507   7.951  2.6531  1.0922 -0.9125
  237MOL0     H31956   6.673   8.555   8.210  0.0820  0.1287 -0.4606
  237MOL0     H31957   6.576   8.455   8.109 -0.0501 -0.9772 -1.7897
  237MOL0     H31958   6.747   8.420   8.115 -1.2522 -0.2872 -1.8633
  237MOL0     H31959   6.370   8.863   8.279  0.5048 -0.4157  1.5244
  237MOL0     H31960   6.176   8.891   8.401  2.8359 -0.6409  1.8806
  237MOL0     H31961   5.840   8.558   8.398 -1.9714  0.0898  1.0018
  237MOL0     H31962   5.946   8.528   8.534 -0.3927 -0.1596  0.5964
  237MOL0     H31963   5.829   8.713   8.657 -0.9203  0.7942 -1.3827
  237MOL0     H31964   5.698   8.699   8.542 -1.2411 -2.2438  0.2528
  237MOL0     H31965   5.801   8.473   8.716 -0.4152 -0.0906  0.3217
  237MOL0     H31966   5.682   8.462   8.584  1.1499  0.3211 -0.3132
  237MOL0     H31967   5.682   8.641   8.830 -0.9750  2.8069 -2.0646
  237MOL0     H31968   5.544   8.625   8.732 -0.6759 -1.0204 -0.6384
  237MOL0     H31969   5.659   8.404   8.897 -2.3627 -3.4163  0.4831
  237MOL0     H31970   5.529   8.378   8.786  1.3654  0.3115 -2.4886
  237MOL0     H31971   5.378   8.525   8.929  0.5535  2.9465  1.9631
  237MOL0     H31972   5.476   8.413   9.022  2.4916  0.1698 -0.1767
  237MOL0     H31973   5.541   8.715   8.997 -2.0106  2.3167  2.1611
  237MOL0     H31974   5.632   8.580   9.082  1.4943  1.2740 -3.8516
  237MOL0     H31975   5.527   8.709   9.223  1.0011  0.6067 -1.4462
  237MOL0     H31976   5.465   8.541   9.225  0.6502 -1.1291 -1.0947
  237MOL0     H31977   6.041   8.490   8.286 -1.4507  1.1482  2.1844
  237MOL0     H31978   6.237   8.465   8.161 -0.6383 -0.3888  1.2952
  237MOL0     H31979   6.624   8.904   7.894  0.0084 -1.0122 -2.7535
  237MOL0     H31980   6.853   8.887   7.777  2.2736  0.3605  0.9025
  237MOL0     H31981   8.614   8.420   7.223  0.0132 -2.2272 -1.9637
  237MOL0     H31982   8.844   8.491   7.202 -0.5243 -2.1437 -0.9094
  237MOL0     H31983   9.128   8.994   6.878 -2.9068  0.1618  1.8624
  237MOL0     H31984   9.363   9.010   6.842 -1.1838 -0.7030 -2.0373
  237MOL0     H31985   9.600   9.002   6.840 -2.7800  0.0044  1.7552
  237MOL0     H31986   9.720   8.890   6.884  0.0460 -2.3297 -0.1118
  237MOL0     H31987   9.642   8.925   6.632 -0.1949  2.0696  1.9605
  237MOL0     H31988   9.496   8.844   6.682 -1.1376 -0.5538 -2.8606
  237MOL0     H31989   9.602   8.635   6.710  0.9212  0.2816  1.6076
  237MOL0     H31990   9.762   8.704   6.738  1.2012 -2.8542 -1.0018
  237MOL0     H31991   9.627   8.710   6.468 -0.9748 -3.0623  0.2492
  237MOL0     H31992   9.710   8.571   6.524 -0.7528 -0.4908 -0.0869
  237MOL0     H31993  10.011   8.833   6.375  1.1070  0.9482  2.3468
  237MOL0     H31994   9.427   8.660   7.081  0.0586  0.6835  0.9293
  237MOL0     H31995   9.190   8.618   7.093  2.1143 -1.9915 -3.2538
  238MOL0     O31996  10.272   7.948   0.772  0.2627  0.3360 -0.1155
  238MOL0     C31997  10.379   7.984   0.812  1.0468 -0.7679  0.2475
  238MOL0     O31998  10.430   7.966   0.941 -0.3888 -0.9118 -0.2273
  238MOL0     C31999  10.351   7.892   1.026 -0.0534 -0.1024  0.3908
  238MOL0     C32000  10.270   7.777   0.998  0.0256 -0.0181 -0.0914
  238MOL0     C32001  10.209   7.710   1.107  0.5700  0.0773  0.2603
  238MOL0     C32002  10.219   7.746   1.239  0.2927  0.1220 -0.3101
  238MOL0     O32003  10.145   7.688   1.343 -0.6807  0.9173 -0.0659
  238MOL0     C32004  10.140   7.752   1.460  0.5254 -0.1168 -0.0140
  238MOL0     C32005  10.048   7.671   1.554 -0.4106 -0.5133  0.4233
  238MOL0     C32006  10.037   7.744   1.687  0.3000  0.4490  0.0660
  238MOL0     C32007   9.972   7.665   1.801  0.5712 -0.6169 -0.1654
  238MOL0     C32008   9.976   7.756   1.926  0.7806 -0.6189  0.2949
  238MOL0     C32009   9.914   7.678   2.046  0.1971 -0.1031  0.0754
  238MOL0     C32010   9.910   7.760   2.177 -0.2144  0.2919 -0.0095
  238MOL0     C32011   9.785   7.851   2.189  0.8294  0.1958 -0.3204
  238MOL0     N32012   9.667   7.774   2.212  0.0432 -0.2647  0.8560
  238MOL0     C32013   9.643   7.703   2.325  0.9529 -0.2359 -0.4466
  238MOL0     C32014   9.512   7.669   2.321  0.9822 -0.3873  0.6415
  238MOL0     C32015   9.429   7.609   2.425 -0.8591 -0.2404 -1.0605
  238MOL0     C32016   9.284   7.656   2.453 -0.6605 -0.9572 -0.1231
  238MOL0     C32017   9.190   7.591   2.353 -0.4909 -0.2503 -0.5320
  238MOL0     C32018   9.040   7.611   2.369 -1.3709  0.7485  0.0004
  238MOL0     O32019   8.990   7.546   2.490  0.3784  0.2963  0.8679
  238MOL0     C32020   8.863   7.565   2.536  0.0993  0.0637 -0.0271
  238MOL0     C32021   8.776   7.657   2.478 -0.1919  0.3999  0.4321
  238MOL0     C32022   8.640   7.654   2.504 -0.6210 -0.4027 -0.7290
  238MOL0     C32023   8.557   7.757   2.428  0.7874  0.4123 -0.2046
  238MOL0     C32024   8.587   7.552   2.594  0.8166 -1.0526  1.6579
  238MOL0     C32025   8.446   7.526   2.601  0.1952  0.2260 -0.6092
  238MOL0     O32026   8.416   7.418   2.681 -0.4448 -1.5244 -0.7659
  238MOL0     C32027   8.291   7.421   2.746  0.2300  0.2311  0.9011
  238MOL0     C32028   8.240   7.530   2.813 -0.5658 -0.4377  0.6447
  238MOL0     C32029   8.113   7.528   2.861  1.1424 -0.6714 -0.2562
  238MOL0     C32030   8.029   7.414   2.843 -0.1306 -0.2510  0.1928
  238MOL0     O32031   7.897   7.417   2.889  0.2736  0.5948 -0.0289
  238MOL0     C32032   7.817   7.518   2.839  0.6203  0.5300  0.1333
  238MOL0     C32033   7.682   7.489   2.904 -0.4751  0.2651  0.0292
  238MOL0     C32034   7.592   7.608   2.869 -0.1651 -1.2882  0.2436
  238MOL0     C32035   7.451   7.601   2.926 -0.4610 -0.1280  0.3641
  238MOL0     C32036   7.423   7.690   3.051  0.0799  0.0987  0.0286
  238MOL0     C32037   7.284   7.652   3.095  0.7047  0.2611  0.1804
  238MOL0     C32038   7.258   7.707   3.231 -0.0783 -0.4249  0.4391
  238MOL0     C32039   7.107   7.705   3.263 -0.1269 -0.3142 -0.0169
  238MOL0    Cl32040   7.007   7.777   3.143  0.1556 -0.0674 -0.1788
  238MOL0     C32041   8.081   7.306   2.768 -0.0437 -0.5819 -0.2521
  238MOL0     C32042   8.210   7.306   2.729 -0.2535  0.2179 -0.7323
  238MOL0     O32043   8.368   7.595   2.537 -0.6441  0.6887 -0.0941
  238MOL0     C32044   8.676   7.471   2.660  0.3511  0.3574  1.0013
  238MOL0     C32045   8.813   7.473   2.627 -0.2059 -0.6058  0.8247
  238MOL0     N32046   9.463   7.710   2.197  0.7053  0.5676 -0.4604
  238MOL0     N32047   9.557   7.766   2.130  0.3387  0.2770 -0.1111
  238MOL0     C32048  10.310   7.858   1.257  0.4341 -0.1286  0.4061
  238MOL0     C32049  10.370   7.932   1.154  0.3562 -0.3984 -0.8244
  238MOL0     C32050  10.468   8.040   0.705  0.9918  0.1842  0.8390
  238MOL0     C32051  10.601   8.064   0.734 -0.0668  0.0580  0.9061
  238MOL0     C32052  10.685   8.123   0.640  0.0597 -0.2323 -1.2224
  238MOL0     C32053  10.634   8.148   0.510  0.1201 -0.0907 -0.3694
  238MOL0     O32054  10.709   8.213   0.414 -0.5688 -0.4683 -0.1957
  238MOL0     C32055  10.854   8.221   0.432 -0.0690  0.3751  0.1206
  238MOL0     C32056  10.942   8.250   0.315 -0.8153 -0.2378 -0.1072
  238MOL0     C32057  10.903   8.162   0.193  0.5157 -0.4647  0.4064
  238MOL0     C32058  10.952   8.214   0.055 -0.1401  0.1120  0.1495
  238MOL0     C32059  11.099   8.236   0.054 -0.9121 -0.5356  0.8105
  238MOL0     C32060  11.215   8.276   0.074 -0.0832  0.5376  0.2660
  238MOL0     C32061  10.502   8.130   0.485  0.9276  0.3632 -0.0374
  238MOL0     C32062  10.415   8.076   0.579  0.2296 -0.0660  0.4654
  238MOL0     H32063  10.260   7.729   0.901 -0.7569 -2.3662  1.1043
  238MOL0     H32064  10.153   7.619   1.088  0.8628 -0.0261 -0.1290
  238MOL0     H32065  10.242   7.758   1.501  1.1429  1.1686 -1.6231
  238MOL0     H32066  10.098   7.852   1.442 -1.8562 -1.3659 -2.0184
  238MOL0     H32067   9.948   7.662   1.510 -0.9115  0.1756  1.3868
  238MOL0     H32068  10.087   7.572   1.579 -1.1354  0.0173  4.1660
  238MOL0     H32069  10.138   7.780   1.711 -0.5190  3.2674 -0.3857
  238MOL0     H32070   9.974   7.833   1.679 -2.3325 -1.1866  1.1675
  238MOL0     H32071   9.868   7.644   1.776 -0.2471  0.7387  1.8236
  238MOL0     H32072  10.024   7.568   1.807 -1.8759 -2.2592 -3.0809
  238MOL0     H32073  10.078   7.787   1.948  1.3539 -0.6484 -2.0680
  238MOL0     H32074   9.910   7.841   1.907  3.5914  1.5995 -0.2513
  238MOL0     H32075   9.816   7.641   2.013  0.1663 -0.1642  0.2319
  238MOL0     H32076   9.969   7.584   2.059 -3.8424 -2.5582  1.5380
  238MOL0     H32077   9.904   7.692   2.262  0.3871  0.3873  0.1152
  238MOL0     H32078  10.006   7.812   2.183 -1.0659  1.8222  1.0253
  238MOL0     H32079   9.766   7.918   2.104  0.6415 -1.5991 -1.7764
  238MOL0     H32080   9.798   7.921   2.272 -0.8843  2.0903 -1.5362
  238MOL0     H32081   9.708   7.677   2.408  0.3009  0.1488  0.1985
  238MOL0     H32082   9.430   7.499   2.422 -0.5643 -0.3725  1.4213
  238MOL0     H32083   9.486   7.626   2.517 -0.0001  2.4801 -1.9894
  238MOL0     H32084   9.275   7.765   2.446 -0.6573 -1.0270 -1.3384
  238MOL0     H32085   9.250   7.638   2.556 -2.4970  1.9139 -0.0937
  238MOL0     H32086   9.205   7.482   2.349  0.0994 -0.1386 -2.9516
  238MOL0     H32087   9.207   7.629   2.252  0.0445 -1.0781 -0.7665
  238MOL0     H32088   8.987   7.561   2.288 -1.3112 -3.7481  2.4117
  238MOL0     H32089   9.029   7.719   2.379  4.4574  1.7757 -1.2154
  238MOL0     H32090   8.801   7.734   2.406 -1.7719  0.4747 -0.0530
  238MOL0     H32091   8.621   7.831   2.379  0.0664  1.1952  0.0247
  238MOL0     H32092   8.495   7.710   2.350 -0.0264  1.9658 -0.5188
  238MOL0     H32093   8.491   7.808   2.498  0.7837 -1.1918  1.0283
  238MOL0     H32094   8.298   7.620   2.827 -0.3305 -0.7551  1.8977
  238MOL0     H32095   8.061   7.610   2.908 -1.6127 -1.2443 -2.0767
  238MOL0     H32096   7.862   7.613   2.871 -0.8120  0.4612  2.6812
  238MOL0     H32097   7.805   7.517   2.731  1.2111  4.0703 -0.0834
  238MOL0     H32098   7.644   7.405   2.845  4.0453 -0.5647 -2.1390
  238MOL0     H32099   7.697   7.470   3.011 -1.0709  2.0574  0.4625
  238MOL0     H32100   7.583   7.628   2.762  0.8151  3.8279  0.8453
  238MOL0     H32101   7.648   7.694   2.910 -0.8422 -1.4591  1.5976
  238MOL0     H32102   7.374   7.628   2.853  1.0016  0.0833 -1.1742
  238MOL0     H32103   7.440   7.494   2.944 -2.2282  0.0246  0.3537
  238MOL0     H32104   7.438   7.798   3.049 -0.4626  0.2581  2.1246
  238MOL0     H32105   7.501   7.660   3.123  0.7339  2.2129  0.2724
  238MOL0     H32106   7.209   7.683   3.023  0.9251  0.1086 -0.1169
  238MOL0     H32107   7.255   7.547   3.092 -0.8393  0.6990 -0.8412
  238MOL0     H32108   7.281   7.813   3.222  2.3940 -1.0441 -1.7734
  238MOL0     H32109   7.318   7.665   3.313  1.6236  1.1339  0.0419
  238MOL0     H32110   7.084   7.759   3.356 -0.5580  2.1008 -1.4429
  238MOL0     H32111   7.069   7.602   3.274 -0.3500 -0.0217  2.7340
  238MOL0     H32112   8.026   7.215   2.746  1.2437 -1.6349  0.7450
  238MOL0     H32113   8.244   7.208   2.697  0.0012  0.5314 -1.4552
  238MOL0     H32114   8.650   7.385   2.722 -0.8135  0.9231  1.3359
  238MOL0     H32115   8.880   7.400   2.672  0.0496 -0.6698  0.3496
  238MOL0     H32116  10.337   7.908   1.349 -0.8334 -0.7873  1.1489
  238MOL0     H32117  10.438   8.010   1.186  0.2765 -0.6312 -0.0610
  238MOL0     H32118  10.637   8.032   0.831  0.2417 -0.6266  0.5737
  238MOL0     H32119  10.786   8.141   0.674 -0.2795  1.0692 -0.8446
  238MOL0     H32120  10.880   8.296   0.508 -1.4525 -0.2629  1.2579
  238MOL0     H32121  10.890   8.125   0.471 -2.6881 -1.6625 -2.1149
  238MOL0     H32122  11.041   8.217   0.349 -2.2540 -3.8524  1.1294
  238MOL0     H32123  10.945   8.355   0.288 -1.2469 -0.3716 -0.6951
  238MOL0     H32124  10.794   8.156   0.195  0.6002 -2.5312  1.1625
  238MOL0     H32125  10.941   8.060   0.210 -0.5674 -1.0242 -0.4064
  238MOL0     H32126  10.895   8.305   0.034  1.5512  0.8279 -1.7436
  238MOL0     H32127  10.923   8.144  -0.024  3.3301  0.0363 -1.2636
  238MOL0     H32128  11.318   8.300   0.088 -0.1080 -0.5822  3.2366
  238MOL0     H32129  10.467   8.157   0.386 -0.4491 -0.5007  0.1796
  238MOL0     H32130  10.308   8.075   0.563 -0.4395 -1.6218  4.1076
  239MOL0     O32131   8.525   5.170   1.540  0.2847  0.4839  0.0652
  239MOL0     C32132   8.584   5.200   1.440  0.8434 -0.2903 -0.0139
  239MOL0     O32133   8.526   5.197   1.311  0.0926  0.8798  0.2224
  239MOL0     C32134   8.422   5.107   1.287  0.0286 -0.4154  1.1285
  239MOL0     C32135   8.344   5.134   1.169  0.1118 -0.5693 -0.9352
  239MOL0     C32136   8.243   5.056   1.137  0.7015  0.1284  1.2204
  239MOL0     C32137   8.213   4.935   1.201  0.2815 -0.2174  0.1826
  239MOL0     O32138   8.097   4.871   1.159 -0.3787  0.2533 -0.2273
  239MOL0     C32139   8.063   4.743   1.211 -0.5237  1.2992 -0.8397
  239MOL0     C32140   7.926   4.703   1.166 -1.1453 -0.1335  0.0854
  239MOL0     C32141   7.913   4.552   1.148  0.1187  0.4617  0.0944
  239MOL0     C32142   7.777   4.526   1.079 -0.4083  0.6689 -0.6576
  239MOL0     C32143   7.759   4.386   1.014  0.2033 -0.1815 -0.1465
  239MOL0     C32144   7.802   4.263   1.095  0.1404  0.1619  0.0141
  239MOL0     C32145   7.741   4.132   1.030  0.4424 -0.0139 -0.8343
  239MOL0     C32146   7.741   4.005   1.123  0.2287 -0.3110 -0.8998
  239MOL0     N32147   7.697   3.885   1.055 -0.2215 -0.5836 -0.5115
  239MOL0     C32148   7.581   3.869   0.985 -0.3267 -0.3750  1.6276
  239MOL0     C32149   7.585   3.734   0.941 -0.5621 -0.9853  0.1484
  239MOL0     C32150   7.483   3.651   0.864 -0.2178  0.7654 -0.1309
  239MOL0     C32151   7.466   3.710   0.722 -0.3746  0.0578 -0.6012
  239MOL0     C32152   7.327   3.695   0.660  0.3249  0.0848  0.9359
  239MOL0     C32153   7.247   3.823   0.700 -0.3231  1.2712  0.4082
  239MOL0     O32154   7.211   3.822   0.839  0.0256 -0.9015  0.1473
  239MOL0     C32155   7.101   3.892   0.892  0.2528  0.1979  0.3264
  239MOL0     C32156   7.017   3.977   0.811  0.2562  0.0615  0.5937
  239MOL0     C32157   6.894   4.027   0.865 -0.2475  0.4086 -0.5804
  239MOL0     C32158   6.808   4.093   0.756  1.1718  0.4680  0.0628
  239MOL0     C32159   6.867   4.016   0.999  0.0996 -0.8066 -0.3118
  239MOL0     C32160   6.744   4.076   1.074 -0.6427 -0.1230 -0.0510
  239MOL0     O32161   6.737   4.069   1.208  0.6124  0.2911 -0.0808
  239MOL0     C32162   6.619   4.115   1.265 -0.4036  1.3583  0.5389
  239MOL0     C32163   6.626   4.203   1.372 -0.4547 -0.8287  0.9302
  239MOL0     C32164   6.513   4.230   1.443 -0.4047 -0.4975  0.7527
  239MOL0     C32165   6.391   4.174   1.408  0.1171  0.0812 -0.4160
  239MOL0     O32166   6.277   4.190   1.489  0.2321  0.2194 -0.0128
  239MOL0     C32167   6.148   4.201   1.426 -0.1575 -0.1880  0.4815
  239MOL0     C32168   6.052   4.252   1.532  0.1732 -0.5992  0.1027
  239MOL0     C32169   5.906   4.261   1.488 -0.5662  0.0724 -0.0431
  239MOL0     C32170   5.808   4.258   1.606  0.5859  0.3514  0.0860
  239MOL0     C32171   5.657   4.287   1.579 -0.3377 -0.9868 -0.1461
  239MOL0     C32172   5.591   4.218   1.457 -0.2995 -0.4312  0.2741
  239MOL0     C32173   5.445   4.241   1.456 -0.2208  0.0400  0.0182
  239MOL0     C32174   5.400   4.200   1.315 -0.3292  0.0743 -0.4728
  239MOL0    Cl32175   5.218   4.199   1.302  0.7375  0.0574  0.4985
  239MOL0     C32176   6.379   4.079   1.310 -0.7869  0.6934  0.5700
  239MOL0     C32177   6.496   4.053   1.236  0.6678  0.0037 -0.1105
  239MOL0     O32178   6.653   4.116   0.996 -0.1512 -0.2344  0.4070
  239MOL0     C32179   6.964   3.950   1.084 -0.2825  0.4388  0.2692
  239MOL0     C32180   7.069   3.879   1.024  0.2067  0.1395  0.1510
  239MOL0     N32181   7.718   3.693   0.949  0.0395 -0.5818 -0.0026
  239MOL0     N32182   7.777   3.779   1.025 -0.4332  0.2479 -0.2698
  239MOL0     C32183   8.299   4.899   1.307  0.0747 -0.0358 -0.1793
  239MOL0     C32184   8.390   4.990   1.358  0.6113  0.3940 -0.5741
  239MOL0     C32185   8.731   5.227   1.455 -0.0106  0.3700  0.3018
  239MOL0     C32186   8.800   5.194   1.573  1.1810  1.9075  0.2387
  239MOL0     C32187   8.936   5.199   1.584 -0.5274  0.1538 -0.7339
  239MOL0     C32188   9.012   5.240   1.474 -0.4502  0.1111 -0.3914
  239MOL0     O32189   9.143   5.224   1.484 -0.4607 -0.9796 -0.1437
  239MOL0     C32190   9.230   5.264   1.380 -0.0903  0.9563  0.9267
  239MOL0     C32191   9.369   5.200   1.412 -0.1661 -0.8363  0.5395
  239MOL0     C32192   9.453   5.210   1.274  0.8244  0.3307  0.0135
  239MOL0     C32193   9.586   5.144   1.273 -0.2022  0.1257  0.1037
  239MOL0     C32194   9.584   5.001   1.292 -0.5488  0.4331  0.4967
  239MOL0     C32195   9.569   4.882   1.286 -0.0173 -0.0332  0.5593
  239MOL0     C32196   8.949   5.294   1.362 -0.0616  0.6358  1.1186
  239MOL0     C32197   8.810   5.272   1.346 -0.6139 -0.3639  0.1139
  239MOL0     H32198   8.354   5.228   1.116 -1.8303 -0.9533 -2.0645
  239MOL0     H32199   8.184   5.074   1.047 -1.1930 -1.9943  1.9351
  239MOL0     H32200   8.133   4.672   1.166 -0.1426  0.8749  0.3863
  239MOL0     H32201   8.066   4.741   1.320 -1.5725  1.2444 -0.8076
  239MOL0     H32202   7.863   4.739   1.249  2.3925 -0.8640  3.4080
  239MOL0     H32203   7.895   4.752   1.073  0.1900  1.4024  0.3958
  239MOL0     H32204   7.991   4.520   1.078 -1.1361 -1.3652 -0.5326
  239MOL0     H32205   7.916   4.497   1.243 -1.8417  0.4124  0.1661
  239MOL0     H32206   7.701   4.541   1.156 -1.6422 -2.3863 -1.1447
  239MOL0     H32207   7.762   4.596   0.997 -1.8732  0.5476 -0.5216
  239MOL0     H32208   7.650   4.387   1.009  0.2048 -0.8957 -0.5200
  239MOL0     H32209   7.798   4.388   0.912 -2.3628  0.3459 -1.1739
  239MOL0     H32210   7.908   4.238   1.098  0.0205 -0.2275  2.7444
  239MOL0     H32211   7.764   4.280   1.196 -0.3892  0.5519 -0.2454
  239MOL0     H32212   7.634   4.149   1.015  0.8952  1.1009 -3.4352
  239MOL0     H32213   7.786   4.113   0.932  0.6717 -0.9651 -0.5552
  239MOL0     H32214   7.674   4.022   1.209  3.5263  0.3116  1.7465
  239MOL0     H32215   7.844   4.004   1.159 -0.2552  1.8254  0.7748
  239MOL0     H32216   7.501   3.941   0.970  1.0781  1.5622  2.8661
  239MOL0     H32217   7.518   3.547   0.859  1.8332  1.3962 -0.0890
  239MOL0     H32218   7.385   3.654   0.913 -2.0852  1.6844 -3.6181
  239MOL0     H32219   7.540   3.655   0.664  1.2720 -2.0425  3.1511
  239MOL0     H32220   7.480   3.818   0.728 -2.7793  0.3715  0.7341
  239MOL0     H32221   7.274   3.601   0.679 -0.8489  0.7839  1.2676
  239MOL0     H32222   7.344   3.716   0.554  1.0191  4.4891  1.7138
  239MOL0     H32223   7.159   3.820   0.635 -0.9705 -3.3783  1.1418
  239MOL0     H32224   7.305   3.913   0.676 -2.6908  2.6136 -0.5683
  239MOL0     H32225   7.035   3.995   0.706 -0.3233 -0.6358  0.3718
  239MOL0     H32226   6.795   4.196   0.791 -0.8623 -0.5330  2.5622
  239MOL0     H32227   6.848   4.094   0.654 -2.0899 -1.7372 -1.4147
  239MOL0     H32228   6.710   4.046   0.744 -0.3336  2.5911  2.7752
  239MOL0     H32229   6.716   4.258   1.398 -1.7622  1.3695  1.0490
  239MOL0     H32230   6.528   4.285   1.535 -0.7560  1.7548 -0.4793
  239MOL0     H32231   6.156   4.273   1.344  0.9489 -2.7454 -1.7968
  239MOL0     H32232   6.106   4.109   1.386  0.6366 -0.6943  0.7786
  239MOL0     H32233   6.071   4.173   1.605  0.2900 -1.0564 -0.4165
  239MOL0     H32234   6.075   4.356   1.556 -0.5126 -0.3145 -0.4258
  239MOL0     H32235   5.890   4.185   1.410  0.6954 -0.9347  0.6508
  239MOL0     H32236   5.892   4.360   1.443  1.3210 -0.2317 -1.4082
  239MOL0     H32237   5.810   4.155   1.645  1.4741  0.8936  1.5596
  239MOL0     H32238   5.848   4.318   1.689 -1.5742 -1.7639  2.8696
  239MOL0     H32239   5.651   4.396   1.568 -4.1629 -0.6261  3.2633
  239MOL0     H32240   5.596   4.285   1.669  1.1552  0.9002  0.9870
  239MOL0     H32241   5.629   4.244   1.358 -1.5122 -1.2146 -0.4136
  239MOL0     H32242   5.612   4.111   1.471 -2.9591 -0.9017  1.1743
  239MOL0     H32243   5.427   4.349   1.462 -0.6988 -0.0353 -0.0268
  239MOL0     H32244   5.384   4.186   1.528  0.1797  0.3296  0.5828
  239MOL0     H32245   5.432   4.096   1.301 -1.0297 -0.0738 -1.0202
  239MOL0     H32246   5.442   4.260   1.234 -0.6873  2.0516  0.7338
  239MOL0     H32247   6.290   4.023   1.281 -1.0644  2.8964 -3.7233
  239MOL0     H32248   6.484   3.979   1.158 -2.1463  1.5760 -1.2956
  239MOL0     H32249   6.941   3.920   1.186 -0.5966  0.0413  0.0852
  239MOL0     H32250   7.136   3.814   1.079  0.8540  0.5681 -0.1140
  239MOL0     H32251   8.272   4.815   1.370 -1.4293  1.2077  0.8965
  239MOL0     H32252   8.451   4.972   1.446 -2.2114  2.1059  1.9440
  239MOL0     H32253   8.735   5.171   1.656  1.7159 -2.0882 -0.2353
  239MOL0     H32254   8.998   5.170   1.668  0.7841 -0.0071 -1.7281
  239MOL0     H32255   9.190   5.225   1.286  0.3107  2.5661  0.0558
  239MOL0     H32256   9.236   5.373   1.370 -2.1293  1.1082  0.8615
  239MOL0     H32257   9.357   5.094   1.437  1.1587 -1.2395 -0.3869
  239MOL0     H32258   9.412   5.259   1.493  0.3438  0.3960 -0.5808
  239MOL0     H32259   9.453   5.313   1.236  2.2511 -1.0410 -4.2236
  239MOL0     H32260   9.392   5.166   1.195 -0.6832 -0.6566  1.6425
  239MOL0     H32261   9.643   5.184   1.358  1.2112  0.9579 -1.2003
  239MOL0     H32262   9.640   5.160   1.180 -0.0557 -1.0164 -0.0259
  239MOL0     H32263   9.548   4.778   1.272 -1.6508  0.6083 -2.7014
  239MOL0     H32264   9.010   5.335   1.281  1.2384 -1.3496  1.0077
  239MOL0     H32265   8.770   5.299   1.249 -2.0539 -0.8766  0.5391
  240MOL0     O32266   8.323   5.329   9.901 -0.1898 -0.4161  0.5205
  240MOL0     C32267   8.343   5.212   9.865 -0.4620  0.0122  0.0407
  240MOL0     O32268   8.246   5.136   9.815 -0.0015 -0.2961  1.0080
  240MOL0     C32269   8.116   5.142   9.862 -0.2631  0.3542 -0.2663
  240MOL0     C32270   8.060   5.021   9.909  0.3066 -1.5521  0.3007
  240MOL0     C32271   7.927   5.033   9.959 -0.1805 -0.4633 -0.4875
  240MOL0     C32272   7.860   5.156   9.981  0.6932 -0.1842 -0.3992
  240MOL0     O32273   7.744   5.165  10.056 -0.2311 -0.3462  0.0522
  240MOL0     C32274   7.637   5.098   9.993  0.6512  0.2712  0.3123
  240MOL0     C32275   7.505   5.080  10.084 -0.1662  0.5657  0.7180
  240MOL0     C32276   7.381   5.046  10.013 -0.4362  0.7707  0.3536
  240MOL0     C32277   7.261   5.025  10.102 -0.3155 -0.1289 -0.2742
  240MOL0     C32278   7.140   4.962  10.039 -0.2560 -0.1367  0.5948
  240MOL0     C32279   7.049   4.929  10.145 -0.2506 -0.3044  0.8329
  240MOL0     C32280   6.930   4.856  10.082 -0.0415  0.3363  0.3050
  240MOL0     C32281   6.817   4.862  10.172  0.2472  0.7540  0.5372
  240MOL0     N32282   6.687   4.804  10.127  0.2637 -0.8607 -0.3262
  240MOL0     C32283   6.588   4.869  10.059  0.1883 -0.1856  0.5910
  240MOL0     C32284   6.521   4.781   9.994 -0.2134 -0.6676  0.0281
  240MOL0     C32285   6.403   4.827   9.901 -0.1580  0.0400  0.1590
  240MOL0     C32286   6.287   4.729   9.906  0.0902 -0.4230  0.2693
  240MOL0     C32287   6.179   4.768   9.815 -0.0623 -0.4665  0.4216
  240MOL0     C32288   6.074   4.661   9.796  0.4350 -0.4646  0.7538
  240MOL0     O32289   5.959   4.729   9.736  0.3280 -0.4692 -0.3166
  240MOL0     C32290   5.836   4.662   9.741  0.2932 -0.4438  0.4600
  240MOL0     C32291   5.813   4.527   9.778  0.1895 -0.1784 -0.0829
  240MOL0     C32292   5.694   4.458   9.761 -0.6348  0.3224 -1.1696
  240MOL0     C32293   5.697   4.309   9.783 -0.1277  0.6079  0.0970
  240MOL0     C32294   5.586   4.538   9.707  0.1883 -1.1916  0.0070
  240MOL0     C32295   5.459   4.479   9.681 -0.3961  0.1642  0.6135
  240MOL0     O32296   5.391   4.525   9.565 -0.4463  0.3857  0.2922
  240MOL0     C32297   5.265   4.484   9.532 -0.7260 -0.7730 -0.0121
  240MOL0     C32298   5.238   4.349   9.509  0.5318 -0.2185 -0.2833
  240MOL0     C32299   5.111   4.319   9.445 -0.5616 -0.0953  0.1650
  240MOL0     C32300   5.020   4.421   9.431  0.5880 -1.0161  0.1850
  240MOL0     O32301   4.897   4.408   9.373 -0.1583 -0.0729 -0.2639
  240MOL0     C32302   4.853   4.276   9.327  1.4409  1.1824 -0.3028
  240MOL0     C32303   4.719   4.298   9.257 -0.1046  0.3625 -0.2341
  240MOL0     C32304   4.606   4.354   9.347 -0.2526 -0.0907 -0.3934
  240MOL0     C32305   4.470   4.307   9.301  0.2257 -0.1505  0.5824
  240MOL0     C32306   4.365   4.395   9.371 -0.0940  0.4141  0.0022
  240MOL0     C32307   4.223   4.376   9.309 -0.6747  0.7061 -0.4229
  240MOL0     C32308   4.113   4.436   9.404 -0.3251 -0.2012  0.5479
  240MOL0     C32309   3.975   4.420   9.340  0.3622  0.9493  0.3210
  240MOL0    Cl32310   3.856   4.473   9.465 -0.0951  0.0665  0.0309
  240MOL0     C32311   5.047   4.552   9.469  0.1616  1.1685 -0.3473
  240MOL0     C32312   5.172   4.591   9.515  0.3841  0.7700 -0.1417
  240MOL0     O32313   5.411   4.390   9.755 -0.2817 -0.0422 -0.5691
  240MOL0     C32314   5.599   4.676   9.681 -0.8068  0.9036 -0.0682
  240MOL0     C32315   5.725   4.734   9.694  0.1083 -0.2856  0.5757
  240MOL0     N32316   6.575   4.653  10.018  0.8207 -0.2939  1.1096
  240MOL0     N32317   6.678   4.668  10.092 -0.2709 -0.3013  0.0119
  240MOL0     C32318   7.919   5.269   9.925  0.2333 -0.7432 -0.4876
  240MOL0     C32319   8.041   5.262   9.871  0.7566 -0.1955 -0.0969
  240MOL0     C32320   8.480   5.168   9.885 -0.6741 -0.4308 -0.6243
  240MOL0     C32321   8.580   5.250   9.958 -0.1332  0.4108  0.3001
  240MOL0     C32322   8.705   5.205   9.992 -0.2251 -0.5659 -0.2047
  240MOL0     C32323   8.740   5.073   9.962  0.2045  0.6995 -0.2514
  240MOL0     O32324   8.855   5.031  10.013  0.3988 -0.0023 -0.4386
  240MOL0     C32325   8.915   4.926   9.938 -1.0055  0.2248 -0.7133
  240MOL0     C32326   9.061   4.904   9.992  0.3336 -0.5199 -0.2409
  240MOL0     C32327   9.153   4.811   9.930  0.7633  0.7748 -0.5968
  240MOL0     C32328   9.267   4.781  10.029 -0.3193 -0.0512 -0.5420
  240MOL0     C32329   9.373   4.697   9.967 -1.4196  0.3828 -0.3777
  240MOL0     C32330   9.470   4.645   9.916 -0.9507 -0.2811 -0.0271
  240MOL0     C32331   8.650   4.992   9.885  0.1425 -1.0039 -0.8014
  240MOL0     C32332   8.517   5.035   9.854 -0.1800 -0.7999  0.4979
  240MOL0     H32333   8.125   4.934   9.916  3.2635  0.6311  2.3706
  240MOL0     H32334   7.872   4.951  10.004  3.1982 -1.8549  1.5853
  240MOL0     H32335   7.607   5.156   9.905  1.2486 -2.9174 -2.1970
  240MOL0     H32336   7.666   5.001   9.952  0.5902 -0.0149  0.9431
  240MOL0     H32337   7.530   4.993  10.145 -0.8570 -1.5145 -1.7806
  240MOL0     H32338   7.485   5.172  10.139 -1.7886  2.0635 -2.1036
  240MOL0     H32339   7.369   5.128   9.941 -0.8787  0.5501  0.1688
  240MOL0     H32340   7.405   4.954   9.958 -4.0039 -1.2779  1.9447
  240MOL0     H32341   7.279   4.979  10.199 -2.4138  2.7049  1.6287
  240MOL0     H32342   7.238   5.128  10.130 -0.5708 -0.1366 -0.4568
  240MOL0     H32343   7.095   5.037   9.973 -0.6950  1.4245  2.5761
  240MOL0     H32344   7.173   4.876   9.979 -0.2621 -0.3659  0.9208
  240MOL0     H32345   7.105   4.857  10.205  0.6464 -1.1079 -0.8991
  240MOL0     H32346   7.017   5.024  10.190 -1.5235 -0.1645 -0.2807
  240MOL0     H32347   6.896   4.912   9.994  2.7173 -0.2733 -1.2974
  240MOL0     H32348   6.951   4.756  10.044 -3.9952 -0.1014 -1.2431
  240MOL0     H32349   6.800   4.966  10.202 -0.9663  0.7765 -0.1535
  240MOL0     H32350   6.847   4.807  10.262  1.2081 -0.5496 -0.5510
  240MOL0     H32351   6.568   4.974  10.041  3.1551  0.1269 -1.5972
  240MOL0     H32352   6.367   4.925   9.933 -1.7781 -0.4045 -0.2081
  240MOL0     H32353   6.442   4.835   9.799  3.4511  4.0139  1.5261
  240MOL0     H32354   6.250   4.747  10.008 -0.1827  1.9437 -0.2045
  240MOL0     H32355   6.313   4.623   9.893 -2.5293 -0.9139 -1.8534
  240MOL0     H32356   6.221   4.802   9.720 -0.3621  0.2548  0.5430
  240MOL0     H32357   6.127   4.853   9.861  1.3401  1.1494 -0.8563
  240MOL0     H32358   6.048   4.637   9.899 -0.3557  5.3307  2.2791
  240MOL0     H32359   6.106   4.580   9.730  2.0059  0.1800  0.6621
  240MOL0     H32360   5.903   4.473   9.806  0.5719  0.3741 -0.2100
  240MOL0     H32361   5.800   4.272   9.785  1.4915  4.6248  1.6652
  240MOL0     H32362   5.641   4.271   9.869  1.0640 -1.0425  0.1900
  240MOL0     H32363   5.652   4.258   9.697 -1.6657  1.0265  0.6113
  240MOL0     H32364   5.312   4.271   9.525 -0.2406 -0.7862  0.6041
  240MOL0     H32365   5.085   4.220   9.410 -2.1920  0.3157  0.1612
  240MOL0     H32366   4.921   4.236   9.251  0.1305 -1.2924 -0.2573
  240MOL0     H32367   4.840   4.203   9.407 -0.0187  0.0857 -1.4978
  240MOL0     H32368   4.727   4.373   9.177  0.6498  0.5545  0.0096
  240MOL0     H32369   4.684   4.200   9.225  0.0678  0.9629 -2.3988
  240MOL0     H32370   4.603   4.460   9.320  3.1874 -0.3018 -2.2283
  240MOL0     H32371   4.627   4.354   9.455 -1.7936  1.2710 -0.0391
  240MOL0     H32372   4.460   4.326   9.194 -2.1649 -0.8191  0.6238
  240MOL0     H32373   4.447   4.201   9.317 -0.0963 -0.2598 -0.5508
  240MOL0     H32374   4.389   4.502   9.379  0.7672  0.3194 -0.9837
  240MOL0     H32375   4.369   4.363   9.475  1.6809  1.7077  0.3795
  240MOL0     H32376   4.221   4.425   9.211  0.2575 -2.1352 -1.9829
  240MOL0     H32377   4.212   4.270   9.285 -0.7620  0.3168  1.2599
  240MOL0     H32378   4.134   4.543   9.417 -1.1941 -0.1211  1.3688
  240MOL0     H32379   4.107   4.393   9.504 -1.0666  0.6136  0.8688
  240MOL0     H32380   3.960   4.316   9.311 -2.5484  0.9268  1.6056
  240MOL0     H32381   3.965   4.474   9.246 -1.0743 -1.4013 -0.9726
  240MOL0     H32382   4.982   4.636   9.450 -1.2732  0.9015  2.7826
  240MOL0     H32383   5.196   4.696   9.531  0.9619  0.4824  0.9556
  240MOL0     H32384   5.517   4.742   9.657 -0.8267  0.3195 -1.7568
  240MOL0     H32385   5.738   4.837   9.660 -0.7481 -0.0359  0.9685
  240MOL0     H32386   7.869   5.365   9.917 -0.7838 -1.3100 -1.1746
  240MOL0     H32387   8.087   5.355   9.841  0.2949  0.1581  0.2743
  240MOL0     H32388   8.554   5.351   9.987  0.1848 -0.2826  3.4305
  240MOL0     H32389   8.775   5.271  10.042 -2.1875  1.2675  0.2230
  240MOL0     H32390   8.867   4.829   9.954 -0.1804  0.0737  1.0577
  240MOL0     H32391   8.912   4.947   9.831  0.7906  1.3995 -0.5667
  240MOL0     H32392   9.052   4.869  10.095  1.7789 -1.4163 -0.3970
  240MOL0     H32393   9.105   5.004   9.994 -0.0625 -0.3271 -0.8541
  240MOL0     H32394   9.184   4.854   9.834  1.6289  1.5356 -0.0022
  240MOL0     H32395   9.095   4.722   9.905  0.6482  0.7727 -0.3304
  240MOL0     H32396   9.222   4.735  10.117 -3.6136 -1.7295 -2.9227
  240MOL0     H32397   9.308   4.879  10.055 -0.9910  0.3980 -1.1208
  240MOL0     H32398   9.552   4.588   9.878 -0.9813 -0.0588 -0.4384
  240MOL0     H32399   8.679   4.894   9.846 -0.9745 -1.3780 -0.7295
  240MOL0     H32400   8.454   4.968   9.796  0.0047  1.6151 -2.7759
  241MOL0     O32401   4.928   0.505   5.816 -0.3978 -0.7639 -1.0856
  241MOL0     C32402   5.000   0.406   5.824  0.1301 -0.4290 -1.3390
  241MOL0     O32403   4.959   0.286   5.868  0.3662 -0.6359  0.3373
  241MOL0     C32404   4.834   0.260   5.845  0.7773 -0.2852 -0.0399
  241MOL0     C32405   4.767   0.278   5.721  0.0803  0.7871 -0.2856
  241MOL0     C32406   4.640   0.218   5.698 -0.4459  0.2724 -0.3702
  241MOL0     C32407   4.576   0.156   5.805  0.8054 -0.5417 -0.4040
  241MOL0     O32408   4.451   0.097   5.783 -0.0356  0.4905 -0.0354
  241MOL0     C32409   4.338   0.145   5.847  0.7530 -0.3265 -0.2294
  241MOL0     C32410   4.222   0.061   5.795  0.3363  0.5040 -0.8205
  241MOL0     C32411   4.226  -0.093   5.815  0.4811  0.7819  0.3645
  241MOL0     C32412   4.106  -0.188   5.773 -0.6339  0.3133 -0.1398
  241MOL0     C32413   3.970  -0.141   5.827 -0.0983  0.3613  0.1338
  241MOL0     C32414   3.874  -0.244   5.777  0.1804 -0.6466  0.1375
  241MOL0     C32415   3.857  -0.267   5.624 -0.1632 -0.6151 -0.7744
  241MOL0     C32416   3.813  -0.137   5.545 -0.0142  0.2077 -0.8520
  241MOL0     N32417   3.825  -0.153   5.400  0.3728 -0.6126  0.3753
  241MOL0     C32418   3.734  -0.207   5.314  0.8053 -0.3135  0.1319
  241MOL0     C32419   3.786  -0.198   5.190  0.0441  0.1156 -0.0898
  241MOL0     C32420   3.733  -0.259   5.062  0.1659 -0.8298  0.8133
  241MOL0     C32421   3.757  -0.147   4.951 -0.8784 -0.3446 -0.9539
  241MOL0     C32422   3.677  -0.182   4.828 -1.0614  0.1556  1.4264
  241MOL0     C32423   3.695  -0.072   4.717  0.2177 -0.0520  0.6145
  241MOL0     O32424   3.597  -0.088   4.607  0.0485  0.2133  0.1586
  241MOL0     C32425   3.466  -0.050   4.621  0.2221 -0.2293 -0.1885
  241MOL0     C32426   3.422   0.022   4.731  0.7475 -0.5728  0.2705
  241MOL0     C32427   3.289   0.057   4.739  0.8295 -0.2983 -0.8321
  241MOL0     C32428   3.244   0.133   4.864 -0.9951 -0.0177 -0.0671
  241MOL0     C32429   3.192   0.024   4.634 -0.2136 -0.5893 -0.5298
  241MOL0     C32430   3.045   0.059   4.628 -0.3460  0.0837  0.6201
  241MOL0     O32431   2.978   0.047   4.506  0.2573  0.4191  0.0373
  241MOL0     C32432   2.846   0.079   4.498 -0.9533 -1.3296 -0.7807
  241MOL0     C32433   2.758  -0.017   4.450 -0.4018 -0.2057  0.7006
  241MOL0     C32434   2.616   0.012   4.459  0.2495  0.2435 -0.0539
  241MOL0     C32435   2.572   0.147   4.495 -0.1374  0.6947  0.0453
  241MOL0     O32436   2.444   0.173   4.513  0.2656 -0.1668  0.1516
  241MOL0     C32437   2.362   0.163   4.394 -0.7735 -0.2322 -0.7310
  241MOL0     C32438   2.231   0.239   4.381  0.8006 -1.0506 -0.3048
  241MOL0     C32439   2.108   0.164   4.442  0.7137 -0.0407  0.3478
  241MOL0     C32440   1.971   0.236   4.425 -0.0176 -0.1956  0.2609
  241MOL0     C32441   1.952   0.356   4.515  0.0728 -0.5478  0.0561
  241MOL0     C32442   1.808   0.395   4.525 -0.6069  0.5143  0.3830
  241MOL0     C32443   1.792   0.537   4.581  0.0964 -0.1492 -0.5135
  241MOL0     C32444   1.652   0.559   4.636  0.6509  0.0932  0.1415
  241MOL0    Cl32445   1.577   0.701   4.552 -0.3404  0.0369 -0.0946
  241MOL0     C32446   2.661   0.246   4.526  0.7310  0.2366 -0.6643
  241MOL0     C32447   2.793   0.204   4.533  0.0691  0.6290 -0.6727
  241MOL0     O32448   2.987   0.089   4.734 -0.3316  0.2232  0.9323
  241MOL0     C32449   3.243  -0.041   4.516 -0.4709 -0.2673  0.1688
  241MOL0     C32450   3.379  -0.084   4.517  0.8109  0.4517  0.4857
  241MOL0     N32451   3.911  -0.139   5.197 -0.0776 -0.5184 -0.0936
  241MOL0     N32452   3.924  -0.101   5.318  0.3773  0.4703  0.9040
  241MOL0     C32453   4.638   0.155   5.933  0.7756 -0.5081 -0.5119
  241MOL0     C32454   4.767   0.196   5.954 -0.3683  0.6498 -0.7469
  241MOL0     C32455   5.137   0.429   5.809  0.9524 -0.2876  1.2916
  241MOL0     C32456   5.228   0.331   5.850 -0.1180  0.1903  0.1451
  241MOL0     C32457   5.365   0.351   5.853 -0.6392 -0.0661  0.0769
  241MOL0     C32458   5.419   0.472   5.820  0.0521 -0.4113 -1.3873
  241MOL0     O32459   5.559   0.481   5.811  0.1555  0.1847 -0.2109
  241MOL0     C32460   5.631   0.605   5.813  0.1237 -0.0631 -0.2726
  241MOL0     C32461   5.779   0.563   5.810 -0.6026 -0.4372  0.0048
  241MOL0     C32462   5.817   0.487   5.928 -0.2208  0.2302 -0.5316
  241MOL0     C32463   5.946   0.530   5.991 -0.5086  0.7648 -0.3784
  241MOL0     C32464   6.066   0.504   5.910 -0.4819  0.2523 -0.0568
  241MOL0     C32465   6.162   0.457   5.861 -0.6557  0.4957 -0.6321
  241MOL0     C32466   5.326   0.574   5.773 -0.2172 -0.6104 -0.3240
  241MOL0     C32467   5.186   0.555   5.774  0.0924  0.8173 -0.1243
  241MOL0     H32468   4.814   0.340   5.646 -0.9348  0.6281 -1.0802
  241MOL0     H32469   4.613   0.209   5.593 -0.9927  1.4124 -0.3469
  241MOL0     H32470   4.335   0.126   5.954  0.2272 -0.9634 -0.3536
  241MOL0     H32471   4.318   0.252   5.844 -3.6853 -0.9363  0.5963
  241MOL0     H32472   4.142   0.096   5.860  3.7750  0.2789  4.1454
  241MOL0     H32473   4.219   0.082   5.688  5.0060  1.0579 -1.0832
  241MOL0     H32474   4.316  -0.142   5.776 -1.1273 -2.4650  0.3781
  241MOL0     H32475   4.220  -0.111   5.922 -1.5554 -2.9607 -0.2023
  241MOL0     H32476   4.112  -0.178   5.664 -0.0815  0.9755 -0.0505
  241MOL0     H32477   4.121  -0.290   5.809 -3.1711  0.4780  1.6682
  241MOL0     H32478   3.986  -0.141   5.935  1.4906  1.5301 -0.0787
  241MOL0     H32479   3.936  -0.044   5.790  1.1550  1.1162  0.8916
  241MOL0     H32480   3.916  -0.339   5.812  1.3385  0.3296  1.5155
  241MOL0     H32481   3.778  -0.223   5.823 -0.2407  2.3637 -1.8373
  241MOL0     H32482   3.946  -0.314   5.581  0.5055 -1.0814  1.0202
  241MOL0     H32483   3.776  -0.340   5.612  0.2447 -1.1000 -0.6246
  241MOL0     H32484   3.882  -0.055   5.564 -0.0539  0.2812 -1.0196
  241MOL0     H32485   3.706  -0.115   5.558  0.6915  3.2660  0.7724
  241MOL0     H32486   3.656  -0.282   5.329  0.6021 -1.0598 -3.6463
  241MOL0     H32487   3.799  -0.343   5.037 -1.7540 -1.8037 -1.3934
  241MOL0     H32488   3.626  -0.278   5.073 -0.2421  1.5442  1.5741
  241MOL0     H32489   3.865  -0.148   4.934 -0.5289  2.0397  0.6339
  241MOL0     H32490   3.727  -0.048   4.985  0.6204 -0.6212  1.4286
  241MOL0     H32491   3.570  -0.193   4.848 -0.8787 -2.3994  1.3286
  241MOL0     H32492   3.705  -0.283   4.798  0.6757 -0.3664  4.4149
  241MOL0     H32493   3.785  -0.093   4.658 -0.0362  1.0666 -0.1949
  241MOL0     H32494   3.703   0.032   4.747 -1.2661 -0.2055  1.6642
  241MOL0     H32495   3.489   0.036   4.816  0.9170  2.7799 -0.2652
  241MOL0     H32496   3.321   0.160   4.936  0.0513  0.8632 -1.4525
  241MOL0     H32497   3.208   0.232   4.837  1.5900  1.5619  1.8669
  241MOL0     H32498   3.166   0.069   4.906  0.1218 -1.3353  0.0976
  241MOL0     H32499   2.787  -0.115   4.414 -2.0637  0.2228 -2.1507
  241MOL0     H32500   2.540  -0.060   4.430 -0.2743  0.6887  0.2016
  241MOL0     H32501   2.420   0.208   4.314  0.0636 -1.9302 -1.1346
  241MOL0     H32502   2.344   0.057   4.374 -0.8160 -0.2843 -0.4212
  241MOL0     H32503   2.252   0.336   4.428 -0.4339 -0.0021 -1.8079
  241MOL0     H32504   2.212   0.262   4.275  0.0534 -2.7503 -0.5657
  241MOL0     H32505   2.131   0.157   4.549 -1.9739  1.5139  1.1174
  241MOL0     H32506   2.092   0.065   4.398  0.0810  0.5753 -0.8427
  241MOL0     H32507   1.966   0.257   4.318 -1.7566 -3.4778 -0.4065
  241MOL0     H32508   1.895   0.159   4.439  1.2149 -1.8237 -1.5454
  241MOL0     H32509   2.001   0.441   4.467  1.8168 -2.3310 -1.4985
  241MOL0     H32510   1.996   0.345   4.615  1.1012 -1.8808 -0.5014
  241MOL0     H32511   1.768   0.387   4.424  0.9566 -1.2537 -0.1557
  241MOL0     H32512   1.761   0.318   4.587  1.0345 -1.1060 -0.2678
  241MOL0     H32513   1.804   0.613   4.504  0.3493  1.5512  1.1351
  241MOL0     H32514   1.860   0.553   4.665 -1.5284 -2.3980  1.3436
  241MOL0     H32515   1.662   0.579   4.744 -0.9621 -0.5365  0.4368
  241MOL0     H32516   1.579   0.478   4.626 -1.4724  1.0537  4.8014
  241MOL0     H32517   2.630   0.342   4.566 -0.5874 -0.1671 -0.6558
  241MOL0     H32518   2.862   0.271   4.584  1.1425 -1.4398  0.6886
  241MOL0     H32519   3.172  -0.060   4.436 -1.2506 -1.2956  1.0714
  241MOL0     H32520   3.416  -0.140   4.432  2.5384  2.0634  0.1178
  241MOL0     H32521   4.586   0.103   6.012  0.7475 -0.8746 -0.7691
  241MOL0     H32522   4.822   0.198   6.047 -0.3179  0.4521 -0.7726
  241MOL0     H32523   5.194   0.236   5.890 -3.1746  0.7733 -0.7975
  241MOL0     H32524   5.431   0.272   5.887 -0.0980  0.0428 -0.7089
  241MOL0     H32525   5.597   0.661   5.725 -1.0011  0.1293  0.2588
  241MOL0     H32526   5.603   0.666   5.900  0.2537  1.9038 -1.5464
  241MOL0     H32527   5.835   0.658   5.808 -1.0777  0.1063  4.3647
  241MOL0     H32528   5.803   0.503   5.721  0.8552 -0.3909  0.3305
  241MOL0     H32529   5.842   0.383   5.903  1.1362  1.2671 -4.1601
  241MOL0     H32530   5.736   0.505   5.999 -3.9857  0.9315 -4.6223
  241MOL0     H32531   5.954   0.483   6.089 -0.3797 -0.0341 -0.7674
  241MOL0     H32532   5.941   0.639   5.991 -0.4948  0.7666 -0.1784
  241MOL0     H32533   6.254   0.414   5.829  0.1520  1.1499  0.7251
  241MOL0     H32534   5.363   0.670   5.737  0.9899 -1.4683 -1.4780
  241MOL0     H32535   5.115   0.634   5.752 -1.6745  0.1197  2.5919
  242MOL0     O32536   8.725   9.504   0.397 -0.1258  0.4583 -0.1771
  242MOL0     C32537   8.714   9.624   0.410  0.2815 -0.2959 -0.4262
  242MOL0     O32538   8.592   9.692   0.423 -0.0060 -0.0198  0.3794
  242MOL0     C32539   8.469   9.637   0.424  0.7523 -0.1323  0.5896
  242MOL0     C32540   8.360   9.729   0.416  0.8366  0.1322  0.3064
  242MOL0     C32541   8.222   9.692   0.431 -0.1272  0.6324  0.2291
  242MOL0     C32542   8.192   9.557   0.456 -0.1509  0.2170  0.1885
  242MOL0     O32543   8.071   9.516   0.497 -0.6135 -0.3564  0.3569
  242MOL0     C32544   7.954   9.567   0.431  0.6271 -0.0820 -0.8238
  242MOL0     C32545   7.832   9.492   0.493 -0.5644 -0.1765 -0.1899
  242MOL0     C32546   7.701   9.569   0.517 -0.0936  0.0044  0.4613
  242MOL0     C32547   7.597   9.496   0.616  0.7719  0.3262 -0.1611
  242MOL0     C32548   7.468   9.568   0.603  0.4614  0.5997 -0.9155
  242MOL0     C32549   7.366   9.514   0.698  0.7288 -0.0080 -0.1529
  242MOL0     C32550   7.252   9.617   0.705 -0.1561 -0.8374  0.4657
  242MOL0     C32551   7.126   9.588   0.611 -0.0685 -0.1039  0.0568
  242MOL0     N32552   7.014   9.688   0.632 -0.4841  0.3167 -0.3317
  242MOL0     C32553   7.021   9.815   0.674 -0.5856 -0.0934  0.7594
  242MOL0     C32554   6.891   9.860   0.688  1.1129 -0.0305 -0.1045
  242MOL0     C32555   6.824   9.999   0.707 -0.2337 -0.7281 -0.0706
  242MOL0     C32556   6.797  10.051   0.850  0.2156  0.5515  0.1850
  242MOL0     C32557   6.691   9.973   0.929  0.0245 -0.3510  0.5818
  242MOL0     C32558   6.551   9.978   0.875  0.1392 -0.0582 -0.4033
  242MOL0     O32559   6.459   9.912   0.962 -0.4579 -0.2775 -0.2694
  242MOL0     C32560   6.324   9.910   0.929  0.5171 -1.3526  0.5218
  242MOL0     C32561   6.226   9.959   1.025 -0.6262 -0.7806 -0.1122
  242MOL0     C32562   6.093   9.987   0.992 -0.2679  0.3204 -0.1563
  242MOL0     C32563   6.007  10.019   1.110 -0.4455  0.1347 -1.0299
  242MOL0     C32564   6.050   9.963   0.858  0.1489 -0.3919 -0.9691
  242MOL0     C32565   5.905   9.982   0.822 -0.2614  0.0710 -0.5632
  242MOL0     O32566   5.815  10.055   0.905 -0.2970 -0.2861  0.3191
  242MOL0     C32567   5.684  10.063   0.871 -0.5749 -0.4699  1.3346
  242MOL0     C32568   5.579  10.038   0.964 -0.1138  0.1640 -0.7075
  242MOL0     C32569   5.443  10.042   0.929 -1.0734  0.2383  0.1052
  242MOL0     C32570   5.403  10.072   0.801  0.2095  0.0730  0.0280
  242MOL0     O32571   5.274  10.050   0.762 -0.0339 -0.2068 -0.4269
  242MOL0     C32572   5.201   9.930   0.802  0.7923  0.5476 -0.2435
  242MOL0     C32573   5.258   9.797   0.750 -0.8949  0.6454 -0.2972
  242MOL0     C32574   5.172   9.684   0.812  1.1001  0.1979  0.6836
  242MOL0     C32575   5.068   9.636   0.720  0.0378  0.1976 -0.1107
  242MOL0     C32576   4.996   9.510   0.775 -0.5395 -0.5137 -0.4763
  242MOL0     C32577   4.897   9.456   0.667 -0.0338  0.1137  0.9353
  242MOL0     C32578   4.787   9.354   0.716  0.2374  0.0158 -0.3284
  242MOL0     C32579   4.690   9.324   0.599  0.1805 -0.5270 -0.0081
  242MOL0    Cl32580   4.574   9.198   0.641 -0.2034  0.3041 -0.2512
  242MOL0     C32581   5.505  10.106   0.711 -0.9411  0.5429 -0.0814
  242MOL0     C32582   5.644  10.100   0.743  0.7302 -0.4156  0.8082
  242MOL0     O32583   5.877   9.915   0.722 -0.5723  0.2266  0.4036
  242MOL0     C32584   6.135   9.903   0.768 -0.1488  0.1117 -0.1078
  242MOL0     C32585   6.269   9.887   0.800 -0.1603  0.2799 -0.5768
  242MOL0     N32586   6.813   9.756   0.640 -0.0821 -0.5722  0.0870
  242MOL0     N32587   6.889   9.663   0.602  0.5819  0.4851  0.2831
  242MOL0     C32588   8.297   9.460   0.443  0.0210  0.9296  0.2599
  242MOL0     C32589   8.428   9.496   0.430 -0.2319  0.3093 -0.3599
  242MOL0     C32590   8.843   9.702   0.407  0.0684  0.6595  0.4930
  242MOL0     C32591   8.854   9.825   0.473 -0.3389 -1.1437  0.7430
  242MOL0     C32592   8.977   9.903   0.458  0.0786  0.1186 -0.0231
  242MOL0     C32593   9.084   9.855   0.381 -0.6986  0.4987  1.0263
  242MOL0     O32594   9.190   9.941   0.371 -0.5087  0.1562  0.4953
  242MOL0     C32595   9.308   9.896   0.309  0.3724  0.3225  0.1464
  242MOL0     C32596   9.311   9.934   0.159  1.2649  0.0311 -0.3968
  242MOL0     C32597   9.280  10.087   0.136  0.6980  0.0606 -0.4778
  242MOL0     C32598   9.243  10.116  -0.008 -0.5101 -0.8288 -0.2955
  242MOL0     C32599   9.359  10.128  -0.094  0.3039  0.7924  0.3269
  242MOL0     C32600   9.458  10.150  -0.158  0.2073 -0.9810  0.5170
  242MOL0     C32601   9.073   9.727   0.324  0.5288 -0.7235  0.0968
  242MOL0     C32602   8.955   9.656   0.329  0.0698  0.1089 -0.2802
  242MOL0     H32603   8.385   9.832   0.396  2.2972 -0.4715 -1.1902
  242MOL0     H32604   8.145   9.768   0.439  1.3016  2.4809 -2.0871
  242MOL0     H32605   7.955   9.671   0.465 -0.5947 -0.8925  1.9947
  242MOL0     H32606   7.957   9.561   0.322 -0.5713  1.2034 -0.9613
  242MOL0     H32607   7.816   9.401   0.435 -0.2269  1.2904 -2.7691
  242MOL0     H32608   7.874   9.468   0.591 -0.3315  1.2984  0.0960
  242MOL0     H32609   7.730   9.660   0.571  1.6861  1.1219 -2.1658
  242MOL0     H32610   7.660   9.590   0.417 -0.7390 -1.1123  0.4704
  242MOL0     H32611   7.572   9.391   0.594  1.6768 -0.5544  2.6597
  242MOL0     H32612   7.637   9.496   0.717  0.5839  1.2973 -0.0787
  242MOL0     H32613   7.489   9.674   0.622  0.9063  0.4693 -0.6763
  242MOL0     H32614   7.438   9.556   0.498  0.6016 -0.1032 -0.8775
  242MOL0     H32615   7.337   9.414   0.663 -0.0076 -1.2170  3.4821
  242MOL0     H32616   7.417   9.486   0.791  1.6113  1.2011 -0.2643
  242MOL0     H32617   7.222   9.619   0.810  0.4320 -3.3409  0.7472
  242MOL0     H32618   7.294   9.714   0.676 -2.0593 -0.1857 -0.2312
  242MOL0     H32619   7.080   9.489   0.625 -4.7445  2.0224  2.3875
  242MOL0     H32620   7.169   9.589   0.511 -0.8410  2.2014 -0.3086
  242MOL0     H32621   7.114   9.870   0.683  1.0178 -2.6718  0.9240
  242MOL0     H32622   6.886  10.082   0.670 -0.8931 -0.3807 -0.4136
  242MOL0     H32623   6.731   9.995   0.651 -0.9424  2.1229  0.7432
  242MOL0     H32624   6.767  10.156   0.846  0.7955  0.6834 -1.1206
  242MOL0     H32625   6.888  10.034   0.907  0.5196  3.8772  0.8820
  242MOL0     H32626   6.696  10.003   1.034 -1.5866 -0.8133  0.8182
  242MOL0     H32627   6.719   9.867   0.924 -1.6973 -0.7875 -2.2863
  242MOL0     H32628   6.546   9.949   0.770  0.8209  1.9586 -1.0191
  242MOL0     H32629   6.526  10.084   0.878  4.2834  1.0829  2.5631
  242MOL0     H32630   6.252   9.978   1.129 -4.6944  0.5985  0.8386
  242MOL0     H32631   6.063  10.028   1.203  1.2903  5.3951 -2.2134
  242MOL0     H32632   5.957  10.116   1.103 -2.3472 -0.8387 -1.5360
  242MOL0     H32633   5.927   9.948   1.129 -0.1779  0.6856  3.1025
  242MOL0     H32634   5.598  10.018   1.069 -0.2741 -0.3101 -0.7675
  242MOL0     H32635   5.381  10.005   1.010 -0.2456 -1.1289  0.1531
  242MOL0     H32636   5.189   9.945   0.910  3.1009  2.1120 -0.1090
  242MOL0     H32637   5.100   9.933   0.762 -0.5661  1.1008  2.9498
  242MOL0     H32638   5.258   9.800   0.641  0.2424 -0.8558 -0.3819
  242MOL0     H32639   5.362   9.794   0.784 -0.8742 -1.4133 -0.4168
  242MOL0     H32640   5.126   9.722   0.903 -1.7947 -0.3523 -0.4163
  242MOL0     H32641   5.236   9.598   0.834  3.0768  1.6305  0.8422
  242MOL0     H32642   4.992   9.712   0.702 -0.0797  0.3128  0.8372
  242MOL0     H32643   5.115   9.615   0.623  0.5373 -1.2438  0.4091
  242MOL0     H32644   4.941   9.539   0.865 -0.9240  0.2565 -0.9446
  242MOL0     H32645   5.066   9.433   0.808 -0.8206  0.7141  3.6156
  242MOL0     H32646   4.845   9.547   0.634  1.3728  1.8250  3.1674
  242MOL0     H32647   4.961   9.427   0.584  0.2018 -0.0575  1.1770
  242MOL0     H32648   4.741   9.386   0.810 -1.2733  0.0910 -1.0703
  242MOL0     H32649   4.839   9.259   0.735 -0.9300 -0.8740 -1.4762
  242MOL0     H32650   4.742   9.282   0.512 -0.3863 -1.9738  0.3168
  242MOL0     H32651   4.625   9.408   0.574  0.2269 -0.1460  1.1030
  242MOL0     H32652   5.477  10.115   0.606  0.8486  0.0422 -0.6357
  242MOL0     H32653   5.718  10.114   0.665 -0.5137 -0.0358 -0.3558
  242MOL0     H32654   6.102   9.861   0.673 -3.6825 -1.6763  1.6964
  242MOL0     H32655   6.348   9.862   0.730  1.0681 -2.5269  1.6094
  242MOL0     H32656   8.276   9.355   0.463 -0.1349  0.7382 -0.8418
  242MOL0     H32657   8.509   9.424   0.445 -1.4761 -1.3848 -1.3719
  242MOL0     H32658   8.774   9.865   0.533  0.2001 -0.1156  0.7935
  242MOL0     H32659   8.986  10.000   0.506 -1.3736 -0.7038  2.0786
  242MOL0     H32660   9.390   9.939   0.367  1.0416 -0.7153  0.0062
  242MOL0     H32661   9.318   9.787   0.318 -2.1403  0.1675  2.0428
  242MOL0     H32662   9.227   9.886   0.108  0.1569  2.4546 -0.9808
  242MOL0     H32663   9.402   9.898   0.109  0.7013 -0.3992 -1.1335
  242MOL0     H32664   9.364  10.144   0.178  2.8650 -4.0011  1.3732
  242MOL0     H32665   9.196  10.102   0.205 -2.0330 -3.2313 -2.7577
  242MOL0     H32666   9.192  10.212  -0.005  2.6273  0.9842 -1.0581
  242MOL0     H32667   9.172  10.037  -0.037  1.2182 -2.0578 -1.3540
  242MOL0     H32668   9.542  10.176  -0.218 -0.4254  0.5975  0.2787
  242MOL0     H32669   9.146   9.680   0.259 -2.7316 -3.1095 -2.2197
  242MOL0     H32670   8.954   9.560   0.279  0.4198  0.3340 -0.7327
  243MOL0     O32671   4.685   3.386   3.043 -0.5532 -0.3155 -0.0909
  243MOL0     C32672   4.692   3.357   2.926  0.1753  0.1719 -0.1772
  243MOL0     O32673   4.592   3.313   2.854  0.0415  0.4219  0.4549
  243MOL0     C32674   4.468   3.365   2.888  0.0165  0.4117  0.2836
  243MOL0     C32675   4.402   3.462   2.814 -0.3131  0.3998 -0.5246
  243MOL0     C32676   4.274   3.496   2.853 -0.2843  0.3134 -0.6308
  243MOL0     C32677   4.202   3.431   2.955  0.5520 -0.2472 -0.0572
  243MOL0     O32678   4.070   3.461   2.975 -0.7420  0.4370 -0.2123
  243MOL0     C32679   3.994   3.508   2.870  0.9212  0.0425 -0.2621
  243MOL0     C32680   3.844   3.459   2.898 -0.2515 -0.1025 -0.0965
  243MOL0     C32681   3.736   3.510   2.802  0.0786  0.1266  0.2436
  243MOL0     C32682   3.609   3.429   2.831  0.3074  0.6943  0.0514
  243MOL0     C32683   3.503   3.448   2.719  0.1772 -0.7678 -0.1092
  243MOL0     C32684   3.364   3.407   2.762 -0.2850 -0.7192  0.0797
  243MOL0     C32685   3.364   3.257   2.765 -0.5252 -0.3548 -0.5213
  243MOL0     C32686   3.220   3.207   2.798  0.7134 -0.1327 -0.3997
  243MOL0     N32687   3.179   3.235   2.937  0.3397 -0.3208 -0.0500
  243MOL0     C32688   3.141   3.357   2.989 -0.1446 -0.3304 -0.2645
  243MOL0     C32689   3.133   3.329   3.123  0.3829 -0.3222  0.0556
  243MOL0     C32690   3.104   3.420   3.232  0.9827  0.0770  0.0334
  243MOL0     C32691   3.232   3.501   3.266  0.0476  0.8779 -1.1835
  243MOL0     C32692   3.331   3.422   3.355 -0.0752 -0.1720  0.2835
  243MOL0     C32693   3.470   3.472   3.344 -0.2802 -0.3237 -0.0952
  243MOL0     O32694   3.553   3.428   3.456 -0.1340  0.2317  0.9400
  243MOL0     C32695   3.680   3.465   3.471 -0.0469 -0.6295 -0.2673
  243MOL0     C32696   3.736   3.449   3.599  0.3359 -0.6786  0.1604
  243MOL0     C32697   3.877   3.461   3.615 -0.1089  0.0226  0.0864
  243MOL0     C32698   3.921   3.430   3.763  0.2226 -0.2050  0.1125
  243MOL0     C32699   3.962   3.499   3.501 -0.4700  0.0607  0.7101
  243MOL0     C32700   4.110   3.528   3.526  0.2077  0.8507  0.5104
  243MOL0     O32701   4.190   3.549   3.415  1.0934  0.1772  0.7707
  243MOL0     C32702   4.328   3.580   3.427 -0.1622  1.3017 -0.5108
  243MOL0     C32703   4.379   3.674   3.517 -0.0904 -0.2129 -0.4978
  243MOL0     C32704   4.515   3.720   3.505 -0.2210 -0.3190  0.2304
  243MOL0     C32705   4.605   3.662   3.414  0.5971  0.2930  0.2443
  243MOL0     O32706   4.740   3.695   3.387 -0.0803 -0.1671  0.2851
  243MOL0     C32707   4.814   3.770   3.481 -0.4303  0.2693 -0.6292
  243MOL0     C32708   4.844   3.696   3.612 -0.8097 -0.3052  0.8441
  243MOL0     C32709   4.945   3.583   3.589 -0.0257  0.2935  0.3641
  243MOL0     C32710   4.986   3.523   3.729  0.8788 -0.3051 -0.2024
  243MOL0     C32711   5.064   3.393   3.719 -0.1984  0.6369  0.6959
  243MOL0     C32712   5.195   3.418   3.644 -0.0348 -0.5453 -0.3904
  243MOL0     C32713   5.285   3.297   3.679  0.3867 -0.1922 -0.6569
  243MOL0     C32714   5.436   3.318   3.644 -0.2999 -0.0382 -0.1231
  243MOL0    Cl32715   5.463   3.271   3.471 -0.0319 -0.1627  0.1766
  243MOL0     C32716   4.544   3.548   3.341 -0.2884 -1.1105  0.1074
  243MOL0     C32717   4.409   3.514   3.341  0.1389  0.2139  0.1565
  243MOL0     O32718   4.147   3.557   3.634  0.1025 -0.4477 -1.2106
  243MOL0     C32719   3.901   3.534   3.369 -0.6054 -0.7343  0.5110
  243MOL0     C32720   3.763   3.507   3.363  0.5067  0.2987 -1.1867
  243MOL0     N32721   3.152   3.195   3.146 -0.2901  0.2227 -0.4777
  243MOL0     N32722   3.175   3.143   3.030  0.1462  0.3746  0.3465
  243MOL0     C32723   4.270   3.339   3.030  0.7475 -0.8738  0.7056
  243MOL0     C32724   4.397   3.309   2.992 -0.4555  0.7913 -0.5482
  243MOL0     C32725   4.823   3.365   2.863  0.2469  0.4709 -0.8002
  243MOL0     C32726   4.841   3.342   2.727  0.5855 -0.0057  0.2958
  243MOL0     C32727   4.971   3.331   2.676 -0.6549 -0.0935  0.5822
  243MOL0     C32728   5.078   3.345   2.761 -0.3334 -0.6352 -0.6945
  243MOL0     O32729   5.210   3.326   2.718 -0.6390 -0.0432 -0.2847
  243MOL0     C32730   5.239   3.272   2.587 -0.6176  0.2463  0.4680
  243MOL0     C32731   5.263   3.381   2.476  0.3195  0.7257 -1.1533
  243MOL0     C32732   5.397   3.438   2.472  0.6383  0.2785 -0.3550
  243MOL0     C32733   5.427   3.524   2.587 -0.3865  0.4612  0.3248
  243MOL0     C32734   5.548   3.608   2.579  0.7800  0.5250 -0.8761
  243MOL0     C32735   5.641   3.682   2.569  0.4937 -0.0149 -0.6742
  243MOL0     C32736   5.057   3.373   2.890 -0.5985 -0.5180  0.5742
  243MOL0     C32737   4.936   3.396   2.946 -0.0501  0.7745 -0.2422
  243MOL0     H32738   4.450   3.530   2.744 -0.2221  0.4499 -0.4147
  243MOL0     H32739   4.233   3.579   2.798 -1.0815 -0.1489 -0.7565
  243MOL0     H32740   3.999   3.617   2.857  0.3562  0.1315  0.2391
  243MOL0     H32741   4.014   3.470   2.770 -0.2613  0.9275 -0.8622
  243MOL0     H32742   3.839   3.350   2.886 -3.6078  0.1304 -1.8759
  243MOL0     H32743   3.828   3.480   3.004  0.8803  5.1250 -0.6749
  243MOL0     H32744   3.706   3.615   2.817 -3.0099 -0.9074  2.4801
  243MOL0     H32745   3.764   3.496   2.697  2.7630  1.2045  0.7361
  243MOL0     H32746   3.637   3.323   2.828 -0.4246  0.5056 -2.2914
  243MOL0     H32747   3.571   3.450   2.931  2.1738  0.7665  0.7843
  243MOL0     H32748   3.495   3.555   2.698  1.3405 -0.4118  1.1708
  243MOL0     H32749   3.539   3.397   2.629 -0.6001 -2.1430  0.3356
  243MOL0     H32750   3.326   3.445   2.857  1.6474 -0.5672  0.8348
  243MOL0     H32751   3.297   3.454   2.690  1.1535 -0.3378 -1.0718
  243MOL0     H32752   3.402   3.216   2.672  1.0710  0.0166 -0.0602
  243MOL0     H32753   3.432   3.213   2.839 -1.6258 -0.5906  0.3805
  243MOL0     H32754   3.210   3.098   2.797 -2.9067 -0.1055  3.3473
  243MOL0     H32755   3.136   3.243   2.737 -2.6950 -1.1026  3.2303
  243MOL0     H32756   3.123   3.441   2.924 -0.7060 -0.1187  0.1489
  243MOL0     H32757   3.028   3.489   3.193 -0.3867 -2.4597 -2.0743
  243MOL0     H32758   3.065   3.366   3.319  0.9332 -0.0199 -0.0493
  243MOL0     H32759   3.189   3.581   3.327  2.1953  1.1216  0.1165
  243MOL0     H32760   3.272   3.539   3.172 -0.8629 -0.4486 -2.1332
  243MOL0     H32761   3.331   3.316   3.328  1.6081 -0.2306  0.4000
  243MOL0     H32762   3.294   3.432   3.458 -1.9689  1.0708 -0.4499
  243MOL0     H32763   3.467   3.581   3.335 -2.5743 -0.4312 -1.2739
  243MOL0     H32764   3.507   3.449   3.243 -0.7173 -0.4618 -0.2288
  243MOL0     H32765   3.671   3.420   3.681 -0.6617  0.5794 -0.1542
  243MOL0     H32766   3.879   3.489   3.845  0.7590 -2.4347  2.1398
  243MOL0     H32767   3.877   3.330   3.775 -1.3219  0.1610 -1.9708
  243MOL0     H32768   4.029   3.423   3.775  0.1877  0.0316  0.5760
  243MOL0     H32769   4.317   3.722   3.591 -0.6400  0.7689 -1.5529
  243MOL0     H32770   4.532   3.798   3.579 -2.1500  0.9176 -0.5741
  243MOL0     H32771   4.911   3.797   3.437  0.8789 -0.4204  1.6444
  243MOL0     H32772   4.761   3.856   3.521  0.9025  0.0633  1.7575
  243MOL0     H32773   4.869   3.771   3.687 -1.7370  0.7669  0.1119
  243MOL0     H32774   4.751   3.647   3.646 -0.7038 -0.2775  1.1804
  243MOL0     H32775   5.036   3.602   3.532  1.4628 -3.2411  1.2994
  243MOL0     H32776   4.888   3.514   3.527  0.7554 -0.0931  0.0552
  243MOL0     H32777   5.050   3.592   3.784  0.2347  0.4309 -0.3520
  243MOL0     H32778   4.898   3.520   3.794  0.0414  1.1347 -1.2120
  243MOL0     H32779   5.007   3.322   3.659 -0.5299  4.0075 -3.4798
  243MOL0     H32780   5.082   3.351   3.818  0.8973 -1.0179 -0.1561
  243MOL0     H32781   5.171   3.425   3.538 -0.9305  0.4288 -0.1461
  243MOL0     H32782   5.248   3.506   3.682  0.2407 -1.3895  1.3072
  243MOL0     H32783   5.242   3.224   3.610  1.1163 -1.5497  0.2770
  243MOL0     H32784   5.280   3.251   3.779  0.7032 -0.9218 -0.9691
  243MOL0     H32785   5.498   3.246   3.699 -0.9555 -0.6513 -0.1794
  243MOL0     H32786   5.478   3.414   3.677 -1.0279  1.0680 -2.2588
  243MOL0     H32787   4.611   3.513   3.263  0.8331  1.2861 -0.0759
  243MOL0     H32788   4.372   3.445   3.266  0.6006  1.5355 -1.3428
  243MOL0     H32789   3.959   3.564   3.282 -0.6648 -0.6765  0.4906
  243MOL0     H32790   3.729   3.523   3.261 -2.1915  0.9493 -0.2558
  243MOL0     H32791   4.220   3.300   3.118 -3.4047  2.1624  0.0425
  243MOL0     H32792   4.448   3.230   3.046  1.8197  0.5705 -2.8660
  243MOL0     H32793   4.756   3.332   2.660  1.3977 -0.7930 -0.6465
  243MOL0     H32794   4.988   3.324   2.569  1.7397 -1.6945  0.9859
  243MOL0     H32795   5.333   3.216   2.583 -1.2656 -0.9185 -3.4548
  243MOL0     H32796   5.157   3.205   2.558 -0.4975  0.6848 -0.9552
  243MOL0     H32797   5.189   3.462   2.482 -0.2510  0.1542 -0.1806
  243MOL0     H32798   5.258   3.329   2.380  2.4893  0.5404 -1.1969
  243MOL0     H32799   5.409   3.492   2.378  1.2043 -1.2421 -1.2078
  243MOL0     H32800   5.454   3.344   2.469  0.9111  0.2910  2.4033
  243MOL0     H32801   5.437   3.465   2.679 -0.0767  0.4749  0.3016
  243MOL0     H32802   5.350   3.601   2.593 -0.2755  0.8140 -1.8829
  243MOL0     H32803   5.729   3.742   2.564  2.0001 -2.1837 -1.6936
  243MOL0     H32804   5.144   3.392   2.951 -1.0453  0.0407  1.0509
  243MOL0     H32805   4.943   3.422   3.051 -2.3909  0.3749  0.0666
  244MOL0     O32806   5.952   8.009  10.139 -0.0103 -0.1047 -0.4138
  244MOL0     C32807   5.961   8.134  10.154  0.3619 -0.5849 -0.7832
  244MOL0     O32808   5.879   8.221  10.081  0.3983 -0.5993  0.2580
  244MOL0     C32809   5.761   8.169  10.027  0.3378  0.1080 -0.2471
  244MOL0     C32810   5.724   8.217   9.901  0.8410 -0.3234 -0.6288
  244MOL0     C32811   5.602   8.179   9.847  0.3534  0.0036 -0.6946
  244MOL0     C32812   5.516   8.083   9.908 -0.2830 -0.4987 -0.0766
  244MOL0     O32813   5.401   8.045   9.845 -0.2129  0.7716 -0.0024
  244MOL0     C32814   5.381   8.077   9.708  0.2113  0.5728  0.3197
  244MOL0     C32815   5.267   7.985   9.655 -1.0228 -0.6770 -0.0156
  244MOL0     C32816   5.211   8.034   9.525  0.7261 -0.2481 -0.9052
  244MOL0     C32817   5.087   7.947   9.489  0.2835 -0.4757 -0.2043
  244MOL0     C32818   5.003   7.991   9.369  0.3713  0.3428  0.0804
  244MOL0     C32819   4.863   7.930   9.365  0.0047  0.1109 -0.3514
  244MOL0     C32820   4.777   7.980   9.245  0.0475  1.1205  0.5671
  244MOL0     C32821   4.636   7.938   9.255  0.1447  0.4700 -0.2353
  244MOL0     N32822   4.543   8.010   9.162  0.5399 -0.0881  0.2902
  244MOL0     C32823   4.433   7.944   9.116  0.4455 -0.1858 -0.3525
  244MOL0     C32824   4.362   8.032   9.040 -0.9251 -0.6990  0.3751
  244MOL0     C32825   4.233   8.015   8.968  0.0707  0.8759  0.3749
  244MOL0     C32826   4.145   8.127   8.982  0.6010 -0.8510 -0.3658
  244MOL0     C32827   4.080   8.139   9.124 -0.3961 -0.0131 -0.1957
  244MOL0     C32828   4.011   8.012   9.174  0.1140 -0.1369 -0.1146
  244MOL0     O32829   3.915   7.964   9.079 -0.4376  0.0659  0.2121
  244MOL0     C32830   3.808   8.044   9.054 -0.3558 -1.7920  0.2512
  244MOL0     C32831   3.723   8.083   9.156 -0.0202  0.3657  0.6993
  244MOL0     C32832   3.605   8.157   9.134 -0.1539 -0.3377  0.2848
  244MOL0     C32833   3.530   8.217   9.250  0.2469 -0.2855  0.2230
  244MOL0     C32834   3.568   8.180   8.997  0.3717  1.1925  0.4311
  244MOL0     C32835   3.429   8.230   8.952  0.7937  0.0611 -0.7576
  244MOL0     O32836   3.409   8.270   8.823 -0.3087 -0.5023 -0.5000
  244MOL0     C32837   3.286   8.290   8.768 -0.1344  0.6590 -0.4593
  244MOL0     C32838   3.276   8.395   8.680  0.3252 -0.6408 -0.0831
  244MOL0     C32839   3.159   8.409   8.600 -0.1931  0.1314 -0.3113
  244MOL0     C32840   3.056   8.320   8.611  1.3320 -0.5047  0.2812
  244MOL0     O32841   2.956   8.331   8.515 -0.1064  0.1600 -0.2209
  244MOL0     C32842   2.821   8.314   8.565 -0.2984  0.8713  0.2203
  244MOL0     C32843   2.718   8.424   8.525 -0.7776 -0.1374  0.3018
  244MOL0     C32844   2.571   8.390   8.557  0.1039 -0.0438  0.4462
  244MOL0     C32845   2.536   8.427   8.700 -0.0701  0.4530 -0.0875
  244MOL0     C32846   2.397   8.375   8.739  0.4198  0.6677 -0.3948
  244MOL0     C32847   2.362   8.221   8.734 -0.0065 -0.2132  0.8118
  244MOL0     C32848   2.214   8.189   8.742 -0.7546  0.0928  0.3190
  244MOL0     C32849   2.146   8.243   8.862 -0.4616 -0.7248  0.3958
  244MOL0    Cl32850   1.971   8.217   8.899 -0.1131  0.0715  0.5583
  244MOL0     C32851   3.061   8.219   8.713  0.9352 -0.5155 -0.3531
  244MOL0     C32852   3.177   8.201   8.788  0.5978  0.0354  0.0227
  244MOL0     O32853   3.339   8.215   9.037  0.3183 -0.2204  0.2171
  244MOL0     C32854   3.657   8.146   8.888 -0.3000  0.1498 -0.5466
  244MOL0     C32855   3.780   8.088   8.932  0.7560 -0.2878  0.4048
  244MOL0     N32856   4.452   8.135   9.021  0.5146  0.6915 -0.8380
  244MOL0     N32857   4.560   8.119   9.087  0.0321  0.1024 -0.1999
  244MOL0     C32858   5.554   8.034  10.032  0.0962  0.7575 -0.5131
  244MOL0     C32859   5.675   8.077  10.091 -0.1400  0.5597  0.8584
  244MOL0     C32860   6.072   8.191  10.231  0.7296  0.3420 -0.5239
  244MOL0     C32861   6.136   8.128  10.338  0.8655  0.1525 -0.7405
  244MOL0     C32862   6.245   8.185  10.407 -0.4970  1.1076  1.0972
  244MOL0     C32863   6.295   8.304  10.364 -0.2337 -0.6293 -0.2710
  244MOL0     O32864   6.406   8.361  10.419  0.4969 -0.2987  0.0712
  244MOL0     C32865   6.526   8.290  10.415 -0.1504 -0.8916 -0.7032
  244MOL0     C32866   6.575   8.250  10.276  0.5760  0.5386  1.2865
  244MOL0     C32867   6.688   8.144  10.272 -0.6771 -1.0498  0.6825
  244MOL0     C32868   6.828   8.204  10.294  0.0232  0.6697  0.3971
  244MOL0     C32869   6.871   8.288  10.182  0.0877  0.9197  0.1202
  244MOL0     C32870   6.918   8.361  10.098  0.2579 -0.2746  0.1105
  244MOL0     C32871   6.240   8.373  10.257 -0.2729 -0.6605 -0.9006
  244MOL0     C32872   6.131   8.318  10.189  0.5557  1.1729  0.6040
  244MOL0     H32873   5.796   8.280   9.851  1.5019 -0.4540  0.1346
  244MOL0     H32874   5.583   8.215   9.747  2.8287 -4.6731 -3.1664
  244MOL0     H32875   5.356   8.184   9.705 -2.0830  0.0618 -1.2889
  244MOL0     H32876   5.473   8.060   9.652 -0.1126  0.3102 -0.1353
  244MOL0     H32877   5.320   7.894   9.626 -1.9300 -2.0706  2.3779
  244MOL0     H32878   5.190   7.978   9.733 -0.9187  1.3508  0.3086
  244MOL0     H32879   5.186   8.140   9.536  1.6287 -0.2843  3.0167
  244MOL0     H32880   5.289   8.021   9.450 -0.2617 -2.2122 -1.6887
  244MOL0     H32881   5.130   7.847   9.477  1.1227 -0.5340  2.6911
  244MOL0     H32882   5.027   7.923   9.577  2.0255 -2.2256  0.5877
  244MOL0     H32883   4.979   8.097   9.379  2.3144  0.7634  0.7061
  244MOL0     H32884   5.056   7.969   9.276 -0.4986 -1.3465 -0.0535
  244MOL0     H32885   4.856   7.823   9.349 -1.2926 -0.0041  0.7746
  244MOL0     H32886   4.822   7.950   9.465 -0.5940 -1.1239 -0.3289
  244MOL0     H32887   4.774   8.089   9.245  1.5238  1.1732  0.7908
  244MOL0     H32888   4.823   7.944   9.152 -1.4928 -0.3654  0.3359
  244MOL0     H32889   4.613   7.977   9.355  1.8984 -1.8968  1.2082
  244MOL0     H32890   4.617   7.830   9.255 -2.2446  0.8094  1.3186
  244MOL0     H32891   4.409   7.842   9.145  1.5784 -0.4283 -0.2298
  244MOL0     H32892   4.251   8.001   8.861 -2.1961 -0.7233  0.1270
  244MOL0     H32893   4.183   7.923   9.002  0.1103  0.0543 -1.6308
  244MOL0     H32894   4.057   8.107   8.919 -1.2763  2.8018  0.7705
  244MOL0     H32895   4.185   8.222   8.947 -1.3624  1.2105  2.5497
  244MOL0     H32896   4.000   8.212   9.110  0.3631  0.3813 -3.1705
  244MOL0     H32897   4.156   8.172   9.196 -0.7367  0.8137 -0.2029
  244MOL0     H32898   3.954   8.047   9.260  0.8190  1.4805 -0.2673
  244MOL0     H32899   4.085   7.937   9.206  2.4595  2.7259  1.6662
  244MOL0     H32900   3.755   8.065   9.259  2.7877 -0.0097 -0.1503
  244MOL0     H32901   3.450   8.146   9.275  0.5267 -2.1628 -3.4680
  244MOL0     H32902   3.587   8.234   9.342  1.2988 -1.9915 -0.0675
  244MOL0     H32903   3.486   8.310   9.214  0.6122 -0.2645 -0.1701
  244MOL0     H32904   3.358   8.460   8.651 -1.0758  1.1050 -0.2639
  244MOL0     H32905   3.162   8.490   8.528 -1.7270 -0.8484 -1.5435
  244MOL0     H32906   2.787   8.213   8.539  1.1821 -0.1582  2.0123
  244MOL0     H32907   2.823   8.330   8.673  0.0409  2.2472  0.0298
  244MOL0     H32908   2.746   8.520   8.569 -1.1606 -1.3028  3.3369
  244MOL0     H32909   2.725   8.426   8.416  0.2695  3.0521  0.3369
  244MOL0     H32910   2.557   8.282   8.540  2.5637 -0.2952 -0.4069
  244MOL0     H32911   2.501   8.444   8.493 -1.5010  0.2306  2.3416
  244MOL0     H32912   2.608   8.386   8.771 -1.8734 -3.2147 -0.1262
  244MOL0     H32913   2.526   8.535   8.710  0.6785  0.5617 -0.4341
  244MOL0     H32914   2.327   8.419   8.668 -1.8311 -3.5830 -1.1599
  244MOL0     H32915   2.369   8.418   8.836  1.5082  2.5495 -0.8569
  244MOL0     H32916   2.393   8.182   8.637 -2.9021  4.6035 -2.4365
  244MOL0     H32917   2.412   8.170   8.817  2.6156  1.2246  0.2157
  244MOL0     H32918   2.205   8.080   8.728  5.1999 -0.7335  0.2714
  244MOL0     H32919   2.161   8.236   8.659 -2.4151  0.2656  1.4320
  244MOL0     H32920   2.152   8.351   8.853 -1.4922 -0.8247 -2.1408
  244MOL0     H32921   2.197   8.201   8.949  2.2066  1.0465 -0.2016
  244MOL0     H32922   2.978   8.150   8.718 -1.6988  2.0407 -3.6965
  244MOL0     H32923   3.190   8.110   8.846  0.9238  0.6220  0.9054
  244MOL0     H32924   3.631   8.193   8.794 -1.3516  0.8931  0.0894
  244MOL0     H32925   3.856   8.066   8.858  1.3782 -0.3281  1.0566
  244MOL0     H32926   5.476   7.974  10.078 -4.0894  3.3430 -3.5432
  244MOL0     H32927   5.712   8.033  10.183  1.0450 -0.5556 -0.1087
  244MOL0     H32928   6.090   8.032  10.361  0.1018  0.8275  0.6541
  244MOL0     H32929   6.290   8.140  10.494  2.1294  1.0314 -0.2154
  244MOL0     H32930   6.612   8.348  10.450 -0.8389  0.9225 -1.8521
  244MOL0     H32931   6.514   8.200  10.476  0.8409 -1.1387 -0.8474
  244MOL0     H32932   6.590   8.339  10.214 -1.9856  0.8119  0.9361
  244MOL0     H32933   6.489   8.201  10.228  2.4436 -0.4006 -1.3478
  244MOL0     H32934   6.690   8.092  10.175 -2.3124 -1.9790  1.1088
  244MOL0     H32935   6.669   8.067  10.348  1.6007 -1.3474  1.0185
  244MOL0     H32936   6.908   8.131  10.305  0.8618  1.4574 -0.2657
  244MOL0     H32937   6.837   8.270  10.381  0.2567  1.4451 -0.1998
  244MOL0     H32938   6.949   8.424  10.017 -4.1076  1.7817 -0.2554
  244MOL0     H32939   6.273   8.474  10.232  0.5333 -0.1044  2.1064
  244MOL0     H32940   6.077   8.367  10.109  1.1529 -1.7812 -1.8015
  245MOL0     O32941   4.870   4.306   3.034  0.7385  0.2348  1.4453
  245MOL0     C32942   4.839   4.243   2.929  0.0274  0.4024 -0.2099
  245MOL0     O32943   4.710   4.240   2.871 -0.1023 -0.0428  0.0590
  245MOL0     C32944   4.607   4.312   2.939  0.0921  0.3120 -0.0544
  245MOL0     C32945   4.518   4.370   2.849 -0.7259  0.5097 -0.7577
  245MOL0     C32946   4.395   4.421   2.891  0.2039  0.2777 -0.6259
  245MOL0     C32947   4.372   4.429   3.032 -0.0837 -0.3743 -0.4085
  245MOL0     O32948   4.264   4.496   3.088 -0.3298  0.4579 -0.1897
  245MOL0     C32949   4.180   4.591   3.014 -0.1178  0.4906 -0.0636
  245MOL0     C32950   4.093   4.678   3.101  0.3209  0.3647  0.1706
  245MOL0     C32951   4.008   4.608   3.201  0.1741  0.0309  0.5543
  245MOL0     C32952   3.933   4.692   3.306  0.3751  0.0794  1.0891
  245MOL0     C32953   3.794   4.741   3.246 -0.4621  0.5280 -0.4323
  245MOL0     C32954   3.725   4.814   3.362 -0.5624 -0.0867  0.4408
  245MOL0     C32955   3.591   4.876   3.324 -0.3559 -0.0605  0.4724
  245MOL0     C32956   3.534   4.941   3.444 -0.4335 -0.1965  0.1180
  245MOL0     N32957   3.412   5.006   3.406  0.5289  0.4280 -0.5391
  245MOL0     C32958   3.394   5.128   3.346  0.7251 -0.0216 -0.0723
  245MOL0     C32959   3.262   5.155   3.352  0.0816  0.3223  0.2147
  245MOL0     C32960   3.199   5.281   3.294  0.1648 -0.3542  1.1488
  245MOL0     C32961   3.154   5.384   3.405  0.5777  0.4825  0.5009
  245MOL0     C32962   3.022   5.342   3.483 -0.7041 -0.5129  0.1448
  245MOL0     C32963   2.905   5.338   3.385  0.0229  0.2352  0.7411
  245MOL0     O32964   2.785   5.292   3.448  0.5913  0.4632 -0.5620
  245MOL0     C32965   2.682   5.380   3.467  0.0435 -0.5307 -0.0780
  245MOL0     C32966   2.658   5.501   3.394  0.1719  0.6665  0.0395
  245MOL0     C32967   2.549   5.581   3.409 -0.6473  0.4376  0.2054
  245MOL0     C32968   2.545   5.712   3.332  0.0569 -0.0155  0.4278
  245MOL0     C32969   2.453   5.540   3.500 -0.1355  0.1358 -0.2281
  245MOL0     C32970   2.321   5.599   3.526  0.2468 -0.1440  0.0104
  245MOL0     O32971   2.237   5.543   3.622  0.4044 -0.8006 -0.1283
  245MOL0     C32972   2.107   5.591   3.635  0.2720 -0.0541  0.1225
  245MOL0     C32973   2.003   5.534   3.565  0.8027 -0.4113 -0.5383
  245MOL0     C32974   1.884   5.595   3.543 -0.1809 -0.1504 -0.3819
  245MOL0     C32975   1.867   5.724   3.605  1.2366  1.0264  0.0447
  245MOL0     O32976   1.742   5.795   3.589 -0.0990 -0.7188  0.2043
  245MOL0     C32977   1.666   5.791   3.471  0.6319  0.0531 -0.0771
  245MOL0     C32978   1.565   5.914   3.472  0.7069  0.4472  0.9145
  245MOL0     C32979   1.467   5.895   3.355 -0.6818  0.0097 -0.4841
  245MOL0     C32980   1.363   6.012   3.355  0.3641 -0.5350 -0.3880
  245MOL0     C32981   1.419   6.154   3.327 -0.0676 -0.7682  0.2659
  245MOL0     C32982   1.487   6.167   3.193 -0.0777  0.5048  0.3929
  245MOL0     C32983   1.544   6.303   3.197  0.4235  0.3535  0.8220
  245MOL0     C32984   1.611   6.338   3.068  0.2446 -0.2053 -0.0918
  245MOL0    Cl32985   1.758   6.238   3.031  0.1541  0.1258  0.5881
  245MOL0     C32986   1.967   5.780   3.680  0.0103 -0.0064 -0.2087
  245MOL0     C32987   2.087   5.714   3.695 -0.0659  0.0466 -0.1069
  245MOL0     O32988   2.292   5.701   3.460 -0.1584 -0.6767  0.0293
  245MOL0     C32989   2.472   5.421   3.571  0.3342 -0.5337 -0.5681
  245MOL0     C32990   2.581   5.344   3.565  0.2956  0.2045  0.0732
  245MOL0     N32991   3.199   5.052   3.424  0.3234 -0.1372  0.0683
  245MOL0     N32992   3.297   4.970   3.457 -0.1456 -0.3399 -0.4759
  245MOL0     C32993   4.458   4.350   3.113  1.7826 -0.0733 -0.2183
  245MOL0     C32994   4.567   4.289   3.068 -0.2188  0.8372  0.7009
  245MOL0     C32995   4.943   4.160   2.859  0.3350 -0.2806 -0.3801
  245MOL0     C32996   5.070   4.169   2.905  0.3061  0.1814  0.0941
  245MOL0     C32997   5.171   4.104   2.826  0.1601 -0.4193  0.0322
  245MOL0     C32998   5.143   4.051   2.703 -0.1436  0.4855  0.2734
  245MOL0     O32999   5.235   3.988   2.617 -0.0205  0.4479 -0.1210
  245MOL0     C33000   5.369   3.965   2.649 -0.9042 -0.5264 -0.0256
  245MOL0     C33001   5.467   4.076   2.598 -0.3849 -0.2334  0.1162
  245MOL0     C33002   5.610   4.031   2.617  0.6435 -0.9073 -0.0408
  245MOL0     C33003   5.707   4.148   2.662  0.3991  0.5526 -0.0954
  245MOL0     C33004   5.835   4.130   2.601  0.2904 -0.4205  0.3996
  245MOL0     C33005   5.941   4.122   2.543 -0.1271 -0.6689  1.2163
  245MOL0     C33006   5.015   4.038   2.661  0.5057  0.2467 -0.5783
  245MOL0     C33007   4.918   4.090   2.739  0.0200  0.1533  0.0853
  245MOL0     H33008   4.541   4.371   2.743 -2.0081 -0.4664 -1.0722
  245MOL0     H33009   4.332   4.473   2.818 -0.8179  0.5504  0.4174
  245MOL0     H33010   4.243   4.653   2.950 -0.5694 -0.8435 -1.9123
  245MOL0     H33011   4.117   4.532   2.946  1.6623 -1.8215  0.1583
  245MOL0     H33012   4.164   4.754   3.132  1.6880 -0.4601 -0.8096
  245MOL0     H33013   4.031   4.738   3.034  3.1892  1.5273 -1.6278
  245MOL0     H33014   3.937   4.541   3.153 -0.5667  0.7065  0.6781
  245MOL0     H33015   4.071   4.539   3.259  0.0832 -0.4411  0.0981
  245MOL0     H33016   3.907   4.634   3.395 -1.1338 -1.9420 -0.5745
  245MOL0     H33017   4.000   4.769   3.344  0.1709  0.3562  0.8930
  245MOL0     H33018   3.821   4.800   3.158 -1.0444  1.4658 -0.0056
  245MOL0     H33019   3.744   4.651   3.211 -0.9552  0.6959 -0.1739
  245MOL0     H33020   3.718   4.753   3.452  0.5693 -1.9708 -0.6808
  245MOL0     H33021   3.795   4.897   3.381 -0.8051 -0.0319  1.1296
  245MOL0     H33022   3.608   4.942   3.238  1.8914 -2.0259 -0.7186
  245MOL0     H33023   3.519   4.797   3.300 -0.8790 -1.5724  5.8148
  245MOL0     H33024   3.603   5.018   3.480  0.4464  0.7414 -3.1554
  245MOL0     H33025   3.524   4.868   3.525  0.8656  0.1455  0.6020
  245MOL0     H33026   3.459   5.200   3.298 -0.5826  2.2134  1.3475
  245MOL0     H33027   3.271   5.327   3.226  0.4273 -2.0557  0.2222
  245MOL0     H33028   3.120   5.249   3.225  1.8274  1.6606 -1.9007
  245MOL0     H33029   3.135   5.479   3.354 -2.8398 -0.5514 -0.4392
  245MOL0     H33030   3.238   5.402   3.472 -0.5455  2.0603  1.5732
  245MOL0     H33031   2.991   5.403   3.569 -1.1822 -1.1510  0.4323
  245MOL0     H33032   3.038   5.238   3.512 -0.6711 -1.2254 -2.2731
  245MOL0     H33033   2.924   5.274   3.298 -0.3941  2.6081 -1.2088
  245MOL0     H33034   2.898   5.435   3.335 -0.0661 -1.0298 -1.8715
  245MOL0     H33035   2.720   5.529   3.309  3.1765 -1.7972  1.2592
  245MOL0     H33036   2.479   5.694   3.246 -0.4063 -0.3523  0.8503
  245MOL0     H33037   2.509   5.790   3.399  2.3413 -1.5798  3.7308
  245MOL0     H33038   2.637   5.749   3.286 -2.1066  2.4436 -2.3600
  245MOL0     H33039   2.023   5.437   3.520  1.2569 -1.2041  1.2982
  245MOL0     H33040   1.817   5.541   3.478  1.1920 -0.8305 -1.2863
  245MOL0     H33041   1.725   5.783   3.380  2.4174 -0.6204  1.0746
  245MOL0     H33042   1.617   5.693   3.478  0.8617 -0.0463  0.1796
  245MOL0     H33043   1.508   5.912   3.565  2.3451  1.6786  2.0006
  245MOL0     H33044   1.610   6.014   3.470  0.6488  0.4740  0.9694
  245MOL0     H33045   1.409   5.802   3.355  1.2772 -1.2731  0.1149
  245MOL0     H33046   1.508   5.902   3.253 -2.8708  2.2941 -1.3134
  245MOL0     H33047   1.291   5.990   3.277  0.5762 -0.1465 -0.6924
  245MOL0     H33048   1.303   6.012   3.447  1.5424  0.1500  0.4111
  245MOL0     H33049   1.484   6.184   3.410  0.6927 -1.1289 -0.1792
  245MOL0     H33050   1.337   6.224   3.345  0.1331 -0.7726  1.2627
  245MOL0     H33051   1.570   6.096   3.196 -1.8114 -1.7270 -1.2345
  245MOL0     H33052   1.427   6.156   3.102  0.0668  2.4014  0.0174
  245MOL0     H33053   1.617   6.310   3.278  2.8483  1.3509 -1.3035
  245MOL0     H33054   1.469   6.380   3.217  2.4892  2.2515  1.6342
  245MOL0     H33055   1.639   6.444   3.073  1.2161 -0.5091  1.8877
  245MOL0     H33056   1.536   6.328   2.989 -1.3173  1.8329  1.0333
  245MOL0     H33057   1.956   5.883   3.713  4.4564 -0.0386  2.1232
  245MOL0     H33058   2.170   5.758   3.750 -1.4732  1.0225  1.3016
  245MOL0     H33059   2.397   5.381   3.639  0.0862  1.6109  0.5264
  245MOL0     H33060   2.588   5.252   3.622 -2.0353 -1.5344 -2.2145
  245MOL0     H33061   4.438   4.348   3.220  4.3798 -1.2957  0.3238
  245MOL0     H33062   4.631   4.236   3.138  2.1099 -0.0750 -1.9289
  245MOL0     H33063   5.087   4.208   3.005  2.2329 -0.8896  0.2309
  245MOL0     H33064   5.274   4.115   2.857 -0.9228  1.8525  3.3679
  245MOL0     H33065   5.387   3.956   2.756 -1.0256 -0.4995 -0.0028
  245MOL0     H33066   5.386   3.867   2.602 -0.5510 -1.5516  2.0993
  245MOL0     H33067   5.450   4.175   2.641 -1.4796  0.3715 -1.6023
  245MOL0     H33068   5.456   4.087   2.490  1.8130 -0.8310 -0.2206
  245MOL0     H33069   5.642   3.982   2.524 -1.6300 -1.0906 -0.7880
  245MOL0     H33070   5.606   3.961   2.700 -2.8522  2.0974  2.6502
  245MOL0     H33071   5.722   4.154   2.770  0.9020  1.6338 -0.2184
  245MOL0     H33072   5.672   4.244   2.623 -0.4592  0.6356  0.8431
  245MOL0     H33073   6.026   4.120   2.478 -0.9192  0.5817  0.0903
  245MOL0     H33074   4.980   3.984   2.573  0.6359 -0.8989  0.0487
  245MOL0     H33075   4.812   4.084   2.713 -0.3594  2.4944  0.8200
  246MOL0     O33076  10.346   6.413   6.626  0.5975 -0.1194 -0.2280
  246MOL0     C33077  10.374   6.405   6.504  0.8386  0.0443  0.2279
  246MOL0     O33078  10.291   6.358   6.397  0.4683  0.8541  0.3065
  246MOL0     C33079  10.171   6.296   6.419  0.1959 -0.9026 -0.3175
  246MOL0     C33080  10.147   6.213   6.535 -0.2384  0.1227  0.1926
  246MOL0     C33081  10.021   6.164   6.567  0.4641 -0.2965  0.0362
  246MOL0     C33082   9.910   6.188   6.488  0.6254  0.6821  0.3833
  246MOL0     O33083   9.785   6.135   6.506  0.0353  0.2579 -0.3925
  246MOL0     C33084   9.772   5.989   6.524 -0.2853  0.3163  0.0953
  246MOL0     C33085   9.680   5.935   6.416 -0.4462  0.5488  0.2996
  246MOL0     C33086   9.549   6.009   6.386 -0.2695 -1.3803  0.3279
  246MOL0     C33087   9.447   6.003   6.504  0.0616  0.1225 -0.3037
  246MOL0     C33088   9.324   6.091   6.475  0.4735  0.8229  0.1105
  246MOL0     C33089   9.202   6.013   6.424  0.0672 -0.1170  0.2435
  246MOL0     C33090   9.071   6.080   6.478 -0.0228 -0.4989 -0.3519
  246MOL0     C33091   8.962   6.027   6.391  1.0036 -0.1549  0.3076
  246MOL0     N33092   8.832   6.087   6.423  0.3524  0.1612  0.6208
  246MOL0     C33093   8.771   6.084   6.541 -0.3371 -0.1514 -1.2383
  246MOL0     C33094   8.666   6.175   6.528  0.0005 -0.2182  0.3176
  246MOL0     C33095   8.559   6.211   6.643  0.6626 -0.1983  0.4932
  246MOL0     C33096   8.414   6.209   6.586 -0.8531 -0.2976 -0.0182
  246MOL0     C33097   8.361   6.066   6.595 -0.4943  0.0623  0.4650
  246MOL0     C33098   8.218   6.052   6.534  0.0495 -0.5148 -0.5413
  246MOL0     O33099   8.171   5.922   6.546  0.2198  0.3160  0.2221
  246MOL0     C33100   8.043   5.887   6.516  0.0477 -0.8129  0.9966
  246MOL0     C33101   7.959   5.950   6.430 -0.0184 -1.2206  0.0422
  246MOL0     C33102   7.827   5.907   6.402 -0.4545  0.9024 -0.0036
  246MOL0     C33103   7.745   5.988   6.294 -0.0251  0.3573 -0.2759
  246MOL0     C33104   7.783   5.788   6.466  0.0357  0.3640  0.2067
  246MOL0     C33105   7.654   5.730   6.456 -0.1632 -0.4683  0.5073
  246MOL0     O33106   7.641   5.597   6.483  0.0452  0.1948 -0.0488
  246MOL0     C33107   7.525   5.533   6.508 -0.6324  0.0255 -0.1638
  246MOL0     C33108   7.399   5.571   6.460 -0.6541 -0.3675 -0.3282
  246MOL0     C33109   7.282   5.504   6.497  0.1826  0.3854 -0.0524
  246MOL0     C33110   7.283   5.390   6.582  0.0656 -0.5832 -0.0578
  246MOL0     O33111   7.173   5.307   6.609  0.4046 -0.4311  0.2852
  246MOL0     C33112   7.057   5.342   6.537 -0.3694 -0.0307  0.5231
  246MOL0     C33113   6.966   5.230   6.570 -1.1542  0.6964  2.1808
  246MOL0     C33114   6.826   5.218   6.501 -0.4131  0.0141  1.0917
  246MOL0     C33115   6.832   5.218   6.350 -0.5986 -0.0817  0.0224
  246MOL0     C33116   6.704   5.248   6.269  0.0981  0.2066 -0.2652
  246MOL0     C33117   6.588   5.148   6.287 -0.8888  0.3352 -0.5572
  246MOL0     C33118   6.474   5.173   6.186  0.3193  0.4524 -0.7827
  246MOL0     C33119   6.357   5.097   6.247 -0.5760 -0.4023 -0.1196
  246MOL0    Cl33120   6.207   5.108   6.146 -0.3818  0.2140 -0.2227
  246MOL0     C33121   7.411   5.357   6.628  0.5826 -0.3686  0.6843
  246MOL0     C33122   7.526   5.427   6.594  0.3818  0.2931 -0.0364
  246MOL0     O33123   7.563   5.812   6.425 -0.6669  0.5786 -0.2049
  246MOL0     C33124   7.873   5.728   6.555  0.2361  1.1017 -0.3000
  246MOL0     C33125   7.994   5.778   6.581  0.4931  0.3008 -0.6615
  246MOL0     N33126   8.674   6.240   6.409  0.2662 -0.1325  0.1480
  246MOL0     N33127   8.776   6.184   6.346 -0.1031  0.2745  0.1862
  246MOL0     C33128   9.931   6.270   6.377 -0.0596 -0.6080 -0.5204
  246MOL0     C33129  10.058   6.316   6.342  0.4840  0.5436 -0.1311
  246MOL0     C33130  10.506   6.452   6.465 -1.0581 -1.4880  0.5059
  246MOL0     C33131  10.532   6.501   6.333  0.2896 -0.7045 -0.2897
  246MOL0     C33132  10.656   6.553   6.304  0.3177  0.9303  0.4236
  246MOL0     C33133  10.764   6.556   6.400 -0.3571  0.0038 -0.2508
  246MOL0     O33134  10.895   6.600   6.389 -0.1208  0.5943  0.1174
  246MOL0     C33135  10.940   6.590   6.254 -0.2072  0.3366  0.5041
  246MOL0     C33136  11.093   6.606   6.244  0.4987 -0.2801 -0.1193
  246MOL0     C33137  11.135   6.736   6.317  0.3727 -0.8665 -0.0226
  246MOL0     C33138  11.264   6.796   6.277 -1.0436 -0.2825 -0.1893
  246MOL0     C33139  11.319   6.908   6.350 -0.6221  0.1687 -0.3855
  246MOL0     C33140  11.344   7.019   6.406  0.3399 -0.8788  0.0087
  246MOL0     C33141  10.731   6.520   6.524  0.0643  0.0135 -0.0993
  246MOL0     C33142  10.611   6.467   6.558  0.3709  0.1064 -0.2116
  246MOL0     H33143  10.226   6.194   6.607 -1.4210 -0.1374  1.4629
  246MOL0     H33144  10.010   6.101   6.655  3.0378  1.5613  1.8282
  246MOL0     H33145   9.865   5.933   6.511 -0.5533  0.0564 -0.7917
  246MOL0     H33146   9.740   5.955   6.623 -0.6987 -0.8771 -0.4257
  246MOL0     H33147   9.745   5.927   6.328  0.2284 -1.5828  0.9372
  246MOL0     H33148   9.656   5.833   6.448 -1.9184  1.1826  1.3195
  246MOL0     H33149   9.586   6.112   6.379  1.4679 -1.8100  2.2148
  246MOL0     H33150   9.505   5.992   6.287  0.3057  1.2896 -0.4780
  246MOL0     H33151   9.412   5.904   6.534  0.6146  0.8442  3.1215
  246MOL0     H33152   9.488   6.049   6.594  0.1997 -0.5726 -0.0109
  246MOL0     H33153   9.306   6.155   6.561  5.0476  2.6147 -0.0078
  246MOL0     H33154   9.357   6.175   6.414 -0.5388  2.6534  1.9558
  246MOL0     H33155   9.207   6.018   6.315  3.6489 -1.1508  0.2454
  246MOL0     H33156   9.193   5.910   6.462 -0.0932 -1.3502 -2.8317
  246MOL0     H33157   9.057   6.061   6.585  0.4516  4.1379  0.7439
  246MOL0     H33158   9.071   6.189   6.477  4.1256 -0.2871  1.8057
  246MOL0     H33159   8.939   5.923   6.417 -0.3381  0.2436  0.8337
  246MOL0     H33160   8.976   6.028   6.282  1.9652  1.7922  0.4109
  246MOL0     H33161   8.789   6.024   6.629 -5.1791  1.0940  0.9422
  246MOL0     H33162   8.556   6.141   6.727 -2.8937 -0.8426  0.0031
  246MOL0     H33163   8.597   6.306   6.683  1.4863 -0.8405  1.2751
  246MOL0     H33164   8.395   6.249   6.486 -3.4085 -0.9253  0.1608
  246MOL0     H33165   8.349   6.275   6.644 -1.0948 -0.4789 -0.0853
  246MOL0     H33166   8.349   6.031   6.697 -0.8734  2.1098  1.1816
  246MOL0     H33167   8.427   5.993   6.548  0.3515  1.1765 -0.1275
  246MOL0     H33168   8.212   6.082   6.428 -4.2083 -2.3541 -1.0250
  246MOL0     H33169   8.158   6.121   6.594  1.7915 -1.0904  2.0112
  246MOL0     H33170   8.001   6.037   6.381 -0.0032 -0.9980  0.4456
  246MOL0     H33171   7.802   6.073   6.256 -1.5042  0.4505 -2.4895
  246MOL0     H33172   7.729   5.928   6.204  0.5044  0.0402 -0.1667
  246MOL0     H33173   7.647   6.024   6.327 -1.0781 -0.0816 -2.7295
  246MOL0     H33174   7.388   5.653   6.389  1.5553 -0.1309 -0.4691
  246MOL0     H33175   7.186   5.540   6.462 -0.1698  0.3522  0.8640
  246MOL0     H33176   7.016   5.434   6.580 -0.1517  0.9991 -1.3867
  246MOL0     H33177   7.084   5.356   6.432 -0.4042  1.3683  0.6861
  246MOL0     H33178   7.021   5.138   6.553 -2.7342 -0.0511  0.8234
  246MOL0     H33179   6.946   5.231   6.677 -0.6740 -0.9950  2.3012
  246MOL0     H33180   6.771   5.310   6.520  0.5904  0.5993  1.2564
  246MOL0     H33181   6.771   5.132   6.540 -0.4278 -0.7952 -0.6113
  246MOL0     H33182   6.909   5.289   6.319  1.3360 -0.4726  3.4654
  246MOL0     H33183   6.871   5.118   6.326 -0.4219  0.0554 -0.2673
  246MOL0     H33184   6.741   5.238   6.166  0.6119  0.0095 -0.0672
  246MOL0     H33185   6.669   5.350   6.284  2.7775  1.4109 -1.4895
  246MOL0     H33186   6.616   5.042   6.288 -1.9442 -0.0363  2.8015
  246MOL0     H33187   6.549   5.162   6.388 -0.5046 -0.2500 -0.3270
  246MOL0     H33188   6.505   5.138   6.087  0.2433  2.2559 -1.4980
  246MOL0     H33189   6.441   5.277   6.179  0.3743  0.3643 -3.1181
  246MOL0     H33190   6.334   5.136   6.347  0.7088  1.4039 -0.4730
  246MOL0     H33191   6.376   4.991   6.266 -2.3990 -0.5249  1.3356
  246MOL0     H33192   7.411   5.273   6.697 -1.6980 -1.5531 -0.6444
  246MOL0     H33193   7.622   5.392   6.630 -0.1381  0.1347  1.2368
  246MOL0     H33194   7.847   5.647   6.622  1.2598 -1.0813 -2.3645
  246MOL0     H33195   8.047   5.714   6.652 -0.0854  0.7676  0.2090
  246MOL0     H33196   9.854   6.292   6.303 -0.6028 -4.2201 -1.1865
  246MOL0     H33197  10.056   6.370   6.248  0.8598  0.7457 -0.0216
  246MOL0     H33198  10.448   6.522   6.267  0.4647  1.7085  0.1637
  246MOL0     H33199  10.679   6.569   6.199  1.0650 -0.1097  0.4170
  246MOL0     H33200  10.913   6.500   6.199  2.0276  0.8050 -1.5236
  246MOL0     H33201  10.898   6.680   6.207 -1.3153 -0.5569 -0.2414
  246MOL0     H33202  11.112   6.618   6.137  0.9824 -3.7537 -0.5244
  246MOL0     H33203  11.141   6.517   6.284  0.5916 -1.1959 -2.1973
  246MOL0     H33204  11.138   6.702   6.421  0.4776  0.0100  0.2739
  246MOL0     H33205  11.066   6.818   6.294  1.1040 -0.7240 -1.8206
  246MOL0     H33206  11.277   6.811   6.170  1.5093 -0.1939  0.0739
  246MOL0     H33207  11.332   6.712   6.294 -0.4988  0.2643  0.4358
  246MOL0     H33208  11.354   7.115   6.453 -3.6740  0.7369 -1.9330
  246MOL0     H33209  10.816   6.527   6.590  1.0149 -3.1390 -0.8157
  246MOL0     H33210  10.598   6.439   6.662 -0.9158  1.0452 -0.0922
  247MOL0     O33211   9.930   5.136   2.276  1.0036 -0.2878  0.0524
  247MOL0     C33212  10.016   5.099   2.354 -0.2719  0.5951  0.3829
  247MOL0     O33213  10.000   5.016   2.465  0.2549 -0.5328 -0.2058
  247MOL0     C33214   9.871   4.995   2.518  0.0799  0.5229 -0.2342
  247MOL0     C33215   9.759   5.081   2.524 -0.6911 -0.0693 -0.0885
  247MOL0     C33216   9.637   5.041   2.584 -0.7702 -0.1187 -0.4249
  247MOL0     C33217   9.618   4.915   2.638 -0.3451  0.7647 -0.5071
  247MOL0     O33218   9.512   4.869   2.708  0.2839  0.0459 -0.3450
  247MOL0     C33219   9.393   4.946   2.700  0.1234 -0.6621  0.0762
  247MOL0     C33220   9.289   4.866   2.773  0.4981 -0.0093 -0.3693
  247MOL0     C33221   9.146   4.932   2.785  0.3666  0.0595 -0.4304
  247MOL0     C33222   9.051   4.845   2.860 -0.0372  0.4993 -0.1359
  247MOL0     C33223   8.924   4.922   2.887  0.6813 -0.0057  0.4598
  247MOL0     C33224   8.828   4.854   2.992  0.1801  0.2696  0.1775
  247MOL0     C33225   8.696   4.936   3.017  0.6787  0.1455 -0.2806
  247MOL0     C33226   8.714   5.085   3.043  0.7241  0.0333 -0.3693
  247MOL0     N33227   8.597   5.135   3.121 -0.0237 -0.9333 -0.4350
  247MOL0     C33228   8.603   5.184   3.257  0.1885 -0.6281 -0.8366
  247MOL0     C33229   8.474   5.195   3.305 -0.3502 -0.0752 -0.1581
  247MOL0     C33230   8.427   5.224   3.449 -0.6427  0.3776 -0.0825
  247MOL0     C33231   8.276   5.245   3.469  0.2846  0.0017  1.3724
  247MOL0     C33232   8.246   5.296   3.614 -0.0690 -0.3428  0.7403
  247MOL0     C33233   8.098   5.329   3.630  0.4544  0.2832 -0.0923
  247MOL0     O33234   8.025   5.211   3.649 -1.0862 -0.5919 -0.3889
  247MOL0     C33235   7.883   5.203   3.644 -0.5506  0.3575 -0.2175
  247MOL0     C33236   7.811   5.080   3.655  0.1941 -0.4951 -0.6470
  247MOL0     C33237   7.670   5.086   3.661  0.9356 -0.9826  0.1814
  247MOL0     C33238   7.607   4.954   3.700  0.3618  0.4674 -0.2745
  247MOL0     C33239   7.591   5.203   3.648  0.3213 -0.9158 -0.7586
  247MOL0     C33240   7.439   5.208   3.663 -1.1584  1.0426  0.3666
  247MOL0     O33241   7.395   5.334   3.689 -0.2479  0.3463  0.1412
  247MOL0     C33242   7.265   5.360   3.682 -0.3282  0.8912 -0.0707
  247MOL0     C33243   7.214   5.470   3.610  0.5193 -0.0545 -0.5980
  247MOL0     C33244   7.085   5.513   3.622 -0.0547 -0.1291  1.3409
  247MOL0     C33245   6.994   5.445   3.693  0.8987  0.6425  1.0530
  247MOL0     O33246   6.865   5.493   3.687  0.0329 -0.1207 -0.7137
  247MOL0     C33247   6.769   5.449   3.788  1.1179  0.0907 -0.5518
  247MOL0     C33248   6.671   5.563   3.796 -0.3462 -1.2822  0.1045
  247MOL0     C33249   6.576   5.559   3.909 -0.6467 -0.0199 -0.0058
  247MOL0     C33250   6.462   5.455   3.908 -0.1677  0.2119  0.6334
  247MOL0     C33251   6.341   5.471   3.806 -0.2194 -0.7505  0.1626
  247MOL0     C33252   6.229   5.383   3.854  0.0888 -0.0739  0.9860
  247MOL0     C33253   6.106   5.399   3.753 -0.4468  0.5014 -0.5574
  247MOL0     C33254   6.103   5.285   3.644 -0.4823 -0.7486 -0.3305
  247MOL0    Cl33255   5.975   5.315   3.531 -0.2413  0.0524 -0.0288
  247MOL0     C33256   7.038   5.336   3.769  0.7535  0.9011  0.5476
  247MOL0     C33257   7.177   5.295   3.767  0.1971 -0.6620  0.7855
  247MOL0     O33258   7.381   5.104   3.656 -0.6013  0.3308 -0.0638
  247MOL0     C33259   7.666   5.318   3.632  0.5279  0.6983 -0.5451
  247MOL0     C33260   7.809   5.319   3.631  0.0540 -0.1519  0.3376
  247MOL0     N33261   8.391   5.163   3.192 -0.5391  1.0031 -0.0111
  247MOL0     N33262   8.465   5.120   3.086  0.4935 -0.3454  0.4550
  247MOL0     C33263   9.733   4.828   2.636  0.5705 -0.2755  0.1382
  247MOL0     C33264   9.853   4.865   2.571 -0.4265 -0.3749  0.5327
  247MOL0     C33265  10.153   5.112   2.307 -0.2533  1.1244  0.4666
  247MOL0     C33266  10.182   5.216   2.219  0.5520 -0.4696 -0.4131
  247MOL0     C33267  10.314   5.243   2.182 -0.0554  0.8726 -1.2792
  247MOL0     C33268  10.423   5.165   2.225 -0.7275  0.1467 -0.4176
  247MOL0     O33269  10.557   5.185   2.197  0.1716  0.7810 -0.1131
  247MOL0     C33270  10.618   5.309   2.211  0.1561  0.3044 -0.4961
  247MOL0     C33271  10.715   5.298   2.324  0.0187 -0.4948 -0.4014
  247MOL0     C33272  10.859   5.249   2.287  0.9691  0.0110 -0.2195
  247MOL0     C33273  10.966   5.318   2.379  0.3338 -0.3096  0.7909
  247MOL0     C33274  11.088   5.238   2.379  0.0296 -0.2366  0.5534
  247MOL0     C33275  11.193   5.179   2.365  0.4520  0.6257  0.5631
  247MOL0     C33276  10.397   5.058   2.310 -0.1795 -0.3565  0.6329
  247MOL0     C33277  10.266   5.031   2.348 -0.3695 -0.0839 -0.3153
  247MOL0     H33278   9.776   5.182   2.487  2.1179 -0.5108 -0.2576
  247MOL0     H33279   9.549   5.104   2.580 -1.0694 -0.5033 -4.7789
  247MOL0     H33280   9.413   5.041   2.750  2.0319 -1.4566  0.9347
  247MOL0     H33281   9.349   4.972   2.604  1.9070  1.8852 -0.1320
  247MOL0     H33282   9.287   4.767   2.727 -0.1769 -0.7395  1.1645
  247MOL0     H33283   9.322   4.845   2.875  1.1037 -0.7305 -0.7012
  247MOL0     H33284   9.156   5.030   2.834  3.2886 -1.9427  3.5337
  247MOL0     H33285   9.104   4.945   2.684 -0.4087 -1.6759 -0.3597
  247MOL0     H33286   9.035   4.748   2.811  3.7604  0.5102 -1.7888
  247MOL0     H33287   9.105   4.816   2.950  2.8622 -1.2140 -2.2264
  247MOL0     H33288   8.949   5.025   2.912  0.0116 -0.0316  1.2527
  247MOL0     H33289   8.864   4.921   2.796 -0.5836 -0.1204  1.2767
  247MOL0     H33290   8.782   4.759   2.961 -3.0102  1.4536  0.9400
  247MOL0     H33291   8.877   4.826   3.085  1.6095 -0.1746 -0.6746
  247MOL0     H33292   8.624   4.923   2.936 -1.0524  0.5937  1.1089
  247MOL0     H33293   8.643   4.877   3.093 -0.2573 -1.0767 -1.8351
  247MOL0     H33294   8.724   5.137   2.948 -0.2485  2.2009  0.6502
  247MOL0     H33295   8.803   5.087   3.107  1.0767 -1.5325 -0.7638
  247MOL0     H33296   8.696   5.210   3.307 -1.4610  1.1408  1.5116
  247MOL0     H33297   8.470   5.157   3.524  1.9108 -1.1483 -2.7328
  247MOL0     H33298   8.466   5.325   3.467 -0.8205  0.8038 -1.9483
  247MOL0     H33299   8.217   5.155   3.445 -0.7224  0.9251  0.2155
  247MOL0     H33300   8.243   5.314   3.391 -1.4204 -2.1034  0.0994
  247MOL0     H33301   8.304   5.385   3.640  4.4823 -2.7405  0.0034
  247MOL0     H33302   8.265   5.220   3.691 -0.4576  1.1812  2.3975
  247MOL0     H33303   8.059   5.389   3.548 -0.9767  2.0060  1.7527
  247MOL0     H33304   8.074   5.389   3.718 -2.2459 -0.2407 -0.3788
  247MOL0     H33305   7.871   4.991   3.669  1.2655  0.2090 -0.6678
  247MOL0     H33306   7.554   4.969   3.794  1.1086  1.9697 -0.0552
  247MOL0     H33307   7.542   4.914   3.621  1.1284 -2.8327  0.6264
  247MOL0     H33308   7.676   4.873   3.725  0.2560  0.7512  0.9865
  247MOL0     H33309   7.264   5.532   3.536  0.1771  1.1259  0.1370
  247MOL0     H33310   7.063   5.602   3.564  0.1134 -2.3806 -2.5269
  247MOL0     H33311   6.722   5.352   3.769 -1.0681  1.0306 -0.2693
  247MOL0     H33312   6.821   5.439   3.883  0.5330 -0.0458 -0.2401
  247MOL0     H33313   6.733   5.652   3.811  0.0913 -1.7221  0.9913
  247MOL0     H33314   6.624   5.572   3.698  0.8481 -1.4127 -0.5007
  247MOL0     H33315   6.534   5.660   3.912 -1.2528 -0.2645 -0.1323
  247MOL0     H33316   6.623   5.536   4.005 -0.4476 -2.2594 -0.5849
  247MOL0     H33317   6.519   5.362   3.899  0.8672  0.8484  0.4041
  247MOL0     H33318   6.415   5.453   4.007 -0.9885 -1.1051  0.2383
  247MOL0     H33319   6.372   5.443   3.705 -2.6677 -1.3042 -0.5011
  247MOL0     H33320   6.306   5.574   3.808 -0.9084 -0.8790 -2.2433
  247MOL0     H33321   6.273   5.285   3.837  1.3274  0.2055  2.3673
  247MOL0     H33322   6.213   5.408   3.960 -0.8901 -0.3237  0.9026
  247MOL0     H33323   6.118   5.491   3.694  2.1258  1.1068  0.7514
  247MOL0     H33324   6.013   5.409   3.810 -1.0553  0.1748 -1.4798
  247MOL0     H33325   6.090   5.184   3.683  0.4465 -0.5125  0.6260
  247MOL0     H33326   6.197   5.277   3.589  0.2028  1.2399  0.4777
  247MOL0     H33327   6.969   5.269   3.820 -2.3957  3.3389 -0.1954
  247MOL0     H33328   7.210   5.207   3.821  5.2998 -0.8814 -2.1109
  247MOL0     H33329   7.613   5.413   3.626 -1.4335 -0.1089  2.0937
  247MOL0     H33330   7.857   5.415   3.621 -1.5577  0.8389  1.6221
  247MOL0     H33331   9.721   4.727   2.674 -3.2693 -0.1223 -0.2787
  247MOL0     H33332   9.922   4.781   2.565 -0.1047 -0.0421 -0.8310
  247MOL0     H33333  10.107   5.274   2.166  0.5991 -1.1054 -1.1993
  247MOL0     H33334  10.338   5.330   2.122  1.4782 -0.2860 -2.4157
  247MOL0     H33335  10.673   5.330   2.119  0.9367  1.0817  0.1215
  247MOL0     H33336  10.545   5.387   2.236 -0.7919 -0.3165 -1.2775
  247MOL0     H33337  10.686   5.229   2.404  0.7975 -1.0907 -0.6230
  247MOL0     H33338  10.721   5.400   2.364 -1.9842 -1.3805  2.4290
  247MOL0     H33339  10.876   5.278   2.183  0.0665 -1.3747 -0.7802
  247MOL0     H33340  10.870   5.141   2.291 -0.8674 -0.3232 -2.0537
  247MOL0     H33341  10.925   5.319   2.480 -1.8467  0.8355 -0.0365
  247MOL0     H33342  10.977   5.424   2.355 -0.0274  0.4033  3.4724
  247MOL0     H33343  11.290   5.137   2.352  0.5091  0.8650  0.1832
  247MOL0     H33344  10.477   4.995   2.347  2.3868  0.9524 -2.2120
  247MOL0     H33345  10.264   4.946   2.416  2.6743  0.2062  0.2780
  248MOL0     O33346   7.950   7.395  10.246  0.7731  0.0916 -0.4467
  248MOL0     C33347   7.973   7.309  10.337 -0.0006 -0.1953 -0.0898
  248MOL0     O33348   7.882   7.251  10.415 -0.8249 -0.0002 -0.0395
  248MOL0     C33349   7.749   7.297  10.412 -0.3100 -0.8472 -0.5228
  248MOL0     C33350   7.648   7.219  10.360  0.2599  0.3847 -0.9423
  248MOL0     C33351   7.511   7.270  10.368 -1.0375  0.2272  0.1264
  248MOL0     C33352   7.484   7.400  10.416  0.7287  0.3782  0.2611
  248MOL0     O33353   7.354   7.461  10.414 -0.8398 -0.1148  0.1066
  248MOL0     C33354   7.245   7.387  10.367 -0.4768 -0.2601  0.2264
  248MOL0     C33355   7.141   7.495  10.349 -0.1033  1.0323  0.2254
  248MOL0     C33356   6.993   7.435  10.338 -0.8780  0.1940 -0.4054
  248MOL0     C33357   6.925   7.388  10.467  1.4614  0.0597 -0.6488
  248MOL0     C33358   6.787   7.316  10.445 -0.5870 -0.1401  0.7536
  248MOL0     C33359   6.677   7.416  10.417 -0.0516  0.6494  0.2479
  248MOL0     C33360   6.537   7.340  10.405 -0.2147  0.8215 -0.2716
  248MOL0     C33361   6.417   7.440  10.390 -0.3336  0.1389 -0.6869
  248MOL0     N33362   6.283   7.371  10.404  0.0613  0.1164 -1.1360
  248MOL0     C33363   6.202   7.375  10.512  0.0176  0.2748 -0.9680
  248MOL0     C33364   6.098   7.293  10.491  0.5849 -0.2586 -0.7988
  248MOL0     C33365   5.983   7.261  10.584  0.1057 -0.0231  0.1585
  248MOL0     C33366   5.868   7.352  10.583 -0.8483  0.0123  0.4201
  248MOL0     C33367   5.751   7.292  10.651 -0.1875 -0.0260 -1.1443
  248MOL0     C33368   5.646   7.224  10.554 -0.2448  0.4484  0.0706
  248MOL0     O33369   5.588   7.120  10.627 -0.2732 -0.2203  0.2040
  248MOL0     C33370   5.464   7.138  10.684  0.2363  0.4009  1.1105
  248MOL0     C33371   5.392   7.016  10.703  0.7356 -0.0126  0.3709
  248MOL0     C33372   5.254   7.017  10.743 -0.1712  0.1330  0.1142
  248MOL0     C33373   5.180   6.882  10.762 -0.3040 -0.6787  0.3008
  248MOL0     C33374   5.183   7.140  10.747 -0.5318 -0.5754 -0.1855
  248MOL0     C33375   5.031   7.158  10.761 -0.6983  0.0134 -0.0034
  248MOL0     O33376   4.982   7.287  10.775  0.3279 -0.4566 -0.2542
  248MOL0     C33377   4.848   7.298  10.801  0.6101  0.7267  0.2386
  248MOL0     C33378   4.775   7.391  10.723  0.4394  0.2793 -0.3922
  248MOL0     C33379   4.641   7.408  10.754 -0.7099  0.3584  0.5218
  248MOL0     C33380   4.582   7.345  10.864 -0.4511 -0.5456  0.1014
  248MOL0     O33381   4.444   7.352  10.885 -0.5768 -0.2220  0.1485
  248MOL0     C33382   4.356   7.374  10.784  0.5007  0.5735  0.2933
  248MOL0     C33383   4.209   7.336  10.828  0.0607 -0.2973  0.2442
  248MOL0     C33384   4.103   7.408  10.747 -0.2766  0.9459 -0.1865
  248MOL0     C33385   3.964   7.334  10.733 -0.5815  0.1893 -0.7587
  248MOL0     C33386   3.865   7.427  10.661 -0.3426  1.1112 -0.0199
  248MOL0     C33387   3.729   7.365  10.614 -1.3618 -0.1498 -0.0005
  248MOL0     C33388   3.645   7.482  10.555  0.5245  0.7635 -0.6168
  248MOL0     C33389   3.534   7.404  10.483  0.3972 -0.0915  0.2753
  248MOL0    Cl33390   3.582   7.308  10.330  0.1434 -0.3585 -0.1818
  248MOL0     C33391   4.664   7.269  10.946 -0.0621 -0.0357  0.3052
  248MOL0     C33392   4.798   7.245  10.918  0.0157 -1.0848 -0.0278
  248MOL0     O33393   4.967   7.060  10.738 -0.3926  0.5838 -0.5319
  248MOL0     C33394   5.263   7.263  10.737  1.1465  0.2060  0.7892
  248MOL0     C33395   5.395   7.265  10.694  0.3037 -0.3659  0.5414
  248MOL0     N33396   6.111   7.235  10.366 -0.6504 -0.2914  0.1597
  248MOL0     N33397   6.226   7.279  10.316 -0.1431 -0.0706  0.4906
  248MOL0     C33398   7.592   7.473  10.462  1.0080 -0.9024  0.2810
  248MOL0     C33399   7.724   7.430  10.459 -0.1345  0.5833  0.5136
  248MOL0     C33400   8.115   7.277  10.370 -0.1972  0.3550 -0.1995
  248MOL0     C33401   8.151   7.164  10.447  0.3419  0.0755 -0.1194
  248MOL0     C33402   8.287   7.134  10.467 -0.9899  0.0641 -0.2702
  248MOL0     C33403   8.387   7.207  10.401 -0.2167 -0.5661 -0.2149
  248MOL0     O33404   8.521   7.167  10.395  0.1097  0.0632  0.8148
  248MOL0     C33405   8.557   7.044  10.463 -0.9203 -0.2849 -0.5505
  248MOL0     C33406   8.709   7.015  10.449  0.0911 -0.0541 -0.8244
  248MOL0     C33407   8.751   6.909  10.556  0.3150 -0.1799  0.1370
  248MOL0     C33408   8.899   6.876  10.544 -0.1719  0.5894  0.5638
  248MOL0     C33409   8.938   6.789  10.428 -0.3542  0.3034  0.0633
  248MOL0     C33410   8.976   6.710  10.341  0.7674  0.0001 -0.0792
  248MOL0     C33411   8.350   7.315  10.322 -0.2819  0.8069 -0.0074
  248MOL0     C33412   8.215   7.357  10.316 -0.1016  0.0882 -0.8901
  248MOL0     H33413   7.670   7.116  10.335  0.0960 -0.7521  2.8930
  248MOL0     H33414   7.428   7.206  10.342 -0.8203  0.1919 -0.4999
  248MOL0     H33415   7.275   7.344  10.271  0.7602 -0.4049  0.6623
  248MOL0     H33416   7.207   7.309  10.434 -0.2104 -1.2197 -0.7118
  248MOL0     H33417   7.145   7.563  10.435  1.9698  0.4073  0.6770
  248MOL0     H33418   7.170   7.550  10.260  2.7730  0.0670  0.4808
  248MOL0     H33419   6.922   7.509  10.299 -0.6589  0.6229  0.0036
  248MOL0     H33420   6.988   7.358  10.261  0.7014 -1.5951  1.1817
  248MOL0     H33421   6.985   7.337  10.543 -1.0199  3.3828  4.0756
  248MOL0     H33422   6.910   7.479  10.526 -1.4569 -1.0096  0.4203
  248MOL0     H33423   6.801   7.244  10.364 -0.0575  1.2786 -0.4464
  248MOL0     H33424   6.759   7.251  10.528  2.5387 -2.8784 -0.1250
  248MOL0     H33425   6.665   7.488  10.498  3.1388  2.1304 -0.4538
  248MOL0     H33426   6.692   7.471  10.324  1.0817  1.1713  0.7285
  248MOL0     H33427   6.530   7.275  10.317  1.9016 -1.1777  0.9038
  248MOL0     H33428   6.529   7.286  10.500 -3.1095 -0.2434 -1.0103
  248MOL0     H33429   6.425   7.493  10.295 -3.9885 -1.7923 -2.2456
  248MOL0     H33430   6.427   7.505  10.478 -0.5025  0.0091 -0.5730
  248MOL0     H33431   6.223   7.427  10.605 -5.6048 -0.3607  1.0509
  248MOL0     H33432   5.955   7.156  10.573  0.5595  0.0177 -1.7808
  248MOL0     H33433   6.041   7.279  10.675  0.1549  0.4988  0.0316
  248MOL0     H33434   5.854   7.368  10.476 -0.4425 -3.6804 -0.3087
  248MOL0     H33435   5.901   7.441  10.638 -0.1508 -0.1907  0.3412
  248MOL0     H33436   5.688   7.369  10.697  0.1094 -0.2955 -0.2522
  248MOL0     H33437   5.775   7.210  10.720 -1.0223  0.5936 -0.0808
  248MOL0     H33438   5.695   7.191  10.461  0.2682  2.4800 -0.4327
  248MOL0     H33439   5.569   7.292  10.516 -1.8562 -0.7057  1.1770
  248MOL0     H33440   5.446   6.923  10.708 -0.1754 -0.5074  5.2448
  248MOL0     H33441   5.128   6.857  10.669 -0.2639 -1.0785  0.3830
  248MOL0     H33442   5.264   6.815  10.781  0.9677  0.9771  0.6731
  248MOL0     H33443   5.100   6.868  10.836  1.5043 -0.6374  2.3384
  248MOL0     H33444   4.819   7.454  10.646 -1.7049 -1.6508 -3.3698
  248MOL0     H33445   4.573   7.472  10.700  0.3448  2.0140  1.0964
  248MOL0     H33446   4.358   7.482  10.766  1.6145  0.5986  0.5189
  248MOL0     H33447   4.365   7.318  10.691 -2.2638  0.9901 -0.3354
  248MOL0     H33448   4.203   7.227  10.818  1.4246 -1.0640  5.1138
  248MOL0     H33449   4.192   7.375  10.928 -0.7012  3.3644 -1.1318
  248MOL0     H33450   4.133   7.426  10.643 -2.4883  2.6545 -0.6039
  248MOL0     H33451   4.079   7.502  10.797 -0.1040 -0.2776  2.3602
  248MOL0     H33452   3.975   7.238  10.683 -4.8577  0.2612 -2.2104
  248MOL0     H33453   3.938   7.310  10.837  0.9961 -3.1157 -1.0158
  248MOL0     H33454   3.915   7.451  10.567 -0.2717 -0.8200 -0.5168
  248MOL0     H33455   3.845   7.513  10.725 -4.1034  1.2877 -1.2053
  248MOL0     H33456   3.749   7.286  10.541  1.3221 -0.0183  0.4721
  248MOL0     H33457   3.684   7.331  10.708 -0.9033 -0.1893  0.2048
  248MOL0     H33458   3.699   7.542  10.482  0.8601 -0.6665 -1.5940
  248MOL0     H33459   3.594   7.544  10.629  2.5704  0.4594  1.1443
  248MOL0     H33460   3.461   7.479  10.450  0.6757 -0.5459 -1.4663
  248MOL0     H33461   3.491   7.337  10.558 -2.0404 -1.4756 -2.1920
  248MOL0     H33462   4.601   7.220  11.019 -1.3101  2.1103  0.7596
  248MOL0     H33463   4.861   7.183  10.982 -1.1074 -0.4437  1.7644
  248MOL0     H33464   5.205   7.354  10.744  0.3781 -0.2759  0.7898
  248MOL0     H33465   5.443   7.358  10.669 -2.7007  0.8407 -1.3366
  248MOL0     H33466   7.566   7.571  10.500  1.0665 -0.4951 -0.7062
  248MOL0     H33467   7.811   7.491  10.477  0.0968  1.0537 -1.9444
  248MOL0     H33468   8.071   7.107  10.493  0.5247  0.8184  1.1607
  248MOL0     H33469   8.309   7.044  10.523 -1.1616  1.1538  1.6242
  248MOL0     H33470   8.532   7.049  10.569  1.4340  1.7411 -0.0018
  248MOL0     H33471   8.500   6.961  10.420 -0.3990 -0.9741  0.0606
  248MOL0     H33472   8.767   7.107  10.462 -1.1825  0.7496 -0.6330
  248MOL0     H33473   8.721   6.969  10.350 -0.1673 -0.2521 -0.7664
  248MOL0     H33474   8.695   6.820  10.527 -0.9379  1.5293 -3.3009
  248MOL0     H33475   8.725   6.942  10.657 -0.0362  0.3445 -0.1217
  248MOL0     H33476   8.938   6.830  10.635 -0.8516  1.7218  1.4540
  248MOL0     H33477   8.950   6.973  10.542 -1.2830  1.2590 -3.1815
  248MOL0     H33478   8.998   6.642  10.260 -1.5638 -2.1845  0.9813
  248MOL0     H33479   8.423   7.366  10.259 -1.5026  2.4946 -0.1341
  248MOL0     H33480   8.195   7.451  10.264 -0.2136 -0.2580 -1.4866
  249MOL0     O33481   5.198   0.479   2.255  0.4915 -0.3281  0.1258
  249MOL0     C33482   5.277   0.442   2.338  0.9821  0.4141  0.0178
  249MOL0     O33483   5.253   0.423   2.479 -0.2262  0.5820 -0.1190
  249MOL0     C33484   5.133   0.428   2.540  0.7690  0.6179  0.0162
  249MOL0     C33485   5.134   0.462   2.675  0.9579  1.2433 -0.0637
  249MOL0     C33486   5.017   0.453   2.754 -0.5549  0.6012  0.1417
  249MOL0     C33487   4.904   0.408   2.699 -0.1830  0.0749  0.8859
  249MOL0     O33488   4.791   0.405   2.777 -0.5374 -0.0104 -0.0686
  249MOL0     C33489   4.664   0.368   2.715 -0.9867  0.9480  0.8146
  249MOL0     C33490   4.545   0.394   2.804 -0.0248  0.4198 -0.1071
  249MOL0     C33491   4.540   0.307   2.925  0.2228  0.0960 -0.9210
  249MOL0     C33492   4.431   0.357   3.012  0.4959 -0.2228 -0.3767
  249MOL0     C33493   4.405   0.261   3.128  0.8236  0.3024  0.3666
  249MOL0     C33494   4.340   0.326   3.251  0.0636 -0.3112 -0.7990
  249MOL0     C33495   4.300   0.225   3.351 -0.6519  0.4515 -0.1370
  249MOL0     C33496   4.267   0.296   3.488 -0.0852  0.4964  0.2277
  249MOL0     N33497   4.171   0.221   3.563 -0.2501 -0.0709  0.5843
  249MOL0     C33498   4.136   0.092   3.554 -0.5874  0.0502  0.8787
  249MOL0     C33499   4.045   0.073   3.642  1.2347  1.0593  1.3174
  249MOL0     C33500   3.960  -0.056   3.663 -0.1082  0.2065 -0.6022
  249MOL0     C33501   4.041  -0.171   3.726 -0.1709  0.6817  0.3047
  249MOL0     C33502   3.962  -0.292   3.776  0.2384 -0.0758 -0.1626
  249MOL0     C33503   3.842  -0.247   3.875 -0.1012 -0.6496  0.1807
  249MOL0     O33504   3.756  -0.360   3.890  0.1505  0.0704 -0.0168
  249MOL0     C33505   3.811  -0.479   3.942 -0.5393  0.8486 -0.3504
  249MOL0     C33506   3.741  -0.593   3.904  0.1479 -0.5295 -0.0389
  249MOL0     C33507   3.793  -0.725   3.935 -0.3588 -0.5014  0.8110
  249MOL0     C33508   3.719  -0.845   3.872 -0.0437 -1.2418  0.4539
  249MOL0     C33509   3.913  -0.738   4.012 -0.0977  0.2553  0.0194
  249MOL0     C33510   3.981  -0.865   4.037  0.0826 -0.2131  0.2943
  249MOL0     O33511   3.974  -0.965   3.943  0.1539 -0.0246  0.1516
  249MOL0     C33512   4.062  -1.071   3.934 -0.4570  0.2071  0.3763
  249MOL0     C33513   4.019  -1.191   3.874  0.4259  0.4453 -0.4662
  249MOL0     C33514   4.108  -1.302   3.863  0.2744  0.5673  0.2872
  249MOL0     C33515   4.238  -1.291   3.901  0.4480  0.7514 -0.4217
  249MOL0     O33516   4.309  -1.402   3.903  0.0446 -0.6456  0.1672
  249MOL0     C33517   4.348  -1.462   4.031  0.8180  0.0706 -0.0904
  249MOL0     C33518   4.230  -1.525   4.106  0.5331 -0.6513 -0.5968
  249MOL0     C33519   4.166  -1.639   4.034  0.0996 -0.2133 -0.7132
  249MOL0     C33520   4.040  -1.707   4.114 -0.9946 -0.4682 -0.3817
  249MOL0     C33521   3.937  -1.774   4.022  0.6483  0.5443  0.4640
  249MOL0     C33522   3.870  -1.679   3.927 -0.3196 -0.4399  0.4765
  249MOL0     C33523   3.807  -1.557   3.993 -0.6490 -0.5458 -0.6923
  249MOL0     C33524   3.693  -1.506   3.911  0.5589  0.0331  0.4039
  249MOL0    Cl33525   3.767  -1.440   3.757  0.0515  0.2745 -0.2202
  249MOL0     C33526   4.281  -1.172   3.954 -0.4223 -0.7432 -0.0523
  249MOL0     C33527   4.196  -1.064   3.966 -0.4804  0.7618 -0.3749
  249MOL0     O33528   4.051  -0.871   4.138  0.2284  0.5441  0.2259
  249MOL0     C33529   3.969  -0.615   4.061 -0.6185  0.3861 -0.9531
  249MOL0     C33530   3.924  -0.489   4.018  0.1375 -0.4562  0.1822
  249MOL0     N33531   4.018   0.195   3.700 -0.4023  0.9079 -0.0458
  249MOL0     N33532   4.106   0.280   3.663 -0.8074  0.4215 -0.6408
  249MOL0     C33533   4.904   0.360   2.562  0.9396 -0.3582  0.4880
  249MOL0     C33534   5.017   0.375   2.478 -0.0266  0.0359 -0.4435
  249MOL0     C33535   5.418   0.427   2.292 -0.4028  0.0136  0.2395
  249MOL0     C33536   5.451   0.428   2.157 -0.0191 -0.5986  0.2986
  249MOL0     C33537   5.580   0.417   2.109 -0.0718  0.3610 -0.1064
  249MOL0     C33538   5.688   0.391   2.195 -0.0551  0.7858  0.3015
  249MOL0     O33539   5.803   0.340   2.139 -0.2024 -0.1726 -0.2406
  249MOL0     C33540   5.920   0.340   2.210 -0.2567 -0.0154  0.4793
  249MOL0     C33541   6.041   0.316   2.117  0.1661 -0.5159 -0.2876
  249MOL0     C33542   6.062   0.167   2.082  0.0385  0.2787  0.1258
  249MOL0     C33543   6.150   0.161   1.954 -0.0970 -0.3708 -0.6215
  249MOL0     C33544   6.289   0.209   1.998  1.2267 -0.1565  0.1709
  249MOL0     C33545   6.395   0.255   2.020 -0.6135  0.6830  1.0651
  249MOL0     C33546   5.651   0.380   2.332 -0.0715  0.5521  0.1811
  249MOL0     C33547   5.527   0.415   2.381  0.0013 -0.0050  0.2397
  249MOL0     H33548   5.220   0.514   2.717  1.1821  0.6912  0.1615
  249MOL0     H33549   5.014   0.499   2.852 -0.9870 -0.3374  0.5887
  249MOL0     H33550   4.647   0.423   2.622  1.5499 -0.8057 -0.8076
  249MOL0     H33551   4.670   0.261   2.692  1.7334  1.3291 -0.6839
  249MOL0     H33552   4.543   0.497   2.842 -1.1603  0.6045 -0.6413
  249MOL0     H33553   4.461   0.389   2.735  0.0426  0.1069 -0.1692
  249MOL0     H33554   4.519   0.208   2.884 -0.6276 -0.0744 -0.1090
  249MOL0     H33555   4.636   0.316   2.977 -0.0976 -1.7881  0.0888
  249MOL0     H33556   4.462   0.455   3.051 -2.4577 -0.0112  1.7250
  249MOL0     H33557   4.340   0.383   2.957 -0.3756  3.3017  2.3465
  249MOL0     H33558   4.338   0.181   3.094  0.7890  0.5279 -0.1053
  249MOL0     H33559   4.501   0.223   3.163  1.1107  2.3616  2.0123
  249MOL0     H33560   4.410   0.395   3.299  2.1057 -3.6819  1.5728
  249MOL0     H33561   4.249   0.379   3.224  0.1285  0.4485  0.3998
  249MOL0     H33562   4.226   0.161   3.302  1.3656 -2.0802 -0.1082
  249MOL0     H33563   4.387   0.164   3.375 -0.7570  0.2477 -0.2705
  249MOL0     H33564   4.236   0.400   3.477 -0.6224  0.1870 -1.3956
  249MOL0     H33565   4.357   0.292   3.549 -0.0745 -1.4172  0.1317
  249MOL0     H33566   4.167   0.015   3.483  0.3487 -0.4555  1.8153
  249MOL0     H33567   3.887  -0.025   3.738 -1.9222 -1.8228 -1.4487
  249MOL0     H33568   3.903  -0.091   3.576  0.9232 -0.5613 -0.9831
  249MOL0     H33569   4.097  -0.127   3.809 -0.2421  2.3267 -0.4692
  249MOL0     H33570   4.113  -0.204   3.650 -0.6076 -0.8723  0.5294
  249MOL0     H33571   4.025  -0.370   3.820 -0.4854  0.0391  1.1204
  249MOL0     H33572   3.913  -0.329   3.685 -0.5265  1.9421 -0.6191
  249MOL0     H33573   3.769  -0.184   3.824 -0.1827 -0.1156  0.9472
  249MOL0     H33574   3.884  -0.214   3.970  0.2566  0.1896 -0.2676
  249MOL0     H33575   3.644  -0.598   3.856 -1.4693  0.1649  2.8950
  249MOL0     H33576   3.769  -0.875   3.779  2.6075 -3.1976  2.3738
  249MOL0     H33577   3.722  -0.932   3.938  0.0805 -0.3719  1.6150
  249MOL0     H33578   3.612  -0.824   3.875  0.4382  1.3304  2.4674
  249MOL0     H33579   3.917  -1.199   3.839  0.3945 -2.6393  0.0459
  249MOL0     H33580   4.067  -1.389   3.812  2.3045 -0.6409  0.6004
  249MOL0     H33581   4.427  -1.535   4.010  0.0447 -1.0247  0.6802
  249MOL0     H33582   4.397  -1.390   4.097 -1.1165  1.3612  0.0003
  249MOL0     H33583   4.276  -1.566   4.197  2.7203  2.3226 -0.1869
  249MOL0     H33584   4.161  -1.444   4.131 -0.8578 -1.5243 -1.5182
  249MOL0     H33585   4.242  -1.713   4.007 -0.1986 -0.5050 -0.7582
  249MOL0     H33586   4.131  -1.605   3.936  2.0506 -3.9272 -2.9197
  249MOL0     H33587   4.073  -1.782   4.187 -1.1428  0.3571  0.5439
  249MOL0     H33588   3.994  -1.630   4.176  1.0890  0.0861  0.5624
  249MOL0     H33589   3.869  -1.816   4.096  1.7180  1.0967  1.7882
  249MOL0     H33590   3.983  -1.853   3.962 -1.3477  1.8999 -3.1552
  249MOL0     H33591   3.941  -1.653   3.848 -0.3260  0.1489  0.6653
  249MOL0     H33592   3.786  -1.724   3.874 -2.0394  0.9958  1.8562
  249MOL0     H33593   3.888  -1.485   4.004 -0.6463 -0.2746 -2.3291
  249MOL0     H33594   3.780  -1.583   4.096  2.9594  0.1382  0.5977
  249MOL0     H33595   3.641  -1.421   3.956  2.3816  2.0942 -1.1548
  249MOL0     H33596   3.620  -1.586   3.898  1.8933 -1.3819  1.2846
  249MOL0     H33597   4.382  -1.170   3.993  0.1902 -2.8728 -1.3880
  249MOL0     H33598   4.235  -0.970   4.005 -0.1879  0.5512 -0.1553
  249MOL0     H33599   4.061  -0.628   4.117  0.2726 -1.4748 -2.7351
  249MOL0     H33600   3.967  -0.393   4.043 -0.9223 -0.4410  2.1624
  249MOL0     H33601   4.815   0.318   2.518  2.7747 -1.1453 -2.8270
  249MOL0     H33602   5.032   0.339   2.377  0.7369  1.7230 -0.9595
  249MOL0     H33603   5.378   0.456   2.082  2.1593  1.0533 -1.3361
  249MOL0     H33604   5.596   0.423   2.002 -2.0953 -3.0045 -0.7389
  249MOL0     H33605   5.941   0.443   2.243 -0.7226  0.9738 -2.0667
  249MOL0     H33606   5.928   0.269   2.293  2.1598  0.8036  1.0604
  249MOL0     H33607   6.134   0.351   2.164 -1.2517  3.1716  0.1275
  249MOL0     H33608   6.035   0.367   2.020  2.5160 -1.5558 -1.0675
  249MOL0     H33609   5.964   0.123   2.060 -0.0260 -0.8201  2.4202
  249MOL0     H33610   6.112   0.113   2.162  0.6695  1.4749  0.5595
  249MOL0     H33611   6.102   0.219   1.875  0.4709  1.3370  0.2447
  249MOL0     H33612   6.169   0.062   1.911 -0.7025 -1.4542  1.4382
  249MOL0     H33613   6.491   0.302   2.029 -0.1219 -0.5659  2.8919
  249MOL0     H33614   5.727   0.346   2.402  0.3583  0.8978 -0.1145
  249MOL0     H33615   5.516   0.400   2.488 -0.3971  0.6249  0.2891
  250MOL0     O33616   3.613   9.118  11.013  0.8559  0.2529  0.6199
  250MOL0     C33617   3.587   9.237  10.992 -0.5130 -0.5281  0.0841
  250MOL0     O33618   3.468   9.299  11.012 -0.4963 -0.5795 -0.2343
  250MOL0     C33619   3.359   9.252  11.092 -0.7896 -0.3137 -0.6716
  250MOL0     C33620   3.240   9.324  11.085 -0.2620  0.1870 -0.3315
  250MOL0     C33621   3.136   9.287  11.168  0.2048 -0.2609 -0.2484
  250MOL0     C33622   3.146   9.176  11.256  0.3796  0.5291  0.0959
  250MOL0     O33623   3.047   9.111  11.327 -0.3534  0.3170  0.1758
  250MOL0     C33624   2.922   9.177  11.340 -0.6996  0.3771 -0.9720
  250MOL0     C33625   2.822   9.091  11.420 -0.1257  0.4519 -0.4988
  250MOL0     C33626   2.679   9.144  11.415  0.3884 -0.5774  0.2336
  250MOL0     C33627   2.589   9.062  11.510 -0.9918 -0.2926  0.1353
  250MOL0     C33628   2.449   9.138  11.507  0.3711  0.1770 -0.6201
  250MOL0     C33629   2.383   9.112  11.643 -0.2440  0.7455  0.3845
  250MOL0     C33630   2.233   9.141  11.645 -0.8818 -0.3012 -0.1707
  250MOL0     C33631   2.199   9.298  11.639 -0.0233  0.4569 -0.3346
  250MOL0     N33632   2.061   9.310  11.683 -0.1935 -0.5511 -0.0117
  250MOL0     C33633   1.947   9.276  11.611  0.6488  0.0660 -0.0308
  250MOL0     C33634   1.841   9.292  11.704 -0.9718 -0.5411  0.8688
  250MOL0     C33635   1.701   9.234  11.684 -0.5485  0.1125  0.8556
  250MOL0     C33636   1.596   9.330  11.729 -0.6934 -1.2083 -0.0671
  250MOL0     C33637   1.479   9.256  11.781 -0.8393  0.7800  1.3320
  250MOL0     C33638   1.370   9.360  11.789 -0.3534 -0.2977 -0.3813
  250MOL0     O33639   1.253   9.281  11.822 -0.3903 -0.0928  0.6122
  250MOL0     C33640   1.124   9.336  11.842 -0.2871  0.6824 -0.2126
  250MOL0     C33641   1.095   9.476  11.837 -0.4223  0.5287  0.4182
  250MOL0     C33642   0.972   9.533  11.861 -0.5447  0.1523 -0.9844
  250MOL0     C33643   0.961   9.685  11.857  0.2532  0.1806 -0.2647
  250MOL0     C33644   0.870   9.442  11.887  0.6395  0.6035  0.0592
  250MOL0     C33645   0.732   9.488  11.902  1.1418  0.1896 -0.4161
  250MOL0     O33646   0.655   9.411  11.977  0.5735 -0.2806 -0.6395
  250MOL0     C33647   0.520   9.418  11.977  0.1041  0.3459 -0.1001
  250MOL0     C33648   0.457   9.389  12.098 -0.2431 -0.3329  0.5537
  250MOL0     C33649   0.318   9.368  12.109 -0.2307 -0.1614 -0.0088
  250MOL0     C33650   0.237   9.402  11.998  0.5830 -0.1936 -0.1492
  250MOL0     O33651   0.110   9.385  12.028 -0.5256  0.1176 -0.1420
  250MOL0     C33652   0.017   9.364  11.925  0.6329 -0.2605 -0.8021
  250MOL0     C33653   0.050   9.239  11.841  0.2308 -0.0935  0.7924
  250MOL0     C33654  -0.039   9.221  11.716 -0.0928  0.0128  0.0147
  250MOL0     C33655  -0.179   9.175  11.759 -0.6100 -0.6006 -0.6885
  250MOL0     C33656  -0.265   9.130  11.638 -0.2999 -0.3090  0.2035
  250MOL0     C33657  -0.398   9.071  11.683  0.3867  0.1772  0.2120
  250MOL0     C33658  -0.511   9.045  11.580  0.0988  0.5637 -0.1751
  250MOL0     C33659  -0.624   8.974  11.646  0.0259 -0.5310  0.8441
  250MOL0    Cl33660  -0.726   9.078  11.757 -0.0679 -0.2589  0.4858
  250MOL0     C33661   0.300   9.452  11.884  0.4020 -0.2557  0.4945
  250MOL0     C33662   0.438   9.452  11.872 -0.5669  0.0890  0.5837
  250MOL0     O33663   0.700   9.584  11.830  0.6189  0.2295  0.2027
  250MOL0     C33664   0.899   9.304  11.900  0.0887  0.7495  0.8693
  250MOL0     C33665   1.029   9.243  11.873  0.3992 -0.0971  0.0867
  250MOL0     N33666   1.892   9.346  11.822 -0.0961 -1.5167 -0.3292
  250MOL0     N33667   2.019   9.363  11.803  0.3226  0.4056  0.5007
  250MOL0     C33668   3.267   9.097  11.254  0.2067  0.7693 -0.0999
  250MOL0     C33669   3.372   9.141  11.177  0.5977 -0.6316  0.8886
  250MOL0     C33670   3.697   9.317  10.943  0.4876  0.2278 -0.3869
  250MOL0     C33671   3.687   9.456  10.932 -0.3210 -0.2149  0.3626
  250MOL0     C33672   3.781   9.529  10.859 -0.5010  0.2184 -0.4605
  250MOL0     C33673   3.903   9.469  10.812  1.1951 -0.1672  0.7505
  250MOL0     O33674   3.994   9.551  10.758 -0.4159 -0.0754  0.4615
  250MOL0     C33675   4.108   9.499  10.675 -0.7804  0.3722  0.9654
  250MOL0     C33676   4.123   9.595  10.559 -1.0692 -0.3578  0.5249
  250MOL0     C33677   4.256   9.665  10.543 -0.7221  0.1875  0.0774
  250MOL0     C33678   4.269   9.735  10.404  1.0183  0.9015 -0.3631
  250MOL0     C33679   4.155   9.824  10.376  0.2729  0.5386 -0.6451
  250MOL0     C33680   4.055   9.884  10.378  0.7817 -0.8737 -0.7760
  250MOL0     C33681   3.913   9.328  10.824  0.3514 -0.2472 -0.0235
  250MOL0     C33682   3.812   9.252  10.884 -0.2875 -0.0739 -0.3737
  250MOL0     H33683   3.248   9.406  11.014  2.7203  0.7436  0.4992
  250MOL0     H33684   3.043   9.344  11.163  0.1311 -0.0609  2.1636
  250MOL0     H33685   2.944   9.265  11.402 -2.9946 -0.7617  1.6998
  250MOL0     H33686   2.883   9.204  11.242 -1.6547 -0.6670 -0.8995
  250MOL0     H33687   2.815   8.989  11.381 -3.3299  0.0976  0.6532
  250MOL0     H33688   2.845   9.085  11.527 -1.5291  1.7604 -0.0772
  250MOL0     H33689   2.679   9.250  11.444 -0.4036 -0.4732 -0.1339
  250MOL0     H33690   2.648   9.133  11.311  0.0276 -0.5066  0.3306
  250MOL0     H33691   2.581   8.959  11.474 -1.1237  0.2498 -1.4947
  250MOL0     H33692   2.638   9.063  11.607  0.7306 -1.6132 -0.6679
  250MOL0     H33693   2.464   9.247  11.500  0.4250  0.2867  0.8020
  250MOL0     H33694   2.394   9.102  11.421  1.3887 -0.0222 -1.2103
  250MOL0     H33695   2.403   9.008  11.669 -0.4184  0.3819 -0.8470
  250MOL0     H33696   2.445   9.152  11.724 -2.1363  1.3754  1.5903
  250MOL0     H33697   2.180   9.087  11.566 -0.3255  0.2912 -0.9693
  250MOL0     H33698   2.188   9.093  11.732 -2.2503  0.1946 -0.5755
  250MOL0     H33699   2.212   9.329  11.535  0.7776 -0.3133 -0.4737
  250MOL0     H33700   2.259   9.356  11.710 -0.2906 -0.1554  0.4001
  250MOL0     H33701   1.942   9.224  11.516  1.0151  0.7957 -0.4561
  250MOL0     H33702   1.684   9.222  11.576  0.7133 -2.4881  0.8731
  250MOL0     H33703   1.689   9.138  11.735 -1.0172 -0.0636  0.4318
  250MOL0     H33704   1.561   9.390  11.644 -1.7713  0.8729  1.7309
  250MOL0     H33705   1.626   9.407  11.801 -1.2343  0.9980 -2.0754
  250MOL0     H33706   1.514   9.203  11.871  5.6400 -1.0455 -1.6233
  250MOL0     H33707   1.449   9.183  11.706  0.1106 -1.0522  2.6499
  250MOL0     H33708   1.350   9.415  11.696 -0.7108 -0.8563 -0.6368
  250MOL0     H33709   1.382   9.431  11.872  0.9958 -0.8375 -0.0874
  250MOL0     H33710   1.180   9.542  11.823  2.2972 -2.8283 -0.3518
  250MOL0     H33711   0.931   9.712  11.756 -0.0671  1.5129  0.1678
  250MOL0     H33712   0.884   9.725  11.924  1.3253  0.6296  0.7465
  250MOL0     H33713   1.059   9.726  11.884  0.8753 -0.8469 -0.8838
  250MOL0     H33714   0.527   9.389  12.181  0.9410  0.5101 -0.4071
  250MOL0     H33715   0.277   9.337  12.205  0.0290  2.4608  1.0174
  250MOL0     H33716  -0.077   9.353  11.980  1.3468  1.3793  0.8562
  250MOL0     H33717   0.003   9.445  11.853  1.0236 -0.6309 -1.3049
  250MOL0     H33718   0.149   9.248  11.797  0.3013 -1.2899  0.6683
  250MOL0     H33719   0.033   9.148  11.900 -5.4272  0.4184  0.5387
  250MOL0     H33720   0.003   9.140  11.655  1.3251 -0.3124  1.3755
  250MOL0     H33721  -0.049   9.319  11.668  2.8888  1.2910  1.6982
  250MOL0     H33722  -0.165   9.089  11.825 -0.3879  0.9895  1.4514
  250MOL0     H33723  -0.233   9.253  11.814 -0.6323 -0.4139 -0.9735
  250MOL0     H33724  -0.211   9.052  11.584  3.1743  0.1877  2.5437
  250MOL0     H33725  -0.286   9.210  11.567  1.3789 -0.8028 -0.9036
  250MOL0     H33726  -0.390   8.976  11.738 -0.0179  0.0061 -0.0186
  250MOL0     H33727  -0.447   9.142  11.751  2.0367  1.3280  0.2409
  250MOL0     H33728  -0.468   8.991  11.496  3.2541  1.2358  0.8556
  250MOL0     H33729  -0.552   9.139  11.542  2.8066  0.9239 -2.5660
  250MOL0     H33730  -0.587   8.886  11.700  0.3593 -0.5284  0.6250
  250MOL0     H33731  -0.689   8.933  11.568  0.7121  0.6320 -0.3967
  250MOL0     H33732   0.239   9.488  11.801 -1.5050 -1.8684  1.1233
  250MOL0     H33733   0.479   9.472  11.773 -0.6943 -2.4794 -0.0818
  250MOL0     H33734   0.818   9.237  11.926 -1.3448  1.6461 -1.0326
  250MOL0     H33735   1.051   9.137  11.879 -2.8798 -1.0681 -2.0236
  250MOL0     H33736   3.261   9.006  11.312 -3.4087  1.8235  1.4887
  250MOL0     H33737   3.472   9.100  11.186  0.1985 -2.0622 -0.5441
  250MOL0     H33738   3.600   9.514  10.962 -0.3481 -0.4209  0.6851
  250MOL0     H33739   3.769   9.636  10.847  1.3535  0.3968 -1.0573
  250MOL0     H33740   4.193   9.499  10.744 -0.1402  2.4473  0.2566
  250MOL0     H33741   4.083   9.399  10.639  1.2299  0.2006 -0.1065
  250MOL0     H33742   4.036   9.661  10.562 -1.1458 -0.2672 -1.9120
  250MOL0     H33743   4.107   9.533  10.470  1.2052 -3.1872  1.8984
  250MOL0     H33744   4.343   9.599  10.547 -0.3090  0.7673  3.3100
  250MOL0     H33745   4.282   9.736  10.622  0.9433  0.4650 -0.6619
  250MOL0     H33746   4.274   9.659  10.326 -3.0642  0.4641 -0.4074
  250MOL0     H33747   4.358   9.799  10.400  1.7130  0.0031  0.2506
  250MOL0     H33748   3.973   9.951  10.391  1.6241  0.3650 -1.6027
  250MOL0     H33749   4.002   9.281  10.784  0.7076  0.1700  0.2770
  250MOL0     H33750   3.819   9.144  10.891  0.4411  0.0512  1.1262
  251MOL0     O33751   2.475  11.014  11.183 -0.4485  0.2589 -0.3589
  251MOL0     C33752   2.594  11.036  11.210  0.2165  0.4871  0.4918
  251MOL0     O33753   2.678  11.106  11.134  0.4793  0.7202 -0.4702
  251MOL0     C33754   2.618  11.165  11.024  0.0474 -0.7270  0.1579
  251MOL0     C33755   2.505  11.251  11.017  0.2990  0.8112 -0.6517
  251MOL0     C33756   2.460  11.297  10.894 -0.3112  0.3823  0.0025
  251MOL0     C33757   2.528  11.260  10.779  0.1351  0.3228 -0.2237
  251MOL0     O33758   2.484  11.323  10.666 -0.5601  0.4985 -0.0793
  251MOL0     C33759   2.387  11.243  10.595 -0.0573 -0.0548  0.3126
  251MOL0     C33760   2.330  11.319  10.472 -0.5760 -0.5110 -0.4119
  251MOL0     C33761   2.289  11.471  10.489  0.4211 -0.5156 -0.0666
  251MOL0     C33762   2.229  11.547  10.363 -0.6159 -0.4734 -0.7437
  251MOL0     C33763   2.325  11.579  10.253 -0.9877  1.2688  0.0290
  251MOL0     C33764   2.269  11.654  10.132  0.5349 -0.7168 -0.3472
  251MOL0     C33765   2.371  11.672  10.025  1.2054 -1.0439 -0.0405
  251MOL0     C33766   2.495  11.760  10.070 -0.1026  0.9866  1.0999
  251MOL0     N33767   2.523  11.864   9.973 -0.0328  0.3311 -0.5032
  251MOL0     C33768   2.467  11.991   9.975 -0.6399  0.2222  0.5363
  251MOL0     C33769   2.500  12.045   9.861 -0.6509  0.2047  0.3310
  251MOL0     C33770   2.448  12.174   9.806  0.3420  0.2865  0.6211
  251MOL0     C33771   2.293  12.180   9.798 -0.4603 -0.4518  0.5260
  251MOL0     C33772   2.222  12.069   9.721  0.1075  0.0048 -0.3066
  251MOL0     C33773   2.290  12.018   9.585  0.2893 -0.3641 -1.0983
  251MOL0     O33774   2.199  11.935   9.511 -0.1387  0.3559 -0.6209
  251MOL0     C33775   2.174  11.965   9.381  0.2273 -0.6198 -0.1737
  251MOL0     C33776   2.046  11.926   9.328 -0.0491  0.0444 -0.2331
  251MOL0     C33777   2.000  11.958   9.206 -0.6934  0.5392  0.0471
  251MOL0     C33778   1.866  11.915   9.155  1.2714 -1.0810  1.2048
  251MOL0     C33779   2.095  12.016   9.120 -0.0967 -0.4099 -0.0473
  251MOL0     C33780   2.080  12.042   8.974 -0.3959 -0.9615  0.1610
  251MOL0     O33781   2.182  12.007   8.887  0.4262  0.6714 -0.2026
  251MOL0     C33782   2.178  12.048   8.756 -0.8145  0.6195  0.0231
  251MOL0     C33783   2.078  12.021   8.664 -0.1525  0.9893 -0.3015
  251MOL0     C33784   2.095  12.057   8.527  0.7267  0.3871  0.4368
  251MOL0     C33785   2.213  12.115   8.488  0.6663  0.7539  0.3692
  251MOL0     O33786   2.225  12.145   8.351 -0.2801  0.2827  0.1830
  251MOL0     C33787   2.335  12.218   8.299 -0.1473  0.2368  0.2251
  251MOL0     C33788   2.321  12.273   8.157  0.3796  1.8010 -0.5497
  251MOL0     C33789   2.219  12.387   8.154 -0.2042 -0.5666  0.5720
  251MOL0     C33790   2.186  12.429   8.005  0.0683 -0.5110  0.9482
  251MOL0     C33791   2.124  12.571   7.996  0.1473  0.0972  0.4866
  251MOL0     C33792   2.235  12.674   7.967 -0.2942  0.1518 -0.4459
  251MOL0     C33793   2.186  12.813   7.967  0.9322 -0.2081 -0.5538
  251MOL0     C33794   2.299  12.920   7.957  0.1374  0.0736  0.7198
  251MOL0    Cl33795   2.236  13.087   7.973 -0.3051 -0.2879  0.2313
  251MOL0     C33796   2.309  12.142   8.585 -0.4026 -0.3992 -1.1993
  251MOL0     C33797   2.300  12.107   8.716 -0.0629  0.5816 -0.3811
  251MOL0     O33798   1.979  12.094   8.942 -0.3984 -0.5145 -0.2416
  251MOL0     C33799   2.221  12.057   9.169  0.6336  0.7165  0.1985
  251MOL0     C33800   2.262  12.033   9.298  0.4057 -0.0637 -0.4332
  251MOL0     N33801   2.579  11.959   9.786 -0.2714 -0.1841 -0.1058
  251MOL0     N33802   2.593  11.852   9.858 -0.6636 -1.0676 -0.0604
  251MOL0     C33803   2.644  11.176  10.787  0.5829 -0.2443  0.6567
  251MOL0     C33804   2.694  11.142  10.911  0.1028  0.1915  0.2309
  251MOL0     C33805   2.645  10.971  11.340 -0.2645  0.1361  0.4585
  251MOL0     C33806   2.565  10.890  11.408  0.7987  0.1124  0.1240
  251MOL0     C33807   2.617  10.830  11.521  0.4549 -0.2964  1.2666
  251MOL0     C33808   2.744  10.852  11.564  0.6986 -0.4698 -0.1454
  251MOL0     O33809   2.783  10.793  11.673  0.6730  0.6271 -0.3720
  251MOL0     C33810   2.779  10.870  11.788 -0.3687  0.5389 -1.0230
  251MOL0     C33811   2.886  10.835  11.890  1.1563  0.1720  0.1549
  251MOL0     C33812   3.032  10.847  11.822  0.2870  0.4947 -0.5536
  251MOL0     C33813   3.125  10.717  11.847  0.2952  0.6904 -0.8098
  251MOL0     C33814   3.264  10.748  11.851 -0.2724  0.4839 -0.8819
  251MOL0     C33815   3.379  10.794  11.871 -0.1174  0.9702 -0.6681
  251MOL0     C33816   2.829  10.930  11.498 -0.0865  0.0147  0.2011
  251MOL0     C33817   2.778  10.997  11.388  0.1435  0.3922  1.3606
  251MOL0     H33818   2.456  11.278  11.110  0.5387  0.0680 -0.3043
  251MOL0     H33819   2.367  11.354  10.894  0.8784  2.4113  0.4076
  251MOL0     H33820   2.428  11.149  10.558 -0.7238 -0.0052 -0.5840
  251MOL0     H33821   2.303  11.220  10.660 -0.8355 -0.1067 -0.6946
  251MOL0     H33822   2.407  11.323  10.395 -0.3381 -1.1119 -0.2125
  251MOL0     H33823   2.248  11.260  10.430 -0.6328 -0.6673 -0.0874
  251MOL0     H33824   2.211  11.493  10.562  0.0035  1.1445 -0.9629
  251MOL0     H33825   2.386  11.515  10.516 -0.1790  0.2061  0.9755
  251MOL0     H33826   2.143  11.500  10.314  0.3979  0.7895 -3.9562
  251MOL0     H33827   2.185  11.642  10.398  0.4146  0.3751 -1.6927
  251MOL0     H33828   2.410  11.623  10.306 -1.6209  0.3759  1.8580
  251MOL0     H33829   2.368  11.482  10.225  0.7978  1.3371  2.1965
  251MOL0     H33830   2.181  11.611  10.084  0.3916 -1.7237  0.7993
  251MOL0     H33831   2.245  11.754  10.169  0.7642 -0.2574 -1.3808
  251MOL0     H33832   2.407  11.575   9.988  1.4809 -0.5214 -1.1850
  251MOL0     H33833   2.309  11.717   9.947  1.1902 -0.0464  0.5336
  251MOL0     H33834   2.577  11.688  10.082  0.8043  1.5171 -1.3711
  251MOL0     H33835   2.484  11.806  10.169  1.8251  0.0459  1.7987
  251MOL0     H33836   2.396  12.024  10.051 -0.4365  0.3072  0.6909
  251MOL0     H33837   2.486  12.253   9.872  0.0602  0.0908  1.0199
  251MOL0     H33838   2.479  12.187   9.702 -2.5643  5.5136  0.0897
  251MOL0     H33839   2.258  12.274   9.754 -1.3571 -1.4270 -0.9483
  251MOL0     H33840   2.239  12.174   9.893 -2.6414  0.2301 -0.6111
  251MOL0     H33841   2.123  12.100   9.689 -0.7526 -0.3343  1.8945
  251MOL0     H33842   2.215  11.981   9.786  2.8430 -0.3336 -0.3317
  251MOL0     H33843   2.379  11.960   9.610  2.9019  3.4920 -0.6221
  251MOL0     H33844   2.319  12.109   9.532 -2.0277  0.9704 -0.2464
  251MOL0     H33845   1.980  11.859   9.383 -0.6095  0.0751 -0.8573
  251MOL0     H33846   1.812  11.879   9.243  2.3204 -1.6970  1.6190
  251MOL0     H33847   1.816  11.998   9.105  4.5366 -0.0259 -0.6097
  251MOL0     H33848   1.871  11.831   9.085  0.4144 -0.4956  0.4384
  251MOL0     H33849   2.004  11.948   8.696  1.2726  0.4644  1.9963
  251MOL0     H33850   2.027  12.030   8.447  3.7256 -3.3611 -1.1647
  251MOL0     H33851   2.356  12.303   8.365  1.6647  1.9746 -2.4177
  251MOL0     H33852   2.413  12.142   8.296  0.4624  0.8651 -3.2543
  251MOL0     H33853   2.414  12.313   8.117  0.2645  2.5306 -0.1166
  251MOL0     H33854   2.287  12.191   8.093  1.5114  1.9956 -1.4188
  251MOL0     H33855   2.263  12.471   8.209  0.8248 -1.2717  0.8433
  251MOL0     H33856   2.121  12.362   8.196 -0.6095 -1.0883 -0.6281
  251MOL0     H33857   2.265  12.435   7.929 -2.3354  1.0363 -1.6071
  251MOL0     H33858   2.111  12.358   7.970 -0.1484  0.3394 -0.3911
  251MOL0     H33859   2.072  12.591   8.090  1.3169 -0.4618  1.2793
  251MOL0     H33860   2.054  12.571   7.912 -0.2506 -2.7601  0.7345
  251MOL0     H33861   2.306  12.675   8.051 -3.1328  0.8190  2.1427
  251MOL0     H33862   2.290  12.666   7.873  0.6838  5.6483 -0.7222
  251MOL0     H33863   2.114  12.831   8.048 -0.9964 -2.8194 -1.5531
  251MOL0     H33864   2.129  12.813   7.874  0.9532 -2.1400 -0.6089
  251MOL0     H33865   2.327  12.915   7.851 -0.5004 -1.7211  0.5972
  251MOL0     H33866   2.383  12.899   8.024 -2.3773 -0.7492  3.8369
  251MOL0     H33867   2.405  12.184   8.556 -0.0325 -0.3269  0.0841
  251MOL0     H33868   2.394  12.102   8.770 -0.2543  1.1690  0.0169
  251MOL0     H33869   2.289  12.119   9.113 -0.9264  1.5784 -0.8059
  251MOL0     H33870   2.355  12.072   9.338  0.3342  0.3378 -0.6520
  251MOL0     H33871   2.695  11.174  10.692 -1.6894  1.2703 -0.6999
  251MOL0     H33872   2.777  11.073  10.904  0.3436  0.5726 -0.9836
  251MOL0     H33873   2.461  10.877  11.379  0.6304 -1.2115  1.2119
  251MOL0     H33874   2.550  10.755  11.563  0.5921 -2.9039 -2.5503
  251MOL0     H33875   2.797  10.976  11.767  0.1589  0.7155  0.2724
  251MOL0     H33876   2.681  10.852  11.832 -0.3536 -1.4327 -1.7078
  251MOL0     H33877   2.871  10.731  11.919 -1.0974  0.4457  0.1433
  251MOL0     H33878   2.867  10.891  11.982 -0.0456 -0.9094  0.5843
  251MOL0     H33879   3.074  10.938  11.867 -0.5012 -0.4118  2.1798
  251MOL0     H33880   3.037  10.867  11.715  1.1213 -1.3278 -0.8910
  251MOL0     H33881   3.112  10.650  11.762 -3.3365 -0.6280  0.5845
  251MOL0     H33882   3.096  10.666  11.939  3.0213  0.8460  0.2330
  251MOL0     H33883   3.459  10.849  11.918 -0.1124 -0.0911  0.6424
  251MOL0     H33884   2.934  10.942  11.524 -0.2242  0.6566  0.4703
  251MOL0     H33885   2.834  11.072  11.332 -2.2195  0.5488 -0.9712
  252MOL0     O33886   1.674  10.255   3.000  0.3212 -0.3377 -0.4132
  252MOL0     C33887   1.700  10.160   3.076  0.3766  0.0664 -0.2549
  252MOL0     O33888   1.603  10.096   3.155 -0.1171  0.7993 -0.1354
  252MOL0     C33889   1.466  10.141   3.147 -0.2527 -0.1056  0.3033
  252MOL0     C33890   1.371  10.041   3.131 -0.9474 -0.2726  0.0518
  252MOL0     C33891   1.238  10.075   3.116  0.3584  0.0582  0.1206
  252MOL0     C33892   1.191  10.204   3.104 -0.0776  0.4075 -0.0809
  252MOL0     O33893   1.066  10.224   3.063  0.6319 -0.0957 -0.1845
  252MOL0     C33894   1.009  10.352   3.048 -0.1401  0.0997 -0.2067
  252MOL0     C33895   0.860  10.330   3.015  0.3022  0.1941 -0.0640
  252MOL0     C33896   0.785  10.456   2.988  0.5971  0.2944 -0.3465
  252MOL0     C33897   0.641  10.435   2.943  0.6921  0.2267 -0.4622
  252MOL0     C33898   0.630  10.387   2.796 -0.1058 -0.0649 -0.5811
  252MOL0     C33899   0.488  10.327   2.763 -0.6616  0.2106  0.8078
  252MOL0     C33900   0.459  10.180   2.807  0.1780 -0.3760 -0.3650
  252MOL0     C33901   0.380  10.178   2.939  0.4848  0.0409 -0.1436
  252MOL0     N33902   0.236  10.209   2.923 -0.1960 -0.4134 -0.2616
  252MOL0     C33903   0.150  10.265   3.019 -0.1159  0.6737 -0.2056
  252MOL0     C33904   0.029  10.242   2.978 -0.2144  0.1867  0.3939
  252MOL0     C33905  -0.099  10.272   3.053 -0.1627 -0.5018 -0.1941
  252MOL0     C33906  -0.100  10.414   3.110 -0.0204 -0.5729  0.0316
  252MOL0     C33907  -0.227  10.418   3.197  0.2543  0.4107  1.3307
  252MOL0     C33908  -0.231  10.540   3.304  0.2091 -0.0334  0.4226
  252MOL0     O33909  -0.322  10.518   3.416 -0.4064  0.2214  0.2176
  252MOL0     C33910  -0.451  10.525   3.380  0.3233 -0.1108  1.0795
  252MOL0     C33911  -0.505  10.647   3.324 -0.5610 -0.0703 -0.2247
  252MOL0     C33912  -0.645  10.665   3.295  0.0056 -0.2124 -0.3832
  252MOL0     C33913  -0.679  10.796   3.224  0.1079  0.2184  0.4498
  252MOL0     C33914  -0.733  10.561   3.334  0.4281 -0.1177  0.0246
  252MOL0     C33915  -0.883  10.580   3.327  0.3031  0.8448  0.4148
  252MOL0     O33916  -0.955  10.479   3.381  0.0235 -0.5283 -0.3721
  252MOL0     C33917  -1.090  10.474   3.344  0.6701  0.0047  0.3247
  252MOL0     C33918  -1.141  10.370   3.265  0.3812 -0.1303 -0.3412
  252MOL0     C33919  -1.275  10.367   3.221  0.2369  0.2432  0.1514
  252MOL0     C33920  -1.362  10.459   3.269 -0.5720  0.1475 -0.5761
  252MOL0     O33921  -1.482  10.464   3.210 -0.0316  0.2258  0.1126
  252MOL0     C33922  -1.594  10.491   3.297  0.7332 -0.3811  0.0061
  252MOL0     C33923  -1.596  10.426   3.432 -0.5933 -0.1768 -0.1359
  252MOL0     C33924  -1.646  10.287   3.431 -0.0871  0.9134 -0.0378
  252MOL0     C33925  -1.550  10.199   3.353  0.2866 -0.0260  0.5883
  252MOL0     C33926  -1.613  10.061   3.362  1.0376  0.2091  0.0053
  252MOL0     C33927  -1.503   9.960   3.333 -0.6328 -0.2836  0.3504
  252MOL0     C33928  -1.548   9.818   3.372  0.5914 -0.0657 -0.1993
  252MOL0     C33929  -1.478   9.713   3.290  0.1522  0.5595  0.1719
  252MOL0    Cl33930  -1.304   9.708   3.339 -0.5502 -0.3662  0.1599
  252MOL0     C33931  -1.314  10.565   3.346 -0.8818 -0.3823 -0.5237
  252MOL0     C33932  -1.182  10.572   3.389 -0.7539 -0.1582 -0.8494
  252MOL0     O33933  -0.930  10.684   3.282 -0.5474  0.5151  0.0019
  252MOL0     C33934  -0.677  10.436   3.376  1.1373 -0.0655  0.2688
  252MOL0     C33935  -0.545  10.419   3.401 -0.8259  0.5137  0.1669
  252MOL0     N33936   0.037  10.183   2.857 -0.0073  0.3053 -0.1163
  252MOL0     N33937   0.158  10.143   2.828  0.3449 -0.0047 -0.0531
  252MOL0     C33938   1.287  10.309   3.115  0.4462 -0.0274 -0.5806
  252MOL0     C33939   1.422  10.278   3.143  0.0255 -0.1453  0.8920
  252MOL0     C33940   1.838  10.129   3.101  1.0059  0.5725 -0.1097
  252MOL0     C33941   1.885  10.054   3.213  0.0798 -0.6516 -0.1273
  252MOL0     C33942   2.023  10.044   3.251  0.9476 -0.6162 -0.4409
  252MOL0     C33943   2.119  10.105   3.170 -0.4432  0.3917  0.1078
  252MOL0     O33944   2.249  10.076   3.194  0.0421 -0.0087  0.0700
  252MOL0     C33945   2.342  10.063   3.089 -0.0296  0.6234  0.0285
  252MOL0     C33946   2.473  10.122   3.141  0.9140  0.2407 -0.7603
  252MOL0     C33947   2.462  10.273   3.170 -0.8839 -0.5168 -0.0409
  252MOL0     C33948   2.600  10.314   3.223  0.4139  0.9341 -0.6245
  252MOL0     C33949   2.713  10.310   3.130  0.3689 -0.1183  0.2204
  252MOL0     C33950   2.812  10.313   3.061  0.6389 -0.1526  1.1835
  252MOL0     C33951   2.075  10.178   3.059  0.1955  0.1641 -0.1792
  252MOL0     C33952   1.942  10.187   3.024 -0.4296 -0.4169 -0.0647
  252MOL0     H33953   1.397   9.936   3.114 -0.8011 -0.3522  0.7505
  252MOL0     H33954   1.167   9.994   3.103 -1.7143  2.0179 -1.8192
  252MOL0     H33955   1.021  10.420   3.133 -0.9267  0.3447 -0.2850
  252MOL0     H33956   1.055  10.396   2.959  1.1524  0.3617  0.5548
  252MOL0     H33957   0.858  10.278   2.919 -1.4742 -1.0430  0.5911
  252MOL0     H33958   0.814  10.270   3.094  0.3131 -1.4932 -1.2814
  252MOL0     H33959   0.771  10.512   3.081 -1.8888 -1.4962  0.4720
  252MOL0     H33960   0.835  10.513   2.909  0.7622  0.1276 -0.3616
  252MOL0     H33961   0.596  10.368   3.017 -1.0098  0.2006 -1.4706
  252MOL0     H33962   0.592  10.532   2.953  0.5535 -0.0100  1.5525
  252MOL0     H33963   0.634  10.477   2.734 -3.4972  0.8881  0.3735
  252MOL0     H33964   0.714  10.324   2.766  0.3788  1.6046 -3.0514
  252MOL0     H33965   0.421  10.400   2.809 -0.3898  0.0639  1.4398
  252MOL0     H33966   0.486  10.320   2.654  2.1540  0.8679  0.6434
  252MOL0     H33967   0.391  10.134   2.735 -2.0745  0.2822  1.2175
  252MOL0     H33968   0.553  10.124   2.812 -0.1193 -1.5632 -4.3084
  252MOL0     H33969   0.428  10.246   3.010  2.3203  0.0430 -1.3116
  252MOL0     H33970   0.400  10.075   2.969  0.8914 -0.1769 -1.1052
  252MOL0     H33971   0.174  10.303   3.118 -2.5231 -0.6432  0.9865
  252MOL0     H33972  -0.186  10.251   2.991  0.5306 -0.3033 -1.2642
  252MOL0     H33973  -0.104  10.203   3.137  2.4852  0.6464  1.0567
  252MOL0     H33974  -0.108  10.483   3.025  0.4285 -0.3059  0.2067
  252MOL0     H33975  -0.007  10.433   3.164  1.3023  1.5291 -2.7109
  252MOL0     H33976  -0.231  10.327   3.258 -0.7590 -0.0130  0.6683
  252MOL0     H33977  -0.316  10.424   3.134  1.1101  0.3894  0.0906
  252MOL0     H33978  -0.260  10.626   3.244 -3.1306 -0.9451  0.5589
  252MOL0     H33979  -0.134  10.573   3.342  0.6822  0.0618 -0.8156
  252MOL0     H33980  -0.435  10.729   3.307 -0.7673  0.5206  1.5039
  252MOL0     H33981  -0.709  10.873   3.296  0.7009  1.2491 -0.3824
  252MOL0     H33982  -0.583  10.837   3.192  1.0343 -0.6629  1.9405
  252MOL0     H33983  -0.736  10.790   3.132  1.9826 -0.3038 -0.7405
  252MOL0     H33984  -1.078  10.287   3.236  0.1319 -0.2116 -0.6693
  252MOL0     H33985  -1.316  10.292   3.154  1.9830 -1.1482  0.5493
  252MOL0     H33986  -1.597  10.598   3.319  0.9221 -0.1642 -0.9752
  252MOL0     H33987  -1.680  10.446   3.248  0.7899 -0.5505  0.0625
  252MOL0     H33988  -1.497  10.414   3.477 -0.1599 -1.6796 -1.3747
  252MOL0     H33989  -1.661  10.479   3.502  1.8204  1.1085  1.2870
  252MOL0     H33990  -1.743  10.283   3.380  0.6731 -2.3039 -1.5248
  252MOL0     H33991  -1.652  10.260   3.537 -0.1320  1.4167  0.0890
  252MOL0     H33992  -1.546  10.218   3.245 -2.0783  0.9329  0.6038
  252MOL0     H33993  -1.456  10.215   3.406  1.5027  3.7225 -2.2834
  252MOL0     H33994  -1.704  10.051   3.303 -1.1323  0.1774  3.0868
  252MOL0     H33995  -1.629  10.048   3.470  1.6899 -2.8648 -0.1865
  252MOL0     H33996  -1.477   9.966   3.226  0.8344 -2.0734  0.5549
  252MOL0     H33997  -1.422   9.984   3.402 -1.1224 -0.8353  1.1343
  252MOL0     H33998  -1.655   9.807   3.354  0.4558  1.1324 -0.1514
  252MOL0     H33999  -1.532   9.801   3.479  0.8730 -0.4487 -0.2952
  252MOL0     H34000  -1.481   9.735   3.183  0.0476 -1.0666 -0.1808
  252MOL0     H34001  -1.527   9.616   3.306  0.3093  0.5614  0.6869
  252MOL0     H34002  -1.381  10.647   3.367 -1.2474 -1.0529  1.0308
  252MOL0     H34003  -1.140  10.649   3.452 -0.6286 -0.9068 -0.0005
  252MOL0     H34004  -0.741  10.350   3.394 -0.2321  0.5885 -1.2407
  252MOL0     H34005  -0.514  10.323   3.441 -0.1044  1.2047  1.3185
  252MOL0     H34006   1.258  10.413   3.101  0.4684  0.0439 -0.1030
  252MOL0     H34007   1.493  10.360   3.146  0.0254  0.0388 -1.9627
  252MOL0     H34008   1.822   9.995   3.280  0.8543 -0.8111  0.4747
  252MOL0     H34009   2.069   9.985   3.330  0.9561  0.2023  0.1856
  252MOL0     H34010   2.370   9.957   3.088  0.5195  0.6428 -4.1206
  252MOL0     H34011   2.309  10.086   2.988 -2.0318 -1.6346  0.0744
  252MOL0     H34012   2.547  10.112   3.060  0.8456  3.6514 -1.3827
  252MOL0     H34013   2.505  10.068   3.231 -2.2514  0.7691  0.8086
  252MOL0     H34014   2.379  10.296   3.238 -1.5941 -1.7104 -0.4672
  252MOL0     H34015   2.439  10.329   3.079  1.0216  0.8429  0.2570
  252MOL0     H34016   2.630  10.267   3.316 -1.5170  0.2312 -0.3010
  252MOL0     H34017   2.580  10.420   3.244  1.4518  1.7992 -3.4644
  252MOL0     H34018   2.895  10.327   2.995  1.8513  2.3179  3.0942
  252MOL0     H34019   2.148  10.224   2.992  0.6489 -0.6716 -0.2696
  252MOL0     H34020   1.935  10.271   2.956 -0.2369  0.4344  0.9580
  253MOL0     O34021   3.241   1.819   5.258 -0.8511  0.2344 -0.4850
  253MOL0     C34022   3.309   1.873   5.340 -0.4774  0.3230 -0.4968
  253MOL0     O34023   3.267   1.914   5.464 -0.6873 -0.3022 -0.6505
  253MOL0     C34024   3.135   1.927   5.501  0.2293  0.6039 -0.0416
  253MOL0     C34025   3.021   1.923   5.420  0.7658  0.3258 -0.6050
  253MOL0     C34026   2.894   1.951   5.477  0.8796  0.3554 -0.4899
  253MOL0     C34027   2.871   1.977   5.612  1.3568 -1.2642 -0.5808
  253MOL0     O34028   2.736   1.994   5.648  0.1501 -0.1412  0.1542
  253MOL0     C34029   2.690   1.962   5.787 -0.0770 -0.0207  0.4581
  253MOL0     C34030   2.566   2.036   5.818  0.6829  0.1856  0.5140
  253MOL0     C34031   2.450   1.943   5.770 -0.0271  0.2040 -0.5073
  253MOL0     C34032   2.317   2.011   5.779  0.2213  0.3529  0.0590
  253MOL0     C34033   2.195   1.918   5.765  0.0180  0.2656 -0.3093
  253MOL0     C34034   2.179   1.872   5.617 -0.4319  0.6920  0.3499
  253MOL0     C34035   2.044   1.889   5.551  0.2043  0.6800 -0.0925
  253MOL0     C34036   1.959   1.761   5.572 -0.8727  0.1295  0.2231
  253MOL0     N34037   1.834   1.773   5.496 -0.4303 -0.1518 -0.9307
  253MOL0     C34038   1.707   1.802   5.555 -0.3674  0.1281  0.0306
  253MOL0     C34039   1.610   1.789   5.452  0.4427  0.1485  0.2247
  253MOL0     C34040   1.456   1.798   5.474 -0.2611  0.0113  0.6002
  253MOL0     C34041   1.383   1.665   5.434 -0.5063 -0.6916 -0.1389
  253MOL0     C34042   1.237   1.652   5.495 -0.0873  0.0043  0.2271
  253MOL0     C34043   1.175   1.520   5.464  0.6770 -0.3373  0.5592
  253MOL0     O34044   1.047   1.507   5.530 -0.4222  0.7755 -0.5072
  253MOL0     C34045   0.948   1.502   5.442  0.8793 -0.0489 -0.0903
  253MOL0     C34046   0.901   1.378   5.398  0.3970 -0.4703 -0.1260
  253MOL0     C34047   0.807   1.366   5.301 -0.3849 -0.8996  0.3682
  253MOL0     C34048   0.753   1.224   5.269 -0.0471 -0.4258 -0.1732
  253MOL0     C34049   0.741   1.488   5.252 -0.0026  0.0519  0.1152
  253MOL0     C34050   0.611   1.494   5.178  1.0361 -0.7106 -0.4419
  253MOL0     O34051   0.568   1.612   5.126 -0.3578  0.0180  0.0095
  253MOL0     C34052   0.459   1.620   5.052  0.0606  0.6793 -0.1093
  253MOL0     C34053   0.385   1.732   5.077  0.2094 -1.0273  0.2239
  253MOL0     C34054   0.258   1.759   5.019  0.8076 -0.1972  0.5522
  253MOL0     C34055   0.219   1.672   4.909 -0.4750 -0.3045  0.4137
  253MOL0     O34056   0.102   1.712   4.852 -0.2452 -0.7424  0.1233
  253MOL0     C34057   0.070   1.633   4.739  0.5616 -0.2749  0.4501
  253MOL0     C34058  -0.055   1.685   4.671 -0.2508  1.4645  0.7245
  253MOL0     C34059  -0.016   1.813   4.598  0.4914 -0.0774  0.2282
  253MOL0     C34060  -0.135   1.865   4.523  0.3249  0.1863  0.3352
  253MOL0     C34061  -0.094   1.927   4.388  0.4456  0.0619  0.1823
  253MOL0     C34062  -0.196   2.034   4.353 -0.0357 -0.3254 -0.5605
  253MOL0     C34063  -0.187   2.067   4.200 -0.2982 -0.1569 -0.0812
  253MOL0     C34064  -0.296   2.161   4.149  0.0400  0.0780 -0.2503
  253MOL0    Cl34065  -0.316   2.313   4.228  0.3762 -0.0448  0.3448
  253MOL0     C34066   0.306   1.559   4.880  1.3233 -0.1202  0.0742
  253MOL0     C34067   0.427   1.531   4.947 -0.6058 -0.0548 -0.2402
  253MOL0     O34068   0.542   1.391   5.168 -0.3832 -0.1429 -0.1947
  253MOL0     C34069   0.793   1.611   5.298 -0.6947 -0.6007  0.2041
  253MOL0     C34070   0.895   1.613   5.393  0.8214  0.1489  0.2627
  253MOL0     N34071   1.679   1.749   5.339  0.5882 -0.2947 -0.2827
  253MOL0     N34072   1.806   1.750   5.365 -0.2082  0.0137 -0.4668
  253MOL0     C34073   2.986   1.991   5.690 -0.8850  0.3000  0.1089
  253MOL0     C34074   3.113   1.974   5.634 -0.6961  0.1679 -0.9228
  253MOL0     C34075   3.441   1.911   5.303  0.0245 -0.1820  0.3883
  253MOL0     C34076   3.523   1.983   5.385 -0.2423 -0.3097  0.1611
  253MOL0     C34077   3.653   2.029   5.346 -0.5934  0.2791  0.0359
  253MOL0     C34078   3.707   1.987   5.225  0.9321 -0.3791  0.0748
  253MOL0     O34079   3.838   1.995   5.188  0.2212 -0.9971  0.1337
  253MOL0     C34080   3.937   2.038   5.283 -0.5629  0.2093  0.7870
  253MOL0     C34081   4.055   2.110   5.218  0.1331  0.4449  0.3861
  253MOL0     C34082   4.096   2.045   5.083  0.3610  0.0978  1.0567
  253MOL0     C34083   4.141   1.900   5.102  0.2960  0.3263  0.4454
  253MOL0     C34084   4.254   1.895   5.190 -0.1802 -0.4105 -0.6006
  253MOL0     C34085   4.353   1.884   5.260  0.0302  0.0934 -0.1613
  253MOL0     C34086   3.632   1.909   5.144  0.3116  0.3681  0.2492
  253MOL0     C34087   3.501   1.870   5.183  0.6023 -0.0037 -0.8287
  253MOL0     H34088   3.005   1.884   5.320 -3.1832  0.5468 -0.2358
  253MOL0     H34089   2.802   1.951   5.420  0.8624 -2.0785 -0.5663
  253MOL0     H34090   2.677   1.855   5.808  0.0714 -0.1452 -0.0554
  253MOL0     H34091   2.761   1.998   5.861 -2.0708  0.0177  2.4527
  253MOL0     H34092   2.557   2.058   5.925  2.4900  0.9922  0.5296
  253MOL0     H34093   2.564   2.130   5.762 -0.8964 -0.0421  0.1185
  253MOL0     H34094   2.460   1.919   5.664 -1.7381  1.9977 -1.1278
  253MOL0     H34095   2.467   1.860   5.839  0.8943  0.0936 -0.8493
  253MOL0     H34096   2.322   2.057   5.879  3.8557 -1.8152  1.0637
  253MOL0     H34097   2.313   2.077   5.692 -0.5768  0.0687 -0.1285
  253MOL0     H34098   2.183   1.832   5.831  0.3737  0.2473 -0.2640
  253MOL0     H34099   2.104   1.975   5.784 -0.5653  0.1400 -2.4584
  253MOL0     H34100   2.248   1.927   5.553  0.9412 -0.6265  0.6449
  253MOL0     H34101   2.206   1.767   5.611  0.9804  0.9874  1.0917
  253MOL0     H34102   2.002   1.978   5.597  2.2628  1.4351  0.4493
  253MOL0     H34103   2.058   1.912   5.445 -2.1127 -0.3930 -0.7007
  253MOL0     H34104   1.925   1.744   5.675 -2.0048 -2.0057 -0.4519
  253MOL0     H34105   2.020   1.675   5.541 -0.9895  0.2405 -0.3119
  253MOL0     H34106   1.677   1.832   5.655 -1.9015  0.3630 -0.4707
  253MOL0     H34107   1.427   1.818   5.578 -2.0988 -0.1980  0.1490
  253MOL0     H34108   1.417   1.878   5.411  0.4973  0.5678  0.8140
  253MOL0     H34109   1.434   1.582   5.483 -0.6769  0.1227  1.4994
  253MOL0     H34110   1.384   1.654   5.325  0.2681  0.1659 -0.2356
  253MOL0     H34111   1.173   1.731   5.455 -0.6017 -0.8845 -0.7444
  253MOL0     H34112   1.247   1.655   5.604 -1.3463 -2.4138  0.4555
  253MOL0     H34113   1.249   1.444   5.490  0.0551 -0.2761  2.7469
  253MOL0     H34114   1.165   1.503   5.356  3.6699 -1.9990  0.4452
  253MOL0     H34115   0.945   1.288   5.441  1.9666  0.5941  0.5758
  253MOL0     H34116   0.702   1.223   5.173  1.4531  0.5785 -1.0314
  253MOL0     H34117   0.837   1.154   5.263  0.1123 -0.1296 -1.6824
  253MOL0     H34118   0.676   1.206   5.345  0.2003 -1.2197 -0.1031
  253MOL0     H34119   0.429   1.799   5.150  1.8935 -1.4606 -0.3550
  253MOL0     H34120   0.196   1.844   5.046  2.4013  0.1927  3.3727
  253MOL0     H34121   0.150   1.631   4.665  1.1770 -1.6436  1.1179
  253MOL0     H34122   0.051   1.530   4.771 -0.4587 -0.2896 -0.1416
  253MOL0     H34123  -0.099   1.610   4.605 -2.1135  1.6344  1.7201
  253MOL0     H34124  -0.136   1.705   4.742 -0.3534  2.7754  0.2659
  253MOL0     H34125   0.054   1.776   4.523 -0.4255  0.3577 -0.8563
  253MOL0     H34126   0.035   1.891   4.655 -1.2684  1.6700 -0.4910
  253MOL0     H34127  -0.209   1.787   4.502 -0.1104 -0.2749  3.2326
  253MOL0     H34128  -0.185   1.942   4.582  0.1027 -1.3059  2.1714
  253MOL0     H34129  -0.075   1.858   4.306 -1.1700  2.3174 -2.2802
  253MOL0     H34130  -0.002   1.985   4.400  1.0327 -0.6192 -0.9505
  253MOL0     H34131  -0.294   1.994   4.381  0.2307  0.9085  2.4553
  253MOL0     H34132  -0.175   2.125   4.409 -1.1575  0.9393 -2.0968
  253MOL0     H34133  -0.183   1.979   4.136 -0.6290  0.6666 -1.2727
  253MOL0     H34134  -0.087   2.105   4.175  0.1420 -0.3949  1.2245
  253MOL0     H34135  -0.383   2.101   4.179  1.7792 -2.1443  0.5944
  253MOL0     H34136  -0.288   2.173   4.041 -0.6466 -2.1770 -0.6026
  253MOL0     H34137   0.272   1.489   4.804 -0.7595  0.5525  0.3077
  253MOL0     H34138   0.483   1.443   4.920 -1.6560 -0.4470 -1.2213
  253MOL0     H34139   0.745   1.703   5.267 -2.1195 -1.4604 -0.2426
  253MOL0     H34140   0.934   1.696   5.450  1.4392 -0.0702  0.1689
  253MOL0     H34141   2.981   2.034   5.790  0.1496 -2.2948  1.3842
  253MOL0     H34142   3.205   2.002   5.684  1.8078  0.3340 -5.1796
  253MOL0     H34143   3.512   2.013   5.488  1.7735  1.9285 -0.1818
  253MOL0     H34144   3.711   2.086   5.418  0.7134 -0.4227 -0.4449
  253MOL0     H34145   3.901   2.097   5.367 -0.4236  1.9658 -0.3171
  253MOL0     H34146   3.984   1.949   5.326  0.3451  0.6383  0.7152
  253MOL0     H34147   4.137   2.109   5.290 -0.2008 -2.8966  0.8725
  253MOL0     H34148   4.028   2.214   5.199 -1.4534  0.2892  1.6017
  253MOL0     H34149   4.178   2.101   5.038 -0.1661  1.6776  1.9842
  253MOL0     H34150   4.022   2.036   5.003  1.3712  2.4703 -0.2367
  253MOL0     H34151   4.169   1.864   5.002 -2.9653  1.2705 -0.9601
  253MOL0     H34152   4.058   1.831   5.121  0.8486 -0.9788 -1.5443
  253MOL0     H34153   4.430   1.854   5.329 -0.5439 -0.2836  0.3246
  253MOL0     H34154   3.681   1.882   5.051  1.3335  1.7630  0.3546
  253MOL0     H34155   3.433   1.819   5.115  1.1064 -2.1210  0.1760
  254MOL0     O34156   3.614   3.933   6.657  0.5170 -0.1134 -0.4120
  254MOL0     C34157   3.660   3.824   6.624 -0.3248  0.3675 -0.9738
  254MOL0     O34158   3.584   3.719   6.587 -0.2292 -0.6798  0.7503
  254MOL0     C34159   3.453   3.728   6.620 -0.2466  0.3121  0.6571
  254MOL0     C34160   3.408   3.672   6.745 -0.2189  0.1271  0.2406
  254MOL0     C34161   3.277   3.686   6.777  0.5838  0.6821 -0.6125
  254MOL0     C34162   3.179   3.739   6.680 -0.4247  0.7872 -0.8899
  254MOL0     O34163   3.054   3.762   6.724 -0.0120 -0.3347  0.3568
  254MOL0     C34164   2.978   3.671   6.795 -0.1141  0.0325 -0.6119
  254MOL0     C34165   2.834   3.683   6.755  0.7430  1.0004  0.5904
  254MOL0     C34166   2.765   3.815   6.790 -0.4557 -0.0868 -0.0357
  254MOL0     C34167   2.625   3.817   6.729  0.4247 -0.1786  0.7382
  254MOL0     C34168   2.511   3.740   6.804 -0.4183 -0.2127  0.5726
  254MOL0     C34169   2.394   3.723   6.714 -0.4648  0.1584  0.3065
  254MOL0     C34170   2.295   3.634   6.792  0.0390 -0.1420 -0.3674
  254MOL0     C34171   2.158   3.617   6.726  1.4315 -0.0190 -1.0294
  254MOL0     N34172   2.053   3.540   6.787 -0.0284  0.3878 -0.4061
  254MOL0     C34173   1.979   3.567   6.900 -0.0368  0.0367  0.1480
  254MOL0     C34174   1.896   3.465   6.916 -0.4161  1.1320  0.2585
  254MOL0     C34175   1.786   3.455   7.018  0.3224 -0.1584 -1.0578
  254MOL0     C34176   1.676   3.556   6.998 -0.2835 -0.8310 -0.4264
  254MOL0     C34177   1.582   3.549   6.871 -0.5071 -0.4812 -0.4300
  254MOL0     C34178   1.472   3.664   6.876 -0.0371  0.1965  0.0743
  254MOL0     O34179   1.384   3.641   6.984 -0.0811 -0.1013  0.5047
  254MOL0     C34180   1.258   3.617   6.938 -0.7128  1.3532  0.6091
  254MOL0     C34181   1.180   3.730   6.941  0.4540  0.4087  0.0195
  254MOL0     C34182   1.047   3.725   6.899  0.0616 -0.3870 -0.0344
  254MOL0     C34183   0.949   3.836   6.901 -0.4355 -0.3071  0.2014
  254MOL0     C34184   1.000   3.606   6.832  0.2563  0.5951  0.0569
  254MOL0     C34185   0.866   3.592   6.785 -0.7995  0.0593  0.1777
  254MOL0     O34186   0.765   3.610   6.878  0.0257 -0.2021  0.1754
  254MOL0     C34187   0.634   3.573   6.864 -0.6188  0.0817  0.1336
  254MOL0     C34188   0.535   3.649   6.920  0.4855  0.0088  0.8154
  254MOL0     C34189   0.400   3.612   6.912 -0.3377 -0.4273 -0.4025
  254MOL0     C34190   0.363   3.499   6.829  0.6271  0.0871 -0.1045
  254MOL0     O34191   0.230   3.484   6.817 -0.4064 -0.2734 -0.2720
  254MOL0     C34192   0.187   3.405   6.712  0.5255 -0.2501  0.1300
  254MOL0     C34193   0.035   3.410   6.709 -0.2505 -0.3969 -0.3562
  254MOL0     C34194  -0.044   3.340   6.592 -0.6457 -0.7167 -0.7092
  254MOL0     C34195  -0.193   3.356   6.608 -0.2900  0.6831  0.1991
  254MOL0     C34196  -0.271   3.273   6.510  0.3351 -0.6086  0.8619
  254MOL0     C34197  -0.420   3.272   6.541 -0.0104  0.0059  0.7424
  254MOL0     C34198  -0.501   3.208   6.436  0.0972 -0.4212 -0.0584
  254MOL0     C34199  -0.647   3.229   6.464 -0.3109  0.6454 -0.4091
  254MOL0    Cl34200  -0.759   3.150   6.334 -0.1671  0.4050  0.1832
  254MOL0     C34201   0.464   3.417   6.775  0.4618  0.2374  0.1944
  254MOL0     C34202   0.597   3.458   6.794  0.6729  0.0686  0.2029
  254MOL0     O34203   0.841   3.555   6.671  0.7830  0.5813 -0.1274
  254MOL0     C34204   1.086   3.498   6.824 -0.6829 -0.1975  0.3180
  254MOL0     C34205   1.215   3.496   6.877 -0.7206 -0.2880  0.1660
  254MOL0     N34206   1.921   3.375   6.813  0.0522 -0.4158  0.0545
  254MOL0     N34207   2.022   3.417   6.742  0.1738  0.2368  0.2829
  254MOL0     C34208   3.229   3.788   6.565  0.5595 -0.6728 -0.2869
  254MOL0     C34209   3.365   3.790   6.535 -0.2318 -0.1562 -0.2488
  254MOL0     C34210   3.801   3.812   6.594 -0.1869  0.7859 -0.1988
  254MOL0     C34211   3.851   3.678   6.577 -0.0925 -0.5346 -0.6972
  254MOL0     C34212   3.985   3.660   6.525 -0.4377  0.0026 -0.7165
  254MOL0     C34213   4.072   3.768   6.517 -0.6455  0.5480 -0.3294
  254MOL0     O34214   4.204   3.750   6.482 -0.7933  0.0171  0.6171
  254MOL0     C34215   4.238   3.747   6.340 -0.4620 -0.5128  0.3477
  254MOL0     C34216   4.383   3.708   6.316 -0.5806  0.0981 -0.3193
  254MOL0     C34217   4.425   3.565   6.350  0.8012 -0.9700 -0.8194
  254MOL0     C34218   4.571   3.545   6.318  0.1763  0.6394  0.2708
  254MOL0     C34219   4.669   3.608   6.413 -0.3147  0.1043  0.1292
  254MOL0     C34220   4.753   3.667   6.478  0.0776 -0.6030 -0.4710
  254MOL0     C34221   4.021   3.894   6.540 -0.3283 -0.2589 -0.0057
  254MOL0     C34222   3.890   3.919   6.574  0.6731  0.3665  0.2512
  254MOL0     H34223   3.480   3.626   6.812 -1.5140 -2.2276  0.1269
  254MOL0     H34224   3.229   3.658   6.870 -1.4821  0.6191 -1.6396
  254MOL0     H34225   3.020   3.570   6.791  0.1727  0.1785 -1.5699
  254MOL0     H34226   2.989   3.703   6.899  1.6359  1.1060 -1.0714
  254MOL0     H34227   2.835   3.672   6.646  2.7412 -0.6914  0.6911
  254MOL0     H34228   2.776   3.610   6.811 -1.2134  2.7694  0.9776
  254MOL0     H34229   2.763   3.830   6.898 -2.4982  0.8131 -0.1607
  254MOL0     H34230   2.830   3.885   6.736  1.8209 -1.6911  0.4601
  254MOL0     H34231   2.610   3.925   6.727  3.2408  0.3187  1.5398
  254MOL0     H34232   2.619   3.782   6.626 -1.9294  0.7323  0.5084
  254MOL0     H34233   2.550   3.641   6.830  0.1806 -0.7152 -1.9625
  254MOL0     H34234   2.493   3.796   6.896  1.8384 -1.3310  1.7741
  254MOL0     H34235   2.336   3.813   6.689 -3.1075 -1.8352 -1.2713
  254MOL0     H34236   2.415   3.686   6.613 -1.8300  0.5000 -0.1375
  254MOL0     H34237   2.335   3.534   6.808  0.3474  0.1245  0.6183
  254MOL0     H34238   2.281   3.679   6.891 -1.5276 -0.4845 -0.4058
  254MOL0     H34239   2.173   3.579   6.625 -0.0603 -3.7352 -0.0043
  254MOL0     H34240   2.106   3.713   6.714 -1.3252 -1.0726  1.1912
  254MOL0     H34241   1.989   3.657   6.959 -3.3115  3.1961 -3.5277
  254MOL0     H34242   1.738   3.359   6.997  0.0686  0.1981 -2.2023
  254MOL0     H34243   1.823   3.453   7.121  0.8627  2.0755 -1.1489
  254MOL0     H34244   1.713   3.658   7.015 -0.3330 -0.9151  0.2170
  254MOL0     H34245   1.617   3.537   7.089  0.8530  0.2023  0.5694
  254MOL0     H34246   1.533   3.451   6.868  2.2259 -1.9311 -0.8065
  254MOL0     H34247   1.638   3.558   6.778 -1.0194 -1.1004 -0.8134
  254MOL0     H34248   1.421   3.683   6.781 -1.2643 -1.4565  0.3554
  254MOL0     H34249   1.525   3.756   6.904 -1.2971  1.1225 -0.4798
  254MOL0     H34250   1.220   3.822   6.982 -0.9857 -0.5101  3.9741
  254MOL0     H34251   0.884   3.834   6.990  0.6304  1.5816  1.0923
  254MOL0     H34252   1.014   3.924   6.907  2.9789 -2.7664  3.0328
  254MOL0     H34253   0.888   3.844   6.810 -1.6664 -2.8002  0.7347
  254MOL0     H34254   0.567   3.736   6.977 -0.8393  0.5616  0.7467
  254MOL0     H34255   0.328   3.664   6.975  2.8323 -0.2024  3.4218
  254MOL0     H34256   0.230   3.427   6.613 -1.5763 -1.4115 -1.1289
  254MOL0     H34257   0.213   3.299   6.720  0.4492 -0.2300  0.6539
  254MOL0     H34258  -0.001   3.370   6.804 -1.9265  0.4283 -0.6120
  254MOL0     H34259   0.013   3.517   6.697 -0.3338 -0.5748 -2.0455
  254MOL0     H34260  -0.013   3.236   6.576  1.8318  0.0030 -0.9740
  254MOL0     H34261  -0.017   3.395   6.501  0.4343  0.2956  0.2074
  254MOL0     H34262  -0.228   3.323   6.706 -1.2133 -2.3916 -1.0409
  254MOL0     H34263  -0.216   3.463   6.599  0.1071  0.8089  0.6444
  254MOL0     H34264  -0.235   3.171   6.505 -0.4021 -0.8377 -0.2412
  254MOL0     H34265  -0.259   3.310   6.408 -3.0050 -1.6016 -0.0358
  254MOL0     H34266  -0.443   3.227   6.638 -0.2752 -2.1143 -0.2645
  254MOL0     H34267  -0.454   3.375   6.556  3.7510  1.2712  1.8469
  254MOL0     H34268  -0.478   3.101   6.431  0.0147 -0.3965 -1.5503
  254MOL0     H34269  -0.461   3.255   6.346 -0.1198  2.0476  1.0680
  254MOL0     H34270  -0.659   3.337   6.464 -1.1890  0.5570 -0.7869
  254MOL0     H34271  -0.669   3.187   6.563 -3.3939 -3.1758 -2.3982
  254MOL0     H34272   0.438   3.323   6.728  2.5651 -0.0580 -0.5073
  254MOL0     H34273   0.677   3.401   6.748  2.2553  2.5783 -0.3402
  254MOL0     H34274   1.054   3.409   6.770 -0.6849  0.7925 -1.3977
  254MOL0     H34275   1.266   3.402   6.896 -1.5389 -0.5872  0.9627
  254MOL0     H34276   3.149   3.841   6.514  1.7780  2.2628  0.6083
  254MOL0     H34277   3.389   3.826   6.435  1.8910 -0.3749  0.1454
  254MOL0     H34278   3.797   3.586   6.596  1.7687 -1.3447  1.0234
  254MOL0     H34279   4.018   3.557   6.514 -2.0148 -0.4370 -1.6177
  254MOL0     H34280   4.172   3.691   6.274 -1.7646  2.9028 -1.5061
  254MOL0     H34281   4.216   3.849   6.309 -0.1980 -0.1915  1.1853
  254MOL0     H34282   4.455   3.781   6.354 -2.9979  1.9635  0.9680
  254MOL0     H34283   4.398   3.723   6.209 -1.2709  1.4672 -0.2421
  254MOL0     H34284   4.372   3.485   6.297 -0.1128 -0.6353 -0.4308
  254MOL0     H34285   4.397   3.540   6.453  0.3414 -0.0851 -0.7203
  254MOL0     H34286   4.593   3.579   6.216  0.3047 -2.0830 -0.6767
  254MOL0     H34287   4.593   3.439   6.331  0.4023  0.8625  1.8797
  254MOL0     H34288   4.821   3.731   6.531 -0.3599  0.4110 -1.1036
  254MOL0     H34289   4.100   3.969   6.545  0.6673 -1.3256  1.0904
  254MOL0     H34290   3.853   4.021   6.574 -0.5579 -0.0509 -0.6906
  255MOL0     O34291   8.451   9.942   2.304 -0.9259  0.1965  0.3729
  255MOL0     C34292   8.545  10.000   2.354  0.3097 -0.8563 -0.0230
  255MOL0     O34293   8.541  10.134   2.389  0.5225 -0.6717  0.2559
  255MOL0     C34294   8.436  10.212   2.344 -0.5720 -0.4702  0.1436
  255MOL0     C34295   8.306  10.167   2.369  0.3173 -0.1076  0.8737
  255MOL0     C34296   8.204  10.239   2.311  1.2341  0.7232  0.2873
  255MOL0     C34297   8.225  10.362   2.230  0.3149  0.7099 -0.4477
  255MOL0     O34298   8.126  10.425   2.170 -0.9673 -0.6946  0.3733
  255MOL0     C34299   7.995  10.380   2.166  0.1348 -0.0394  0.1938
  255MOL0     C34300   7.911  10.454   2.061 -0.1443  0.1237 -0.3368
  255MOL0     C34301   7.766  10.414   2.067 -0.6068 -0.6916  0.0196
  255MOL0     C34302   7.696  10.496   1.966  0.0575 -0.6756 -0.3832
  255MOL0     C34303   7.559  10.422   1.955  0.8833  0.2895 -0.3634
  255MOL0     C34304   7.476  10.482   1.834 -0.0320 -0.0359  0.3596
  255MOL0     C34305   7.329  10.428   1.828 -0.1457 -0.1231 -0.0208
  255MOL0     C34306   7.254  10.484   1.711 -0.3095 -0.0518  0.6550
  255MOL0     N34307   7.109  10.483   1.739 -0.5934 -0.2923  0.3343
  255MOL0     C34308   7.041  10.550   1.832 -0.0050 -0.7992 -0.8761
  255MOL0     C34309   6.912  10.520   1.809 -0.5921 -0.5041  0.1196
  255MOL0     C34310   6.799  10.559   1.899  0.4245  0.1684  0.0002
  255MOL0     C34311   6.662  10.600   1.833  0.7083  0.3576  0.1187
  255MOL0     C34312   6.676  10.746   1.779 -0.4808  0.1873 -0.4786
  255MOL0     C34313   6.543  10.797   1.711 -0.2872 -0.1334 -0.7369
  255MOL0     O34314   6.566  10.937   1.688 -0.5996 -0.6660 -0.9180
  255MOL0     C34315   6.463  11.009   1.639 -0.2509  0.2715 -0.6164
  255MOL0     C34316   6.465  11.144   1.657  1.0279 -0.0336  0.0225
  255MOL0     C34317   6.357  11.221   1.604  0.3887 -0.6738 -1.0734
  255MOL0     C34318   6.364  11.374   1.628  1.1341  0.0534  0.6883
  255MOL0     C34319   6.242  11.162   1.549  0.6156 -0.4761 -0.3808
  255MOL0     C34320   6.122  11.229   1.497  0.9135 -1.0693 -0.0054
  255MOL0     O34321   6.002  11.164   1.518  0.3358 -0.5596 -0.4808
  255MOL0     C34322   5.887  11.224   1.484  0.0504 -0.5706  0.8676
  255MOL0     C34323   5.844  11.342   1.543  0.1238  0.0100  0.4530
  255MOL0     C34324   5.728  11.408   1.494  0.0134 -0.4698  0.4373
  255MOL0     C34325   5.655  11.355   1.394 -0.5805  0.1742 -0.9054
  255MOL0     O34326   5.539  11.406   1.344 -0.1654 -0.1122  0.4252
  255MOL0     C34327   5.554  11.538   1.288  0.9744 -0.2706  0.1984
  255MOL0     C34328   5.430  11.553   1.192  0.6852 -0.4075 -0.1093
  255MOL0     C34329   5.299  11.590   1.268 -0.1786  0.9352 -0.0826
  255MOL0     C34330   5.172  11.581   1.179  0.3124  0.1700  0.5487
  255MOL0     C34331   5.044  11.584   1.270 -0.2250  0.2354  0.9058
  255MOL0     C34332   4.917  11.571   1.191  0.2390  0.4984 -0.0325
  255MOL0     C34333   4.852  11.705   1.179  0.0674  0.0667 -0.0444
  255MOL0     C34334   4.921  11.792   1.071 -0.1038  0.6591 -0.1069
  255MOL0    Cl34335   4.850  11.948   1.067  0.3266  0.1136 -0.3397
  255MOL0     C34336   5.703  11.242   1.329  0.2614 -0.0779  0.2779
  255MOL0     C34337   5.814  11.171   1.382  1.0003  0.7827 -0.4530
  255MOL0     O34338   6.134  11.330   1.436  0.5576  0.4983  0.3060
  255MOL0     C34339   6.244  11.024   1.537  0.8591  0.0953  0.6675
  255MOL0     C34340   6.353  10.949   1.579 -0.9297 -0.4474  0.3222
  255MOL0     N34341   6.903  10.444   1.698 -0.7948 -0.2026  0.0948
  255MOL0     N34342   7.023  10.423   1.655  0.1583  0.1978  0.2400
  255MOL0     C34343   8.357  10.408   2.220 -0.5402 -0.2352  0.8387
  255MOL0     C34344   8.455  10.333   2.279 -1.0456  0.0230 -0.7999
  255MOL0     C34345   8.665   9.930   2.367  0.0051  0.3412 -0.4198
  255MOL0     C34346   8.779  10.003   2.414 -0.3800 -0.6056 -0.3141
  255MOL0     C34347   8.903   9.947   2.438  0.5549 -0.0809  0.2018
  255MOL0     C34348   8.924   9.815   2.397  0.3086  1.4483 -0.3546
  255MOL0     O34349   9.046   9.752   2.409  0.2038 -0.1720 -0.0747
  255MOL0     C34350   9.162   9.837   2.398  0.4418  0.4888 -0.2287
  255MOL0     C34351   9.285   9.758   2.372 -0.3826  0.6083  0.5510
  255MOL0     C34352   9.306   9.649   2.477 -0.2894 -0.2649  0.5652
  255MOL0     C34353   9.368   9.721   2.601  0.6340  0.6599  0.4094
  255MOL0     C34354   9.411   9.632   2.710  0.4180 -0.5640 -0.1201
  255MOL0     C34355   9.440   9.553   2.799 -0.0768 -0.2123  0.6890
  255MOL0     C34356   8.826   9.734   2.339  0.7727  0.6975 -0.6865
  255MOL0     C34357   8.695   9.791   2.326  0.4207  0.3144 -0.4040
  255MOL0     H34358   8.287  10.075   2.423 -1.7618 -0.1333  0.1727
  255MOL0     H34359   8.103  10.204   2.327  0.9477  0.4265 -1.9304
  255MOL0     H34360   7.990  10.273   2.143 -2.1236  0.1109 -0.2666
  255MOL0     H34361   7.954  10.394   2.267  1.7590  0.8206  0.7650
  255MOL0     H34362   7.909  10.561   2.081  0.4543  0.1440 -0.3392
  255MOL0     H34363   7.950  10.434   1.960  2.3921  0.6544  0.4513
  255MOL0     H34364   7.779  10.306   2.052  0.0696 -0.5836 -0.2286
  255MOL0     H34365   7.734  10.429   2.171  1.4856 -0.8952  0.7532
  255MOL0     H34366   7.690  10.604   1.982 -1.5293 -0.4651 -2.0459
  255MOL0     H34367   7.751  10.486   1.873  2.3738  1.0326  0.7003
  255MOL0     H34368   7.580  10.318   1.929  3.0547  0.7205 -0.4858
  255MOL0     H34369   7.495  10.424   2.044  0.7141 -0.5202 -0.4577
  255MOL0     H34370   7.469  10.590   1.851  0.4249  0.0328  0.1498
  255MOL0     H34371   7.533  10.470   1.741  0.4663 -0.8386  0.7560
  255MOL0     H34372   7.326  10.318   1.833 -1.6770 -0.0616  0.9012
  255MOL0     H34373   7.285  10.468   1.920 -1.7143 -4.8561  1.5983
  255MOL0     H34374   7.280  10.428   1.620 -0.0913 -1.0598  1.3239
  255MOL0     H34375   7.281  10.589   1.697  1.7015 -0.7286 -1.2516
  255MOL0     H34376   7.087  10.601   1.917 -2.2769  1.3785 -0.8527
  255MOL0     H34377   6.768  10.475   1.961 -0.1900  1.1832  1.1195
  255MOL0     H34378   6.830  10.642   1.964  2.3176  2.0951 -3.1032
  255MOL0     H34379   6.585  10.583   1.909  1.9894  0.0117  1.3846
  255MOL0     H34380   6.641  10.538   1.746 -0.7661 -2.4738  2.3081
  255MOL0     H34381   6.754  10.753   1.703  1.0525  2.6391  1.1890
  255MOL0     H34382   6.706  10.818   1.856  2.3180  1.2412 -2.3922
  255MOL0     H34383   6.455  10.776   1.773  0.2984 -0.6880 -0.0791
  255MOL0     H34384   6.536  10.739   1.618 -1.4711 -0.9192 -0.1843
  255MOL0     H34385   6.546  11.192   1.711  0.4512 -1.5826  2.4800
  255MOL0     H34386   6.351  11.389   1.735  0.5800 -0.1995  0.6586
  255MOL0     H34387   6.464  11.411   1.603  0.5068  0.8393 -0.7370
  255MOL0     H34388   6.305  11.445   1.569 -0.9836 -1.8678  0.3475
  255MOL0     H34389   5.920  11.391   1.602  4.1812 -3.5068 -1.2959
  255MOL0     H34390   5.699  11.508   1.524  0.6310 -0.4718  1.0712
  255MOL0     H34391   5.544  11.612   1.369  1.0622  0.7039 -0.6616
  255MOL0     H34392   5.648  11.553   1.234  0.8653  0.2160  0.1393
  255MOL0     H34393   5.438  11.622   1.107 -0.3590 -1.5137 -1.1506
  255MOL0     H34394   5.410  11.454   1.151 -0.7618  0.4076 -1.5044
  255MOL0     H34395   5.316  11.690   1.309  0.3580 -0.0107  2.2040
  255MOL0     H34396   5.291  11.521   1.353 -0.4897 -1.7214 -2.1316
  255MOL0     H34397   5.167  11.666   1.110 -0.0001  1.1850  1.7920
  255MOL0     H34398   5.176  11.491   1.116 -2.4618  1.9230 -2.4481
  255MOL0     H34399   5.044  11.676   1.330 -1.7815  0.5716  0.4140
  255MOL0     H34400   5.055  11.498   1.338  0.6656  1.0966  1.9024
  255MOL0     H34401   4.942  11.523   1.096 -0.6970  0.6833 -0.3858
  255MOL0     H34402   4.849  11.509   1.250 -1.4424  1.7733 -0.5499
  255MOL0     H34403   4.858  11.756   1.275  0.8143 -0.6493  0.3068
  255MOL0     H34404   4.749  11.684   1.148  0.0776  0.4963 -0.3751
  255MOL0     H34405   4.900  11.745   0.974  1.4817 -0.4956  0.0701
  255MOL0     H34406   5.024  11.804   1.104  0.7284 -0.7551 -1.9818
  255MOL0     H34407   5.657  11.211   1.236  1.0298 -2.2733  0.5687
  255MOL0     H34408   5.852  11.077   1.343 -2.1349 -1.5256  1.5219
  255MOL0     H34409   6.163  10.961   1.504  0.9856 -0.6747  1.7946
  255MOL0     H34410   6.339  10.842   1.587  4.9556 -1.4788  1.7004
  255MOL0     H34411   8.390  10.481   2.147  0.3232 -1.9876 -0.6083
  255MOL0     H34412   8.559  10.363   2.267 -0.8695 -1.1034 -2.4144
  255MOL0     H34413   8.771  10.106   2.447  1.4577 -0.2524 -0.8568
  255MOL0     H34414   8.979  10.012   2.482  2.5504 -1.4214 -1.0947
  255MOL0     H34415   9.149   9.907   2.316 -2.3003  1.7269  1.1586
  255MOL0     H34416   9.170   9.902   2.485 -2.2600 -0.6323  0.9583
  255MOL0     H34417   9.363   9.834   2.365 -0.0498  0.1206 -2.2940
  255MOL0     H34418   9.274   9.708   2.275 -1.1406  1.5286  0.1436
  255MOL0     H34419   9.385   9.581   2.444  0.6252  1.3322 -0.7000
  255MOL0     H34420   9.214   9.593   2.498 -0.6047 -0.9231 -2.1091
  255MOL0     H34421   9.294   9.783   2.653 -0.6636 -0.3264 -0.1979
  255MOL0     H34422   9.449   9.785   2.566  0.2256  1.2630  0.5541
  255MOL0     H34423   9.470   9.485   2.876  1.4485  0.7261  0.9540
  255MOL0     H34424   8.843   9.630   2.311 -0.9856  0.2976 -0.3871
  255MOL0     H34425   8.614   9.731   2.288  0.0674  2.3828 -3.2349
  256MOL0     O34426   3.062   2.268  10.177  0.6091  0.1645  0.1109
  256MOL0     C34427   3.041   2.149  10.189 -0.4641 -0.2384 -0.2152
  256MOL0     O34428   3.130   2.057  10.229  0.2899  0.4104  0.5851
  256MOL0     C34429   3.257   2.111  10.255  0.3597  0.0970  0.6649
  256MOL0     C34430   3.360   2.065  10.164  0.5264 -0.2791  0.5770
  256MOL0     C34431   3.489   2.110  10.181 -0.2820  0.8134 -0.3455
  256MOL0     C34432   3.531   2.183  10.295 -0.8672  1.3314 -0.7328
  256MOL0     O34433   3.658   2.230  10.307 -0.2187 -0.2532  0.3194
  256MOL0     C34434   3.682   2.370  10.331 -0.1393 -0.3742 -0.5064
  256MOL0     C34435   3.824   2.395  10.364  0.6584  0.0579  0.7047
  256MOL0     C34436   3.903   2.371  10.238  0.0132 -0.0780 -0.4382
  256MOL0     C34437   4.048   2.435  10.250  0.8194 -0.5027 -0.5678
  256MOL0     C34438   4.116   2.430  10.115 -0.2443  0.1268 -0.8646
  256MOL0     C34439   4.261   2.460  10.128 -0.4736 -0.5424 -0.1405
  256MOL0     C34440   4.339   2.460   9.992  0.1571  0.6711  1.0661
  256MOL0     C34441   4.345   2.318   9.914 -0.1765 -0.3604  0.3508
  256MOL0     N34442   4.417   2.217   9.981  0.1275  0.0663 -0.7625
  256MOL0     C34443   4.552   2.206  10.003 -0.5101 -0.1340 -0.1552
  256MOL0     C34444   4.580   2.103  10.082 -0.4454 -0.2232  0.5687
  256MOL0     C34445   4.721   2.055  10.118  0.3474  0.0121  0.0351
  256MOL0     C34446   4.748   1.918  10.057 -0.1064 -0.1551 -0.1068
  256MOL0     C34447   4.879   1.864  10.099  0.6628 -0.4229 -0.1036
  256MOL0     C34448   4.866   1.719  10.154 -0.6203 -0.5266 -0.2620
  256MOL0     O34449   4.799   1.717  10.280  0.2441 -0.4035  0.7655
  256MOL0     C34450   4.696   1.626  10.298  0.2880 -1.4006 -0.3988
  256MOL0     C34451   4.565   1.674  10.293 -0.9789  0.2660 -0.6700
  256MOL0     C34452   4.455   1.593  10.326 -0.1420  0.8707 -0.0340
  256MOL0     C34453   4.325   1.653  10.315  0.2230 -0.4670 -0.6391
  256MOL0     C34454   4.480   1.457  10.367  0.0796 -0.2254 -0.0952
  256MOL0     C34455   4.368   1.364  10.404 -0.3587  0.3960 -0.5962
  256MOL0     O34456   4.249   1.385  10.349 -0.2607  0.7346  0.6348
  256MOL0     C34457   4.149   1.291  10.370 -0.3038  0.4085 -0.3853
  256MOL0     C34458   4.173   1.153  10.360 -0.7926 -0.1698  0.2244
  256MOL0     C34459   4.062   1.061  10.354  0.2500  0.6551 -0.1568
  256MOL0     C34460   3.933   1.100  10.368  1.0804  0.0651  0.0614
  256MOL0     O34461   3.850   0.996  10.365  0.4235  0.6363 -0.0054
  256MOL0     C34462   3.711   1.014  10.419 -0.2802 -0.1176  0.4226
  256MOL0     C34463   3.662   0.872  10.426  1.1442  0.3478 -0.0571
  256MOL0     C34464   3.534   0.872  10.512 -0.7678  0.3033 -0.4938
  256MOL0     C34465   3.498   0.713  10.528 -0.0776 -0.3678  0.0494
  256MOL0     C34466   3.347   0.687  10.546 -0.7146  0.2091  0.2329
  256MOL0     C34467   3.308   0.541  10.542 -0.7413 -0.1064 -0.5721
  256MOL0     C34468   3.400   0.461  10.642  0.3112  0.2602  0.7814
  256MOL0     C34469   3.320   0.342  10.681  0.3659 -0.4373  0.2149
  256MOL0    Cl34470   3.182   0.378  10.782  0.0576  0.2540  0.2006
  256MOL0     C34471   3.908   1.240  10.371  0.6498 -0.5630 -0.9952
  256MOL0     C34472   4.011   1.336  10.359 -1.0073 -0.4099  0.4632
  256MOL0     O34473   4.399   1.257  10.466 -0.7691 -0.4143  0.5695
  256MOL0     C34474   4.617   1.415  10.378  0.3854  0.5066 -1.0918
  256MOL0     C34475   4.721   1.502  10.353 -0.3654 -0.1983  0.7202
  256MOL0     N34476   4.458   2.043  10.122 -0.4880 -0.1848  0.1658
  256MOL0     N34477   4.366   2.122  10.067  0.1064 -0.0214  0.4754
  256MOL0     C34478   3.428   2.218  10.385  0.9627  0.5901  0.4455
  256MOL0     C34479   3.294   2.192  10.361  0.0555  0.7076 -0.2305
  256MOL0     C34480   2.914   2.098  10.135  0.1737 -0.8602  0.4403
  256MOL0     C34481   2.867   1.972  10.168  0.0904  0.2883 -0.2832
  256MOL0     C34482   2.743   1.925  10.122  0.6926  0.0467  0.8471
  256MOL0     C34483   2.664   2.009  10.053  0.7663  0.4158 -0.1256
  256MOL0     O34484   2.537   1.970  10.022  0.2889  0.4902  0.7704
  256MOL0     C34485   2.473   1.847  10.084  0.6644 -0.5771 -0.4096
  256MOL0     C34486   2.321   1.867  10.064 -0.5424  0.0044  0.8907
  256MOL0     C34487   2.236   1.744  10.089  0.4726  0.0771  0.0951
  256MOL0     C34488   2.093   1.768  10.043  0.3959 -0.5322 -0.6820
  256MOL0     C34489   2.003   1.672  10.112  0.2235 -0.4156  0.0646
  256MOL0     C34490   1.930   1.589  10.172 -1.0261  0.0222  0.3496
  256MOL0     C34491   2.701   2.137  10.025 -0.4615 -0.3919 -0.5434
  256MOL0     C34492   2.821   2.180  10.066 -0.2139  0.5977  0.5039
  256MOL0     H34493   3.332   2.006  10.078  2.1140  1.5643 -1.3272
  256MOL0     H34494   3.569   2.077  10.116 -0.1633  1.0377 -0.3128
  256MOL0     H34495   3.659   2.431  10.244  1.3168 -1.2754 -1.5647
  256MOL0     H34496   3.622   2.417  10.410 -2.5419 -1.3263 -1.6782
  256MOL0     H34497   3.840   2.497  10.400 -0.7920 -0.2099  2.2476
  256MOL0     H34498   3.843   2.314  10.435 -1.7861 -1.4282 -0.1972
  256MOL0     H34499   3.914   2.264  10.218 -0.7453  0.1300 -2.1857
  256MOL0     H34500   3.862   2.415  10.147 -0.7969  2.0076  0.8724
  256MOL0     H34501   4.023   2.539  10.275 -1.7387 -0.7832 -1.6473
  256MOL0     H34502   4.096   2.382  10.332  0.0188  3.1288  2.5400
  256MOL0     H34503   4.112   2.327  10.078 -1.2895  0.7276 -2.5424
  256MOL0     H34504   4.067   2.490  10.038 -3.7627 -0.0600  1.0384
  256MOL0     H34505   4.276   2.560  10.170  0.7171 -1.0239  0.6166
  256MOL0     H34506   4.311   2.401  10.206 -0.8521  0.0800  0.5937
  256MOL0     H34507   4.288   2.529   9.924  1.3163  1.7442  1.2547
  256MOL0     H34508   4.442   2.484  10.018  0.1995 -1.8192  3.7987
  256MOL0     H34509   4.392   2.341   9.818  3.6917 -3.5259  1.2443
  256MOL0     H34510   4.246   2.274   9.892  0.9290 -1.9332 -1.9401
  256MOL0     H34511   4.626   2.267   9.952  0.9399 -2.1783 -0.6581
  256MOL0     H34512   4.794   2.127  10.080  0.1914  0.4763  0.6084
  256MOL0     H34513   4.727   2.053  10.227  0.6596  0.0927  0.0198
  256MOL0     H34514   4.752   1.933   9.949 -0.8175 -0.8178 -0.2390
  256MOL0     H34515   4.666   1.848  10.080  1.4978 -1.0937  3.4257
  256MOL0     H34516   4.920   1.913  10.188  1.1238  0.3531 -0.7305
  256MOL0     H34517   4.944   1.871  10.011 -1.9119 -1.7646 -2.2428
  256MOL0     H34518   4.965   1.674  10.164 -0.8782 -1.4622 -1.6818
  256MOL0     H34519   4.813   1.649  10.089 -1.0246  1.6589 -2.4330
  256MOL0     H34520   4.556   1.780  10.273 -1.1199  0.2094 -0.9042
  256MOL0     H34521   4.271   1.607  10.231 -0.1469 -0.8452 -0.2009
  256MOL0     H34522   4.267   1.637  10.406  0.1576 -1.0652 -0.7832
  256MOL0     H34523   4.337   1.760  10.295  1.7807 -0.2561  1.0920
  256MOL0     H34524   4.273   1.111  10.356 -0.6565 -0.1661  2.2212
  256MOL0     H34525   4.073   0.953  10.357  0.3510  0.6744  1.7306
  256MOL0     H34526   3.717   1.063  10.517  0.2416  0.8464 -0.0723
  256MOL0     H34527   3.648   1.070  10.350  0.4275  0.8952  0.5695
  256MOL0     H34528   3.650   0.825  10.328  2.1919 -0.7709  0.3218
  256MOL0     H34529   3.732   0.805  10.477 -0.4086 -0.7400  0.7297
  256MOL0     H34530   3.447   0.924  10.471 -0.6657 -0.0032 -1.1201
  256MOL0     H34531   3.566   0.913  10.608  2.0074  0.5976 -1.4590
  256MOL0     H34532   3.529   0.662  10.436  1.1190  2.1525 -1.0466
  256MOL0     H34533   3.550   0.666  10.612 -1.0389 -2.4523 -0.4523
  256MOL0     H34534   3.296   0.730  10.460  0.7475  0.5898 -0.4805
  256MOL0     H34535   3.326   0.730  10.644  0.1841  1.2262 -0.0022
  256MOL0     H34536   3.200   0.529  10.557 -1.5859  2.4924 -3.5851
  256MOL0     H34537   3.322   0.509  10.439  0.6838 -2.4178  0.2508
  256MOL0     H34538   3.416   0.521  10.733 -2.9200 -0.1568  1.7718
  256MOL0     H34539   3.495   0.442  10.593  0.7973  1.1697  1.3281
  256MOL0     H34540   3.385   0.284  10.746  3.6486  2.7798  0.1657
  256MOL0     H34541   3.287   0.287  10.592 -0.3221  1.4192 -0.7334
  256MOL0     H34542   3.802   1.265  10.373  1.0691  1.3766  0.7195
  256MOL0     H34543   3.985   1.439  10.338 -0.1846  0.4220  3.1877
  256MOL0     H34544   4.652   1.314  10.394 -2.4020 -1.3189 -4.9123
  256MOL0     H34545   4.827   1.478  10.357 -0.1720  0.2246 -0.9905
  256MOL0     H34546   3.466   2.272  10.471  1.9777 -0.4306  0.6575
  256MOL0     H34547   3.227   2.222  10.441 -0.2672 -0.6721  0.0332
  256MOL0     H34548   2.938   1.902  10.213 -0.3811 -0.7195 -1.0595
  256MOL0     H34549   2.720   1.824  10.154  0.1415 -0.3939 -0.8349
  256MOL0     H34550   2.512   1.757  10.036  2.0829 -1.0396  1.5381
  256MOL0     H34551   2.493   1.843  10.191  1.2828 -0.5603 -0.5210
  256MOL0     H34552   2.299   1.900   9.962  1.8053 -2.9695 -0.7532
  256MOL0     H34553   2.291   1.943  10.135  0.7240  2.0505 -0.6448
  256MOL0     H34554   2.245   1.722  10.196 -3.2764 -0.7265  0.3857
  256MOL0     H34555   2.279   1.652  10.047 -0.7333 -1.0188  1.1760
  256MOL0     H34556   2.093   1.754   9.935  0.2497  2.1627 -1.1199
  256MOL0     H34557   2.065   1.872  10.064  0.5769 -0.5409 -0.3913
  256MOL0     H34558   1.856   1.524  10.213  1.1256 -2.1007  1.0864
  256MOL0     H34559   2.643   2.208   9.968 -0.7230  0.3975  0.6757
  256MOL0     H34560   2.845   2.285  10.059  1.1892  0.2135 -1.5715
  257MOL0     O34561   2.155   5.123   5.505 -1.1641 -0.7409 -1.2192
  257MOL0     C34562   2.123   5.112   5.625 -1.6853  0.7858 -0.0741
  257MOL0     O34563   2.000   5.080   5.681 -0.2729  0.5513 -0.1287
  257MOL0     C34564   1.892   5.093   5.609  0.9911 -0.5428  0.9767
  257MOL0     C34565   1.787   5.001   5.629 -0.5760  0.2535 -0.6034
  257MOL0     C34566   1.661   5.014   5.577 -0.2457 -0.5053 -0.4174
  257MOL0     C34567   1.628   5.127   5.497 -0.4723  0.0635 -0.2893
  257MOL0     O34568   1.502   5.157   5.437 -0.2720  0.0466  0.1265
  257MOL0     C34569   1.401   5.058   5.431  0.5369  0.1854 -0.0482
  257MOL0     C34570   1.313   5.090   5.309  0.3131  0.2669 -0.0736
  257MOL0     C34571   1.217   5.210   5.312 -1.0798 -0.2721  0.6818
  257MOL0     C34572   1.089   5.173   5.386 -0.0637 -0.2344  0.1009
  257MOL0     C34573   1.005   5.300   5.395 -0.2133 -0.5060 -0.4565
  257MOL0     C34574   0.903   5.272   5.501  0.0674  0.7227  0.2896
  257MOL0     C34575   0.794   5.170   5.457  0.1655  0.1186  0.3573
  257MOL0     C34576   0.705   5.145   5.573  0.8761  0.5445 -0.3292
  257MOL0     N34577   0.600   5.242   5.584 -0.4191 -0.5229 -0.1169
  257MOL0     C34578   0.614   5.356   5.664 -0.1242 -0.1770  0.3025
  257MOL0     C34579   0.496   5.431   5.643 -0.4117 -0.6305 -1.0687
  257MOL0     C34580   0.472   5.569   5.705 -0.1570 -0.0798 -0.4009
  257MOL0     C34581   0.328   5.617   5.704 -0.8693  0.4831 -0.0321
  257MOL0     C34582   0.241   5.531   5.794 -0.5923  0.1149  1.4306
  257MOL0     C34583   0.093   5.564   5.757 -0.2067  0.3051  0.0736
  257MOL0     O34584   0.023   5.471   5.842  0.3205  0.0998 -0.3833
  257MOL0     C34585  -0.097   5.515   5.894 -0.8365 -0.2032  0.7177
  257MOL0     C34586  -0.144   5.468   6.015 -0.9306 -1.1856  0.4702
  257MOL0     C34587  -0.275   5.500   6.055  0.1684  0.5604 -0.1289
  257MOL0     C34588  -0.339   5.437   6.181 -0.5039  0.1679 -0.5046
  257MOL0     C34589  -0.356   5.588   5.975 -0.0088  0.9637  0.0898
  257MOL0     C34590  -0.495   5.621   6.007  0.2266  0.8471  0.3913
  257MOL0     O34591  -0.515   5.746   6.040 -0.3272  0.1472 -0.5910
  257MOL0     C34592  -0.643   5.787   6.059  0.4204 -0.2313 -0.4612
  257MOL0     C34593  -0.679   5.905   6.005 -0.2417  0.4708 -0.6917
  257MOL0     C34594  -0.806   5.958   6.021 -0.9115 -0.4377  0.2215
  257MOL0     C34595  -0.907   5.884   6.079  0.0947 -0.0305  0.2399
  257MOL0     O34596  -1.036   5.917   6.093 -0.1698 -0.0509 -0.5731
  257MOL0     C34597  -1.085   6.029   6.022 -0.2370  0.0117  0.3564
  257MOL0     C34598  -1.235   6.035   6.071  0.2139  0.9555  0.3356
  257MOL0     C34599  -1.312   5.926   6.002  0.9004  0.1163 -0.8801
  257MOL0     C34600  -1.449   5.914   6.070 -0.1250  0.0103 -0.1623
  257MOL0     C34601  -1.550   5.833   5.981  0.6995  0.1879 -0.2563
  257MOL0     C34602  -1.683   5.807   6.056  0.9102  0.4607 -0.3903
  257MOL0     C34603  -1.766   5.706   5.969 -0.2461  0.1468 -1.4691
  257MOL0     C34604  -1.908   5.669   6.019  0.0340 -0.3603  0.2739
  257MOL0    Cl34605  -1.985   5.821   6.057  0.3249  0.0400  0.0159
  257MOL0     C34606  -0.859   5.769   6.142  0.4411  0.5886  0.9483
  257MOL0     C34607  -0.734   5.718   6.134 -0.0815  0.0511  0.0785
  257MOL0     O34608  -0.585   5.546   5.985  0.0551  0.2873  0.7646
  257MOL0     C34609  -0.298   5.632   5.852  1.4671 -0.2155 -0.1494
  257MOL0     C34610  -0.170   5.609   5.814 -0.0239  0.0246 -0.6088
  257MOL0     N34611   0.421   5.354   5.557  0.2643 -0.8103 -0.7209
  257MOL0     N34612   0.479   5.248   5.520  0.6374 -0.3670 -0.8004
  257MOL0     C34613   1.729   5.213   5.471 -0.2745 -0.6832  0.4549
  257MOL0     C34614   1.859   5.205   5.531  0.0398  1.1405 -0.1361
  257MOL0     C34615   2.238   5.122   5.720  1.4604 -0.5382 -0.1986
  257MOL0     C34616   2.373   5.171   5.690  1.4407 -0.4463  0.5298
  257MOL0     C34617   2.475   5.169   5.789  0.3989 -0.8601  0.7099
  257MOL0     C34618   2.451   5.127   5.917  0.5783  0.1471 -1.0354
  257MOL0     O34619   2.551   5.119   6.013 -0.3212 -0.4767  0.1770
  257MOL0     C34620   2.612   4.988   6.031  0.4568  0.1277  0.1361
  257MOL0     C34621   2.711   4.955   5.914  0.3509  0.3761  0.4537
  257MOL0     C34622   2.833   4.895   5.982  0.5551 -0.3141  0.5785
  257MOL0     C34623   2.936   4.850   5.872  0.0251 -0.3549  0.2204
  257MOL0     C34624   2.979   4.966   5.795  0.0616 -0.9407 -0.7352
  257MOL0     C34625   3.007   5.060   5.728 -0.2582 -0.2907 -0.4415
  257MOL0     C34626   2.319   5.090   5.951  0.1988 -0.1722 -0.2881
  257MOL0     C34627   2.215   5.095   5.858  0.5468  0.2973  0.2997
  257MOL0     H34628   1.804   4.914   5.691  2.5583  1.6732  0.7114
  257MOL0     H34629   1.594   4.932   5.598 -1.4022  0.7818  1.1266
  257MOL0     H34630   1.446   4.964   5.397 -3.1021 -0.9355 -2.3871
  257MOL0     H34631   1.349   5.042   5.526 -0.2300  0.9263 -0.3308
  257MOL0     H34632   1.382   5.099   5.225  0.0205 -1.3513 -0.5326
  257MOL0     H34633   1.239   5.013   5.285  0.0257  0.1452  1.1325
  257MOL0     H34634   1.270   5.288   5.368 -2.8867  0.8910  0.8715
  257MOL0     H34635   1.194   5.246   5.211 -3.3195  0.0501  1.2468
  257MOL0     H34636   1.043   5.099   5.320  0.7088 -1.2611  0.6586
  257MOL0     H34637   1.119   5.136   5.484  1.2260  0.7719  0.1166
  257MOL0     H34638   1.076   5.380   5.417 -0.1735 -0.6409 -0.0826
  257MOL0     H34639   0.946   5.335   5.311 -0.7196 -0.5165 -0.1063
  257MOL0     H34640   0.942   5.245   5.600 -3.7963  3.4043  2.8479
  257MOL0     H34641   0.854   5.369   5.515  0.9147  1.1027  0.6603
  257MOL0     H34642   0.735   5.191   5.368 -1.0670 -1.0476  0.8560
  257MOL0     H34643   0.846   5.079   5.424  4.2712  2.5928 -0.7748
  257MOL0     H34644   0.767   5.145   5.664  1.2645  2.6609 -0.5308
  257MOL0     H34645   0.670   5.042   5.563 -0.3239  0.5215  3.0074
  257MOL0     H34646   0.698   5.377   5.730  1.8212  0.4967 -2.2378
  257MOL0     H34647   0.498   5.554   5.810 -1.9851 -0.2859  0.0615
  257MOL0     H34648   0.541   5.636   5.653 -1.9327  1.9282 -0.2792
  257MOL0     H34649   0.290   5.609   5.602 -0.8121  0.5623 -0.0602
  257MOL0     H34650   0.315   5.723   5.730 -0.7655  0.5448 -0.2292
  257MOL0     H34651   0.255   5.563   5.898 -2.0342  0.4324  1.5484
  257MOL0     H34652   0.273   5.427   5.783 -0.2151  0.2630  1.0980
  257MOL0     H34653   0.081   5.542   5.650  2.3944  0.5999 -0.3600
  257MOL0     H34654   0.081   5.671   5.775  1.8984  0.7320 -0.6746
  257MOL0     H34655  -0.087   5.404   6.083  2.2266  1.4292  0.5191
  257MOL0     H34656  -0.268   5.363   6.220 -0.8132 -0.3673 -0.9365
  257MOL0     H34657  -0.358   5.509   6.261  3.7117 -0.6277  1.4770
  257MOL0     H34658  -0.436   5.388   6.170  0.3165 -2.1402  1.4532
  257MOL0     H34659  -0.596   5.951   5.954 -1.9416  0.1628 -4.0334
  257MOL0     H34660  -0.819   6.056   5.977 -1.0555 -0.0386  1.1161
  257MOL0     H34661  -1.047   6.125   6.058 -1.2389  0.6210 -0.1714
  257MOL0     H34662  -1.067   6.023   5.915 -0.1504  1.5332  0.2750
  257MOL0     H34663  -1.235   6.031   6.180  1.7101  3.4621  0.5009
  257MOL0     H34664  -1.278   6.129   6.038 -1.5850 -0.6672 -2.3122
  257MOL0     H34665  -1.255   5.833   6.011  1.9555  0.7978 -0.3073
  257MOL0     H34666  -1.330   5.950   5.896 -1.5307 -0.5173 -0.6626
  257MOL0     H34667  -1.431   5.868   6.168 -1.7122 -0.1157  0.0999
  257MOL0     H34668  -1.491   6.014   6.079  1.5006  0.5756  1.6937
  257MOL0     H34669  -1.501   5.739   5.956  1.2672  0.3638  0.1691
  257MOL0     H34670  -1.573   5.890   5.890 -3.3120  2.2449  1.7771
  257MOL0     H34671  -1.669   5.765   6.156  1.2260 -0.8852 -0.9721
  257MOL0     H34672  -1.738   5.901   6.068  0.4069  0.5038 -2.5179
  257MOL0     H34673  -1.716   5.610   5.961 -0.4940 -0.3343  1.6254
  257MOL0     H34674  -1.780   5.759   5.874  3.0375  1.0652 -1.5541
  257MOL0     H34675  -1.896   5.619   6.116  1.1183  1.6724  1.2704
  257MOL0     H34676  -1.962   5.611   5.944  0.4636 -0.3726 -0.0328
  257MOL0     H34677  -0.932   5.714   6.201 -0.0864 -1.5257 -1.5008
  257MOL0     H34678  -0.721   5.622   6.184  0.3808 -0.3293 -0.7545
  257MOL0     H34679  -0.357   5.688   5.779 -0.2489 -2.6708 -0.7932
  257MOL0     H34680  -0.138   5.642   5.715  0.8006  2.1703  0.3202
  257MOL0     H34681   1.715   5.286   5.391 -1.8963  1.0138  2.1731
  257MOL0     H34682   1.933   5.282   5.510  1.1486 -0.1547 -1.1851
  257MOL0     H34683   2.390   5.221   5.596 -1.8792  1.6742  0.8838
  257MOL0     H34684   2.578   5.198   5.771  0.3065 -0.7664  0.3109
  257MOL0     H34685   2.654   4.977   6.131 -1.6728 -2.5947  0.8516
  257MOL0     H34686   2.530   4.915   6.027 -0.7459  1.4209  0.4456
  257MOL0     H34687   2.725   5.043   5.852 -2.0187  1.0156  0.7333
  257MOL0     H34688   2.673   4.873   5.852  2.2915 -1.4839  1.5411
  257MOL0     H34689   2.806   4.805   6.039  1.0231  1.0027  2.9976
  257MOL0     H34690   2.875   4.966   6.054 -0.6560  0.6706  0.3585
  257MOL0     H34691   2.880   4.787   5.802 -1.8968  0.9118  0.5221
  257MOL0     H34692   3.026   4.808   5.915 -0.5025 -0.7548  0.9491
  257MOL0     H34693   3.044   5.146   5.676  0.8204  0.4668  1.4730
  257MOL0     H34694   2.290   5.080   6.056  0.6009  0.4483 -0.1165
  257MOL0     H34695   2.118   5.059   5.890  0.4111  1.2156  0.9704
  258MOL0     O34696  10.948   6.658   5.172  0.0377  0.3304  0.2001
  258MOL0     C34697  11.044   6.669   5.244 -1.1963 -0.0235 -0.2196
  258MOL0     O34698  11.046   6.653   5.379 -0.4104  0.0706 -0.0841
  258MOL0     C34699  10.946   6.570   5.429  0.5445 -0.2587 -0.9363
  258MOL0     C34700  10.935   6.439   5.388  0.8622  0.7770  0.8773
  258MOL0     C34701  10.825   6.362   5.424 -0.0928 -0.0953 -0.2351
  258MOL0     C34702  10.731   6.412   5.507  0.0123 -0.1877  0.0716
  258MOL0     O34703  10.619   6.347   5.555  0.1072  0.0541  0.3176
  258MOL0     C34704  10.582   6.216   5.508 -0.2154  0.5900  0.0880
  258MOL0     C34705  10.463   6.155   5.586  0.8370 -0.3113  0.2795
  258MOL0     C34706  10.327   6.209   5.547  0.6423 -0.0518  0.1121
  258MOL0     C34707  10.218   6.101   5.579  0.3076  0.5575  0.7162
  258MOL0     C34708  10.077   6.171   5.561  0.3800  0.1173  0.2838
  258MOL0     C34709   9.966   6.065   5.578  0.2126 -0.7978 -0.1554
  258MOL0     C34710   9.829   6.129   5.574  0.4699 -0.4477 -0.5292
  258MOL0     C34711   9.719   6.033   5.618 -0.3591  0.0842  0.1540
  258MOL0     N34712   9.583   6.088   5.613 -0.7895 -0.5313 -0.0241
  258MOL0     C34713   9.540   6.210   5.574  1.0399 -0.0991  0.0845
  258MOL0     C34714   9.426   6.233   5.636 -0.3049 -0.0645 -1.1781
  258MOL0     C34715   9.337   6.353   5.621  0.3191 -0.4870 -0.2232
  258MOL0     C34716   9.253   6.358   5.490 -0.7187  0.8163 -0.0392
  258MOL0     C34717   9.153   6.245   5.497 -0.6208  0.3686 -0.7775
  258MOL0     C34718   9.052   6.267   5.604 -0.1551 -0.3765 -0.0095
  258MOL0     O34719   8.994   6.393   5.591  0.1903  0.1033 -0.6799
  258MOL0     C34720   8.902   6.426   5.691 -1.0475 -1.0044  0.3315
  258MOL0     C34721   8.875   6.361   5.805 -0.5624 -0.3268 -0.6047
  258MOL0     C34722   8.784   6.407   5.903  0.1332 -0.0221 -0.1260
  258MOL0     C34723   8.798   6.332   6.034 -0.4667 -0.6474 -0.8856
  258MOL0     C34724   8.711   6.530   5.881 -1.5049  0.0896 -0.4629
  258MOL0     C34725   8.623   6.592   5.985  0.0593 -0.8472  0.0442
  258MOL0     O34726   8.596   6.523   6.103 -0.2301  0.6370 -0.2031
  258MOL0     C34727   8.496   6.566   6.188 -0.0974  0.3124  0.5408
  258MOL0     C34728   8.370   6.602   6.133 -0.8504  0.6902  0.0868
  258MOL0     C34729   8.264   6.638   6.215 -0.5287  0.2825 -0.0927
  258MOL0     C34730   8.274   6.625   6.356 -0.1725 -0.7454  1.0859
  258MOL0     O34731   8.164   6.655   6.424 -0.2744  0.4737 -0.2718
  258MOL0     C34732   8.167   6.647   6.568 -0.0796 -0.4700 -0.5629
  258MOL0     C34733   8.023   6.629   6.616  0.8906  0.1110 -0.5120
  258MOL0     C34734   7.992   6.633   6.776 -0.0109  0.3310 -0.2084
  258MOL0     C34735   8.077   6.537   6.865 -0.0031  0.2816 -0.3409
  258MOL0     C34736   8.041   6.389   6.841 -0.5008  0.6323  0.3683
  258MOL0     C34737   8.097   6.303   6.956 -0.5963  0.1486 -0.9208
  258MOL0     C34738   8.059   6.154   6.924  0.1230 -0.0044 -0.3722
  258MOL0     C34739   8.154   6.053   6.997  0.7025  0.2111  0.0451
  258MOL0    Cl34740   8.144   5.879   6.930  0.1148  0.2671 -0.3310
  258MOL0     C34741   8.402   6.592   6.410  0.9119 -0.3975 -0.1405
  258MOL0     C34742   8.507   6.557   6.330 -0.0989  0.5217  1.6050
  258MOL0     O34743   8.578   6.705   5.959  0.2613  0.4863  0.1473
  258MOL0     C34744   8.740   6.598   5.765 -0.0702 -0.1328  0.3762
  258MOL0     C34745   8.836   6.546   5.668  0.3008 -0.1843 -0.1451
  258MOL0     N34746   9.394   6.116   5.713  0.4591 -0.9308 -0.1018
  258MOL0     N34747   9.491   6.033   5.699  0.0037  0.0074 -0.2588
  258MOL0     C34748  10.747   6.535   5.564  1.6102 -0.0062  0.0319
  258MOL0     C34749  10.850   6.623   5.524 -0.6545  0.0563  0.6923
  258MOL0     C34750  11.166   6.728   5.184  1.2719  0.1690  0.6068
  258MOL0     C34751  11.289   6.734   5.252  0.5978  0.0348  0.3385
  258MOL0     C34752  11.399   6.776   5.182  0.5158 -0.5523 -0.8419
  258MOL0     C34753  11.410   6.807   5.048  0.4110  0.0222  0.3336
  258MOL0     O34754  11.518   6.848   4.978 -0.2178 -0.5822  0.2826
  258MOL0     C34755  11.646   6.816   5.019 -0.5242 -0.0421 -0.0128
  258MOL0     C34756  11.734   6.814   4.892  0.0693  1.2502  0.4056
  258MOL0     C34757  11.732   6.951   4.827  0.0358 -0.1562 -0.4332
  258MOL0     C34758  11.846   6.962   4.724  0.0992  0.3232  0.6727
  258MOL0     C34759  11.973   6.997   4.784 -0.3266 -0.0228 -0.6877
  258MOL0     C34760  12.073   7.048   4.831 -1.0450  0.9349  0.1880
  258MOL0     C34761  11.289   6.804   4.979 -0.4085 -0.2637  0.7216
  258MOL0     C34762  11.168   6.770   5.046 -0.8845 -0.1147 -1.0132
  258MOL0     H34763  11.016   6.392   5.333 -0.4459 -1.5238  0.7674
  258MOL0     H34764  10.824   6.257   5.397  1.7034 -0.8020  2.1306
  258MOL0     H34765  10.548   6.217   5.404 -0.6967 -4.1837 -0.0006
  258MOL0     H34766  10.662   6.142   5.498 -2.8355 -2.3589 -0.7011
  258MOL0     H34767  10.468   6.050   5.554 -1.3140 -0.7560  1.2263
  258MOL0     H34768  10.467   6.160   5.695 -2.1182  1.2492  0.4174
  258MOL0     H34769  10.307   6.306   5.592  2.6512  0.8103 -0.7732
  258MOL0     H34770  10.328   6.224   5.439  1.3980 -2.8199 -0.3547
  258MOL0     H34771  10.229   6.015   5.513  0.2067 -0.2871  1.7634
  258MOL0     H34772  10.229   6.051   5.676 -0.9398 -0.4844  0.3498
  258MOL0     H34773  10.058   6.238   5.645 -0.6905  0.6994 -0.3942
  258MOL0     H34774  10.069   6.232   5.470 -0.7137 -0.1710  0.1687
  258MOL0     H34775   9.953   5.981   5.510 -0.0717 -1.8300  1.1498
  258MOL0     H34776   9.980   6.024   5.678 -1.2214 -1.8988 -0.3720
  258MOL0     H34777   9.822   6.211   5.646 -2.3314 -1.2399  0.2214
  258MOL0     H34778   9.810   6.160   5.470 -3.0038  1.7839  0.5974
  258MOL0     H34779   9.739   6.004   5.721  1.4422 -1.6300 -0.6100
  258MOL0     H34780   9.704   5.940   5.562 -2.8337 -0.1316  1.0635
  258MOL0     H34781   9.587   6.278   5.504 -2.5817  0.6096 -1.9137
  258MOL0     H34782   9.280   6.359   5.714  0.8626 -3.1509  0.3576
  258MOL0     H34783   9.404   6.439   5.609  1.5474 -1.7279 -3.2845
  258MOL0     H34784   9.312   6.336   5.401 -1.6042 -0.8009 -0.2652
  258MOL0     H34785   9.213   6.455   5.458 -1.1018  0.5404 -0.3884
  258MOL0     H34786   9.193   6.144   5.511  0.8115  1.2390  2.1319
  258MOL0     H34787   9.101   6.246   5.400 -1.1468  3.4039 -0.5660
  258MOL0     H34788   9.108   6.259   5.698 -0.3774 -0.1730  0.1412
  258MOL0     H34789   8.971   6.193   5.608  2.5527 -3.5064  1.8169
  258MOL0     H34790   8.934   6.273   5.826  1.6339  1.2994  0.4827
  258MOL0     H34791   8.712   6.274   6.068  0.3393  0.3753  3.5219
  258MOL0     H34792   8.889   6.271   6.029 -0.1504 -0.0883 -2.7387
  258MOL0     H34793   8.803   6.408   6.113 -3.5195  1.3703 -2.4092
  258MOL0     H34794   8.356   6.603   6.025  0.8110 -2.2050 -0.2607
  258MOL0     H34795   8.171   6.658   6.162  0.0144 -2.0591 -2.0673
  258MOL0     H34796   8.229   6.564   6.604  0.5274 -0.3238 -1.2419
  258MOL0     H34797   8.195   6.740   6.619 -2.0413  0.1724 -0.5963
  258MOL0     H34798   7.955   6.701   6.569 -1.7814 -2.7838 -1.3449
  258MOL0     H34799   7.988   6.532   6.581 -0.8126  0.5653 -0.1621
  258MOL0     H34800   7.888   6.616   6.804 -0.6705  2.5243 -1.0902
  258MOL0     H34801   8.012   6.739   6.794  3.7977  0.0839 -1.8730
  258MOL0     H34802   8.182   6.558   6.841  1.0521 -3.1343  0.7173
  258MOL0     H34803   8.046   6.558   6.968 -1.7226  0.5565 -0.8860
  258MOL0     H34804   8.090   6.351   6.751 -0.3236  1.8165 -0.0486
  258MOL0     H34805   7.932   6.379   6.843 -0.5979  1.6282  0.9477
  258MOL0     H34806   8.204   6.327   6.958 -0.7954  1.0538  0.7409
  258MOL0     H34807   8.056   6.336   7.052 -0.0974  1.8839 -1.2579
  258MOL0     H34808   8.069   6.141   6.816 -1.5547  0.3367 -0.5913
  258MOL0     H34809   7.955   6.129   6.946  0.3234  0.8346  1.7733
  258MOL0     H34810   8.133   6.048   7.104  0.4398 -0.4875 -0.0397
  258MOL0     H34811   8.257   6.090   6.992 -0.1608  2.7242 -0.7747
  258MOL0     H34812   8.422   6.577   6.515  1.1890 -1.3505 -0.3157
  258MOL0     H34813   8.598   6.525   6.380  0.0242 -0.9241  0.5079
  258MOL0     H34814   8.707   6.701   5.759 -0.1292 -0.0050  2.4384
  258MOL0     H34815   8.862   6.601   5.578  0.6941  0.2042  0.2011
  258MOL0     H34816  10.669   6.562   5.635  2.9694 -2.8346  2.8416
  258MOL0     H34817  10.844   6.729   5.544 -2.9329  0.1857 -0.3012
  258MOL0     H34818  11.300   6.701   5.355 -0.4141 -3.8346 -0.6360
  258MOL0     H34819  11.495   6.774   5.233 -0.6473  2.5269  1.7655
  258MOL0     H34820  11.676   6.890   5.093 -2.5398 -0.4456  1.3009
  258MOL0     H34821  11.640   6.719   5.071  3.0571  1.0452  2.9031
  258MOL0     H34822  11.704   6.736   4.822 -0.0916  2.1174 -0.5249
  258MOL0     H34823  11.835   6.780   4.917 -0.4880 -0.1561  0.8599
  258MOL0     H34824  11.736   7.033   4.898  2.1172 -0.5983  0.0354
  258MOL0     H34825  11.639   6.965   4.772  1.2900 -0.2086 -2.6892
  258MOL0     H34826  11.824   7.031   4.642  0.1461  1.3324  1.4963
  258MOL0     H34827  11.869   6.865   4.678  2.0198  1.7942 -1.7648
  258MOL0     H34828  12.163   7.090   4.873 -0.7483  0.4417  0.0584
  258MOL0     H34829  11.293   6.836   4.875  0.4990  3.1855  1.6892
  258MOL0     H34830  11.080   6.764   4.983 -0.9378 -0.3005 -0.9223
  259MOL0     O34831   3.861   5.043   3.031  0.0721 -0.2395  0.0307
  259MOL0     C34832   3.885   4.992   2.918  1.3314 -0.2732  0.2445
  259MOL0     O34833   3.796   4.942   2.827 -0.0097 -0.8009  0.1447
  259MOL0     C34834   3.678   4.905   2.879 -0.3311  0.8498  0.3548
  259MOL0     C34835   3.581   5.003   2.891  0.0542  0.1434  0.7406
  259MOL0     C34836   3.455   4.971   2.933  0.2037  0.4162  0.0601
  259MOL0     C34837   3.418   4.839   2.975 -0.1797  0.0185  0.0755
  259MOL0     O34838   3.293   4.790   3.007 -0.1837 -0.1300  0.2718
  259MOL0     C34839   3.229   4.860   3.116  0.7306 -0.3092  0.0053
  259MOL0     C34840   3.103   4.927   3.056 -0.2832  0.0686 -0.3752
  259MOL0     C34841   2.999   4.831   2.987  0.2324 -0.5784 -0.0721
  259MOL0     C34842   2.961   4.717   3.077 -0.4314 -0.0567 -0.1987
  259MOL0     C34843   2.841   4.639   3.031 -0.4266  0.1337  0.3599
  259MOL0     C34844   2.700   4.702   3.076 -0.5511  0.3574 -0.4614
  259MOL0     C34845   2.590   4.635   2.996 -1.0099 -0.1234 -0.3918
  259MOL0     C34846   2.452   4.708   3.005  0.5989  0.8769  0.4699
  259MOL0     N34847   2.358   4.670   2.896 -0.0530  0.2903 -0.1417
  259MOL0     C34848   2.229   4.695   2.900  0.2499 -0.4543  0.2244
  259MOL0     C34849   2.171   4.644   2.786  0.1722 -0.5327  0.5049
  259MOL0     C34850   2.025   4.651   2.751 -0.2487 -0.0150  0.1131
  259MOL0     C34851   1.934   4.550   2.807 -1.3284 -0.3770  0.0424
  259MOL0     C34852   1.911   4.591   2.954 -0.3512 -0.1217  0.3160
  259MOL0     C34853   1.784   4.528   3.014  0.0204  0.3155  0.0233
  259MOL0     O34854   1.655   4.559   2.955 -0.0310  0.2610  0.4088
  259MOL0     C34855   1.556   4.468   2.984  0.3437 -0.4903  0.5207
  259MOL0     C34856   1.537   4.424   3.115  0.1943  0.2243 -0.4828
  259MOL0     C34857   1.455   4.321   3.150 -0.8398  0.0329 -0.3228
  259MOL0     C34858   1.464   4.268   3.289 -0.0391  0.3757 -0.1327
  259MOL0     C34859   1.374   4.265   3.042 -0.8839 -0.1890 -0.7809
  259MOL0     C34860   1.275   4.145   3.059 -0.2870 -0.6004  0.2119
  259MOL0     O34861   1.235   4.076   2.947 -0.1987  0.5132  0.1190
  259MOL0     C34862   1.147   3.970   2.966  0.1072 -0.2509  1.0332
  259MOL0     C34863   1.017   3.994   3.012 -0.8510  0.2684 -0.6816
  259MOL0     C34864   0.927   3.892   3.039  0.4726 -0.2565  0.0298
  259MOL0     C34865   0.967   3.758   3.014 -0.5999 -0.3958 -0.2599
  259MOL0     O34866   0.885   3.642   3.028  0.5176 -0.2567 -0.8086
  259MOL0     C34867   0.751   3.642   3.083 -0.3127  0.2650  0.4471
  259MOL0     C34868   0.746   3.692   3.230 -1.1508  0.2035  0.7766
  259MOL0     C34869   0.849   3.608   3.307 -0.5148 -0.0089  0.0830
  259MOL0     C34870   0.871   3.657   3.452  0.6417  0.5461  0.8603
  259MOL0     C34871   0.796   3.583   3.564  0.0489  0.6140 -1.3351
  259MOL0     C34872   0.829   3.432   3.570  1.1284 -0.5433 -0.5622
  259MOL0     C34873   0.822   3.368   3.711 -0.3472  0.1154  0.7629
  259MOL0     C34874   0.686   3.389   3.768 -0.2217  0.1630  0.5229
  259MOL0    Cl34875   0.652   3.261   3.883 -0.0714 -0.1432 -0.0060
  259MOL0     C34876   1.097   3.730   2.964  0.2353  0.8510  0.2863
  259MOL0     C34877   1.181   3.837   2.942  0.0713 -0.0441  0.3347
  259MOL0     O34878   1.238   4.129   3.177 -0.8357 -0.3735  0.5480
  259MOL0     C34879   1.384   4.317   2.912 -0.2640 -0.7514 -0.3099
  259MOL0     C34880   1.474   4.420   2.882  0.6225  1.0505 -0.0813
  259MOL0     N34881   2.275   4.583   2.714  0.4067 -1.0816 -0.4627
  259MOL0     N34882   2.387   4.606   2.781 -0.3565 -0.5670 -0.3665
  259MOL0     C34883   3.516   4.740   2.964 -0.1346 -0.1870  0.5705
  259MOL0     C34884   3.647   4.776   2.918  0.5156  0.6294  0.1265
  259MOL0     C34885   4.030   5.005   2.878  0.6962 -0.5666  0.3199
  259MOL0     C34886   4.133   5.004   2.967  0.5892 -0.9101 -0.5965
  259MOL0     C34887   4.263   5.034   2.919 -0.5635  0.9998  0.4478
  259MOL0     C34888   4.294   5.051   2.781  0.2143  1.2140 -0.4343
  259MOL0     O34889   4.421   5.074   2.722 -0.1483  0.2091 -0.4704
  259MOL0     C34890   4.537   5.050   2.802 -0.1141  0.4328  0.6964
  259MOL0     C34891   4.666   5.055   2.720 -0.0687 -0.0081 -0.5721
  259MOL0     C34892   4.778   5.039   2.822 -0.2281 -0.2789 -0.2870
  259MOL0     C34893   4.912   5.081   2.766 -0.8989  0.1035 -0.1762
  259MOL0     C34894   4.964   4.966   2.689  0.5691 -1.2949  0.4821
  259MOL0     C34895   5.013   4.881   2.619  0.4478 -0.4455 -0.1782
  259MOL0     C34896   4.187   5.040   2.695  0.2910 -0.2719  0.5003
  259MOL0     C34897   4.054   5.037   2.743 -0.3515  0.0075  0.0004
  259MOL0     H34898   3.602   5.099   2.845  2.7117 -0.0373  1.4465
  259MOL0     H34899   3.378   5.047   2.941  1.8196  1.9704  1.6323
  259MOL0     H34900   3.200   4.796   3.199 -0.0838 -0.7150 -0.5795
  259MOL0     H34901   3.298   4.936   3.153 -0.7345  0.1362  1.9240
  259MOL0     H34902   3.061   4.998   3.128 -1.1430  0.6247 -1.3883
  259MOL0     H34903   3.134   4.999   2.979 -0.2214 -0.3903 -0.7801
  259MOL0     H34904   2.910   4.891   2.965  1.4890  0.6091 -2.2413
  259MOL0     H34905   3.049   4.794   2.898  2.8389 -0.9665  1.4286
  259MOL0     H34906   3.040   4.642   3.076  0.6468  0.9645  1.7025
  259MOL0     H34907   2.946   4.749   3.181 -2.1160  0.0762 -0.4639
  259MOL0     H34908   2.855   4.623   2.924  2.9226  1.9654  0.3778
  259MOL0     H34909   2.848   4.540   3.078  2.5640  0.3376  0.5748
  259MOL0     H34910   2.678   4.693   3.183 -0.9553  3.5493 -0.1739
  259MOL0     H34911   2.699   4.811   3.064  0.8535  0.6033  1.3014
  259MOL0     H34912   2.620   4.640   2.891  0.3250 -1.7797 -0.1426
  259MOL0     H34913   2.575   4.530   3.023  3.1478 -0.3108  2.1699
  259MOL0     H34914   2.460   4.817   3.001  1.0636  1.0573  3.6779
  259MOL0     H34915   2.402   4.664   3.092  0.3812  1.2946  0.5551
  259MOL0     H34916   2.174   4.742   2.980 -0.3201 -1.3805  0.3835
  259MOL0     H34917   1.989   4.754   2.753 -2.8129 -0.8156 -1.1912
  259MOL0     H34918   2.028   4.631   2.644 -0.6046  1.7211 -0.2462
  259MOL0     H34919   1.977   4.450   2.807 -2.3807 -0.8406 -0.0121
  259MOL0     H34920   1.836   4.553   2.760 -1.9626  0.5977  1.3515
  259MOL0     H34921   1.908   4.700   2.959 -0.6353 -0.1620  1.1305
  259MOL0     H34922   2.001   4.570   3.014  0.1903  2.5172  0.5360
  259MOL0     H34923   1.780   4.563   3.118 -1.5868 -2.2727  0.9288
  259MOL0     H34924   1.805   4.421   3.015  1.9809  0.6552  0.6658
  259MOL0     H34925   1.590   4.473   3.196  0.3030  2.4064 -1.7868
  259MOL0     H34926   1.556   4.305   3.337 -0.0296 -1.6150  1.5280
  259MOL0     H34927   1.385   4.311   3.352 -0.1782  0.6816 -0.5125
  259MOL0     H34928   1.460   4.159   3.299 -0.6550  0.5685  2.8129
  259MOL0     H34929   0.997   4.097   3.038  1.1812  0.1800  1.6394
  259MOL0     H34930   0.826   3.924   3.060  0.2511 -0.9297  0.0190
  259MOL0     H34931   0.678   3.692   3.019  0.4199 -1.2327 -1.6878
  259MOL0     H34932   0.716   3.538   3.093 -0.8349  0.5662  2.0091
  259MOL0     H34933   0.760   3.801   3.235 -0.9192  0.1179  3.6163
  259MOL0     H34934   0.643   3.677   3.262 -0.5054 -0.3089  2.7520
  259MOL0     H34935   0.947   3.613   3.257 -1.2966  0.5878 -1.4530
  259MOL0     H34936   0.813   3.505   3.306 -1.4202  0.3067 -1.0243
  259MOL0     H34937   0.978   3.651   3.477  0.7866  2.3462  0.7965
  259MOL0     H34938   0.852   3.765   3.449 -1.5945  0.2062  0.9930
  259MOL0     H34939   0.688   3.596   3.552 -0.6342 -2.6888  0.1150
  259MOL0     H34940   0.827   3.632   3.656  1.2871 -0.6067 -1.0728
  259MOL0     H34941   0.765   3.373   3.504  0.9213 -3.2185  1.8469
  259MOL0     H34942   0.927   3.415   3.523  2.1475 -0.7633  1.5164
  259MOL0     H34943   0.893   3.408   3.783 -1.2463  0.8502  1.2541
  259MOL0     H34944   0.837   3.260   3.703  0.9021  0.3414 -0.1920
  259MOL0     H34945   0.610   3.394   3.690  0.0736 -0.2815  0.2008
  259MOL0     H34946   0.684   3.484   3.823 -1.5272  0.1345  0.5442
  259MOL0     H34947   1.125   3.626   2.951  1.0470  0.4840  3.8696
  259MOL0     H34948   1.280   3.832   2.899 -0.1787  0.4519 -0.3214
  259MOL0     H34949   1.331   4.269   2.830 -0.4477 -0.8375 -0.1409
  259MOL0     H34950   1.500   4.453   2.782  2.1440  2.9059  0.8708
  259MOL0     H34951   3.506   4.634   2.983  1.4147 -0.1176  2.0084
  259MOL0     H34952   3.718   4.695   2.919  0.0504  0.2189  0.2023
  259MOL0     H34953   4.114   4.979   3.071 -2.7935 -0.0287 -0.8823
  259MOL0     H34954   4.336   5.056   2.995 -0.9834  2.0063  0.5728
  259MOL0     H34955   4.537   5.122   2.885 -1.3041 -0.4436  1.4830
  259MOL0     H34956   4.536   4.954   2.853  1.5494  1.5805  3.0902
  259MOL0     H34957   4.677   5.147   2.661 -2.4270 -0.2061 -1.4064
  259MOL0     H34958   4.656   4.968   2.654  1.5611  0.4651 -1.5224
  259MOL0     H34959   4.781   4.936   2.858 -3.4276 -0.1773  0.5496
  259MOL0     H34960   4.758   5.107   2.905  2.2437 -0.4447  0.5349
  259MOL0     H34961   4.979   5.108   2.848 -0.4806  0.5830 -0.6686
  259MOL0     H34962   4.893   5.167   2.701 -2.3006  0.2333  0.3698
  259MOL0     H34963   5.051   4.804   2.555 -1.5259 -1.6191 -0.0164
  259MOL0     H34964   4.212   5.058   2.591  2.1298 -1.3273  0.7267
  259MOL0     H34965   3.967   5.056   2.682 -2.7065  0.4679  3.2268
  260MOL0     O34966   4.195   8.242   4.785  0.1857  0.5780 -0.2947
  260MOL0     C34967   4.285   8.280   4.712 -1.1443  0.2287  0.4572
  260MOL0     O34968   4.278   8.372   4.611  0.1230  0.4000 -0.0019
  260MOL0     C34969   4.183   8.467   4.600  0.1751  0.4544 -0.4797
  260MOL0     C34970   4.167   8.526   4.466  0.3150 -0.4690 -0.6513
  260MOL0     C34971   4.072   8.626   4.442  0.3720  0.3512  0.3455
  260MOL0     C34972   3.980   8.660   4.540 -0.4573  0.5188 -0.0140
  260MOL0     O34973   3.872   8.749   4.519  0.8701  0.1732  0.9437
  260MOL0     C34974   3.869   8.810   4.396  0.3478  0.2348 -0.1642
  260MOL0     C34975   3.738   8.877   4.365 -0.1316  0.3638  0.2080
  260MOL0     C34976   3.618   8.784   4.353  0.1334 -0.9206 -0.1810
  260MOL0     C34977   3.491   8.848   4.296  0.6068  0.6306  0.4438
  260MOL0     C34978   3.383   8.743   4.258  0.3239  0.7259  0.1695
  260MOL0     C34979   3.263   8.820   4.209  0.4130 -0.1957  0.5021
  260MOL0     C34980   3.143   8.732   4.164 -0.2758  0.0217 -0.4574
  260MOL0     C34981   3.022   8.798   4.090 -0.2020  0.8897 -0.1337
  260MOL0     N34982   2.917   8.701   4.084  0.4961 -0.1906  0.1888
  260MOL0     C34983   2.916   8.588   3.998 -0.7433 -1.2218  0.1915
  260MOL0     C34984   2.786   8.551   3.989  0.7509  0.2731 -0.3627
  260MOL0     C34985   2.730   8.436   3.913  0.6261  0.0529 -0.5581
  260MOL0     C34986   2.676   8.474   3.773 -0.4053 -0.6890 -0.1129
  260MOL0     C34987   2.628   8.365   3.685 -0.5407 -0.4391  0.1342
  260MOL0     C34988   2.492   8.310   3.725 -0.4604 -0.0358  0.0108
  260MOL0     O34989   2.491   8.173   3.678 -0.1593 -0.2386  0.7952
  260MOL0     C34990   2.375   8.101   3.688  0.2841  0.1610 -0.3772
  260MOL0     C34991   2.360   7.989   3.603 -0.8410  0.6673 -1.5535
  260MOL0     C34992   2.244   7.910   3.605 -0.1019 -0.5410  0.7407
  260MOL0     C34993   2.248   7.804   3.503  1.0245 -0.5563 -0.2033
  260MOL0     C34994   2.140   7.941   3.698  0.4573  0.8143  0.3556
  260MOL0     C34995   2.016   7.857   3.728 -0.1012 -0.1523 -0.8508
  260MOL0     O34996   1.937   7.915   3.826 -0.0537 -0.5090  0.3518
  260MOL0     C34997   1.825   7.854   3.869 -0.5082  0.3797 -1.2004
  260MOL0     C34998   1.690   7.901   3.856 -0.4436 -0.2667 -0.3791
  260MOL0     C34999   1.585   7.824   3.905  0.5730 -0.2072 -0.4345
  260MOL0     C35000   1.609   7.700   3.968  0.7484  0.1145 -0.1745
  260MOL0     O35001   1.496   7.621   4.000 -0.1716 -0.4887  0.0872
  260MOL0     C35002   1.520   7.476   4.024  0.3287 -0.4213 -0.0810
  260MOL0     C35003   1.385   7.399   4.033 -1.0722  0.6854  0.7500
  260MOL0     C35004   1.285   7.451   4.133  0.2498 -0.3458 -0.0306
  260MOL0     C35005   1.187   7.348   4.158  0.8467  0.0503  0.8733
  260MOL0     C35006   1.063   7.408   4.214  0.0851 -0.9132  0.8051
  260MOL0     C35007   0.990   7.497   4.118  0.7930  0.0977 -0.1733
  260MOL0     C35008   0.850   7.539   4.172 -0.0965  0.1262 -0.7723
  260MOL0     C35009   0.751   7.429   4.199  0.6084  0.5086 -0.1715
  260MOL0    Cl35010   0.593   7.504   4.227  0.1293 -0.1986 -0.1166
  260MOL0     C35011   1.738   7.650   3.986 -0.4977 -0.7893  0.2435
  260MOL0     C35012   1.842   7.736   3.941 -0.2207 -0.3028 -0.2880
  260MOL0     O35013   1.987   7.762   3.653 -0.1141  0.6324  0.3864
  260MOL0     C35014   2.160   8.051   3.783  0.3889  0.2282  0.2744
  260MOL0     C35015   2.271   8.129   3.776  0.5776 -1.3020  0.6122
  260MOL0     N35016   2.709   8.638   4.073  0.4670  0.1425 -0.1527
  260MOL0     N35017   2.790   8.736   4.115 -0.1374  0.5295  0.3917
  260MOL0     C35018   3.984   8.591   4.662  1.0041  0.4371 -0.8444
  260MOL0     C35019   4.082   8.498   4.692  0.6702  0.4788 -0.3987
  260MOL0     C35020   4.416   8.216   4.714  0.5715  0.0853 -0.4371
  260MOL0     C35021   4.514   8.234   4.615  0.0910 -0.4935  0.8842
  260MOL0     C35022   4.639   8.173   4.619 -0.1865  0.7667 -0.5022
  260MOL0     C35023   4.661   8.078   4.723 -0.0546 -0.0074 -0.6922
  260MOL0     O35024   4.771   7.999   4.747  0.4787 -0.2775 -0.4274
  260MOL0     C35025   4.891   8.025   4.676  0.4354 -0.1336 -0.0828
  260MOL0     C35026   4.894   7.944   4.547 -0.4240  0.0258  0.4229
  260MOL0     C35027   4.971   7.816   4.554 -0.1307  0.9141  0.3009
  260MOL0     C35028   5.123   7.829   4.558  0.0403  0.2307  0.1088
  260MOL0     C35029   5.171   7.872   4.691  0.5381  0.8236  0.6473
  260MOL0     C35030   5.202   7.921   4.798  0.0505 -0.0573  0.1099
  260MOL0     C35031   4.562   8.058   4.824  0.0263 -0.0480 -0.5200
  260MOL0     C35032   4.442   8.133   4.821 -0.4305  0.5752 -0.1357
  260MOL0     H35033   4.233   8.499   4.384  0.2313 -1.2299 -0.4767
  260MOL0     H35034   4.055   8.672   4.345  0.0259  3.6460  1.8042
  260MOL0     H35035   3.951   8.881   4.384 -0.0921  0.4170 -2.7181
  260MOL0     H35036   3.871   8.737   4.315  0.9348  0.1660 -0.0882
  260MOL0     H35037   3.716   8.942   4.450  0.1475 -0.7985  1.1932
  260MOL0     H35038   3.757   8.926   4.269  1.5638 -1.9498 -0.7391
  260MOL0     H35039   3.645   8.697   4.292  2.1480 -0.2446 -0.3247
  260MOL0     H35040   3.599   8.761   4.458 -1.5105  3.4351  0.6953
  260MOL0     H35041   3.460   8.917   4.375 -0.6626  1.1671 -0.4853
  260MOL0     H35042   3.513   8.912   4.210  2.5689 -2.2420 -1.3807
  260MOL0     H35043   3.423   8.675   4.182 -1.6576  0.9044 -1.0999
  260MOL0     H35044   3.346   8.688   4.345 -0.7346  2.5126  0.8855
  260MOL0     H35045   3.216   8.882   4.287 -2.7564 -3.0799  1.1229
  260MOL0     H35046   3.293   8.879   4.122 -0.5960 -1.9074 -1.0531
  260MOL0     H35047   3.179   8.651   4.101  0.3867 -0.0445 -0.0052
  260MOL0     H35048   3.106   8.684   4.255 -1.9852 -0.6660 -1.4861
  260MOL0     H35049   3.056   8.831   3.992 -0.0827 -0.3651 -0.5334
  260MOL0     H35050   2.977   8.878   4.151 -0.5365 -0.2559  1.1888
  260MOL0     H35051   2.996   8.551   3.935  0.0795  1.9010 -0.7884
  260MOL0     H35052   2.801   8.358   3.886  2.5389  1.6999 -0.5040
  260MOL0     H35053   2.650   8.399   3.978  0.1905  0.5372 -0.8126
  260MOL0     H35054   2.749   8.530   3.713 -1.7864 -1.4762 -2.7163
  260MOL0     H35055   2.594   8.544   3.793  0.8692 -0.4205  5.9110
  260MOL0     H35056   2.702   8.286   3.672  0.4202  0.7377 -2.2144
  260MOL0     H35057   2.605   8.404   3.585 -4.1268 -1.0160  0.5963
  260MOL0     H35058   2.407   8.361   3.678 -1.6472 -0.2678  1.7978
  260MOL0     H35059   2.478   8.320   3.833  1.7553  0.5628  0.2824
  260MOL0     H35060   2.435   7.974   3.526  2.3643  0.8042  1.2998
  260MOL0     H35061   2.327   7.804   3.428 -1.7629 -0.3618 -3.3334
  260MOL0     H35062   2.245   7.705   3.551  0.4927 -0.1572  0.6161
  260MOL0     H35063   2.156   7.808   3.445  0.8990  0.3775  0.0499
  260MOL0     H35064   1.672   8.002   3.823 -0.9222  1.3250  4.0931
  260MOL0     H35065   1.490   7.873   3.926  1.0688  0.0197  1.4370
  260MOL0     H35066   1.591   7.436   3.950  1.0860  0.5772  0.0792
  260MOL0     H35067   1.567   7.475   4.123  0.8213  1.3718 -0.2442
  260MOL0     H35068   1.343   7.403   3.932 -1.2562  0.0085  0.7906
  260MOL0     H35069   1.410   7.295   4.058 -1.3472  0.6157  0.7438
  260MOL0     H35070   1.244   7.548   4.102 -0.9339  0.6045  3.8842
  260MOL0     H35071   1.338   7.483   4.224  1.0489 -0.0247 -0.5969
  260MOL0     H35072   1.151   7.305   4.065  0.3357  1.1116  0.5671
  260MOL0     H35073   1.231   7.273   4.224  0.4905 -0.4378  0.5624
  260MOL0     H35074   1.099   7.465   4.300  0.1711  0.5626 -0.1648
  260MOL0     H35075   0.991   7.329   4.235 -0.3678 -1.2136 -1.5774
  260MOL0     H35076   1.039   7.595   4.120 -2.5799  1.9448  0.8651
  260MOL0     H35077   0.991   7.451   4.019  0.9047  0.2073 -0.2238
  260MOL0     H35078   0.811   7.600   4.091 -0.8175  0.9351  0.1671
  260MOL0     H35079   0.875   7.594   4.263  1.8757  0.9787 -1.7669
  260MOL0     H35080   0.774   7.371   4.289 -1.0378  1.5365  0.9723
  260MOL0     H35081   0.742   7.366   4.110  2.2257  0.3940 -0.2832
  260MOL0     H35082   1.760   7.554   4.032 -0.1688 -0.8210  0.0291
  260MOL0     H35083   1.942   7.700   3.960 -0.0074 -1.2319 -2.8218
  260MOL0     H35084   2.078   8.085   3.846 -0.2966  0.7021 -0.8480
  260MOL0     H35085   2.277   8.216   3.841 -0.2878  0.4766 -1.5475
  260MOL0     H35086   3.900   8.610   4.727 -0.0757 -1.2717 -1.6578
  260MOL0     H35087   4.072   8.465   4.795 -0.6940  1.3190 -0.2325
  260MOL0     H35088   4.478   8.296   4.533  2.3917  1.1318  0.9757
  260MOL0     H35089   4.711   8.205   4.545 -0.3968 -2.2137 -2.1559
  260MOL0     H35090   4.882   8.126   4.635 -0.6358 -0.9673 -2.0440
  260MOL0     H35091   4.981   8.032   4.739 -0.8924 -0.2671  1.9365
  260MOL0     H35092   4.927   8.009   4.466  1.2431 -0.3756  0.7559
  260MOL0     H35093   4.794   7.908   4.518 -1.2199 -0.2030  3.1889
  260MOL0     H35094   4.939   7.752   4.472 -0.6069  3.1340 -1.3477
  260MOL0     H35095   4.948   7.762   4.646 -1.3893  0.1243 -0.4516
  260MOL0     H35096   5.148   7.912   4.492 -1.3333  0.0081 -0.7364
  260MOL0     H35097   5.177   7.736   4.542  0.8474  1.0072 -1.9016
  260MOL0     H35098   5.247   7.968   4.883 -1.0887  2.5563 -0.6415
  260MOL0     H35099   4.583   7.989   4.904  0.7480 -0.6257 -1.1848
  260MOL0     H35100   4.372   8.122   4.904  1.8525  0.7241  1.9253
  261MOL0     O35101   1.326   2.007   4.416  0.5095 -0.2712 -0.5103
  261MOL0     C35102   1.296   1.987   4.535 -0.8559 -0.1415 -0.5395
  261MOL0     O35103   1.175   1.961   4.587  0.2724 -0.1924 -0.3845
  261MOL0     C35104   1.073   1.980   4.503  0.1559 -0.2708  0.6784
  261MOL0     C35105   1.057   1.897   4.390  1.1903  0.2790 -0.4998
  261MOL0     C35106   0.955   1.934   4.306 -0.0203 -0.0565  0.5479
  261MOL0     C35107   0.869   2.039   4.329 -0.0115  0.0092  0.4576
  261MOL0     O35108   0.776   2.055   4.225 -0.7783  0.1632  0.0740
  261MOL0     C35109   0.667   2.147   4.254 -0.0053  0.0184 -0.4797
  261MOL0     C35110   0.574   2.143   4.130 -0.2437 -0.5400  0.2628
  261MOL0     C35111   0.511   2.003   4.118 -1.0432 -1.1061 -0.4323
  261MOL0     C35112   0.414   2.012   3.996 -0.2507  0.2500  0.6707
  261MOL0     C35113   0.269   2.053   4.017 -0.1092 -0.0493  0.7250
  261MOL0     C35114   0.198   2.056   3.883  0.0295 -0.6073 -0.6837
  261MOL0     C35115   0.042   2.065   3.909 -0.3599  0.3593 -0.0705
  261MOL0     C35116  -0.013   2.072   3.763  0.2588  0.5574 -0.6565
  261MOL0     N35117  -0.159   2.049   3.764 -0.0772 -0.7248 -0.3960
  261MOL0     C35118  -0.227   1.927   3.769 -0.1587 -0.4530 -0.2019
  261MOL0     C35119  -0.347   1.950   3.732  0.3240 -0.7104  0.3211
  261MOL0     C35120  -0.449   1.840   3.694 -0.1373 -0.3373 -1.0403
  261MOL0     C35121  -0.494   1.841   3.548 -0.1586 -0.6614  0.0754
  261MOL0     C35122  -0.609   1.948   3.527  0.0770 -0.1058 -0.6586
  261MOL0     C35123  -0.642   1.948   3.374 -0.2124 -0.0712 -0.2122
  261MOL0     O35124  -0.768   2.006   3.349  0.3625  0.1093  0.7324
  261MOL0     C35125  -0.884   1.936   3.357  0.0733  0.9037  0.0675
  261MOL0     C35126  -0.904   1.793   3.373 -0.5014  0.2621  0.5830
  261MOL0     C35127  -1.028   1.731   3.369  0.1590  0.5296  0.4013
  261MOL0     C35128  -1.038   1.578   3.395 -0.1843  1.2034  0.1476
  261MOL0     C35129  -1.141   1.811   3.353 -0.2439 -0.3998  0.0910
  261MOL0     C35130  -1.272   1.750   3.342  0.4201  0.3385  0.7894
  261MOL0     O35131  -1.368   1.816   3.413 -0.4455  0.7921 -0.3937
  261MOL0     C35132  -1.503   1.799   3.392 -0.0798  0.3330 -0.8908
  261MOL0     C35133  -1.564   1.746   3.266 -0.2012 -0.7629 -0.5967
  261MOL0     C35134  -1.705   1.734   3.258 -0.4898 -0.4303  0.3270
  261MOL0     C35135  -1.789   1.768   3.367  0.5013 -0.6629  0.1882
  261MOL0     O35136  -1.918   1.737   3.346 -0.1746 -0.5955  0.5078
  261MOL0     C35137  -2.002   1.740   3.454  1.0526 -0.1521  0.5079
  261MOL0     C35138  -2.120   1.651   3.412  0.9324  0.4185  0.4084
  261MOL0     C35139  -2.182   1.658   3.269  0.3608  0.2711  0.0572
  261MOL0     C35140  -2.330   1.598   3.269  0.2826  0.1588  0.4099
  261MOL0     C35141  -2.356   1.448   3.294  0.0783  0.5829  0.9802
  261MOL0     C35142  -2.496   1.404   3.238 -0.1659 -0.5288 -1.6761
  261MOL0     C35143  -2.532   1.257   3.261 -0.5362 -0.3547  0.0704
  261MOL0     C35144  -2.671   1.225   3.255  0.0915 -0.9240 -0.8641
  261MOL0    Cl35145  -2.785   1.317   3.361  0.3630  0.3797  1.0384
  261MOL0     C35146  -1.731   1.829   3.481  0.1768  0.1168  1.1853
  261MOL0     C35147  -1.593   1.838   3.499  0.5527 -0.4215  0.5280
  261MOL0     O35148  -1.289   1.641   3.283  0.4875 -0.4762 -0.4333
  261MOL0     C35149  -1.129   1.953   3.340  0.9488 -0.2750  0.4451
  261MOL0     C35150  -1.001   2.016   3.339 -0.4776  0.4052 -0.3349
  261MOL0     N35151  -0.358   2.085   3.727  0.1134 -0.5659 -0.2283
  261MOL0     N35152  -0.249   2.146   3.728  0.1831  0.9339  0.1778
  261MOL0     C35153   0.875   2.111   4.447 -0.0902  0.2528 -0.5633
  261MOL0     C35154   0.978   2.076   4.537  0.2789  0.4093 -0.1887
  261MOL0     C35155   1.409   1.973   4.624  0.2981  0.2326  0.0904
  261MOL0     C35156   1.404   1.906   4.752  0.1580  0.0091 -0.0753
  261MOL0     C35157   1.516   1.879   4.839  0.0472 -0.7322 -0.2382
  261MOL0     C35158   1.640   1.911   4.805 -0.1638  0.3495 -0.2943
  261MOL0     O35159   1.753   1.875   4.875  1.1123  0.0702  0.8136
  261MOL0     C35160   1.742   1.865   5.018 -0.5587  0.8598 -0.2399
  261MOL0     C35161   1.877   1.913   5.065 -0.1043  0.4611 -0.7661
  261MOL0     C35162   1.887   2.067   5.051  0.7744  0.5260  0.3405
  261MOL0     C35163   2.015   2.100   5.116 -0.2294 -0.6625  0.0727
  261MOL0     C35164   2.054   2.240   5.097  0.1906  0.9365  0.5016
  261MOL0     C35165   2.087   2.348   5.059 -0.1119 -0.0735 -0.1408
  261MOL0     C35166   1.653   1.976   4.679 -0.1031 -0.7322 -0.2529
  261MOL0     C35167   1.544   2.011   4.597 -0.1844  0.0877 -0.3595
  261MOL0     H35168   1.120   1.811   4.367  0.0337 -1.5381  2.5973
  261MOL0     H35169   0.944   1.883   4.211  0.2935 -0.0444  0.5058
  261MOL0     H35170   0.604   2.109   4.336 -2.7384 -0.5203 -2.6698
  261MOL0     H35171   0.705   2.247   4.276  2.2762 -0.5601 -1.4418
  261MOL0     H35172   0.490   2.211   4.151  1.1035  0.9384  1.0487
  261MOL0     H35173   0.626   2.172   4.038 -0.4059 -2.7905 -0.6173
  261MOL0     H35174   0.587   1.927   4.095  0.3670 -0.1103  0.8109
  261MOL0     H35175   0.461   1.980   4.212 -0.3121  1.6147  0.6896
  261MOL0     H35176   0.453   2.100   3.943 -0.7072 -1.0112 -1.9386
  261MOL0     H35177   0.428   1.924   3.932  1.0435  0.8328  0.1230
  261MOL0     H35178   0.226   1.969   4.073 -1.2778  0.0219 -0.0132
  261MOL0     H35179   0.256   2.149   4.066 -0.2155  0.3428 -0.0558
  261MOL0     H35180   0.238   2.136   3.819  0.8991  0.2502  0.8632
  261MOL0     H35181   0.212   1.959   3.834  0.9288 -0.0145 -1.6540
  261MOL0     H35182   0.006   1.976   3.962 -1.1321  1.8885  2.1227
  261MOL0     H35183   0.008   2.152   3.966  0.7855  1.0954 -0.4727
  261MOL0     H35184   0.034   1.996   3.701  1.1192  0.7561 -0.2543
  261MOL0     H35185   0.016   2.172   3.729 -1.6756  1.1562 -0.7105
  261MOL0     H35186  -0.168   1.839   3.793  0.7374 -0.1009 -1.0260
  261MOL0     H35187  -0.393   1.749   3.720  1.7195  0.8159 -0.8156
  261MOL0     H35188  -0.536   1.843   3.760 -1.6043 -3.9869 -2.5219
  261MOL0     H35189  -0.531   1.741   3.522 -0.2743 -0.7912  0.7328
  261MOL0     H35190  -0.408   1.860   3.483 -0.1059 -1.8369 -0.2318
  261MOL0     H35191  -0.571   2.046   3.556 -1.4857  0.3493 -0.0837
  261MOL0     H35192  -0.687   1.916   3.596  2.2927 -2.0883  1.1242
  261MOL0     H35193  -0.652   1.845   3.338  1.2373 -0.4203  0.3186
  261MOL0     H35194  -0.562   1.998   3.319 -0.6320  2.1084  1.0330
  261MOL0     H35195  -0.824   1.720   3.373 -1.7599 -1.1837  1.9399
  261MOL0     H35196  -1.079   1.555   3.494  0.4341  1.6634  0.5168
  261MOL0     H35197  -1.089   1.533   3.310 -1.2840  0.7035  1.0589
  261MOL0     H35198  -0.937   1.538   3.384 -0.2434  1.7828 -3.9499
  261MOL0     H35199  -1.498   1.723   3.183  3.2122  1.8462  1.1614
  261MOL0     H35200  -1.748   1.705   3.162 -1.3077  0.9202  0.2659
  261MOL0     H35201  -1.954   1.695   3.542  0.7270  0.2038  0.8734
  261MOL0     H35202  -2.036   1.841   3.481  0.1669  0.2308 -1.8188
  261MOL0     H35203  -2.088   1.549   3.432 -4.4091 -1.2704  2.0819
  261MOL0     H35204  -2.196   1.668   3.489 -1.1090 -1.4740 -1.0633
  261MOL0     H35205  -2.112   1.604   3.204  0.3227  0.3667 -0.0637
  261MOL0     H35206  -2.195   1.764   3.242  1.6158  0.7025  1.0292
  261MOL0     H35207  -2.391   1.660   3.335 -0.0566 -0.4064  0.6265
  261MOL0     H35208  -2.371   1.619   3.169 -3.0310  4.8465  2.3893
  261MOL0     H35209  -2.346   1.431   3.401  0.3664 -1.8168  0.6241
  261MOL0     H35210  -2.281   1.387   3.242  1.5830  0.8947  2.6719
  261MOL0     H35211  -2.569   1.460   3.297 -0.4600 -3.7430  1.3970
  261MOL0     H35212  -2.494   1.438   3.134 -1.2161 -1.0396 -1.8754
  261MOL0     H35213  -2.506   1.237   3.366 -0.4036  2.2541  0.5790
  261MOL0     H35214  -2.467   1.201   3.193  2.2173  1.2519  1.2393
  261MOL0     H35215  -2.696   1.122   3.281 -0.9881 -0.9079 -1.7885
  261MOL0     H35216  -2.712   1.222   3.154 -0.3972 -2.3296 -0.6423
  261MOL0     H35217  -1.808   1.851   3.555 -1.4473 -2.4588  0.3830
  261MOL0     H35218  -1.547   1.889   3.583  1.5602  2.7356 -1.7532
  261MOL0     H35219  -1.218   2.014   3.328  0.4088 -0.1469  3.9513
  261MOL0     H35220  -1.003   2.125   3.335 -1.4459  0.4210 -4.9014
  261MOL0     H35221   0.816   2.200   4.467  1.1888  0.4711  2.9424
  261MOL0     H35222   0.989   2.119   4.636  0.0537 -1.7111  0.8240
  261MOL0     H35223   1.308   1.863   4.778  0.8510 -2.2784 -1.0922
  261MOL0     H35224   1.509   1.819   4.930 -1.2761 -0.1250  0.0953
  261MOL0     H35225   1.656   1.920   5.056 -1.2188 -0.0425 -0.3998
  261MOL0     H35226   1.725   1.762   5.051  0.5153  1.3505  2.1232
  261MOL0     H35227   1.943   1.844   5.010 -1.8798 -4.0222  2.1671
  261MOL0     H35228   1.887   1.884   5.170 -0.5728  2.2955 -0.1969
  261MOL0     H35229   1.812   2.132   5.097  0.6466 -0.9555  2.3409
  261MOL0     H35230   1.891   2.093   4.944  0.4464 -0.1492  0.1576
  261MOL0     H35231   2.093   2.042   5.067 -1.6589 -1.7492 -1.0280
  261MOL0     H35232   2.011   2.082   5.224  1.0919  1.0922  0.4689
  261MOL0     H35233   2.127   2.445   5.036  2.6168 -1.2645 -0.9080
  261MOL0     H35234   1.750   1.996   4.634  1.1908  0.3971  2.7691
  261MOL0     H35235   1.569   2.070   4.509  0.0136 -0.8941 -0.9731
  262MOL0     O35236   3.066   6.183   7.606  0.0228  0.5302  0.6057
  262MOL0     C35237   3.142   6.274   7.640  0.9255 -0.1032  0.0645
  262MOL0     O35238   3.121   6.403   7.617 -1.3546  0.4588  0.2689
  262MOL0     C35239   2.998   6.443   7.579 -0.4510 -0.2883  0.2531
  262MOL0     C35240   2.906   6.487   7.669  0.0141  0.0437  0.5070
  262MOL0     C35241   2.778   6.525   7.622 -0.7254 -0.2207  0.6935
  262MOL0     C35242   2.756   6.511   7.480  0.2384 -0.2329  0.4536
  262MOL0     O35243   2.635   6.556   7.419 -0.1892 -0.2439 -0.2788
  262MOL0     C35244   2.528   6.596   7.507 -0.0893  0.8092  0.6685
  262MOL0     C35245   2.411   6.617   7.415  0.5382  0.4719  0.2851
  262MOL0     C35246   2.296   6.660   7.507 -0.0353 -0.2860 -0.6049
  262MOL0     C35247   2.155   6.659   7.441  0.0627  0.3263 -0.3345
  262MOL0     C35248   2.043   6.690   7.539  0.1823  0.4071  0.2262
  262MOL0     C35249   1.920   6.650   7.461  1.4796  0.7363  0.3226
  262MOL0     C35250   1.802   6.715   7.537  0.8145  0.3903 -0.2837
  262MOL0     C35251   1.667   6.675   7.467 -0.3346  0.1270  0.6036
  262MOL0     N35252   1.626   6.535   7.493  0.2121 -0.1152 -0.4641
  262MOL0     C35253   1.538   6.491   7.592 -0.0227 -0.7708 -0.2228
  262MOL0     C35254   1.494   6.367   7.563 -0.1995  0.3657  0.1528
  262MOL0     C35255   1.394   6.277   7.631 -0.5532 -0.3076 -0.4912
  262MOL0     C35256   1.263   6.347   7.633 -0.3078  0.1461  0.0660
  262MOL0     C35257   1.146   6.258   7.685 -0.6448  1.1121  0.6237
  262MOL0     C35258   1.028   6.353   7.689  0.5190 -0.7391  0.6595
  262MOL0     O35259   1.050   6.456   7.783 -0.0290 -1.2427  0.4296
  262MOL0     C35260   0.946   6.539   7.809  0.7373 -0.3758  0.7638
  262MOL0     C35261   0.954   6.632   7.915  0.1082 -0.4150  0.3792
  262MOL0     C35262   0.844   6.708   7.957 -0.2076  0.1776 -0.3376
  262MOL0     C35263   0.873   6.778   8.091  0.5419  0.2432  0.7037
  262MOL0     C35264   0.722   6.714   7.885  0.7945 -0.5494 -0.4041
  262MOL0     C35265   0.607   6.802   7.913 -0.4616  0.1255  0.0617
  262MOL0     O35266   0.508   6.801   7.810 -0.1525  0.1791 -0.3209
  262MOL0     C35267   0.380   6.851   7.841 -0.0865  0.1380  0.1664
  262MOL0     C35268   0.274   6.766   7.817  0.5991 -0.6460 -0.3268
  262MOL0     C35269   0.144   6.804   7.850 -0.0778 -0.1146  0.2194
  262MOL0     C35270   0.111   6.938   7.891  0.0110  0.6994  0.2972
  262MOL0     O35271  -0.016   6.983   7.925 -0.0436  0.1695 -0.0280
  262MOL0     C35272  -0.116   6.890   7.908 -0.1988  0.0089 -0.1962
  262MOL0     C35273  -0.246   6.943   7.965  0.5282 -0.0784 -0.1966
  262MOL0     C35274  -0.322   7.058   7.888  0.4057  0.8794  0.0042
  262MOL0     C35275  -0.331   7.040   7.739  0.1676 -0.6000 -0.1809
  262MOL0     C35276  -0.391   7.157   7.660 -0.8471 -0.2276  0.2621
  262MOL0     C35277  -0.319   7.289   7.694 -0.1099  0.6290 -0.7158
  262MOL0     C35278  -0.341   7.385   7.582  0.0748  0.3421  0.4520
  262MOL0     C35279  -0.459   7.485   7.592  1.2490  0.5013  0.2639
  262MOL0    Cl35280  -0.475   7.583   7.433  0.4678  0.2170 -0.4677
  262MOL0     C35281   0.216   7.029   7.912 -0.0123 -0.2971 -0.2069
  262MOL0     C35282   0.343   6.982   7.889 -0.4396 -0.1177 -0.5570
  262MOL0     O35283   0.600   6.870   8.017 -0.1388  0.5794 -0.4058
  262MOL0     C35284   0.727   6.642   7.763 -0.7048 -0.9947 -0.4895
  262MOL0     C35285   0.833   6.557   7.722  0.6735 -0.7359  0.8492
  262MOL0     N35286   1.569   6.322   7.457 -0.3480 -0.1007  0.2094
  262MOL0     N35287   1.643   6.423   7.413 -0.6058  0.0380 -0.1902
  262MOL0     C35288   2.849   6.459   7.398  0.0258 -0.4255 -0.5580
  262MOL0     C35289   2.978   6.441   7.447  0.2779  0.3070  0.5294
  262MOL0     C35290   3.268   6.244   7.711 -0.2384  0.0766 -0.2550
  262MOL0     C35291   3.290   6.125   7.779 -0.6568 -0.1846  0.2831
  262MOL0     C35292   3.413   6.086   7.841  0.7035 -0.5591 -0.1629
  262MOL0     C35293   3.522   6.176   7.838 -0.4368  0.1588 -0.4399
  262MOL0     O35294   3.649   6.152   7.886 -0.4821  0.2603  0.5164
  262MOL0     C35295   3.684   6.017   7.914 -0.7412 -0.2828  0.0071
  262MOL0     C35296   3.821   6.011   7.978  1.0729 -0.8295 -0.8564
  262MOL0     C35297   3.860   5.869   8.020  0.1168  0.1980 -0.1834
  262MOL0     C35298   4.009   5.858   8.054 -0.5431 -0.4905 -0.4656
  262MOL0     C35299   4.044   5.910   8.181 -0.3009 -0.3007 -0.4292
  262MOL0     C35300   4.084   5.951   8.288 -0.6536  0.3738 -0.4581
  262MOL0     C35301   3.494   6.300   7.770 -0.7237 -0.6196 -0.5952
  262MOL0     C35302   3.378   6.331   7.705  0.0505  0.1034  0.8306
  262MOL0     H35303   2.923   6.501   7.776  0.6661  0.7065  0.3256
  262MOL0     H35304   2.703   6.563   7.690 -0.3634 -0.7639  1.3980
  262MOL0     H35305   2.493   6.523   7.580 -3.5448  2.5981  1.0424
  262MOL0     H35306   2.549   6.694   7.551 -3.9687  2.2357 -0.1971
  262MOL0     H35307   2.427   6.690   7.335 -0.4657  2.9458  2.1727
  262MOL0     H35308   2.381   6.519   7.379  2.6804  0.4934 -1.7409
  262MOL0     H35309   2.287   6.601   7.598 -1.8183 -0.5190 -0.9146
  262MOL0     H35310   2.328   6.759   7.542 -1.6441  1.3519 -3.3809
  262MOL0     H35311   2.158   6.732   7.360 -0.0365 -0.2009 -0.8209
  262MOL0     H35312   2.146   6.557   7.404  2.3017  0.1670 -0.6032
  262MOL0     H35313   2.048   6.620   7.623 -0.8204 -1.5398 -1.2439
  262MOL0     H35314   2.039   6.798   7.558  0.6517  0.7049 -1.3013
  262MOL0     H35315   1.934   6.692   7.361 -1.0704  1.9966  0.4261
  262MOL0     H35316   1.909   6.541   7.454 -0.3922  0.8249  1.2310
  262MOL0     H35317   1.807   6.688   7.643  0.9301  0.6394 -0.2237
  262MOL0     H35318   1.808   6.824   7.533 -2.2831  0.6287 -1.9835
  262MOL0     H35319   1.680   6.680   7.359  0.8414  0.4166  0.7394
  262MOL0     H35320   1.587   6.739   7.507  0.2018  1.7020 -0.7153
  262MOL0     H35321   1.508   6.555   7.675  0.6133  1.0117 -1.3114
  262MOL0     H35322   1.381   6.189   7.567  1.2079  0.1787 -1.5781
  262MOL0     H35323   1.413   6.258   7.737 -3.2940  1.5386  0.4579
  262MOL0     H35324   1.241   6.362   7.526  0.8281  1.4209 -0.0146
  262MOL0     H35325   1.282   6.439   7.688  0.2808 -1.0426  1.9410
  262MOL0     H35326   1.170   6.224   7.786 -0.6410  1.7072  0.8322
  262MOL0     H35327   1.106   6.178   7.622  0.4977 -0.1043  1.4006
  262MOL0     H35328   0.938   6.295   7.713  0.3252 -0.7607 -0.0888
  262MOL0     H35329   1.002   6.401   7.594 -2.0965 -0.0454  1.6318
  262MOL0     H35330   1.048   6.633   7.970  2.0979 -2.1330 -2.6931
  262MOL0     H35331   0.777   6.784   8.142  0.0411 -2.2052  0.2064
  262MOL0     H35332   0.947   6.731   8.156  1.2824  0.9674  0.4026
  262MOL0     H35333   0.911   6.879   8.074 -0.4782  0.5995  0.4580
  262MOL0     H35334   0.295   6.670   7.771 -0.5659 -1.0639 -0.0248
  262MOL0     H35335   0.064   6.731   7.841  0.9781 -1.7295  2.8839
  262MOL0     H35336  -0.130   6.862   7.804 -0.6243 -0.5279  0.0001
  262MOL0     H35337  -0.093   6.801   7.968  1.9803 -0.9864 -2.3180
  262MOL0     H35338  -0.315   6.861   7.990 -0.8442  0.2022 -2.6796
  262MOL0     H35339  -0.229   6.993   8.060 -1.9197  2.1004 -0.7569
  262MOL0     H35340  -0.260   7.144   7.915  1.8511 -0.0502 -0.2295
  262MOL0     H35341  -0.423   7.073   7.927  0.2139 -0.6966  0.1725
  262MOL0     H35342  -0.234   7.016   7.695  0.7608  1.7232 -0.2488
  262MOL0     H35343  -0.380   6.943   7.723 -1.1825 -0.1477  0.9881
  262MOL0     H35344  -0.496   7.170   7.686 -1.1315 -1.7032 -0.0553
  262MOL0     H35345  -0.387   7.134   7.553 -2.4458 -0.0242  0.1366
  262MOL0     H35346  -0.359   7.335   7.784  2.0581 -1.0255  1.2112
  262MOL0     H35347  -0.212   7.268   7.708 -0.8162 -2.2290  1.3012
  262MOL0     H35348  -0.360   7.328   7.490  0.2917 -0.3652  0.8435
  262MOL0     H35349  -0.255   7.453   7.579 -1.6066  2.5852  0.1596
  262MOL0     H35350  -0.448   7.552   7.678 -2.1053 -0.5993  1.7120
  262MOL0     H35351  -0.555   7.434   7.597  2.0062 -1.2642 -1.7212
  262MOL0     H35352   0.197   7.135   7.927 -0.4237 -0.3278 -0.5015
  262MOL0     H35353   0.419   7.059   7.900  0.7879 -1.0840 -1.9317
  262MOL0     H35354   0.640   6.666   7.702  0.4414  0.9111 -1.4906
  262MOL0     H35355   0.826   6.517   7.621 -3.3400 -1.7734  1.3508
  262MOL0     H35356   2.852   6.443   7.291  2.4979  0.6869 -0.7372
  262MOL0     H35357   3.060   6.414   7.382 -0.5825 -4.0420  0.9952
  262MOL0     H35358   3.201   6.063   7.776 -0.3680 -0.6894  1.3813
  262MOL0     H35359   3.429   5.993   7.895 -0.8820 -1.8752 -1.8139
  262MOL0     H35360   3.619   5.970   7.988 -1.0943 -0.6990 -0.5619
  262MOL0     H35361   3.687   5.958   7.823  1.3535 -0.1030 -0.0948
  262MOL0     H35362   3.828   6.089   8.055  3.6155 -1.6852 -0.1077
  262MOL0     H35363   3.888   6.058   7.906  1.3987 -0.7477 -0.5056
  262MOL0     H35364   3.844   5.804   7.933  1.0116  0.9174 -0.9068
  262MOL0     H35365   3.804   5.828   8.105 -1.0398 -3.5183 -2.4825
  262MOL0     H35366   4.075   5.917   7.990  0.4931 -1.2546 -0.1428
  262MOL0     H35367   4.039   5.753   8.047  0.4937 -0.2381 -0.0243
  262MOL0     H35368   4.118   5.981   8.385 -0.6685  0.8447 -0.5997
  262MOL0     H35369   3.576   6.371   7.767 -1.0050 -0.1286  1.5242
  262MOL0     H35370   3.372   6.419   7.642  1.5181  1.7864  2.9127
  263MOL0     O35371   3.991   0.558   9.168  0.0403  0.0166  0.5060
  263MOL0     C35372   3.983   0.677   9.126  0.1841  0.4347 -0.0056
  263MOL0     O35373   3.875   0.741   9.063  0.8397  0.1819 -0.7176
  263MOL0     C35374   3.757   0.682   9.084  0.9965  0.5561  0.1489
  263MOL0     C35375   3.688   0.696   9.204 -0.2785  0.6322 -0.7193
  263MOL0     C35376   3.569   0.627   9.222  0.4838  0.5929  0.8819
  263MOL0     C35377   3.500   0.571   9.109 -0.8976  0.3159  0.2649
  263MOL0     O35378   3.377   0.520   9.121  0.0643  0.6251 -0.1081
  263MOL0     C35379   3.280   0.580   9.207  0.4733 -0.4599 -0.8667
  263MOL0     C35380   3.138   0.562   9.137 -0.1010  0.3568 -0.2339
  263MOL0     C35381   3.119   0.414   9.108 -0.3863  0.2318  0.1769
  263MOL0     C35382   2.979   0.379   9.061 -0.2248 -0.0627  0.1530
  263MOL0     C35383   2.965   0.429   8.917 -0.2385 -1.0372  0.0699
  263MOL0     C35384   2.844   0.379   8.839  0.4335 -0.0232 -0.5922
  263MOL0     C35385   2.829   0.439   8.701 -0.7555 -0.1850  0.0039
  263MOL0     C35386   2.850   0.586   8.684 -0.5183 -0.1441 -0.2810
  263MOL0     N35387   2.831   0.623   8.538  0.2321  0.0928 -0.1758
  263MOL0     C35388   2.921   0.655   8.438  0.8183 -0.2274 -0.3985
  263MOL0     C35389   2.837   0.667   8.328 -0.7043 -0.0540  0.2213
  263MOL0     C35390   2.899   0.671   8.192  0.2435  0.4378  0.6648
  263MOL0     C35391   2.828   0.768   8.104  0.5156  0.4470 -0.9856
  263MOL0     C35392   2.865   0.743   7.959 -0.0099 -0.1416  0.0140
  263MOL0     C35393   2.783   0.832   7.862  0.1579 -0.3765  1.1092
  263MOL0     O35394   2.660   0.762   7.869  0.8496  0.5150 -0.1668
  263MOL0     C35395   2.551   0.809   7.799 -0.3453  0.0747 -0.1556
  263MOL0     C35396   2.559   0.902   7.695 -0.8929  0.2325  0.0883
  263MOL0     C35397   2.441   0.948   7.636  0.6404  0.4118  0.5146
  263MOL0     C35398   2.457   1.078   7.551 -0.3485  0.7112 -0.4542
  263MOL0     C35399   2.316   0.889   7.668  1.5672  0.3437  0.0372
  263MOL0     C35400   2.183   0.939   7.628 -0.6363  0.3044 -0.3764
  263MOL0     O35401   2.082   0.894   7.711  0.3027 -1.0312  0.6108
  263MOL0     C35402   1.952   0.920   7.664  0.1670 -0.4122 -0.1085
  263MOL0     C35403   1.877   0.811   7.619  0.0077 -0.7240  0.3636
  263MOL0     C35404   1.745   0.848   7.574 -0.3841 -0.5677  0.8153
  263MOL0     C35405   1.693   0.972   7.574  0.7625  0.1076 -0.2871
  263MOL0     O35406   1.554   0.976   7.543 -0.5172  0.3442 -0.7276
  263MOL0     C35407   1.481   1.097   7.550  1.1399  0.8954 -0.6567
  263MOL0     C35408   1.334   1.102   7.494  0.2318  0.7742  0.4362
  263MOL0     C35409   1.311   1.048   7.352 -0.0501  0.1653  0.8675
  263MOL0     C35410   1.353   1.144   7.245 -0.6168  1.0378  0.2119
  263MOL0     C35411   1.351   1.070   7.110 -0.2414  0.2920  0.7935
  263MOL0     C35412   1.216   1.014   7.061 -0.0740  0.0960 -0.4537
  263MOL0     C35413   1.233   0.933   6.931 -0.4824  0.0443 -0.5207
  263MOL0     C35414   1.114   0.961   6.841  0.0356  0.2958 -0.1757
  263MOL0    Cl35415   0.963   0.921   6.926 -0.3743 -0.3611 -0.0694
  263MOL0     C35416   1.770   1.080   7.621  1.2874 -0.0910  0.2936
  263MOL0     C35417   1.895   1.050   7.669  0.4069 -0.8937  0.3289
  263MOL0     O35418   2.170   1.000   7.522 -0.1199  0.2277  0.0307
  263MOL0     C35419   2.308   0.779   7.752  0.0931  0.1386  0.4598
  263MOL0     C35420   2.427   0.735   7.807  0.0255 -0.2046 -0.4351
  263MOL0     N35421   2.705   0.644   8.358 -0.3277 -1.0705  0.2961
  263MOL0     N35422   2.705   0.624   8.481  0.1550  0.8032 -0.7748
  263MOL0     C35423   3.578   0.562   8.990  0.2477  0.5026  0.7252
  263MOL0     C35424   3.707   0.608   8.977  0.6203  0.3774 -0.1716
  263MOL0     C35425   4.106   0.758   9.131 -0.4482  0.6151 -0.0265
  263MOL0     C35426   4.130   0.867   9.042  0.1477 -0.0460 -0.1243
  263MOL0     C35427   4.238   0.947   9.067  0.0941 -0.1786 -0.0574
  263MOL0     C35428   4.330   0.916   9.165  0.4481  0.3214  0.0140
  263MOL0     O35429   4.432   1.010   9.188  0.1206  0.6621 -0.0145
  263MOL0     C35430   4.548   0.972   9.258  0.7069  0.2565  0.0910
  263MOL0     C35431   4.667   1.044   9.210 -0.1658 -0.0779  0.6552
  263MOL0     C35432   4.764   1.060   9.317  0.1023  0.3476 -0.1972
  263MOL0     C35433   4.874   1.150   9.255  0.2089 -1.0776 -0.1572
  263MOL0     C35434   4.978   1.174   9.359  0.4004  1.2410 -0.7396
  263MOL0     C35435   5.071   1.171   9.434 -0.7966  0.3664 -0.0016
  263MOL0     C35436   4.312   0.808   9.254 -0.4255 -0.9634  0.5150
  263MOL0     C35437   4.198   0.736   9.237  0.3140  0.6679 -0.0258
  263MOL0     H35438   3.728   0.752   9.288 -0.1531 -0.6093  0.0736
  263MOL0     H35439   3.524   0.624   9.321 -0.8930 -2.6444  0.2870
  263MOL0     H35440   3.279   0.546   9.311 -2.3379  1.4590 -0.1536
  263MOL0     H35441   3.302   0.687   9.215  0.6261 -0.2703 -3.2405
  263MOL0     H35442   3.073   0.607   9.213 -0.2778  2.9596 -1.8140
  263MOL0     H35443   3.132   0.626   9.048 -0.8590  2.6802  1.3796
  263MOL0     H35444   3.197   0.387   9.035 -0.1638 -0.9680  0.8241
  263MOL0     H35445   3.133   0.348   9.195  0.5395 -1.3803 -1.1244
  263MOL0     H35446   2.979   0.270   9.054  0.7858 -0.1357  1.0232
  263MOL0     H35447   2.900   0.417   9.127  1.4925 -0.3643  2.5093
  263MOL0     H35448   2.959   0.538   8.924  2.4073 -0.9023  1.8969
  263MOL0     H35449   3.049   0.411   8.850 -3.0105 -1.5568 -3.5883
  263MOL0     H35450   2.854   0.270   8.839 -0.7814 -0.2598  3.1175
  263MOL0     H35451   2.759   0.394   8.907  1.4674 -0.5714  0.8721
  263MOL0     H35452   2.902   0.380   8.645 -0.5947 -1.1179  1.1576
  263MOL0     H35453   2.733   0.413   8.657 -1.6185 -1.3244  2.4035
  263MOL0     H35454   2.948   0.628   8.708 -0.5296 -0.0446 -0.4067
  263MOL0     H35455   2.779   0.647   8.741  1.2736  0.4666  1.4225
  263MOL0     H35456   3.028   0.665   8.444  0.7930  2.3469 -2.4962
  263MOL0     H35457   2.999   0.711   8.210  0.3763  0.1522  0.5648
  263MOL0     H35458   2.908   0.571   8.147  2.9814  1.0342 -0.2726
  263MOL0     H35459   2.836   0.873   8.135  0.9332  1.0006 -2.8414
  263MOL0     H35460   2.722   0.747   8.120  0.3541  3.0595  2.6991
  263MOL0     H35461   2.847   0.637   7.939 -0.4120  0.0885 -0.9375
  263MOL0     H35462   2.969   0.761   7.930  0.3597 -3.7630 -1.5236
  263MOL0     H35463   2.829   0.828   7.763  1.9414 -2.1688  1.9371
  263MOL0     H35464   2.775   0.936   7.895 -1.5582 -0.5350  1.3165
  263MOL0     H35465   2.652   0.955   7.677 -1.0651  0.1506 -1.0961
  263MOL0     H35466   2.380   1.079   7.473 -1.0020 -0.1318  0.1657
  263MOL0     H35467   2.442   1.166   7.614 -1.8568 -0.5957  1.1228
  263MOL0     H35468   2.555   1.081   7.502  0.3200  2.8230  0.8972
  263MOL0     H35469   1.911   0.708   7.626 -0.5338 -0.9515 -0.3039
  263MOL0     H35470   1.680   0.769   7.536 -1.1931  0.5234 -0.1726
  263MOL0     H35471   1.481   1.129   7.655  2.2860 -0.2208 -0.2934
  263MOL0     H35472   1.535   1.168   7.487  0.0355  1.4315 -1.0237
  263MOL0     H35473   1.258   1.058   7.559  0.3319  2.7541  2.0223
  263MOL0     H35474   1.316   1.210   7.500  0.2162  0.7302  1.2237
  263MOL0     H35475   1.204   1.029   7.342  0.2574 -0.7418 -1.4043
  263MOL0     H35476   1.354   0.948   7.339 -2.2875 -0.4398 -4.4000
  263MOL0     H35477   1.282   1.226   7.236  0.3663  1.7126 -2.7563
  263MOL0     H35478   1.452   1.183   7.272 -0.2926  0.6315 -0.3493
  263MOL0     H35479   1.423   0.988   7.111  2.9392  2.8519 -0.8698
  263MOL0     H35480   1.388   1.136   7.031  0.7325 -0.3792  0.6667
  263MOL0     H35481   1.178   0.934   7.124  0.9897 -0.5354 -0.5895
  263MOL0     H35482   1.131   1.082   7.048 -0.2791  0.6457  2.8261
  263MOL0     H35483   1.253   0.827   6.949  2.0978  0.7274  1.1624
  263MOL0     H35484   1.316   0.974   6.874 -0.4053  2.7955  1.3477
  263MOL0     H35485   1.122   0.900   6.751 -0.0275 -1.8543  1.2258
  263MOL0     H35486   1.115   1.062   6.798  2.5211  0.1789 -0.5585
  263MOL0     H35487   1.726   1.179   7.620  0.8242 -0.2895 -0.5949
  263MOL0     H35488   1.953   1.130   7.713 -2.3008  1.7594 -0.5423
  263MOL0     H35489   2.219   0.721   7.771 -0.4100  0.6082 -0.4252
  263MOL0     H35490   2.419   0.648   7.872 -3.3986 -0.0920 -0.5107
  263MOL0     H35491   3.522   0.521   8.907 -0.2736  0.3591  1.1443
  263MOL0     H35492   3.766   0.607   8.886 -0.1344 -0.1507 -0.6684
  263MOL0     H35493   4.056   0.886   8.965 -0.9938 -0.8441  0.7520
  263MOL0     H35494   4.269   1.025   8.998 -0.0027 -0.4343 -0.3916
  263MOL0     H35495   4.528   1.003   9.361 -0.0499  1.7265 -0.4720
  263MOL0     H35496   4.575   0.866   9.256 -2.5156 -0.6487 -0.7545
  263MOL0     H35497   4.625   1.136   9.168 -2.7340 -0.8647  1.3081
  263MOL0     H35498   4.709   0.987   9.126 -2.4434  2.1705 -2.2352
  263MOL0     H35499   4.801   0.958   9.333 -0.5845  0.3761  1.8649
  263MOL0     H35500   4.718   1.097   9.409  2.0169  0.9035  0.5909
  263MOL0     H35501   4.832   1.246   9.225 -1.4117 -1.0226  1.9904
  263MOL0     H35502   4.915   1.094   9.171  0.2938 -3.5852  1.4244
  263MOL0     H35503   5.145   1.149   9.508 -0.0612 -3.5571 -1.6332
  263MOL0     H35504   4.386   0.781   9.328 -0.0297 -0.3511  0.3471
  263MOL0     H35505   4.172   0.656   9.305  1.0764  0.2789 -0.1840
  264MOL0     O35506   9.463   0.179   0.158  0.0813 -0.4138  0.0006
  264MOL0     C35507   9.396   0.234   0.251 -1.5944  0.1127  0.9648
  264MOL0     O35508   9.437   0.263   0.374 -0.2983  0.0292 -0.1659
  264MOL0     C35509   9.567   0.242   0.397  0.0557  0.2885 -0.0036
  264MOL0     C35510   9.666   0.329   0.347  0.4137  0.7839  0.8322
  264MOL0     C35511   9.797   0.317   0.382 -1.0015 -0.2022  0.3469
  264MOL0     C35512   9.841   0.219   0.471  1.0720 -0.6584  0.3973
  264MOL0     O35513   9.969   0.209   0.503 -0.4061  0.0060  0.2711
  264MOL0     C35514  10.021   0.092   0.555 -0.3132  0.1014 -0.8444
  264MOL0     C35515  10.173   0.074   0.532 -0.5173 -0.0411 -0.5731
  264MOL0     C35516  10.267   0.161   0.631  0.7331  0.1976 -0.0128
  264MOL0     C35517  10.319   0.087   0.750  0.4537  0.6021  0.2195
  264MOL0     C35518  10.219   0.029   0.843 -0.3348  0.4627 -0.6706
  264MOL0     C35519  10.278  -0.022   0.966  0.4470  0.2403  0.6281
  264MOL0     C35520  10.164  -0.063   1.059 -0.4579  0.3315 -0.5496
  264MOL0     C35521  10.234  -0.116   1.191  0.2251  0.3395 -0.7162
  264MOL0     N35522  10.147  -0.088   1.314 -0.5036  1.3497 -0.2331
  264MOL0     C35523  10.028  -0.151   1.339  0.2025 -0.1019 -0.5972
  264MOL0     C35524   9.988  -0.092   1.453 -0.2864 -0.8192 -0.2677
  264MOL0     C35525   9.860  -0.122   1.517  0.5656 -0.0929  0.0646
  264MOL0     C35526   9.748  -0.040   1.456 -0.4124 -0.3674  0.5585
  264MOL0     C35527   9.636  -0.012   1.555 -0.1855  0.2880 -0.4889
  264MOL0     C35528   9.509   0.031   1.478 -0.4362  1.0080 -0.4353
  264MOL0     O35529   9.396   0.038   1.564 -0.3335 -0.3134  0.4000
  264MOL0     C35530   9.276   0.086   1.510 -0.8609 -0.5289 -0.1602
  264MOL0     C35531   9.175   0.077   1.602  0.0558 -0.6275  0.8515
  264MOL0     C35532   9.047   0.126   1.575 -0.6404 -0.8359  0.5391
  264MOL0     C35533   8.944   0.089   1.680  0.3196  0.1243  0.4123
  264MOL0     C35534   9.009   0.164   1.440 -0.3918 -0.1160 -0.4726
  264MOL0     C35535   8.868   0.206   1.397  0.8444  0.0268  0.3457
  264MOL0     O35536   8.839   0.185   1.266 -0.6065 -0.2358 -0.4411
  264MOL0     C35537   8.736   0.253   1.204  0.1550 -0.5987  0.0477
  264MOL0     C35538   8.770   0.343   1.103 -0.8008 -0.6256 -0.7133
  264MOL0     C35539   8.675   0.422   1.041  0.5227 -0.5618 -0.3291
  264MOL0     C35540   8.542   0.408   1.081 -1.0496  1.0543 -0.1840
  264MOL0     O35541   8.459   0.499   1.005  0.1054  0.2238  0.1690
  264MOL0     C35542   8.321   0.475   1.025 -0.2545 -0.0498 -0.8440
  264MOL0     C35543   8.238   0.576   0.939  0.0894 -0.3428  0.7646
  264MOL0     C35544   8.090   0.554   0.966 -0.6874 -0.0503  0.2260
  264MOL0     C35545   7.996   0.651   0.898  0.7115 -0.3315 -0.4775
  264MOL0     C35546   7.859   0.595   0.915  0.0538  0.1260  1.1124
  264MOL0     C35547   7.752   0.683   0.855  1.3643 -0.5135 -0.2392
  264MOL0     C35548   7.610   0.618   0.868  0.4084  0.3060  0.9090
  264MOL0     C35549   7.493   0.681   0.783 -0.8762  0.0839 -0.1356
  264MOL0    Cl35550   7.488   0.852   0.816  0.1323  0.1292 -0.1787
  264MOL0     C35551   8.506   0.323   1.192  0.0132 -0.5368 -0.0617
  264MOL0     C35552   8.607   0.248   1.252  1.0754  0.5013  0.4121
  264MOL0     O35553   8.800   0.276   1.473 -0.8333  0.9911  0.1008
  264MOL0     C35554   9.117   0.157   1.347  0.0428  0.2488 -0.8554
  264MOL0     C35555   9.252   0.129   1.382 -0.3941  0.2255  0.1010
  264MOL0     N35556  10.074   0.003   1.494  0.5864 -0.1987 -0.5786
  264MOL0     N35557  10.178   0.001   1.412  0.5218 -0.3270 -0.4120
  264MOL0     C35558   9.742   0.127   0.512  0.0351  0.4329 -0.1684
  264MOL0     C35559   9.609   0.135   0.473  0.7947  0.3001  0.4808
  264MOL0     C35560   9.251   0.260   0.236 -0.4264 -0.0244 -0.5950
  264MOL0     C35561   9.177   0.338   0.325  1.0172 -0.3174 -0.2147
  264MOL0     C35562   9.041   0.377   0.307 -0.4206 -0.2229  0.7626
  264MOL0     C35563   8.970   0.320   0.204 -0.5125  0.5562  1.3886
  264MOL0     O35564   8.833   0.347   0.204 -0.2479  0.9242  0.2766
  264MOL0     C35565   8.741   0.285   0.109 -0.4849 -0.3949 -0.3280
  264MOL0     C35566   8.745   0.336  -0.034 -0.5668 -0.6721  0.4242
  264MOL0     C35567   8.770   0.487  -0.039  0.9244  0.9760 -0.2804
  264MOL0     C35568   8.727   0.554  -0.160 -0.4664  0.2523  0.1695
  264MOL0     C35569   8.757   0.697  -0.163  0.2680 -0.6729  0.1677
  264MOL0     C35570   8.780   0.809  -0.166 -0.8092  0.0795 -0.5115
  264MOL0     C35571   9.041   0.234   0.110 -0.1324 -0.1552  0.2736
  264MOL0     C35572   9.181   0.209   0.129  0.1986  0.4614  0.0987
  264MOL0     H35573   9.625   0.408   0.284  0.7438  1.4912  1.4906
  264MOL0     H35574   9.858   0.400   0.347 -3.0811  0.8616 -0.9365
  264MOL0     H35575  10.000   0.097   0.662 -4.5969  1.7396 -1.5771
  264MOL0     H35576   9.985  -0.002   0.514 -1.4461  0.1486 -0.0042
  264MOL0     H35577  10.199  -0.030   0.550 -0.8223  0.2475  1.8945
  264MOL0     H35578  10.188   0.097   0.426 -0.4906 -0.1115 -0.5843
  264MOL0     H35579  10.355   0.203   0.582  0.5715 -0.3288 -0.7667
  264MOL0     H35580  10.205   0.244   0.668  0.6789  0.5690 -0.9235
  264MOL0     H35581  10.399   0.017   0.723 -0.7146 -0.7799  0.2081
  264MOL0     H35582  10.371   0.162   0.810  1.6766 -1.6539  2.1700
  264MOL0     H35583  10.149   0.106   0.875 -1.7752 -1.7166  1.9193
  264MOL0     H35584  10.160  -0.046   0.789  0.4746  0.8172 -2.0870
  264MOL0     H35585  10.334  -0.110   0.935 -0.4283 -0.0414 -0.2173
  264MOL0     H35586  10.346   0.045   1.020 -0.6614  0.2071  2.1314
  264MOL0     H35587  10.108   0.030   1.075 -1.1200  0.0167 -0.9666
  264MOL0     H35588  10.093  -0.138   1.023 -2.4149  1.4080  0.8763
  264MOL0     H35589  10.325  -0.056   1.201 -1.3822  3.0530 -1.2462
  264MOL0     H35590  10.262  -0.221   1.181  2.2233  0.7945 -0.3018
  264MOL0     H35591   9.972  -0.222   1.279  1.1032 -1.4468  0.1182
  264MOL0     H35592   9.848  -0.230   1.510  2.9828 -0.3577 -0.9430
  264MOL0     H35593   9.870  -0.097   1.623 -2.5461 -1.3621  0.7523
  264MOL0     H35594   9.717  -0.091   1.364  2.5654  0.8253 -1.2179
  264MOL0     H35595   9.785   0.055   1.419 -2.4331  0.0383 -0.5576
  264MOL0     H35596   9.659   0.075   1.618  1.1160 -0.0051 -0.5346
  264MOL0     H35597   9.609  -0.095   1.620  1.2038 -1.1209 -1.6333
  264MOL0     H35598   9.498  -0.039   1.394  0.7632 -0.1388  0.3247
  264MOL0     H35599   9.525   0.134   1.445 -1.2265  0.8861 -1.2685
  264MOL0     H35600   9.198   0.031   1.697  2.6702  0.3996  0.7899
  264MOL0     H35601   8.870   0.170   1.681 -1.6106 -1.5476  0.1711
  264MOL0     H35602   8.899  -0.008   1.659 -1.5549  1.1366 -0.5667
  264MOL0     H35603   8.993   0.073   1.776  0.8181 -2.3144 -0.1929
  264MOL0     H35604   8.874   0.366   1.087 -1.0513  0.3772 -0.9824
  264MOL0     H35605   8.703   0.506   0.979  0.7197  1.3882  2.2594
  264MOL0     H35606   8.287   0.374   1.002  1.8506 -1.2182  0.7967
  264MOL0     H35607   8.296   0.502   1.128 -1.1785 -1.7198 -0.6026
  264MOL0     H35608   8.275   0.677   0.958  1.6918 -0.8067  0.2792
  264MOL0     H35609   8.246   0.564   0.830 -0.6267  3.5382  0.1416
  264MOL0     H35610   8.077   0.562   1.074  1.6103  0.5944  0.5227
  264MOL0     H35611   8.061   0.453   0.936 -3.5165  0.9180 -0.5468
  264MOL0     H35612   7.980   0.755   0.929  3.1526  0.1216 -0.5832
  264MOL0     H35613   8.021   0.656   0.792  0.2905  0.8009 -0.5293
  264MOL0     H35614   7.849   0.579   1.023 -0.0338  0.6833  1.1889
  264MOL0     H35615   7.860   0.502   0.857  0.2429  1.0382 -0.3997
  264MOL0     H35616   7.752   0.779   0.908 -2.0455 -0.3140 -0.3479
  264MOL0     H35617   7.758   0.697   0.747  0.4796 -2.7504 -0.6470
  264MOL0     H35618   7.577   0.603   0.971 -0.3725  3.6696  1.2467
  264MOL0     H35619   7.619   0.514   0.833 -0.0176 -0.3022  2.5012
  264MOL0     H35620   7.403   0.629   0.817 -0.1560  0.0286  1.8193
  264MOL0     H35621   7.523   0.653   0.681  0.0932 -1.4636  0.5348
  264MOL0     H35622   8.405   0.318   1.231  0.8915  1.3487  2.6998
  264MOL0     H35623   8.569   0.190   1.335 -1.3293 -2.0400 -2.2500
  264MOL0     H35624   9.088   0.168   1.243 -0.4885 -2.2486 -1.0309
  264MOL0     H35625   9.333   0.127   1.310  0.2279  0.0681  0.7970
  264MOL0     H35626   9.778   0.047   0.576  2.2665  2.9638  2.0012
  264MOL0     H35627   9.534   0.061   0.495 -0.6607  2.2408  2.4879
  264MOL0     H35628   9.225   0.379   0.414 -0.4411 -0.6615  0.7748
  264MOL0     H35629   8.998   0.451   0.374  1.6432  0.0955  1.8194
  264MOL0     H35630   8.756   0.178   0.128  0.9582 -0.2274 -0.4162
  264MOL0     H35631   8.641   0.314   0.143 -0.9714 -1.5677 -0.7002
  264MOL0     H35632   8.642   0.319  -0.067 -0.1382 -1.4979 -0.5195
  264MOL0     H35633   8.816   0.286  -0.100 -0.6174  0.4804 -0.5211
  264MOL0     H35634   8.874   0.505  -0.009  0.9943 -1.8066  1.5311
  264MOL0     H35635   8.713   0.528   0.044 -0.0208  0.4880 -0.6766
  264MOL0     H35636   8.618   0.539  -0.154 -0.1970 -1.3016  1.8206
  264MOL0     H35637   8.772   0.504  -0.247 -2.1008 -0.4331 -0.3394
  264MOL0     H35638   8.813   0.911  -0.159 -0.4563  0.0063 -1.0336
  264MOL0     H35639   8.984   0.183   0.033 -1.6965  0.0463  1.2528
  264MOL0     H35640   9.227   0.137   0.061 -1.5179 -0.5642 -0.0242
  265MOL0     O35641   1.661   2.410   0.895 -0.0059  0.0498 -0.5048
  265MOL0     C35642   1.650   2.468   1.004  0.2358  0.1745  0.6994
  265MOL0     O35643   1.573   2.579   1.026  0.1286  0.5442 -0.2908
  265MOL0     C35644   1.497   2.622   0.925  0.3131 -0.0659  0.4765
  265MOL0     C35645   1.368   2.573   0.900 -0.0396  0.1703  0.1092
  265MOL0     C35646   1.285   2.616   0.798  0.3418  0.3206 -0.6325
  265MOL0     C35647   1.322   2.712   0.716 -0.9918 -0.2193  0.0157
  265MOL0     O35648   1.253   2.739   0.604  0.4204 -0.1569  0.2778
  265MOL0     C35649   1.289   2.835   0.508 -0.2423 -0.5892 -0.0957
  265MOL0     C35650   1.199   2.826   0.377 -0.0137 -0.7750  0.1383
  265MOL0     C35651   1.051   2.841   0.422  0.3956 -0.2371  0.0958
  265MOL0     C35652   0.956   2.843   0.302  0.1131  0.8237  0.4188
  265MOL0     C35653   0.816   2.876   0.337  0.6925 -0.6666  0.5377
  265MOL0     C35654   0.712   2.853   0.224  0.2151  0.4591 -0.3747
  265MOL0     C35655   0.567   2.861   0.279 -0.0151  0.3201  0.1367
  265MOL0     C35656   0.476   2.846   0.158  0.8212 -0.3459 -0.2274
  265MOL0     N35657   0.343   2.825   0.203 -0.3060 -0.7653 -0.3950
  265MOL0     C35658   0.247   2.926   0.210 -1.0130  0.1227 -0.0577
  265MOL0     C35659   0.137   2.857   0.247  0.2353  0.7601 -0.4299
  265MOL0     C35660   0.011   2.915   0.283 -0.1237 -0.0556 -0.2557
  265MOL0     C35661  -0.104   2.849   0.198  0.4339  0.6097 -0.6030
  265MOL0     C35662  -0.117   2.913   0.064  0.2623  0.8811  0.1130
  265MOL0     C35663  -0.168   2.829  -0.052  0.3366  0.1042  0.3081
  265MOL0     O35664  -0.142   2.902  -0.182  0.1197  0.0846  0.0617
  265MOL0     C35665  -0.227   3.009  -0.189  0.2714 -0.6045  0.3630
  265MOL0     C35666  -0.179   3.126  -0.260  0.6389 -0.3724 -0.3372
  265MOL0     C35667  -0.262   3.242  -0.274 -0.5950  0.1001  0.2600
  265MOL0     C35668  -0.201   3.366  -0.331 -0.0182  0.2875  0.0808
  265MOL0     C35669  -0.401   3.244  -0.232 -0.7886 -0.4007  0.3006
  265MOL0     C35670  -0.500   3.347  -0.248  0.0089 -0.5399  1.3754
  265MOL0     O35671  -0.633   3.316  -0.239 -0.3590  0.0738 -0.2149
  265MOL0     C35672  -0.745   3.392  -0.269  0.1958 -0.1615  0.6579
  265MOL0     C35673  -0.762   3.522  -0.323 -0.4215  0.1534  0.4810
  265MOL0     C35674  -0.885   3.575  -0.372 -0.4075 -0.8022 -0.1419
  265MOL0     C35675  -0.999   3.500  -0.365 -0.2545 -0.6213  0.2194
  265MOL0     O35676  -1.118   3.534  -0.423 -0.0548 -0.3340  0.0292
  265MOL0     C35677  -1.139   3.648  -0.507  1.3743  0.8165 -0.4016
  265MOL0     C35678  -1.288   3.651  -0.558  0.0192  0.0123  0.3537
  265MOL0     C35679  -1.388   3.649  -0.435  0.5049  0.6349 -0.0239
  265MOL0     C35680  -1.534   3.630  -0.480  0.3782  0.9627 -0.4196
  265MOL0     C35681  -1.638   3.683  -0.382 -0.3552  0.4736 -0.3554
  265MOL0     C35682  -1.784   3.669  -0.428 -0.4067 -0.3018  0.1050
  265MOL0     C35683  -1.813   3.698  -0.578 -0.2528  0.2303 -0.3346
  265MOL0     C35684  -1.966   3.716  -0.609 -0.1836  0.1973 -0.0181
  265MOL0    Cl35685  -2.033   3.857  -0.538 -0.1088  0.2505 -0.0076
  265MOL0     C35686  -0.990   3.381  -0.298 -0.0197  0.1685  0.2079
  265MOL0     C35687  -0.867   3.323  -0.258 -0.0854  0.2691 -0.1411
  265MOL0     O35688  -0.460   3.451  -0.296 -1.1901 -0.2775  0.0381
  265MOL0     C35689  -0.444   3.121  -0.177  0.2240 -0.0067 -0.0643
  265MOL0     C35690  -0.363   3.009  -0.151  0.1738 -0.3899  0.5818
  265MOL0     N35691   0.170   2.719   0.251  0.0135 -0.5089 -0.0723
  265MOL0     N35692   0.296   2.701   0.230  0.1949 -0.3817 -0.8521
  265MOL0     C35693   1.447   2.779   0.736  0.6298  0.6775 -0.3964
  265MOL0     C35694   1.533   2.736   0.846 -0.0106  0.3090  0.5665
  265MOL0     C35695   1.705   2.396   1.114 -0.8036  0.1865 -0.2313
  265MOL0     C35696   1.809   2.304   1.103 -0.0600 -0.7142 -0.1459
  265MOL0     C35697   1.849   2.232   1.214  0.9069  0.1724 -0.1826
  265MOL0     C35698   1.793   2.252   1.340  0.5273  0.1785 -0.3193
  265MOL0     O35699   1.833   2.174   1.452 -0.4817 -0.5358 -0.6635
  265MOL0     C35700   1.967   2.196   1.502  0.2313  0.3487  0.2208
  265MOL0     C35701   1.986   2.127   1.640 -0.1852 -0.3209  0.3304
  265MOL0     C35702   2.007   1.977   1.640 -0.2564 -0.1089  0.7954
  265MOL0     C35703   2.077   1.914   1.771 -0.5530  0.3024  0.2724
  265MOL0     C35704   1.989   1.930   1.883 -0.1676  1.1162 -0.2847
  265MOL0     C35705   1.921   1.923   1.988  0.1013 -0.2457  0.1544
  265MOL0     C35706   1.680   2.335   1.349 -0.3114  0.5503  0.6183
  265MOL0     C35707   1.638   2.404   1.235 -0.4623 -0.3717 -0.6398
  265MOL0     H35708   1.333   2.493   0.964 -2.9817  0.6537 -0.7480
  265MOL0     H35709   1.189   2.566   0.789 -0.3416  1.5789 -0.5509
  265MOL0     H35710   1.280   2.936   0.547  0.4614 -1.1094  1.4844
  265MOL0     H35711   1.391   2.828   0.471 -0.0936  3.8380 -1.0193
  265MOL0     H35712   1.233   2.909   0.315 -2.3667 -0.0385 -0.2912
  265MOL0     H35713   1.214   2.729   0.330 -0.4032 -2.0786  2.5364
  265MOL0     H35714   1.020   2.762   0.492  1.4207 -0.1694  0.6392
  265MOL0     H35715   1.039   2.932   0.481 -1.1301 -0.3157 -0.0375
  265MOL0     H35716   0.988   2.914   0.225 -0.6441  0.4915 -0.2211
  265MOL0     H35717   0.964   2.747   0.251 -2.2863  1.1093 -0.6531
  265MOL0     H35718   0.784   2.815   0.422  0.8224 -1.9088 -0.2738
  265MOL0     H35719   0.824   2.980   0.372  0.9895  0.4024 -2.4499
  265MOL0     H35720   0.733   2.919   0.139  1.6100 -1.9487 -2.0312
  265MOL0     H35721   0.731   2.752   0.186  0.0783  0.2974 -0.0145
  265MOL0     H35722   0.535   2.788   0.353 -3.0926 -0.3792 -1.7212
  265MOL0     H35723   0.547   2.957   0.327 -0.1560  0.3327  0.0541
  265MOL0     H35724   0.503   2.752   0.110 -2.5652 -1.4768 -0.1829
  265MOL0     H35725   0.490   2.935   0.097  0.5217  0.3956  0.7587
  265MOL0     H35726   0.263   3.031   0.189  2.0647  0.3242  2.5439
  265MOL0     H35727  -0.017   2.906   0.389  2.9038 -0.5251  0.5880
  265MOL0     H35728   0.016   3.023   0.267  1.0549 -0.1577 -0.6831
  265MOL0     H35729  -0.193   2.859   0.261  1.4437  1.7501  0.6855
  265MOL0     H35730  -0.084   2.742   0.186 -0.1598  0.4975 -0.6615
  265MOL0     H35731  -0.015   2.943   0.038 -0.4640  2.5033 -0.9923
  265MOL0     H35732  -0.186   2.998   0.063  2.6871  3.0150  1.6794
  265MOL0     H35733  -0.272   2.798  -0.042 -0.4882  2.4650 -0.3226
  265MOL0     H35734  -0.103   2.741  -0.058 -0.7952 -0.8206  1.0968
  265MOL0     H35735  -0.075   3.131  -0.288  0.3283 -0.8546 -1.6610
  265MOL0     H35736  -0.241   3.398  -0.428  0.4047 -1.5327 -0.7370
  265MOL0     H35737  -0.202   3.443  -0.254  0.7496  1.3592 -0.9562
  265MOL0     H35738  -0.095   3.346  -0.349  0.2751  2.0342 -0.2501
  265MOL0     H35739  -0.673   3.585  -0.319  0.2140 -0.5907 -1.0132
  265MOL0     H35740  -0.887   3.681  -0.395 -2.1886 -1.5100 -4.0019
  265MOL0     H35741  -1.122   3.744  -0.456 -2.2453  1.7219 -0.6356
  265MOL0     H35742  -1.073   3.646  -0.594 -0.0061  1.7476 -1.5068
  265MOL0     H35743  -1.297   3.736  -0.627  2.4516  0.7552  0.8440
  265MOL0     H35744  -1.298   3.552  -0.603  1.7003 -0.0920  0.1318
  265MOL0     H35745  -1.379   3.746  -0.384  1.4031  0.1160  0.8395
  265MOL0     H35746  -1.367   3.575  -0.357  0.7754  0.9854  0.2406
  265MOL0     H35747  -1.555   3.688  -0.570 -4.8827 -0.1097 -0.2190
  265MOL0     H35748  -1.550   3.525  -0.503  1.6866  1.3344 -3.3591
  265MOL0     H35749  -1.609   3.787  -0.366 -0.5286  0.5275 -0.3884
  265MOL0     H35750  -1.633   3.627  -0.287 -1.1318  1.4245  0.2655
  265MOL0     H35751  -1.821   3.567  -0.415 -0.4571 -0.1859  0.9166
  265MOL0     H35752  -1.836   3.728  -0.352  1.4042 -1.8198  2.6918
  265MOL0     H35753  -1.763   3.614  -0.627  1.9009 -0.2869  2.5104
  265MOL0     H35754  -1.753   3.783  -0.613  2.1767 -0.4547  1.8973
  265MOL0     H35755  -2.023   3.631  -0.570  0.4091 -0.2314 -0.0832
  265MOL0     H35756  -1.987   3.711  -0.717 -1.2515 -1.3982  0.2276
  265MOL0     H35757  -1.072   3.313  -0.281 -0.5101  0.8540  0.6461
  265MOL0     H35758  -0.874   3.223  -0.215  0.7625  0.4469  0.4561
  265MOL0     H35759  -0.548   3.112  -0.145  0.1091 -2.6451 -0.8991
  265MOL0     H35760  -0.423   2.939  -0.092 -0.3108  1.9553  3.0696
  265MOL0     H35761   1.477   2.861   0.671  0.1968 -0.4690 -2.1303
  265MOL0     H35762   1.630   2.784   0.857 -0.1753  0.8313 -0.1698
  265MOL0     H35763   1.859   2.288   1.008 -0.2837 -2.7123  0.0296
  265MOL0     H35764   1.920   2.151   1.211 -0.7240 -1.3550  0.6750
  265MOL0     H35765   2.039   2.151   1.433  0.2974  1.3148 -0.3462
  265MOL0     H35766   1.987   2.303   1.511  1.2949  0.1234  0.6887
  265MOL0     H35767   1.898   2.140   1.704 -1.4184 -1.4618 -1.0610
  265MOL0     H35768   2.072   2.175   1.688  0.3997 -1.3452  0.3227
  265MOL0     H35769   2.082   1.954   1.564  1.7518 -1.2790  3.0139
  265MOL0     H35770   1.914   1.921   1.625 -0.0386  0.0111 -1.2395
  265MOL0     H35771   2.159   1.981   1.799 -1.4940  2.1601 -1.2376
  265MOL0     H35772   2.118   1.812   1.770  0.9764  0.8237  2.0720
  265MOL0     H35773   1.876   1.923   2.085  0.5624  0.6911  0.3782
  265MOL0     H35774   1.638   2.357   1.446 -0.3309 -2.2498  1.3272
  265MOL0     H35775   1.559   2.478   1.244  0.3812  0.3850  0.9957
  266MOL0     O35776  10.316   8.905   6.136 -0.1929 -0.0548 -0.4268
  266MOL0     C35777  10.401   8.818   6.150 -0.1003  0.7793 -0.1317
  266MOL0     O35778  10.374   8.684   6.148 -0.6002  0.6386 -0.3549
  266MOL0     C35779  10.240   8.648   6.144  0.6171 -0.2179  0.2687
  266MOL0     C35780  10.187   8.565   6.245 -0.2706 -0.5053  0.6191
  266MOL0     C35781  10.058   8.519   6.246  0.2365 -0.0063 -0.0348
  266MOL0     C35782   9.974   8.544   6.140 -0.1390 -0.3244  0.3637
  266MOL0     O35783   9.844   8.503   6.134 -0.1004  0.2831  0.7961
  266MOL0     C35784   9.812   8.387   6.215  0.0181  0.2331  0.8704
  266MOL0     C35785   9.665   8.353   6.188 -0.0638 -0.3631  0.2763
  266MOL0     C35786   9.596   8.249   6.278  0.1422  0.2629 -0.1805
  266MOL0     C35787   9.558   8.294   6.419  0.4688  0.3807  0.2120
  266MOL0     C35788   9.451   8.399   6.421 -0.2799 -0.0097 -0.1088
  266MOL0     C35789   9.416   8.433   6.565  0.2768  0.1027 -0.0307
  266MOL0     C35790   9.333   8.562   6.568 -0.3801 -0.7583 -0.2017
  266MOL0     C35791   9.278   8.597   6.706 -0.3533 -0.4080  0.8944
  266MOL0     N35792   9.219   8.482   6.764  0.0811  0.2344 -0.2877
  266MOL0     C35793   9.108   8.424   6.717 -0.1410 -0.0084  0.9881
  266MOL0     C35794   9.066   8.343   6.821  0.6919 -0.6178  0.2456
  266MOL0     C35795   8.948   8.252   6.813  0.2418  0.2978 -0.2741
  266MOL0     C35796   8.817   8.326   6.845 -1.3847  0.4203 -0.0206
  266MOL0     C35797   8.697   8.226   6.829  1.0749  0.0502  0.0486
  266MOL0     C35798   8.559   8.273   6.879 -0.4329  0.7306  0.4343
  266MOL0     O35799   8.460   8.172   6.834 -0.1941 -0.3264 -0.5390
  266MOL0     C35800   8.329   8.193   6.880  0.2996  0.6888  0.3475
  266MOL0     C35801   8.254   8.080   6.909  0.4464  0.0008 -0.3129
  266MOL0     C35802   8.122   8.097   6.959 -0.3137  0.2587 -1.1600
  266MOL0     C35803   8.046   7.963   7.004  0.2417 -0.9103 -0.8614
  266MOL0     C35804   8.059   8.219   6.965 -0.9277 -0.4626  0.5890
  266MOL0     C35805   7.942   8.242   7.051 -0.5272  0.7387  0.6313
  266MOL0     O35806   7.939   8.342   7.141 -0.3061  0.0488 -0.4964
  266MOL0     C35807   7.846   8.358   7.240  0.6206  0.1403 -0.0207
  266MOL0     C35808   7.892   8.398   7.367  0.1585  0.2105  1.0067
  266MOL0     C35809   7.809   8.429   7.465  0.4571 -0.2780 -0.2132
  266MOL0     C35810   7.670   8.433   7.451 -0.2401  0.2133 -0.1052
  266MOL0     O35811   7.589   8.461   7.557  0.4255 -0.8901 -0.2765
  266MOL0     C35812   7.629   8.559   7.656 -0.2647  0.0875 -0.5480
  266MOL0     C35813   7.502   8.607   7.736 -0.7226 -0.3788  0.4646
  266MOL0     C35814   7.453   8.493   7.834 -0.7980 -0.6996 -0.1518
  266MOL0     C35815   7.356   8.541   7.935  0.8951  0.1393  0.2545
  266MOL0     C35816   7.359   8.456   8.070  0.3854 -0.7200 -0.4402
  266MOL0     C35817   7.223   8.463   8.142  0.8723  0.8494 -0.4191
  266MOL0     C35818   7.250   8.389   8.271 -0.2546  0.1929 -0.9313
  266MOL0     C35819   7.111   8.376   8.347 -0.8599  0.4365  0.3120
  266MOL0    Cl35820   7.075   8.553   8.402  0.1607 -0.2279  0.1369
  266MOL0     C35821   7.617   8.401   7.326  0.5173  0.8281  0.6514
  266MOL0     C35822   7.702   8.360   7.226 -0.2360  0.5514 -0.2159
  266MOL0     O35823   7.842   8.176   7.016  0.6542 -0.1659 -0.2927
  266MOL0     C35824   8.127   8.332   6.921 -0.9301  0.3777  0.0057
  266MOL0     C35825   8.260   8.318   6.880 -0.2955 -0.4847 -0.5915
  266MOL0     N35826   9.136   8.378   6.928 -0.1651  0.3129  0.0076
  266MOL0     N35827   9.234   8.454   6.894 -0.6638 -0.5484  0.6913
  266MOL0     C35828  10.020   8.629   6.043  0.8152 -0.1246  1.1444
  266MOL0     C35829  10.151   8.670   6.037  0.1860 -0.3719 -0.0525
  266MOL0     C35830  10.538   8.873   6.158  0.8532  0.0839 -0.4692
  266MOL0     C35831  10.650   8.799   6.202 -0.0811  0.0219  0.2235
  266MOL0     C35832  10.778   8.853   6.206 -0.4388 -0.5325  0.7860
  266MOL0     C35833  10.804   8.988   6.169 -0.0391  0.1033 -0.5865
  266MOL0     O35834  10.930   9.040   6.178  0.3290 -0.5698 -0.0102
  266MOL0     C35835  10.957   9.182   6.189  0.4568  0.3426  0.3752
  266MOL0     C35836  11.105   9.187   6.252  0.2419  0.4554 -0.3120
  266MOL0     C35837  11.097   9.137   6.399  0.0966 -0.1101  0.3920
  266MOL0     C35838  11.218   9.188   6.464  0.4215  0.0004 -0.6727
  266MOL0     C35839  11.336   9.107   6.452 -1.1687 -0.5038 -0.5649
  266MOL0     C35840  11.435   9.037   6.431 -0.3864  0.4814 -1.5140
  266MOL0     C35841  10.697   9.062   6.114 -0.1629  0.2451 -0.6366
  266MOL0     C35842  10.567   9.011   6.127  0.4431 -0.8672  1.0796
  266MOL0     H35843  10.250   8.572   6.333 -0.4164  1.6494  0.6026
  266MOL0     H35844  10.022   8.474   6.338  1.2093 -1.4069 -0.3100
  266MOL0     H35845   9.876   8.300   6.194 -1.9232 -1.3927  1.3384
  266MOL0     H35846   9.812   8.411   6.322  0.4366  1.3123  0.6326
  266MOL0     H35847   9.628   8.456   6.181  0.2383 -0.2124  0.8303
  266MOL0     H35848   9.667   8.310   6.087  1.9179  0.8949 -0.2701
  266MOL0     H35849   9.504   8.217   6.229  0.1239  0.6233 -0.3859
  266MOL0     H35850   9.663   8.163   6.292 -0.3241  0.0367  0.7479
  266MOL0     H35851   9.517   8.202   6.461  0.1107 -0.8034 -2.5689
  266MOL0     H35852   9.651   8.321   6.469 -1.7539  0.7294  4.6847
  266MOL0     H35853   9.497   8.483   6.367  2.3304 -0.6963  0.8808
  266MOL0     H35854   9.362   8.362   6.370 -0.1049  0.3752 -0.7065
  266MOL0     H35855   9.367   8.342   6.599  0.6454 -0.3230 -0.6223
  266MOL0     H35856   9.510   8.436   6.620  1.2997  0.1404 -1.7256
  266MOL0     H35857   9.397   8.641   6.526  0.6701 -0.7397  1.3387
  266MOL0     H35858   9.247   8.563   6.501  0.4589  0.4944 -1.3195
  266MOL0     H35859   9.196   8.669   6.709  0.2621  0.3451  0.2336
  266MOL0     H35860   9.365   8.615   6.770  3.1301 -3.8134 -2.3491
  266MOL0     H35861   9.070   8.423   6.615  0.0433  2.5207  0.8319
  266MOL0     H35862   8.950   8.203   6.715 -3.5582  0.3805 -0.5479
  266MOL0     H35863   8.972   8.179   6.891  0.5013  0.7681  0.0894
  266MOL0     H35864   8.803   8.406   6.772 -2.2127 -1.9912 -2.6804
  266MOL0     H35865   8.827   8.371   6.944 -2.9007  0.5875  0.0751
  266MOL0     H35866   8.713   8.128   6.876  1.2911  0.1902  0.2732
  266MOL0     H35867   8.689   8.200   6.723  0.7901 -0.2670  0.1453
  266MOL0     H35868   8.538   8.370   6.832  1.7038  0.3258 -1.5496
  266MOL0     H35869   8.549   8.282   6.987  3.2320 -3.0324  1.3412
  266MOL0     H35870   8.299   7.981   6.909 -0.0443 -0.2386  0.6519
  266MOL0     H35871   7.960   7.940   6.939 -0.2450  1.1128 -0.9973
  266MOL0     H35872   8.125   7.888   7.003  0.3838 -0.8714  1.5173
  266MOL0     H35873   8.002   7.964   7.104 -1.2102  0.6018 -1.4525
  266MOL0     H35874   7.997   8.424   7.369  0.2388  0.8717 -3.3230
  266MOL0     H35875   7.860   8.463   7.555 -1.6894  2.3971  0.1263
  266MOL0     H35876   7.704   8.515   7.722  0.7520  2.2638 -0.1777
  266MOL0     H35877   7.678   8.647   7.612  0.3227 -0.2707 -0.6262
  266MOL0     H35878   7.520   8.702   7.787 -0.7267  1.5444 -2.7787
  266MOL0     H35879   7.422   8.628   7.664 -0.1035  2.8992  0.5711
  266MOL0     H35880   7.537   8.445   7.886 -0.8884  0.5791  1.2348
  266MOL0     H35881   7.404   8.413   7.779 -2.3075 -1.7117  2.4719
  266MOL0     H35882   7.370   8.647   7.960 -0.8470  0.3237  0.5393
  266MOL0     H35883   7.255   8.525   7.898 -0.2735  1.9241  2.4225
  266MOL0     H35884   7.432   8.502   8.137 -3.5946 -0.7959  4.5659
  266MOL0     H35885   7.391   8.353   8.052  4.6499 -0.2811  3.1549
  266MOL0     H35886   7.202   8.567   8.168  1.2798  0.8437 -0.0647
  266MOL0     H35887   7.145   8.426   8.074  1.0195  1.7937 -1.1074
  266MOL0     H35888   7.321   8.442   8.334 -0.6515 -1.3872  0.9303
  266MOL0     H35889   7.295   8.291   8.251 -0.1018  0.6488 -3.0507
  266MOL0     H35890   7.125   8.313   8.435 -0.7785  2.2208  1.6387
  266MOL0     H35891   7.032   8.332   8.285 -1.0456 -0.6108  1.2587
  266MOL0     H35892   7.511   8.385   7.310  0.7921  0.2254 -0.7208
  266MOL0     H35893   7.665   8.336   7.127 -0.1843  0.9020 -0.3218
  266MOL0     H35894   8.072   8.425   6.925 -0.1765  0.8132  0.5655
  266MOL0     H35895   8.323   8.403   6.856  0.2660 -0.3511  1.2452
  266MOL0     H35896   9.959   8.673   5.965  0.2306  1.9110  2.6562
  266MOL0     H35897  10.187   8.726   5.951 -1.0376  1.9244  0.8361
  266MOL0     H35898  10.647   8.698   6.240  1.2118  0.4195  1.4330
  266MOL0     H35899  10.860   8.792   6.244  1.7639  1.5298 -0.3987
  266MOL0     H35900  10.948   9.227   6.089 -2.7456  1.2408  0.9592
  266MOL0     H35901  10.884   9.226   6.257  0.2163 -0.8667  0.9147
  266MOL0     H35902  11.151   9.285   6.241 -0.4725  0.6699 -1.5970
  266MOL0     H35903  11.166   9.115   6.197  1.4795  1.7625 -0.6908
  266MOL0     H35904  11.093   9.029   6.414  2.4204 -0.1040  1.5198
  266MOL0     H35905  11.006   9.179   6.442  1.2636  2.4785  0.5131
  266MOL0     H35906  11.195   9.205   6.570  2.6016  1.5758 -0.3810
  266MOL0     H35907  11.245   9.291   6.439  1.4896  0.6833  2.6993
  266MOL0     H35908  11.530   8.989   6.416 -0.7965 -0.6098 -0.7295
  266MOL0     H35909  10.708   9.166   6.085 -0.3005 -0.1325 -2.1272
  266MOL0     H35910  10.484   9.063   6.080  1.8045 -0.5746 -1.1631
  267MOL0     O35911   9.064   7.915   6.994 -0.2853 -0.7582 -0.2952
  267MOL0     C35912   9.077   7.835   6.903  0.2011  0.3494 -0.7090
  267MOL0     O35913   8.984   7.748   6.860  0.3337  0.3508  0.1325
  267MOL0     C35914   8.857   7.760   6.913 -0.8301 -0.0737 -0.2000
  267MOL0     C35915   8.774   7.850   6.844  0.6568  0.0477  0.1384
  267MOL0     C35916   8.633   7.846   6.884 -0.2046  0.1715 -0.1481
  267MOL0     C35917   8.588   7.782   7.000 -0.3097 -0.1292  0.3268
  267MOL0     O35918   8.453   7.789   7.032  0.5699 -0.3820  0.5314
  267MOL0     C35919   8.423   7.777   7.171 -0.2429  0.3884 -0.4222
  267MOL0     C35920   8.350   7.646   7.216 -0.9236  0.2547  0.4186
  267MOL0     C35921   8.209   7.650   7.161  0.5961 -0.5284 -0.1944
  267MOL0     C35922   8.106   7.558   7.237  0.7560  0.1235  0.2821
  267MOL0     C35923   7.972   7.549   7.178 -0.4996 -0.6293 -0.4799
  267MOL0     C35924   7.864   7.502   7.279  0.1745  0.2278 -0.5135
  267MOL0     C35925   7.736   7.481   7.199  0.4740  0.9037  0.6547
  267MOL0     C35926   7.640   7.392   7.279 -0.7589  0.0208 -0.0126
  267MOL0     N35927   7.605   7.451   7.406  0.2038 -0.3357  0.1122
  267MOL0     C35928   7.546   7.574   7.414 -0.4872  0.1140  0.1718
  267MOL0     C35929   7.519   7.597   7.550 -0.3880  0.0189  0.7108
  267MOL0     C35930   7.444   7.719   7.601 -1.0051  0.0068  0.4099
  267MOL0     C35931   7.285   7.696   7.622  0.5263  0.0478 -0.4960
  267MOL0     C35932   7.207   7.676   7.488  0.3877 -0.1065 -0.2662
  267MOL0     C35933   7.052   7.671   7.507  0.3520  0.1080 -0.4341
  267MOL0     O35934   6.993   7.792   7.559 -0.6006  0.8708  0.2472
  267MOL0     C35935   6.858   7.819   7.543 -0.1006 -0.1667 -0.0928
  267MOL0     C35936   6.760   7.727   7.520  0.1019  0.8892 -0.1376
  267MOL0     C35937   6.626   7.762   7.506 -0.5440 -0.2376  0.7795
  267MOL0     C35938   6.526   7.649   7.501  0.2776  0.0868  0.4840
  267MOL0     C35939   6.583   7.892   7.516  0.1982  0.4683  0.9122
  267MOL0     C35940   6.452   7.940   7.496  0.2452  0.4231  0.5711
  267MOL0     O35941   6.392   7.886   7.391  0.8970 -0.1004  0.1449
  267MOL0     C35942   6.261   7.890   7.355 -0.3876 -0.1968 -0.0971
  267MOL0     C35943   6.226   7.788   7.263  0.1462 -0.3295 -0.1632
  267MOL0     C35944   6.102   7.780   7.215 -0.4886  0.3662  0.3962
  267MOL0     C35945   5.998   7.874   7.247 -0.4693  0.0044  0.3369
  267MOL0     O35946   5.879   7.834   7.196  0.2044 -0.7343  0.6230
  267MOL0     C35947   5.776   7.919   7.241  0.8195 -0.4166  0.7238
  267MOL0     C35948   5.648   7.898   7.170  0.0023  0.6188 -0.7931
  267MOL0     C35949   5.578   7.772   7.225 -0.3346  0.3239  1.3418
  267MOL0     C35950   5.455   7.736   7.145  0.5898 -0.6764  0.5375
  267MOL0     C35951   5.376   7.626   7.215  0.9716 -0.6173 -0.5927
  267MOL0     C35952   5.265   7.566   7.119 -0.3644 -0.0115  0.3645
  267MOL0     C35953   5.146   7.654   7.100  0.9365  0.1614  0.0343
  267MOL0     C35954   5.016   7.573   7.072  0.1538 -0.2598  0.6575
  267MOL0    Cl35955   4.923   7.639   6.932  0.2558 -0.2587 -0.5976
  267MOL0     C35956   6.028   7.971   7.343 -0.7524  1.2694 -0.9453
  267MOL0     C35957   6.160   7.980   7.393 -0.0691  0.5932  0.0799
  267MOL0     O35958   6.408   8.029   7.564  0.7111 -0.0438 -0.4508
  267MOL0     C35959   6.679   7.990   7.528  0.3148  0.0767 -0.1258
  267MOL0     C35960   6.813   7.955   7.537 -0.1515  0.5803  0.2082
  267MOL0     N35961   7.560   7.480   7.620  0.2827  0.1061  0.0330
  267MOL0     N35962   7.608   7.394   7.532  0.7578  0.8655  0.1209
  267MOL0     C35963   8.682   7.699   7.071  1.2307 -1.1187 -0.1023
  267MOL0     C35964   8.809   7.682   7.020  0.4636  0.0684 -0.2738
  267MOL0     C35965   9.201   7.829   6.826 -0.2533 -0.3081 -0.1734
  267MOL0     C35966   9.323   7.893   6.877  0.4838  0.3463  0.7288
  267MOL0     C35967   9.442   7.889   6.816 -0.6624  0.6211  0.1364
  267MOL0     C35968   9.452   7.832   6.689 -0.0361 -0.3387 -0.6694
  267MOL0     O35969   9.563   7.830   6.607 -0.0359  0.3456  0.1895
  267MOL0     C35970   9.667   7.926   6.598 -0.4073  0.5958 -0.5620
  267MOL0     C35971   9.808   7.879   6.557 -0.1701  0.9049  0.4786
  267MOL0     C35972   9.813   7.724   6.572 -0.4322  0.2625  0.3696
  267MOL0     C35973   9.951   7.660   6.531 -0.1933  0.2047 -0.5381
  267MOL0     C35974  10.008   7.708   6.401  0.0826  0.5824  0.5255
  267MOL0     C35975  10.053   7.759   6.295  0.1231  0.5324 -0.0024
  267MOL0     C35976   9.337   7.771   6.634 -0.0963  0.5421  0.2774
  267MOL0     C35977   9.218   7.771   6.702  0.2035 -0.1018 -0.1456
  267MOL0     H35978   8.793   7.916   6.760 -4.1109 -1.3443 -2.4114
  267MOL0     H35979   8.561   7.901   6.824 -3.3068 -4.2208 -0.8891
  267MOL0     H35980   8.515   7.792   7.229 -0.2517 -0.7537 -0.0911
  267MOL0     H35981   8.366   7.868   7.193  0.4427  1.6009 -3.2422
  267MOL0     H35982   8.402   7.554   7.185 -0.0750 -0.9880  4.8456
  267MOL0     H35983   8.347   7.646   7.325 -1.6826 -3.2761  0.5304
  267MOL0     H35984   8.175   7.754   7.162  1.8440 -0.1007 -0.6787
  267MOL0     H35985   8.219   7.612   7.059 -0.3054 -2.3661  0.3658
  267MOL0     H35986   8.153   7.459   7.232 -0.5172 -0.4556 -1.2954
  267MOL0     H35987   8.090   7.593   7.339 -1.7645  1.1814 -0.3913
  267MOL0     H35988   7.942   7.647   7.140  1.2121  0.2346  0.3118
  267MOL0     H35989   7.982   7.476   7.096  2.1432  0.8554 -1.6044
  267MOL0     H35990   7.896   7.400   7.300  2.4164  1.1195  0.7552
  267MOL0     H35991   7.861   7.559   7.373 -0.1851 -1.9207  0.8555
  267MOL0     H35992   7.684   7.573   7.175  0.4678  0.2808 -2.0181
  267MOL0     H35993   7.755   7.430   7.104 -1.4277 -0.2865  0.8753
  267MOL0     H35994   7.685   7.295   7.303  3.5097  1.8077  0.0303
  267MOL0     H35995   7.555   7.375   7.212 -0.2795 -0.6753 -0.4505
  267MOL0     H35996   7.521   7.633   7.326  1.5236  2.1641  0.8746
  267MOL0     H35997   7.489   7.752   7.695 -0.1295  1.7005 -0.5665
  267MOL0     H35998   7.465   7.801   7.532 -0.9916  3.1079  3.8022
  267MOL0     H35999   7.239   7.779   7.677  1.5091  0.1657  0.1597
  267MOL0     H36000   7.265   7.610   7.686  0.9455  0.5515  0.3303
  267MOL0     H36001   7.255   7.590   7.439  0.6771  1.4404 -2.9163
  267MOL0     H36002   7.225   7.759   7.420 -1.4893  0.3034 -0.3122
  267MOL0     H36003   7.026   7.587   7.572 -0.0308  0.8160  0.3576
  267MOL0     H36004   6.993   7.647   7.418  0.7955  0.8270 -0.9288
  267MOL0     H36005   6.788   7.622   7.510 -1.1922  0.4199  0.8417
  267MOL0     H36006   6.557   7.564   7.562  0.1091  0.0144  0.4689
  267MOL0     H36007   6.429   7.683   7.540  0.1899 -0.5275  0.8156
  267MOL0     H36008   6.524   7.607   7.400 -0.7845 -1.8004  1.2386
  267MOL0     H36009   6.300   7.715   7.230 -1.8187 -3.2748  1.5055
  267MOL0     H36010   6.084   7.693   7.152  0.2587 -0.2510  1.0152
  267MOL0     H36011   5.757   7.915   7.349  0.6152  1.0954  0.7572
  267MOL0     H36012   5.809   8.022   7.225  0.3093 -0.5461 -1.4578
  267MOL0     H36013   5.580   7.982   7.184  0.5636  1.1881 -1.4425
  267MOL0     H36014   5.666   7.891   7.062 -0.9838  0.0956 -0.9374
  267MOL0     H36015   5.542   7.786   7.327 -2.9384 -0.6982  0.6509
  267MOL0     H36016   5.649   7.690   7.213 -2.3942 -1.5920  1.4579
  267MOL0     H36017   5.400   7.828   7.125  2.9655  0.2434 -2.6262
  267MOL0     H36018   5.485   7.683   7.054  2.3749 -0.3133  0.8711
  267MOL0     H36019   5.320   7.645   7.307 -0.2571 -0.2077 -1.4164
  267MOL0     H36020   5.445   7.544   7.239 -2.0773 -2.8519  1.4008
  267MOL0     H36021   5.320   7.548   7.026  2.9787  5.5318  0.7986
  267MOL0     H36022   5.239   7.469   7.163 -1.2232 -0.0418 -0.1853
  267MOL0     H36023   5.162   7.722   7.015 -5.0460  0.3729 -1.3435
  267MOL0     H36024   5.131   7.712   7.192  0.3350 -1.4829  1.0097
  267MOL0     H36025   4.960   7.584   7.166  2.3128 -1.0438  2.1196
  267MOL0     H36026   5.038   7.466   7.061  1.5539  0.1136 -0.3652
  267MOL0     H36027   5.951   8.038   7.381 -0.5493  0.8295  0.2846
  267MOL0     H36028   6.175   8.062   7.462 -2.4260  0.6307  0.6378
  267MOL0     H36029   6.656   8.096   7.523  2.9721  0.6981 -0.9226
  267MOL0     H36030   6.875   8.041   7.560 -1.8115  1.5055  1.3540
  267MOL0     H36031   8.666   7.631   7.153  2.5430 -0.6849  0.5399
  267MOL0     H36032   8.878   7.616   7.072 -0.9760 -0.4863  1.0068
  267MOL0     H36033   9.320   7.958   6.965  1.1227  2.5988 -0.8301
  267MOL0     H36034   9.525   7.937   6.868  0.8456 -2.3285  0.6999
  267MOL0     H36035   9.633   8.009   6.535 -0.9734 -0.6086 -1.8980
  267MOL0     H36036   9.686   7.969   6.697 -0.6145  1.1085 -0.7458
  267MOL0     H36037   9.888   7.926   6.614 -0.1824  2.2040 -0.5430
  267MOL0     H36038   9.817   7.897   6.449 -1.5937 -0.2886  0.1144
  267MOL0     H36039   9.739   7.679   6.504 -1.1462 -0.5982  1.6686
  267MOL0     H36040   9.791   7.689   6.673  2.2218 -1.9362  0.3168
  267MOL0     H36041   9.932   7.554   6.514 -1.6776  0.2507  0.7030
  267MOL0     H36042  10.026   7.669   6.610 -1.3887 -1.5062  0.8733
  267MOL0     H36043  10.104   7.798   6.210  0.2562 -0.7895 -0.5595
  267MOL0     H36044   9.343   7.725   6.535  1.9051 -2.8136  1.7755
  267MOL0     H36045   9.123   7.733   6.665 -1.4636  2.0904  1.5555
  268MOL0     O36046   5.824   8.056   6.824 -0.4217 -0.4092  0.1953
  268MOL0     C36047   5.905   8.134   6.768 -0.0974  0.8592  0.1330
  268MOL0     O36048   5.869   8.221   6.671 -0.4640  0.3359  0.4332
  268MOL0     C36049   5.744   8.234   6.602 -0.3228 -0.6713  0.3920
  268MOL0     C36050   5.728   8.358   6.538  0.8243  0.0409 -0.3889
  268MOL0     C36051   5.609   8.392   6.471  0.2675  0.1138 -0.5904
  268MOL0     C36052   5.500   8.293   6.458  0.0096 -0.9079 -0.6771
  268MOL0     O36053   5.387   8.309   6.377 -0.3238 -0.5168  0.8731
  268MOL0     C36054   5.351   8.428   6.317  0.2639 -0.2865 -0.7399
  268MOL0     C36055   5.198   8.440   6.295 -0.0850  0.2357  0.8372
  268MOL0     C36056   5.109   8.427   6.420  0.5860  0.4844  0.1942
  268MOL0     C36057   4.960   8.407   6.388 -0.5864  0.4161 -0.2115
  268MOL0     C36058   4.871   8.406   6.505 -0.4892  0.0501  0.3016
  268MOL0     C36059   4.840   8.550   6.556 -0.3534  0.4071 -0.1325
  268MOL0     C36060   4.762   8.540   6.689  0.2836  0.7062  0.0104
  268MOL0     C36061   4.605   8.534   6.667  0.2030  0.7591 -0.3670
  268MOL0     N36062   4.547   8.658   6.670  0.1211 -0.3470 -0.0084
  268MOL0     C36063   4.549   8.746   6.775  0.5147 -0.2675  0.2281
  268MOL0     C36064   4.492   8.862   6.729 -0.4785  1.0033 -0.1273
  268MOL0     C36065   4.480   8.993   6.805 -0.1503 -0.5735 -0.6087
  268MOL0     C36066   4.364   8.985   6.910  0.4758  0.7302  0.3182
  268MOL0     C36067   4.230   8.968   6.853  0.0279 -0.0348 -0.3851
  268MOL0     C36068   4.167   9.075   6.754 -0.0696  0.2387 -0.5942
  268MOL0     O36069   4.182   9.208   6.806  0.1673 -0.0015  0.4250
  268MOL0     C36070   4.076   9.294   6.783  0.4980  0.6248 -0.0887
  268MOL0     C36071   4.102   9.416   6.718 -0.3588  0.5718 -1.2454
  268MOL0     C36072   4.010   9.510   6.689  0.4186 -0.4507  0.6921
  268MOL0     C36073   4.053   9.614   6.590  0.4627 -0.1719  0.2521
  268MOL0     C36074   3.876   9.494   6.741 -0.5688 -0.0652 -0.1310
  268MOL0     C36075   3.764   9.586   6.717 -0.1913 -0.1933 -0.0033
  268MOL0     O36076   3.649   9.558   6.785  0.7441 -0.2309 -0.4261
  268MOL0     C36077   3.538   9.640   6.759 -0.1873  0.1964  0.4574
  268MOL0     C36078   3.526   9.774   6.797  0.9752 -0.2173  0.3894
  268MOL0     C36079   3.407   9.850   6.777  0.4619 -0.9058 -0.1152
  268MOL0     C36080   3.297   9.791   6.716  0.2223 -0.3096 -0.0420
  268MOL0     O36081   3.186   9.876   6.694  0.5299 -0.3029  0.8616
  268MOL0     C36082   3.094   9.837   6.585 -0.1643  0.0586 -0.0839
  268MOL0     C36083   3.158   9.841   6.445  0.6307 -0.6197 -0.1013
  268MOL0     C36084   3.075   9.752   6.344 -0.7879 -1.0549  0.5928
  268MOL0     C36085   2.936   9.822   6.318  0.4361  0.3793 -0.6111
  268MOL0     C36086   2.881   9.770   6.194 -0.5085 -0.8363 -0.2301
  268MOL0     C36087   2.743   9.835   6.183 -0.4500  1.0879 -0.8049
  268MOL0     C36088   2.691   9.840   6.040  0.6104 -0.8348 -0.6038
  268MOL0     C36089   2.561   9.924   6.032  0.4954 -0.4990 -0.4583
  268MOL0    Cl36090   2.408   9.852   6.088 -0.1673  0.0174 -0.4217
  268MOL0     C36091   3.317   9.658   6.674 -0.4587  0.4035 -0.5626
  268MOL0     C36092   3.432   9.581   6.697 -0.3805  0.4001  0.4661
  268MOL0     O36093   3.779   9.681   6.638  0.4543  0.1722 -0.2374
  268MOL0     C36094   3.846   9.376   6.814  0.0605  0.0675  0.2787
  268MOL0     C36095   3.943   9.270   6.823  1.3739 -0.5290  0.4082
  268MOL0     N36096   4.452   8.848   6.596 -0.2914 -0.3747 -0.4939
  268MOL0     N36097   4.491   8.729   6.565  0.0581  0.0478  0.0759
  268MOL0     C36098   5.526   8.169   6.524 -0.4203 -0.4371  0.0630
  268MOL0     C36099   5.641   8.139   6.596  0.6698  0.8736  0.2461
  268MOL0     C36100   6.047   8.140   6.821  0.1865 -0.8255 -0.0235
  268MOL0     C36101   6.146   8.213   6.765 -0.3066  0.5913 -0.2757
  268MOL0     C36102   6.278   8.207   6.812  0.0730 -1.3472  1.1727
  268MOL0     C36103   6.314   8.118   6.907 -0.0079 -0.4864 -0.0092
  268MOL0     O36104   6.451   8.106   6.943 -0.0971  0.5762 -0.2059
  268MOL0     C36105   6.482   7.984   7.013 -0.1381 -0.5558 -0.0097
  268MOL0     C36106   6.631   7.978   7.048  0.2332  0.0535 -0.8105
  268MOL0     C36107   6.656   7.856   7.136 -1.5215 -0.3635 -0.0474
  268MOL0     C36108   6.801   7.803   7.143  0.6688  0.5751  0.0896
  268MOL0     C36109   6.904   7.909   7.155 -0.4529 -0.1640 -0.1184
  268MOL0     C36110   6.968   8.007   7.176 -0.3067 -0.9511  0.4908
  268MOL0     C36111   6.214   8.050   6.975 -0.5633  0.7065  0.1204
  268MOL0     C36112   6.081   8.067   6.933  0.4096 -0.2786 -0.4134
  268MOL0     H36113   5.802   8.438   6.541  0.0256  0.8424 -1.2302
  268MOL0     H36114   5.589   8.488   6.424 -2.9101 -0.8203 -1.4409
  268MOL0     H36115   5.392   8.510   6.378 -1.1942  1.4944 -2.0162
  268MOL0     H36116   5.393   8.440   6.217  1.1545  0.1703 -0.3229
  268MOL0     H36117   5.172   8.529   6.237 -0.4592  1.1659  2.3844
  268MOL0     H36118   5.178   8.354   6.229  0.7391  0.7157 -0.0665
  268MOL0     H36119   5.146   8.339   6.474  0.9306 -2.1111 -3.8198
  268MOL0     H36120   5.112   8.509   6.492 -2.0809 -0.5243  1.5862
  268MOL0     H36121   4.934   8.489   6.321 -2.7952 -0.4990 -0.5846
  268MOL0     H36122   4.943   8.316   6.329  2.0705  1.1472 -2.2572
  268MOL0     H36123   4.782   8.352   6.470  0.3720  1.3487 -4.7051
  268MOL0     H36124   4.925   8.344   6.578 -0.0569 -0.6253 -0.5717
  268MOL0     H36125   4.931   8.606   6.581 -0.3656  1.2075 -1.7071
  268MOL0     H36126   4.787   8.607   6.479 -1.8169 -1.0550 -0.2502
  268MOL0     H36127   4.791   8.457   6.753 -0.3647 -0.5074 -1.1996
  268MOL0     H36128   4.792   8.635   6.734 -0.0284 -0.1112  2.0507
  268MOL0     H36129   4.571   8.486   6.759 -0.2978  1.3170 -0.2545
  268MOL0     H36130   4.564   8.473   6.587 -1.9102  1.6728 -0.0364
  268MOL0     H36131   4.588   8.732   6.875 -0.1846 -2.8124  0.2059
  268MOL0     H36132   4.572   9.014   6.859 -1.0468  1.7475  0.1188
  268MOL0     H36133   4.460   9.078   6.739  1.3822  0.9201  0.7620
  268MOL0     H36134   4.367   9.071   6.978 -1.2219 -0.4160  1.9543
  268MOL0     H36135   4.372   8.900   6.978  1.1689  0.2175 -0.3828
  268MOL0     H36136   4.159   8.957   6.935  1.7028 -2.2055  0.8820
  268MOL0     H36137   4.228   8.875   6.796 -2.7266  1.7522 -3.5718
  268MOL0     H36138   4.064   9.041   6.741  0.3108 -0.9917 -0.5278
  268MOL0     H36139   4.224   9.065   6.661 -0.4124 -0.9992 -0.6944
  268MOL0     H36140   4.208   9.427   6.693  0.6639 -3.3181  0.5708
  268MOL0     H36141   4.054   9.715   6.631  1.8464  0.0582 -0.3213
  268MOL0     H36142   4.151   9.595   6.547  0.2276 -0.8897  0.0162
  268MOL0     H36143   3.989   9.613   6.501  1.6711 -4.5596 -0.8471
  268MOL0     H36144   3.603   9.830   6.850  0.1677  0.3258  1.0190
  268MOL0     H36145   3.402   9.951   6.818  2.4349  0.1484 -2.2025
  268MOL0     H36146   3.058   9.734   6.594  0.2124 -0.1427 -0.8025
  268MOL0     H36147   3.008   9.904   6.589  0.2591  0.8834 -2.5434
  268MOL0     H36148   3.176   9.944   6.415 -3.4547 -0.2106 -1.7973
  268MOL0     H36149   3.261   9.804   6.454  0.2075 -2.1024 -0.8588
  268MOL0     H36150   3.075   9.644   6.363  3.6729 -1.9619 -2.8603
  268MOL0     H36151   3.124   9.766   6.248  2.1632  3.5648  2.4497
  268MOL0     H36152   2.870   9.809   6.405  0.9392  0.1094 -0.2626
  268MOL0     H36153   2.949   9.931   6.318  3.9692  0.0709 -0.2267
  268MOL0     H36154   2.864   9.662   6.199 -0.8768 -0.8318 -1.1650
  268MOL0     H36155   2.949   9.792   6.111 -0.4559  1.5333  0.3770
  268MOL0     H36156   2.673   9.786   6.252  0.6234  2.1764  1.1324
  268MOL0     H36157   2.750   9.944   6.194 -2.7060  1.4400 -2.1004
  268MOL0     H36158   2.675   9.742   5.995 -3.8898 -1.1664  1.2393
  268MOL0     H36159   2.765   9.896   5.981  2.1846 -1.2015  0.9335
  268MOL0     H36160   2.544   9.943   5.925  0.3909 -1.2424 -0.5825
  268MOL0     H36161   2.577  10.020   6.081  0.5022  0.9360 -3.0663
  268MOL0     H36162   3.225   9.618   6.633 -0.5425 -0.7237  0.6732
  268MOL0     H36163   3.446   9.479   6.661  1.1746  0.5598  0.5225
  268MOL0     H36164   3.752   9.354   6.864 -0.0664 -3.2356 -1.1910
  268MOL0     H36165   3.921   9.175   6.871 -1.1797 -1.5409 -2.4040
  268MOL0     H36166   5.448   8.094   6.526 -0.1726 -0.7124 -0.3797
  268MOL0     H36167   5.656   8.043   6.645 -2.3295  0.0425 -0.2524
  268MOL0     H36168   6.123   8.282   6.684  2.2526  3.5730  1.3286
  268MOL0     H36169   6.357   8.263   6.763  0.5647 -2.0396  1.1484
  268MOL0     H36170   6.432   7.994   7.110 -2.3387  3.7886 -1.3199
  268MOL0     H36171   6.435   7.903   6.957 -1.4444  0.6226 -0.7059
  268MOL0     H36172   6.670   8.065   7.101  2.4025 -1.4777  0.2652
  268MOL0     H36173   6.677   7.975   6.949  0.5004  0.3970 -0.6982
  268MOL0     H36174   6.591   7.778   7.095 -1.7549  1.9210 -4.7695
  268MOL0     H36175   6.626   7.868   7.240 -1.5608  4.1378 -0.3703
  268MOL0     H36176   6.825   7.743   7.055 -3.4798  2.5703 -2.7262
  268MOL0     H36177   6.799   7.735   7.229  0.5409  0.6599  0.1543
  268MOL0     H36178   7.049   8.077   7.175 -0.5664 -0.4083 -4.6801
  268MOL0     H36179   6.221   7.983   7.060  0.0399  0.7838  0.1328
  268MOL0     H36180   6.003   8.015   6.986 -1.7437 -0.7023 -3.6984
  269MOL0     O36181   3.389   1.542   1.927 -0.1498  0.1441 -0.8914
  269MOL0     C36182   3.436   1.426   1.906  0.4680  0.3731 -0.2019
  269MOL0     O36183   3.363   1.322   1.853 -0.4026  0.1203 -0.1259
  269MOL0     C36184   3.246   1.352   1.796  0.7638  0.1697  0.0736
  269MOL0     C36185   3.231   1.343   1.656  0.1414  0.2082  0.4163
  269MOL0     C36186   3.102   1.359   1.597  0.9205 -0.6454 -0.6143
  269MOL0     C36187   2.991   1.381   1.675  0.5041 -0.1927 -1.0169
  269MOL0     O36188   2.865   1.402   1.619  0.5135 -0.2029 -0.0496
  269MOL0     C36189   2.819   1.321   1.502  0.0228 -0.3439 -0.2728
  269MOL0     C36190   2.665   1.354   1.506  0.5826  0.2885 -0.0692
  269MOL0     C36191   2.585   1.294   1.390 -0.8940 -0.0890  0.1788
  269MOL0     C36192   2.444   1.343   1.389  0.0809  0.1476 -0.7494
  269MOL0     C36193   2.370   1.266   1.279 -0.3582 -0.5773 -0.2700
  269MOL0     C36194   2.214   1.295   1.273  0.0530  0.1840 -0.0129
  269MOL0     C36195   2.131   1.223   1.168 -0.4073  0.1688 -0.2354
  269MOL0     C36196   1.985   1.279   1.171 -0.4708 -0.5982 -0.2534
  269MOL0     N36197   1.910   1.222   1.063  0.8510  0.3946 -0.1750
  269MOL0     C36198   1.945   1.225   0.924  0.6159  0.1641 -0.8188
  269MOL0     C36199   1.844   1.152   0.861 -0.5113  0.2463  0.3827
  269MOL0     C36200   1.839   1.106   0.715 -0.3551 -0.2535 -0.0819
  269MOL0     C36201   1.770   0.964   0.708 -0.4138  1.3327  0.2561
  269MOL0     C36202   1.825   0.861   0.807 -0.0064 -0.6793  0.1525
  269MOL0     C36203   1.974   0.865   0.797  0.7424  0.1069 -0.7756
  269MOL0     O36204   2.029   0.754   0.861 -0.8852 -0.2367 -0.0105
  269MOL0     C36205   2.156   0.773   0.905  0.3895  0.5787 -0.8065
  269MOL0     C36206   2.242   0.883   0.888 -0.2821 -0.2748  0.5303
  269MOL0     C36207   2.375   0.886   0.931 -0.3772  0.1102  0.0264
  269MOL0     C36208   2.454   1.012   0.899 -0.2855  0.8317 -0.3443
  269MOL0     C36209   2.421   0.769   0.993 -0.4164 -0.4130 -0.3924
  269MOL0     C36210   2.557   0.755   1.053 -0.5888 -0.9507 -0.5568
  269MOL0     O36211   2.627   0.638   1.034 -0.1345 -0.2370 -0.6810
  269MOL0     C36212   2.750   0.632   1.089  0.2573  0.1601 -0.4394
  269MOL0     C36213   2.857   0.659   1.001 -0.1650  0.1220  0.0123
  269MOL0     C36214   2.986   0.625   1.038 -0.2459 -0.5467 -0.4005
  269MOL0     C36215   3.016   0.582   1.168 -0.9299 -0.1721 -0.2968
  269MOL0     O36216   3.147   0.570   1.207  0.2329 -0.8666  0.0133
  269MOL0     C36217   3.189   0.594   1.347 -0.4023  0.1785  0.2674
  269MOL0     C36218   3.326   0.668   1.356  0.1286  0.0764  0.1864
  269MOL0     C36219   3.424   0.602   1.271  0.3860  0.1982 -0.6563
  269MOL0     C36220   3.573   0.655   1.282  0.5398 -0.4172  0.3962
  269MOL0     C36221   3.677   0.606   1.179  0.1945  0.3122 -0.5000
  269MOL0     C36222   3.820   0.650   1.223  0.2101 -0.5993 -0.0703
  269MOL0     C36223   3.924   0.595   1.121 -0.5168  0.0064  0.5066
  269MOL0     C36224   4.021   0.497   1.183  0.9172 -0.5418  0.2547
  269MOL0    Cl36225   4.128   0.582   1.306  0.3826 -0.2068 -0.1523
  269MOL0     C36226   2.908   0.566   1.254  0.3036  0.5823 -0.2824
  269MOL0     C36227   2.778   0.586   1.214 -0.6801  0.0101  0.2060
  269MOL0     O36228   2.609   0.850   1.111  0.0221  0.4464 -0.3379
  269MOL0     C36229   2.337   0.657   1.001 -0.7838 -0.6213 -0.1461
  269MOL0     C36230   2.207   0.659   0.969  0.5826 -0.6503  0.9955
  269MOL0     N36231   1.747   1.140   0.957  0.1930 -0.0764 -0.0122
  269MOL0     N36232   1.783   1.190   1.072  0.4230  0.9507 -0.3871
  269MOL0     C36233   3.006   1.393   1.816  0.3885 -0.2193  0.5608
  269MOL0     C36234   3.136   1.393   1.873  1.0322 -1.0017 -0.1481
  269MOL0     C36235   3.568   1.404   1.956 -0.4806 -0.1201 -0.1562
  269MOL0     C36236   3.604   1.272   1.992 -0.0620  0.2235  0.1991
  269MOL0     C36237   3.736   1.244   2.033  0.0801 -1.1313  0.5617
  269MOL0     C36238   3.826   1.355   2.041  0.1487  0.5907 -0.3011
  269MOL0     O36239   3.957   1.323   2.068 -0.7804  1.2240  0.1213
  269MOL0     C36240   3.995   1.281   2.208  0.1671  0.1141  0.1395
  269MOL0     C36241   4.148   1.297   2.223  1.2379  0.6624  0.5905
  269MOL0     C36242   4.194   1.262   2.362 -0.1074 -0.7724 -0.3906
  269MOL0     C36243   4.348   1.289   2.385 -0.1028 -0.1307 -0.1596
  269MOL0     C36244   4.429   1.192   2.311  0.2177  0.4038 -0.0561
  269MOL0     C36245   4.507   1.117   2.251  0.7084  0.1587  0.4763
  269MOL0     C36246   3.790   1.485   2.000 -0.4974 -0.6375 -0.2755
  269MOL0     C36247   3.662   1.513   1.961 -0.5098  1.0787  0.1000
  269MOL0     H36248   3.319   1.315   1.598  1.9927 -1.5131  3.7723
  269MOL0     H36249   3.090   1.359   1.489 -0.9816 -2.0272 -0.4615
  269MOL0     H36250   2.856   1.358   1.406  0.5371  0.8423  0.3574
  269MOL0     H36251   2.846   1.217   1.518  0.3336 -0.6339 -2.3663
  269MOL0     H36252   2.624   1.315   1.600  0.8274  1.0095  0.3475
  269MOL0     H36253   2.654   1.462   1.520  2.3318  0.4173  0.6917
  269MOL0     H36254   2.626   1.320   1.291  1.3483 -0.9046  0.8302
  269MOL0     H36255   2.609   1.187   1.395  1.8789  0.5276  1.7756
  269MOL0     H36256   2.401   1.321   1.488  0.1752  1.8204 -0.3022
  269MOL0     H36257   2.439   1.452   1.377  0.5014  0.4802  1.6001
  269MOL0     H36258   2.411   1.303   1.184 -0.8418  0.5700 -0.0488
  269MOL0     H36259   2.384   1.158   1.293  2.4539 -0.0431  1.8688
  269MOL0     H36260   2.174   1.252   1.365 -3.8458  0.4695 -1.4052
  269MOL0     H36261   2.204   1.404   1.261  0.3579  0.5269  2.3999
  269MOL0     H36262   2.170   1.230   1.066 -1.1177  0.0588 -0.5213
  269MOL0     H36263   2.128   1.119   1.200  1.0102  0.1356 -0.1408
  269MOL0     H36264   1.985   1.388   1.169  2.1459 -0.5404 -1.4956
  269MOL0     H36265   1.943   1.249   1.268 -0.6886  0.9447  0.1604
  269MOL0     H36266   2.035   1.258   0.873  0.8808 -1.5398 -1.5435
  269MOL0     H36267   1.766   1.165   0.658 -0.4572 -0.9883 -0.7246
  269MOL0     H36268   1.935   1.116   0.663 -2.1343 -1.5882 -3.9725
  269MOL0     H36269   1.767   0.923   0.607  0.9232  1.2093  0.2383
  269MOL0     H36270   1.665   0.975   0.734 -0.3061 -0.2112  1.5356
  269MOL0     H36271   1.781   0.763   0.791  0.9944 -1.6309  2.7010
  269MOL0     H36272   1.785   0.883   0.906 -0.5143 -0.4980 -0.0891
  269MOL0     H36273   1.996   0.959   0.848  0.6389  0.2178 -0.9346
  269MOL0     H36274   2.011   0.868   0.694 -1.5250  0.4466 -1.6365
  269MOL0     H36275   2.202   0.972   0.840 -2.7082 -2.4799 -1.9623
  269MOL0     H36276   2.557   0.976   0.890 -0.3393  0.2087  1.2128
  269MOL0     H36277   2.410   1.050   0.807 -2.0892 -1.1866 -0.3976
  269MOL0     H36278   2.459   1.075   0.988  1.0923  1.7878 -1.0622
  269MOL0     H36279   2.828   0.694   0.903 -0.5675  0.3376  0.2044
  269MOL0     H36280   3.069   0.649   0.972 -0.5791 -1.3117 -1.1211
  269MOL0     H36281   3.118   0.659   1.399 -2.1637 -2.9122  2.0183
  269MOL0     H36282   3.189   0.505   1.410 -0.5963  0.8455  1.2349
  269MOL0     H36283   3.295   0.768   1.324  1.3535  0.0698 -1.0866
  269MOL0     H36284   3.366   0.682   1.457  1.1068 -2.6841  0.2674
  269MOL0     H36285   3.381   0.595   1.171 -0.1901  0.1175 -0.4045
  269MOL0     H36286   3.419   0.494   1.292  0.4081  0.4256  0.6248
  269MOL0     H36287   3.578   0.764   1.272 -0.5266 -0.2664  1.3582
  269MOL0     H36288   3.613   0.638   1.382 -0.1729  0.6355  0.8773
  269MOL0     H36289   3.653   0.647   1.080 -2.5443  2.7150  1.0032
  269MOL0     H36290   3.682   0.497   1.178 -0.3406  0.1997  2.4298
  269MOL0     H36291   3.831   0.756   1.247  1.4728  0.0562 -3.0312
  269MOL0     H36292   3.835   0.593   1.315  2.3575  0.2134  0.1488
  269MOL0     H36293   3.983   0.673   1.071  0.4724  0.5226  2.3838
  269MOL0     H36294   3.882   0.539   1.037  3.3879  0.0172 -1.7081
  269MOL0     H36295   4.068   0.443   1.100  1.6913  0.1861  0.2043
  269MOL0     H36296   3.964   0.425   1.242  1.4552  0.3708  1.9541
  269MOL0     H36297   2.916   0.522   1.352 -0.9884 -0.6501 -0.6882
  269MOL0     H36298   2.700   0.558   1.284  1.0773 -2.6468  1.2646
  269MOL0     H36299   2.375   0.567   1.047  1.4778  0.9751  1.3186
  269MOL0     H36300   2.140   0.578   0.995 -2.1182  1.6372  1.5794
  269MOL0     H36301   2.913   1.391   1.871 -0.9704  1.2112 -1.5776
  269MOL0     H36302   3.144   1.414   1.979 -0.1034 -1.8166  0.1211
  269MOL0     H36303   3.540   1.188   1.968  0.9068 -0.7823  1.0276
  269MOL0     H36304   3.769   1.144   2.059 -1.6361 -1.1775  2.9099
  269MOL0     H36305   3.941   1.342   2.280 -1.8111  0.0165 -1.1780
  269MOL0     H36306   3.967   1.176   2.226  0.7379  0.1145  1.1208
  269MOL0     H36307   4.181   1.401   2.212 -1.5943  1.6894  0.8672
  269MOL0     H36308   4.206   1.241   2.149  2.4367  0.5039  1.6092
  269MOL0     H36309   4.172   1.156   2.381 -1.8772 -0.5775 -1.1304
  269MOL0     H36310   4.139   1.326   2.431  0.1941  1.1584 -1.8684
  269MOL0     H36311   4.365   1.284   2.493  1.2821  0.2038 -0.3349
  269MOL0     H36312   4.372   1.392   2.356 -1.0637  0.1404 -0.0184
  269MOL0     H36313   4.582   1.059   2.203  1.3505  2.1411 -1.0622
  269MOL0     H36314   3.862   1.565   2.001 -1.8828  0.6706  1.7092
  269MOL0     H36315   3.634   1.614   1.933 -2.5850  0.8213  1.0757
  270MOL0     O36316   7.848   2.070   0.302 -0.1720 -0.1252  0.0437
  270MOL0     C36317   7.824   2.057   0.183  0.4430  0.5736  0.0398
  270MOL0     O36318   7.700   2.069   0.124  0.6379 -0.0953 -0.1393
  270MOL0     C36319   7.594   2.089   0.204  0.2205  0.4129  0.3296
  270MOL0     C36320   7.589   2.200   0.288 -0.4263  0.5211 -0.2413
  270MOL0     C36321   7.479   2.232   0.362  0.5650  0.3544 -0.9630
  270MOL0     C36322   7.373   2.150   0.358  1.3656 -0.6628 -0.0496
  270MOL0     O36323   7.277   2.169   0.447 -0.5545  0.3376 -0.1399
  270MOL0     C36324   7.158   2.225   0.396  0.5313  0.0571  0.8354
  270MOL0     C36325   7.061   2.250   0.515  0.5637 -0.2006  0.0646
  270MOL0     C36326   6.945   2.341   0.494  0.0583  0.0473 -0.5154
  270MOL0     C36327   6.988   2.485   0.499 -0.6856 -0.3595 -0.8009
  270MOL0     C36328   6.890   2.584   0.436  0.1764 -0.9386  1.2129
  270MOL0     C36329   6.752   2.590   0.507 -0.2109  0.1614  0.4892
  270MOL0     C36330   6.665   2.703   0.438 -0.2793  0.2974 -0.2991
  270MOL0     C36331   6.527   2.705   0.496 -0.3478 -0.3355 -0.6518
  270MOL0     N36332   6.446   2.804   0.418 -0.2359 -0.0368 -0.1766
  270MOL0     C36333   6.347   2.776   0.336  0.0441 -0.8751  0.6474
  270MOL0     C36334   6.290   2.890   0.303 -0.0678 -0.6007 -0.2589
  270MOL0     C36335   6.187   2.889   0.191 -0.3733 -0.4130 -0.9417
  270MOL0     C36336   6.227   2.939   0.051  0.5433  0.6425  0.7325
  270MOL0     C36337   6.226   3.091   0.027  0.2667  0.3737 -0.0040
  270MOL0     C36338   6.090   3.167   0.032 -0.2269  0.5056 -0.1573
  270MOL0     O36339   6.125   3.308   0.003  0.3219 -0.5934 -0.6411
  270MOL0     C36340   6.014   3.387  -0.035 -0.5072 -0.1945  0.7304
  270MOL0     C36341   5.882   3.357  -0.009  0.2428  0.2476  0.3857
  270MOL0     C36342   5.773   3.437  -0.030  0.2814  0.5240  0.2542
  270MOL0     C36343   5.639   3.390   0.007  0.2215  0.4524  0.3409
  270MOL0     C36344   5.794   3.558  -0.102  0.5030 -0.6037 -0.0541
  270MOL0     C36345   5.688   3.659  -0.131 -0.2721 -0.4565 -0.8657
  270MOL0     O36346   5.729   3.783  -0.175 -0.1658 -0.2877  0.1504
  270MOL0     C36347   5.647   3.887  -0.213  0.2013 -0.0336  0.7508
  270MOL0     C36348   5.672   3.947  -0.337 -0.2475 -0.0148  0.5764
  270MOL0     C36349   5.602   4.065  -0.375 -0.0761 -0.5857 -0.2527
  270MOL0     C36350   5.513   4.123  -0.283 -0.2234 -0.4535  0.3614
  270MOL0     O36351   5.452   4.237  -0.328 -0.9264 -0.4909  0.3347
  270MOL0     C36352   5.357   4.292  -0.245  0.0428  0.3115  0.8590
  270MOL0     C36353   5.309   4.428  -0.295  0.5048  0.0430 -0.3838
  270MOL0     C36354   5.197   4.489  -0.200 -1.5324 -0.2636 -0.1661
  270MOL0     C36355   5.067   4.526  -0.270  0.6084 -0.5799 -0.3091
  270MOL0     C36356   5.090   4.643  -0.361 -0.2884 -0.7130 -0.3717
  270MOL0     C36357   5.095   4.777  -0.286 -0.1649  0.5462  0.0665
  270MOL0     C36358   5.123   4.895  -0.381 -0.5400  0.3999 -0.2499
  270MOL0     C36359   5.126   5.036  -0.318 -0.0675 -0.3063  1.1086
  270MOL0    Cl36360   5.292   5.072  -0.268  0.1705 -0.5752 -0.3198
  270MOL0     C36361   5.488   4.060  -0.157 -0.1450  0.1360  0.5447
  270MOL0     C36362   5.559   3.945  -0.124 -0.3689  0.5615  0.4386
  270MOL0     O36363   5.568   3.632  -0.104  0.1277  0.1533 -0.2681
  270MOL0     C36364   5.938   3.588  -0.120  1.0439  0.3737  0.2215
  270MOL0     C36365   6.042   3.511  -0.090  0.5451  0.8038  0.0821
  270MOL0     N36366   6.346   2.990   0.384 -0.1930 -0.1078  0.4703
  270MOL0     N36367   6.445   2.937   0.444 -0.1076 -0.0657 -0.3706
  270MOL0     C36368   7.372   2.037   0.269 -1.2107  0.0194 -0.2512
  270MOL0     C36369   7.479   2.009   0.186  0.1193 -0.0126 -1.0879
  270MOL0     C36370   7.928   2.038   0.086 -0.1221  0.0996  0.2001
  270MOL0     C36371   7.897   2.053  -0.056  0.1440  0.6084 -0.1128
  270MOL0     C36372   7.996   2.028  -0.151  0.0807 -1.0788 -0.0962
  270MOL0     C36373   8.128   2.011  -0.114  0.3250 -0.0628  0.4513
  270MOL0     O36374   8.221   2.020  -0.215 -0.1115 -0.7943  0.1449
  270MOL0     C36375   8.348   2.061  -0.181  0.5674 -0.3820 -0.2452
  270MOL0     C36376   8.370   2.166  -0.291 -0.0915  0.0084  0.2505
  270MOL0     C36377   8.509   2.233  -0.277  0.4259  0.0528  0.0291
  270MOL0     C36378   8.615   2.135  -0.325  1.0418 -0.4079  0.0575
  270MOL0     C36379   8.736   2.215  -0.345  0.8387  0.7639  0.2696
  270MOL0     C36380   8.830   2.298  -0.341 -0.1680  1.1707  0.8903
  270MOL0     C36381   8.159   2.000   0.023 -0.4779  0.1124  0.1302
  270MOL0     C36382   8.059   1.994   0.120 -0.6723 -0.9110  0.8178
  270MOL0     H36383   7.671   2.272   0.292  1.1217 -1.1881  3.4230
  270MOL0     H36384   7.479   2.317   0.430  2.5927  0.2363 -0.7662
  270MOL0     H36385   7.194   2.317   0.348  0.2675  0.8022  2.0284
  270MOL0     H36386   7.106   2.157   0.329  1.1872 -0.2133  0.5890
  270MOL0     H36387   7.020   2.153   0.545  0.9219 -0.7956 -1.2972
  270MOL0     H36388   7.114   2.289   0.602 -3.4375  1.1483  2.1416
  270MOL0     H36389   6.896   2.321   0.398  1.2748  3.1650 -1.9421
  270MOL0     H36390   6.861   2.328   0.562 -0.0508  1.5252 -0.3453
  270MOL0     H36391   6.997   2.497   0.608  1.2418 -0.2833 -0.9393
  270MOL0     H36392   7.084   2.496   0.447 -0.2172 -0.4008  0.0273
  270MOL0     H36393   6.923   2.688   0.438 -1.4074 -0.3892 -0.0099
  270MOL0     H36394   6.887   2.555   0.331  2.2851  1.9172  0.2156
  270MOL0     H36395   6.701   2.493   0.506  0.5526 -0.2454 -0.6063
  270MOL0     H36396   6.765   2.615   0.613  2.1078  1.2551  0.0284
  270MOL0     H36397   6.711   2.802   0.451  0.7264 -0.2469  0.4221
  270MOL0     H36398   6.669   2.686   0.330 -1.1399  2.3813 -0.7174
  270MOL0     H36399   6.530   2.721   0.604 -1.5390 -0.7927 -0.5327
  270MOL0     H36400   6.490   2.603   0.488 -1.6645 -0.0581  1.1057
  270MOL0     H36401   6.315   2.681   0.295  0.1928  0.3055 -2.4043
  270MOL0     H36402   6.156   2.785   0.174 -0.4627 -0.9088  1.8259
  270MOL0     H36403   6.103   2.950   0.223 -1.4490 -1.8089 -1.0012
  270MOL0     H36404   6.160   2.897  -0.024  2.6366  1.2946 -1.6329
  270MOL0     H36405   6.329   2.903   0.031  0.2336 -0.1033  0.4523
  270MOL0     H36406   6.279   3.115  -0.066  0.9396  1.1723  0.5616
  270MOL0     H36407   6.283   3.126   0.115 -1.2526  0.9330  0.7992
  270MOL0     H36408   6.039   3.154   0.128 -1.3093  0.1886 -0.7497
  270MOL0     H36409   6.031   3.120  -0.048  1.4218 -0.5543 -0.8090
  270MOL0     H36410   5.864   3.267   0.049  1.0664  0.0315  0.3265
  270MOL0     H36411   5.639   3.286   0.044  0.9871  0.9447  1.8363
  270MOL0     H36412   5.596   3.452   0.086 -1.9862 -0.4876 -0.0454
  270MOL0     H36413   5.582   3.390  -0.086  1.8758 -3.2408 -0.8882
  270MOL0     H36414   5.753   3.915  -0.402 -2.9478 -2.3150 -1.8866
  270MOL0     H36415   5.628   4.123  -0.462  0.7973  2.9544  2.1335
  270MOL0     H36416   5.273   4.222  -0.243 -0.0707  0.4646  2.4818
  270MOL0     H36417   5.384   4.314  -0.142 -1.2222  1.3742  0.9875
  270MOL0     H36418   5.395   4.497  -0.289  0.4866 -0.0040  0.6796
  270MOL0     H36419   5.273   4.426  -0.398 -2.3062  2.1798  0.4349
  270MOL0     H36420   5.232   4.580  -0.149 -0.3748  0.3445 -1.9389
  270MOL0     H36421   5.188   4.411  -0.125  0.2127  0.0746  0.4635
  270MOL0     H36422   5.035   4.439  -0.328  0.7951 -1.5668  1.0282
  270MOL0     H36423   4.986   4.546  -0.199  0.8697 -3.1630  0.8114
  270MOL0     H36424   5.015   4.647  -0.441 -0.6783  3.6235 -0.0466
  270MOL0     H36425   5.187   4.640  -0.411 -0.1179  0.6676 -0.1633
  270MOL0     H36426   4.999   4.793  -0.236 -0.3939  0.6794 -0.4025
  270MOL0     H36427   5.174   4.776  -0.210  2.0920 -3.6096 -1.9708
  270MOL0     H36428   5.047   4.888  -0.459 -0.6538  0.2844 -0.1285
  270MOL0     H36429   5.222   4.883  -0.427 -0.2934  0.8264  0.1631
  270MOL0     H36430   5.086   5.112  -0.386 -2.0387 -1.4608  0.8912
  270MOL0     H36431   5.060   5.042  -0.231 -3.3629  3.0474 -1.2709
  270MOL0     H36432   5.418   4.102  -0.085 -0.4678  0.3818  0.0942
  270MOL0     H36433   5.537   3.902  -0.026  0.4122 -0.8500  0.0279
  270MOL0     H36434   5.963   3.681  -0.170  0.2304 -0.1627 -1.2475
  270MOL0     H36435   6.142   3.549  -0.111  0.2928  0.7561 -1.2770
  270MOL0     H36436   7.300   1.957   0.279  0.6308 -1.8887 -1.4876
  270MOL0     H36437   7.486   1.918   0.127  1.6405 -0.5936 -0.0728
  270MOL0     H36438   7.797   2.074  -0.094 -0.5502 -0.4176  1.0718
  270MOL0     H36439   7.975   2.030  -0.257  2.1881 -1.5066 -0.5732
  270MOL0     H36440   8.353   2.095  -0.077 -2.5011 -0.7971  0.1101
  270MOL0     H36441   8.415   1.975  -0.185  0.2238 -0.8106  1.8468
  270MOL0     H36442   8.292   2.241  -0.276  0.8291  0.7962  1.1832
  270MOL0     H36443   8.367   2.114  -0.387 -0.6956  1.5669 -0.6188
  270MOL0     H36444   8.539   2.240  -0.172  3.9271  1.0166 -0.9110
  270MOL0     H36445   8.513   2.331  -0.324  0.6746  0.3834  0.7255
  270MOL0     H36446   8.583   2.083  -0.416 -0.8875  2.9263 -1.3720
  270MOL0     H36447   8.627   2.054  -0.253  0.3015 -0.4372  0.1469
  270MOL0     H36448   8.900   2.379  -0.343 -0.0828  1.0861 -0.2237
  270MOL0     H36449   8.261   1.986   0.056  0.0225  0.3979 -1.2365
  270MOL0     H36450   8.088   1.973   0.222 -1.8646 -1.4369  1.0641
  271MOL0     O36451   9.454   5.303   2.745 -0.2566 -0.4038  0.2486
  271MOL0     C36452   9.485   5.350   2.856  0.7896 -0.0688  0.3245
  271MOL0     O36453   9.398   5.408   2.954  0.0509  0.4039  0.4556
  271MOL0     C36454   9.265   5.418   2.927  0.2791  0.5108 -0.0271
  271MOL0     C36455   9.213   5.523   2.850 -0.0512  0.4154 -0.4419
  271MOL0     C36456   9.077   5.537   2.833  0.3486  0.9883  0.3815
  271MOL0     C36457   8.988   5.441   2.895  0.2025 -0.2654 -0.0502
  271MOL0     O36458   8.854   5.452   2.899  0.2320  0.1772 -0.6226
  271MOL0     C36459   8.772   5.495   2.785 -0.7039 -0.7431 -0.4880
  271MOL0     C36460   8.707   5.621   2.828  0.5657 -0.6518  0.2093
  271MOL0     C36461   8.586   5.666   2.747 -0.3893 -0.5520  0.1568
  271MOL0     C36462   8.464   5.566   2.727 -0.2668  0.8233  0.1125
  271MOL0     C36463   8.349   5.634   2.662 -0.1147 -0.3467 -0.4713
  271MOL0     C36464   8.269   5.737   2.742 -0.3306 -0.8051 -0.4084
  271MOL0     C36465   8.142   5.777   2.673  0.2617 -0.0864  0.5722
  271MOL0     C36466   8.062   5.879   2.753 -0.1016 -0.3525 -0.4146
  271MOL0     N36467   7.938   5.932   2.693 -0.2386 -0.2944 -0.0840
  271MOL0     C36468   7.868   5.866   2.595 -0.1778  0.4079  0.6146
  271MOL0     C36469   7.761   5.941   2.579 -0.2403 -0.7025 -0.5199
  271MOL0     C36470   7.647   5.930   2.478 -0.1180 -0.6435 -0.5157
  271MOL0     C36471   7.615   5.790   2.430  0.4545  0.1670  1.1884
  271MOL0     C36472   7.498   5.778   2.333 -0.3808  1.2318  0.1565
  271MOL0     C36473   7.360   5.820   2.397 -0.6503  0.8497 -0.0918
  271MOL0     O36474   7.343   5.964   2.408 -0.4780 -0.0148 -0.0875
  271MOL0     C36475   7.217   6.009   2.455 -0.0001  0.4485 -0.4586
  271MOL0     C36476   7.125   5.929   2.529 -0.1967  0.7662 -0.5055
  271MOL0     C36477   7.002   5.983   2.573  0.1280  0.0529 -1.5137
  271MOL0     C36478   6.897   5.880   2.622  0.1014 -0.1959  0.7983
  271MOL0     C36479   6.971   6.127   2.559 -0.8229  0.1181 -0.1178
  271MOL0     C36480   6.849   6.198   2.595 -0.3373 -0.3723  0.3597
  271MOL0     O36481   6.819   6.316   2.538  0.6578 -0.2932  0.6566
  271MOL0     C36482   6.694   6.376   2.573 -0.5022  0.3844  0.1172
  271MOL0     C36483   6.608   6.416   2.467 -0.3198  1.4260 -0.0699
  271MOL0     C36484   6.485   6.462   2.498 -0.5671 -0.1683  0.4627
  271MOL0     C36485   6.436   6.463   2.633 -0.5902  0.1469 -0.2472
  271MOL0     O36486   6.311   6.496   2.662 -0.0732 -0.6661 -0.5054
  271MOL0     C36487   6.219   6.463   2.563  0.1472 -0.2252  0.7460
  271MOL0     C36488   6.075   6.506   2.610 -0.8393 -0.7529 -0.2528
  271MOL0     C36489   5.971   6.472   2.506  0.1401  0.5019 -0.7854
  271MOL0     C36490   5.835   6.504   2.554  0.1842 -0.1660  0.4241
  271MOL0     C36491   5.735   6.462   2.449 -0.0460  0.2213 -0.1665
  271MOL0     C36492   5.597   6.468   2.509  0.2162  0.1843  0.0395
  271MOL0     C36493   5.487   6.422   2.416 -0.5885  0.0406 -0.1282
  271MOL0     C36494   5.358   6.361   2.489 -0.0483  0.0397  0.7887
  271MOL0    Cl36495   5.223   6.338   2.379 -0.2430 -0.4248  0.6025
  271MOL0     C36496   6.517   6.427   2.740 -0.0849  0.2275  0.7088
  271MOL0     C36497   6.650   6.388   2.707  0.1953  0.5842 -0.7018
  271MOL0     O36498   6.787   6.146   2.686 -0.3954 -0.2483  0.1577
  271MOL0     C36499   7.064   6.201   2.492  0.0445  0.1557  0.2012
  271MOL0     C36500   7.178   6.147   2.435 -0.2847  0.8070  0.7205
  271MOL0     N36501   7.759   6.036   2.676  0.2669 -0.1001 -0.8018
  271MOL0     N36502   7.868   6.031   2.747  0.6699  0.4365 -0.1755
  271MOL0     C36503   9.047   5.341   2.975 -0.3301  0.2178 -0.7984
  271MOL0     C36504   9.181   5.325   2.995  0.1890 -0.2841  0.3329
  271MOL0     C36505   9.626   5.355   2.889  0.0359  0.6072 -1.7548
  271MOL0     C36506   9.733   5.370   2.795  0.1346  0.0059 -0.1031
  271MOL0     C36507   9.866   5.395   2.841  0.2420  0.9206  0.3798
  271MOL0     C36508   9.896   5.380   2.976 -0.6700 -0.7647  0.2775
  271MOL0     O36509  10.038   5.387   2.995  0.8070  0.0513 -0.1494
  271MOL0     C36510  10.088   5.382   3.130  0.3501  0.8072 -0.6323
  271MOL0     C36511  10.235   5.350   3.147  0.3207 -0.4043  0.3522
  271MOL0     C36512  10.291   5.386   3.291  0.1814 -0.6596  0.2372
  271MOL0     C36513  10.279   5.277   3.399 -0.5054  0.3487 -0.4299
  271MOL0     C36514  10.368   5.159   3.376  0.6951 -0.0021 -0.6024
  271MOL0     C36515  10.432   5.055   3.351 -0.6620  0.1777  0.0389
  271MOL0     C36516   9.793   5.350   3.068 -0.1836  0.0918 -0.5085
  271MOL0     C36517   9.660   5.338   3.023  0.4936 -0.1590 -0.6792
  271MOL0     H36518   9.287   5.598   2.825  0.4804  1.3517  3.4177
  271MOL0     H36519   9.035   5.613   2.767 -0.2931 -2.6636 -3.8702
  271MOL0     H36520   8.837   5.505   2.697  1.9892  0.6685  1.5078
  271MOL0     H36521   8.701   5.414   2.770  2.7758 -3.9747 -1.0991
  271MOL0     H36522   8.682   5.622   2.934  1.5137  0.1699  0.4401
  271MOL0     H36523   8.780   5.701   2.811  0.7010 -1.2660 -2.7387
  271MOL0     H36524   8.545   5.750   2.804 -2.0372 -1.7462  0.8010
  271MOL0     H36525   8.614   5.706   2.650 -4.2353 -1.6308 -1.5598
  271MOL0     H36526   8.486   5.484   2.658  0.3102  1.1923 -0.1528
  271MOL0     H36527   8.435   5.516   2.820 -2.3863  2.2093  0.2435
  271MOL0     H36528   8.390   5.681   2.572 -0.6817 -0.4797 -0.8093
  271MOL0     H36529   8.288   5.549   2.629 -3.0529 -0.4403  4.3094
  271MOL0     H36530   8.235   5.689   2.834 -0.0713 -3.3821 -1.5672
  271MOL0     H36531   8.329   5.824   2.772 -1.4835  0.5692 -1.8950
  271MOL0     H36532   8.166   5.821   2.575 -0.9124  2.2875  1.2860
  271MOL0     H36533   8.076   5.693   2.653 -0.4977  0.6231  0.0116
  271MOL0     H36534   8.125   5.968   2.769 -2.4415  1.3370 -0.0061
  271MOL0     H36535   8.043   5.837   2.852  0.1349  1.7956  0.6030
  271MOL0     H36536   7.898   5.774   2.546  0.1588 -0.2971  2.0739
  271MOL0     H36537   7.560   5.968   2.533  1.2739  2.2934 -0.1951
  271MOL0     H36538   7.665   5.999   2.396 -0.8653 -0.7422 -0.7724
  271MOL0     H36539   7.594   5.725   2.515  2.1308 -1.8153  0.1657
  271MOL0     H36540   7.700   5.758   2.369  0.8841 -0.7277  2.2363
  271MOL0     H36541   7.487   5.673   2.307  2.1568  1.1315 -0.7732
  271MOL0     H36542   7.511   5.839   2.244 -2.2752  1.7219  0.1630
  271MOL0     H36543   7.351   5.762   2.489 -0.2568 -0.8812 -1.1160
  271MOL0     H36544   7.286   5.779   2.328 -0.7313  1.6811 -0.5123
  271MOL0     H36545   7.131   5.823   2.551 -1.2714  0.5596 -1.1264
  271MOL0     H36546   6.909   5.776   2.590 -1.4921  0.3082 -1.8440
  271MOL0     H36547   6.897   5.889   2.731  0.4603  0.2067  0.7682
  271MOL0     H36548   6.804   5.904   2.569  1.4410  0.7538 -1.2595
  271MOL0     H36549   6.646   6.422   2.365 -2.1860  3.5582 -0.7221
  271MOL0     H36550   6.434   6.512   2.417  0.3283  1.2053  0.7178
  271MOL0     H36551   6.233   6.493   2.459  0.6704  0.0893  0.9056
  271MOL0     H36552   6.221   6.354   2.554 -0.7135 -0.1053 -2.3216
  271MOL0     H36553   6.058   6.458   2.707  0.4252  3.0607  2.0473
  271MOL0     H36554   6.084   6.613   2.631  2.3531 -0.9515 -0.0972
  271MOL0     H36555   5.974   6.364   2.492 -0.3260 -0.0971  2.8002
  271MOL0     H36556   5.991   6.530   2.415  2.8841  0.6379 -0.1873
  271MOL0     H36557   5.824   6.453   2.650  1.0004  0.2273  0.7388
  271MOL0     H36558   5.827   6.611   2.578 -1.5428 -0.4036  1.0542
  271MOL0     H36559   5.754   6.358   2.421  1.9749  0.0866  1.4423
  271MOL0     H36560   5.738   6.517   2.355  0.4614 -3.1742 -2.3338
  271MOL0     H36561   5.597   6.402   2.597  0.9566 -0.2123 -0.2496
  271MOL0     H36562   5.569   6.571   2.534  1.0844  0.6159 -0.7537
  271MOL0     H36563   5.523   6.347   2.345 -1.5882 -2.1555  1.5455
  271MOL0     H36564   5.460   6.513   2.362 -1.1919 -0.4152 -0.6186
  271MOL0     H36565   5.322   6.429   2.566 -0.6284  0.8690 -0.1866
  271MOL0     H36566   5.390   6.263   2.525  0.3152 -0.2177 -0.1902
  271MOL0     H36567   6.478   6.437   2.841  0.3828 -2.7051  1.2595
  271MOL0     H36568   6.711   6.361   2.793  1.2868  0.6306 -1.4418
  271MOL0     H36569   7.053   6.306   2.469  2.0559  0.9825  2.5405
  271MOL0     H36570   7.241   6.214   2.377 -0.5447 -0.2724 -0.8877
  271MOL0     H36571   8.976   5.287   3.038  0.8512 -0.4013  0.0418
  271MOL0     H36572   9.225   5.251   3.061 -0.5312  0.5112  1.7476
  271MOL0     H36573   9.700   5.388   2.693 -0.6332  0.2193  0.1751
  271MOL0     H36574   9.950   5.425   2.779 -0.0322  1.5493  0.3119
  271MOL0     H36575  10.062   5.477   3.178 -1.4625  0.3146 -0.5320
  271MOL0     H36576  10.039   5.300   3.183  1.1052  0.2528 -0.7738
  271MOL0     H36577  10.291   5.420   3.084 -0.2506  0.1284  0.4270
  271MOL0     H36578  10.248   5.248   3.111  1.3332 -1.4622  3.3916
  271MOL0     H36579  10.242   5.478   3.325 -0.4955  0.3394 -3.0734
  271MOL0     H36580  10.397   5.412   3.280  0.5773 -1.3386  1.9929
  271MOL0     H36581  10.178   5.239   3.414  0.0361 -1.4630 -1.0703
  271MOL0     H36582  10.305   5.329   3.491 -0.9121  1.1047 -0.7392
  271MOL0     H36583  10.494   4.971   3.327 -0.4581 -0.0630  1.3496
  271MOL0     H36584   9.816   5.347   3.174 -0.7679 -1.5656 -0.3925
  271MOL0     H36585   9.573   5.334   3.088  0.0896 -0.0783 -1.2054
  272MOL0     O36586  10.644   3.612   1.853 -0.4724  0.1195  0.2025
  272MOL0     C36587  10.627   3.709   1.787  0.0598 -0.3964  0.3374
  272MOL0     O36588  10.509   3.779   1.777 -0.2183 -0.4419  0.4671
  272MOL0     C36589  10.391   3.732   1.819 -0.0290 -0.0400  0.6865
  272MOL0     C36590  10.302   3.826   1.866 -0.3435 -0.5340 -0.2434
  272MOL0     C36591  10.176   3.796   1.913  0.9460  0.1887 -1.0862
  272MOL0     C36592  10.134   3.662   1.918  0.2313 -0.2615 -0.1209
  272MOL0     O36593  10.007   3.637   1.960  0.0741  0.0042  0.0619
  272MOL0     C36594   9.942   3.512   1.931 -0.0351  0.1468 -0.3852
  272MOL0     C36595   9.809   3.519   2.007 -0.0746 -0.5706  0.6806
  272MOL0     C36596   9.709   3.629   1.957 -0.2450  0.4835 -0.4979
  272MOL0     C36597   9.569   3.613   2.022  0.3727 -0.2386  0.1714
  272MOL0     C36598   9.494   3.738   2.010 -0.5036  0.5491 -0.2236
  272MOL0     C36599   9.445   3.757   1.865  0.3126 -0.2698 -1.0402
  272MOL0     C36600   9.354   3.877   1.854  0.5549  0.6315  0.5057
  272MOL0     C36601   9.226   3.868   1.930  0.4187  0.0812 -0.2364
  272MOL0     N36602   9.144   3.980   1.888 -0.5426  0.0249 -0.6071
  272MOL0     C36603   9.063   4.003   1.782 -0.0373  0.1212  0.3870
  272MOL0     C36604   9.009   4.126   1.789  0.3501 -0.1227 -0.4260
  272MOL0     C36605   8.930   4.173   1.675 -0.3474 -0.5371 -0.4756
  272MOL0     C36606   8.779   4.127   1.683  0.3084 -0.4214 -0.6254
  272MOL0     C36607   8.696   4.168   1.559  0.0782  0.2331  0.7065
  272MOL0     C36608   8.551   4.154   1.594  0.5337  0.2062 -0.4724
  272MOL0     O36609   8.457   4.176   1.486 -0.1740  0.1893 -0.0836
  272MOL0     C36610   8.322   4.153   1.504 -0.7637  0.6374  0.1710
  272MOL0     C36611   8.274   4.113   1.627 -0.6638  0.4008  0.9131
  272MOL0     C36612   8.135   4.099   1.649  0.2258  0.1362 -0.4359
  272MOL0     C36613   8.103   4.064   1.795  0.4541  0.2368  0.5143
  272MOL0     C36614   8.044   4.115   1.540 -0.3561  0.4746  1.3746
  272MOL0     C36615   7.894   4.097   1.548 -0.2816 -0.6089 -0.2628
  272MOL0     O36616   7.837   4.114   1.676  0.0405 -0.0711  0.1562
  272MOL0     C36617   7.715   4.059   1.707 -0.8530 -0.3734 -0.6747
  272MOL0     C36618   7.679   4.101   1.836  0.3004  0.2174 -0.6823
  272MOL0     C36619   7.565   4.057   1.898 -0.5087  0.7510 -0.7412
  272MOL0     C36620   7.481   3.969   1.830  0.5641  0.0050  0.1431
  272MOL0     O36621   7.369   3.924   1.883  0.5543  0.0113 -0.5176
  272MOL0     C36622   7.282   4.031   1.923 -0.6666 -0.4791 -0.4100
  272MOL0     C36623   7.244   4.001   2.069 -0.2819 -0.4690  0.7829
  272MOL0     C36624   7.141   4.097   2.116 -0.1256 -0.6493 -0.4326
  272MOL0     C36625   7.116   4.078   2.266 -0.7215  0.4681  0.1690
  272MOL0     C36626   7.003   4.167   2.312 -0.2315  1.0480  0.0799
  272MOL0     C36627   6.873   4.093   2.290  0.4710 -0.0526  0.2536
  272MOL0     C36628   6.758   4.147   2.372  0.5028  0.6948 -0.3588
  272MOL0     C36629   6.619   4.093   2.335 -0.2877 -0.2569  0.5940
  272MOL0    Cl36630   6.620   3.917   2.389 -0.0315  0.0273 -0.4362
  272MOL0     C36631   7.523   3.917   1.702  0.9745 -0.5629  0.0070
  272MOL0     C36632   7.634   3.965   1.641  0.0240  0.1876  0.0635
  272MOL0     O36633   7.837   4.055   1.443 -0.1248 -0.4346  0.0784
  272MOL0     C36634   8.096   4.149   1.410 -0.0172  0.7228  0.2265
  272MOL0     C36635   8.234   4.156   1.389 -0.3397 -0.0877 -0.7294
  272MOL0     N36636   9.074   4.187   1.885 -0.7049  0.4650 -0.9577
  272MOL0     N36637   9.153   4.103   1.950 -0.2903  0.4393 -0.1021
  272MOL0     C36638  10.227   3.558   1.875 -0.0660  0.6481  0.0241
  272MOL0     C36639  10.351   3.601   1.832  0.0330  0.1645 -0.3079
  272MOL0     C36640  10.746   3.756   1.708  0.7857  0.2986  0.1737
  272MOL0     C36641  10.864   3.675   1.719  0.3118 -0.5396  1.3208
  272MOL0     C36642  10.974   3.713   1.641  0.4605 -0.1503  1.2127
  272MOL0     C36643  10.976   3.826   1.567 -0.4316 -0.3986  0.4446
  272MOL0     O36644  11.087   3.872   1.496  0.0299  0.3281 -0.0059
  272MOL0     C36645  11.217   3.816   1.511  0.5655  0.1435 -0.0275
  272MOL0     C36646  11.303   3.872   1.400 -0.4090 -0.1552 -0.4029
  272MOL0     C36647  11.254   3.845   1.265 -0.3469  0.5043  0.5785
  272MOL0     C36648  11.300   3.712   1.196  0.1135 -0.9095 -0.1480
  272MOL0     C36649  11.445   3.699   1.191 -0.2115  1.2801 -0.5272
  272MOL0     C36650  11.566   3.693   1.186  0.4314 -0.9299  0.4364
  272MOL0     C36651  10.862   3.902   1.549  0.2540 -0.0473  0.1901
  272MOL0     C36652  10.747   3.865   1.618 -0.2599 -0.5144  0.6224
  272MOL0     H36653  10.336   3.929   1.874  2.3428 -1.4374  1.0770
  272MOL0     H36654  10.104   3.872   1.942  1.2699  0.6616 -1.4927
  272MOL0     H36655   9.920   3.501   1.824 -1.1357 -0.3639 -0.1220
  272MOL0     H36656  10.002   3.427   1.963  0.4597  0.5750 -0.1464
  272MOL0     H36657   9.752   3.429   1.981 -2.1978  1.1893 -1.2030
  272MOL0     H36658   9.829   3.519   2.114 -0.3508 -0.7369  0.7330
  272MOL0     H36659   9.745   3.731   1.974  0.3695 -0.0615  1.8655
  272MOL0     H36660   9.708   3.625   1.848  0.9718  1.1584 -0.5554
  272MOL0     H36661   9.510   3.533   1.978  0.5833 -0.3096  0.0156
  272MOL0     H36662   9.586   3.588   2.128  0.5975  1.3380  0.5390
  272MOL0     H36663   9.404   3.730   2.072 -0.2635 -2.9654 -0.1604
  272MOL0     H36664   9.555   3.818   2.052 -0.7603  1.7807 -2.0561
  272MOL0     H36665   9.534   3.771   1.803  3.4862  0.2158  3.2303
  272MOL0     H36666   9.388   3.675   1.819 -2.0770  1.4074 -1.2300
  272MOL0     H36667   9.416   3.963   1.882  2.5956 -0.7512  0.4390
  272MOL0     H36668   9.321   3.884   1.750 -1.0935 -1.8793  0.7528
  272MOL0     H36669   9.246   3.871   2.037  1.0860  0.3470 -0.3670
  272MOL0     H36670   9.177   3.771   1.917 -0.9324  0.7261 -0.1384
  272MOL0     H36671   9.039   3.929   1.706 -1.2282  1.1384 -0.2648
  272MOL0     H36672   8.924   4.282   1.670  0.5238 -0.4975 -0.7264
  272MOL0     H36673   8.974   4.128   1.586  2.0403  1.1204 -0.1994
  272MOL0     H36674   8.731   4.174   1.769 -1.9958 -1.9864 -0.9486
  272MOL0     H36675   8.758   4.019   1.678 -3.0972  0.0373  0.8771
  272MOL0     H36676   8.725   4.106   1.473  0.1928 -0.1217  1.0029
  272MOL0     H36677   8.728   4.268   1.526  2.5058 -1.0613 -1.2695
  272MOL0     H36678   8.536   4.235   1.666 -2.0200 -0.0548 -0.6325
  272MOL0     H36679   8.540   4.055   1.639  3.4302 -0.2056 -0.4485
  272MOL0     H36680   8.336   4.102   1.715 -3.1583 -0.3201  2.6935
  272MOL0     H36681   8.016   3.998   1.800 -1.3975  2.3793 -1.3452
  272MOL0     H36682   8.188   4.009   1.837 -0.0501 -1.1999 -0.2740
  272MOL0     H36683   8.075   4.152   1.853 -2.4910  2.6824 -4.0667
  272MOL0     H36684   7.739   4.169   1.894  2.2294 -2.5224  0.7479
  272MOL0     H36685   7.538   4.080   2.001 -2.4121 -2.3929 -0.4114
  272MOL0     H36686   7.319   4.134   1.913  0.0515 -0.8366 -1.6113
  272MOL0     H36687   7.187   4.020   1.869 -0.6333  0.1580 -0.6049
  272MOL0     H36688   7.201   3.901   2.079 -1.8746  0.3245  2.3379
  272MOL0     H36689   7.338   3.994   2.124  0.1021  0.5693  0.2967
  272MOL0     H36690   7.054   4.073   2.053 -0.4856  0.0213 -0.2076
  272MOL0     H36691   7.173   4.198   2.089 -0.4142  0.2193  2.2180
  272MOL0     H36692   7.091   3.976   2.295 -1.0440  0.4622 -0.1256
  272MOL0     H36693   7.211   4.108   2.312 -1.7356 -0.3183  2.9730
  272MOL0     H36694   7.005   4.270   2.272  1.7543  0.4687 -1.5089
  272MOL0     H36695   7.027   4.184   2.417  2.3838  0.1278 -0.2940
  272MOL0     H36696   6.846   4.112   2.185 -0.4842  0.4527  0.5791
  272MOL0     H36697   6.877   3.986   2.311  1.3491 -0.4372 -1.6871
  272MOL0     H36698   6.760   4.256   2.366  1.4794  0.6080 -2.1906
  272MOL0     H36699   6.770   4.125   2.479 -3.1223 -0.2779  0.0117
  272MOL0     H36700   6.620   4.095   2.225  1.8291 -0.9409  0.5659
  272MOL0     H36701   6.537   4.154   2.372  1.0291  1.7454  0.3465
  272MOL0     H36702   7.472   3.834   1.654 -0.5776  0.3815 -0.0280
  272MOL0     H36703   7.666   3.918   1.548  1.0443 -0.9817  0.9796
  272MOL0     H36704   8.030   4.163   1.325  0.3299  0.8899 -0.0159
  272MOL0     H36705   8.270   4.183   1.290  0.3407 -0.8610 -0.7001
  272MOL0     H36706  10.204   3.452   1.884 -0.9823  0.8385  0.0207
  272MOL0     H36707  10.418   3.522   1.800 -2.0749 -1.8448 -0.0909
  272MOL0     H36708  10.870   3.591   1.787 -3.3833 -0.3982  2.0158
  272MOL0     H36709  11.053   3.639   1.630  1.0797  0.9343 -4.8353
  272MOL0     H36710  11.253   3.856   1.606  1.6447  0.1488 -0.4165
  272MOL0     H36711  11.205   3.708   1.504 -0.3729 -0.0439  3.1907
  272MOL0     H36712  11.401   3.829   1.422 -1.6285 -2.0361  1.8147
  272MOL0     H36713  11.312   3.980   1.409  0.9245 -0.2127 -0.8531
  272MOL0     H36714  11.277   3.926   1.196  0.5540 -1.8968 -2.1447
  272MOL0     H36715  11.145   3.843   1.258 -0.2362 -1.2789 -2.0363
  272MOL0     H36716  11.250   3.703   1.099  0.5381  0.0509 -0.4695
  272MOL0     H36717  11.274   3.624   1.256  0.3808 -1.7992 -1.3169
  272MOL0     H36718  11.668   3.666   1.169  0.2384 -2.3453  1.3797
  272MOL0     H36719  10.868   3.992   1.488 -1.9437  0.2982  0.4261
  272MOL0     H36720  10.656   3.924   1.605  0.7939  0.6781 -2.1334
  273MOL0     O36721   7.854   8.599  10.713  0.1885  0.1482 -0.0177
  273MOL0     C36722   7.909   8.675  10.635 -0.3835 -1.0895 -0.1725
  273MOL0     O36723   7.837   8.754  10.544 -0.6182 -0.3091 -0.7602
  273MOL0     C36724   7.704   8.741  10.550  0.6608  1.3585 -0.9226
  273MOL0     C36725   7.640   8.638  10.478 -1.1305  0.5592 -0.1118
  273MOL0     C36726   7.503   8.621  10.487 -0.2172  0.1942  0.6472
  273MOL0     C36727   7.428   8.706  10.573  0.4570 -0.3230 -0.5960
  273MOL0     O36728   7.294   8.707  10.596  0.2711  0.6746 -0.2777
  273MOL0     C36729   7.226   8.589  10.604  1.0303  0.9359 -0.1675
  273MOL0     C36730   7.139   8.584  10.480  0.4867  0.5890 -0.2307
  273MOL0     C36731   7.024   8.680  10.466 -0.1425  1.0781  0.2645
  273MOL0     C36732   6.906   8.618  10.403 -0.1860  0.4749 -0.0417
  273MOL0     C36733   6.797   8.719  10.366 -0.3481  0.6721 -0.7543
  273MOL0     C36734   6.663   8.642  10.340  0.6546 -0.7306  0.2459
  273MOL0     C36735   6.558   8.749  10.315  0.0075  0.1227  0.6614
  273MOL0     C36736   6.420   8.689  10.287 -0.0132 -0.7285 -0.3613
  273MOL0     N36737   6.333   8.789  10.235  0.5174  0.0508 -0.0737
  273MOL0     C36738   6.323   8.920  10.281 -0.4575 -0.2768  0.0077
  273MOL0     C36739   6.207   8.964  10.222  0.0217 -1.2629  0.1687
  273MOL0     C36740   6.162   9.103  10.222  0.4717  0.4981 -0.1675
  273MOL0     C36741   6.026   9.131  10.272  0.0348 -0.8393  0.5533
  273MOL0     C36742   5.927   9.139  10.151 -0.6653  0.7103 -0.0695
  273MOL0     C36743   5.778   9.161  10.180  0.1081  0.5753 -0.4555
  273MOL0     O36744   5.704   9.123  10.064 -0.4612  0.0488 -0.1875
  273MOL0     C36745   5.570   9.129  10.068 -0.3216  0.7790 -0.0102
  273MOL0     C36746   5.511   9.141   9.943  0.2568  0.5414 -0.1960
  273MOL0     C36747   5.375   9.151   9.925  0.1283 -0.5657 -1.3648
  273MOL0     C36748   5.325   9.173   9.788 -0.1277  0.1500 -0.6941
  273MOL0     C36749   5.290   9.150  10.043 -0.4677 -0.7950 -0.4974
  273MOL0     C36750   5.141   9.157  10.042 -0.1168  1.6710 -0.1248
  273MOL0     O36751   5.081   9.187   9.925  0.3108  0.2345 -0.4899
  273MOL0     C36752   4.945   9.216   9.912  0.1743 -0.4408 -0.6434
  273MOL0     C36753   4.854   9.138   9.844 -0.5432  0.0353  1.0168
  273MOL0     C36754   4.719   9.166   9.841  0.8495  0.8846 -0.5690
  273MOL0     C36755   4.675   9.293   9.886 -0.4232 -0.6642 -1.2150
  273MOL0     O36756   4.542   9.329   9.870 -0.0741  0.0612  0.2849
  273MOL0     C36757   4.448   9.249   9.792 -0.3479 -0.8173  0.2734
  273MOL0     C36758   4.315   9.330   9.795 -0.8421 -0.4247  0.7253
  273MOL0     C36759   4.213   9.295   9.695 -0.6602  0.2414 -0.1328
  273MOL0     C36760   4.091   9.370   9.732  0.6740  0.7187  0.1751
  273MOL0     C36761   3.962   9.308   9.667 -0.1439 -0.3616 -0.2284
  273MOL0     C36762   3.848   9.397   9.694  0.9377 -0.1394  0.5229
  273MOL0     C36763   3.732   9.369   9.599 -0.1467 -0.2596 -0.0537
  273MOL0     C36764   3.625   9.470   9.636 -0.4517 -0.8369 -0.1756
  273MOL0    Cl36765   3.468   9.443   9.550  0.1724 -0.0648  0.2423
  273MOL0     C36766   4.762   9.374   9.950  0.3693  0.1547 -0.5327
  273MOL0     C36767   4.897   9.337   9.962 -0.3049 -0.3165 -0.2300
  273MOL0     O36768   5.082   9.111  10.139 -0.3182 -0.1749  0.4888
  273MOL0     C36769   5.351   9.141  10.171  0.4435 -0.0187 -0.3953
  273MOL0     C36770   5.492   9.139  10.188 -0.0625  0.2231 -0.3068
  273MOL0     N36771   6.161   8.866  10.137  0.6911 -0.4312  0.0807
  273MOL0     N36772   6.232   8.756  10.149 -0.9299 -0.3879  0.1900
  273MOL0     C36773   7.491   8.815  10.636  0.2943  1.1361  0.1526
  273MOL0     C36774   7.628   8.830  10.623 -0.8068  0.5180  0.1607
  273MOL0     C36775   8.053   8.676  10.626  0.1706 -0.2368 -0.1951
  273MOL0     C36776   8.112   8.717  10.512 -0.6948 -0.0927  0.5641
  273MOL0     C36777   8.251   8.713  10.495 -0.1988 -0.9403 -0.3568
  273MOL0     C36778   8.327   8.656  10.595 -0.8874 -0.5527 -0.0195
  273MOL0     O36779   8.470   8.634  10.585 -0.1063 -0.1195  0.5673
  273MOL0     C36780   8.544   8.671  10.467  0.2856  0.8902  0.3116
  273MOL0     C36781   8.570   8.820  10.453  0.0746 -0.4824 -0.1279
  273MOL0     C36782   8.706   8.839  10.381  0.1220 -0.4081  0.3749
  273MOL0     C36783   8.763   8.976  10.388  0.1674 -0.0716 -0.5889
  273MOL0     C36784   8.670   9.065  10.314 -0.6926 -0.8802  0.3149
  273MOL0     C36785   8.581   9.132  10.262 -0.0785  0.1366  0.7027
  273MOL0     C36786   8.265   8.606  10.709  0.1638 -0.2309  0.2062
  273MOL0     C36787   8.130   8.617  10.727  0.4657  0.8755 -0.0312
  273MOL0     H36788   7.706   8.564  10.434 -1.3736 -1.3784  2.4917
  273MOL0     H36789   7.467   8.538  10.427  1.3341 -1.4926  1.9688
  273MOL0     H36790   7.291   8.501  10.605  0.1629  0.2814  0.7989
  273MOL0     H36791   7.177   8.594  10.702  2.3798  0.7095  0.5413
  273MOL0     H36792   7.210   8.585  10.397 -1.0915 -1.1291 -1.7054
  273MOL0     H36793   7.095   8.484  10.468 -0.8637  1.2692 -1.1472
  273MOL0     H36794   7.001   8.721  10.565  1.9356 -0.1151  1.3184
  273MOL0     H36795   7.064   8.757  10.399  2.2843 -0.7267 -0.5141
  273MOL0     H36796   6.936   8.570  10.309 -1.4725  0.8085 -0.6448
  273MOL0     H36797   6.866   8.544  10.472  2.0462  1.3142  2.3325
  273MOL0     H36798   6.777   8.783  10.452 -1.7069 -0.9891  0.2551
  273MOL0     H36799   6.830   8.783  10.284  3.1655  1.9967  1.4599
  273MOL0     H36800   6.673   8.574  10.254  0.4242 -3.7341  2.4400
  273MOL0     H36801   6.637   8.574  10.421 -0.2611 -1.8444 -0.9316
  273MOL0     H36802   6.566   8.827  10.392 -0.3460  0.6165  0.2076
  273MOL0     H36803   6.588   8.803  10.224  0.8097 -1.4573 -0.0530
  273MOL0     H36804   6.372   8.663  10.382  0.3890  1.2978  0.4429
  273MOL0     H36805   6.416   8.609  10.212  0.4385  0.0553 -1.2359
  273MOL0     H36806   6.385   8.972  10.353 -1.1505 -0.4257  0.7306
  273MOL0     H36807   6.236   9.154  10.284 -0.5494  1.2467  0.4692
  273MOL0     H36808   6.180   9.125  10.116 -1.2032 -0.9480 -0.8108
  273MOL0     H36809   6.028   9.231  10.317 -1.2601 -0.0593 -1.0142
  273MOL0     H36810   5.989   9.057  10.343 -2.0234 -0.9347 -0.5454
  273MOL0     H36811   5.938   9.046  10.095 -3.8116  0.4999 -0.5415
  273MOL0     H36812   5.957   9.219  10.083 -0.3367  1.9860  1.5015
  273MOL0     H36813   5.748   9.263  10.204  0.1702  0.4051  0.3548
  273MOL0     H36814   5.752   9.102  10.268  0.4123  2.1525  0.7370
  273MOL0     H36815   5.573   9.131   9.855  1.8271  3.6499  0.3869
  273MOL0     H36816   5.251   9.096   9.763  0.6042 -0.9690  0.5310
  273MOL0     H36817   5.284   9.275   9.788  2.1443  1.1215 -1.1342
  273MOL0     H36818   5.402   9.176   9.711 -1.6788  1.2810 -2.3045
  273MOL0     H36819   4.877   9.036   9.815 -1.3975  0.5945 -2.0102
  273MOL0     H36820   4.650   9.096   9.794  1.0123  1.0089 -1.0000
  273MOL0     H36821   4.486   9.228   9.692 -1.4911  0.8054 -0.5340
  273MOL0     H36822   4.423   9.151   9.835  1.9547 -1.4669  0.3004
  273MOL0     H36823   4.274   9.314   9.895 -1.8767 -1.8098  0.1126
  273MOL0     H36824   4.330   9.438   9.787 -1.5256 -0.4006 -0.2724
  273MOL0     H36825   4.200   9.186   9.695 -3.5679  0.5204  0.3567
  273MOL0     H36826   4.251   9.325   9.597 -0.5695  0.6876  0.0336
  273MOL0     H36827   4.077   9.393   9.839 -1.5871  0.8016 -0.0926
  273MOL0     H36828   4.102   9.467   9.684  1.7736  0.5830  0.1462
  273MOL0     H36829   3.954   9.209   9.714 -1.5185  0.8458  2.2639
  273MOL0     H36830   3.982   9.298   9.560  0.8217  1.8682 -0.3186
  273MOL0     H36831   3.820   9.381   9.799 -1.2542 -1.1411 -0.1579
  273MOL0     H36832   3.882   9.499   9.672 -0.4540 -0.1523 -2.0421
  273MOL0     H36833   3.699   9.265   9.606  2.1973 -1.1246 -1.0611
  273MOL0     H36834   3.770   9.370   9.497  1.9758 -2.2234  0.6248
  273MOL0     H36835   3.662   9.572   9.619 -0.8956 -0.8852 -1.5781
  273MOL0     H36836   3.613   9.478   9.744  0.7611 -0.6762 -0.0315
  273MOL0     H36837   4.738   9.475   9.983  1.8603  1.3441 -2.8692
  273MOL0     H36838   4.964   9.412  10.004  1.0221  1.5658 -4.9992
  273MOL0     H36839   5.295   9.140  10.265  0.7793 -0.1289 -0.1956
  273MOL0     H36840   5.530   9.154  10.289  1.8571  0.8110 -1.0922
  273MOL0     H36841   7.435   8.880  10.703  1.0901  3.6179 -1.4600
  273MOL0     H36842   7.658   8.921  10.675 -1.1879  1.5634 -1.3807
  273MOL0     H36843   8.049   8.759  10.434 -0.5831 -1.0150 -0.0242
  273MOL0     H36844   8.298   8.752  10.405 -0.3777  0.0299 -0.0413
  273MOL0     H36845   8.638   8.614  10.477 -0.2637 -0.1297 -0.1460
  273MOL0     H36846   8.497   8.623  10.381  1.9090 -0.6783  0.2139
  273MOL0     H36847   8.570   8.868  10.551  2.6495 -0.0704 -0.2551
  273MOL0     H36848   8.493   8.870  10.393  0.6007 -0.2914 -0.6584
  273MOL0     H36849   8.712   8.803  10.277 -1.8518 -0.2142  0.1444
  273MOL0     H36850   8.775   8.769  10.428  1.8931 -0.5939 -2.2945
  273MOL0     H36851   8.864   8.977  10.347  0.4401  1.5971  0.0512
  273MOL0     H36852   8.769   9.014  10.490 -1.5255  2.4521 -1.3485
  273MOL0     H36853   8.505   9.200  10.230 -0.0707  0.3986  1.2312
  273MOL0     H36854   8.328   8.569  10.789 -1.0932 -0.3514  1.1590
  273MOL0     H36855   8.065   8.567  10.798 -0.0255  0.1050 -1.0103
  274MOL0     O36856   2.682   8.672   7.436  0.1734  0.0855 -0.1548
  274MOL0     C36857   2.682   8.550   7.432 -0.2676  0.8954 -0.4587
  274MOL0     O36858   2.575   8.476   7.422  0.7295  0.4652  0.3258
  274MOL0     C36859   2.448   8.523   7.397 -0.2769  0.6755 -0.4724
  274MOL0     C36860   2.370   8.462   7.298  1.3020 -0.7567  0.3763
  274MOL0     C36861   2.242   8.504   7.267  0.1360  0.5550 -0.4484
  274MOL0     C36862   2.179   8.603   7.341 -0.9504  0.3772  0.7351
  274MOL0     O36863   2.049   8.648   7.332 -0.0095  0.1826  0.1701
  274MOL0     C36864   1.958   8.539   7.335  0.6723  0.8985 -0.7826
  274MOL0     C36865   1.832   8.585   7.405 -0.2290  0.4801  0.2396
  274MOL0     C36866   1.706   8.554   7.326  0.2808  0.0202  0.7338
  274MOL0     C36867   1.645   8.678   7.261  1.1595 -0.4141  0.2983
  274MOL0     C36868   1.513   8.658   7.195 -0.9375  0.0765 -0.8681
  274MOL0     C36869   1.467   8.794   7.150 -0.2399  0.2929  0.2626
  274MOL0     C36870   1.333   8.792   7.079  0.3305  0.9905  0.1125
  274MOL0     C36871   1.210   8.799   7.170  0.0706  0.5376 -0.3562
  274MOL0     N36872   1.083   8.809   7.098 -0.1899  0.0362  0.1897
  274MOL0     C36873   1.065   8.817   6.959 -0.1799  0.0945 -0.4011
  274MOL0     C36874   0.930   8.822   6.952 -0.0822 -0.5181  0.3671
  274MOL0     C36875   0.862   8.825   6.818  1.3224  0.0788 -0.7573
  274MOL0     C36876   0.730   8.756   6.815 -0.3612  0.4615 -1.0240
  274MOL0     C36877   0.653   8.787   6.687 -0.2763  0.3880 -0.3988
  274MOL0     C36878   0.505   8.735   6.692 -0.2097  0.4689  0.0569
  274MOL0     O36879   0.426   8.830   6.773  0.1006  0.2821 -0.3355
  274MOL0     C36880   0.289   8.843   6.759  0.2071 -0.6154  0.0121
  274MOL0     C36881   0.210   8.744   6.694 -0.5477 -0.4764  0.3019
  274MOL0     C36882   0.074   8.756   6.685  0.4747 -0.2491 -0.1067
  274MOL0     C36883   0.006   8.628   6.618  0.6466 -0.6640  0.4727
  274MOL0     C36884   0.010   8.875   6.726  0.2582 -0.2982  0.3714
  274MOL0     C36885  -0.136   8.909   6.713  0.3777  0.9752 -0.5995
  274MOL0     O36886  -0.221   8.839   6.633  0.7383  0.5180  0.1231
  274MOL0     C36887  -0.354   8.848   6.621  0.5164  0.3822 -0.5584
  274MOL0     C36888  -0.407   8.740   6.545 -0.7427 -0.2371 -0.2101
  274MOL0     C36889  -0.547   8.746   6.508 -1.2030  0.2933  0.3005
  274MOL0     C36890  -0.623   8.844   6.557  0.1147 -0.1987 -0.0520
  274MOL0     O36891  -0.751   8.844   6.513 -0.4869  0.3336  0.1793
  274MOL0     C36892  -0.833   8.939   6.569 -0.1543  0.0467  0.1089
  274MOL0     C36893  -0.975   8.915   6.520  0.4779  0.1922 -0.2117
  274MOL0     C36894  -1.043   8.788   6.583 -0.3399 -0.1378 -0.3378
  274MOL0     C36895  -1.092   8.821   6.727 -0.0037  0.1965 -0.5109
  274MOL0     C36896  -1.140   8.691   6.798 -0.3625 -0.1831 -1.3221
  274MOL0     C36897  -1.120   8.700   6.946  1.3046  0.0529 -0.0925
  274MOL0     C36898  -1.159   8.567   7.009 -0.0217 -0.0892 -0.2454
  274MOL0     C36899  -1.168   8.578   7.160 -0.6207  0.6452 -0.4392
  274MOL0    Cl36900  -1.275   8.706   7.223 -0.1001  0.4341  0.1240
  274MOL0     C36901  -0.568   8.955   6.630  0.7706  0.1451  0.7281
  274MOL0     C36902  -0.434   8.955   6.659 -0.2859  0.3956  0.6992
  274MOL0     O36903  -0.167   8.994   6.790 -0.2535 -0.1939 -0.3641
  274MOL0     C36904   0.096   8.977   6.779  1.4215  0.5957  0.5196
  274MOL0     C36905   0.228   8.958   6.806  0.6873 -0.2712  0.2333
  274MOL0     N36906   0.872   8.845   7.082 -1.0099  0.7666  0.0080
  274MOL0     N36907   0.969   8.831   7.164  0.5279  0.4183 -0.4349
  274MOL0     C36908   2.257   8.673   7.439 -0.5287 -0.4244  0.7874
  274MOL0     C36909   2.387   8.627   7.470  0.8332  0.5140 -0.6956
  274MOL0     C36910   2.810   8.482   7.431 -0.8845 -0.0918  0.1455
  274MOL0     C36911   2.818   8.344   7.426 -0.1785  0.0556  0.0873
  274MOL0     C36912   2.941   8.276   7.421  0.4536 -0.5435 -0.1937
  274MOL0     C36913   3.062   8.347   7.412  0.2348 -0.7366 -0.6353
  274MOL0     O36914   3.183   8.288   7.405 -0.0285 -0.0474 -0.2198
  274MOL0     C36915   3.247   8.264   7.537 -0.5933 -0.2973  0.2364
  274MOL0     C36916   3.371   8.359   7.542  0.1701  0.0129  0.0135
  274MOL0     C36917   3.498   8.300   7.623  0.1623  0.1022  0.2246
  274MOL0     C36918   3.558   8.182   7.556 -0.4860  0.2528 -0.7010
  274MOL0     C36919   3.692   8.141   7.610  0.4021  0.5022 -0.3458
  274MOL0     C36920   3.805   8.116   7.649 -0.0948  0.0069  0.2899
  274MOL0     C36921   3.054   8.487   7.411 -0.2157  0.8847  0.6383
  274MOL0     C36922   2.930   8.550   7.411 -0.0126  0.2696 -0.2639
  274MOL0     H36923   2.402   8.374   7.243 -0.0650 -0.0762 -1.6305
  274MOL0     H36924   2.171   8.461   7.198 -2.6061  3.5248  0.2416
  274MOL0     H36925   1.936   8.488   7.241  2.0774 -4.0089  1.2094
  274MOL0     H36926   2.007   8.453   7.381  3.4391  1.2138 -2.8634
  274MOL0     H36927   1.837   8.542   7.506  3.5843  0.3489  0.1413
  274MOL0     H36928   1.833   8.693   7.423 -0.4629 -0.1097  5.0301
  274MOL0     H36929   1.723   8.469   7.259  0.7368  1.5559 -1.1846
  274MOL0     H36930   1.630   8.529   7.400  0.7794  0.2689  1.3315
  274MOL0     H36931   1.641   8.758   7.336 -0.9521 -1.3753  1.2978
  274MOL0     H36932   1.717   8.710   7.185  1.4488  1.3054  1.2531
  274MOL0     H36933   1.537   8.612   7.099 -2.2462  0.0657 -1.2102
  274MOL0     H36934   1.441   8.590   7.241 -0.3097 -0.8668 -1.2501
  274MOL0     H36935   1.454   8.856   7.239 -3.6257  0.8807 -0.5082
  274MOL0     H36936   1.546   8.840   7.090  1.5359  0.3856  2.5269
  274MOL0     H36937   1.327   8.879   7.012 -2.2776 -1.3839 -3.0506
  274MOL0     H36938   1.316   8.703   7.017 -2.2994  0.8984  0.8680
  274MOL0     H36939   1.220   8.890   7.230  0.5455 -1.6610  3.1945
  274MOL0     H36940   1.209   8.722   7.248 -2.1185  2.0303  1.2208
  274MOL0     H36941   1.141   8.802   6.883  1.5681 -2.3012  1.6677
  274MOL0     H36942   0.843   8.930   6.795  0.0070  0.0647  0.1471
  274MOL0     H36943   0.932   8.784   6.744  0.9949 -0.4923 -0.7596
  274MOL0     H36944   0.670   8.810   6.889 -0.0522 -0.5612  0.0198
  274MOL0     H36945   0.728   8.647   6.832  1.4036  0.3067 -1.6729
  274MOL0     H36946   0.707   8.742   6.603 -0.6564 -0.1973 -0.3359
  274MOL0     H36947   0.652   8.894   6.662  1.8971  0.2693 -1.2168
  274MOL0     H36948   0.501   8.633   6.730  3.4626  0.2789  0.2386
  274MOL0     H36949   0.468   8.736   6.589  0.8691  0.6212 -0.3356
  274MOL0     H36950   0.261   8.665   6.642  1.0802  0.9150 -0.3010
  274MOL0     H36951  -0.073   8.591   6.684 -2.1047  1.4507 -1.3853
  274MOL0     H36952  -0.042   8.657   6.524  0.5765 -1.8460  0.1276
  274MOL0     H36953   0.086   8.555   6.602  1.6675  0.3122  0.9761
  274MOL0     H36954  -0.341   8.664   6.503 -1.1170  0.8071 -2.8725
  274MOL0     H36955  -0.594   8.670   6.447  0.7908 -0.2282 -0.6451
  274MOL0     H36956  -0.824   8.935   6.678  0.1757 -1.9837  0.0496
  274MOL0     H36957  -0.803   9.041   6.543  2.7702 -0.5170  0.9066
  274MOL0     H36958  -1.040   8.999   6.546  2.0359  0.6046  2.8159
  274MOL0     H36959  -0.972   8.910   6.410 -1.4581  0.5882 -0.3121
  274MOL0     H36960  -0.985   8.695   6.584 -0.6468 -0.3468 -1.1339
  274MOL0     H36961  -1.120   8.762   6.510  2.0317  0.0739 -3.1337
  274MOL0     H36962  -1.015   8.876   6.782 -0.5142  3.2188 -2.5615
  274MOL0     H36963  -1.171   8.896   6.721 -0.1011  0.1612  0.2864
  274MOL0     H36964  -1.075   8.606   6.773  0.6125 -0.8633  2.7390
  274MOL0     H36965  -1.238   8.659   6.761 -1.3387  1.7877 -0.5614
  274MOL0     H36966  -1.016   8.723   6.971  0.6075  1.0717  2.2367
  274MOL0     H36967  -1.177   8.783   6.989  3.2353  0.6173  1.5923
  274MOL0     H36968  -1.082   8.495   6.980  0.6459  0.0613  1.0881
  274MOL0     H36969  -1.258   8.541   6.969 -1.0534  3.7975 -0.6321
  274MOL0     H36970  -1.066   8.587   7.199 -0.5625  0.9523 -0.6675
  274MOL0     H36971  -1.209   8.479   7.185  0.5547  0.2811  0.1206
  274MOL0     H36972  -0.622   9.048   6.632 -0.7186 -0.5359 -2.5169
  274MOL0     H36973  -0.394   9.038   6.716 -0.3904 -0.4511  2.0418
  274MOL0     H36974   0.057   9.072   6.815  0.9517  0.3303  0.7276
  274MOL0     H36975   0.284   9.037   6.854 -2.6461  2.3010  0.2318
  274MOL0     H36976   2.209   8.763   7.476 -0.7364  0.5966 -1.7621
  274MOL0     H36977   2.447   8.674   7.547  0.6128  0.7471 -0.6644
  274MOL0     H36978   2.737   8.272   7.436  0.4215 -0.5676  0.5887
  274MOL0     H36979   2.941   8.168   7.434  1.2738 -0.5762 -0.4297
  274MOL0     H36980   3.186   8.296   7.621  3.1032  2.4349  2.1785
  274MOL0     H36981   3.277   8.159   7.543 -1.6567 -0.6866 -0.8319
  274MOL0     H36982   3.342   8.462   7.568 -0.5006 -0.4387  1.1420
  274MOL0     H36983   3.393   8.368   7.435 -2.4627 -0.6431 -0.6622
  274MOL0     H36984   3.465   8.275   7.724 -1.1398 -0.0272 -0.2055
  274MOL0     H36985   3.575   8.375   7.643  2.1539 -1.1288 -2.2239
  274MOL0     H36986   3.578   8.202   7.450 -1.1631 -1.4873 -1.1923
  274MOL0     H36987   3.497   8.092   7.565 -2.6080  1.2883 -3.4450
  274MOL0     H36988   3.902   8.071   7.661  0.3558  0.1931 -2.1610
  274MOL0     H36989   3.139   8.549   7.383  2.0299 -0.8826  3.0816
  274MOL0     H36990   2.935   8.658   7.395  1.9154  0.0233 -1.7158
  275MOL0     O36991   1.944  10.289   7.244  0.1795 -0.1277 -0.0177
  275MOL0     C36992   1.920  10.395   7.184  0.0302 -0.0069 -0.0130
  275MOL0     O36993   1.804  10.422   7.119  0.8674  0.0131  0.2366
  275MOL0     C36994   1.704  10.320   7.109  0.2331  0.2396  0.1927
  275MOL0     C36995   1.730  10.191   7.075 -0.6083  0.0129  0.6326
  275MOL0     C36996   1.622  10.105   7.043  0.1440  0.1457 -0.5114
  275MOL0     C36997   1.489  10.149   7.039 -0.0680  0.1698  0.0810
  275MOL0     O36998   1.375  10.078   7.009 -0.1818 -0.7113 -0.2688
  275MOL0     C36999   1.360   9.946   7.042  0.9785  0.2025 -0.6658
  275MOL0     C37000   1.210   9.900   7.026 -0.7144  0.5937 -0.7356
  275MOL0     C37001   1.156   9.828   7.152  0.4778  0.0336  0.1633
  275MOL0     C37002   1.041   9.747   7.096 -0.0048 -0.5675 -0.0794
  275MOL0     C37003   0.972   9.666   7.204  0.0602 -0.0337 -0.5286
  275MOL0     C37004   0.845   9.717   7.271 -0.3255 -0.2521  0.9923
  275MOL0     C37005   0.800   9.642   7.395  0.3203 -0.7314  0.2888
  275MOL0     C37006   0.675   9.715   7.447 -0.1764  0.9297  0.1996
  275MOL0     N37007   0.556   9.724   7.362 -0.4000  0.1090  0.3127
  275MOL0     C37008   0.482   9.616   7.321  0.3479 -0.6153 -0.0016
  275MOL0     C37009   0.378   9.666   7.249  0.6373 -0.0006  0.1196
  275MOL0     C37010   0.267   9.582   7.182  0.1574 -0.5641  0.2669
  275MOL0     C37011   0.330   9.540   7.042  0.4018  0.2629 -1.4380
  275MOL0     C37012   0.257   9.423   6.978 -0.3100  0.2760  0.1349
  275MOL0     C37013   0.113   9.467   6.944 -0.2303  0.0242  0.7946
  275MOL0     O37014   0.072   9.374   6.841 -0.0480  0.2419  0.6013
  275MOL0     C37015  -0.055   9.388   6.797 -0.1135  0.2061  0.1294
  275MOL0     C37016  -0.083   9.453   6.678 -0.5305  0.1750  0.4579
  275MOL0     C37017  -0.222   9.457   6.631 -0.1277 -1.6152  0.0074
  275MOL0     C37018  -0.249   9.550   6.513  0.1708  0.3004 -0.4695
  275MOL0     C37019  -0.325   9.388   6.699  0.6413  0.1375  0.1177
  275MOL0     C37020  -0.471   9.367   6.649 -0.2735  0.5901 -0.8671
  275MOL0     O37021  -0.552   9.298   6.731  0.0325  0.4878  0.3301
  275MOL0     C37022  -0.683   9.285   6.710 -0.2837 -0.5762 -0.0392
  275MOL0     C37023  -0.769   9.339   6.610 -0.0020  0.4973 -0.2522
  275MOL0     C37024  -0.909   9.307   6.609  0.5325 -0.2135 -0.1436
  275MOL0     C37025  -0.959   9.224   6.703  0.0433  0.1290  0.3193
  275MOL0     O37026  -1.083   9.179   6.707 -0.2637  0.3626  0.5029
  275MOL0     C37027  -1.181   9.248   6.628  0.1036  0.2785  0.0359
  275MOL0     C37028  -1.311   9.173   6.634 -0.0638 -0.3884 -0.2065
  275MOL0     C37029  -1.416   9.242   6.549 -0.7312 -0.1256 -0.1107
  275MOL0     C37030  -1.556   9.186   6.568 -0.2889 -0.0971  0.3291
  275MOL0     C37031  -1.672   9.268   6.497 -0.6531 -0.3724  0.3593
  275MOL0     C37032  -1.805   9.205   6.480 -0.8027  0.5661  0.1098
  275MOL0     C37033  -1.884   9.210   6.621 -0.3100 -0.7540 -0.1551
  275MOL0     C37034  -2.031   9.166   6.588 -0.0284 -0.5718 -0.0757
  275MOL0    Cl37035  -2.021   8.999   6.534  0.0445 -0.3998  0.3199
  275MOL0     C37036  -0.881   9.184   6.808  0.1468 -0.0615 -0.3070
  275MOL0     C37037  -0.739   9.203   6.805  0.1142 -0.6257 -0.6761
  275MOL0     O37038  -0.502   9.392   6.533 -0.0069  0.5005 -0.0755
  275MOL0     C37039  -0.286   9.322   6.818 -1.5948  0.1808  0.2806
  275MOL0     C37040  -0.157   9.331   6.862  0.8442  0.0581 -0.1348
  275MOL0     N37041   0.396   9.808   7.249 -0.1774 -0.0007 -0.6174
  275MOL0     N37042   0.493   9.840   7.327  0.6735  0.2221  0.3101
  275MOL0     C37043   1.471  10.291   7.056 -0.4655  0.0144 -0.4157
  275MOL0     C37044   1.573  10.375   7.101 -0.3160 -0.1889 -0.0392
  275MOL0     C37045   2.018  10.506   7.187 -0.2625 -0.3063  0.3284
  275MOL0     C37046   2.128  10.499   7.279 -0.6351  0.1567  0.0910
  275MOL0     C37047   2.228  10.594   7.289 -0.3993 -0.5318  0.1373
  275MOL0     C37048   2.212  10.712   7.211  0.0582 -0.2377  0.4742
  275MOL0     O37049   2.297  10.827   7.215  0.4267  0.2469 -0.3449
  275MOL0     C37050   2.424  10.806   7.277 -0.9280  0.4795  0.0989
  275MOL0     C37051   2.425  10.830   7.433 -0.9378 -0.1757  0.0072
  275MOL0     C37052   2.560  10.779   7.501 -0.0087  0.2028  0.2650
  275MOL0     C37053   2.649  10.902   7.514 -0.2696 -0.5718 -0.0626
  275MOL0     C37054   2.695  10.959   7.385  0.0541 -0.1308 -0.3776
  275MOL0     C37055   2.747  11.001   7.282  0.0976  0.0272  0.5250
  275MOL0     C37056   2.108  10.724   7.120 -0.3489  0.1190 -0.4971
  275MOL0     C37057   2.017  10.621   7.108  0.3385 -0.5371 -0.2844
  275MOL0     H37058   1.832  10.158   7.061 -1.3014 -1.4291 -1.5814
  275MOL0     H37059   1.637  10.002   7.012  0.0517 -0.2715  0.7692
  275MOL0     H37060   1.424   9.884   6.977  0.8541  0.3383 -0.9157
  275MOL0     H37061   1.384   9.925   7.146  0.4962  1.1261 -0.3638
  275MOL0     H37062   1.147   9.988   7.009  0.0347  1.2585 -0.1293
  275MOL0     H37063   1.203   9.828   6.944  1.5391 -2.4839  1.5432
  275MOL0     H37064   1.233   9.763   7.196  2.1207  1.1915 -0.8905
  275MOL0     H37065   1.124   9.905   7.223 -0.4176  1.5314 -1.7695
  275MOL0     H37066   0.971   9.811   7.041  0.0370 -1.4605 -1.1937
  275MOL0     H37067   1.080   9.677   7.022  0.0997 -0.3614 -0.2206
  275MOL0     H37068   0.947   9.569   7.158  0.1111  0.9589 -2.7522
  275MOL0     H37069   1.045   9.635   7.279  1.4737  0.5662 -1.6127
  275MOL0     H37070   0.869   9.822   7.293  1.5039 -0.8947  2.3135
  275MOL0     H37071   0.768   9.721   7.194  1.4075  0.0333 -0.8080
  275MOL0     H37072   0.778   9.536   7.380 -0.3246 -0.6721  0.7602
  275MOL0     H37073   0.879   9.656   7.470  1.6972  3.6469 -1.6709
  275MOL0     H37074   0.710   9.815   7.475 -4.2320  2.8808 -0.9168
  275MOL0     H37075   0.652   9.656   7.536  0.1452  1.3035  0.5380
  275MOL0     H37076   0.496   9.510   7.337 -2.3213 -0.7885  1.9747
  275MOL0     H37077   0.253   9.486   7.233 -0.2111 -0.5205  0.2441
  275MOL0     H37078   0.173   9.635   7.168 -0.2446 -1.4735 -0.5910
  275MOL0     H37079   0.431   9.503   7.064  0.3738  0.7015 -0.5430
  275MOL0     H37080   0.345   9.626   6.976  5.6778  0.6633 -0.1529
  275MOL0     H37081   0.252   9.331   7.036 -0.8657  0.7727  0.8962
  275MOL0     H37082   0.316   9.400   6.889  5.4092 -1.8897  3.8951
  275MOL0     H37083   0.110   9.571   6.910  1.9424  1.2581  3.9153
  275MOL0     H37084   0.055   9.453   7.036 -0.7090 -1.7925  0.2514
  275MOL0     H37085   0.003   9.494   6.625  0.0426 -3.0567 -1.3361
  275MOL0     H37086  -0.163   9.609   6.482  2.7710 -3.8676 -2.1406
  275MOL0     H37087  -0.268   9.480   6.430 -1.0041 -1.9281  1.5412
  275MOL0     H37088  -0.332   9.610   6.551  1.0858  0.9392  0.5885
  275MOL0     H37089  -0.733   9.407   6.533  0.7777  0.4410  0.0574
  275MOL0     H37090  -0.959   9.341   6.520 -0.8771 -0.1047  0.6701
  275MOL0     H37091  -1.196   9.349   6.668  0.6303  0.1034  0.6980
  275MOL0     H37092  -1.165   9.239   6.520 -0.6039  2.9220 -0.3679
  275MOL0     H37093  -1.306   9.069   6.599  1.0961  0.4317 -2.6943
  275MOL0     H37094  -1.338   9.166   6.740 -0.1649  0.6138 -0.1634
  275MOL0     H37095  -1.394   9.242   6.442  1.7125 -0.9682  0.3192
  275MOL0     H37096  -1.428   9.345   6.585 -1.9520 -0.2115 -0.2486
  275MOL0     H37097  -1.557   9.080   6.540 -0.9513 -0.2079  0.7589
  275MOL0     H37098  -1.565   9.194   6.676  3.1291 -1.7758  0.8583
  275MOL0     H37099  -1.642   9.286   6.394  1.5477  1.4734  1.2346
  275MOL0     H37100  -1.660   9.367   6.542  2.0436 -0.2401 -0.4834
  275MOL0     H37101  -1.859   9.253   6.398  0.4416  0.8493 -0.5679
  275MOL0     H37102  -1.783   9.102   6.453  3.0718  0.5919  2.4914
  275MOL0     H37103  -1.888   9.308   6.670 -0.4624 -0.8646  0.0574
  275MOL0     H37104  -1.847   9.140   6.697 -1.2186 -1.0255  0.0591
  275MOL0     H37105  -2.072   9.225   6.505 -0.2255 -1.4608 -0.6265
  275MOL0     H37106  -2.091   9.174   6.679  0.9504  0.8888  0.4823
  275MOL0     H37107  -0.933   9.127   6.883 -0.7547  0.4349 -0.5403
  275MOL0     H37108  -0.675   9.162   6.882  0.0037 -1.3957 -0.9857
  275MOL0     H37109  -0.360   9.268   6.876 -2.3528  3.0190  2.1690
  275MOL0     H37110  -0.131   9.270   6.948 -0.3374 -1.8848 -1.0948
  275MOL0     H37111   1.371  10.331   7.051  0.3651  2.3311  0.4552
  275MOL0     H37112   1.555  10.479   7.125  4.4191  1.0195 -0.7403
  275MOL0     H37113   2.123  10.426   7.359  1.1978  1.8610  1.8660
  275MOL0     H37114   2.294  10.595   7.375  2.1322  1.0656 -1.6750
  275MOL0     H37115   2.456  10.707   7.244  0.2310  1.2419 -1.1420
  275MOL0     H37116   2.499  10.876   7.239  0.1885 -0.0292  1.2750
  275MOL0     H37117   2.348  10.770   7.482 -1.1314  0.3493  0.3493
  275MOL0     H37118   2.395  10.930   7.464 -4.1108 -0.6109 -1.3081
  275MOL0     H37119   2.608  10.709   7.432  1.8493  1.0178  0.6437
  275MOL0     H37120   2.542  10.737   7.601  1.0587 -0.5113  0.1803
  275MOL0     H37121   2.736  10.872   7.574 -0.5667 -0.9427  0.1934
  275MOL0     H37122   2.609  10.979   7.580  1.5161 -0.0731  0.4664
  275MOL0     H37123   2.797  11.040   7.196 -3.0063  1.0596 -0.9716
  275MOL0     H37124   2.098  10.819   7.069 -2.2821  1.5840  2.3337
  275MOL0     H37125   1.927  10.630   7.048 -0.5485  3.0680  1.3382
  276MOL0     O37126   0.659   9.029   1.421  0.3374 -0.2012  0.6036
  276MOL0     C37127   0.729   9.124   1.386  0.1759 -0.4985  0.9296
  276MOL0     O37128   0.677   9.240   1.345 -0.2758  0.0357  0.0022
  276MOL0     C37129   0.542   9.265   1.327 -1.0023  0.0723 -0.0432
  276MOL0     C37130   0.500   9.349   1.209 -0.3956 -1.1988 -0.2310
  276MOL0     C37131   0.368   9.384   1.189  0.8827  0.6232 -0.3481
  276MOL0     C37132   0.264   9.345   1.272  0.1125  0.2493 -0.8679
  276MOL0     O37133   0.132   9.387   1.247  0.1629  1.0324  0.6211
  276MOL0     C37134   0.045   9.376   1.361 -0.0563  0.2741  0.6761
  276MOL0     C37135  -0.073   9.460   1.313 -0.3553  0.2598  0.3420
  276MOL0     C37136  -0.174   9.403   1.207 -0.0856 -0.6239 -1.3804
  276MOL0     C37137  -0.271   9.519   1.163  0.4056  1.0479  0.0082
  276MOL0     C37138  -0.335   9.485   1.023 -0.3021 -0.0114 -0.1001
  276MOL0     C37139  -0.403   9.610   0.961 -0.8539 -0.1355  0.0198
  276MOL0     C37140  -0.537   9.651   1.034 -0.8426 -0.0932 -0.0347
  276MOL0     C37141  -0.662   9.563   0.997  0.0321  0.5141 -0.5082
  276MOL0     N37142  -0.789   9.614   1.063 -0.2808 -0.8570 -0.2001
  276MOL0     C37143  -0.846   9.734   1.038  0.0448  0.2635  0.2063
  276MOL0     C37144  -0.946   9.747   1.128 -0.4912  0.3839  0.1968
  276MOL0     C37145  -1.045   9.857   1.135  0.4319  0.0604 -0.4503
  276MOL0     C37146  -1.172   9.816   1.224  0.0400  0.1191  0.1893
  276MOL0     C37147  -1.259   9.713   1.164  1.0310 -0.0493  0.8241
  276MOL0     C37148  -1.391   9.698   1.228  0.2633 -0.1751  0.3909
  276MOL0     O37149  -1.467   9.814   1.199 -0.3838 -0.4446  0.2913
  276MOL0     C37150  -1.604   9.814   1.228 -0.8900  0.4318 -0.3036
  276MOL0     C37151  -1.676   9.706   1.272 -0.2656  0.1841 -0.0234
  276MOL0     C37152  -1.812   9.720   1.313 -0.7513  0.2687 -0.2451
  276MOL0     C37153  -1.872   9.601   1.380  0.8554  0.1882 -0.3641
  276MOL0     C37154  -1.883   9.839   1.301  0.1229  0.2281  0.2578
  276MOL0     C37155  -2.026   9.873   1.324  0.9102 -0.6123 -0.2730
  276MOL0     O37156  -2.081   9.950   1.230 -0.0603  0.4120 -0.2083
  276MOL0     C37157  -2.207   9.996   1.267  0.4810  0.4352  0.6298
  276MOL0     C37158  -2.327   9.919   1.254  0.1710 -0.1200  0.1314
  276MOL0     C37159  -2.451   9.972   1.276  0.6653 -0.1223  0.3728
  276MOL0     C37160  -2.467  10.109   1.297  1.1003 -0.2024  0.0008
  276MOL0     O37161  -2.596  10.166   1.327 -0.9655  0.6650  0.1743
  276MOL0     C37162  -2.598  10.304   1.370 -0.0702  0.3816 -0.2448
  276MOL0     C37163  -2.738  10.359   1.410  0.1278  0.8183  0.1299
  276MOL0     C37164  -2.819  10.436   1.302  0.1135  0.3193  0.3389
  276MOL0     C37165  -2.964  10.468   1.354 -0.2107 -0.4693  0.0228
  276MOL0     C37166  -3.034  10.576   1.275 -0.9698  0.3014  0.8813
  276MOL0     C37167  -3.172  10.616   1.336  0.1405 -1.1678  0.0828
  276MOL0     C37168  -3.251  10.692   1.225 -0.2157  0.4568 -0.2179
  276MOL0     C37169  -3.379  10.623   1.177 -0.0035 -0.2496  0.9462
  276MOL0    Cl37170  -3.455  10.724   1.049 -0.5595 -0.1483 -0.4593
  276MOL0     C37171  -2.354  10.185   1.306  0.4297 -0.0094 -0.0476
  276MOL0     C37172  -2.225  10.131   1.297 -0.4672 -0.1599 -0.9459
  276MOL0     O37173  -2.087   9.831   1.421  0.0266 -0.7360 -0.1664
  276MOL0     C37174  -1.801   9.953   1.250  0.6950  0.3206 -0.5660
  276MOL0     C37175  -1.671   9.937   1.209 -0.3487 -1.2240  0.4022
  276MOL0     N37176  -0.944   9.629   1.207  0.4843  0.0953  0.6114
  276MOL0     N37177  -0.857   9.550   1.160 -0.1435  0.4341  0.6507
  276MOL0     C37178   0.299   9.268   1.385  0.5636  0.2193 -0.1655
  276MOL0     C37179   0.438   9.235   1.409  1.0154  0.2452  1.6453
  276MOL0     C37180   0.876   9.123   1.389  0.0370 -0.4717  0.1062
  276MOL0     C37181   0.955   9.008   1.412 -0.6579  0.4108 -0.4976
  276MOL0     C37182   1.097   9.008   1.431 -0.2430 -0.0029 -0.8314
  276MOL0     C37183   1.158   9.127   1.395 -0.8316 -0.6411  0.4270
  276MOL0     O37184   1.291   9.139   1.398 -0.1481 -0.8932 -0.9966
  276MOL0     C37185   1.362   9.241   1.325  0.3189 -0.9458  0.7974
  276MOL0     C37186   1.422   9.339   1.427  0.9859 -0.1133  0.4112
  276MOL0     C37187   1.536   9.286   1.515 -0.0533 -0.0304 -0.5015
  276MOL0     C37188   1.669   9.251   1.438  0.0378 -0.4820 -0.5137
  276MOL0     C37189   1.731   9.370   1.378  0.8320  0.3247  0.5682
  276MOL0     C37190   1.775   9.476   1.332 -0.5767  0.2093 -0.1520
  276MOL0     C37191   1.079   9.247   1.378  0.7517  0.3666  1.5368
  276MOL0     C37192   0.940   9.252   1.375  0.5412 -0.3256 -0.9388
  276MOL0     H37193   0.578   9.387   1.145 -0.1502  0.9736  1.2569
  276MOL0     H37194   0.340   9.445   1.103  0.1004  2.5241  1.1739
  276MOL0     H37195   0.000   9.276   1.354  0.3593  0.2076 -3.1157
  276MOL0     H37196   0.088   9.405   1.457 -0.8555 -0.7195  1.3492
  276MOL0     H37197  -0.127   9.486   1.405 -2.5856 -2.0412 -0.2036
  276MOL0     H37198  -0.024   9.547   1.269 -0.0260  0.5238  1.2090
  276MOL0     H37199  -0.109   9.354   1.134  3.7228 -2.1111  2.5539
  276MOL0     H37200  -0.227   9.320   1.256  0.3559 -0.0183  0.1650
  276MOL0     H37201  -0.340   9.543   1.245  0.9462  3.1448 -0.0801
  276MOL0     H37202  -0.219   9.613   1.140 -0.0765  1.5069  0.7660
  276MOL0     H37203  -0.260   9.447   0.953  0.8222  3.0187 -0.6808
  276MOL0     H37204  -0.398   9.396   1.030  0.6630 -0.7408 -0.4256
  276MOL0     H37205  -0.342   9.696   0.931 -0.2172 -1.3786 -2.4945
  276MOL0     H37206  -0.433   9.569   0.865  0.5882  1.5473 -1.2117
  276MOL0     H37207  -0.530   9.654   1.143 -2.8187  2.1181  0.1134
  276MOL0     H37208  -0.554   9.752   0.998  3.3014  0.3360 -1.3703
  276MOL0     H37209  -0.646   9.459   1.025 -0.9023 -0.1162 -2.1857
  276MOL0     H37210  -0.679   9.557   0.889 -3.3890 -1.9022  0.0004
  276MOL0     H37211  -0.811   9.819   0.979  0.8203  2.2145  3.2209
  276MOL0     H37212  -1.001   9.942   1.188  0.6925  0.6152 -1.5259
  276MOL0     H37213  -1.070   9.891   1.034 -0.6399 -0.3724 -0.3421
  276MOL0     H37214  -1.223   9.910   1.248  1.8784  0.9621  0.9733
  276MOL0     H37215  -1.134   9.767   1.314 -1.4650 -0.0960  0.7244
  276MOL0     H37216  -1.209   9.616   1.164  0.6290 -0.3760 -2.3361
  276MOL0     H37217  -1.281   9.731   1.058  0.3406 -0.7317  0.8416
  276MOL0     H37218  -1.388   9.684   1.337 -1.9046 -0.9344  0.3961
  276MOL0     H37219  -1.447   9.609   1.198 -0.8228  0.4747  0.4423
  276MOL0     H37220  -1.628   9.610   1.290 -0.1610  0.0217 -1.1216
  276MOL0     H37221  -1.980   9.615   1.375  1.1183  1.9932 -2.5554
  276MOL0     H37222  -1.843   9.508   1.329  0.1967 -1.5485  2.2423
  276MOL0     H37223  -1.840   9.606   1.485 -0.2445  1.9050 -0.0652
  276MOL0     H37224  -2.317   9.812   1.242 -0.6320 -0.5710  2.9129
  276MOL0     H37225  -2.534   9.903   1.263 -0.6047  1.1497  1.2807
  276MOL0     H37226  -2.537  10.327   1.458  1.2979 -3.1740 -0.1036
  276MOL0     H37227  -2.559  10.376   1.298  1.4258  4.2793  3.9389
  276MOL0     H37228  -2.801  10.276   1.442 -0.1897  0.5463 -1.1316
  276MOL0     H37229  -2.719  10.436   1.485 -1.6128  2.9119 -1.4590
  276MOL0     H37230  -2.824  10.374   1.211 -0.5513  0.6651  0.1341
  276MOL0     H37231  -2.771  10.527   1.264  0.6751  0.0532  0.3948
  276MOL0     H37232  -3.028  10.379   1.362  0.9651 -1.1826  2.5548
  276MOL0     H37233  -2.944  10.511   1.452  0.1894  3.4580 -1.6035
  276MOL0     H37234  -3.053  10.522   1.182 -1.1774 -1.2201  1.7581
  276MOL0     H37235  -2.961  10.655   1.254 -0.4449 -0.3134  0.3404
  276MOL0     H37236  -3.231  10.528   1.360 -1.6197 -0.2595 -0.7035
  276MOL0     H37237  -3.160  10.683   1.422 -0.1218  2.5080 -2.4908
  276MOL0     H37238  -3.188  10.714   1.139  3.0402 -1.3641  1.5016
  276MOL0     H37239  -3.276  10.790   1.268 -1.5514  0.8140 -1.7308
  276MOL0     H37240  -3.450  10.609   1.260 -2.8974  1.4355 -1.0724
  276MOL0     H37241  -3.349  10.526   1.136  0.9876  0.8130 -0.9753
  276MOL0     H37242  -2.357  10.292   1.322 -2.8652 -0.2779  1.9331
  276MOL0     H37243  -2.139  10.196   1.284  1.7939 -3.2288 -2.6964
  276MOL0     H37244  -1.853  10.044   1.225 -0.7622 -0.6410 -1.2147
  276MOL0     H37245  -1.618  10.025   1.174  0.9511 -3.0045 -2.4760
  276MOL0     H37246   0.230   9.224   1.455  0.4036  0.0637 -0.4202
  276MOL0     H37247   0.446   9.167   1.493 -0.3484 -1.7202  0.2744
  276MOL0     H37248   0.918   8.911   1.445  2.7370 -0.2606  1.8940
  276MOL0     H37249   1.148   8.914   1.453 -1.7344 -0.5826  0.3234
  276MOL0     H37250   1.436   9.183   1.268  0.0441  1.1724 -1.9106
  276MOL0     H37251   1.305   9.299   1.252  0.0681 -0.6952  1.1908
  276MOL0     H37252   1.347   9.385   1.493 -0.5773 -2.0035  0.0258
  276MOL0     H37253   1.458   9.425   1.369 -2.2659  0.9195 -0.2558
  276MOL0     H37254   1.500   9.203   1.576  2.7616 -2.0722 -1.3864
  276MOL0     H37255   1.558   9.359   1.593 -1.1775 -1.2650  1.0305
  276MOL0     H37256   1.639   9.184   1.357 -1.1991  0.9873 -1.3156
  276MOL0     H37257   1.737   9.207   1.512  1.4992 -3.4063 -3.3180
  276MOL0     H37258   1.790   9.574   1.292  0.2972  1.3259  2.6479
  276MOL0     H37259   1.129   9.342   1.366 -0.2387  0.7965  0.6724
  276MOL0     H37260   0.887   9.347   1.383  0.8789 -0.1017 -1.3203
  277MOL0     O37261   1.787   3.246  10.089  0.4053 -0.7635  0.1547
  277MOL0     C37262   1.809   3.346  10.154  1.1261 -0.0820 -0.3047
  277MOL0     O37263   1.750   3.365  10.280  0.5166 -0.1244  0.0058
  277MOL0     C37264   1.636   3.304  10.322  0.2675  0.6449 -0.8444
  277MOL0     C37265   1.539   3.268  10.236 -0.3995  0.7061 -0.2414
  277MOL0     C37266   1.421   3.204  10.285 -0.5071 -0.0378 -0.0418
  277MOL0     C37267   1.403   3.170  10.426 -0.1273  0.3772 -0.3681
  277MOL0     O37268   1.288   3.114  10.477  0.0598 -0.8406  0.0827
  277MOL0     C37269   1.170   3.093  10.384 -0.2227  1.2731 -0.5626
  277MOL0     C37270   1.050   3.028  10.459 -0.2708 -0.5958  0.3735
  277MOL0     C37271   0.962   3.126  10.543 -0.5609  0.6420  0.0711
  277MOL0     C37272   0.856   3.046  10.621  0.1307  0.8337 -0.0620
  277MOL0     C37273   0.777   3.124  10.734  0.4929  0.0724 -0.4361
  277MOL0     C37274   0.744   3.270  10.701  0.3047  0.4574 -0.5414
  277MOL0     C37275   0.651   3.273  10.575  0.4839 -0.6034 -0.2332
  277MOL0     C37276   0.555   3.390  10.569 -0.1417 -0.9175 -0.5834
  277MOL0     N37277   0.482   3.398  10.444 -0.0870  0.2539  0.0038
  277MOL0     C37278   0.424   3.301  10.373  0.1206 -0.2388  0.6598
  277MOL0     C37279   0.379   3.365  10.266 -0.6722  0.3454  0.3856
  277MOL0     C37280   0.326   3.289  10.146  0.2977  0.4597  0.3259
  277MOL0     C37281   0.176   3.289  10.128  0.1315  0.7863 -0.7089
  277MOL0     C37282   0.140   3.205  10.009 -0.4645  0.4190 -0.9423
  277MOL0     C37283  -0.007   3.179   9.989  0.5688 -0.3177  0.3952
  277MOL0     O37284  -0.069   3.310   9.969 -0.6151 -0.1459 -0.7356
  277MOL0     C37285  -0.182   3.315   9.893 -0.1847  0.6273 -0.8110
  277MOL0     C37286  -0.239   3.205   9.816 -0.2371 -0.1668  0.2892
  277MOL0     C37287  -0.363   3.215   9.736 -0.1251  0.6841 -0.2104
  277MOL0     C37288  -0.405   3.083   9.662 -0.3181 -0.4766  0.3869
  277MOL0     C37289  -0.431   3.336   9.735 -0.4683  0.5584 -0.4574
  277MOL0     C37290  -0.554   3.359   9.657 -0.6565 -0.0356 -0.1329
  277MOL0     O37291  -0.622   3.249   9.597 -1.0738 -0.4169 -0.5290
  277MOL0     C37292  -0.747   3.273   9.551 -0.2325  0.1339  0.6960
  277MOL0     C37293  -0.768   3.336   9.429  0.5489 -0.4268 -0.7421
  277MOL0     C37294  -0.892   3.366   9.376 -0.5296  0.0337 -0.2465
  277MOL0     C37295  -1.011   3.331   9.444 -0.4152  0.2080 -0.8303
  277MOL0     O37296  -1.145   3.341   9.423 -0.0215 -0.3322  0.3046
  277MOL0     C37297  -1.173   3.421   9.308  0.3459  0.1499 -0.1097
  277MOL0     C37298  -1.318   3.426   9.261 -0.4523  0.2459 -0.0687
  277MOL0     C37299  -1.422   3.502   9.350 -0.6737 -0.7373  0.2416
  277MOL0     C37300  -1.384   3.649   9.362  0.1144  0.5568  0.1243
  277MOL0     C37301  -1.406   3.723   9.227 -0.0810 -0.5025  0.2363
  277MOL0     C37302  -1.385   3.873   9.262 -0.0740 -0.6472  0.6169
  277MOL0     C37303  -1.288   3.924   9.372 -0.1811  0.0442  0.4454
  277MOL0     C37304  -1.136   3.904   9.338 -0.3230 -0.6470  0.3599
  277MOL0    Cl37305  -1.051   3.953   9.485 -0.0010  0.3126  0.1878
  277MOL0     C37306  -0.990   3.265   9.574  0.2947  0.0304  0.7042
  277MOL0     C37307  -0.859   3.238   9.621  0.3209  0.7197  0.3289
  277MOL0     O37308  -0.586   3.473   9.647  0.2110  0.9222 -0.0469
  277MOL0     C37309  -0.375   3.443   9.817  0.2263  1.0320 -0.2243
  277MOL0     C37310  -0.252   3.436   9.886  0.0892  0.3099 -0.1250
  277MOL0     N37311   0.400   3.498  10.265 -1.0090 -0.1677 -0.4270
  277MOL0     N37312   0.465   3.520  10.373  0.7918  0.5982 -0.2717
  277MOL0     C37313   1.511   3.198  10.509 -0.6583  0.2950  0.7487
  277MOL0     C37314   1.617   3.270  10.459  1.3068 -0.7580  0.4222
  277MOL0     C37315   1.918   3.434  10.110 -0.6918 -0.2799  0.2867
  277MOL0     C37316   2.012   3.389  10.010 -0.2489 -0.3012 -0.3290
  277MOL0     C37317   2.124   3.462   9.975 -0.8629  0.3708  0.2235
  277MOL0     C37318   2.141   3.597  10.014 -0.6770 -0.1103  0.2649
  277MOL0     O37319   2.249   3.676   9.981  0.0387 -0.3355 -0.6002
  277MOL0     C37320   2.319   3.644   9.861 -0.0068  0.6132  0.3017
  277MOL0     C37321   2.434   3.744   9.854 -0.3230 -0.0823  0.0434
  277MOL0     C37322   2.559   3.706   9.940  0.3110 -0.8093 -0.4120
  277MOL0     C37323   2.662   3.817   9.935  0.1058  0.3640  0.0045
  277MOL0     C37324   2.730   3.810   9.808  0.1313  0.4095 -0.0394
  277MOL0     C37325   2.781   3.812   9.691  0.6593  0.3869  0.1252
  277MOL0     C37326   2.033   3.643  10.095 -0.2479 -0.8473 -1.2850
  277MOL0     C37327   1.931   3.567  10.154  0.0079  0.8495  0.7410
  277MOL0     H37328   1.542   3.312  10.137 -1.7859  0.5758 -0.3581
  277MOL0     H37329   1.346   3.188  10.207  0.4687  0.7735 -1.1824
  277MOL0     H37330   1.142   3.184  10.330  1.0873  2.6974  1.0320
  277MOL0     H37331   1.196   3.019  10.308  1.3353  0.3365  0.8066
  277MOL0     H37332   0.981   2.995  10.380  0.9091  0.5015 -1.1851
  277MOL0     H37333   1.082   2.940  10.516  1.4587  0.4973  1.1752
  277MOL0     H37334   1.021   3.186  10.613  1.0632 -1.1368  0.3257
  277MOL0     H37335   0.915   3.194  10.472  1.2675  1.3679 -0.5212
  277MOL0     H37336   0.798   3.000  10.540  3.4661 -0.8614 -1.6962
  277MOL0     H37337   0.908   2.959  10.664  1.0752  1.8264  0.8576
  277MOL0     H37338   0.687   3.067  10.760  0.4539 -0.3520 -1.4557
  277MOL0     H37339   0.847   3.124  10.818 -1.4309  3.4781  1.4144
  277MOL0     H37340   0.691   3.319  10.784  0.3691 -1.0239  0.4202
  277MOL0     H37341   0.823   3.341  10.675 -0.3462 -0.1090 -4.6619
  277MOL0     H37342   0.719   3.293  10.491  0.1177  5.4361  0.4092
  277MOL0     H37343   0.592   3.181  10.571 -0.2053 -0.1341 -1.9418
  277MOL0     H37344   0.609   3.477  10.609 -0.8540 -0.6407 -0.1951
  277MOL0     H37345   0.474   3.391  10.643  0.7276 -2.3699  0.4405
  277MOL0     H37346   0.426   3.194  10.392  0.3654 -0.3919 -0.1852
  277MOL0     H37347   0.367   3.339  10.058 -0.2812  3.9954  1.9132
  277MOL0     H37348   0.364   3.186  10.147 -0.8957 -0.3882 -5.3942
  277MOL0     H37349   0.138   3.392  10.126  3.2831  2.0357 -1.2317
  277MOL0     H37350   0.130   3.241  10.216  0.6266 -0.5864 -1.1711
  277MOL0     H37351   0.177   3.104  10.031 -0.6654  0.5374 -0.0362
  277MOL0     H37352   0.191   3.240   9.919 -1.0042 -0.7885 -1.7407
  277MOL0     H37353  -0.060   3.134  10.073 -0.5977 -2.8518 -1.5950
  277MOL0     H37354  -0.019   3.103   9.912  0.2471 -0.5882  0.7137
  277MOL0     H37355  -0.201   3.104   9.812  0.1384 -0.0732  1.2503
  277MOL0     H37356  -0.331   3.003   9.667  0.9238  0.4857 -1.2689
  277MOL0     H37357  -0.507   3.053   9.685 -0.5257  1.0232  1.5633
  277MOL0     H37358  -0.410   3.097   9.553 -1.2327 -0.6861  0.3914
  277MOL0     H37359  -0.683   3.376   9.375 -0.2298 -1.6002 -2.9434
  277MOL0     H37360  -0.896   3.417   9.281  0.9266  1.8531  0.5937
  277MOL0     H37361  -1.133   3.521   9.325  1.2215  0.2004 -2.1389
  277MOL0     H37362  -1.121   3.369   9.226 -1.2357 -0.1500 -0.9519
  277MOL0     H37363  -1.325   3.467   9.160 -2.7671  1.1876  0.4074
  277MOL0     H37364  -1.349   3.322   9.248  0.9751  0.1433 -3.7732
  277MOL0     H37365  -1.437   3.452   9.446 -0.0188 -1.3446  0.0339
  277MOL0     H37366  -1.520   3.496   9.300 -0.6571  1.1119 -0.0902
  277MOL0     H37367  -1.450   3.693   9.437 -2.0806  1.4915 -2.2036
  277MOL0     H37368  -1.281   3.651   9.399  0.0679 -1.0739  0.4151
  277MOL0     H37369  -1.501   3.703   9.177 -0.8174  1.7500  0.6377
  277MOL0     H37370  -1.331   3.689   9.154 -0.1856  0.0507 -0.1287
  277MOL0     H37371  -1.365   3.928   9.170  1.3629 -2.0260  0.0511
  277MOL0     H37372  -1.487   3.897   9.294  0.2580  1.9250 -0.0211
  277MOL0     H37373  -1.314   3.872   9.464 -0.7007 -0.6918 -0.1098
  277MOL0     H37374  -1.307   4.032   9.384  0.1661  0.1109  0.3849
  277MOL0     H37375  -1.108   3.980   9.265  1.5399 -2.7166 -1.1971
  277MOL0     H37376  -1.111   3.807   9.294 -0.6332 -1.5584  2.0993
  277MOL0     H37377  -1.071   3.239   9.641  0.6116  0.7767  1.3869
  277MOL0     H37378  -0.849   3.182   9.713  1.3054 -2.0878 -1.3443
  277MOL0     H37379  -0.432   3.534   9.829 -0.7898  0.4502 -0.4693
  277MOL0     H37380  -0.226   3.520   9.949 -2.1829  0.5590  0.5477
  277MOL0     H37381   1.511   3.198  10.618  0.3818 -1.6379  0.7973
  277MOL0     H37382   1.692   3.317  10.522  3.0401 -1.9091 -0.7100
  277MOL0     H37383   2.012   3.288   9.970  1.9068 -0.6074  0.3162
  277MOL0     H37384   2.207   3.409   9.928  0.0265 -0.9433  3.0448
  277MOL0     H37385   2.367   3.546   9.855  1.3575  1.3438 -1.4742
  277MOL0     H37386   2.253   3.649   9.775 -0.3336  0.6995  0.5546
  277MOL0     H37387   2.402   3.842   9.890  0.4534  0.7487 -1.4346
  277MOL0     H37388   2.457   3.767   9.749  0.9219 -0.3879  0.2333
  277MOL0     H37389   2.608   3.612   9.911  2.9299 -0.9127  3.5004
  277MOL0     H37390   2.523   3.689  10.042  1.9423  4.2161  1.2941
  277MOL0     H37391   2.738   3.802  10.013  0.5717  0.2192 -0.4748
  277MOL0     H37392   2.614   3.915   9.938  2.7646  1.7675 -0.3126
  277MOL0     H37393   2.828   3.800   9.596 -0.9993 -1.2413 -0.5413
  277MOL0     H37394   2.041   3.742  10.138 -1.3784 -0.6329 -1.5265
  277MOL0     H37395   1.864   3.605  10.230 -3.0373 -2.4508 -0.0319
  278MOL0     O37396   8.689   7.214   2.979 -0.2906  0.1920  0.8263
  278MOL0     C37397   8.780   7.297   3.001 -0.0296 -0.4849 -0.6104
  278MOL0     O37398   8.762   7.414   3.077 -0.5824 -0.4625 -0.6644
  278MOL0     C37399   8.635   7.441   3.122  0.5388  0.4756  0.9570
  278MOL0     C37400   8.613   7.430   3.259 -0.3915  0.0920 -0.4314
  278MOL0     C37401   8.494   7.461   3.313  0.4945 -0.4065 -0.5264
  278MOL0     C37402   8.386   7.512   3.228 -0.7069  0.7870 -0.3084
  278MOL0     O37403   8.272   7.550   3.297 -0.1793 -0.1300 -0.1912
  278MOL0     C37404   8.164   7.601   3.218 -0.1289 -0.4236  0.5790
  278MOL0     C37405   8.031   7.615   3.289 -0.8694 -0.0708  0.4495
  278MOL0     C37406   7.927   7.634   3.180  0.5082 -0.1036  0.4912
  278MOL0     C37407   7.800   7.702   3.240 -0.1384  0.2753 -0.7181
  278MOL0     C37408   7.814   7.848   3.293  0.5182 -1.1587  0.0804
  278MOL0     C37409   7.673   7.913   3.301 -0.2318 -0.2340 -0.1893
  278MOL0     C37410   7.564   7.827   3.379  0.4282  0.1400  0.9047
  278MOL0     C37411   7.600   7.774   3.522  0.0987  0.3323 -0.4581
  278MOL0     N37412   7.480   7.725   3.590  0.1481  0.6755 -0.6567
  278MOL0     C37413   7.381   7.796   3.654 -0.2151 -0.4805  0.3180
  278MOL0     C37414   7.274   7.721   3.670  1.3583 -0.2083  0.2185
  278MOL0     C37415   7.146   7.765   3.746 -0.5448 -0.3903 -0.5193
  278MOL0     C37416   7.023   7.750   3.668  0.0924  0.8290  0.5628
  278MOL0     C37417   6.908   7.693   3.746 -0.5508  0.0277  0.8810
  278MOL0     C37418   6.865   7.808   3.849  0.7238 -0.8310 -0.3790
  278MOL0     O37419   6.770   7.880   3.771  1.2563  0.6103 -0.1780
  278MOL0     C37420   6.667   7.949   3.835  0.0940 -0.1086  0.0084
  278MOL0     C37421   6.672   8.002   3.968 -0.4187 -0.3244 -0.3243
  278MOL0     C37422   6.569   8.082   4.021 -0.6737  0.6107 -1.2605
  278MOL0     C37423   6.590   8.148   4.152 -0.5786 -0.6600 -0.7042
  278MOL0     C37424   6.449   8.093   3.950 -1.0534 -0.6908 -0.7196
  278MOL0     C37425   6.329   8.186   3.986 -0.3127  0.0722  0.1587
  278MOL0     O37426   6.323   8.238   4.113  0.0432  0.0645  0.3370
  278MOL0     C37427   6.206   8.274   4.171 -0.4585 -0.7573  0.1087
  278MOL0     C37428   6.193   8.407   4.217  0.3031 -0.6054  0.2829
  278MOL0     C37429   6.070   8.453   4.278 -0.1780 -0.4607  0.1693
  278MOL0     C37430   5.969   8.360   4.308  0.2322 -0.3589  0.4047
  278MOL0     O37431   5.856   8.386   4.377  0.1467 -0.1204 -0.6084
  278MOL0     C37432   5.798   8.519   4.377  0.2625  0.8435  1.0653
  278MOL0     C37433   5.651   8.506   4.421  0.7790 -0.2346 -0.2703
  278MOL0     C37434   5.587   8.643   4.412 -0.3146 -0.2778 -0.5094
  278MOL0     C37435   5.435   8.626   4.462 -0.0022  0.0099  0.2463
  278MOL0     C37436   5.360   8.756   4.480  0.0344 -0.5902  0.5024
  278MOL0     C37437   5.240   8.729   4.561  1.4308  0.4785 -0.1331
  278MOL0     C37438   5.157   8.859   4.556 -0.1223 -0.5086 -0.1747
  278MOL0     C37439   5.017   8.818   4.597  0.5436  0.1437  0.3986
  278MOL0    Cl37440   4.905   8.947   4.575 -0.2808  0.1311  0.3333
  278MOL0     C37441   5.989   8.226   4.266  0.6326  0.4635 -0.7488
  278MOL0     C37442   6.098   8.190   4.189  0.3216  0.9109  0.3687
  278MOL0     O37443   6.249   8.211   3.890 -0.5582  0.0272  0.1870
  278MOL0     C37444   6.438   8.036   3.821 -0.0566 -0.5169  0.4311
  278MOL0     C37445   6.548   7.966   3.765 -0.6174  0.1808 -0.5054
  278MOL0     N37446   7.321   7.595   3.624 -0.7010 -0.1692 -0.2294
  278MOL0     N37447   7.438   7.597   3.565  0.6669 -0.0061 -0.0231
  278MOL0     C37448   8.412   7.533   3.090 -1.0550 -1.2507  0.0681
  278MOL0     C37449   8.541   7.501   3.039  0.1757 -0.1051 -0.2512
  278MOL0     C37450   8.915   7.272   2.937  0.5049  0.0963  0.1031
  278MOL0     C37451   9.032   7.352   2.970  1.2623 -1.0562 -0.4273
  278MOL0     C37452   9.143   7.334   2.894  0.1456 -0.3659 -0.3331
  278MOL0     C37453   9.160   7.238   2.803 -0.4505 -0.0905  0.0442
  278MOL0     O37454   9.273   7.216   2.731  0.2325  0.0450 -0.2316
  278MOL0     C37455   9.390   7.304   2.742  0.7382  0.3852 -0.4548
  278MOL0     C37456   9.496   7.272   2.641  0.6023  0.2040 -0.0220
  278MOL0     C37457   9.615   7.365   2.662  0.6192 -0.2195  0.4749
  278MOL0     C37458   9.733   7.321   2.569  0.6123  0.1093  0.5675
  278MOL0     C37459   9.716   7.358   2.427  1.0315  0.0287 -0.1218
  278MOL0     C37460   9.691   7.382   2.309 -0.0119  0.0624  0.8312
  278MOL0     C37461   9.056   7.142   2.787 -0.8368  0.5371 -0.5705
  278MOL0     C37462   8.935   7.162   2.850  0.2070  0.7225 -0.4652
  278MOL0     H37463   8.698   7.393   3.316  0.4139  0.9026 -1.0760
  278MOL0     H37464   8.464   7.459   3.417  0.5839 -0.1689 -0.4950
  278MOL0     H37465   8.193   7.698   3.176 -1.3866 -0.0273  0.5766
  278MOL0     H37466   8.144   7.537   3.131  0.4978 -0.2110  0.2741
  278MOL0     H37467   8.007   7.520   3.339 -1.1992  0.0591  0.5349
  278MOL0     H37468   8.028   7.681   3.376  2.1686  1.1067 -0.2050
  278MOL0     H37469   7.969   7.694   3.099  0.5468 -0.8431 -0.0459
  278MOL0     H37470   7.894   7.540   3.137 -3.7681  0.5778  1.8521
  278MOL0     H37471   7.712   7.698   3.176 -0.4354  3.6935 -0.7247
  278MOL0     H37472   7.777   7.641   3.327 -0.6222  0.0285 -1.0150
  278MOL0     H37473   7.867   7.845   3.388  4.7178 -0.7269 -1.9769
  278MOL0     H37474   7.881   7.901   3.224  1.0702 -0.3549  1.1990
  278MOL0     H37475   7.680   8.012   3.347 -1.3842  1.6168 -3.7186
  278MOL0     H37476   7.641   7.930   3.198 -0.5222  4.5776  0.4794
  278MOL0     H37477   7.474   7.887   3.390 -2.3365 -3.3480 -0.5639
  278MOL0     H37478   7.545   7.744   3.309 -0.5985 -2.4285  3.9737
  278MOL0     H37479   7.641   7.858   3.578 -0.9344  0.0093  0.8426
  278MOL0     H37480   7.669   7.690   3.526  0.1382  0.3710 -0.3226
  278MOL0     H37481   7.397   7.892   3.703 -0.4317  0.9122 -2.1641
  278MOL0     H37482   7.145   7.701   3.835  0.7212 -0.1368 -0.2992
  278MOL0     H37483   7.155   7.867   3.783  1.1175  1.0600 -4.3731
  278MOL0     H37484   7.038   7.681   3.584 -0.3649  1.0281  0.3131
  278MOL0     H37485   7.002   7.848   3.625 -0.3898  0.7658  0.6522
  278MOL0     H37486   6.944   7.599   3.789 -0.3362 -0.1712  0.2639
  278MOL0     H37487   6.825   7.673   3.678 -0.2951  1.4280  0.1188
  278MOL0     H37488   6.946   7.875   3.879  0.8708 -0.4157 -1.6268
  278MOL0     H37489   6.828   7.758   3.938  2.7131 -1.9782 -0.1410
  278MOL0     H37490   6.760   7.991   4.031  0.0740  0.2390 -0.9029
  278MOL0     H37491   6.685   8.112   4.192 -0.3221 -0.1917 -0.8825
  278MOL0     H37492   6.582   8.257   4.144 -2.5063 -0.7917 -1.0178
  278MOL0     H37493   6.511   8.127   4.224 -0.5361 -2.8658 -1.2473
  278MOL0     H37494   6.279   8.474   4.210 -1.4676  1.7685  0.0198
  278MOL0     H37495   6.074   8.554   4.317  1.1495 -0.5502  0.3030
  278MOL0     H37496   5.858   8.590   4.435  3.3241 -1.2885  0.7490
  278MOL0     H37497   5.812   8.555   4.275 -0.3277 -0.1943  0.6010
  278MOL0     H37498   5.601   8.438   4.351  3.5862 -1.9856 -0.7010
  278MOL0     H37499   5.638   8.462   4.520  0.0461 -1.9195 -1.0861
  278MOL0     H37500   5.597   8.686   4.312  3.5080  1.6865  0.5358
  278MOL0     H37501   5.643   8.710   4.477 -0.3009  1.1112 -1.8875
  278MOL0     H37502   5.371   8.568   4.394 -1.1211  0.1677  1.1369
  278MOL0     H37503   5.438   8.567   4.554  1.4031 -2.3090 -1.1795
  278MOL0     H37504   5.319   8.794   4.386 -1.0812  0.9094  1.5439
  278MOL0     H37505   5.420   8.839   4.520 -0.3538 -0.4793  0.8614
  278MOL0     H37506   5.181   8.652   4.510  0.7487  2.0333 -1.8097
  278MOL0     H37507   5.273   8.695   4.660  2.5524  2.4463  0.2178
  278MOL0     H37508   5.161   8.910   4.460  1.5601 -0.0259  0.1086
  278MOL0     H37509   5.210   8.925   4.626  2.6872 -2.0277 -0.7000
  278MOL0     H37510   5.009   8.782   4.699 -1.2062  0.5964  0.4544
  278MOL0     H37511   4.988   8.742   4.524 -1.0386 -0.1048  1.2466
  278MOL0     H37512   5.910   8.156   4.286  0.8614  0.6780  1.0955
  278MOL0     H37513   6.113   8.089   4.152  0.8563 -0.0480  3.0420
  278MOL0     H37514   6.344   8.042   3.768  1.7737  0.1427 -2.9895
  278MOL0     H37515   6.566   7.936   3.662  2.4132  0.2232 -0.0716
  278MOL0     H37516   8.341   7.592   3.033 -0.4880  0.8810  1.4419
  278MOL0     H37517   8.570   7.525   2.937 -2.2587  2.1340 -0.5343
  278MOL0     H37518   9.015   7.447   3.019 -1.4496  0.6471 -4.1867
  278MOL0     H37519   9.216   7.412   2.909 -1.9847  1.3026  2.3292
  278MOL0     H37520   9.348   7.402   2.719 -1.5936 -0.3789  0.1962
  278MOL0     H37521   9.432   7.305   2.843 -2.8807 -1.4770  1.2739
  278MOL0     H37522   9.456   7.275   2.539  1.6995  1.0842 -0.4574
  278MOL0     H37523   9.539   7.172   2.652  0.3901 -0.1357 -1.9678
  278MOL0     H37524   9.652   7.368   2.765 -0.6287 -4.3327  1.2402
  278MOL0     H37525   9.582   7.466   2.637  0.0973 -0.9492 -2.0675
  278MOL0     H37526   9.735   7.212   2.577 -1.4679 -0.0939 -0.8443
  278MOL0     H37527   9.830   7.364   2.597 -0.1525  1.1731  1.6975
  278MOL0     H37528   9.667   7.380   2.205  1.5259 -1.8481  0.4640
  278MOL0     H37529   9.069   7.059   2.719 -0.9813  0.6776 -0.7737
  278MOL0     H37530   8.859   7.088   2.827  1.8929 -1.7773  1.3767
  279MOL0     O37531   0.365   6.644  10.331  0.4426  0.1106 -0.1172
  279MOL0     C37532   0.419   6.723  10.244 -0.6181 -0.1618  0.1931
  279MOL0     O37533   0.364   6.774  10.133  0.3651  0.2436 -0.2993
  279MOL0     C37534   0.232   6.777  10.129 -0.1077  0.4347  0.5322
  279MOL0     C37535   0.177   6.902  10.153  0.0884 -0.3090  0.0417
  279MOL0     C37536   0.040   6.917  10.147 -0.1430  0.7543 -0.7606
  279MOL0     C37537  -0.043   6.803  10.122  0.0957 -0.3928 -0.3074
  279MOL0     O37538  -0.180   6.816  10.110 -0.0676 -0.0987  0.5044
  279MOL0     C37539  -0.245   6.916  10.177 -0.1725 -1.3318 -0.4922
  279MOL0     C37540  -0.405   6.911  10.172 -0.3099 -0.1598 -0.0449
  279MOL0     C37541  -0.475   6.869  10.037 -0.6719 -0.5401 -0.3143
  279MOL0     C37542  -0.632   6.894  10.024 -0.8657 -0.0260 -0.5152
  279MOL0     C37543  -0.721   6.793  10.073  0.4368  0.3152  0.1731
  279MOL0     C37544  -0.862   6.830  10.029  0.5342 -0.5100 -0.1038
  279MOL0     C37545  -0.955   6.715  10.084  0.0086 -0.2347  0.0477
  279MOL0     C37546  -1.105   6.739  10.062 -0.2195 -0.2727  0.3578
  279MOL0     N37547  -1.150   6.843  10.152 -0.0517 -0.2252 -0.2331
  279MOL0     C37548  -1.200   6.964  10.110  1.2622 -0.0545 -0.5942
  279MOL0     C37549  -1.236   7.035  10.223 -0.1327  1.2495 -0.5149
  279MOL0     C37550  -1.283   7.179  10.216 -0.7789  0.1637 -0.5892
  279MOL0     C37551  -1.429   7.193  10.265 -0.6466  0.8275 -0.0224
  279MOL0     C37552  -1.523   7.164  10.137  0.3016 -0.6833 -0.7116
  279MOL0     C37553  -1.670   7.162  10.182  0.7962 -0.0905 -0.7537
  279MOL0     O37554  -1.710   7.275  10.254 -0.2221  0.7524 -0.0525
  279MOL0     C37555  -1.842   7.268  10.291  0.3491  0.1174 -0.4191
  279MOL0     C37556  -1.928   7.163  10.269  0.5005  0.2842 -0.6262
  279MOL0     C37557  -2.056   7.159  10.332  0.1272 -1.6741 -0.1535
  279MOL0     C37558  -2.134   7.038  10.288 -0.7392 -0.0435  0.3608
  279MOL0     C37559  -2.106   7.272  10.413 -0.0788 -0.6692  0.1905
  279MOL0     C37560  -2.251   7.284  10.462 -0.4452  0.4713  1.2761
  279MOL0     O37561  -2.262   7.346  10.591 -0.3229  0.2744 -0.6289
  279MOL0     C37562  -2.386   7.344  10.651 -0.1086 -0.0411 -0.3648
  279MOL0     C37563  -2.511   7.367  10.587  0.5341  0.7888  0.3438
  279MOL0     C37564  -2.640   7.365  10.645  1.0017  1.4443  1.0003
  279MOL0     C37565  -2.652   7.350  10.783  0.0256  0.4859 -0.6887
  279MOL0     O37566  -2.769   7.333  10.853 -0.3647  0.4555  0.0019
  279MOL0     C37567  -2.894   7.330  10.784 -0.0222 -0.0677  0.9815
  279MOL0     C37568  -3.002   7.297  10.883 -0.5317 -0.1700 -0.1136
  279MOL0     C37569  -3.126   7.244  10.811  0.5663 -0.1266  0.1832
  279MOL0     C37570  -3.209   7.344  10.727 -0.1966  0.4836  0.2247
  279MOL0     C37571  -3.252   7.466  10.805 -0.1283 -0.3482  0.0237
  279MOL0     C37572  -3.338   7.570  10.722 -1.1831 -0.0717 -0.4126
  279MOL0     C37573  -3.359   7.695  10.817 -0.8914  0.0632 -0.0064
  279MOL0     C37574  -3.425   7.815  10.735 -0.0652 -0.1173 -0.1864
  279MOL0    Cl37575  -3.597   7.768  10.713 -0.0356  0.3883 -0.0990
  279MOL0     C37576  -2.530   7.326  10.851  0.3318  0.1365 -0.4206
  279MOL0     C37577  -2.399   7.326  10.795 -0.4147  0.1580  0.3606
  279MOL0     O37578  -2.340   7.232  10.399 -0.4117 -0.3968  0.4047
  279MOL0     C37579  -2.017   7.376  10.431 -0.1645 -0.2722  0.7320
  279MOL0     C37580  -1.891   7.370  10.370  0.2460 -0.3254 -0.3738
  279MOL0     N37581  -1.215   6.950  10.331 -0.2437 -0.0755 -0.0989
  279MOL0     N37582  -1.166   6.837  10.289  0.2078 -0.1365  0.4379
  279MOL0     C37583   0.012   6.681  10.099 -1.5769  0.4818 -0.6692
  279MOL0     C37584   0.151   6.669  10.100 -0.6054  0.0642  0.0674
  279MOL0     C37585   0.542   6.791  10.284  0.3284 -0.3597 -0.3304
  279MOL0     C37586   0.590   6.902  10.208 -1.0454  0.3937 -0.0482
  279MOL0     C37587   0.711   6.961  10.248 -0.2005  0.3141 -0.3304
  279MOL0     C37588   0.794   6.912  10.350 -0.3410  0.7194 -0.6396
  279MOL0     O37589   0.927   6.959  10.369  0.3971  0.7192 -0.0849
  279MOL0     C37590   1.025   6.884  10.283  0.2264 -0.2139 -0.0815
  279MOL0     C37591   1.152   6.942  10.297 -0.5570 -0.5676  0.0671
  279MOL0     C37592   1.218   6.941  10.432 -0.6188  0.0157 -0.2185
  279MOL0     C37593   1.367   6.986  10.432 -0.6848  0.3107  0.5691
  279MOL0     C37594   1.385   7.123  10.385  0.2927 -0.8388 -0.2306
  279MOL0     C37595   1.394   7.241  10.345 -0.6807 -0.4655  0.0307
  279MOL0     C37596   0.746   6.808  10.427  0.3074 -0.5180  0.0090
  279MOL0     C37597   0.619   6.743  10.390 -0.5153 -0.2991  0.3568
  279MOL0     H37598   0.237   6.991  10.168  1.9423 -0.9782 -2.6308
  279MOL0     H37599  -0.001   7.014  10.173 -0.7225  0.6370 -1.2257
  279MOL0     H37600  -0.207   6.927  10.280  2.8167  1.4745 -1.7196
  279MOL0     H37601  -0.223   7.015  10.137  1.6452 -2.8393 -3.5496
  279MOL0     H37602  -0.435   6.832  10.241  4.4122 -2.1369  0.1292
  279MOL0     H37603  -0.453   7.003  10.205 -0.2894 -1.1238  2.9646
  279MOL0     H37604  -0.416   6.924   9.963 -1.4110  0.1080 -0.4319
  279MOL0     H37605  -0.456   6.762  10.024  1.9824 -0.2886  0.8498
  279MOL0     H37606  -0.658   6.989  10.071 -0.9067 -0.8793  1.2552
  279MOL0     H37607  -0.645   6.907   9.916 -1.9610 -1.8747 -0.6611
  279MOL0     H37608  -0.690   6.696  10.033  0.9795 -0.3639  2.0923
  279MOL0     H37609  -0.712   6.780  10.181 -0.0743  0.1899  0.1998
  279MOL0     H37610  -0.887   6.933  10.054 -0.0471 -1.0543  1.7295
  279MOL0     H37611  -0.874   6.833   9.920  1.7629  1.7847 -0.2420
  279MOL0     H37612  -0.934   6.615  10.046 -0.7561 -1.0312  1.6522
  279MOL0     H37613  -0.939   6.706  10.192  3.0190  1.3827 -0.1567
  279MOL0     H37614  -1.156   6.644  10.081  0.2434 -0.8803 -1.2843
  279MOL0     H37615  -1.127   6.763   9.958 -1.6964 -0.5963  0.5781
  279MOL0     H37616  -1.217   6.995  10.007  0.2050 -2.0704 -1.0669
  279MOL0     H37617  -1.223   7.244  10.280  1.8133 -2.3957 -0.1935
  279MOL0     H37618  -1.282   7.216  10.113  0.4496 -0.2251 -0.7355
  279MOL0     H37619  -1.440   7.296  10.298 -2.9018 -0.0612  2.4241
  279MOL0     H37620  -1.444   7.122  10.347  0.1334  0.5784 -0.0916
  279MOL0     H37621  -1.496   7.065  10.101  1.6835 -1.1884  1.5610
  279MOL0     H37622  -1.512   7.240  10.059 -0.7470 -0.2957 -0.5102
  279MOL0     H37623  -1.687   7.075  10.246 -3.4356  0.9946 -0.0901
  279MOL0     H37624  -1.722   7.163  10.085  1.8155  0.3784 -1.3144
  279MOL0     H37625  -1.900   7.096  10.189  1.7813  2.6316 -2.2560
  279MOL0     H37626  -2.197   6.999  10.368 -0.5991 -0.7241  0.1447
  279MOL0     H37627  -2.205   7.051  10.207  0.8173  0.4083 -0.9864
  279MOL0     H37628  -2.073   6.953  10.256 -3.8383 -0.9087 -3.9982
  279MOL0     H37629  -2.501   7.383  10.481 -4.3111 -1.7847 -0.8047
  279MOL0     H37630  -2.724   7.371  10.577  1.3210 -4.2947 -0.4034
  279MOL0     H37631  -2.917   7.432  10.751  1.9364  0.2206  0.3873
  279MOL0     H37632  -2.896   7.256  10.703  2.1528 -2.5484  3.0237
  279MOL0     H37633  -2.959   7.213  10.938 -0.2626 -1.4879 -2.2146
  279MOL0     H37634  -3.025   7.382  10.947 -1.6332  0.2308 -1.0144
  279MOL0     H37635  -3.194   7.209  10.889  1.6867 -0.1367  1.1667
  279MOL0     H37636  -3.102   7.162  10.744 -1.2040 -0.0391 -0.6359
  279MOL0     H37637  -3.143   7.391  10.653 -0.6518 -0.3432 -0.7421
  279MOL0     H37638  -3.295   7.293  10.680 -0.6724  0.7841  0.7637
  279MOL0     H37639  -3.168   7.527  10.839 -1.0360  1.7269 -1.2572
  279MOL0     H37640  -3.302   7.432  10.896 -0.3804 -0.6343 -0.2250
  279MOL0     H37641  -3.280   7.593  10.633  0.0619 -0.2470  0.3330
  279MOL0     H37642  -3.426   7.514  10.688 -0.1332 -2.3842  0.5118
  279MOL0     H37643  -3.260   7.730  10.850 -0.8381 -0.1907  0.1100
  279MOL0     H37644  -3.408   7.666  10.910  0.6276 -1.0969  0.4795
  279MOL0     H37645  -3.375   7.838  10.641  0.3879  1.9265  0.4927
  279MOL0     H37646  -3.441   7.910  10.787 -1.8556  0.2594 -1.2956
  279MOL0     H37647  -2.539   7.301  10.957 -1.1775  0.6324 -0.4061
  279MOL0     H37648  -2.309   7.311  10.854  0.7179 -0.4696 -1.4372
  279MOL0     H37649  -2.055   7.456  10.493 -1.7250 -0.0337 -0.4719
  279MOL0     H37650  -1.828   7.457  10.385 -1.6198  1.2425 -1.2894
  279MOL0     H37651  -0.048   6.592  10.082 -0.0367 -0.8835  0.7095
  279MOL0     H37652   0.208   6.580  10.077  0.0062 -0.8120  4.1191
  279MOL0     H37653   0.539   6.938  10.119 -0.4948 -0.7671 -0.8629
  279MOL0     H37654   0.744   7.055  10.204  0.6611  1.0923  1.8147
  279MOL0     H37655   1.035   6.777  10.300 -0.0932 -0.3488 -0.7418
  279MOL0     H37656   0.984   6.896  10.183  2.0882  0.0665 -0.8404
  279MOL0     H37657   1.151   7.050  10.276 -1.8762 -0.6826 -0.5173
  279MOL0     H37658   1.215   6.881  10.232 -2.7231 -2.2943 -0.4949
  279MOL0     H37659   1.227   6.840  10.473  1.1303  1.4449  3.3438
  279MOL0     H37660   1.156   7.007  10.494 -2.1949 -0.6524 -1.0266
  279MOL0     H37661   1.430   6.914  10.380 -0.5044  0.3773  0.6919
  279MOL0     H37662   1.402   6.986  10.536  0.0018  0.5787  0.3483
  279MOL0     H37663   1.378   7.342  10.313  1.2847 -0.0960  0.1197
  279MOL0     H37664   0.797   6.776  10.518  1.7049  0.4277 -0.4041
  279MOL0     H37665   0.583   6.671  10.462 -1.3399 -0.7994 -0.5318
  280MOL0     O37666   6.575   6.469   7.823 -0.0092 -0.3084  0.6328
  280MOL0     C37667   6.558   6.565   7.748  0.4465  0.1994  0.9287
  280MOL0     O37668   6.435   6.633   7.718  0.0178  0.0053 -0.1377
  280MOL0     C37669   6.316   6.580   7.755  0.2327  0.1171 -0.8041
  280MOL0     C37670   6.242   6.485   7.683  0.1121  0.5907  0.2325
  280MOL0     C37671   6.131   6.433   7.741 -0.3187 -0.1461  0.4558
  280MOL0     C37672   6.086   6.473   7.862  0.8203  0.0888 -0.8510
  280MOL0     O37673   5.974   6.407   7.901 -0.1384 -0.4636 -0.6364
  280MOL0     C37674   5.872   6.483   7.963  0.6250 -0.2585  0.7734
  280MOL0     C37675   5.749   6.402   7.933 -0.0752  0.0893  0.3820
  280MOL0     C37676   5.707   6.399   7.789 -0.3120 -0.2108 -0.0791
  280MOL0     C37677   5.632   6.517   7.742  0.0118 -0.0646  0.2015
  280MOL0     C37678   5.622   6.524   7.590 -1.3999  0.0700 -0.2840
  280MOL0     C37679   5.531   6.643   7.541  0.1892  0.6287  0.3249
  280MOL0     C37680   5.534   6.647   7.391 -0.0311 -0.3227  0.5699
  280MOL0     C37681   5.440   6.756   7.334 -0.2560  0.5316 -0.3054
  280MOL0     N37682   5.475   6.898   7.338  1.1004  0.4935  0.1657
  280MOL0     C37683   5.388   7.003   7.310 -0.3996 -0.1976 -0.0021
  280MOL0     C37684   5.470   7.104   7.337  0.2768 -0.1361 -0.8298
  280MOL0     C37685   5.432   7.248   7.333 -1.0864 -0.8697 -0.1466
  280MOL0     C37686   5.393   7.314   7.463  0.0191  0.9701 -0.2554
  280MOL0     C37687   5.256   7.252   7.518 -0.2878 -0.2037  0.4784
  280MOL0     C37688   5.135   7.272   7.421 -0.0379 -0.1852  0.0419
  280MOL0     O37689   5.012   7.264   7.498 -0.4069  0.3180 -0.6169
  280MOL0     C37690   4.893   7.274   7.436 -0.6322 -0.5472  0.3700
  280MOL0     C37691   4.872   7.284   7.305 -0.2800 -0.0684  0.1542
  280MOL0     C37692   4.750   7.301   7.244  0.2683 -0.0307 -0.1650
  280MOL0     C37693   4.740   7.313   7.098 -0.3588 -0.5640  0.0218
  280MOL0     C37694   4.635   7.321   7.327 -0.2293  1.1847  0.4794
  280MOL0     C37695   4.504   7.349   7.277 -0.4584 -0.3981 -0.4568
  280MOL0     O37696   4.401   7.260   7.285  0.5419 -0.1380 -0.5979
  280MOL0     C37697   4.273   7.304   7.251  0.6349  0.2080 -0.1823
  280MOL0     C37698   4.198   7.220   7.173  0.8311 -0.2670  0.6961
  280MOL0     C37699   4.067   7.250   7.149 -0.5490 -0.7803  0.3488
  280MOL0     C37700   4.007   7.364   7.206  0.2345 -0.0615 -0.1563
  280MOL0     O37701   3.881   7.412   7.179  0.0162  0.4726  0.0321
  280MOL0     C37702   3.793   7.317   7.112  0.4012  0.3735  0.0009
  280MOL0     C37703   3.651   7.370   7.088  0.2646 -0.4955  0.8642
  280MOL0     C37704   3.653   7.501   7.009 -0.0684  0.8087  1.0624
  280MOL0     C37705   3.530   7.527   6.916 -0.0163  0.7739  0.2627
  280MOL0     C37706   3.500   7.421   6.808  0.2453 -0.6392  0.1408
  280MOL0     C37707   3.413   7.480   6.697 -0.7670 -0.2870 -0.1410
  280MOL0     C37708   3.384   7.373   6.589 -0.3330  0.1960  0.6226
  280MOL0     C37709   3.301   7.440   6.480  0.1629 -0.0859  0.9723
  280MOL0    Cl37710   3.137   7.467   6.544  0.0768  0.3687  0.0303
  280MOL0     C37711   4.087   7.453   7.282 -0.1668 -1.0963  0.8225
  280MOL0     C37712   4.208   7.422   7.302 -0.5343 -0.1562  0.3211
  280MOL0     O37713   4.490   7.468   7.242 -0.2292  0.7767  0.2931
  280MOL0     C37714   4.652   7.316   7.471 -0.2757  0.4976  0.1056
  280MOL0     C37715   4.783   7.291   7.516  0.4301  0.5510 -0.0829
  280MOL0     N37716   5.596   7.065   7.360  0.1454  0.6495 -0.0396
  280MOL0     N37717   5.600   6.936   7.362 -0.4180  0.3475  0.5118
  280MOL0     C37718   6.155   6.570   7.932 -0.5021 -0.3587  0.2998
  280MOL0     C37719   6.268   6.626   7.875 -0.1456 -0.0101 -0.1213
  280MOL0     C37720   6.665   6.611   7.663 -0.6489  0.4571 -0.1600
  280MOL0     C37721   6.784   6.534   7.656  0.2561 -0.8940 -0.0248
  280MOL0     C37722   6.893   6.578   7.590 -0.8387 -0.5977 -0.0403
  280MOL0     C37723   6.903   6.703   7.534  0.8629  0.8400  0.8972
  280MOL0     O37724   7.019   6.753   7.474  0.1522  0.3956  0.0320
  280MOL0     C37725   7.067   6.869   7.546  0.6068  0.3112 -1.2078
  280MOL0     C37726   7.103   6.835   7.695 -0.1320 -0.3858  0.4484
  280MOL0     C37727   7.199   6.715   7.706  0.4332  0.4224 -0.5065
  280MOL0     C37728   7.251   6.689   7.848  0.1509 -0.1121  0.4051
  280MOL0     C37729   7.350   6.788   7.886  1.3953 -0.5905  1.0259
  280MOL0     C37730   7.433   6.878   7.915 -0.1893 -0.3420 -0.4213
  280MOL0     C37731   6.788   6.786   7.540 -1.2189  0.8994  0.1501
  280MOL0     C37732   6.673   6.738   7.598 -0.2845  0.3401 -0.3934
  280MOL0     H37733   6.276   6.432   7.595  0.6730 -1.5433  1.6391
  280MOL0     H37734   6.079   6.359   7.681  0.8835  0.5770 -1.5827
  280MOL0     H37735   5.880   6.496   8.071  0.0265  2.9484  0.5407
  280MOL0     H37736   5.868   6.587   7.928 -1.8585 -0.2313  0.9440
  280MOL0     H37737   5.755   6.300   7.972  1.6864  0.6556  1.7444
  280MOL0     H37738   5.668   6.454   7.987  1.2680  1.9924  0.6779
  280MOL0     H37739   5.797   6.385   7.728  0.3268 -1.9302  1.1656
  280MOL0     H37740   5.647   6.308   7.777 -0.3453 -0.1692 -0.2201
  280MOL0     H37741   5.533   6.514   7.789 -0.6056 -3.7261 -1.0358
  280MOL0     H37742   5.678   6.609   7.780  0.2491  0.3279 -0.9788
  280MOL0     H37743   5.726   6.532   7.557 -0.6376  4.0143  2.4226
  280MOL0     H37744   5.591   6.425   7.555  1.6497 -1.2655  0.4431
  280MOL0     H37745   5.431   6.624   7.582 -0.0658  1.4675  0.1066
  280MOL0     H37746   5.561   6.740   7.580 -0.4779  0.1173  2.2299
  280MOL0     H37747   5.637   6.653   7.357 -0.2307  2.7337  0.2474
  280MOL0     H37748   5.503   6.550   7.350  1.9973 -1.6828  2.0849
  280MOL0     H37749   5.338   6.736   7.368 -1.2958  0.8824 -2.9484
  280MOL0     H37750   5.439   6.726   7.229  0.3707 -0.1202 -0.1341
  280MOL0     H37751   5.289   7.009   7.266 -0.1058  0.0811 -0.6348
  280MOL0     H37752   5.525   7.298   7.303 -0.6911 -1.1033  0.6485
  280MOL0     H37753   5.365   7.266   7.249  0.8715  1.4010 -1.3564
  280MOL0     H37754   5.392   7.421   7.442 -1.0592  0.4794 -3.2632
  280MOL0     H37755   5.475   7.286   7.530 -0.2124 -1.9476 -1.0244
  280MOL0     H37756   5.224   7.294   7.614 -0.8289 -2.0738  1.1616
  280MOL0     H37757   5.252   7.143   7.526 -3.1087 -0.2019  0.2821
  280MOL0     H37758   5.135   7.188   7.351 -0.6732  0.0980 -0.3040
  280MOL0     H37759   5.153   7.370   7.377  0.9985 -0.4238 -0.0950
  280MOL0     H37760   4.961   7.280   7.242  0.4278  1.7985  0.9551
  280MOL0     H37761   4.829   7.307   7.035  1.2214 -1.2350  2.2469
  280MOL0     H37762   4.686   7.223   7.067  2.3947 -1.9525 -1.0544
  280MOL0     H37763   4.682   7.403   7.075 -1.5650 -0.5052  2.9165
  280MOL0     H37764   4.237   7.124   7.142 -4.3569 -1.8210 -2.2855
  280MOL0     H37765   4.005   7.181   7.092  0.4927 -2.6199  1.3124
  280MOL0     H37766   3.830   7.300   7.010 -2.3573 -2.5218 -0.6586
  280MOL0     H37767   3.789   7.220   7.162  1.2041 -0.9079 -2.2630
  280MOL0     H37768   3.593   7.292   7.038  0.8056 -1.1151  1.1796
  280MOL0     H37769   3.609   7.384   7.188  2.8210  0.0562  1.9402
  280MOL0     H37770   3.738   7.488   6.941  0.9397 -1.5950  2.6455
  280MOL0     H37771   3.658   7.582   7.082 -3.0981 -0.6259  3.0657
  280MOL0     H37772   3.446   7.531   6.986 -1.2643 -1.7053 -0.9570
  280MOL0     H37773   3.540   7.626   6.869 -3.2242  0.8559 -0.4900
  280MOL0     H37774   3.445   7.332   6.839 -1.1410 -0.3812 -1.4217
  280MOL0     H37775   3.591   7.372   6.775  0.3445 -1.1926  1.1950
  280MOL0     H37776   3.330   7.543   6.729 -1.2535 -0.5875 -0.7705
  280MOL0     H37777   3.474   7.559   6.652 -3.1765  1.3317 -0.7474
  280MOL0     H37778   3.333   7.290   6.638 -3.0047  2.4463  1.8803
  280MOL0     H37779   3.478   7.346   6.538  0.2303  1.2885  1.0486
  280MOL0     H37780   3.273   7.376   6.396 -0.0368 -0.0036  0.9759
  280MOL0     H37781   3.342   7.535   6.446 -0.8718  0.2205  0.5495
  280MOL0     H37782   4.034   7.543   7.314 -0.8483 -0.9616 -0.6294
  280MOL0     H37783   4.275   7.483   7.362  1.7887 -1.5359 -0.7407
  280MOL0     H37784   4.567   7.339   7.534 -3.2668  0.3671 -3.5490
  280MOL0     H37785   4.792   7.295   7.624 -1.7825  0.7903  0.1412
  280MOL0     H37786   6.128   6.599   8.033 -0.8502  2.4727 -0.5202
  280MOL0     H37787   6.329   6.694   7.934 -0.9003  0.1929  0.4402
  280MOL0     H37788   6.794   6.435   7.700  1.8535 -0.2320  1.2098
  280MOL0     H37789   6.976   6.509   7.577  0.1120  0.7697 -1.4356
  280MOL0     H37790   7.163   6.899   7.504  1.3225  2.2940  1.5770
  280MOL0     H37791   6.993   6.949   7.542 -1.2238 -1.2804 -0.8031
  280MOL0     H37792   7.013   6.799   7.746  0.5442 -1.4726  0.9140
  280MOL0     H37793   7.150   6.922   7.742  1.9801 -0.5861 -1.1542
  280MOL0     H37794   7.279   6.729   7.632 -0.5212  1.3068 -1.3919
  280MOL0     H37795   7.147   6.624   7.673  1.2856 -0.4090  0.3375
  280MOL0     H37796   7.297   6.590   7.847  1.6151  0.5347 -1.0746
  280MOL0     H37797   7.165   6.696   7.916 -1.4206  0.5780 -1.5712
  280MOL0     H37798   7.511   6.945   7.943 -0.6119  0.2972 -0.7552
  280MOL0     H37799   6.796   6.885   7.496  1.5625 -0.4762 -2.8675
  280MOL0     H37800   6.598   6.816   7.606 -0.7716  0.0787 -2.0486
  281MOL0     O37801  10.209   9.451   9.392  0.6748 -0.5036  0.1619
  281MOL0     C37802  10.265   9.438   9.282  0.6649 -0.3122 -1.1465
  281MOL0     O37803  10.206   9.460   9.155  0.3464  0.6577 -0.2967
  281MOL0     C37804  10.071   9.462   9.144  1.2403  0.7754  0.1536
  281MOL0     C37805  10.019   9.526   9.041  0.5055 -0.2333 -0.4686
  281MOL0     C37806   9.879   9.536   9.023  0.3514 -0.0009 -1.2935
  281MOL0     C37807   9.788   9.474   9.115 -0.4552  0.1410  0.3242
  281MOL0     O37808   9.656   9.498   9.092 -0.3868  0.6516 -0.5210
  281MOL0     C37809   9.568   9.406   9.144  0.2959  0.7226  0.0037
  281MOL0     C37810   9.416   9.436   9.111 -0.4730  0.0490  0.6680
  281MOL0     C37811   9.386   9.457   8.963  0.0256 -0.2417  0.5480
  281MOL0     C37812   9.229   9.457   8.935  0.3136 -0.2680 -0.1725
  281MOL0     C37813   9.208   9.435   8.785 -0.0486  0.7899  0.3159
  281MOL0     C37814   9.056   9.449   8.740  0.6323 -0.1961 -0.0183
  281MOL0     C37815   9.039   9.408   8.596  0.0518 -0.1715  0.0681
  281MOL0     C37816   8.902   9.447   8.542  0.1431  0.0800  0.5910
  281MOL0     N37817   8.780   9.430   8.627  0.1826 -0.0069 -0.3209
  281MOL0     C37818   8.729   9.313   8.666 -0.4034  0.3823 -0.4689
  281MOL0     C37819   8.624   9.341   8.748 -0.0653  0.0211  0.4871
  281MOL0     C37820   8.545   9.245   8.821 -0.8274 -0.2095  0.2561
  281MOL0     C37821   8.399   9.281   8.862 -0.1802  1.5718  0.2497
  281MOL0     C37822   8.302   9.247   8.752 -0.6477 -0.4941  1.1525
  281MOL0     C37823   8.159   9.231   8.802 -0.0639 -0.0289 -0.4172
  281MOL0     O37824   8.053   9.193   8.707 -0.1758 -0.5259  0.0782
  281MOL0     C37825   7.926   9.232   8.736  0.2535  0.4949  0.3043
  281MOL0     C37826   7.886   9.341   8.815 -0.2162 -0.4464 -0.7197
  281MOL0     C37827   7.750   9.375   8.840  0.1194 -0.7190  0.1543
  281MOL0     C37828   7.736   9.482   8.949 -0.1001 -0.0332 -0.7441
  281MOL0     C37829   7.647   9.304   8.781  0.3115 -0.3315 -0.2303
  281MOL0     C37830   7.503   9.337   8.799 -0.6227  0.2998 -0.6326
  281MOL0     O37831   7.424   9.249   8.746 -0.6661  0.1536  0.2372
  281MOL0     C37832   7.295   9.284   8.739  0.7808  0.4453 -0.8344
  281MOL0     C37833   7.244   9.377   8.651 -0.5223  0.6105 -0.6512
  281MOL0     C37834   7.117   9.434   8.659 -0.1343 -0.2494 -0.6447
  281MOL0     C37835   7.032   9.380   8.756  0.7351 -0.2495  0.2413
  281MOL0     O37836   6.904   9.409   8.782  0.3042 -0.6306 -0.5921
  281MOL0     C37837   6.822   9.471   8.682 -1.4586 -0.0805 -0.2637
  281MOL0     C37838   6.674   9.488   8.729 -0.3663  0.0587  0.0525
  281MOL0     C37839   6.589   9.578   8.628 -0.2226  0.2892 -0.6386
  281MOL0     C37840   6.584   9.525   8.488  0.0600  0.2300  0.4231
  281MOL0     C37841   6.492   9.619   8.395 -0.1300  0.3016 -0.3037
  281MOL0     C37842   6.342   9.598   8.425 -0.3577 -0.1400  0.3496
  281MOL0     C37843   6.254   9.678   8.326  0.1966 -0.4127  0.0968
  281MOL0     C37844   6.246   9.823   8.380 -0.0486 -0.6476 -0.3292
  281MOL0    Cl37845   6.130   9.934   8.287 -0.5475  0.2967 -0.1416
  281MOL0     C37846   7.081   9.282   8.841  0.7868 -0.4968  0.0287
  281MOL0     C37847   7.211   9.237   8.835  0.5506 -0.8771 -0.1391
  281MOL0     O37848   7.466   9.434   8.870 -0.2421  0.1054  0.4307
  281MOL0     C37849   7.687   9.191   8.707  0.2722  0.8937  0.4870
  281MOL0     C37850   7.824   9.161   8.677 -0.1309  0.2248  0.3602
  281MOL0     N37851   8.619   9.475   8.762 -0.4084 -0.8209  0.9091
  281MOL0     N37852   8.707   9.532   8.685 -0.0915  0.4852 -0.8765
  281MOL0     C37853   9.847   9.400   9.222 -1.1021  0.4920  0.1039
  281MOL0     C37854   9.987   9.384   9.237 -0.7432  0.0398  0.0794
  281MOL0     C37855  10.415   9.433   9.279  0.2809  0.1810  0.3705
  281MOL0     C37856  10.492   9.386   9.385  0.5208 -0.2439 -0.0828
  281MOL0     C37857  10.628   9.366   9.371  0.2281 -0.7962  0.6369
  281MOL0     C37858  10.695   9.391   9.255  0.2719 -0.5033 -0.6492
  281MOL0     O37859  10.833   9.384   9.241  0.6021 -0.2239 -0.8979
  281MOL0     C37860  10.913   9.369   9.359 -1.0146  0.1557  0.3009
  281MOL0     C37861  11.060   9.382   9.323 -0.3497  0.1201  0.3135
  281MOL0     C37862  11.091   9.510   9.246  0.0825 -0.2004 -0.1058
  281MOL0     C37863  11.245   9.533   9.218  0.4690  0.2638 -0.3186
  281MOL0     C37864  11.306   9.615   9.317  0.4076  0.2759  0.1060
  281MOL0     C37865  11.368   9.668   9.403 -0.0541 -0.4286 -0.5958
  281MOL0     C37866  10.621   9.437   9.146  0.5203  0.0366  0.0868
  281MOL0     C37867  10.480   9.449   9.154 -0.1972 -0.4565 -1.0064
  281MOL0     H37868  10.074   9.582   8.966 -0.1595 -2.2993 -2.6081
  281MOL0     H37869   9.839   9.578   8.932 -0.5426  0.4492 -0.7045
  281MOL0     H37870   9.584   9.306   9.105 -0.0865  0.4914  0.4298
  281MOL0     H37871   9.579   9.392   9.252 -0.0764 -0.3917 -0.0959
  281MOL0     H37872   9.350   9.361   9.156 -1.7583  1.1951  0.7521
  281MOL0     H37873   9.379   9.527   9.159 -1.7217 -1.1301  2.0410
  281MOL0     H37874   9.422   9.553   8.925  2.0274 -0.4727  1.7049
  281MOL0     H37875   9.438   9.376   8.910  1.5334  1.2560 -0.3831
  281MOL0     H37876   9.186   9.370   8.986  0.3203 -0.6979 -0.8905
  281MOL0     H37877   9.184   9.549   8.972  2.1312  1.3451 -1.7226
  281MOL0     H37878   9.264   9.513   8.733 -1.4480  0.2704 -2.1162
  281MOL0     H37879   9.251   9.339   8.753 -1.8022 -0.6862  2.1046
  281MOL0     H37880   8.993   9.392   8.809  1.5464  1.7217  2.5421
  281MOL0     H37881   9.020   9.552   8.749  0.7568 -0.0927 -0.6670
  281MOL0     H37882   9.116   9.458   8.537 -1.6752  0.5680 -1.6529
  281MOL0     H37883   9.050   9.301   8.576  0.0287 -0.1728  0.0616
  281MOL0     H37884   8.877   9.387   8.454 -2.0257  2.0700 -0.2274
  281MOL0     H37885   8.908   9.553   8.517 -1.2236  0.2487  0.9250
  281MOL0     H37886   8.773   9.218   8.639  3.6670  1.6796  0.7754
  281MOL0     H37887   8.532   9.148   8.770  1.4622 -0.8170  0.7081
  281MOL0     H37888   8.601   9.236   8.914 -0.4504  0.3190  0.0826
  281MOL0     H37889   8.393   9.389   8.877  1.3667  1.8904 -1.1062
  281MOL0     H37890   8.370   9.215   8.944 -0.3587 -0.7426 -1.5943
  281MOL0     H37891   8.323   9.159   8.691 -0.3116 -0.8953  1.8377
  281MOL0     H37892   8.310   9.334   8.686  0.8985 -1.2047  0.3634
  281MOL0     H37893   8.140   9.322   8.860  1.4695  0.9994 -1.4333
  281MOL0     H37894   8.157   9.147   8.872 -1.1399  0.0052 -0.3933
  281MOL0     H37895   7.965   9.401   8.858 -0.6152 -1.0741  0.9351
  281MOL0     H37896   7.691   9.576   8.917 -0.2851 -0.0321 -0.4804
  281MOL0     H37897   7.673   9.443   9.030 -1.4866  3.6934  0.1495
  281MOL0     H37898   7.831   9.509   8.994  0.8189 -2.7085 -0.8867
  281MOL0     H37899   7.310   9.410   8.571 -1.0695 -0.3926 -1.5381
  281MOL0     H37900   7.088   9.510   8.587 -1.0339  0.8567  0.8238
  281MOL0     H37901   6.858   9.570   8.656  2.1318 -0.3810  2.7621
  281MOL0     H37902   6.827   9.406   8.594 -1.2274 -0.6823  0.1834
  281MOL0     H37903   6.618   9.394   8.731 -1.2212  0.5711  1.5385
  281MOL0     H37904   6.683   9.531   8.829  0.6386  1.1150 -0.4750
  281MOL0     H37905   6.633   9.678   8.626  2.0293 -0.5218  1.9020
  281MOL0     H37906   6.487   9.579   8.668 -1.3502  1.2403 -3.3426
  281MOL0     H37907   6.689   9.517   8.457  0.0094 -4.3603  0.6744
  281MOL0     H37908   6.542   9.425   8.476 -0.8242  0.7635 -1.1723
  281MOL0     H37909   6.504   9.592   8.289  0.0699  0.4428 -0.3180
  281MOL0     H37910   6.514   9.725   8.412 -1.0067  0.3341  0.7087
  281MOL0     H37911   6.327   9.493   8.399  0.5565  0.1550 -1.5328
  281MOL0     H37912   6.320   9.616   8.531  2.1137 -1.8152  1.2326
  281MOL0     H37913   6.156   9.630   8.316  0.5205 -0.7466 -1.7988
  281MOL0     H37914   6.303   9.688   8.229 -1.6344 -1.1606 -0.9459
  281MOL0     H37915   6.345   9.869   8.371 -0.0362 -0.5334  0.3811
  281MOL0     H37916   6.215   9.828   8.484 -1.4412 -2.5922 -0.6025
  281MOL0     H37917   7.012   9.255   8.920 -1.5430 -2.9955 -2.6079
  281MOL0     H37918   7.253   9.153   8.890  2.7322 -0.1480 -0.5971
  281MOL0     H37919   7.615   9.128   8.656  0.7563 -0.6890  1.6665
  281MOL0     H37920   7.835   9.074   8.613 -1.4552  1.8390 -2.2164
  281MOL0     H37921   9.781   9.351   9.292 -0.3393 -2.4420 -1.0846
  281MOL0     H37922  10.030   9.326   9.318 -2.2768 -0.6431  0.4383
  281MOL0     H37923  10.455   9.363   9.485  1.7746 -0.9716  0.2314
  281MOL0     H37924  10.683   9.321   9.454 -0.4601  0.2553  1.7059
  281MOL0     H37925  10.884   9.441   9.436  2.9852  1.5380  0.7513
  281MOL0     H37926  10.906   9.271   9.407 -1.2586  0.7318  1.4625
  281MOL0     H37927  11.092   9.293   9.269  0.4199 -1.6994  3.5086
  281MOL0     H37928  11.109   9.384   9.421 -0.2018 -1.4963  0.2890
  281MOL0     H37929  11.044   9.600   9.286  3.1784  2.1059 -1.2760
  281MOL0     H37930  11.046   9.490   9.149 -0.2402 -1.2034  0.2347
  281MOL0     H37931  11.251   9.578   9.118  0.7423 -0.5523 -0.6803
  281MOL0     H37932  11.304   9.441   9.210  0.5850  0.4877 -3.0946
  281MOL0     H37933  11.453   9.703   9.458  1.1804  0.2272 -2.7787
  281MOL0     H37934  10.673   9.439   9.050 -2.2832 -0.5551 -1.5661
  281MOL0     H37935  10.426   9.461   9.060 -1.5875 -2.9248 -0.6191
  282MOL0     O37936   7.622   2.090   1.862  0.6715 -0.2780  0.7371
  282MOL0     C37937   7.648   2.059   1.974 -0.1092  0.1443 -0.0851
  282MOL0     O37938   7.581   2.108   2.088 -0.5764 -0.1698  0.2548
  282MOL0     C37939   7.473   2.190   2.071  0.5598 -0.6179 -0.0841
  282MOL0     C37940   7.347   2.137   2.100  0.8753 -0.4965  0.0971
  282MOL0     C37941   7.232   2.215   2.107  0.2037  0.0449  0.3964
  282MOL0     C37942   7.243   2.352   2.060  0.1188  0.3954 -0.8280
  282MOL0     O37943   7.132   2.432   2.046 -0.0964  0.1459  0.0237
  282MOL0     C37944   6.997   2.397   2.048  0.0025  0.4078 -0.8367
  282MOL0     C37945   6.911   2.485   1.966 -0.1378  0.0195 -0.6154
  282MOL0     C37946   6.763   2.448   1.992 -0.0939 -0.3613  0.0556
  282MOL0     C37947   6.711   2.568   2.080  0.3748  0.3724 -0.4851
  282MOL0     C37948   6.566   2.550   2.110  0.2738 -0.1045 -0.5791
  282MOL0     C37949   6.480   2.616   2.004 -0.3334 -0.2049 -1.1513
  282MOL0     C37950   6.328   2.604   2.040  0.2747  0.2075  0.6613
  282MOL0     C37951   6.290   2.697   2.160 -0.6494  0.3514  0.1102
  282MOL0     N37952   6.156   2.683   2.217 -0.2605 -0.0384  0.8345
  282MOL0     C37953   6.053   2.763   2.180  0.6525  0.3025  0.1945
  282MOL0     C37954   5.944   2.701   2.244 -0.8015 -0.3038  1.2938
  282MOL0     C37955   5.798   2.764   2.237 -0.5734 -0.6231  0.3129
  282MOL0     C37956   5.691   2.692   2.162 -0.0031 -0.9681  1.2200
  282MOL0     C37957   5.715   2.673   2.002 -1.1029  0.4342 -0.3779
  282MOL0     C37958   5.627   2.583   1.933  0.4672 -0.4160  1.0085
  282MOL0     O37959   5.495   2.645   1.922 -0.8475  0.3092 -0.8200
  282MOL0     C37960   5.398   2.590   1.847 -0.4189 -0.3081  0.0717
  282MOL0     C37961   5.401   2.459   1.793 -0.5557 -0.5456 -0.0677
  282MOL0     C37962   5.304   2.421   1.710  0.6330  0.1224  0.5162
  282MOL0     C37963   5.328   2.292   1.639  0.0995  0.0357 -0.8686
  282MOL0     C37964   5.186   2.495   1.693  0.7040 -0.5040 -0.0376
  282MOL0     C37965   5.063   2.444   1.624  0.3880 -0.8349 -0.6651
  282MOL0     O37966   4.995   2.534   1.552 -0.2381 -0.4486  0.4966
  282MOL0     C37967   4.882   2.490   1.486  0.2681 -0.6681 -0.6211
  282MOL0     C37968   4.788   2.590   1.458 -0.1424  0.0031 -0.1130
  282MOL0     C37969   4.670   2.555   1.393  0.3014 -1.1384  0.6265
  282MOL0     C37970   4.645   2.429   1.350 -0.5173  0.2531  0.3932
  282MOL0     O37971   4.537   2.382   1.282  0.3201  0.3981  0.5728
  282MOL0     C37972   4.434   2.468   1.227 -0.5070 -0.4556  0.3235
  282MOL0     C37973   4.457   2.476   1.071 -0.1734  0.7022  0.1091
  282MOL0     C37974   4.416   2.352   1.007  0.4191  0.0657 -0.2860
  282MOL0     C37975   4.399   2.355   0.853  0.5076  0.4302  0.4395
  282MOL0     C37976   4.355   2.228   0.795  0.4632  0.5256  0.3439
  282MOL0     C37977   4.328   2.244   0.643  0.1016  0.3248  0.1260
  282MOL0     C37978   4.269   2.116   0.583  0.4976  0.8276 -0.0961
  282MOL0     C37979   4.360   1.996   0.569 -0.3826  0.1963  0.5901
  282MOL0    Cl37980   4.299   1.880   0.451 -0.1019  0.1049  0.0049
  282MOL0     C37981   4.737   2.328   1.372 -0.0870  0.0330  0.7093
  282MOL0     C37982   4.860   2.366   1.415 -0.4374 -0.3500 -0.2984
  282MOL0     O37983   5.044   2.321   1.621 -0.0181  0.1783  0.0259
  282MOL0     C37984   5.182   2.626   1.752  0.8594 -0.3425  0.6151
  282MOL0     C37985   5.289   2.671   1.826 -0.1370  0.2809 -0.5034
  282MOL0     N37986   5.991   2.595   2.316 -0.2956  0.0804 -0.5881
  282MOL0     N37987   6.119   2.590   2.311  0.2628 -0.1295  0.1665
  282MOL0     C37988   7.369   2.404   2.034 -0.4544 -0.1852  0.4334
  282MOL0     C37989   7.487   2.324   2.034  0.7043 -0.2396  0.3692
  282MOL0     C37990   7.757   1.956   2.000  0.3143 -0.7709  0.3050
  282MOL0     C37991   7.840   1.917   1.890  0.9053 -0.6687 -0.0392
  282MOL0     C37992   7.950   1.836   1.907  0.4208  0.9989  0.3813
  282MOL0     C37993   7.968   1.764   2.025 -0.9864 -0.5590 -0.5026
  282MOL0     O37994   8.077   1.685   2.054  0.1288  0.5324 -0.6597
  282MOL0     C37995   8.193   1.674   1.969  0.4012  0.3287 -0.0075
  282MOL0     C37996   8.269   1.799   1.973  0.4082 -0.5557 -0.7534
  282MOL0     C37997   8.414   1.794   1.941 -0.3145 -0.6611  0.6196
  282MOL0     C37998   8.485   1.934   1.966 -0.3627  0.1404  0.1165
  282MOL0     C37999   8.593   1.935   2.062 -0.6290  0.2972  0.4312
  282MOL0     C38000   8.693   1.919   2.128 -0.2014 -0.2380 -0.4400
  282MOL0     C38001   7.891   1.798   2.135 -0.5516 -0.2931 -0.0640
  282MOL0     C38002   7.789   1.897   2.126  0.1068 -0.0533 -0.0930
  282MOL0     H38003   7.347   2.034   2.133  0.3142 -0.3779  0.4780
  282MOL0     H38004   7.137   2.167   2.128  1.4733 -1.3565  3.6620
  282MOL0     H38005   6.986   2.294   2.011  1.5804  0.5671 -1.7956
  282MOL0     H38006   6.960   2.390   2.151 -0.0613 -2.7816 -0.9589
  282MOL0     H38007   6.936   2.589   1.986 -0.5815 -0.2852  1.9019
  282MOL0     H38008   6.924   2.471   1.858  1.6392  1.3901 -0.6287
  282MOL0     H38009   6.703   2.429   1.902  1.1501  1.6520 -1.2794
  282MOL0     H38010   6.763   2.355   2.050 -0.9936 -1.0102 -0.9560
  282MOL0     H38011   6.762   2.566   2.177  0.4525 -0.5381 -0.5309
  282MOL0     H38012   6.715   2.664   2.028 -1.1997  0.4256 -0.5347
  282MOL0     H38013   6.543   2.444   2.125 -0.0618 -0.1728 -1.4794
  282MOL0     H38014   6.542   2.595   2.207 -0.1737 -1.1664 -0.1762
  282MOL0     H38015   6.503   2.723   1.995 -0.2190 -0.0997  0.2221
  282MOL0     H38016   6.497   2.568   1.907  0.7015  1.1822 -1.6975
  282MOL0     H38017   6.276   2.642   1.951 -0.7523  1.9751  1.9534
  282MOL0     H38018   6.303   2.499   2.056 -0.2501  0.1533 -0.4367
  282MOL0     H38019   6.325   2.800   2.150 -0.8881  0.2399 -2.3031
  282MOL0     H38020   6.355   2.672   2.245 -0.7746  0.9194  0.3750
  282MOL0     H38021   6.062   2.856   2.125 -1.1483  1.2308  1.3525
  282MOL0     H38022   5.761   2.785   2.338 -1.6416 -0.9030 -0.0060
  282MOL0     H38023   5.809   2.863   2.192  0.3120 -0.3487  1.0958
  282MOL0     H38024   5.597   2.746   2.180 -0.1534 -1.4942  2.0658
  282MOL0     H38025   5.684   2.593   2.209  0.3493 -0.4481  2.4030
  282MOL0     H38026   5.812   2.625   1.994 -1.6997 -0.6218 -1.6009
  282MOL0     H38027   5.714   2.771   1.953 -0.7972 -0.5351 -2.4296
  282MOL0     H38028   5.618   2.481   1.970  0.0413 -1.3276 -1.4025
  282MOL0     H38029   5.668   2.568   1.832  0.5890  1.3737  0.7659
  282MOL0     H38030   5.485   2.394   1.815  1.6364  2.4274  1.1381
  282MOL0     H38031   5.272   2.291   1.546 -0.4462 -0.8620 -0.5402
  282MOL0     H38032   5.431   2.287   1.604 -0.2966  1.6464 -2.4422
  282MOL0     H38033   5.307   2.205   1.702  2.7143 -0.2560 -0.3005
  282MOL0     H38034   4.810   2.688   1.499  2.0031 -0.6891  0.5489
  282MOL0     H38035   4.596   2.632   1.374 -0.2312 -1.7307  0.2655
  282MOL0     H38036   4.334   2.438   1.261  1.1018 -1.2708  5.0761
  282MOL0     H38037   4.433   2.572   1.260 -0.0882 -0.7326  1.2310
  282MOL0     H38038   4.399   2.559   1.028 -2.9190 -0.3551  1.5473
  282MOL0     H38039   4.560   2.501   1.044 -0.0034 -1.9807 -2.1417
  282MOL0     H38040   4.317   2.317   1.038 -0.1438  1.6283 -0.2649
  282MOL0     H38041   4.493   2.280   1.037  1.9529  2.2550  1.4159
  282MOL0     H38042   4.323   2.429   0.826  0.6927  1.0639  1.5704
  282MOL0     H38043   4.493   2.386   0.806 -0.4229  1.0093 -1.1181
  282MOL0     H38044   4.271   2.195   0.857  0.9091  0.5596  0.9752
  282MOL0     H38045   4.435   2.156   0.811 -0.1570 -0.0096  1.1197
  282MOL0     H38046   4.271   2.336   0.629  4.4277  3.3131  0.0386
  282MOL0     H38047   4.428   2.263   0.603 -1.0345  3.0230 -1.7146
  282MOL0     H38048   4.242   2.143   0.481  0.6576 -2.2455 -1.0481
  282MOL0     H38049   4.180   2.083   0.638  1.6984 -1.1997  0.7746
  282MOL0     H38050   4.370   1.936   0.661 -2.2656 -0.6020  0.3282
  282MOL0     H38051   4.461   2.024   0.538 -0.2885  0.1910  0.8806
  282MOL0     H38052   4.719   2.227   1.334 -0.8115  0.3611  0.1571
  282MOL0     H38053   4.922   2.277   1.420 -0.6475 -0.6393 -2.2209
  282MOL0     H38054   5.090   2.684   1.746 -0.0704 -1.8822 -2.6964
  282MOL0     H38055   5.282   2.765   1.880  0.7294  1.5700 -2.5301
  282MOL0     H38056   7.371   2.505   1.995  1.5269  0.1714  1.3369
  282MOL0     H38057   7.585   2.360   2.007 -0.2634 -0.2117 -3.6818
  282MOL0     H38058   7.824   1.950   1.787 -1.8835  0.1002  0.5566
  282MOL0     H38059   8.012   1.804   1.824 -0.9338 -2.4958  0.5283
  282MOL0     H38060   8.251   1.596   2.020  1.2207  1.6479  1.1362
  282MOL0     H38061   8.164   1.642   1.868  0.0214  1.8599 -0.4078
  282MOL0     H38062   8.253   1.846   2.071  2.0132 -2.0978  0.3080
  282MOL0     H38063   8.228   1.865   1.896 -0.3839  0.9585  0.8758
  282MOL0     H38064   8.430   1.761   1.838 -1.7006  0.9444 -0.1756
  282MOL0     H38065   8.469   1.740   2.019  2.1721  2.4303  1.2225
  282MOL0     H38066   8.414   2.006   2.008  0.0760  1.6047 -1.5176
  282MOL0     H38067   8.509   1.989   1.874  0.7926 -0.2822  0.1597
  282MOL0     H38068   8.781   1.913   2.188 -0.9844 -0.6261  0.7025
  282MOL0     H38069   7.906   1.747   2.229  4.6212  0.8050  0.0082
  282MOL0     H38070   7.725   1.926   2.209 -0.7839  3.1909 -1.7452
  283MOL0     O38071  11.007   2.482   2.274  0.0839 -0.0340 -0.3542
  283MOL0     C38072  11.033   2.376   2.328  1.0273 -0.1894 -0.9363
  283MOL0     O38073  10.941   2.277   2.356  0.5860 -0.2952  0.0301
  283MOL0     C38074  10.808   2.283   2.321  0.1696  0.2578  0.5064
  283MOL0     C38075  10.726   2.395   2.346  0.1394  0.2576  0.6402
  283MOL0     C38076  10.588   2.392   2.308  0.9340  0.1939  1.2139
  283MOL0     C38077  10.533   2.285   2.249  0.2893 -0.0018  0.4871
  283MOL0     O38078  10.405   2.274   2.197  0.0893 -0.8895  0.0522
  283MOL0     C38079  10.350   2.389   2.130  0.7113 -0.6131 -0.0626
  283MOL0     C38080  10.247   2.354   2.023  1.0584  0.0016 -0.2221
  283MOL0     C38081  10.115   2.310   2.085  0.1328  1.1754 -0.8226
  283MOL0     C38082  10.015   2.304   1.971 -0.8500  0.0771  0.0377
  283MOL0     C38083   9.885   2.235   2.006 -0.4624 -0.5361 -0.2660
  283MOL0     C38084   9.791   2.342   2.070  0.4266  0.0584 -0.9976
  283MOL0     C38085   9.650   2.298   2.106  0.3664 -0.4831  0.0744
  283MOL0     C38086   9.566   2.291   1.974 -0.8580  0.3457  0.4961
  283MOL0     N38087   9.431   2.234   1.978 -0.4809  0.3351  0.5250
  283MOL0     C38088   9.323   2.296   2.043  0.1617 -0.0266 -0.0527
  283MOL0     C38089   9.215   2.223   2.021  0.7178 -0.1454 -0.4104
  283MOL0     C38090   9.078   2.253   2.078 -0.5075 -0.3238 -0.8134
  283MOL0     C38091   8.966   2.187   2.001  0.3504 -0.7649 -0.1095
  283MOL0     C38092   8.948   2.230   1.853 -0.4535 -0.4543  0.0038
  283MOL0     C38093   8.807   2.221   1.795  0.2841  0.4023  0.3129
  283MOL0     O38094   8.818   2.245   1.652  0.2208 -0.1714  0.6436
  283MOL0     C38095   8.779   2.373   1.621  0.5996 -0.8276  0.0280
  283MOL0     C38096   8.863   2.473   1.565 -0.6271 -0.3358  0.4241
  283MOL0     C38097   8.816   2.599   1.521  0.3310  0.0606  0.0959
  283MOL0     C38098   8.910   2.694   1.440 -0.7989  0.4309  0.3446
  283MOL0     C38099   8.684   2.629   1.551  0.2899 -1.1181 -1.5367
  283MOL0     C38100   8.623   2.768   1.526 -0.3853  1.1819 -0.1366
  283MOL0     O38101   8.489   2.787   1.562 -0.2788  0.0178  0.6678
  283MOL0     C38102   8.403   2.861   1.486  0.4930 -0.1246 -0.1701
  283MOL0     C38103   8.273   2.868   1.537  0.4070  0.9530  0.6497
  283MOL0     C38104   8.165   2.922   1.464 -0.0651 -0.2816 -0.1872
  283MOL0     C38105   8.190   2.988   1.346 -0.0553  0.0083 -0.2502
  283MOL0     O38106   8.093   3.047   1.264 -0.3895  0.4597 -0.2065
  283MOL0     C38107   7.993   3.120   1.339 -0.3964  0.4095 -0.6960
  283MOL0     C38108   7.855   3.067   1.317  0.2510  0.7453  0.1994
  283MOL0     C38109   7.745   3.151   1.383 -0.0519  0.5422  0.6571
  283MOL0     C38110   7.616   3.065   1.389 -0.1173  0.5552 -1.0774
  283MOL0     C38111   7.493   3.142   1.434 -0.5138 -0.4590  0.6396
  283MOL0     C38112   7.377   3.047   1.457  0.1357  0.7564  0.6400
  283MOL0     C38113   7.241   3.120   1.455 -0.0210  0.0956 -0.1700
  283MOL0     C38114   7.115   3.049   1.495  1.0377 -0.4506  0.4384
  283MOL0    Cl38115   6.970   3.153   1.498 -0.1293 -0.3810 -0.0836
  283MOL0     C38116   8.323   2.996   1.296 -0.4301  0.9353  0.2734
  283MOL0     C38117   8.429   2.935   1.371  0.2174  0.7956  0.0433
  283MOL0     O38118   8.683   2.836   1.449 -0.1064 -0.8095  0.1114
  283MOL0     C38119   8.599   2.539   1.617  0.0280 -0.2013  0.2666
  283MOL0     C38120   8.644   2.414   1.640 -0.2063 -0.0456 -0.1216
  283MOL0     N38121   9.255   2.115   1.944 -0.0860  0.3625 -0.3464
  283MOL0     N38122   9.377   2.132   1.906  1.0922 -0.2121 -0.0604
  283MOL0     C38123  10.608   2.167   2.240  0.2416  0.1484  0.3519
  283MOL0     C38124  10.746   2.169   2.265 -1.3146 -0.0040 -0.0665
  283MOL0     C38125  11.177   2.361   2.376 -0.6874 -0.6314  0.1347
  283MOL0     C38126  11.281   2.439   2.320 -0.1196  0.6454 -0.2117
  283MOL0     C38127  11.419   2.420   2.354 -0.1488 -0.6930  0.4264
  283MOL0     C38128  11.460   2.297   2.410  0.2645 -0.6806  0.2453
  283MOL0     O38129  11.589   2.280   2.412  0.5871  0.2044  0.8895
  283MOL0     C38130  11.652   2.173   2.485 -0.9045 -0.3715 -0.6515
  283MOL0     C38131  11.643   2.193   2.640 -0.5593 -0.8569  0.0577
  283MOL0     C38132  11.740   2.308   2.680 -0.3018 -0.6034 -0.7746
  283MOL0     C38133  11.764   2.307   2.829 -0.3878  0.2645 -0.6882
  283MOL0     C38134  11.887   2.371   2.872 -0.0788  0.8601 -1.0563
  283MOL0     C38135  11.990   2.430   2.902 -0.6165 -0.1510 -0.0408
  283MOL0     C38136  11.360   2.206   2.455 -0.5495 -1.3323  0.4337
  283MOL0     C38137  11.218   2.238   2.438 -0.0383 -0.6645  0.0725
  283MOL0     H38138  10.766   2.491   2.377 -0.8770  0.0617  2.7513
  283MOL0     H38139  10.528   2.482   2.310  0.5587  0.0944 -1.4737
  283MOL0     H38140  10.305   2.455   2.204  0.6780 -0.0933 -0.5447
  283MOL0     H38141  10.433   2.447   2.086 -0.3089  0.4068 -0.6896
  283MOL0     H38142  10.232   2.453   1.978 -1.6067  1.0640  2.6571
  283MOL0     H38143  10.283   2.289   1.942  1.2225  0.3016 -0.3942
  283MOL0     H38144  10.116   2.209   2.125 -1.9857  1.2152 -0.5466
  283MOL0     H38145  10.089   2.381   2.164  0.9287  0.6132 -0.0334
  283MOL0     H38146  10.000   2.407   1.938 -0.3792  0.2096  0.2261
  283MOL0     H38147  10.060   2.235   1.899 -0.1262 -0.4443  0.9572
  283MOL0     H38148   9.848   2.201   1.909  1.1033 -0.0413 -1.0788
  283MOL0     H38149   9.888   2.152   2.077  1.2285  0.0475  0.4001
  283MOL0     H38150   9.840   2.379   2.161 -0.0167 -2.8829  0.5677
  283MOL0     H38151   9.787   2.433   2.009 -0.4537 -0.9939 -2.5724
  283MOL0     H38152   9.650   2.203   2.160  0.6130 -0.3298  0.3466
  283MOL0     H38153   9.598   2.374   2.165  0.2442 -1.0314  0.6869
  283MOL0     H38154   9.627   2.230   1.907 -1.1257  0.8918 -0.2558
  283MOL0     H38155   9.555   2.392   1.933 -1.4527  1.5813  3.4439
  283MOL0     H38156   9.333   2.391   2.095  1.3434 -0.0509 -0.2143
  283MOL0     H38157   9.083   2.215   2.181  1.1613 -1.2050 -1.1764
  283MOL0     H38158   9.066   2.362   2.085  0.1284 -0.2020 -1.5318
  283MOL0     H38159   8.870   2.200   2.053  0.7528  0.1626  0.4219
  283MOL0     H38160   8.975   2.078   1.997  0.8713 -0.6944 -2.9931
  283MOL0     H38161   9.012   2.168   1.790  2.2510 -1.2283  3.2244
  283MOL0     H38162   8.990   2.330   1.839  0.0405 -0.3502  1.8788
  283MOL0     H38163   8.746   2.294   1.849 -2.6462 -1.1341 -0.7079
  283MOL0     H38164   8.761   2.126   1.826 -1.7069  0.5459 -1.9189
  283MOL0     H38165   8.965   2.449   1.535 -0.9123  0.8419 -1.7342
  283MOL0     H38166   8.915   2.791   1.491  1.4119 -0.2847  1.6271
  283MOL0     H38167   9.014   2.660   1.436 -0.7240 -0.4697  4.8147
  283MOL0     H38168   8.864   2.714   1.343  0.5264  0.7215 -0.2421
  283MOL0     H38169   8.265   2.808   1.627  2.8281 -2.3534 -1.1241
  283MOL0     H38170   8.061   2.907   1.492  0.1894 -1.4491  0.2304
  283MOL0     H38171   8.019   3.123   1.445 -0.5221 -0.4462 -0.6340
  283MOL0     H38172   7.992   3.226   1.313  2.0665  1.1856  1.8145
  283MOL0     H38173   7.833   3.076   1.210  0.5445 -0.2601  0.0420
  283MOL0     H38174   7.851   2.964   1.354  2.0181 -0.5065 -2.7063
  283MOL0     H38175   7.734   3.229   1.308  3.9453 -1.8890 -2.8740
  283MOL0     H38176   7.771   3.198   1.479 -1.9091  1.1337  0.9123
  283MOL0     H38177   7.595   3.032   1.286 -0.6579 -0.8211 -0.5533
  283MOL0     H38178   7.626   2.978   1.454  1.4144  0.4107 -1.4560
  283MOL0     H38179   7.472   3.219   1.359 -0.5077  1.4140  2.4727
  283MOL0     H38180   7.513   3.189   1.531 -0.9219  2.6998 -0.6733
  283MOL0     H38181   7.366   2.975   1.375 -4.0027  2.2587 -0.3679
  283MOL0     H38182   7.388   2.994   1.552 -1.8187 -2.2551 -0.6475
  283MOL0     H38183   7.225   3.175   1.361 -1.2299 -0.3145 -0.2165
  283MOL0     H38184   7.243   3.201   1.528  0.3175  1.0286 -1.1751
  283MOL0     H38185   7.132   3.024   1.600 -1.3327 -1.5691  0.6363
  283MOL0     H38186   7.110   2.951   1.446 -0.8654 -0.5363  0.7512
  283MOL0     H38187   8.341   3.036   1.197 -2.0093  0.4019 -0.2573
  283MOL0     H38188   8.525   2.952   1.323  0.3982 -1.1082 -0.3428
  283MOL0     H38189   8.495   2.565   1.635  0.2170  0.5943  0.2546
  283MOL0     H38190   8.576   2.336   1.672 -1.0891  1.1165  0.9388
  283MOL0     H38191  10.556   2.079   2.204 -0.0741  0.1419  0.8152
  283MOL0     H38192  10.799   2.075   2.255 -0.5317  0.3753  0.4334
  283MOL0     H38193  11.253   2.532   2.271 -0.9734  1.2675  1.3980
  283MOL0     H38194  11.496   2.486   2.317 -1.2311  1.0840  1.2173
  283MOL0     H38195  11.606   2.078   2.459  0.9991 -0.7526 -3.0504
  283MOL0     H38196  11.758   2.177   2.456 -0.7732 -1.6348 -0.3847
  283MOL0     H38197  11.693   2.103   2.679  0.8101 -0.2700 -0.2896
  283MOL0     H38198  11.540   2.206   2.674 -1.4597 -4.6340 -0.7407
  283MOL0     H38199  11.691   2.401   2.650  0.4416  0.3477  0.8284
  283MOL0     H38200  11.838   2.312   2.630 -0.4333  4.4124 -1.1736
  283MOL0     H38201  11.767   2.206   2.871  0.0113  0.6552  0.2481
  283MOL0     H38202  11.679   2.350   2.883  0.6182 -1.3408  2.4353
  283MOL0     H38203  12.080   2.487   2.914  0.0903 -0.7227 -2.1685
  283MOL0     H38204  11.393   2.111   2.496  1.5692 -0.6207  0.4860
  283MOL0     H38205  11.146   2.170   2.482  0.3788  0.3734  2.5132
  284MOL0     O38206   1.166   6.391  11.209  0.3359  0.2559 -0.5961
  284MOL0     C38207   1.176   6.346  11.095 -0.2496 -0.4095 -0.1264
  284MOL0     O38208   1.063   6.316  11.013 -0.5804 -0.2776 -0.2964
  284MOL0     C38209   0.933   6.331  11.060  0.6175  0.3681  0.1762
  284MOL0     C38210   0.875   6.234  11.135 -0.0901 -0.4236  1.2318
  284MOL0     C38211   0.745   6.249  11.187  0.2053  1.0422  0.6559
  284MOL0     C38212   0.673   6.360  11.150 -0.1149  0.4297 -1.0214
  284MOL0     O38213   0.542   6.366  11.189  0.5447  0.1064  0.2279
  284MOL0     C38214   0.515   6.450  11.300 -0.3289 -0.6383 -0.3487
  284MOL0     C38215   0.468   6.357  11.416 -0.5923 -0.9727  0.3431
  284MOL0     C38216   0.326   6.311  11.386 -0.2058 -0.2501 -0.5039
  284MOL0     C38217   0.278   6.230  11.509  0.6236 -0.2024 -0.7693
  284MOL0     C38218   0.137   6.291  11.555 -0.5836  0.0706  0.2656
  284MOL0     C38219   0.034   6.253  11.445  0.6753 -0.2412  0.2105
  284MOL0     C38220  -0.103   6.313  11.481 -0.4266 -0.1149  0.2507
  284MOL0     C38221  -0.207   6.307  11.366 -0.3792  0.4242  0.2587
  284MOL0     N38222  -0.342   6.346  11.401 -0.4298 -0.2506 -0.1087
  284MOL0     C38223  -0.386   6.477  11.415  0.4563 -0.0447 -0.3159
  284MOL0     C38224  -0.517   6.455  11.424  0.0883  0.6195 -0.6123
  284MOL0     C38225  -0.617   6.563  11.445 -0.3571 -0.6457 -0.4228
  284MOL0     C38226  -0.761   6.522  11.422 -0.0921 -0.3232  0.4196
  284MOL0     C38227  -0.797   6.496  11.277  0.4661 -0.0584  0.1265
  284MOL0     C38228  -0.948   6.519  11.251 -0.0485  0.4397  0.3662
  284MOL0     O38229  -1.025   6.423  11.322  0.6142 -0.1668 -0.7370
  284MOL0     C38230  -1.165   6.440  11.300  0.2790  1.0376 -0.3126
  284MOL0     C38231  -1.242   6.336  11.354 -0.0758  0.3941 -0.0030
  284MOL0     C38232  -1.377   6.330  11.330  0.2353  0.2453 -0.7118
  284MOL0     C38233  -1.441   6.215  11.401 -0.1428  1.1143 -0.4581
  284MOL0     C38234  -1.456   6.440  11.264 -0.8269  0.9389 -0.1785
  284MOL0     C38235  -1.599   6.445  11.239  0.1093 -0.3128  0.1906
  284MOL0     O38236  -1.678   6.335  11.237 -0.1977 -0.4014  0.4513
  284MOL0     C38237  -1.802   6.360  11.189 -0.1580 -0.1560  0.5245
  284MOL0     C38238  -1.824   6.397  11.050  0.1883 -0.3947 -0.7431
  284MOL0     C38239  -1.949   6.410  10.996  0.8499 -0.7369  0.1961
  284MOL0     C38240  -2.065   6.394  11.077  0.0305 -0.0367 -0.0103
  284MOL0     O38241  -2.187   6.413  11.008  0.2207  0.4485 -0.0241
  284MOL0     C38242  -2.305   6.380  11.074 -0.3955 -0.1752  0.2267
  284MOL0     C38243  -2.405   6.373  10.954 -0.2302 -0.1746 -0.9318
  284MOL0     C38244  -2.437   6.506  10.880 -0.2942 -0.2113  0.0863
  284MOL0     C38245  -2.481   6.634  10.966  0.5331  0.0531 -0.4208
  284MOL0     C38246  -2.598   6.610  11.067  0.2514 -0.1283 -0.0637
  284MOL0     C38247  -2.733   6.555  11.004 -0.4473  0.5447 -1.0469
  284MOL0     C38248  -2.761   6.643  10.881 -0.9797  0.1548  0.5767
  284MOL0     C38249  -2.804   6.784  10.917 -0.7068 -0.3404  0.0311
  284MOL0    Cl38250  -2.845   6.879  10.761  0.5349  0.5748 -0.6279
  284MOL0     C38251  -2.047   6.355  11.213  0.2245 -0.0632  0.0895
  284MOL0     C38252  -1.920   6.338  11.273 -0.3323 -1.3490 -0.5845
  284MOL0     O38253  -1.636   6.562  11.226  0.4236  0.2586 -0.2701
  284MOL0     C38254  -1.369   6.551  11.213 -0.4554  0.8379  0.2418
  284MOL0     C38255  -1.231   6.549  11.236 -0.7371  0.0015 -0.3678
  284MOL0     N38256  -0.556   6.319  11.423 -0.3679  0.3094  0.7660
  284MOL0     N38257  -0.445   6.259  11.405  0.6935  0.5655 -0.0317
  284MOL0     C38258   0.729   6.451  11.060  0.3694  0.0565 -0.5506
  284MOL0     C38259   0.857   6.438  11.021  0.0602 -0.6087 -0.4405
  284MOL0     C38260   1.298   6.286  11.035  1.3151 -0.3178  0.8876
  284MOL0     C38261   1.423   6.294  11.098  1.3210  0.0817 -0.4984
  284MOL0     C38262   1.535   6.219  11.054 -0.5042 -0.3983  0.6746
  284MOL0     C38263   1.522   6.158  10.927 -0.0186 -0.5503 -0.6426
  284MOL0     O38264   1.625   6.078  10.871  0.3340 -0.2933 -0.7577
  284MOL0     C38265   1.691   6.138  10.756 -0.2971  0.7249 -0.2898
  284MOL0     C38266   1.798   6.240  10.795  0.2205 -0.3009  0.1178
  284MOL0     C38267   1.899   6.184  10.885 -0.0522 -0.6714 -0.5290
  284MOL0     C38268   1.993   6.095  10.802  0.0061 -0.1572 -0.5667
  284MOL0     C38269   2.103   6.054  10.884 -0.1310  0.2825 -0.3492
  284MOL0     C38270   2.203   6.031  10.949  0.4847  1.1447 -0.2831
  284MOL0     C38271   1.405   6.164  10.858  1.3856  0.1712  0.2019
  284MOL0     C38272   1.292   6.220  10.915  0.3200 -1.2850  0.2011
  284MOL0     H38273   0.936   6.151  11.167  0.1825 -0.5873  0.3063
  284MOL0     H38274   0.702   6.163  11.237 -0.4894  0.4647 -0.8833
  284MOL0     H38275   0.604   6.490  11.349 -1.8468  0.4919  1.6356
  284MOL0     H38276   0.447   6.529  11.266 -2.0314 -2.8562 -2.5219
  284MOL0     H38277   0.531   6.269  11.432 -2.0370 -2.3958 -1.3329
  284MOL0     H38278   0.472   6.418  11.506  0.4915 -0.8283  0.2022
  284MOL0     H38279   0.261   6.399  11.384  0.3575  0.5012  3.9836
  284MOL0     H38280   0.318   6.245  11.298  0.4974 -1.4520  0.3075
  284MOL0     H38281   0.254   6.125  11.490  0.1392 -0.3656  0.6434
  284MOL0     H38282   0.345   6.239  11.595 -1.1234 -0.5545  0.6909
  284MOL0     H38283   0.110   6.259  11.656  3.5669 -4.3250  0.3857
  284MOL0     H38284   0.139   6.399  11.570 -2.5147  0.1154  0.3920
  284MOL0     H38285   0.070   6.280  11.345 -0.7459 -1.7111 -0.7578
  284MOL0     H38286   0.020   6.145  11.431  0.0119  0.1695 -2.9605
  284MOL0     H38287  -0.144   6.265  11.570 -0.0576 -0.1151  0.4241
  284MOL0     H38288  -0.087   6.421  11.494  0.2547  0.0625 -1.6452
  284MOL0     H38289  -0.207   6.207  11.322  2.8593  0.6180 -0.4562
  284MOL0     H38290  -0.169   6.363  11.280 -0.9634  0.9967  0.3634
  284MOL0     H38291  -0.327   6.567  11.405  4.2635 -2.1864  0.8848
  284MOL0     H38292  -0.616   6.595  11.550  0.4762 -3.4438  0.5096
  284MOL0     H38293  -0.584   6.651  11.389  2.1364 -1.3227 -0.1394
  284MOL0     H38294  -0.818   6.610  11.453  0.9281  0.0118  1.3802
  284MOL0     H38295  -0.790   6.438  11.485  0.6378 -1.5600 -0.8330
  284MOL0     H38296  -0.785   6.389  11.258 -2.9276 -0.6748  0.7395
  284MOL0     H38297  -0.728   6.557  11.218  0.9954  0.2382  1.0244
  284MOL0     H38298  -0.964   6.497  11.145  2.3696 -2.1174  0.4134
  284MOL0     H38299  -0.972   6.624  11.268 -1.0249  0.3563 -0.4578
  284MOL0     H38300  -1.187   6.266  11.416  2.2506  2.1442  0.0729
  284MOL0     H38301  -1.382   6.123  11.395 -0.6190  0.7449  0.3618
  284MOL0     H38302  -1.443   6.245  11.506  3.0179  0.2107 -0.0531
  284MOL0     H38303  -1.544   6.200  11.367 -0.9772  0.5625  2.1097
  284MOL0     H38304  -1.741   6.423  10.985  1.7337  1.1717  1.7080
  284MOL0     H38305  -1.962   6.465  10.903 -0.5654  1.2101  1.4650
  284MOL0     H38306  -2.294   6.278  11.112  1.7113 -0.4605 -0.9669
  284MOL0     H38307  -2.343   6.442  11.156 -3.7310 -2.8566  0.9485
  284MOL0     H38308  -2.366   6.299  10.884  0.9436 -1.0537  0.5819
  284MOL0     H38309  -2.498   6.321  10.983 -0.5251  0.2152 -1.1703
  284MOL0     H38310  -2.503   6.493  10.794 -2.7517  0.9147  1.7036
  284MOL0     H38311  -2.342   6.536  10.833 -0.8892  0.7550 -0.5320
  284MOL0     H38312  -2.394   6.676  11.018  1.5655 -0.0190 -2.0205
  284MOL0     H38313  -2.496   6.724  10.905  2.2818  0.4831 -0.2730
  284MOL0     H38314  -2.627   6.705  11.114  1.7548  1.1649 -1.6492
  284MOL0     H38315  -2.578   6.534  11.142  1.8838 -0.1991 -0.5449
  284MOL0     H38316  -2.722   6.449  10.983 -0.2675  0.4047 -0.2567
  284MOL0     H38317  -2.811   6.559  11.081  0.1306  1.0337 -0.4801
  284MOL0     H38318  -2.848   6.604  10.827 -1.4445  3.0957 -1.0554
  284MOL0     H38319  -2.684   6.647  10.804 -2.6084  0.0956 -1.1406
  284MOL0     H38320  -2.726   6.837  10.973  0.2038 -0.8043 -0.7850
  284MOL0     H38321  -2.893   6.779  10.980 -1.0981 -1.1843 -0.5885
  284MOL0     H38322  -2.138   6.334  11.268  0.5154  1.7200  1.3695
  284MOL0     H38323  -1.905   6.311  11.377 -0.8336  1.7165  0.3905
  284MOL0     H38324  -1.405   6.647  11.177  0.6436  1.0125 -0.4225
  284MOL0     H38325  -1.169   6.632  11.204 -3.3477  1.4943 -1.8759
  284MOL0     H38326   0.665   6.537  11.042  1.0971  1.1143  1.5795
  284MOL0     H38327   0.892   6.514  10.952  2.0949 -0.7111  0.4260
  284MOL0     H38328   1.443   6.347  11.190 -0.5391 -0.6162  0.3691
  284MOL0     H38329   1.627   6.214  11.112 -0.1655  0.5794  0.2470
  284MOL0     H38330   1.734   6.056  10.698  2.4203  1.9753 -0.1957
  284MOL0     H38331   1.614   6.191  10.700 -2.0862  1.1203  2.3227
  284MOL0     H38332   1.752   6.321  10.851  1.5983  0.4374  0.2224
  284MOL0     H38333   1.844   6.280  10.704 -0.9762 -0.7065 -0.6929
  284MOL0     H38334   1.852   6.119  10.960  2.3748 -0.4068  1.3484
  284MOL0     H38335   1.953   6.263  10.937 -1.4328  0.1186 -0.2513
  284MOL0     H38336   2.035   6.155  10.721 -1.7335 -1.3335 -2.4459
  284MOL0     H38337   1.945   6.000  10.777 -2.7072  0.6335  1.2109
  284MOL0     H38338   2.283   5.990  11.008 -0.1112 -0.2401 -0.4031
  284MOL0     H38339   1.398   6.113  10.762 -0.5229 -1.5617  1.2019
  284MOL0     H38340   1.199   6.202  10.863  0.7821 -1.8266 -0.4533
  285MOL0     O38341   3.588   4.603   7.549  0.4683 -0.5037 -0.0010
  285MOL0     C38342   3.652   4.704   7.506  0.2159  0.0952 -0.5909
  285MOL0     O38343   3.607   4.825   7.456  0.1978 -0.1210  0.3566
  285MOL0     C38344   3.476   4.859   7.473 -0.1905 -1.0242  0.1620
  285MOL0     C38345   3.437   4.989   7.506  0.5531  0.2268  0.2776
  285MOL0     C38346   3.301   5.023   7.511  0.2044 -0.0810 -0.0954
  285MOL0     C38347   3.207   4.936   7.467  0.6438  0.0733 -0.4397
  285MOL0     O38348   3.081   4.976   7.460 -0.2671 -1.2998  0.8636
  285MOL0     C38349   2.976   4.903   7.398 -0.4076  0.0936  0.4287
  285MOL0     C38350   2.855   4.991   7.385 -0.6609 -0.5468 -0.0676
  285MOL0     C38351   2.730   4.907   7.357  0.4458  0.1868  0.2729
  285MOL0     C38352   2.605   5.000   7.354  0.1819 -0.9313  0.7943
  285MOL0     C38353   2.480   4.924   7.323  0.8037  0.3347  0.6653
  285MOL0     C38354   2.445   4.803   7.414 -0.3027 -0.7477 -0.3450
  285MOL0     C38355   2.426   4.844   7.562  0.1481 -0.3077 -0.1084
  285MOL0     C38356   2.319   4.949   7.587 -0.0509 -0.0402  0.3531
  285MOL0     N38357   2.186   4.906   7.542  0.1818 -0.3874  0.1066
  285MOL0     C38358   2.118   4.797   7.595 -0.0600 -0.2487  0.1615
  285MOL0     C38359   2.009   4.775   7.513  0.6846  0.0339  0.0025
  285MOL0     C38360   1.908   4.661   7.521 -0.7046 -0.3580 -0.0844
  285MOL0     C38361   1.771   4.691   7.470  0.5692  0.5804  0.0547
  285MOL0     C38362   1.701   4.793   7.565 -0.0873 -0.7199 -0.1242
  285MOL0     C38363   1.545   4.784   7.576  0.1709 -0.5551 -0.5310
  285MOL0     O38364   1.515   4.672   7.664 -0.0867  0.5447  0.0381
  285MOL0     C38365   1.384   4.630   7.694  0.1766 -0.6798 -0.0084
  285MOL0     C38366   1.371   4.528   7.786 -0.2278  0.2026  0.6270
  285MOL0     C38367   1.258   4.466   7.809  0.4997 -0.6640 -0.4291
  285MOL0     C38368   1.265   4.352   7.906 -0.9633  0.0231 -0.4545
  285MOL0     C38369   1.140   4.517   7.743  0.6468 -0.3345  0.0545
  285MOL0     C38370   0.996   4.457   7.766  0.1685 -0.8074 -0.5943
  285MOL0     O38371   0.979   4.341   7.841  0.0138  0.4895  0.0620
  285MOL0     C38372   0.875   4.256   7.809  0.2277 -0.0980  0.2496
  285MOL0     C38373   0.743   4.289   7.838 -0.7385 -0.6557  1.0412
  285MOL0     C38374   0.651   4.197   7.799 -0.7167 -0.7467 -0.3863
  285MOL0     C38375   0.675   4.074   7.736  0.6156 -0.3249 -0.5462
  285MOL0     O38376   0.585   3.978   7.700 -0.4218 -0.1862 -0.2248
  285MOL0     C38377   0.452   3.983   7.762 -0.2899  0.4005 -0.8006
  285MOL0     C38378   0.354   4.056   7.657  0.7058  0.3628 -0.3930
  285MOL0     C38379   0.206   4.046   7.693 -0.1986 -0.6604  0.0699
  285MOL0     C38380   0.102   4.085   7.586 -0.7112  0.4436 -0.7870
  285MOL0     C38381  -0.030   4.106   7.648 -0.2005 -0.3804  0.0348
  285MOL0     C38382  -0.126   4.168   7.543 -0.9350  0.1148  0.3436
  285MOL0     C38383  -0.176   4.070   7.437 -0.0084 -0.5580 -0.3187
  285MOL0     C38384  -0.277   3.978   7.490  0.5061 -0.1739 -0.4772
  285MOL0    Cl38385  -0.409   4.075   7.575  0.0139 -0.5042 -0.4033
  285MOL0     C38386   0.810   4.045   7.707  0.0297 -0.0096  0.0368
  285MOL0     C38387   0.907   4.136   7.745 -0.6181  0.0381  0.2594
  285MOL0     O38388   0.904   4.522   7.720  0.3485  0.1528  0.4015
  285MOL0     C38389   1.153   4.614   7.643 -0.6777 -0.8449  1.1255
  285MOL0     C38390   1.279   4.672   7.619 -0.8122  0.5482 -0.1574
  285MOL0     N38391   2.019   4.864   7.407  0.4345  0.1033 -0.5313
  285MOL0     N38392   2.113   4.960   7.434  0.1860  0.7139  0.2244
  285MOL0     C38393   3.247   4.808   7.427  0.4357 -0.4344  0.6384
  285MOL0     C38394   3.382   4.765   7.429  0.2935  0.4523  0.5276
  285MOL0     C38395   3.796   4.680   7.471  0.0519  0.2855 -0.4343
  285MOL0     C38396   3.841   4.548   7.458  0.6183  0.2513 -0.6152
  285MOL0     C38397   3.973   4.539   7.427 -0.1750  0.1409 -0.5456
  285MOL0     C38398   4.069   4.639   7.423  0.2063 -0.0440  0.5582
  285MOL0     O38399   4.195   4.597   7.398  0.1725  0.2366  0.0219
  285MOL0     C38400   4.279   4.686   7.329 -0.6337 -0.0012  0.6484
  285MOL0     C38401   4.367   4.596   7.239 -0.6196 -0.6413 -0.3912
  285MOL0     C38402   4.473   4.687   7.160  0.4907 -0.4805 -0.5293
  285MOL0     C38403   4.567   4.587   7.093 -0.1950  0.9822  0.2383
  285MOL0     C38404   4.673   4.645   7.010  0.1176 -1.0844 -0.0197
  285MOL0     C38405   4.753   4.692   6.931  0.7235  0.0521 -0.8449
  285MOL0     C38406   4.018   4.766   7.436  0.1035  0.0878 -0.7784
  285MOL0     C38407   3.886   4.789   7.464  0.1222 -0.6167  0.5624
  285MOL0     H38408   3.500   5.074   7.532  1.2445 -0.3700  0.5829
  285MOL0     H38409   3.263   5.121   7.537 -4.2696 -1.9662  1.5163
  285MOL0     H38410   2.996   4.858   7.301  3.4234  0.4418  0.9232
  285MOL0     H38411   2.952   4.825   7.472  5.2071 -3.7210 -1.1222
  285MOL0     H38412   2.849   5.055   7.474 -0.5725  0.5825 -0.8448
  285MOL0     H38413   2.866   5.054   7.296  0.9497 -1.5692 -0.6410
  285MOL0     H38414   2.742   4.858   7.260  0.0864  0.4423  0.0962
  285MOL0     H38415   2.717   4.828   7.431 -1.7139  0.8911  0.7163
  285MOL0     H38416   2.598   5.061   7.445  3.5696  0.9796 -0.0513
  285MOL0     H38417   2.629   5.076   7.279  3.5502 -2.3459  0.2696
  285MOL0     H38418   2.399   4.996   7.342  0.7904 -0.0999  2.3278
  285MOL0     H38419   2.459   4.909   7.216 -3.7574  1.8898  1.1223
  285MOL0     H38420   2.355   4.766   7.365 -1.4245  2.3781 -0.8384
  285MOL0     H38421   2.524   4.728   7.405  0.3867 -0.2051  0.8400
  285MOL0     H38422   2.404   4.751   7.617  2.3888 -1.1533 -0.5061
  285MOL0     H38423   2.524   4.867   7.605  0.1982 -2.6633  1.2289
  285MOL0     H38424   2.356   5.047   7.555  1.6797 -0.3729  1.2041
  285MOL0     H38425   2.316   4.970   7.694  3.2141  0.3173  0.4828
  285MOL0     H38426   2.156   4.730   7.671 -1.8889 -0.4720  0.9181
  285MOL0     H38427   1.955   4.585   7.459  0.6178  0.5203 -0.1918
  285MOL0     H38428   1.890   4.602   7.612 -1.4527 -0.6080 -0.3924
  285MOL0     H38429   1.714   4.598   7.474  3.0167 -1.1861 -2.1895
  285MOL0     H38430   1.778   4.726   7.367  0.2053 -0.4028 -0.3203
  285MOL0     H38431   1.725   4.891   7.524  1.5916 -0.6088  1.0300
  285MOL0     H38432   1.737   4.791   7.669 -1.4035  2.7563  0.5159
  285MOL0     H38433   1.505   4.767   7.475 -1.9313 -0.9878  0.3145
  285MOL0     H38434   1.506   4.876   7.621  2.0112 -0.7219  1.5404
  285MOL0     H38435   1.459   4.481   7.829  1.3646  0.1680 -2.3927
  285MOL0     H38436   1.215   4.266   7.861  0.6426 -0.7385 -0.8685
  285MOL0     H38437   1.371   4.329   7.923 -1.0429  1.4078  2.6974
  285MOL0     H38438   1.214   4.371   8.001  1.8001 -0.5676  1.2648
  285MOL0     H38439   0.719   4.386   7.880  0.3738 -0.3095  0.9106
  285MOL0     H38440   0.550   4.223   7.829 -0.1452 -0.0383  0.9894
  285MOL0     H38441   0.432   3.879   7.790 -0.7919  0.8990  0.8059
  285MOL0     H38442   0.442   4.036   7.858 -2.2455 -2.0292  0.4521
  285MOL0     H38443   0.389   4.158   7.644  2.3865 -0.0094  0.9340
  285MOL0     H38444   0.368   3.998   7.565 -0.6640  0.9128 -0.9805
  285MOL0     H38445   0.191   4.105   7.784  1.0669 -0.2195  0.0139
  285MOL0     H38446   0.190   3.941   7.719  1.3159 -0.5003  1.8962
  285MOL0     H38447   0.132   4.164   7.516 -4.3214  2.9667  0.2638
  285MOL0     H38448   0.099   4.001   7.516 -1.1540 -0.2266  0.0159
  285MOL0     H38449  -0.024   4.175   7.733 -1.5698 -0.8974  0.5837
  285MOL0     H38450  -0.083   4.018   7.685 -1.8511 -0.4687 -2.3296
  285MOL0     H38451  -0.202   4.221   7.601 -0.5498 -1.0236  1.9763
  285MOL0     H38452  -0.072   4.247   7.490  1.1826 -2.0662 -0.9568
  285MOL0     H38453  -0.093   4.010   7.400  0.7184  1.4623 -2.1786
  285MOL0     H38454  -0.215   4.129   7.354 -1.0922 -1.5380 -0.5302
  285MOL0     H38455  -0.217   3.909   7.550  0.4607 -0.8079 -1.1469
  285MOL0     H38456  -0.328   3.927   7.407 -1.8738  1.9454 -0.4184
  285MOL0     H38457   0.835   3.949   7.663  0.0381  0.1993 -0.4261
  285MOL0     H38458   1.005   4.107   7.707 -1.9860 -1.4806 -2.4031
  285MOL0     H38459   1.063   4.642   7.589  0.6119 -1.1134 -1.2829
  285MOL0     H38460   1.291   4.744   7.538  0.0193  0.0848 -0.4578
  285MOL0     H38461   3.174   4.737   7.388 -1.0661  1.4191 -0.1042
  285MOL0     H38462   3.411   4.668   7.392  2.7554  1.2017  0.2807
  285MOL0     H38463   3.781   4.459   7.474 -1.2348  1.2524 -1.6370
  285MOL0     H38464   4.017   4.439   7.422  1.7687  1.0049 -2.8399
  285MOL0     H38465   4.213   4.745   7.265 -1.2718  0.7000  1.8996
  285MOL0     H38466   4.335   4.750   7.399 -0.8111  2.0335 -0.9645
  285MOL0     H38467   4.302   4.551   7.163  0.7196 -0.9047 -1.4317
  285MOL0     H38468   4.428   4.525   7.296  2.6442  1.7146 -0.6929
  285MOL0     H38469   4.540   4.743   7.225 -1.7020  1.6404  0.0127
  285MOL0     H38470   4.426   4.752   7.086  1.2076 -1.7010 -2.1546
  285MOL0     H38471   4.511   4.523   7.024 -1.4222  0.7918  1.3756
  285MOL0     H38472   4.611   4.513   7.160 -0.3898  0.7282  0.0860
  285MOL0     H38473   4.809   4.746   6.858 -0.3353  3.9906  1.0318
  285MOL0     H38474   4.085   4.851   7.440  0.5559 -0.2216 -1.4595
  285MOL0     H38475   3.840   4.887   7.469 -1.9612 -1.4595 -0.8593
  286MOL0     O38476   5.405   6.056   2.811  0.1313 -0.6995  0.4931
  286MOL0     C38477   5.451   6.146   2.883  0.1026 -0.0152 -0.0056
  286MOL0     O38478   5.376   6.226   2.968  0.3957 -0.5519  0.3068
  286MOL0     C38479   5.240   6.207   2.987 -0.2431  0.1875  0.8903
  286MOL0     C38480   5.186   6.237   3.117  0.2840  0.2292  0.1396
  286MOL0     C38481   5.053   6.240   3.146  0.3847  0.5611  0.4349
  286MOL0     C38482   4.964   6.229   3.032 -0.1105 -0.0357  0.3255
  286MOL0     O38483   4.828   6.248   3.048 -0.1942 -0.1409 -0.6802
  286MOL0     C38484   4.758   6.206   3.167 -0.4324  0.9754 -0.4219
  286MOL0     C38485   4.625   6.287   3.191 -0.5099 -0.5846 -0.4032
  286MOL0     C38486   4.504   6.253   3.100 -0.1704  0.2831  0.2344
  286MOL0     C38487   4.463   6.104   3.127 -0.4455  0.3299 -0.5599
  286MOL0     C38488   4.312   6.075   3.111  0.0458  0.0272  0.8134
  286MOL0     C38489   4.264   6.089   2.963  1.1103  0.1054  0.2670
  286MOL0     C38490   4.115   6.063   2.954  1.0604  0.5212  0.5687
  286MOL0     C38491   4.074   6.022   2.814  1.3383  0.2960 -0.3680
  286MOL0     N38492   3.932   5.992   2.804  0.0127  0.5681 -0.9504
  286MOL0     C38493   3.840   6.093   2.783  0.4249 -0.6037  0.0446
  286MOL0     C38494   3.720   6.025   2.801 -0.7505  0.1593 -0.0145
  286MOL0     C38495   3.582   6.085   2.780  0.0708 -0.5258 -0.4275
  286MOL0     C38496   3.537   6.163   2.910 -0.1934  0.7132  1.2046
  286MOL0     C38497   3.400   6.215   2.916 -0.6645  0.8885  1.3191
  286MOL0     C38498   3.366   6.226   3.064  0.4934 -0.6599 -0.6340
  286MOL0     O38499   3.226   6.261   3.077 -0.2630  0.1988 -0.1286
  286MOL0     C38500   3.132   6.158   3.082 -0.2266 -0.3983 -0.5296
  286MOL0     C38501   3.152   6.030   3.134  0.1074  0.6005  0.1087
  286MOL0     C38502   3.053   5.934   3.104  0.1297 -0.0399  0.2037
  286MOL0     C38503   3.074   5.790   3.132  0.0517 -0.4745 -0.1468
  286MOL0     C38504   2.922   5.971   3.062  0.1846 -0.7611  0.2541
  286MOL0     C38505   2.811   5.874   3.024 -0.6172 -0.7505  0.3604
  286MOL0     O38506   2.687   5.936   2.992 -0.0568 -0.5273  0.6710
  286MOL0     C38507   2.579   5.863   2.951 -0.8399  0.2486  0.7133
  286MOL0     C38508   2.580   5.799   2.832 -0.3599  0.3169 -0.6425
  286MOL0     C38509   2.462   5.734   2.792 -0.9909 -0.1484 -0.1218
  286MOL0     C38510   2.346   5.735   2.877 -0.1762  1.3004  0.4962
  286MOL0     O38511   2.225   5.680   2.850  0.2085 -0.2663  1.0365
  286MOL0     C38512   2.216   5.598   2.726 -0.9383 -0.1275  0.1111
  286MOL0     C38513   2.096   5.501   2.724  0.0021  0.2427  0.2300
  286MOL0     C38514   1.965   5.573   2.702  0.5750 -0.2398 -0.6707
  286MOL0     C38515   1.847   5.474   2.717  0.2094  0.5306  0.2485
  286MOL0     C38516   1.732   5.549   2.652  1.5628  0.1425 -0.4484
  286MOL0     C38517   1.589   5.486   2.698 -0.5541 -0.1763  1.0976
  286MOL0     C38518   1.556   5.352   2.629 -0.2744  0.4482 -0.2379
  286MOL0     C38519   1.411   5.293   2.647 -0.3607 -0.5400  0.6314
  286MOL0    Cl38520   1.351   5.299   2.816 -0.6845  0.1838  0.0014
  286MOL0     C38521   2.347   5.806   2.994  0.1146 -0.0421  0.1004
  286MOL0     C38522   2.460   5.874   3.031 -0.2228 -0.6831 -0.1507
  286MOL0     O38523   2.829   5.753   3.020 -0.2589  0.0454  0.2262
  286MOL0     C38524   2.905   6.104   3.028  0.8396  0.6738 -0.8885
  286MOL0     C38525   3.005   6.194   3.040  0.1314  0.1010 -1.0907
  286MOL0     N38526   3.748   5.894   2.837 -0.7481 -0.0890 -0.1431
  286MOL0     N38527   3.874   5.876   2.841 -0.7608 -0.4075  1.1089
  286MOL0     C38528   5.012   6.186   2.911  0.1441 -0.7248 -1.1390
  286MOL0     C38529   5.146   6.175   2.883  0.2047  0.0544 -0.0365
  286MOL0     C38530   5.598   6.173   2.864  0.3351  0.2573  0.6991
  286MOL0     C38531   5.671   6.116   2.758 -0.1259 -0.1674  0.0959
  286MOL0     C38532   5.813   6.135   2.761  0.7081  0.4504  0.4271
  286MOL0     C38533   5.879   6.208   2.862 -0.2673  0.8008 -0.7303
  286MOL0     O38534   6.014   6.220   2.879  0.3716 -0.2165  0.1782
  286MOL0     C38535   6.098   6.173   2.769  0.1683  0.5952 -0.6707
  286MOL0     C38536   6.242   6.171   2.813  0.7954  0.5348 -0.5811
  286MOL0     C38537   6.269   6.059   2.917  0.3443 -0.0149 -0.3112
  286MOL0     C38538   6.420   6.056   2.954  0.0837 -0.0871 -0.6302
  286MOL0     C38539   6.446   5.955   3.051  0.3433 -0.1071 -0.3323
  286MOL0     C38540   6.478   5.867   3.134 -0.1347 -0.0787 -0.2682
  286MOL0     C38541   5.804   6.261   2.967  0.2864 -0.2453  0.5451
  286MOL0     C38542   5.664   6.239   2.970  0.4238  0.0699  0.4520
  286MOL0     H38543   5.249   6.238   3.205 -1.4172 -0.0549  1.4101
  286MOL0     H38544   5.019   6.244   3.249 -0.2366  0.1440  0.2546
  286MOL0     H38545   4.731   6.102   3.150  2.1685  0.3001 -0.7723
  286MOL0     H38546   4.816   6.217   3.259 -2.7676 -1.6276  1.5335
  286MOL0     H38547   4.603   6.277   3.298 -1.8203 -2.2025 -0.7939
  286MOL0     H38548   4.652   6.392   3.177 -2.9807  0.1942  0.3175
  286MOL0     H38549   4.414   6.313   3.119 -2.1424 -2.0778 -1.1209
  286MOL0     H38550   4.535   6.268   2.997 -0.0554 -0.8737  0.0914
  286MOL0     H38551   4.518   6.046   3.052  0.4736  1.1844 -0.5632
  286MOL0     H38552   4.502   6.073   3.224 -1.0213  1.8206  0.1792
  286MOL0     H38553   4.298   5.970   3.136  1.0417 -1.3965 -3.7441
  286MOL0     H38554   4.244   6.126   3.181  0.4631 -3.4680  4.1029
  286MOL0     H38555   4.286   6.190   2.926 -3.2875  0.4707 -2.0550
  286MOL0     H38556   4.316   6.015   2.903 -0.3943 -0.1893 -0.7511
  286MOL0     H38557   4.091   5.975   3.015  2.7116 -2.6317 -2.9370
  286MOL0     H38558   4.050   6.147   2.980 -0.2854  0.2333 -1.5977
  286MOL0     H38559   4.125   5.933   2.777  1.8382  0.8776 -1.1208
  286MOL0     H38560   4.092   6.098   2.737  0.1910  0.7961 -0.1687
  286MOL0     H38561   3.860   6.198   2.767  1.0820 -0.1529  3.0990
  286MOL0     H38562   3.583   6.152   2.693  1.4224 -0.0091 -0.0436
  286MOL0     H38563   3.504   6.010   2.766 -2.0440  1.8030 -2.2658
  286MOL0     H38564   3.594   6.254   2.928 -2.9242  2.9823 -0.7498
  286MOL0     H38565   3.554   6.082   2.982  3.7300 -3.1651 -3.3312
  286MOL0     H38566   3.325   6.153   2.866  1.3698  0.5004 -1.5347
  286MOL0     H38567   3.404   6.310   2.862  1.8188 -0.6338 -1.4862
  286MOL0     H38568   3.422   6.305   3.114  0.0658 -0.9159  0.2660
  286MOL0     H38569   3.376   6.130   3.117  0.3172 -0.8039 -0.8608
  286MOL0     H38570   3.232   5.982   3.189 -0.4763  0.4758  0.8642
  286MOL0     H38571   3.070   5.728   3.042 -4.2508 -1.0666  0.2410
  286MOL0     H38572   3.168   5.773   3.185  0.1818 -1.7237 -0.7514
  286MOL0     H38573   3.002   5.749   3.203  2.6974  0.5340  3.4656
  286MOL0     H38574   2.664   5.811   2.763  0.1741  2.8214  0.3469
  286MOL0     H38575   2.465   5.687   2.694  1.8022  1.6643 -1.0146
  286MOL0     H38576   2.220   5.672   2.645 -0.1618  1.6606  1.7186
  286MOL0     H38577   2.304   5.536   2.709 -0.4420  0.8320 -0.9664
  286MOL0     H38578   2.105   5.432   2.640 -1.0369  2.0852 -1.4885
  286MOL0     H38579   2.099   5.444   2.818  1.4837  1.5929  1.0413
  286MOL0     H38580   1.970   5.618   2.603 -1.7029 -0.8999 -1.1469
  286MOL0     H38581   1.944   5.656   2.770 -0.3978 -1.4516  0.5660
  286MOL0     H38582   1.864   5.380   2.663 -1.2459  1.2754 -1.6311
  286MOL0     H38583   1.837   5.459   2.824 -0.4471  4.1336  0.8115
  286MOL0     H38584   1.747   5.539   2.544  1.6926  2.1327 -0.6409
  286MOL0     H38585   1.732   5.657   2.665  1.5574  0.0332  0.5287
  286MOL0     H38586   1.584   5.470   2.807 -2.6540 -1.0536  0.9373
  286MOL0     H38587   1.509   5.560   2.686 -0.5396 -0.4113 -0.6738
  286MOL0     H38588   1.622   5.277   2.674 -1.1591  1.6014  3.2890
  286MOL0     H38589   1.582   5.360   2.523  1.0456  0.6502  0.0825
  286MOL0     H38590   1.399   5.197   2.596 -1.4063  1.5659 -3.5682
  286MOL0     H38591   1.355   5.365   2.586  1.8526  1.7500  1.1365
  286MOL0     H38592   2.265   5.796   3.063 -0.3978 -1.3517 -0.6521
  286MOL0     H38593   2.464   5.932   3.122 -4.3907 -0.3565  0.0413
  286MOL0     H38594   2.818   6.128   2.968  1.6817  2.4696 -1.4425
  286MOL0     H38595   2.989   6.298   3.012  3.1115  1.8033  2.6425
  286MOL0     H38596   4.940   6.178   2.830 -1.0188  0.6364 -0.2860
  286MOL0     H38597   5.184   6.138   2.788 -2.8717 -0.9296 -1.0099
  286MOL0     H38598   5.623   6.049   2.686  1.2638  0.2480 -1.2681
  286MOL0     H38599   5.868   6.079   2.687 -2.7123  0.0509 -2.0411
  286MOL0     H38600   6.074   6.067   2.762 -3.8626  1.3310 -0.1091
  286MOL0     H38601   6.071   6.231   2.680 -0.1770 -0.7050 -1.4268
  286MOL0     H38602   6.272   6.270   2.849  0.2554  0.7587 -0.7298
  286MOL0     H38603   6.306   6.160   2.725  0.2328 -3.1747 -0.6922
  286MOL0     H38604   6.251   5.963   2.867  2.3340 -1.5220  1.6942
  286MOL0     H38605   6.196   6.059   2.998 -1.1826  1.0750 -1.6093
  286MOL0     H38606   6.459   6.153   2.987  0.0157 -0.3456  0.2276
  286MOL0     H38607   6.471   6.036   2.859 -0.2372 -0.8625 -0.6414
  286MOL0     H38608   6.492   5.787   3.203  1.2515  0.3933  0.0300
  286MOL0     H38609   5.853   6.302   3.055  1.4299 -1.0730  0.3190
  286MOL0     H38610   5.601   6.286   3.044 -1.0810  0.4490 -1.0049
  287MOL0     O38611   7.491   3.461   5.432 -0.1295  0.3014  0.5932
  287MOL0     C38612   7.576   3.520   5.360 -0.4276 -0.0789  0.2066
  287MOL0     O38613   7.556   3.638   5.291  0.2908 -0.1914  0.0345
  287MOL0     C38614   7.447   3.716   5.309 -0.0123  1.0771  0.0361
  287MOL0     C38615   7.321   3.659   5.272 -0.2331  0.4848  0.7005
  287MOL0     C38616   7.206   3.734   5.293 -0.1080  0.4490  0.1116
  287MOL0     C38617   7.211   3.858   5.368 -0.1181  0.1954 -0.3375
  287MOL0     O38618   7.108   3.925   5.421  0.3460  0.5370  0.1276
  287MOL0     C38619   6.983   3.865   5.430  0.4280  0.3874  0.6629
  287MOL0     C38620   6.887   3.956   5.496  0.3041 -0.0177 -0.1442
  287MOL0     C38621   6.748   3.892   5.506 -0.9667 -1.0405  0.5555
  287MOL0     C38622   6.630   3.992   5.491 -0.3508  0.8036 -0.1683
  287MOL0     C38623   6.492   3.927   5.527  0.0916 -0.0153 -0.0541
  287MOL0     C38624   6.379   4.025   5.478  0.6386 -0.0061 -0.3578
  287MOL0     C38625   6.232   3.974   5.506  0.2076 -0.0019  0.2284
  287MOL0     C38626   6.204   3.944   5.655  0.9667  0.6207 -0.0779
  287MOL0     N38627   6.060   3.931   5.690 -1.2295 -0.1188  0.2533
  287MOL0     C38628   6.003   3.943   5.815 -0.1520 -0.1735  0.8042
  287MOL0     C38629   5.886   3.871   5.815 -0.2502  0.0142 -0.4767
  287MOL0     C38630   5.798   3.840   5.934  0.7467  0.8798  1.0624
  287MOL0     C38631   5.648   3.840   5.891 -0.2941 -0.9015 -1.0809
  287MOL0     C38632   5.603   3.974   5.828  0.3756  0.5418 -0.0380
  287MOL0     C38633   5.455   3.983   5.778 -0.5282  0.3197 -0.1226
  287MOL0     O38634   5.372   3.990   5.897  0.4356  0.1274 -0.2573
  287MOL0     C38635   5.233   3.978   5.894 -0.6222  0.5577 -0.4748
  287MOL0     C38636   5.159   4.028   5.997 -0.5887 -0.7885 -1.0135
  287MOL0     C38637   5.022   4.045   5.997  0.8792  0.4837  0.1548
  287MOL0     C38638   4.957   4.112   6.113  0.5084 -1.0616  0.2394
  287MOL0     C38639   4.950   3.986   5.886  0.5454 -0.0958  0.3900
  287MOL0     C38640   4.807   3.991   5.859  0.5557 -0.7198 -0.1470
  287MOL0     O38641   4.735   4.007   5.974 -0.3550  0.2882 -0.6918
  287MOL0     C38642   4.595   3.996   5.970  0.4420 -0.1403  0.5598
  287MOL0     C38643   4.521   3.874   5.965  0.0663  0.2595  0.7485
  287MOL0     C38644   4.383   3.880   5.949  0.1806 -0.6790 -0.0419
  287MOL0     C38645   4.315   3.995   5.935 -0.2173 -0.1653  0.0979
  287MOL0     O38646   4.182   3.995   5.912 -0.5382  1.1797  0.8108
  287MOL0     C38647   4.110   4.108   5.959  0.3800 -1.4117  0.0080
  287MOL0     C38648   3.964   4.082   5.967 -0.4930  0.6463  0.7419
  287MOL0     C38649   3.937   3.982   6.085  0.5949  0.3342 -0.5698
  287MOL0     C38650   3.788   3.946   6.083 -0.5445  0.1239  0.6101
  287MOL0     C38651   3.758   3.881   6.218  0.1104  0.1208  0.0785
  287MOL0     C38652   3.610   3.876   6.244  0.6697 -0.0880  0.4355
  287MOL0     C38653   3.539   3.755   6.169 -0.3892 -0.1741 -0.0607
  287MOL0     C38654   3.596   3.613   6.168  0.0490 -0.0695 -0.0227
  287MOL0    Cl38655   3.492   3.510   6.073 -0.3714  0.2685 -0.2797
  287MOL0     C38656   4.384   4.115   5.943 -0.4358  0.6428  0.4696
  287MOL0     C38657   4.518   4.115   5.960 -0.4243 -0.7220 -0.5547
  287MOL0     O38658   4.769   4.004   5.745  0.1760 -0.3468  0.1745
  287MOL0     C38659   5.025   3.930   5.786 -1.0679  0.6615 -0.0554
  287MOL0     C38660   5.166   3.925   5.786 -0.1725 -0.4142  0.2275
  287MOL0     N38661   5.876   3.827   5.683 -0.4455 -0.1215  0.3585
  287MOL0     N38662   5.983   3.853   5.609 -0.8668 -0.5048  0.4215
  287MOL0     C38663   7.338   3.909   5.402 -0.1361  0.2669 -0.5831
  287MOL0     C38664   7.453   3.838   5.377  0.4680  1.1716  0.1016
  287MOL0     C38665   7.707   3.453   5.349 -0.0522  0.1991  0.6713
  287MOL0     C38666   7.806   3.506   5.268 -0.0460  0.0864 -0.1969
  287MOL0     C38667   7.924   3.433   5.248 -0.5295 -0.3229  0.0094
  287MOL0     C38668   7.948   3.313   5.315 -0.7203  0.2794 -0.6862
  287MOL0     O38669   8.059   3.232   5.298 -0.5195 -0.8197 -0.2952
  287MOL0     C38670   8.169   3.264   5.392  0.4350  0.1147 -0.1085
  287MOL0     C38671   8.232   3.124   5.409 -1.4867 -0.0863  0.2091
  287MOL0     C38672   8.350   3.129   5.512 -0.0889 -0.0578  0.1977
  287MOL0     C38673   8.455   3.237   5.489 -0.3897 -0.5302  0.2700
  287MOL0     C38674   8.594   3.199   5.532  0.5674  0.0832 -0.2207
  287MOL0     C38675   8.708   3.168   5.568  0.1033 -0.9196 -0.5899
  287MOL0     C38676   7.850   3.262   5.403 -0.3278  0.4257  0.2002
  287MOL0     C38677   7.732   3.334   5.416  0.9354 -0.5204 -0.7713
  287MOL0     H38678   7.314   3.560   5.229 -1.2859  1.1535 -0.7549
  287MOL0     H38679   7.114   3.679   5.274  1.2725 -2.1797  0.4831
  287MOL0     H38680   6.948   3.827   5.334  2.1540 -3.0816  1.2341
  287MOL0     H38681   7.001   3.789   5.506  1.6482  1.3662  1.3968
  287MOL0     H38682   6.923   3.966   5.599  0.7881  1.7419 -0.4496
  287MOL0     H38683   6.879   4.052   5.444 -2.6200  1.2255  2.2902
  287MOL0     H38684   6.739   3.820   5.424  1.3735  1.4199 -2.0822
  287MOL0     H38685   6.745   3.840   5.602  0.1423 -1.1017  0.5671
  287MOL0     H38686   6.640   4.079   5.556  0.4896  0.1432  0.5960
  287MOL0     H38687   6.629   4.026   5.387 -0.7547  0.7558 -0.1852
  287MOL0     H38688   6.482   3.836   5.468 -0.6291  1.0314 -1.5829
  287MOL0     H38689   6.480   3.900   5.633 -1.4500 -0.1921 -0.2526
  287MOL0     H38690   6.384   4.119   5.534  1.2622 -0.9433  1.1886
  287MOL0     H38691   6.394   4.054   5.373 -5.0893  0.4461 -1.4117
  287MOL0     H38692   6.155   4.046   5.478  0.6937 -0.4867 -2.6921
  287MOL0     H38693   6.232   3.884   5.444 -1.4802  0.7023 -0.8702
  287MOL0     H38694   6.247   4.023   5.717 -2.9069  3.2171 -0.3465
  287MOL0     H38695   6.250   3.849   5.683 -1.6577 -0.2653  1.6153
  287MOL0     H38696   6.037   3.993   5.906 -0.7289  1.3914  0.2006
  287MOL0     H38697   5.833   3.747   5.980  0.5924  1.4086  2.2849
  287MOL0     H38698   5.818   3.918   6.008  4.7540 -0.4709  1.6258
  287MOL0     H38699   5.593   3.811   5.981  0.0504 -1.2826 -0.9886
  287MOL0     H38700   5.633   3.755   5.825  1.0896 -1.4442 -0.7433
  287MOL0     H38701   5.673   4.007   5.751 -0.5091  1.5797 -0.4092
  287MOL0     H38702   5.614   4.042   5.913  0.4343  0.0623  0.3437
  287MOL0     H38703   5.433   3.911   5.699  0.6650  0.5730 -0.7039
  287MOL0     H38704   5.456   4.082   5.731  1.1092  0.7104  0.6703
  287MOL0     H38705   5.214   4.070   6.082 -1.8129  1.7982 -1.4104
  287MOL0     H38706   4.891   4.046   6.170 -1.6309  0.6798 -0.0656
  287MOL0     H38707   5.038   4.154   6.173  1.0975  0.5940 -1.5865
  287MOL0     H38708   4.894   4.193   6.074 -2.8167 -1.8343  3.4586
  287MOL0     H38709   4.561   3.773   5.957 -0.5260 -0.0550  1.6419
  287MOL0     H38710   4.321   3.791   5.959 -1.3967  0.5009  1.3304
  287MOL0     H38711   4.157   4.127   6.056  2.4528 -1.9642 -0.8265
  287MOL0     H38712   4.116   4.200   5.900  0.2731  0.1167  2.2555
  287MOL0     H38713   3.912   4.175   5.992 -3.0978 -0.1860 -1.0957
  287MOL0     H38714   3.929   4.040   5.872 -0.1280 -1.4159  1.4594
  287MOL0     H38715   3.967   4.035   6.176 -1.3247  0.9403 -0.2521
  287MOL0     H38716   4.003   3.897   6.069  0.1220 -0.2446  0.4683
  287MOL0     H38717   3.728   4.034   6.061  1.7935  2.8623  4.0728
  287MOL0     H38718   3.757   3.876   6.005  0.3130 -0.8933  1.1491
  287MOL0     H38719   3.794   3.943   6.301  0.9022 -0.0780 -0.1155
  287MOL0     H38720   3.807   3.784   6.216 -0.9722 -0.4350 -0.5709
  287MOL0     H38721   3.600   3.869   6.352 -0.8766  3.6137  0.6826
  287MOL0     H38722   3.570   3.971   6.208  2.2979  0.7847  0.8529
  287MOL0     H38723   3.517   3.781   6.065 -3.0281  1.2346  0.7511
  287MOL0     H38724   3.441   3.742   6.215 -0.2506  1.5658  0.8164
  287MOL0     H38725   3.595   3.568   6.267 -0.9986  0.1243  0.0629
  287MOL0     H38726   3.699   3.619   6.132  0.3678  0.2841  0.9266
  287MOL0     H38727   4.331   4.209   5.935 -1.8337 -0.2746 -2.1279
  287MOL0     H38728   4.579   4.204   5.961  0.2345 -1.1689 -0.0276
  287MOL0     H38729   4.969   3.879   5.709 -2.0571 -1.3495  1.8694
  287MOL0     H38730   5.227   3.879   5.709  0.4268  0.0485  0.4128
  287MOL0     H38731   7.338   3.999   5.462  2.3446 -0.6614  1.0123
  287MOL0     H38732   7.548   3.880   5.410  0.7272  0.3655  0.4109
  287MOL0     H38733   7.770   3.590   5.210 -1.6264 -0.6089 -0.2542
  287MOL0     H38734   8.005   3.459   5.180 -1.3910  6.0974  0.7693
  287MOL0     H38735   8.245   3.332   5.352  0.9255  0.9861  2.1069
  287MOL0     H38736   8.145   3.315   5.487  1.8468 -0.7511  0.7442
  287MOL0     H38737   8.267   3.073   5.319  2.0720 -0.8645  1.8716
  287MOL0     H38738   8.149   3.070   5.456 -1.7839  0.5489  0.4356
  287MOL0     H38739   8.403   3.034   5.525 -2.9256 -1.5217  2.1796
  287MOL0     H38740   8.309   3.149   5.611  2.2909  3.2006  0.6670
  287MOL0     H38741   8.419   3.330   5.535 -0.7109  0.1470 -1.2790
  287MOL0     H38742   8.462   3.263   5.383 -0.1546  1.6546  0.7720
  287MOL0     H38743   8.808   3.154   5.602  0.0957  2.2565  1.1307
  287MOL0     H38744   7.883   3.176   5.460  0.1797 -1.1314 -2.3086
  287MOL0     H38745   7.657   3.292   5.481 -0.6048  0.7190 -1.6820
  288MOL0     O38746   2.246   3.527   8.129 -0.3876  0.2462 -0.2078
  288MOL0     C38747   2.293   3.536   8.240  0.5719 -1.3178  0.1213
  288MOL0     O38748   2.223   3.512   8.359  0.2285  0.4722 -0.1512
  288MOL0     C38749   2.093   3.462   8.375  0.2884 -0.6932  0.2281
  288MOL0     C38750   2.050   3.448   8.512 -0.4984 -1.1020  0.4847
  288MOL0     C38751   1.909   3.424   8.537  0.5787  0.1331 -0.0549
  288MOL0     C38752   1.823   3.386   8.433  0.1598 -0.6823 -0.5392
  288MOL0     O38753   1.686   3.356   8.450  0.0715  0.5656 -0.7004
  288MOL0     C38754   1.620   3.358   8.580 -0.1373  0.6954 -0.3599
  288MOL0     C38755   1.614   3.218   8.648  0.5195  0.0524  0.1474
  288MOL0     C38756   1.503   3.136   8.584 -0.5556  0.3121 -0.7193
  288MOL0     C38757   1.477   3.000   8.665  0.4227 -0.2058  0.3788
  288MOL0     C38758   1.382   2.898   8.595 -0.3385  0.8493 -0.2629
  288MOL0     C38759   1.245   2.978   8.571 -0.5769  0.2466  0.2991
  288MOL0     C38760   1.125   2.877   8.533  0.4119 -0.1337 -1.2283
  288MOL0     C38761   1.064   2.799   8.655  0.4756  0.3087  0.4615
  288MOL0     N38762   0.918   2.764   8.639  0.3526  0.8282 -0.1674
  288MOL0     C38763   0.867   2.674   8.548  0.8935  0.9173 -0.3177
  288MOL0     C38764   0.745   2.643   8.592 -0.2568  0.5094 -0.1321
  288MOL0     C38765   0.646   2.551   8.524  0.0222  0.0411 -0.4403
  288MOL0     C38766   0.577   2.608   8.404 -0.2044  0.4681  0.1871
  288MOL0     C38767   0.487   2.495   8.342 -0.4379 -0.3195 -0.5340
  288MOL0     C38768   0.424   2.546   8.211 -0.2250 -0.6686 -0.4791
  288MOL0     O38769   0.365   2.442   8.131  0.4954 -0.0400 -0.3722
  288MOL0     C38770   0.264   2.484   8.044  0.1174  0.3995  0.0893
  288MOL0     C38771   0.152   2.396   8.023  0.6093 -0.9598 -0.7183
  288MOL0     C38772   0.064   2.434   7.921  0.1978  0.8231 -0.7150
  288MOL0     C38773  -0.072   2.362   7.924  0.5698  0.6223 -0.1478
  288MOL0     C38774   0.085   2.554   7.838 -1.2369 -0.0860  0.4524
  288MOL0     C38775  -0.003   2.593   7.727  0.3942  0.3031  0.2176
  288MOL0     O38776  -0.055   2.485   7.659 -0.4785  0.0787  0.2057
  288MOL0     C38777  -0.153   2.507   7.567 -0.2129  0.0435 -0.6362
  288MOL0     C38778  -0.122   2.495   7.435  0.3195  0.6553  1.0424
  288MOL0     C38779  -0.228   2.528   7.335 -0.6085  0.3324  1.7709
  288MOL0     C38780  -0.363   2.561   7.371 -1.4103  0.1016 -0.3571
  288MOL0     O38781  -0.465   2.582   7.278  0.3972  1.4079  0.7141
  288MOL0     C38782  -0.436   2.668   7.167  0.0346  0.0064  0.3261
  288MOL0     C38783  -0.561   2.722   7.100 -0.0838  1.2675  0.3077
  288MOL0     C38784  -0.643   2.611   7.025  0.4610  0.8416  0.0512
  288MOL0     C38785  -0.791   2.659   7.015  0.1661 -0.9184 -0.8115
  288MOL0     C38786  -0.874   2.565   6.933 -0.0671  0.5192 -0.1666
  288MOL0     C38787  -1.021   2.612   6.928  0.1685  0.4810 -0.1683
  288MOL0     C38788  -1.105   2.499   6.847  0.4026  0.4936  0.2804
  288MOL0     C38789  -1.252   2.527   6.870  0.7915 -0.0134 -0.6622
  288MOL0    Cl38790  -1.352   2.384   6.812  0.2986  0.1263 -0.0703
  288MOL0     C38791  -0.386   2.570   7.510 -0.2995 -0.3156  0.4496
  288MOL0     C38792  -0.286   2.546   7.607 -0.2525  0.2742 -0.0348
  288MOL0     O38793  -0.026   2.714   7.709 -0.4735  0.4491 -0.1292
  288MOL0     C38794   0.201   2.630   7.858 -0.1071 -0.4579  0.0603
  288MOL0     C38795   0.286   2.591   7.958 -0.6066 -0.4472  0.0497
  288MOL0     N38796   0.714   2.733   8.689  0.4661  0.0774 -0.4300
  288MOL0     N38797   0.816   2.802   8.720 -0.3435  0.3640 -0.0629
  288MOL0     C38798   1.877   3.384   8.304  0.5799  0.5137  0.2013
  288MOL0     C38799   2.002   3.426   8.269 -0.1829 -0.2798 -0.9325
  288MOL0     C38800   2.426   3.599   8.263 -0.2288 -0.4479 -0.2972
  288MOL0     C38801   2.536   3.597   8.176 -0.6368 -0.1591 -0.1643
  288MOL0     C38802   2.666   3.640   8.211 -0.5388  0.5354  0.1939
  288MOL0     C38803   2.697   3.687   8.336 -0.3615  0.6375  0.2820
  288MOL0     O38804   2.834   3.704   8.363  0.4609  0.7997  0.3299
  288MOL0     C38805   2.853   3.807   8.461  0.7240 -0.9043 -0.7773
  288MOL0     C38806   3.002   3.820   8.486  0.2622 -0.2160 -0.5390
  288MOL0     C38807   3.080   3.832   8.350  0.1953  0.8968 -0.1580
  288MOL0     C38808   3.215   3.913   8.346 -0.0757  0.2934  0.7816
  288MOL0     C38809   3.201   4.058   8.389 -0.1950  0.7705  0.7463
  288MOL0     C38810   3.176   4.175   8.426 -0.0127 -0.3912 -0.5398
  288MOL0     C38811   2.587   3.700   8.429 -0.3233  0.0531 -0.1930
  288MOL0     C38812   2.457   3.658   8.388  0.3687 -0.3571 -0.6484
  288MOL0     H38813   2.116   3.473   8.595  0.5664 -1.4696 -0.2299
  288MOL0     H38814   1.892   3.428   8.644  1.9710  1.0401  0.1646
  288MOL0     H38815   1.677   3.421   8.649  1.1074  0.2386 -0.9251
  288MOL0     H38816   1.520   3.401   8.569 -1.2942 -0.5968  3.4658
  288MOL0     H38817   1.703   3.153   8.645 -0.9069 -2.1239  1.9560
  288MOL0     H38818   1.593   3.234   8.754 -1.3248  0.0138 -0.1919
  288MOL0     H38819   1.413   3.198   8.578 -0.3962  0.4928 -1.3258
  288MOL0     H38820   1.538   3.116   8.482 -0.1432  0.6728 -0.6510
  288MOL0     H38821   1.574   2.950   8.662  1.3444  1.5162 -1.5710
  288MOL0     H38822   1.459   3.025   8.770  3.7566  3.2982  0.3122
  288MOL0     H38823   1.426   2.862   8.501 -1.3662 -0.6774 -0.1839
  288MOL0     H38824   1.370   2.816   8.666  3.9878  0.5243  0.3677
  288MOL0     H38825   1.228   3.039   8.660 -0.9073  0.1259  0.3220
  288MOL0     H38826   1.247   3.045   8.484 -0.4573 -0.6914 -0.4314
  288MOL0     H38827   1.033   2.926   8.498 -0.8019 -2.8956 -2.2044
  288MOL0     H38828   1.161   2.810   8.455  2.6911 -0.9661  0.4461
  288MOL0     H38829   1.087   2.848   8.750  0.8138  0.5448  0.2580
  288MOL0     H38830   1.111   2.700   8.657 -1.4924 -0.7576 -1.8305
  288MOL0     H38831   0.929   2.628   8.472 -0.2838 -2.5304  0.6495
  288MOL0     H38832   0.700   2.458   8.500 -2.7666 -1.2662 -2.1640
  288MOL0     H38833   0.575   2.518   8.600  1.2876  0.1521  0.8462
  288MOL0     H38834   0.644   2.655   8.332 -2.0937  2.0281 -0.6765
  288MOL0     H38835   0.508   2.689   8.432 -0.8852 -0.2743  0.6793
  288MOL0     H38836   0.403   2.475   8.408 -0.9473  1.4053 -0.6101
  288MOL0     H38837   0.543   2.403   8.323  1.8125  0.5249  1.5121
  288MOL0     H38838   0.502   2.602   8.159  0.0436  0.0882  0.7000
  288MOL0     H38839   0.347   2.614   8.247 -0.7327 -1.2658 -0.4215
  288MOL0     H38840   0.152   2.307   8.086  1.8028 -0.2653  0.2851
  288MOL0     H38841  -0.079   2.266   7.871  4.2094  1.5493 -2.6324
  288MOL0     H38842  -0.086   2.337   8.030  1.0296  0.3062 -0.1562
  288MOL0     H38843  -0.154   2.430   7.903 -0.1054  0.2386  1.1016
  288MOL0     H38844  -0.028   2.464   7.390 -1.2299  0.2323 -2.2044
  288MOL0     H38845  -0.209   2.525   7.229 -1.5947  1.1176  1.5588
  288MOL0     H38846  -0.374   2.753   7.197 -0.5034  0.7302 -0.5300
  288MOL0     H38847  -0.392   2.612   7.084  2.7133  0.1023  1.5865
  288MOL0     H38848  -0.620   2.763   7.183 -1.9162  0.5278 -0.5707
  288MOL0     H38849  -0.539   2.806   7.033  0.9009  0.7564 -0.0198
  288MOL0     H38850  -0.632   2.517   7.080  1.2277  0.7212 -0.2935
  288MOL0     H38851  -0.616   2.599   6.920 -1.0964 -2.9059 -0.0632
  288MOL0     H38852  -0.824   2.676   7.118  0.0244  2.4920 -1.3250
  288MOL0     H38853  -0.788   2.764   6.986 -1.6734  0.3480  2.8890
  288MOL0     H38854  -0.863   2.465   6.976  2.2971  0.3860 -0.9616
  288MOL0     H38855  -0.841   2.553   6.829  4.6812 -0.9212  1.2466
  288MOL0     H38856  -1.057   2.622   7.031 -1.8790 -2.8259 -0.4030
  288MOL0     H38857  -1.032   2.709   6.880  0.4738  0.1998 -0.8136
  288MOL0     H38858  -1.076   2.402   6.887  0.4502  0.8145  1.0379
  288MOL0     H38859  -1.094   2.510   6.739 -2.3001  3.4721  0.1734
  288MOL0     H38860  -1.278   2.620   6.819  1.5261  0.2091 -0.6408
  288MOL0     H38861  -1.272   2.557   6.973 -1.1023  0.1475 -1.0285
  288MOL0     H38862  -0.486   2.602   7.535  0.1449  2.1729 -0.6375
  288MOL0     H38863  -0.306   2.545   7.714 -1.1596 -2.3406 -0.1462
  288MOL0     H38864   0.226   2.721   7.805  4.3790 -2.3640 -1.6147
  288MOL0     H38865   0.376   2.649   7.976 -0.8334 -0.7124  2.3366
  288MOL0     H38866   1.809   3.357   8.223  1.2740 -2.1090  0.4075
  288MOL0     H38867   2.033   3.424   8.165 -1.0098  0.2819 -1.2020
  288MOL0     H38868   2.531   3.559   8.075  2.6801  2.6609 -1.5976
  288MOL0     H38869   2.750   3.627   8.144  0.9354  0.1250  2.0240
  288MOL0     H38870   2.813   3.906   8.436 -2.0755 -1.4524  1.0984
  288MOL0     H38871   2.810   3.794   8.560  1.5058 -0.5417 -0.3843
  288MOL0     H38872   3.048   3.736   8.538  1.5464  0.1188 -1.0941
  288MOL0     H38873   3.021   3.902   8.556 -2.8609 -1.5959  2.1829
  288MOL0     H38874   3.007   3.875   8.280  0.4416 -0.7176 -1.4632
  288MOL0     H38875   3.093   3.732   8.307  1.1950  1.5754 -1.5247
  288MOL0     H38876   3.243   3.911   8.240 -0.6367  0.1449  0.6313
  288MOL0     H38877   3.282   3.850   8.406 -1.2043 -0.6691  1.0652
  288MOL0     H38878   3.158   4.270   8.470 -2.4402 -0.4815 -1.1812
  288MOL0     H38879   2.593   3.731   8.533 -2.0450  0.6895 -0.2494
  288MOL0     H38880   2.373   3.659   8.456 -0.6528 -1.9353 -1.8037
  289MOL0     O38881   5.614   4.512   5.877  0.0538 -0.0781  0.0630
  289MOL0     C38882   5.658   4.459   5.779  0.4035 -0.3033 -0.5381
  289MOL0     O38883   5.578   4.412   5.678 -0.5004 -0.1120  0.0943
  289MOL0     C38884   5.442   4.415   5.678  0.8880 -0.2107  0.5735
  289MOL0     C38885   5.387   4.498   5.582  0.3426 -0.2584 -0.3570
  289MOL0     C38886   5.245   4.509   5.589 -0.0999 -0.4350  1.2019
  289MOL0     C38887   5.162   4.440   5.667 -0.4464  0.7726 -0.9267
  289MOL0     O38888   5.032   4.450   5.661  0.9118 -0.7466  0.1673
  289MOL0     C38889   4.954   4.329   5.690 -0.0412  0.1312  0.2634
  289MOL0     C38890   4.832   4.326   5.594  0.0311  0.5407 -0.0305
  289MOL0     C38891   4.703   4.378   5.660  0.2394  0.2278  0.5819
  289MOL0     C38892   4.587   4.356   5.567 -0.7651  0.2082 -0.0497
  289MOL0     C38893   4.464   4.351   5.659 -0.1084  0.6063 -0.4766
  289MOL0     C38894   4.347   4.342   5.566  0.6737  0.4402  0.2417
  289MOL0     C38895   4.223   4.318   5.659 -0.0385 -1.3468  0.6819
  289MOL0     C38896   4.098   4.352   5.578 -0.0291 -0.1251  0.0463
  289MOL0     N38897   3.983   4.359   5.663  0.2708  0.1050  0.7417
  289MOL0     C38898   3.874   4.280   5.643 -0.3558  0.4066 -0.0068
  289MOL0     C38899   3.798   4.285   5.754 -0.8421 -1.0231  1.2205
  289MOL0     C38900   3.667   4.207   5.769  0.6838 -0.5021 -0.4063
  289MOL0     C38901   3.536   4.301   5.745 -0.1598 -0.3446  0.4701
  289MOL0     C38902   3.423   4.212   5.690 -0.2195 -0.4317  0.0396
  289MOL0     C38903   3.300   4.306   5.654 -0.8193 -0.4424  0.8170
  289MOL0     O38904   3.219   4.206   5.586 -0.5097  0.0664  0.6570
  289MOL0     C38905   3.123   4.135   5.650 -0.4213 -0.0634  0.6691
  289MOL0     C38906   3.045   4.194   5.749 -0.1419  0.2953  0.2719
  289MOL0     C38907   2.943   4.119   5.814  0.4856 -0.3707 -0.8526
  289MOL0     C38908   2.850   4.195   5.904  0.4920 -0.7963  0.0967
  289MOL0     C38909   2.929   3.982   5.782  1.3674 -0.0314  0.0848
  289MOL0     C38910   2.830   3.897   5.850  0.2321  0.7695  0.0150
  289MOL0     O38911   2.797   3.782   5.781 -0.2054 -0.1586  0.5330
  289MOL0     C38912   2.708   3.703   5.849  0.2436 -0.6391 -0.3197
  289MOL0     C38913   2.577   3.744   5.899 -0.2343  0.1395 -0.2064
  289MOL0     C38914   2.485   3.650   5.953 -0.1773  0.4912  0.2140
  289MOL0     C38915   2.522   3.520   5.975  0.4548  0.3481 -0.1625
  289MOL0     O38916   2.437   3.455   6.048  0.3161  0.6430 -0.1468
  289MOL0     C38917   2.474   3.368   6.155  1.0068  0.0555  0.7968
  289MOL0     C38918   2.342   3.326   6.223 -0.8106 -0.8454  0.5429
  289MOL0     C38919   2.383   3.258   6.355  0.3827 -0.2932  0.7756
  289MOL0     C38920   2.258   3.186   6.413  0.1437 -0.1777  0.0290
  289MOL0     C38921   2.281   3.109   6.538 -0.2453 -0.0898  1.5458
  289MOL0     C38922   2.169   3.048   6.608 -0.1421  0.0155  0.7640
  289MOL0     C38923   2.118   2.913   6.549  0.1802 -0.0957 -0.6518
  289MOL0     C38924   2.212   2.801   6.581 -0.3005  0.2748 -0.0054
  289MOL0    Cl38925   2.121   2.652   6.549 -0.1230 -0.1882  0.1256
  289MOL0     C38926   2.647   3.479   5.923  0.0545  0.1782 -1.0191
  289MOL0     C38927   2.737   3.571   5.859 -0.4140 -0.0432 -0.3093
  289MOL0     O38928   2.816   3.914   5.971  0.4643 -0.0815 -0.0376
  289MOL0     C38929   3.016   3.923   5.688 -0.0409 -0.2464 -0.8462
  289MOL0     C38930   3.104   4.005   5.613  0.5529  0.4123  0.5845
  289MOL0     N38931   3.857   4.372   5.837 -0.1474 -0.6361 -0.0461
  289MOL0     N38932   3.971   4.418   5.788 -0.4563 -0.3482 -0.0894
  289MOL0     C38933   5.221   4.359   5.770 -0.3663  0.0694  0.2873
  289MOL0     C38934   5.356   4.348   5.775  0.2913  0.4596 -0.4800
  289MOL0     C38935   5.797   4.415   5.783  0.3429  0.3497 -0.5815
  289MOL0     C38936   5.871   4.443   5.899 -0.9190 -0.3449  0.1063
  289MOL0     C38937   6.004   4.394   5.910  0.3186  0.1107 -0.6271
  289MOL0     C38938   6.060   4.308   5.814 -0.5860  0.8292 -0.3679
  289MOL0     O38939   6.178   4.238   5.836 -0.0602  0.6807  1.2517
  289MOL0     C38940   6.285   4.307   5.906  0.0747 -0.5995  0.6303
  289MOL0     C38941   6.415   4.226   5.897 -0.3691 -0.3164  0.2273
  289MOL0     C38942   6.388   4.089   5.966 -0.0720  0.2271 -0.6332
  289MOL0     C38943   6.502   3.995   5.974 -0.0158  0.4927  0.8709
  289MOL0     C38944   6.602   4.020   6.078 -0.4847 -0.1535 -0.4347
  289MOL0     C38945   6.674   4.039   6.168  0.6261 -0.0712 -0.3503
  289MOL0     C38946   5.975   4.276   5.701  0.1949 -0.0445  0.6987
  289MOL0     C38947   5.850   4.333   5.686  0.2383 -0.3787  1.0164
  289MOL0     H38948   5.445   4.563   5.518 -0.4553 -1.3853 -2.3606
  289MOL0     H38949   5.195   4.575   5.520 -0.2887 -0.1233  1.6322
  289MOL0     H38950   5.014   4.240   5.668  1.2552  1.0560  0.0284
  289MOL0     H38951   4.915   4.331   5.793 -1.4274  0.3780 -0.2479
  289MOL0     H38952   4.858   4.390   5.509  1.4598 -0.7147 -0.5719
  289MOL0     H38953   4.821   4.221   5.566  1.1514  0.7769 -1.4508
  289MOL0     H38954   4.695   4.317   5.750  2.5196  0.0289  0.7025
  289MOL0     H38955   4.714   4.481   5.696 -1.1663  0.4687  0.3793
  289MOL0     H38956   4.572   4.429   5.487 -3.5790 -0.2094 -0.0114
  289MOL0     H38957   4.598   4.258   5.520 -0.9065  2.1663 -4.6243
  289MOL0     H38958   4.465   4.262   5.723 -0.0183  1.4910  0.8063
  289MOL0     H38959   4.448   4.435   5.727  0.8679  0.8891 -0.5912
  289MOL0     H38960   4.338   4.423   5.493  0.8572 -0.6893 -1.0635
  289MOL0     H38961   4.365   4.256   5.501 -0.7875 -0.0110  0.3943
  289MOL0     H38962   4.225   4.213   5.691  0.9604 -0.7751  2.6286
  289MOL0     H38963   4.226   4.378   5.750 -0.0185  2.0329 -1.3898
  289MOL0     H38964   4.084   4.280   5.496 -2.1128  1.9252 -1.5247
  289MOL0     H38965   4.119   4.452   5.538  1.7832 -0.7159 -0.6145
  289MOL0     H38966   3.836   4.223   5.559 -1.2831 -0.9755  1.3047
  289MOL0     H38967   3.674   4.131   5.691 -4.0293 -0.3254 -1.3140
  289MOL0     H38968   3.649   4.169   5.870  0.8103 -0.2147 -0.2740
  289MOL0     H38969   3.553   4.378   5.669 -0.0980 -1.4015 -0.6171
  289MOL0     H38970   3.519   4.357   5.837  2.8072 -2.8493  2.7652
  289MOL0     H38971   3.400   4.148   5.775  2.8606 -1.4224  0.2539
  289MOL0     H38972   3.456   4.168   5.596 -2.0668 -0.5540 -0.5757
  289MOL0     H38973   3.322   4.388   5.585  0.0873 -0.2143  1.3602
  289MOL0     H38974   3.255   4.344   5.746  0.3371 -2.2137  2.2059
  289MOL0     H38975   3.052   4.301   5.762  0.1962  0.2806  0.2173
  289MOL0     H38976   2.752   4.177   5.859  1.1794 -0.5566 -1.5738
  289MOL0     H38977   2.850   4.164   6.009 -3.4937  0.2324  0.5676
  289MOL0     H38978   2.872   4.301   5.889  1.1218 -0.9301  0.0432
  289MOL0     H38979   2.548   3.848   5.886  1.6877  0.6564 -0.6097
  289MOL0     H38980   2.385   3.682   5.982 -0.0378  0.9484  0.2036
  289MOL0     H38981   2.527   3.278   6.122  3.2136  2.2535 -2.2338
  289MOL0     H38982   2.546   3.417   6.221  2.7103 -0.5192 -0.5766
  289MOL0     H38983   2.293   3.422   6.240  0.1700 -0.1618 -0.3176
  289MOL0     H38984   2.268   3.270   6.166 -0.6439 -0.9547  0.4325
  289MOL0     H38985   2.422   3.335   6.422  0.0672  1.6759 -1.1882
  289MOL0     H38986   2.464   3.187   6.336  2.1199  1.5163  1.0959
  289MOL0     H38987   2.181   3.262   6.432  0.9967  1.2971 -2.0324
  289MOL0     H38988   2.208   3.122   6.341 -1.3384  1.6100 -0.6017
  289MOL0     H38989   2.329   3.179   6.606  1.8961 -0.7528  0.7974
  289MOL0     H38990   2.353   3.031   6.509 -1.0896 -1.4132  2.8648
  289MOL0     H38991   2.198   3.043   6.713  0.9353  0.2819  0.4963
  289MOL0     H38992   2.085   3.117   6.598 -1.2859 -1.5753 -1.9780
  289MOL0     H38993   2.099   2.917   6.441 -0.8926  0.9717 -0.4490
  289MOL0     H38994   2.019   2.898   6.593  0.1134 -0.1510 -0.8200
  289MOL0     H38995   2.240   2.801   6.687  0.0202 -2.9254  0.0071
  289MOL0     H38996   2.301   2.813   6.519 -0.4805 -1.7989 -0.7583
  289MOL0     H38997   2.670   3.377   5.951  0.9935  1.3688  3.2709
  289MOL0     H38998   2.832   3.539   5.816 -1.4245 -0.2608 -2.5162
  289MOL0     H38999   3.022   3.816   5.672 -0.3211 -0.0605 -2.3458
  289MOL0     H39000   3.165   3.965   5.534 -2.5377  0.8889 -2.2472
  289MOL0     H39001   5.144   4.304   5.825 -3.6549  2.5116 -1.4827
  289MOL0     H39002   5.403   4.281   5.846  1.1825  0.4644 -1.0421
  289MOL0     H39003   5.830   4.504   5.978 -1.4875 -1.4893  0.7293
  289MOL0     H39004   6.064   4.414   5.998 -1.9711  2.3352  0.5576
  289MOL0     H39005   6.293   4.401   5.852 -1.4218 -2.2984 -2.7961
  289MOL0     H39006   6.266   4.321   6.013  1.8815 -1.2838  1.0835
  289MOL0     H39007   6.502   4.281   5.935  0.5319  1.6598 -4.1540
  289MOL0     H39008   6.449   4.222   5.794  2.6467 -0.6111  1.1268
  289MOL0     H39009   6.313   4.034   5.908 -0.3574  0.2577 -0.3010
  289MOL0     H39010   6.347   4.102   6.067 -0.0029  0.1823 -0.5992
  289MOL0     H39011   6.547   3.976   5.877 -3.0940 -1.2684 -0.3368
  289MOL0     H39012   6.458   3.895   5.978 -1.7708  1.2339  0.9162
  289MOL0     H39013   6.734   4.063   6.253 -0.0941  1.9876 -0.3599
  289MOL0     H39014   6.017   4.206   5.629 -1.7206 -2.3698  1.7049
  289MOL0     H39015   5.795   4.320   5.593 -0.6521 -1.6069  1.6794
  290MOL0     O39016   7.590   8.429   1.361 -0.1376 -0.0894  0.5653
  290MOL0     C39017   7.678   8.508   1.310 -0.2873  0.9639 -0.5586
  290MOL0     O39018   7.662   8.623   1.250 -0.0007 -0.2824 -0.0679
  290MOL0     C39019   7.533   8.659   1.231  0.6451  0.3518 -0.2471
  290MOL0     C39020   7.445   8.707   1.332  0.0618  1.0716  0.4092
  290MOL0     C39021   7.312   8.737   1.303 -0.0186  0.1799 -0.5620
  290MOL0     C39022   7.261   8.719   1.180 -0.2107 -1.0476  0.4532
  290MOL0     O39023   7.125   8.737   1.169 -0.1947  0.0379  0.9416
  290MOL0     C39024   7.071   8.702   1.041 -1.0416  0.9606  0.3907
  290MOL0     C39025   6.922   8.714   1.057 -0.3898  0.6113 -0.3595
  290MOL0     C39026   6.858   8.700   0.918 -0.2331  0.1559 -0.9195
  290MOL0     C39027   6.753   8.812   0.903 -0.1808 -1.0824 -0.1770
  290MOL0     C39028   6.697   8.785   0.767  0.2987  0.3637 -0.3075
  290MOL0     C39029   6.579   8.871   0.712 -0.0530  0.0022 -0.2838
  290MOL0     C39030   6.523   8.818   0.572  0.4329  0.2812 -1.2933
  290MOL0     C39031   6.400   8.899   0.530  0.2492 -0.4243  0.0654
  290MOL0     N39032   6.291   8.822   0.471  0.1363  0.0819  0.5070
  290MOL0     C39033   6.203   8.748   0.535  0.7452  0.4273 -0.3672
  290MOL0     C39034   6.144   8.665   0.439 -0.1999  0.4621 -0.1242
  290MOL0     C39035   6.022   8.568   0.479 -0.4072 -0.9951  0.5058
  290MOL0     C39036   5.889   8.604   0.413 -0.5983  0.3056  0.3125
  290MOL0     C39037   5.782   8.508   0.453  0.0416 -0.1688  0.6822
  290MOL0     C39038   5.645   8.557   0.409  0.6704 -0.0024 -0.3970
  290MOL0     O39039   5.646   8.590   0.266  0.1476  0.7379  0.6497
  290MOL0     C39040   5.523   8.618   0.202  0.2550 -0.6189  0.0689
  290MOL0     C39041   5.527   8.660   0.062 -0.0233 -0.5180  0.1915
  290MOL0     C39042   5.405   8.702   0.003 -0.1655  0.3758  0.2803
  290MOL0     C39043   5.420   8.742  -0.141  0.4799  0.4916  0.6349
  290MOL0     C39044   5.283   8.695   0.067  0.4677  0.2029 -0.4827
  290MOL0     C39045   5.147   8.722   0.020  0.3120  0.4806 -0.4051
  290MOL0     O39046   5.041   8.688   0.107 -0.5769  0.0645 -0.1890
  290MOL0     C39047   4.916   8.737   0.091  0.3764 -0.3994 -0.1048
  290MOL0     C39048   4.890   8.865   0.044  0.9606  0.4365 -0.5919
  290MOL0     C39049   4.760   8.914   0.037 -0.4341  0.4441 -0.1306
  290MOL0     C39050   4.653   8.836   0.087 -0.4752 -0.0053 -0.2756
  290MOL0     O39051   4.529   8.887   0.062  0.3606 -0.1291  0.1436
  290MOL0     C39052   4.418   8.802   0.084 -0.0021  0.4720  0.2533
  290MOL0     C39053   4.276   8.868   0.059 -0.5281  0.2517 -0.1567
  290MOL0     C39054   4.247   8.908  -0.084 -0.4789  1.1778 -0.0171
  290MOL0     C39055   4.149   9.029  -0.100 -0.2701  0.7815 -0.6427
  290MOL0     C39056   4.128   9.082  -0.249 -0.7552  0.7191 -0.6894
  290MOL0     C39057   4.218   9.201  -0.280 -0.1228 -0.1819  0.2749
  290MOL0     C39058   4.365   9.162  -0.284 -0.2678  0.2104 -0.8521
  290MOL0     C39059   4.447   9.289  -0.323  0.0548 -0.4750 -0.2161
  290MOL0    Cl39060   4.386   9.356  -0.474 -0.3879 -0.1131  0.3793
  290MOL0     C39061   4.680   8.706   0.139 -0.5576  0.1479  0.4978
  290MOL0     C39062   4.811   8.654   0.137 -0.6539 -0.3095  1.0881
  290MOL0     O39063   5.134   8.785  -0.084 -0.1880 -0.7479  0.1213
  290MOL0     C39064   5.285   8.663   0.208 -0.7158 -0.5981 -0.0942
  290MOL0     C39065   5.404   8.626   0.270  0.2988 -0.8549  0.6766
  290MOL0     N39066   6.209   8.693   0.326  0.0217 -1.2032  1.3739
  290MOL0     N39067   6.294   8.783   0.344  0.0619 -0.7194 -0.5141
  290MOL0     C39068   7.354   8.693   1.074  0.3512  0.4461 -0.6433
  290MOL0     C39069   7.487   8.667   1.099  0.5095 -0.1650  0.1107
  290MOL0     C39070   7.824   8.478   1.309  0.4917  0.1177  0.5009
  290MOL0     C39071   7.915   8.539   1.214  0.1184 -0.4643 -0.6602
  290MOL0     C39072   8.047   8.497   1.215 -0.7435  0.2135  0.0251
  290MOL0     C39073   8.085   8.386   1.288  0.0918 -0.1210  0.2656
  290MOL0     O39074   8.208   8.321   1.274 -0.1178  0.0102 -0.0869
  290MOL0     C39075   8.294   8.347   1.162  0.4520  0.1219  0.7651
  290MOL0     C39076   8.397   8.231   1.150  0.4959  0.5054 -0.1935
  290MOL0     C39077   8.478   8.247   1.024  0.0479 -0.3299  0.5122
  290MOL0     C39078   8.586   8.355   1.036 -0.0186 -0.1103 -0.0710
  290MOL0     C39079   8.665   8.351   0.917 -0.1039  0.0707  0.0239
  290MOL0     C39080   8.729   8.369   0.817 -0.7561  0.7389  0.4228
  290MOL0     C39081   8.003   8.329   1.382 -0.4775  0.2651 -0.7094
  290MOL0     C39082   7.872   8.382   1.402  0.1191  0.1888 -0.0832
  290MOL0     H39083   7.473   8.711   1.437 -0.2496 -1.1178  0.6336
  290MOL0     H39084   7.251   8.770   1.386  1.2958  0.0203  0.4916
  290MOL0     H39085   7.107   8.773   0.965 -1.1811  1.5494  0.8631
  290MOL0     H39086   7.104   8.601   1.016 -0.1832 -0.1423  4.9971
  290MOL0     H39087   6.889   8.630   1.119  2.1711  0.2288  0.6432
  290MOL0     H39088   6.900   8.811   1.101  3.6810  1.1016  1.0626
  290MOL0     H39089   6.929   8.689   0.836  3.0226 -2.5407  1.9569
  290MOL0     H39090   6.804   8.605   0.920 -2.1689  1.1527  2.0619
  290MOL0     H39091   6.672   8.803   0.976 -1.4614 -1.4243 -1.5890
  290MOL0     H39092   6.795   8.913   0.901 -3.1980  0.2873 -0.0607
  290MOL0     H39093   6.782   8.803   0.701  1.1565 -0.0603  0.6645
  290MOL0     H39094   6.663   8.681   0.759  0.0336  0.2922  1.4508
  290MOL0     H39095   6.512   8.875   0.799  2.6341 -0.1672  1.9405
  290MOL0     H39096   6.614   8.972   0.690 -0.0556 -0.2847 -1.6810
  290MOL0     H39097   6.588   8.814   0.484  1.2390  1.2863 -0.7649
  290MOL0     H39098   6.480   8.720   0.595 -0.5124  1.1479  0.8584
  290MOL0     H39099   6.439   8.973   0.460  1.7541 -1.4032 -0.1783
  290MOL0     H39100   6.347   8.957   0.606 -0.3567  0.1313 -0.7582
  290MOL0     H39101   6.173   8.757   0.639  0.5501 -1.3273 -0.2346
  290MOL0     H39102   6.052   8.466   0.455 -1.0277 -0.8319 -1.1545
  290MOL0     H39103   6.003   8.575   0.586  0.2896 -0.9733  0.6332
  290MOL0     H39104   5.904   8.598   0.305 -1.6416 -0.7878  0.1966
  290MOL0     H39105   5.858   8.705   0.439  0.4244  0.4441  1.0031
  290MOL0     H39106   5.785   8.489   0.561  2.1317  0.5240  0.7864
  290MOL0     H39107   5.800   8.408   0.413  0.6184 -0.5322  1.8029
  290MOL0     H39108   5.625   8.640   0.477 -1.5996 -0.9165  0.1612
  290MOL0     H39109   5.575   8.477   0.436  0.7424 -0.5230 -1.6932
  290MOL0     H39110   5.618   8.674   0.004  0.8123  1.2772  1.8284
  290MOL0     H39111   5.348   8.695  -0.210 -0.8475 -1.1309  2.9951
  290MOL0     H39112   5.403   8.849  -0.153 -0.2968  0.4240  1.0553
  290MOL0     H39113   5.521   8.714  -0.173  0.6112  0.1192  1.3523
  290MOL0     H39114   4.976   8.915   0.000 -0.2795  0.2941 -3.4299
  290MOL0     H39115   4.744   9.013  -0.005  0.6869  0.9237  0.5180
  290MOL0     H39116   4.432   8.718   0.016  2.8302  0.7175  0.3980
  290MOL0     H39117   4.418   8.766   0.187 -0.5712  0.3701  0.2221
  290MOL0     H39118   4.207   8.793   0.098  0.7457 -0.4770  0.8087
  290MOL0     H39119   4.259   8.958   0.119  3.4454  0.4415  1.0073
  290MOL0     H39120   4.207   8.828  -0.147  2.4737  1.2370 -2.1748
  290MOL0     H39121   4.342   8.935  -0.132 -0.9716  4.0335  0.4523
  290MOL0     H39122   4.051   8.995  -0.065 -0.8208  1.0948 -1.8324
  290MOL0     H39123   4.174   9.113  -0.035  0.2772  0.8550 -0.9469
  290MOL0     H39124   4.026   9.107  -0.282 -1.9054  0.8158  2.5396
  290MOL0     H39125   4.163   9.012  -0.325  1.8266  1.1050  0.0446
  290MOL0     H39126   4.179   9.231  -0.378 -1.9883 -0.4352  0.8977
  290MOL0     H39127   4.208   9.283  -0.209  0.6415 -0.1531  0.3598
  290MOL0     H39128   4.373   9.080  -0.357 -0.5834 -1.7025  1.1679
  290MOL0     H39129   4.420   9.126  -0.197  2.6275 -0.0124 -2.6250
  290MOL0     H39130   4.551   9.256  -0.323  0.3684  0.4154 -1.3982
  290MOL0     H39131   4.435   9.367  -0.247  0.0875 -0.1431 -0.5490
  290MOL0     H39132   4.607   8.631   0.166  2.2024 -1.9034  2.7328
  290MOL0     H39133   4.840   8.552   0.161  0.1049 -0.1602  0.8373
  290MOL0     H39134   5.191   8.672   0.263 -0.4749  0.1697  0.2057
  290MOL0     H39135   5.403   8.606   0.377  0.6521 -1.3920  0.5837
  290MOL0     H39136   7.310   8.668   0.978  0.1398 -0.9794 -0.1930
  290MOL0     H39137   7.557   8.637   1.021  1.2881 -2.7845  1.7147
  290MOL0     H39138   7.883   8.616   1.144  2.5463  3.2168  1.8701
  290MOL0     H39139   8.123   8.541   1.151 -0.3822 -0.7315 -0.2044
  290MOL0     H39140   8.228   8.351   1.074 -3.3311  1.9662  3.3769
  290MOL0     H39141   8.348   8.441   1.177 -1.0702  1.0323  0.7333
  290MOL0     H39142   8.341   8.138   1.133  1.5095 -0.3863  1.1633
  290MOL0     H39143   8.450   8.214   1.244 -0.2578 -0.8446  0.0151
  290MOL0     H39144   8.419   8.271   0.935 -0.5850  1.2340  1.3196
  290MOL0     H39145   8.530   8.154   0.999  2.0047  0.4691  1.4070
  290MOL0     H39146   8.638   8.341   1.131 -0.3570  2.4620  0.5871
  290MOL0     H39147   8.548   8.457   1.049  2.2439  1.3443 -3.4572
  290MOL0     H39148   8.780   8.365   0.722 -3.8097 -0.1319 -1.3189
  290MOL0     H39149   8.048   8.258   1.450 -1.0434  0.2898 -0.3020
  290MOL0     H39150   7.812   8.337   1.481  0.9965 -2.8054 -0.9706
  291MOL0     O39151   9.400  10.097   8.203  0.5989 -0.4380 -0.4101
  291MOL0     C39152   9.328  10.112   8.105  0.0722  0.4966 -0.2679
  291MOL0     O39153   9.187  10.127   8.114 -0.2305  0.0383  0.5001
  291MOL0     C39154   9.124  10.160   8.227  0.6379 -0.4927  0.1754
  291MOL0     C39155   8.990  10.131   8.236  0.2812  0.6607 -0.5187
  291MOL0     C39156   8.905  10.170   8.345 -0.3519 -0.2808 -0.1223
  291MOL0     C39157   8.953  10.247   8.448  0.0841  0.3290 -0.0943
  291MOL0     O39158   8.864  10.293   8.545 -0.4994  0.1599 -0.1135
  291MOL0     C39159   8.923  10.350   8.661 -0.7689  0.0544 -0.4473
  291MOL0     C39160   8.831  10.342   8.774  0.4372  0.8570 -0.4637
  291MOL0     C39161   8.889  10.401   8.890 -0.7288  0.3802  0.6220
  291MOL0     C39162   8.786  10.406   8.997 -0.1976  0.1985  0.1684
  291MOL0     C39163   8.827  10.505   9.109 -0.7283  0.6048  0.1541
  291MOL0     C39164   8.754  10.491   9.245  0.1373 -0.0105 -0.1496
  291MOL0     C39165   8.818  10.549   9.368 -0.1791 -0.6190 -1.0577
  291MOL0     C39166   8.948  10.490   9.413 -0.2338 -0.1382  0.2836
  291MOL0     N39167   9.024  10.571   9.513 -0.3282  0.9672  0.2423
  291MOL0     C39168   8.983  10.586   9.645 -0.8288  0.0718 -0.5438
  291MOL0     C39169   9.086  10.658   9.693  0.5887  0.8071  0.1166
  291MOL0     C39170   9.101  10.700   9.838 -0.1614 -0.3650 -0.0617
  291MOL0     C39171   8.991  10.803   9.875  0.3237  0.8447  0.4659
  291MOL0     C39172   9.021  10.950   9.834  0.4003 -0.0820  0.0959
  291MOL0     C39173   8.909  11.050   9.866 -0.5857  0.1788  0.4287
  291MOL0     O39174   8.894  11.045  10.006  0.1393  0.3253 -0.4340
  291MOL0     C39175   8.765  11.008  10.043  0.3782 -0.5079 -0.1463
  291MOL0     C39176   8.677  11.115  10.045  0.2205 -0.0064  0.5039
  291MOL0     C39177   8.535  11.094  10.057  0.2455  0.5647 -0.2481
  291MOL0     C39178   8.447  11.219  10.057 -0.8679 -0.3707  0.6222
  291MOL0     C39179   8.487  10.963  10.081 -0.2885  1.1387 -0.4027
  291MOL0     C39180   8.345  10.928  10.109  0.2928 -0.4331 -0.1121
  291MOL0     O39181   8.315  10.790  10.108 -0.3529  0.7184  0.2535
  291MOL0     C39182   8.183  10.756  10.121 -0.2352 -0.2532  0.6979
  291MOL0     C39183   8.112  10.778  10.239  0.8089  0.2345 -0.2916
  291MOL0     C39184   7.974  10.755  10.249  0.5931 -0.8588  0.7250
  291MOL0     C39185   7.903  10.696  10.143  0.1039 -1.3236  0.0416
  291MOL0     O39186   7.780  10.646  10.147 -0.5375 -0.3495 -0.4422
  291MOL0     C39187   7.701  10.691  10.260  0.5386  0.1906 -0.6074
  291MOL0     C39188   7.555  10.636  10.268  0.0973  0.7217 -0.2929
  291MOL0     C39189   7.447  10.742  10.242 -0.4648 -0.7906  0.4213
  291MOL0     C39190   7.314  10.669  10.249  0.1780  0.4889 -0.5167
  291MOL0     C39191   7.194  10.765  10.229  1.1946  0.3908 -0.0334
  291MOL0     C39192   7.064  10.681  10.212 -0.2141  0.2776 -0.6706
  291MOL0     C39193   6.945  10.770  10.262 -0.1800  0.0197 -0.7535
  291MOL0     C39194   6.809  10.732  10.207 -0.6338 -0.3607  1.4730
  291MOL0    Cl39195   6.768  10.564  10.239 -0.1389 -0.4582 -0.1187
  291MOL0     C39196   7.968  10.679  10.027 -0.3267 -0.5654  0.2610
  291MOL0     C39197   8.112  10.703  10.018 -0.5975  0.9521  0.0186
  291MOL0     O39198   8.258  11.016  10.131 -0.3160  0.0235  0.1297
  291MOL0     C39199   8.575  10.852  10.085  0.0578  0.0096 -0.0330
  291MOL0     C39200   8.715  10.872  10.072  1.2386 -0.4430 -0.6153
  291MOL0     N39201   9.182  10.682   9.597 -0.0343 -0.3589 -0.1253
  291MOL0     N39202   9.148  10.619   9.487 -0.0183 -0.3896  0.2159
  291MOL0     C39203   9.089  10.288   8.432  0.3548  1.2731 -1.2047
  291MOL0     C39204   9.178  10.242   8.329  0.6785 -0.4840 -0.3597
  291MOL0     C39205   9.403  10.091   7.980  1.2316 -0.0735  0.7761
  291MOL0     C39206   9.544  10.083   7.973 -0.0875 -0.5709 -0.8487
  291MOL0     C39207   9.604  10.039   7.855 -0.2843  0.3576  0.3384
  291MOL0     C39208   9.529  10.024   7.734 -0.5782 -0.1059  0.0249
  291MOL0     O39209   9.580   9.977   7.613 -0.3845  0.2792  0.6016
  291MOL0     C39210   9.726   9.965   7.597  0.5153  0.0609  0.0738
  291MOL0     C39211   9.755   9.974   7.443 -0.2486 -0.0480 -0.1791
  291MOL0     C39212   9.896  10.019   7.409  0.4682 -0.1569  0.4777
  291MOL0     C39213   9.917  10.046   7.253 -0.1649  0.7744 -1.1854
  291MOL0     C39214   9.874   9.926   7.176  0.6804  0.3750 -0.8001
  291MOL0     C39215   9.830   9.825   7.118 -0.9364 -0.0894 -0.7396
  291MOL0     C39216   9.392  10.045   7.736  0.2297  0.3453 -1.0911
  291MOL0     C39217   9.329  10.083   7.853  0.4347 -0.2384  0.4643
  291MOL0     H39218   8.945  10.063   8.164  1.9602 -0.6027 -0.4141
  291MOL0     H39219   8.801  10.142   8.341 -0.5874  0.6554 -1.1119
  291MOL0     H39220   9.013  10.294   8.690 -0.4173  2.0495  2.8744
  291MOL0     H39221   8.971  10.448   8.647  3.8683 -1.4457  2.5302
  291MOL0     H39222   8.743  10.397   8.740 -0.1825 -0.3419 -0.8090
  291MOL0     H39223   8.804  10.238   8.794  2.5520  0.1515 -1.0258
  291MOL0     H39224   8.978  10.345   8.920  0.5630  0.5831 -2.4539
  291MOL0     H39225   8.921  10.503   8.866 -1.9728  0.5250 -0.5935
  291MOL0     H39226   8.692  10.440   8.954 -0.0657 -1.2307 -1.3172
  291MOL0     H39227   8.777  10.312   9.054 -0.0422  1.9679  3.3838
  291MOL0     H39228   8.936  10.500   9.121 -0.9502 -1.4075  2.3477
  291MOL0     H39229   8.812  10.607   9.072 -2.0344 -0.7244 -3.3935
  291MOL0     H39230   8.651  10.525   9.227  0.2777 -0.2115 -1.4334
  291MOL0     H39231   8.750  10.383   9.261  0.7716 -0.1989 -1.1613
  291MOL0     H39232   8.833  10.656   9.353  1.0524 -0.5114  0.7135
  291MOL0     H39233   8.754  10.526   9.454  0.7102 -2.7204 -0.8940
  291MOL0     H39234   9.004  10.483   9.320  0.0653  0.8340  0.3812
  291MOL0     H39235   8.942  10.391   9.459  3.3247 -1.4949 -1.7736
  291MOL0     H39236   8.891  10.554   9.692  1.0820 -0.6938  2.9895
  291MOL0     H39237   9.078  10.626   9.915 -1.4880  0.4472  0.3648
  291MOL0     H39238   9.203  10.738   9.837 -0.1856 -0.2364 -2.1194
  291MOL0     H39239   8.996  10.808   9.984  4.6621  2.4019  0.3571
  291MOL0     H39240   8.898  10.766   9.831  1.8154  0.1599 -2.3298
  291MOL0     H39241   9.018  10.967   9.726 -1.1638  2.5352  0.4724
  291MOL0     H39242   9.113  10.986   9.880 -0.1960  1.0625  0.4245
  291MOL0     H39243   8.817  11.028   9.811  0.0311 -0.4200 -0.3897
  291MOL0     H39244   8.951  11.145   9.830 -0.6569 -0.9955 -3.1738
  291MOL0     H39245   8.715  11.216  10.032  2.1780 -0.7478  0.1351
  291MOL0     H39246   8.358  11.221  10.120 -1.1334 -0.1969  0.2460
  291MOL0     H39247   8.508  11.309  10.069 -0.7685 -0.2374 -0.7163
  291MOL0     H39248   8.399  11.238   9.960 -1.2631  2.3242  1.2621
  291MOL0     H39249   8.173  10.813  10.322 -0.1685 -0.2153  0.6334
  291MOL0     H39250   7.927  10.784  10.342 -0.9902 -2.6188  0.5279
  291MOL0     H39251   7.754  10.663  10.351  1.7069  2.6662 -0.4290
  291MOL0     H39252   7.688  10.799  10.262 -1.5319 -0.0318  0.2894
  291MOL0     H39253   7.542  10.561  10.190  1.8265  2.7074 -2.6774
  291MOL0     H39254   7.547  10.593  10.368  0.3491 -0.3750 -0.7260
  291MOL0     H39255   7.461  10.795  10.147  1.5568 -3.3682 -0.8517
  291MOL0     H39256   7.444  10.822  10.316 -0.4281 -0.9917  0.6413
  291MOL0     H39257   7.308  10.587  10.177 -0.2835 -1.4106  1.5716
  291MOL0     H39258   7.309  10.626  10.350 -0.5963  0.0115 -0.7463
  291MOL0     H39259   7.217  10.835  10.148 -1.9011  0.3449 -1.0672
  291MOL0     H39260   7.174  10.835  10.311 -0.9506  2.0923 -1.9030
  291MOL0     H39261   7.066  10.651  10.107  0.2844  0.1825 -0.6363
  291MOL0     H39262   7.061  10.586  10.267 -2.6208 -1.7248 -3.9377
  291MOL0     H39263   6.963  10.873  10.231 -0.5219  0.0029 -1.0110
  291MOL0     H39264   6.951  10.762  10.371  0.3359 -1.7848 -0.8856
  291MOL0     H39265   6.820  10.743  10.098  3.2258  0.2734  1.7887
  291MOL0     H39266   6.740  10.809  10.242  1.3750  0.8181  3.0929
  291MOL0     H39267   7.927  10.628   9.941  3.6201 -1.2611 -1.4670
  291MOL0     H39268   8.179  10.676   9.937  0.8185 -0.3786  1.5709
  291MOL0     H39269   8.537  10.752  10.104  2.2389 -1.5354 -2.9112
  291MOL0     H39270   8.778  10.784  10.078 -1.6418 -2.5655  1.0909
  291MOL0     H39271   9.129  10.353   8.509 -1.9303  1.6692 -0.2463
  291MOL0     H39272   9.284  10.264   8.329  0.5862  0.2313 -2.5897
  291MOL0     H39273   9.606  10.086   8.063 -1.1696 -3.3254  0.0984
  291MOL0     H39274   9.710  10.016   7.861 -0.5962 -1.4624 -0.4730
  291MOL0     H39275   9.766  10.053   7.648 -0.5674  0.5529  0.1050
  291MOL0     H39276   9.768   9.874   7.640 -0.6735 -0.0503  1.0769
  291MOL0     H39277   9.685  10.051   7.409 -3.0023 -2.0874  0.4996
  291MOL0     H39278   9.720   9.879   7.402 -4.6218 -0.4237  3.6063
  291MOL0     H39279   9.965   9.936   7.429  1.0122  0.2178  0.1731
  291MOL0     H39280   9.921  10.109   7.466  1.3544  0.6510 -1.1374
  291MOL0     H39281  10.024  10.061   7.237  0.8858 -2.0463  2.1039
  291MOL0     H39282   9.863  10.138   7.225  1.1205  1.1199 -2.6809
  291MOL0     H39283   9.800   9.730   7.080  0.7168 -2.1944  2.7894
  291MOL0     H39284   9.338  10.038   7.642 -4.0569 -0.9912  1.2039
  291MOL0     H39285   9.222  10.104   7.859 -0.2389 -3.4583  2.3914
  292MOL0     O39286   2.703   9.912   3.236 -0.1940  0.2036  0.5055
  292MOL0     C39287   2.760   9.810   3.202 -0.4825 -0.0494  0.8825
  292MOL0     O39288   2.698   9.691   3.159  0.2991 -0.3769 -0.0967
  292MOL0     C39289   2.561   9.691   3.161 -0.1728  0.3717 -0.1546
  292MOL0     C39290   2.494   9.695   3.279  0.3011  0.1318 -0.8473
  292MOL0     C39291   2.351   9.688   3.286 -1.0001  0.1368 -0.5230
  292MOL0     C39292   2.272   9.686   3.178 -1.2432 -0.3039  0.6814
  292MOL0     O39293   2.135   9.671   3.199  0.8220 -0.3326  0.6375
  292MOL0     C39294   2.047   9.650   3.085 -0.6944 -0.4559 -0.0235
  292MOL0     C39295   1.903   9.680   3.124  0.6272  0.2595 -0.8353
  292MOL0     C39296   1.855   9.557   3.208  0.1776  0.1717 -1.2491
  292MOL0     C39297   1.736   9.478   3.139 -0.5262 -0.3875  0.5282
  292MOL0     C39298   1.607   9.558   3.157  0.0510 -0.4714 -0.3765
  292MOL0     C39299   1.481   9.470   3.141 -0.1904  0.0947 -0.2064
  292MOL0     C39300   1.359   9.561   3.115 -0.1246  0.2146 -0.0403
  292MOL0     C39301   1.348   9.584   2.962  0.4724  0.4500  0.5437
  292MOL0     N39302   1.217   9.627   2.919  0.9574 -0.2693  0.2377
  292MOL0     C39303   1.129   9.540   2.866 -0.1244  0.2774  0.7079
  292MOL0     C39304   1.020   9.624   2.855  0.0405 -0.3300 -0.9557
  292MOL0     C39305   0.895   9.587   2.782  0.2719 -0.3665  0.2573
  292MOL0     C39306   0.798   9.504   2.871  0.1348 -0.2008  1.5140
  292MOL0     C39307   0.667   9.501   2.793  0.5948 -0.5493  0.0422
  292MOL0     C39308   0.567   9.406   2.849 -0.7281  0.0682  0.4187
  292MOL0     O39309   0.559   9.403   2.987 -0.0438 -0.2636  0.2997
  292MOL0     C39310   0.455   9.471   3.042 -0.2579 -0.6499  0.2430
  292MOL0     C39311   0.426   9.608   3.026  0.3922  0.6419  0.2798
  292MOL0     C39312   0.310   9.670   3.077  0.1792 -0.0309 -0.4580
  292MOL0     C39313   0.298   9.818   3.045 -0.2868  0.8314 -0.0768
  292MOL0     C39314   0.222   9.588   3.149  0.3928  0.4684  0.2334
  292MOL0     C39315   0.096   9.638   3.208 -0.0075 -0.4139  0.3452
  292MOL0     O39316   0.022   9.539   3.270  0.0394 -0.3593 -0.3800
  292MOL0     C39317  -0.060   9.567   3.380  0.5631  0.8075  0.3645
  292MOL0     C39318  -0.050   9.683   3.460 -0.0376 -0.1063 -0.5791
  292MOL0     C39319  -0.125   9.706   3.580 -0.1807 -0.5044 -0.4510
  292MOL0     C39320  -0.225   9.612   3.615 -0.2159 -0.2219 -0.5925
  292MOL0     O39321  -0.312   9.620   3.720 -0.0822 -0.2646  0.1065
  292MOL0     C39322  -0.417   9.719   3.695  0.0993 -0.2452  0.4406
  292MOL0     C39323  -0.557   9.656   3.692 -0.1853 -1.1279 -0.5388
  292MOL0     C39324  -0.680   9.736   3.685  0.5618  0.1091 -0.1788
  292MOL0     C39325  -0.802   9.635   3.671  0.2760  0.0624 -0.3202
  292MOL0     C39326  -0.933   9.711   3.651  0.0321 -0.9580  0.2750
  292MOL0     C39327  -0.988   9.772   3.773 -0.1158  0.1555  0.8564
  292MOL0     C39328  -1.132   9.819   3.757 -0.7615  1.0830  0.0323
  292MOL0     C39329  -1.229   9.714   3.718  0.2934 -1.0359 -0.6729
  292MOL0    Cl39330  -1.395   9.769   3.731 -0.1575 -0.3789 -0.1418
  292MOL0     C39331  -0.237   9.494   3.539 -0.2860 -1.1287  0.0573
  292MOL0     C39332  -0.160   9.467   3.421  0.7515 -0.5417 -0.3489
  292MOL0     O39333   0.065   9.752   3.197  0.0294  0.7202  0.4740
  292MOL0     C39334   0.252   9.453   3.166 -0.2505  0.4065 -1.0214
  292MOL0     C39335   0.368   9.395   3.120  0.5040 -0.7213  0.5841
  292MOL0     N39336   1.048   9.750   2.905  0.3194 -0.3264  1.0580
  292MOL0     N39337   1.167   9.747   2.953  0.4261  0.3424 -0.3940
  292MOL0     C39338   2.337   9.681   3.060  0.9046 -0.8043  0.3774
  292MOL0     C39339   2.478   9.689   3.048 -0.9293 -0.4929 -0.1259
  292MOL0     C39340   2.914   9.815   3.197  0.1156  0.2699  0.0992
  292MOL0     C39341   2.985   9.693   3.181  0.1307  1.2968 -0.0401
  292MOL0     C39342   3.128   9.700   3.196  0.4027 -0.3584 -0.5191
  292MOL0     C39343   3.196   9.823   3.189 -0.1126  0.3710  0.1282
  292MOL0     O39344   3.334   9.810   3.193  0.9003 -0.7469 -0.1698
  292MOL0     C39345   3.421   9.922   3.225  0.2043  0.4338  0.1561
  292MOL0     C39346   3.567   9.879   3.236 -0.0802 -0.1441  0.3473
  292MOL0     C39347   3.599   9.836   3.380  0.5425 -0.0619  0.6038
  292MOL0     C39348   3.733   9.776   3.398  0.2890 -0.3971  0.0997
  292MOL0     C39349   3.833   9.876   3.377  0.7325 -1.6448 -0.4489
  292MOL0     C39350   3.905   9.973   3.363  0.5491 -0.2685  0.4661
  292MOL0     C39351   3.121   9.940   3.184 -0.5615  0.7409 -0.9125
  292MOL0     C39352   2.984   9.941   3.201 -0.5465  0.0889  0.1377
  292MOL0     H39353   2.551   9.687   3.372 -0.1868 -0.5577 -0.6035
  292MOL0     H39354   2.303   9.702   3.382 -0.9385 -1.1083 -0.2941
  292MOL0     H39355   2.071   9.713   2.999 -0.3734 -0.9431 -0.2924
  292MOL0     H39356   2.069   9.549   3.051  0.1090 -1.0898  2.2090
  292MOL0     H39357   1.888   9.767   3.188  0.4926 -1.0743  1.0211
  292MOL0     H39358   1.844   9.696   3.033  0.1750 -2.7087 -1.1726
  292MOL0     H39359   1.941   9.495   3.235  0.8666  1.1345 -1.1521
  292MOL0     H39360   1.820   9.585   3.308  4.5579 -3.6834  1.8114
  292MOL0     H39361   1.753   9.469   3.031 -1.4865  0.9084  0.2418
  292MOL0     H39362   1.724   9.377   3.179  0.4995 -1.2953 -1.3326
  292MOL0     H39363   1.599   9.599   3.258  0.3918 -0.8356 -0.1981
  292MOL0     H39364   1.615   9.645   3.092  5.1508  1.0764  1.8169
  292MOL0     H39365   1.497   9.395   3.064 -2.7418  0.0900 -0.8397
  292MOL0     H39366   1.465   9.416   3.235 -1.6759  1.8107  0.6002
  292MOL0     H39367   1.269   9.507   3.147 -1.6911  0.2917 -3.7600
  292MOL0     H39368   1.370   9.649   3.179 -0.9502  0.1874  0.1526
  292MOL0     H39369   1.378   9.492   2.910 -1.7677 -0.0983  0.1041
  292MOL0     H39370   1.421   9.658   2.928 -0.0948  0.2000 -1.3519
  292MOL0     H39371   1.145   9.445   2.815  1.0206  0.9189 -0.1776
  292MOL0     H39372   0.846   9.680   2.752 -0.4479 -0.1676  1.8950
  292MOL0     H39373   0.913   9.527   2.693  0.7225  1.0134 -0.5993
  292MOL0     H39374   0.786   9.558   2.965 -0.4924  2.7124 -0.1288
  292MOL0     H39375   0.843   9.405   2.884  2.4795 -0.2488 -4.0407
  292MOL0     H39376   0.671   9.475   2.687 -5.7280 -1.1524 -0.4359
  292MOL0     H39377   0.616   9.595   2.814  1.4709 -0.0794  0.0852
  292MOL0     H39378   0.595   9.308   2.809  2.4093  0.1751  2.0101
  292MOL0     H39379   0.464   9.429   2.820 -0.2579 -0.0387 -1.4899
  292MOL0     H39380   0.486   9.671   2.960 -0.3542 -0.1027 -1.1386
  292MOL0     H39381   0.286   9.859   3.145 -1.0760  3.0948 -1.0424
  292MOL0     H39382   0.388   9.864   3.004  0.2282 -0.7512 -0.8229
  292MOL0     H39383   0.207   9.828   2.986 -0.9091  0.0150  0.7065
  292MOL0     H39384   0.028   9.757   3.444 -0.5412  0.8319  1.1478
  292MOL0     H39385  -0.097   9.785   3.649 -0.4585 -1.3277  0.6205
  292MOL0     H39386  -0.417   9.783   3.784  1.2963 -2.4965  2.1738
  292MOL0     H39387  -0.397   9.784   3.609  2.5056 -2.3454 -0.7322
  292MOL0     H39388  -0.557   9.586   3.608  3.5392  0.1477 -1.8349
  292MOL0     H39389  -0.552   9.596   3.783  3.7893  0.9441  0.8586
  292MOL0     H39390  -0.685   9.807   3.603 -1.1058  0.5287  0.2479
  292MOL0     H39391  -0.691   9.779   3.785  0.1988 -1.5050  0.5111
  292MOL0     H39392  -0.775   9.571   3.587  3.1694  0.2279  0.3630
  292MOL0     H39393  -0.815   9.567   3.756 -0.0737  1.0144  0.4082
  292MOL0     H39394  -0.995   9.627   3.618  1.4605 -1.1757 -2.1041
  292MOL0     H39395  -0.935   9.785   3.570  2.0026 -0.8962  0.2346
  292MOL0     H39396  -0.974   9.704   3.858  0.6901  0.6453  1.1333
  292MOL0     H39397  -0.919   9.856   3.786  0.9775 -0.2982 -1.4797
  292MOL0     H39398  -1.146   9.906   3.692 -3.0937  1.3078  0.7228
  292MOL0     H39399  -1.162   9.860   3.854 -2.3950  0.8478 -0.3543
  292MOL0     H39400  -1.232   9.627   3.784 -0.8385 -2.2167 -2.1948
  292MOL0     H39401  -1.206   9.685   3.615  1.3406  0.4519 -0.8835
  292MOL0     H39402  -0.321   9.428   3.558 -3.0529  1.6624 -1.5879
  292MOL0     H39403  -0.177   9.382   3.356 -1.1739 -0.8740  0.5132
  292MOL0     H39404   0.184   9.393   3.226  2.3263 -0.9490  0.7582
  292MOL0     H39405   0.392   9.293   3.146 -0.5082 -0.7222  1.5924
  292MOL0     H39406   2.281   9.667   2.968 -0.9206 -1.4960  1.5462
  292MOL0     H39407   2.522   9.687   2.948 -0.8803 -1.7571 -0.1050
  292MOL0     H39408   2.936   9.597   3.172 -3.0830  2.7953 -0.1427
  292MOL0     H39409   3.184   9.607   3.190  1.3658  0.2820 -2.1410
  292MOL0     H39410   3.401  10.001   3.151 -0.2245  0.4684  0.3041
  292MOL0     H39411   3.384   9.960   3.321  0.0711  2.5972 -0.6986
  292MOL0     H39412   3.627   9.967   3.210  0.3884 -0.6915 -0.4824
  292MOL0     H39413   3.599   9.801   3.166  2.7949  0.0747  1.2935
  292MOL0     H39414   3.530   9.755   3.406  0.0352 -0.9413 -2.9886
  292MOL0     H39415   3.585   9.915   3.455 -1.3666 -1.4465  1.7974
  292MOL0     H39416   3.749   9.689   3.333 -1.1915 -0.5333 -0.0997
  292MOL0     H39417   3.745   9.743   3.501  1.9718  0.5784  0.2505
  292MOL0     H39418   3.972  10.050   3.332 -0.6487 -0.6251 -3.6824
  292MOL0     H39419   3.167  10.038   3.178  2.1244 -0.2826  0.9967
  292MOL0     H39420   2.918  10.026   3.216 -2.4239 -1.6375  2.7649
  293MOL0     O39421   6.224  10.274   2.131 -0.1828 -0.5858 -0.3009
  293MOL0     C39422   6.340  10.316   2.118  0.0418 -0.5135  0.1985
  293MOL0     O39423   6.389  10.407   2.021  0.1280 -0.2260 -0.4565
  293MOL0     C39424   6.306  10.470   1.927  0.4456 -0.4642 -0.7008
  293MOL0     C39425   6.182  10.534   1.960  0.0276  0.0817 -0.4174
  293MOL0     C39426   6.097  10.590   1.860 -0.5367  0.0250 -0.3975
  293MOL0     C39427   6.144  10.595   1.723  0.5680 -0.3628 -0.1469
  293MOL0     O39428   6.068  10.652   1.618  0.0526  0.0893 -0.1539
  293MOL0     C39429   5.940  10.698   1.635 -0.2658 -0.4616  0.2608
  293MOL0     C39430   5.897  10.764   1.502  0.9115 -0.2820  0.2758
  293MOL0     C39431   5.758  10.840   1.524  1.1886  0.9501 -0.0220
  293MOL0     C39432   5.682  10.848   1.396  0.3819  0.1865  0.4123
  293MOL0     C39433   5.542  10.920   1.405 -0.1839  0.1702 -0.3592
  293MOL0     C39434   5.470  10.924   1.271  0.7951 -0.3891  0.0439
  293MOL0     C39435   5.332  10.978   1.286  0.0725 -0.0778 -0.9213
  293MOL0     C39436   5.323  11.119   1.344 -0.1432 -0.3543  0.4332
  293MOL0     N39437   5.177  11.159   1.336  0.2305  0.5351 -0.9388
  293MOL0     C39438   5.078  11.113   1.426 -0.5559  0.5019  0.5272
  293MOL0     C39439   4.966  11.141   1.363  0.5412  0.5923 -1.2022
  293MOL0     C39440   4.832  11.109   1.428  0.2905 -0.1120 -0.2939
  293MOL0     C39441   4.776  11.237   1.504 -0.4618 -1.1268  0.0853
  293MOL0     C39442   4.700  11.196   1.628 -0.5655  0.3208  0.7309
  293MOL0     C39443   4.615  11.324   1.677 -0.3427  0.4450 -1.2371
  293MOL0     O39444   4.532  11.265   1.781 -0.1221 -0.0277  0.3110
  293MOL0     C39445   4.458  11.339   1.861  0.2804  0.1651  0.0879
  293MOL0     C39446   4.479  11.473   1.897  1.2550 -0.2841 -0.4258
  293MOL0     C39447   4.388  11.539   1.980  0.2454 -0.4891  0.1656
  293MOL0     C39448   4.409  11.690   2.016  0.4159 -0.1836  0.8498
  293MOL0     C39449   4.285  11.460   2.043 -0.3181 -0.7802  0.2817
  293MOL0     C39450   4.196  11.519   2.152 -0.3353  0.3201  0.0256
  293MOL0     O39451   4.073  11.452   2.166  0.0723 -0.4660 -0.0227
  293MOL0     C39452   4.011  11.457   2.291  0.1514  0.1763 -0.7300
  293MOL0     C39453   4.048  11.516   2.416 -0.5349 -0.4777 -0.0650
  293MOL0     C39454   3.973  11.489   2.531 -0.2752  0.4893 -0.0204
  293MOL0     C39455   3.858  11.404   2.526 -1.1507  0.6064  0.2343
  293MOL0     O39456   3.777  11.365   2.632 -1.0496  0.2146 -0.0323
  293MOL0     C39457   3.813  11.408   2.768 -0.5391  0.3017  0.1760
  293MOL0     C39458   3.726  11.334   2.875 -0.1775 -0.0936  0.6440
  293MOL0     C39459   3.580  11.348   2.850  0.4198 -0.1994 -0.6539
  293MOL0     C39460   3.534  11.487   2.916 -0.0944 -0.2253 -0.4418
  293MOL0     C39461   3.394  11.533   2.893  0.2863  1.1696 -0.4346
  293MOL0     C39462   3.383  11.686   2.929 -0.1484 -0.1832  1.2439
  293MOL0     C39463   3.241  11.736   2.907  0.8620 -0.8644 -0.0133
  293MOL0     C39464   3.236  11.882   2.952 -0.4745  0.9842 -0.5443
  293MOL0    Cl39465   3.266  11.894   3.119 -0.2278  0.4762 -0.1330
  293MOL0     C39466   3.826  11.349   2.398 -0.1530  0.1530 -0.1454
  293MOL0     C39467   3.903  11.373   2.291  0.2825  0.1219 -0.3870
  293MOL0     O39468   4.242  11.602   2.223 -0.0910  0.8454 -1.0070
  293MOL0     C39469   4.262  11.327   1.998 -0.4565 -0.5577  0.4288
  293MOL0     C39470   4.354  11.270   1.908 -0.0125  0.2195  0.0283
  293MOL0     N39471   4.992  11.206   1.244  0.3539 -0.9394 -0.0719
  293MOL0     N39472   5.120  11.220   1.234  0.1721  0.1311 -0.1749
  293MOL0     C39473   6.269  10.538   1.694 -0.4461  0.0736  0.0666
  293MOL0     C39474   6.343  10.475   1.792 -0.5244 -1.1357  0.1250
  293MOL0     C39475   6.442  10.269   2.216  0.6461 -0.5320 -0.5355
  293MOL0     C39476   6.412  10.165   2.300  0.0687 -0.3997 -0.6422
  293MOL0     C39477   6.507  10.117   2.394  0.1710 -0.1051  0.7704
  293MOL0     C39478   6.634  10.169   2.394  0.7473  0.1473 -0.3948
  293MOL0     O39479   6.749  10.124   2.452  0.5225 -0.0459 -0.0596
  293MOL0     C39480   6.747   9.986   2.491 -0.0410  0.1342 -0.1319
  293MOL0     C39481   6.859   9.941   2.594  0.6363  0.0481  0.5643
  293MOL0     C39482   6.999   9.993   2.549 -0.0846 -0.5908  0.1505
  293MOL0     C39483   7.046   9.935   2.404 -0.8442  0.3305  0.2250
  293MOL0     C39484   7.164  10.008   2.379 -0.5213  0.1503  0.2802
  293MOL0     C39485   7.283  10.043   2.368 -0.6544  0.4492  0.3749
  293MOL0     C39486   6.658  10.273   2.311 -0.1796 -0.2760 -0.3414
  293MOL0     C39487   6.566  10.326   2.227  0.4980 -0.5703  0.1881
  293MOL0     H39488   6.153  10.555   2.062 -0.8253  1.2370 -0.8766
  293MOL0     H39489   6.008  10.638   1.898  1.5506  1.9489  2.4674
  293MOL0     H39490   5.861  10.625   1.654 -2.2352  1.1739 -1.2084
  293MOL0     H39491   5.930  10.776   1.712 -3.8119 -0.9102  0.4390
  293MOL0     H39492   5.973  10.824   1.451 -1.5997  1.8208 -1.3259
  293MOL0     H39493   5.894  10.675   1.438  0.6684 -1.2982  1.6585
  293MOL0     H39494   5.705  10.781   1.600  0.2847 -1.4247 -2.3489
  293MOL0     H39495   5.784  10.938   1.564  1.7633  0.5340  0.6545
  293MOL0     H39496   5.746  10.911   1.333  0.0193 -0.0641 -0.2120
  293MOL0     H39497   5.658  10.755   1.344 -0.6185  0.2959  0.6568
  293MOL0     H39498   5.491  10.860   1.480  2.3433 -0.7417  0.7435
  293MOL0     H39499   5.553  11.025   1.433  0.3027  0.7586 -2.5615
  293MOL0     H39500   5.530  10.983   1.202 -1.8103  0.2363 -1.8290
  293MOL0     H39501   5.472  10.823   1.228  2.5800 -0.4053  0.0793
  293MOL0     H39502   5.276  10.978   1.192 -0.5374  1.0641 -0.5676
  293MOL0     H39503   5.275  10.908   1.347 -2.3966 -0.3925 -3.3925
  293MOL0     H39504   5.383  11.172   1.269 -0.5631 -1.3360 -0.6045
  293MOL0     H39505   5.358  11.128   1.448 -1.1617  0.1341  0.7443
  293MOL0     H39506   5.087  11.077   1.528 -3.3461 -3.4371 -0.3786
  293MOL0     H39507   4.763  11.085   1.346 -2.1062  4.4982  0.0517
  293MOL0     H39508   4.839  11.015   1.483 -1.4577 -0.9536 -1.4293
  293MOL0     H39509   4.711  11.297   1.440  2.8924  3.1927  0.2010
  293MOL0     H39510   4.859  11.297   1.544  0.1707 -2.3224  0.6115
  293MOL0     H39511   4.767  11.150   1.702  0.4430  0.3406 -0.1443
  293MOL0     H39512   4.628  11.122   1.593 -1.0723  1.0289  0.2552
  293MOL0     H39513   4.555  11.368   1.597 -0.5480 -0.7959 -1.7767
  293MOL0     H39514   4.686  11.402   1.708  0.5255 -0.8234  0.0829
  293MOL0     H39515   4.565  11.528   1.860  0.6598  0.7054 -0.3834
  293MOL0     H39516   4.431  11.711   2.121  0.4018  0.4180  0.7334
  293MOL0     H39517   4.491  11.743   1.966 -1.1776  0.9603 -0.6423
  293MOL0     H39518   4.311  11.737   2.004  1.1908  1.8418  1.9174
  293MOL0     H39519   4.135  11.580   2.425  0.7089 -1.9547 -1.0193
  293MOL0     H39520   4.017  11.524   2.624  1.0885 -1.1968  0.0221
  293MOL0     H39521   3.921  11.394   2.777 -0.5911 -1.4196 -1.3659
  293MOL0     H39522   3.808  11.517   2.769 -0.7735  0.2943 -0.0169
  293MOL0     H39523   3.757  11.230   2.882 -0.3162 -0.2193 -0.4252
  293MOL0     H39524   3.754  11.361   2.977 -1.3564  0.3443  0.8747
  293MOL0     H39525   3.526  11.268   2.902  1.9428 -0.8445  0.0126
  293MOL0     H39526   3.564  11.339   2.742  1.1559 -1.5185 -0.6827
  293MOL0     H39527   3.550  11.470   3.023  2.2955 -0.5177 -0.7808
  293MOL0     H39528   3.590  11.573   2.877  0.2336  0.8530  2.2020
  293MOL0     H39529   3.333  11.472   2.960 -0.1162 -0.7663 -2.4417
  293MOL0     H39530   3.379  11.511   2.787  1.8411  0.1810 -0.4836
  293MOL0     H39531   3.417  11.696   3.032  5.6015 -0.5899 -0.2833
  293MOL0     H39532   3.449  11.743   2.863 -1.0393 -2.8769 -2.2982
  293MOL0     H39533   3.172  11.678   2.969  0.9748  0.0984  1.0529
  293MOL0     H39534   3.206  11.735   2.803 -5.0059 -0.4026  1.6348
  293MOL0     H39535   3.137  11.924   2.928  0.1719  2.5062 -0.6957
  293MOL0     H39536   3.315  11.939   2.901 -0.8029  1.7551 -0.2117
  293MOL0     H39537   3.727  11.305   2.393 -0.6160  0.7685  2.4528
  293MOL0     H39538   3.871  11.327   2.198  1.6595 -0.6973 -0.4820
  293MOL0     H39539   4.181  11.275   2.047 -1.4841 -0.4113 -1.0500
  293MOL0     H39540   4.344  11.163   1.887 -0.9665 -0.1261  2.0197
  293MOL0     H39541   6.316  10.541   1.597  0.2626 -3.3709  0.1516
  293MOL0     H39542   6.445  10.437   1.785 -0.9965 -2.7240  1.2431
  293MOL0     H39543   6.319  10.109   2.290  0.9808 -2.4458  1.3908
  293MOL0     H39544   6.480  10.025   2.443 -0.3629  0.3578  1.3632
  293MOL0     H39545   6.649   9.956   2.529 -0.7530 -2.2968 -3.3878
  293MOL0     H39546   6.749   9.926   2.400 -0.1726 -2.0271  1.2301
  293MOL0     H39547   6.862   9.834   2.614 -0.3731 -0.3025 -0.9945
  293MOL0     H39548   6.832   9.986   2.690  1.6180  0.8172  0.4988
  293MOL0     H39549   7.080   9.975   2.621 -0.6433 -0.4014  0.8387
  293MOL0     H39550   6.984  10.101   2.537 -0.6785 -0.8071 -1.1952
  293MOL0     H39551   6.959   9.953   2.340 -0.7284 -3.3648 -1.1783
  293MOL0     H39552   7.061   9.827   2.407 -4.4848 -0.3029  1.6345
  293MOL0     H39553   7.385  10.076   2.360  0.3826 -2.2407  1.4047
  293MOL0     H39554   6.756  10.320   2.309  0.1534 -0.7164  1.9318
  293MOL0     H39555   6.570  10.414   2.164 -1.8652 -0.6836 -0.2175
  294MOL0     O39556   1.400   4.317   7.544 -0.7256  0.5480 -0.0055
  294MOL0     C39557   1.480   4.353   7.454 -0.1734  0.2125 -0.0049
  294MOL0     O39558   1.445   4.408   7.337  0.1698  0.5303 -0.2947
  294MOL0     C39559   1.313   4.441   7.314 -0.8400  0.4235  0.0387
  294MOL0     C39560   1.202   4.362   7.334  0.1841 -0.4386 -0.2213
  294MOL0     C39561   1.071   4.416   7.316 -0.8834  0.2895  0.2800
  294MOL0     C39562   1.054   4.548   7.290 -0.1396 -0.3045 -0.5954
  294MOL0     O39563   0.934   4.607   7.275 -0.1528  0.3083 -0.6892
  294MOL0     C39564   0.807   4.548   7.316 -0.6056 -0.2171 -0.6773
  294MOL0     C39565   0.699   4.657   7.300  0.2890 -0.2972  0.6178
  294MOL0     C39566   0.547   4.620   7.308 -0.5743 -0.7277  0.3332
  294MOL0     C39567   0.463   4.747   7.300  0.9931 -0.5200 -0.3550
  294MOL0     C39568   0.310   4.725   7.282 -0.6259 -0.2756  0.1499
  294MOL0     C39569   0.260   4.620   7.379 -0.2933 -0.4762 -0.1873
  294MOL0     C39570   0.104   4.616   7.392  0.2062 -0.4624 -0.3410
  294MOL0     C39571   0.050   4.489   7.453 -0.4328  0.4484  0.0960
  294MOL0     N39572   0.053   4.492   7.599 -0.3871 -0.0070 -0.6314
  294MOL0     C39573   0.165   4.471   7.670 -0.4388 -0.2701  0.0084
  294MOL0     C39574   0.130   4.487   7.803 -0.7478 -0.8551 -0.4188
  294MOL0     C39575   0.227   4.487   7.922  0.0452  1.2926 -0.8183
  294MOL0     C39576   0.264   4.341   7.969  0.6696  1.3507  0.1050
  294MOL0     C39577   0.136   4.273   8.018  0.3442 -1.1892  0.0591
  294MOL0     C39578   0.078   4.320   8.146 -0.5906 -0.8575  0.2903
  294MOL0     O39579  -0.014   4.239   8.221 -0.4149 -0.3184  0.1648
  294MOL0     C39580  -0.148   4.251   8.191 -0.4713  0.5613 -0.8031
  294MOL0     C39581  -0.203   4.319   8.081  0.0254  0.2424 -0.2493
  294MOL0     C39582  -0.341   4.308   8.048 -0.5525  0.4068 -0.6631
  294MOL0     C39583  -0.391   4.384   7.927  0.5599 -0.4321  0.4812
  294MOL0     C39584  -0.427   4.219   8.119 -0.1511 -0.4856 -0.4455
  294MOL0     C39585  -0.571   4.199   8.100  0.4074  0.2485 -1.1808
  294MOL0     O39586  -0.624   4.099   8.184  0.1906 -0.1260 -0.2776
  294MOL0     C39587  -0.762   4.088   8.191  0.4504 -0.9771 -0.0832
  294MOL0     C39588  -0.838   3.981   8.158 -0.3320 -0.2703  1.1100
  294MOL0     C39589  -0.983   3.985   8.160 -0.2441  0.5143  0.4282
  294MOL0     C39590  -1.052   4.093   8.218 -0.0136 -0.1249  0.5246
  294MOL0     O39591  -1.189   4.078   8.216  0.3544  0.5439 -0.3646
  294MOL0     C39592  -1.265   4.184   8.272  0.8004  1.1407  0.1300
  294MOL0     C39593  -1.413   4.176   8.230 -0.6281 -0.6138 -0.0849
  294MOL0     C39594  -1.441   4.164   8.076  0.7173 -0.0608 -0.1767
  294MOL0     C39595  -1.583   4.102   8.067  0.3179 -0.6256  0.3804
  294MOL0     C39596  -1.605   4.087   7.916  0.4747  0.1824  1.4775
  294MOL0     C39597  -1.748   4.024   7.882 -0.0029 -0.2295 -0.9339
  294MOL0     C39598  -1.783   4.042   7.738 -0.3269  0.4290  0.6371
  294MOL0     C39599  -1.921   3.984   7.702  0.3248 -1.0957  0.4732
  294MOL0    Cl39600  -2.055   4.095   7.760  0.1434  0.3228  0.3868
  294MOL0     C39601  -0.980   4.200   8.260  0.0732 -0.4366  0.7310
  294MOL0     C39602  -0.833   4.201   8.253  0.8856  0.3565 -0.1957
  294MOL0     O39603  -0.634   4.264   8.012 -0.3298  0.1093 -0.2789
  294MOL0     C39604  -0.370   4.164   8.234  0.3203 -0.0906  0.8056
  294MOL0     C39605  -0.236   4.179   8.268  0.6845  0.0079  0.4471
  294MOL0     N39606  -0.007   4.522   7.800 -0.5773 -0.3215  0.7522
  294MOL0     N39607  -0.052   4.514   7.682 -0.1183  0.0760 -0.6051
  294MOL0     C39608   1.162   4.626   7.261  0.5722 -0.0984  0.2843
  294MOL0     C39609   1.293   4.573   7.271  0.0084  0.1357 -0.2375
  294MOL0     C39610   1.623   4.312   7.478  0.0501  0.1160 -0.0027
  294MOL0     C39611   1.713   4.314   7.371  0.1919  0.5949  0.0027
  294MOL0     C39612   1.842   4.276   7.378  0.1022  0.0388  0.0153
  294MOL0     C39613   1.901   4.229   7.507  0.8378 -0.2137 -1.3820
  294MOL0     O39614   2.016   4.167   7.529  0.2193  0.1000  0.8091
  294MOL0     C39615   2.122   4.161   7.431 -0.4650 -0.5543 -0.7584
  294MOL0     C39616   2.169   4.303   7.389  0.6703  0.0875 -0.2049
  294MOL0     C39617   2.207   4.384   7.515 -0.2128  0.4499  0.1350
  294MOL0     C39618   2.292   4.509   7.489 -0.4354 -0.2903  0.6592
  294MOL0     C39619   2.420   4.469   7.445  0.2062  0.6924 -0.2021
  294MOL0     C39620   2.526   4.416   7.413 -0.6084 -0.9566 -0.5965
  294MOL0     C39621   1.806   4.228   7.608 -0.5525 -0.4995 -0.2264
  294MOL0     C39622   1.678   4.274   7.603  0.2628  0.6008  0.5260
  294MOL0     H39623   1.203   4.255   7.351  0.5042 -0.6635 -1.5685
  294MOL0     H39624   0.984   4.352   7.306 -0.7077  0.3656 -2.5578
  294MOL0     H39625   0.789   4.465   7.246  1.0310 -1.0505 -0.1601
  294MOL0     H39626   0.810   4.517   7.421 -0.4132 -0.4712 -0.7545
  294MOL0     H39627   0.699   4.729   7.382 -1.6034 -0.8105  1.1277
  294MOL0     H39628   0.708   4.706   7.202 -1.7877 -2.3730 -0.7407
  294MOL0     H39629   0.521   4.562   7.219  0.6238  0.2019 -0.6598
  294MOL0     H39630   0.532   4.566   7.402 -2.1791 -3.6727 -1.5014
  294MOL0     H39631   0.465   4.806   7.392  0.1602 -0.5309 -0.3270
  294MOL0     H39632   0.510   4.814   7.227  2.0970  3.4337  3.5934
  294MOL0     H39633   0.260   4.823   7.290  1.4305  0.8169  0.1858
  294MOL0     H39634   0.296   4.701   7.176 -0.1521  1.8842 -0.4564
  294MOL0     H39635   0.296   4.522   7.347 -0.4120 -0.9229  0.9872
  294MOL0     H39636   0.311   4.632   7.475  2.0492 -2.5074 -1.0898
  294MOL0     H39637   0.066   4.704   7.446  0.2180 -0.2041 -0.7468
  294MOL0     H39638   0.067   4.637   7.291  0.9834  3.2184 -0.0130
  294MOL0     H39639   0.114   4.410   7.412 -1.1843 -1.4083  2.3064
  294MOL0     H39640  -0.053   4.469   7.422 -0.1940 -1.4378  0.4061
  294MOL0     H39641   0.266   4.448   7.638 -0.9229 -0.4435 -1.4532
  294MOL0     H39642   0.321   4.534   7.892  1.3482  0.8892  2.1913
  294MOL0     H39643   0.192   4.542   8.010  0.3066 -0.7836  0.6848
  294MOL0     H39644   0.342   4.334   8.046  0.4070 -1.6981  0.1913
  294MOL0     H39645   0.304   4.284   7.885  0.5608 -0.6988  1.3774
  294MOL0     H39646   0.151   4.165   8.031  0.6386 -1.4458 -1.9814
  294MOL0     H39647   0.060   4.281   7.940 -0.4349 -1.9060  0.7277
  294MOL0     H39648   0.041   4.421   8.125 -0.4643 -0.4291  1.9943
  294MOL0     H39649   0.163   4.330   8.215  1.0458 -1.5085 -1.5253
  294MOL0     H39650  -0.147   4.388   8.019 -1.7890  3.4099  1.3800
  294MOL0     H39651  -0.439   4.314   7.858  0.0843 -0.6210  0.9886
  294MOL0     H39652  -0.460   4.464   7.957  0.9406 -0.1135  0.5079
  294MOL0     H39653  -0.306   4.423   7.871 -1.0295 -0.4277 -2.1177
  294MOL0     H39654  -0.788   3.887   8.134 -3.0219 -2.6221  3.8742
  294MOL0     H39655  -1.041   3.899   8.129  0.1787  0.3460  0.0959
  294MOL0     H39656  -1.260   4.188   8.381 -1.4093 -0.3334  0.3408
  294MOL0     H39657  -1.234   4.283   8.239 -0.3591  1.9457  1.3898
  294MOL0     H39658  -1.439   4.083   8.281 -0.2991  0.5314  2.2680
  294MOL0     H39659  -1.463   4.263   8.273 -0.5305 -0.0900 -0.9988
  294MOL0     H39660  -1.363   4.104   8.028  2.7562  2.3628 -0.0995
  294MOL0     H39661  -1.438   4.266   8.036  1.9696  1.0599  2.5057
  294MOL0     H39662  -1.579   3.999   8.104  2.1863 -0.1112  1.7610
  294MOL0     H39663  -1.660   4.158   8.122  0.9290 -2.1587  2.9455
  294MOL0     H39664  -1.529   4.022   7.870 -2.0301 -0.8281 -1.5821
  294MOL0     H39665  -1.593   4.187   7.874 -0.1876 -0.2834  0.1150
  294MOL0     H39666  -1.734   3.921   7.916 -0.7411  0.9042  3.4586
  294MOL0     H39667  -1.824   4.067   7.948 -0.3292 -2.3765  0.2129
  294MOL0     H39668  -1.703   3.990   7.685 -2.6702 -3.2456  0.2957
  294MOL0     H39669  -1.774   4.149   7.716  0.5953  0.5077  1.3657
  294MOL0     H39670  -1.918   3.883   7.744  1.7654 -0.7641  1.2357
  294MOL0     H39671  -1.930   3.980   7.593 -3.3117  0.4237  0.5674
  294MOL0     H39672  -1.026   4.283   8.313  0.9228  0.3991  0.2067
  294MOL0     H39673  -0.775   4.287   8.282 -0.1370  1.0038 -0.0013
  294MOL0     H39674  -0.430   4.099   8.297  0.4859 -1.3443 -0.2853
  294MOL0     H39675  -0.195   4.119   8.349 -0.0665  0.6350  1.3136
  294MOL0     H39676   1.148   4.732   7.245 -2.4126 -0.6993 -1.9644
  294MOL0     H39677   1.378   4.638   7.254 -1.4394  2.5989  1.1978
  294MOL0     H39678   1.669   4.339   7.275 -2.8389  0.6647  1.2730
  294MOL0     H39679   1.904   4.277   7.289  1.5198  0.4310  0.9875
  294MOL0     H39680   2.203   4.105   7.480 -0.0210 -0.0421 -0.9088
  294MOL0     H39681   2.107   4.105   7.338 -0.1587 -1.3678 -0.3322
  294MOL0     H39682   2.103   4.353   7.319  2.5464 -0.5014 -2.5368
  294MOL0     H39683   2.262   4.294   7.332  0.8389 -0.3508  0.1299
  294MOL0     H39684   2.261   4.319   7.585 -1.6513  0.2816  1.1210
  294MOL0     H39685   2.115   4.411   7.568  0.1497 -1.7095  2.0389
  294MOL0     H39686   2.309   4.560   7.585 -0.3969  0.7938  0.0854
  294MOL0     H39687   2.249   4.581   7.420  1.0161  0.5141  0.5553
  294MOL0     H39688   2.621   4.373   7.387  0.3320  1.6145 -1.7546
  294MOL0     H39689   1.848   4.183   7.698  3.1659 -1.9728 -2.4669
  294MOL0     H39690   1.600   4.260   7.677 -3.3900 -2.1938 -3.3456
  295MOL0     O39691   6.562   0.495   8.072  0.1746  0.1450 -0.7605
  295MOL0     C39692   6.623   0.600   8.086 -0.3118  0.4414 -1.0305
  295MOL0     O39693   6.578   0.729   8.059 -0.2002 -0.6824  0.1329
  295MOL0     C39694   6.448   0.727   8.007  0.2049 -0.0581  0.7238
  295MOL0     C39695   6.356   0.824   8.053  1.0030  1.2283 -0.3596
  295MOL0     C39696   6.229   0.833   8.000  1.0981  0.4281 -0.4396
  295MOL0     C39697   6.183   0.752   7.890 -0.4954 -0.0527 -0.0780
  295MOL0     O39698   6.057   0.756   7.834 -0.2631  1.0701  0.1106
  295MOL0     C39699   5.968   0.866   7.869  0.3134  0.5558  0.0227
  295MOL0     C39700   5.827   0.814   7.851  0.0446 -0.7570  0.6467
  295MOL0     C39701   5.716   0.899   7.896  0.2798  0.0107 -0.2746
  295MOL0     C39702   5.574   0.856   7.875  0.7523  0.0200  1.2921
  295MOL0     C39703   5.477   0.929   7.974  0.2142  0.3614  0.2257
  295MOL0     C39704   5.336   0.889   7.926 -0.0138  0.2188  0.3854
  295MOL0     C39705   5.218   0.921   8.029  0.7481  0.9555 -0.5731
  295MOL0     C39706   5.229   1.069   8.075 -0.4062 -0.5580 -0.0051
  295MOL0     N39707   5.172   1.085   8.209 -0.0941  0.4171 -0.1780
  295MOL0     C39708   5.043   1.113   8.250  0.2973  0.5622  0.0074
  295MOL0     C39709   5.034   1.072   8.374  0.0647  0.1719  0.1789
  295MOL0     C39710   4.920   1.075   8.464 -0.3351 -0.9713 -1.0595
  295MOL0     C39711   4.890   0.953   8.549 -0.9064  0.0050  0.2887
  295MOL0     C39712   4.821   0.843   8.455 -1.4890 -0.1922 -0.3405
  295MOL0     C39713   4.748   0.746   8.554 -0.0572  0.3653  0.6108
  295MOL0     O39714   4.697   0.632   8.482 -0.0535  0.5968 -0.0094
  295MOL0     C39715   4.586   0.643   8.397  0.0438  0.3411 -0.1869
  295MOL0     C39716   4.510   0.760   8.395 -0.9446 -0.4562 -0.6356
  295MOL0     C39717   4.389   0.766   8.327  0.4502  0.2668  0.2290
  295MOL0     C39718   4.310   0.894   8.330 -0.1451  0.5488  0.5795
  295MOL0     C39719   4.339   0.648   8.270 -0.6441  0.0857  0.2608
  295MOL0     C39720   4.209   0.645   8.200 -0.9070  0.1765 -0.0337
  295MOL0     O39721   4.115   0.553   8.247 -0.5525 -0.4878  0.6045
  295MOL0     C39722   4.004   0.557   8.174  0.3511  0.3834  0.2568
  295MOL0     C39723   3.989   0.469   8.065  0.0262  0.2364 -0.9847
  295MOL0     C39724   3.869   0.470   7.988  0.4734  0.2923 -1.1580
  295MOL0     C39725   3.765   0.559   8.024 -0.8310  0.3806  0.5390
  295MOL0     O39726   3.653   0.556   7.953  0.0219 -0.6206  0.3576
  295MOL0     C39727   3.583   0.430   7.970 -0.4236 -0.9351 -0.5012
  295MOL0     C39728   3.520   0.381   7.844 -0.3728 -0.4307 -0.0953
  295MOL0     C39729   3.621   0.316   7.742 -0.6112  0.9152  0.0925
  295MOL0     C39730   3.549   0.244   7.630 -0.3032  0.1690  0.9730
  295MOL0     C39731   3.632   0.147   7.555  0.3760 -0.0143  0.4591
  295MOL0     C39732   3.573   0.094   7.422  0.1343  0.7207  0.2247
  295MOL0     C39733   3.438   0.027   7.436  0.1866  0.1594 -0.0146
  295MOL0     C39734   3.379  -0.014   7.299  0.2545 -0.6383 -0.4277
  295MOL0    Cl39735   3.211  -0.081   7.315  0.1974  0.4025 -0.0168
  295MOL0     C39736   3.788   0.658   8.119 -0.0404  0.2590 -0.3449
  295MOL0     C39737   3.907   0.651   8.198  0.7284 -0.7915 -0.0859
  295MOL0     O39738   4.205   0.706   8.096 -0.0846  0.3469  0.6234
  295MOL0     C39739   4.418   0.526   8.276  0.0414  0.1900  0.6729
  295MOL0     C39740   4.546   0.525   8.334  0.5127 -0.3905  0.4702
  295MOL0     N39741   5.155   1.025   8.420 -0.2888 -0.1814  0.1455
  295MOL0     N39742   5.239   1.031   8.321  0.6306 -0.5162  0.1376
  295MOL0     C39743   6.278   0.652   7.848  0.2855 -0.1931  0.5085
  295MOL0     C39744   6.407   0.645   7.899  0.2921 -0.1333  0.2773
  295MOL0     C39745   6.759   0.590   8.125  0.2782 -0.3239 -0.4750
  295MOL0     C39746   6.834   0.712   8.128 -0.6049  0.2030 -0.4416
  295MOL0     C39747   6.959   0.722   8.193  0.0259  0.8665  0.3081
  295MOL0     C39748   7.029   0.604   8.210 -0.0980  0.2812 -0.6376
  295MOL0     O39749   7.153   0.571   8.249  0.1353 -0.0196 -0.7362
  295MOL0     C39750   7.236   0.684   8.290 -0.5447 -0.2257 -0.7473
  295MOL0     C39751   7.359   0.618   8.345  0.4033 -0.0181 -0.8139
  295MOL0     C39752   7.460   0.726   8.376  0.1961  0.3736  0.6626
  295MOL0     C39753   7.595   0.655   8.413 -0.1299 -0.1823  0.7040
  295MOL0     C39754   7.584   0.578   8.540 -0.7050  0.1048 -0.5614
  295MOL0     C39755   7.578   0.496   8.624  0.9632 -0.2346 -1.1107
  295MOL0     C39756   6.953   0.481   8.200 -0.3946 -0.7236 -0.5082
  295MOL0     C39757   6.823   0.473   8.157  0.6641  1.3163 -0.5348
  295MOL0     H39758   6.398   0.886   8.131  0.8428  0.3282  0.4735
  295MOL0     H39759   6.173   0.914   8.044  2.8388  0.9763  0.9125
  295MOL0     H39760   5.973   0.896   7.974 -0.8062 -0.3880  0.3624
  295MOL0     H39761   5.982   0.948   7.798 -2.5858  0.9323 -0.2358
  295MOL0     H39762   5.813   0.812   7.742  0.9247  2.5617  0.3586
  295MOL0     H39763   5.823   0.714   7.893  0.7441 -0.9570  0.2616
  295MOL0     H39764   5.739   0.928   7.999  2.7900 -0.3204 -0.6709
  295MOL0     H39765   5.726   1.000   7.855  1.7432 -0.1459 -0.3518
  295MOL0     H39766   5.555   0.869   7.768  5.2735 -0.0437  0.2828
  295MOL0     H39767   5.555   0.749   7.891  0.1840 -0.6800 -2.9475
  295MOL0     H39768   5.501   0.877   8.067 -0.3446 -1.5316 -0.6191
  295MOL0     H39769   5.495   1.037   7.976 -1.9539  0.7707  1.0923
  295MOL0     H39770   5.306   0.937   7.832 -2.2509  2.4585  2.1285
  295MOL0     H39771   5.337   0.780   7.912  2.4695  0.4006 -1.5912
  295MOL0     H39772   5.119   0.898   7.988  2.2709 -3.3454 -2.5052
  295MOL0     H39773   5.234   0.856   8.116  0.0624 -1.5244 -2.1814
  295MOL0     H39774   5.180   1.134   8.001  1.8619  0.2044 -0.9168
  295MOL0     H39775   5.330   1.110   8.071  0.2872 -2.2559 -1.7336
  295MOL0     H39776   4.975   1.169   8.187 -2.6604 -1.4504  1.1790
  295MOL0     H39777   4.940   1.160   8.530  3.5572 -2.3923 -0.1744
  295MOL0     H39778   4.827   1.107   8.417 -1.8851  1.4812  3.0760
  295MOL0     H39779   4.823   0.984   8.629  1.7120 -2.1606  3.6532
  295MOL0     H39780   4.987   0.920   8.587 -1.4473 -0.9054  0.9259
  295MOL0     H39781   4.899   0.792   8.398 -3.4761 -1.4106 -2.1304
  295MOL0     H39782   4.754   0.902   8.390 -1.6446  2.6867  2.1813
  295MOL0     H39783   4.668   0.792   8.613  2.0828  3.3408  1.4245
  295MOL0     H39784   4.820   0.715   8.631  2.2452  0.6506 -1.3117
  295MOL0     H39785   4.536   0.844   8.459  1.4918  1.0553 -3.3357
  295MOL0     H39786   4.214   0.875   8.282  0.1933 -2.2503  0.8353
  295MOL0     H39787   4.303   0.943   8.428  0.3794 -1.2629  1.5754
  295MOL0     H39788   4.358   0.969   8.267  1.3939 -1.0171 -0.2295
  295MOL0     H39789   4.065   0.393   8.055 -2.0097 -1.9640 -0.6906
  295MOL0     H39790   3.862   0.393   7.913 -0.5713  0.9820 -1.8036
  295MOL0     H39791   3.647   0.354   8.016  0.1249 -1.6712 -2.3723
  295MOL0     H39792   3.499   0.454   8.036  0.6936 -0.3221  0.7435
  295MOL0     H39793   3.460   0.294   7.873 -1.0731 -0.5247 -1.7102
  295MOL0     H39794   3.466   0.458   7.788 -0.3294  0.1224  0.6087
  295MOL0     H39795   3.689   0.244   7.788  1.0893  0.2623 -3.1754
  295MOL0     H39796   3.682   0.401   7.711  0.4699 -0.2274 -1.0260
  295MOL0     H39797   3.457   0.199   7.668 -0.5634  1.1306  1.5207
  295MOL0     H39798   3.528   0.325   7.560  0.2597 -0.3116  0.2340
  295MOL0     H39799   3.662   0.063   7.620  1.0496 -1.0033 -1.0799
  295MOL0     H39800   3.722   0.205   7.535 -0.8818  1.8110 -0.1286
  295MOL0     H39801   3.570   0.168   7.342 -0.3545  2.0950  1.4733
  295MOL0     H39802   3.643   0.016   7.393  0.9511  0.8332  1.7705
  295MOL0     H39803   3.366   0.083   7.497 -1.9288 -0.9614 -1.3542
  295MOL0     H39804   3.453  -0.068   7.488  2.4246  0.7525  0.5187
  295MOL0     H39805   3.444  -0.098   7.271  0.6878 -0.1776 -0.8170
  295MOL0     H39806   3.373   0.064   7.224 -1.1864 -1.0839 -0.8112
  295MOL0     H39807   3.721   0.742   8.135 -0.9445 -0.5111 -0.0160
  295MOL0     H39808   3.914   0.733   8.269 -0.1981 -0.1804 -0.6754
  295MOL0     H39809   4.370   0.442   8.229 -1.2464  0.5058  1.3800
  295MOL0     H39810   4.613   0.440   8.337 -0.6265 -1.3444 -0.2471
  295MOL0     H39811   6.248   0.585   7.768 -0.3373  2.9598 -2.0869
  295MOL0     H39812   6.476   0.580   7.847  2.1240  1.5172  0.5344
  295MOL0     H39813   6.798   0.809   8.093 -1.7408  1.1815  3.0485
  295MOL0     H39814   7.009   0.817   8.210 -0.1684  0.5990  2.7824
  295MOL0     H39815   7.269   0.753   8.212 -1.6897  0.2404 -0.8412
  295MOL0     H39816   7.188   0.740   8.370  2.8804 -0.2136  1.4927
  295MOL0     H39817   7.401   0.545   8.275  0.3677 -0.8874  0.0606
  295MOL0     H39818   7.329   0.564   8.435  0.4470  0.8614 -0.2518
  295MOL0     H39819   7.434   0.791   8.460 -1.2350  0.3787  0.2280
  295MOL0     H39820   7.482   0.791   8.291  2.2042 -2.1505 -0.9270
  295MOL0     H39821   7.672   0.732   8.414 -0.6793  0.3788  1.5680
  295MOL0     H39822   7.627   0.586   8.335 -0.4321 -1.2597  1.5042
  295MOL0     H39823   7.558   0.428   8.705  1.8284  0.0014 -0.6916
  295MOL0     H39824   7.000   0.393   8.244  0.6258  0.9237  1.9565
  295MOL0     H39825   6.776   0.375   8.155  2.7989  0.2147 -0.4212
  296MOL0     O39826   8.265   8.017  10.086 -0.1036 -0.3622 -0.4181
  296MOL0     C39827   8.255   8.112  10.008 -0.9821 -0.1254  0.5596
  296MOL0     O39828   8.361   8.203   9.979 -0.0469  0.4168 -0.9042
  296MOL0     C39829   8.485   8.199  10.043  0.2322  0.4584 -0.3962
  296MOL0     C39830   8.550   8.078  10.080  0.9644 -0.2485 -0.1214
  296MOL0     C39831   8.680   8.095  10.136  0.0128 -0.4169 -0.5938
  296MOL0     C39832   8.752   8.214  10.136  0.9632 -0.1359  0.8974
  296MOL0     O39833   8.882   8.230  10.164 -0.0736 -0.0536  0.1024
  296MOL0     C39834   8.958   8.109  10.179  0.1083 -1.0184 -0.6293
  296MOL0     C39835   9.107   8.146  10.182  0.0861 -0.1736 -0.1274
  296MOL0     C39836   9.180   8.015  10.183  0.7878 -0.0601  0.0644
  296MOL0     C39837   9.332   8.019  10.165 -0.4435  0.0823  0.1845
  296MOL0     C39838   9.381   8.094  10.041 -0.1929 -0.0458 -0.8484
  296MOL0     C39839   9.355   8.011   9.920 -0.4161 -0.5361 -0.2475
  296MOL0     C39840   9.425   8.060   9.785 -0.7408  0.3612 -0.5325
  296MOL0     C39841   9.400   8.198   9.733  0.1008 -0.7802  0.7418
  296MOL0     N39842   9.260   8.229   9.754  0.0469 -0.5526  0.1995
  296MOL0     C39843   9.211   8.341   9.812  0.1630  0.7208  0.2281
  296MOL0     C39844   9.075   8.337   9.799 -0.1907  0.3135  0.3363
  296MOL0     C39845   8.988   8.440   9.857  0.1079 -0.8186 -0.0425
  296MOL0     C39846   8.921   8.527   9.746 -0.3437 -0.6786  0.1936
  296MOL0     C39847   8.814   8.617   9.808  0.1481 -1.0073  0.7266
  296MOL0     C39848   8.763   8.710   9.698  0.1679 -0.7263 -0.4164
  296MOL0     O39849   8.688   8.802   9.778  0.4740  0.1621  0.0194
  296MOL0     C39850   8.573   8.767   9.845 -0.2177  0.1430 -0.3118
  296MOL0     C39851   8.482   8.684   9.788  0.8161  0.0849 -1.0302
  296MOL0     C39852   8.357   8.660   9.858  0.1049 -0.1976  0.3908
  296MOL0     C39853   8.254   8.591   9.774  0.4247 -0.2494 -0.1402
  296MOL0     C39854   8.347   8.704   9.994  0.2493  0.1240  1.0681
  296MOL0     C39855   8.218   8.663  10.060  0.3187 -0.3186  0.5657
  296MOL0     O39856   8.170   8.538  10.032  1.0469  0.0092 -0.3097
  296MOL0     C39857   8.061   8.489  10.107 -0.3081  1.1240  0.1825
  296MOL0     C39858   7.948   8.422  10.055  0.2506  0.0838  0.3110
  296MOL0     C39859   7.858   8.357  10.136 -0.0329 -0.3864 -0.4059
  296MOL0     C39860   7.864   8.376  10.272 -0.2638  0.2759 -0.0641
  296MOL0     O39861   7.763   8.312  10.348 -0.7345 -0.2143 -0.6238
  296MOL0     C39862   7.805   8.233  10.456 -0.0171  0.7116  0.5843
  296MOL0     C39863   7.757   8.290  10.590  0.0556 -0.8160  0.1785
  296MOL0     C39864   7.770   8.189  10.703  0.0217 -0.7817 -0.1069
  296MOL0     C39865   7.752   8.258  10.843  0.4533  0.0722 -0.1021
  296MOL0     C39866   7.619   8.325  10.856 -0.4587  0.5447 -0.1161
  296MOL0     C39867   7.491   8.227  10.859  0.9588  0.0850 -0.3941
  296MOL0     C39868   7.361   8.307  10.860 -1.8026 -0.0759 -0.1730
  296MOL0     C39869   7.249   8.207  10.874 -0.8542 -0.2319 -0.2785
  296MOL0    Cl39870   7.190   8.137  10.711  0.1031 -0.0242  0.0800
  296MOL0     C39871   7.971   8.446  10.326  1.4395 -0.2818  0.1505
  296MOL0     C39872   8.073   8.489  10.243 -0.2286 -0.2143 -0.1557
  296MOL0     O39873   8.173   8.747  10.145 -0.2147 -0.1896  0.1286
  296MOL0     C39874   8.439   8.794  10.049  0.1216  0.1400  0.3215
  296MOL0     C39875   8.557   8.814   9.975 -0.4508  0.1278  0.2989
  296MOL0     N39876   9.047   8.225   9.722  0.2949 -1.2322 -0.1750
  296MOL0     N39877   9.153   8.155   9.699  0.1191  0.6823  0.1854
  296MOL0     C39878   8.680   8.325  10.103 -0.9167  0.2820  0.8963
  296MOL0     C39879   8.551   8.319  10.056  0.1703 -0.4221  0.1595
  296MOL0     C39880   8.120   8.130   9.951  0.6400 -0.4286  0.4459
  296MOL0     C39881   8.003   8.064   9.996  0.0065  1.2586  0.8907
  296MOL0     C39882   7.879   8.078   9.923  0.3907 -0.0161 -0.0752
  296MOL0     C39883   7.865   8.168   9.817  0.3130 -0.2848  0.6685
  296MOL0     O39884   7.749   8.188   9.740 -0.2848 -0.0666  0.1582
  296MOL0     C39885   7.630   8.101   9.762  0.3304 -0.3251 -0.6300
  296MOL0     C39886   7.539   8.150   9.879  0.2876 -0.0355  0.6506
  296MOL0     C39887   7.470   8.296   9.850  0.8085  0.7342 -0.2323
  296MOL0     C39888   7.350   8.317   9.941  0.6295 -1.3253 -0.2814
  296MOL0     C39889   7.397   8.316  10.079 -0.2540  0.5247  0.3204
  296MOL0     C39890   7.434   8.315  10.193  0.2989 -0.6401  0.1282
  296MOL0     C39891   7.982   8.238   9.778  0.5002 -0.7820  0.0163
  296MOL0     C39892   8.105   8.227   9.846  0.5317  0.8157 -0.1850
  296MOL0     H39893   8.504   7.980  10.075 -1.2308  0.2534  4.6574
  296MOL0     H39894   8.737   8.005  10.156  1.2328 -0.0003 -1.9576
  296MOL0     H39895   8.932   8.047  10.266  0.4638 -2.5223 -1.5471
  296MOL0     H39896   8.951   8.045  10.091 -0.4261  0.5589 -1.7711
  296MOL0     H39897   9.152   8.192  10.094  2.2759 -3.4050 -0.8859
  296MOL0     H39898   9.137   8.211  10.266 -0.5093  1.5218 -1.1705
  296MOL0     H39899   9.154   7.966  10.278  0.4462 -1.0192 -0.5147
  296MOL0     H39900   9.132   7.952  10.108 -0.2233  2.0817 -1.1726
  296MOL0     H39901   9.366   8.087  10.244 -3.3964  0.4238  1.2832
  296MOL0     H39902   9.379   7.921  10.180  1.4875  1.2240  2.4168
  296MOL0     H39903   9.340   8.192  10.016 -2.2372 -1.3961 -3.2875
  296MOL0     H39904   9.490   8.103  10.039 -0.2821  1.2942 -0.4655
  296MOL0     H39905   9.382   7.906   9.938 -3.5295 -1.3311  0.2939
  296MOL0     H39906   9.246   8.005   9.908 -0.5901 -0.3542  1.1409
  296MOL0     H39907   9.533   8.048   9.795 -1.1108 -1.4170  3.0850
  296MOL0     H39908   9.390   7.984   9.715  1.6907 -0.9360 -0.4527
  296MOL0     H39909   9.436   8.187   9.630  0.5525 -0.7129  0.8871
  296MOL0     H39910   9.466   8.268   9.785 -0.0375  0.0047 -0.1153
  296MOL0     H39911   9.276   8.409   9.866 -1.1167  1.9085  0.3429
  296MOL0     H39912   8.914   8.395   9.924 -0.1602 -0.1274  0.1392
  296MOL0     H39913   9.036   8.507   9.930 -2.6919  1.5160 -0.1948
  296MOL0     H39914   8.883   8.459   9.668 -0.0490  0.6227 -1.1389
  296MOL0     H39915   8.998   8.589   9.699 -1.0326  1.5531  1.8411
  296MOL0     H39916   8.862   8.673   9.889  1.5493 -0.2377 -0.5739
  296MOL0     H39917   8.741   8.555   9.860 -1.8361  0.1297 -0.5660
  296MOL0     H39918   8.701   8.668   9.619  0.1234 -1.4717  0.0068
  296MOL0     H39919   8.844   8.767   9.652  1.1482 -0.0289  1.9968
  296MOL0     H39920   8.507   8.649   9.689  1.1975  1.0265 -1.2837
  296MOL0     H39921   8.242   8.486   9.803  0.9953 -0.7833 -1.7343
  296MOL0     H39922   8.154   8.637   9.782  0.0505 -1.1907  0.9533
  296MOL0     H39923   8.293   8.597   9.672 -0.4974  2.1789 -0.4180
  296MOL0     H39924   7.941   8.421   9.946  3.1503  0.4334  0.0350
  296MOL0     H39925   7.772   8.305  10.096  0.5785 -1.3525 -0.5023
  296MOL0     H39926   7.752   8.142  10.427 -1.9223  2.2991 -1.2396
  296MOL0     H39927   7.912   8.211  10.464 -0.4249 -1.3227  0.9625
  296MOL0     H39928   7.816   8.378  10.619 -0.6883  0.2075 -1.3111
  296MOL0     H39929   7.651   8.312  10.578  0.3720  1.2209  0.6648
  296MOL0     H39930   7.871   8.149  10.694  0.5723  0.6368 -0.6463
  296MOL0     H39931   7.702   8.104  10.698 -0.2243 -0.5798 -0.1839
  296MOL0     H39932   7.765   8.181  10.919 -0.5668 -0.3295 -0.3163
  296MOL0     H39933   7.825   8.338  10.857 -1.9315  2.1045  1.4019
  296MOL0     H39934   7.603   8.400  10.778 -0.4743 -0.8790 -1.5540
  296MOL0     H39935   7.615   8.364  10.957 -1.8501 -0.4447  0.2469
  296MOL0     H39936   7.491   8.156  10.776  0.8579  1.1112 -1.2823
  296MOL0     H39937   7.489   8.178  10.957  1.4294  2.6962  1.0165
  296MOL0     H39938   7.353   8.365  10.767  0.9741 -0.3334 -0.6458
  296MOL0     H39939   7.367   8.374  10.947  1.7104 -1.2103  0.6069
  296MOL0     H39940   7.165   8.263  10.915 -0.3921 -0.2729  0.7517
  296MOL0     H39941   7.271   8.126  10.944 -1.9549 -2.2123 -2.0667
  296MOL0     H39942   7.980   8.457  10.434  0.2245 -0.0897  0.2399
  296MOL0     H39943   8.157   8.539  10.290  1.5065 -2.2681 -0.9028
  296MOL0     H39944   8.423   8.832  10.149  3.2952  1.4312  0.4424
  296MOL0     H39945   8.645   8.873   9.999  0.7679 -1.2688 -0.5222
  296MOL0     H39946   8.713   8.425  10.129  1.0456 -0.2080  0.4758
  296MOL0     H39947   8.508   8.405  10.004 -0.1331 -1.8063 -1.9991
  296MOL0     H39948   8.003   7.990  10.075  1.9196  1.1556  0.8237
  296MOL0     H39949   7.795   8.017   9.956 -0.8159  1.6525  0.0307
  296MOL0     H39950   7.580   8.122   9.668  2.4769  1.8606 -1.3867
  296MOL0     H39951   7.659   7.996   9.775  2.6770  0.4829  1.9889
  296MOL0     H39952   7.602   8.145   9.968  0.4647  0.6643  0.5736
  296MOL0     H39953   7.456   8.079   9.883  0.0447 -0.5691 -5.0148
  296MOL0     H39954   7.434   8.293   9.747 -1.9566 -1.5948  0.6711
  296MOL0     H39955   7.549   8.372   9.856  0.2481  1.4283 -1.3060
  296MOL0     H39956   7.276   8.237   9.928  1.8004 -2.4302 -0.3411
  296MOL0     H39957   7.302   8.414   9.926  1.6375 -1.0006 -1.6385
  296MOL0     H39958   7.461   8.320  10.296  1.9365  0.2612 -0.3144
  296MOL0     H39959   7.967   8.299   9.689 -1.5699 -1.2600 -0.0057
  296MOL0     H39960   8.187   8.294   9.824 -0.5409  2.0879 -0.3984
  297MOL0     O39961   5.049   2.917   5.050 -0.2010  0.2886  0.7349
  297MOL0     C39962   5.103   2.875   4.945 -0.5250  0.3944 -1.1295
  297MOL0     O39963   5.041   2.817   4.836  0.5109 -0.8829 -0.1078
  297MOL0     C39964   4.899   2.824   4.836 -1.1017  0.7757  0.2387
  297MOL0     C39965   4.843   2.946   4.808  0.2849  0.0472  0.1975
  297MOL0     C39966   4.698   2.964   4.800  0.0321  0.3733 -0.7864
  297MOL0     C39967   4.621   2.857   4.836 -0.4779 -0.5669 -0.4730
  297MOL0     O39968   4.487   2.874   4.844 -0.4409 -0.0320  0.0410
  297MOL0     C39969   4.410   2.977   4.778  0.1697  0.5991 -1.0296
  297MOL0     C39970   4.265   2.939   4.787  0.0229  0.5389  0.3742
  297MOL0     C39971   4.166   3.053   4.803 -0.2721 -0.3096 -0.3050
  297MOL0     C39972   4.035   3.004   4.848 -0.7283  0.3573  0.1350
  297MOL0     C39973   3.946   3.126   4.869  0.4242 -0.4386  0.6825
  297MOL0     C39974   3.798   3.096   4.869  0.6822  0.3826  0.6118
  297MOL0     C39975   3.716   3.225   4.883 -0.5086  0.3110 -0.2957
  297MOL0     C39976   3.578   3.208   4.834 -0.6245  0.2859  0.2247
  297MOL0     N39977   3.483   3.293   4.897  0.5759 -0.3287 -0.1409
  297MOL0     C39978   3.421   3.292   5.020 -0.0650  0.3760 -0.6265
  297MOL0     C39979   3.331   3.394   5.034 -0.2797  0.0549  0.8772
  297MOL0     C39980   3.239   3.412   5.147 -0.0745  0.1651  0.2025
  297MOL0     C39981   3.167   3.285   5.188 -0.6884  0.4984  0.5159
  297MOL0     C39982   3.062   3.326   5.293 -0.1069  0.5229  0.2386
  297MOL0     C39983   3.008   3.197   5.361 -0.2731 -0.3500 -0.0443
  297MOL0     O39984   2.908   3.247   5.452 -0.1617  0.3328 -0.1725
  297MOL0     C39985   2.847   3.165   5.547 -0.4811  0.6171 -0.1837
  297MOL0     C39986   2.852   3.024   5.546  0.3401 -0.3980 -0.2264
  297MOL0     C39987   2.780   2.947   5.638  0.5071 -0.4568  0.0118
  297MOL0     C39988   2.814   2.801   5.639 -0.5849 -0.2105  0.5114
  297MOL0     C39989   2.701   3.010   5.734 -0.1978  0.1690  0.0940
  297MOL0     C39990   2.606   2.934   5.826  0.3729  0.3249 -1.0303
  297MOL0     O39991   2.514   3.017   5.893  0.1737 -0.8961 -0.4343
  297MOL0     C39992   2.414   2.961   5.966  0.2483 -0.1379  0.5207
  297MOL0     C39993   2.419   2.959   6.111  0.0951 -0.5310 -0.3762
  297MOL0     C39994   2.310   2.908   6.183  0.3995 -0.4334 -0.1158
  297MOL0     C39995   2.200   2.844   6.113 -0.4446 -0.6172 -0.9208
  297MOL0     O39996   2.085   2.809   6.185  0.1331 -0.1062  0.7828
  297MOL0     C39997   2.001   2.706   6.131  0.6219 -0.1044  0.3700
  297MOL0     C39998   1.888   2.665   6.236 -0.3645 -1.0793  0.1375
  297MOL0     C39999   1.810   2.543   6.197  0.0911  0.1668 -0.3938
  297MOL0     C40000   1.688   2.517   6.294 -0.0006 -0.4753 -0.9046
  297MOL0     C40001   1.618   2.389   6.265 -0.5619 -0.4813  0.1314
  297MOL0     C40002   1.577   2.360   6.123 -0.1251  0.2346  0.0405
  297MOL0     C40003   1.487   2.246   6.109  0.3063  0.3111  0.0809
  297MOL0     C40004   1.441   2.232   5.955  0.0677 -1.0460 -0.3027
  297MOL0    Cl40005   1.359   2.074   5.939 -0.3425 -0.3177 -0.1985
  297MOL0     C40006   2.199   2.860   5.966  0.0094 -0.1707  0.0044
  297MOL0     C40007   2.309   2.914   5.893  1.7561  0.5135  0.5533
  297MOL0     O40008   2.615   2.814   5.837  0.4270 -0.0497  0.8454
  297MOL0     C40009   2.706   3.149   5.742 -1.1989  0.8847  0.2087
  297MOL0     C40010   2.778   3.223   5.647 -0.1442 -0.0302 -0.9563
  297MOL0     N40011   3.324   3.456   4.911  0.1563  0.2073  0.2195
  297MOL0     N40012   3.406   3.396   4.831  0.1924  0.4885 -0.7457
  297MOL0     C40013   4.681   2.734   4.873 -0.0981  0.8617 -0.5738
  297MOL0     C40014   4.823   2.713   4.867  0.3691  0.8201 -0.4199
  297MOL0     C40015   5.252   2.874   4.937 -0.6452  0.4417  0.0333
  297MOL0     C40016   5.318   2.922   5.051  0.6171 -0.0117  0.3548
  297MOL0     C40017   5.453   2.929   5.047  0.1077  0.2266 -0.1055
  297MOL0     C40018   5.533   2.871   4.944  0.3495 -0.5017 -0.3511
  297MOL0     O40019   5.668   2.857   4.958 -0.1649 -0.5578 -0.4703
  297MOL0     C40020   5.744   2.893   4.838 -0.5674  0.0138 -0.1272
  297MOL0     C40021   5.888   2.839   4.852 -0.2319 -0.5392  0.3595
  297MOL0     C40022   5.966   2.857   4.722 -0.0621  0.1515  0.2326
  297MOL0     C40023   6.090   2.755   4.734  0.1351  0.2734 -0.5252
  297MOL0     C40024   6.195   2.772   4.627 -0.0328 -0.4194 -0.3902
  297MOL0     C40025   6.266   2.793   4.529 -0.1373  0.8956 -1.0770
  297MOL0     C40026   5.458   2.813   4.835  0.2177 -0.3681  0.6414
  297MOL0     C40027   5.322   2.828   4.835 -0.5434  0.5527  0.3764
  297MOL0     H40028   4.903   3.037   4.799 -0.3369  0.3828 -0.6836
  297MOL0     H40029   4.658   3.062   4.777  1.9383  0.5476 -3.8217
  297MOL0     H40030   4.438   3.072   4.825  2.0995 -0.1974 -0.4341
  297MOL0     H40031   4.446   2.991   4.676  1.7850 -2.7136 -1.0453
  297MOL0     H40032   4.233   2.882   4.699  1.3790  3.3443 -2.0832
  297MOL0     H40033   4.259   2.876   4.877  0.3478 -0.3689 -0.2219
  297MOL0     H40034   4.198   3.127   4.877  0.8594 -0.6093 -0.4721
  297MOL0     H40035   4.154   3.104   4.707 -2.3447  0.3906  0.2755
  297MOL0     H40036   3.997   2.940   4.767 -0.1694  1.8395 -1.3698
  297MOL0     H40037   4.037   2.959   4.947 -0.1314  0.8046  0.3272
  297MOL0     H40038   3.967   3.163   4.970 -1.5010  0.9289  0.6370
  297MOL0     H40039   3.966   3.197   4.788 -1.0601 -3.2401 -2.3759
  297MOL0     H40040   3.773   3.052   4.772 -0.5636  0.7776  0.7365
  297MOL0     H40041   3.778   3.027   4.952  0.8467  0.3626  0.6347
  297MOL0     H40042   3.713   3.242   4.991  0.8838 -0.0390 -0.1904
  297MOL0     H40043   3.766   3.309   4.834 -1.9439  1.2242 -0.2619
  297MOL0     H40044   3.553   3.105   4.860 -1.1467  0.5600  0.8396
  297MOL0     H40045   3.574   3.228   4.727  2.6433  1.0026  0.1114
  297MOL0     H40046   3.436   3.217   5.098  0.0246 -1.1671 -2.0585
  297MOL0     H40047   3.292   3.451   5.234  0.0662  0.6241 -0.0887
  297MOL0     H40048   3.173   3.496   5.125  1.3286  1.9680  2.3791
  297MOL0     H40049   3.233   3.214   5.238 -0.7652  0.3509  0.4069
  297MOL0     H40050   3.118   3.240   5.102 -1.0515 -1.2029  1.5650
  297MOL0     H40051   2.986   3.380   5.235  1.0173  1.8401 -0.0845
  297MOL0     H40052   3.102   3.397   5.366  1.7682  0.8344 -1.0108
  297MOL0     H40053   3.098   3.152   5.404  3.3657  4.9917 -1.1113
  297MOL0     H40054   2.956   3.129   5.294  0.4495 -2.0130  1.0269
  297MOL0     H40055   2.906   2.968   5.470  2.0868 -2.1121  2.1019
  297MOL0     H40056   2.904   2.784   5.579  0.4926  0.3411  1.9085
  297MOL0     H40057   2.870   2.775   5.730 -0.4725 -3.5636 -0.3645
  297MOL0     H40058   2.730   2.733   5.624 -1.7614  1.1661  0.6452
  297MOL0     H40059   2.504   2.997   6.167  0.5507  3.1071 -3.1481
  297MOL0     H40060   2.309   2.926   6.290 -1.5022  1.8433 -0.4226
  297MOL0     H40061   1.949   2.739   6.040  1.7051 -0.7603 -0.5150
  297MOL0     H40062   2.055   2.613   6.112 -1.1736 -1.5359  1.9239
  297MOL0     H40063   1.943   2.642   6.328 -1.8370  0.1730  1.3791
  297MOL0     H40064   1.824   2.750   6.259  1.1238  1.8176 -4.9180
  297MOL0     H40065   1.876   2.455   6.201 -2.1072 -1.5309  0.3184
  297MOL0     H40066   1.769   2.556   6.097 -1.3759  0.1009  0.1822
  297MOL0     H40067   1.723   2.520   6.397  0.2743 -2.6339 -0.8889
  297MOL0     H40068   1.618   2.600   6.276  0.1244 -0.2191 -0.2349
  297MOL0     H40069   1.526   2.377   6.323  0.3300 -0.2757  1.6212
  297MOL0     H40070   1.689   2.314   6.301  1.9669  0.2798 -2.7868
  297MOL0     H40071   1.526   2.447   6.082 -2.2079 -0.4792  0.9772
  297MOL0     H40072   1.668   2.345   6.064 -1.4834  1.9142 -2.6872
  297MOL0     H40073   1.395   2.260   6.167 -0.5073 -0.0745 -1.0773
  297MOL0     H40074   1.542   2.156   6.139 -1.3402  0.3686  3.8445
  297MOL0     H40075   1.521   2.243   5.881 -1.3783  1.7586 -1.6191
  297MOL0     H40076   1.370   2.309   5.924  1.2211 -0.1887 -0.8917
  297MOL0     H40077   2.111   2.833   5.908 -1.4595  1.6434  1.2724
  297MOL0     H40078   2.306   2.923   5.785  3.1855  1.5120  0.5723
  297MOL0     H40079   2.633   3.194   5.810 -3.1148 -2.2547  0.4349
  297MOL0     H40080   2.773   3.332   5.647  1.7697  0.1074  0.2771
  297MOL0     H40081   4.623   2.650   4.911  1.4021 -0.6504 -1.4984
  297MOL0     H40082   4.864   2.614   4.881 -0.6464  0.1702 -1.7801
  297MOL0     H40083   5.261   2.959   5.136 -0.4182  1.1760 -0.7928
  297MOL0     H40084   5.505   2.973   5.132  0.8219 -1.6408  0.4727
  297MOL0     H40085   5.695   2.854   4.748 -0.8441 -0.5747  0.2758
  297MOL0     H40086   5.740   3.001   4.822 -1.6827 -0.2900 -2.2892
  297MOL0     H40087   5.888   2.737   4.893  0.4497 -0.7809 -0.2095
  297MOL0     H40088   5.935   2.898   4.931  1.8599 -0.3022 -1.0017
  297MOL0     H40089   6.004   2.959   4.721  0.9553 -0.1940 -1.9675
  297MOL0     H40090   5.901   2.842   4.636 -2.0489  0.6545  1.5838
  297MOL0     H40091   6.046   2.655   4.738 -2.1992  1.2563 -0.1117
  297MOL0     H40092   6.133   2.774   4.832 -3.2071  0.1448  1.1046
  297MOL0     H40093   6.330   2.806   4.443 -1.3378  0.2720 -2.0912
  297MOL0     H40094   5.508   2.759   4.755 -0.6542 -1.1228  0.5881
  297MOL0     H40095   5.268   2.792   4.748  0.2991 -1.4227  0.6112
  298MOL0     O40096   9.811   7.901   9.867  0.8353  0.4493  0.1284
  298MOL0     C40097   9.885   7.811   9.823 -0.4651 -0.1353 -0.5718
  298MOL0     O40098   9.854   7.684   9.778  0.0070  1.1075  0.1130
  298MOL0     C40099   9.720   7.666   9.777 -0.4320  0.4392 -0.6258
  298MOL0     C40100   9.635   7.707   9.667  0.5225 -0.1353  0.5219
  298MOL0     C40101   9.494   7.702   9.691 -0.4003  0.1561  0.4299
  298MOL0     C40102   9.439   7.648   9.805  0.9021 -0.6411 -0.0861
  298MOL0     O40103   9.304   7.628   9.828  0.0242  0.3047 -0.2424
  298MOL0     C40104   9.212   7.700   9.750  0.2106 -0.7460  0.1607
  298MOL0     C40105   9.089   7.706   9.851  0.2139  0.3093  0.6029
  298MOL0     C40106   8.971   7.768   9.781 -0.2827 -0.2096 -0.5379
  298MOL0     C40107   8.848   7.798   9.860 -0.4936  0.1871  0.1060
  298MOL0     C40108   8.736   7.874   9.782 -0.2293 -0.2599 -1.0261
  298MOL0     C40109   8.772   8.018   9.754  0.4723  0.3337 -0.1006
  298MOL0     C40110   8.643   8.100   9.710  0.0287 -0.5779  0.4979
  298MOL0     C40111   8.677   8.250   9.708  0.2813  0.6139 -0.1229
  298MOL0     N40112   8.577   8.323   9.623 -0.2906  0.4380 -0.7816
  298MOL0     C40113   8.442   8.307   9.619 -0.5278  0.1647  0.0020
  298MOL0     C40114   8.398   8.395   9.527 -0.4584 -0.9652  0.4373
  298MOL0     C40115   8.262   8.403   9.459 -0.9907 -0.7947  0.1024
  298MOL0     C40116   8.245   8.276   9.366  0.8850  0.6488  0.2283
  298MOL0     C40117   8.178   8.161   9.448 -1.0379  0.6108  0.4053
  298MOL0     C40118   8.154   8.029   9.371  0.7709 -0.2603  1.2653
  298MOL0     O40119   8.059   8.069   9.263 -0.3264  0.7431  0.3230
  298MOL0     C40120   7.920   8.072   9.286 -0.8679 -0.6144  0.4154
  298MOL0     C40121   7.846   8.112   9.179  0.3587 -0.2141  0.4428
  298MOL0     C40122   7.710   8.108   9.187  0.1905  0.2469  0.3765
  298MOL0     C40123   7.633   8.154   9.064 -0.4900 -0.2056  0.8395
  298MOL0     C40124   7.650   8.059   9.309 -0.3768  0.0767 -0.5721
  298MOL0     C40125   7.504   8.049   9.334  0.0793  0.3285 -0.2014
  298MOL0     O40126   7.418   8.074   9.233  0.0579 -0.3220  0.6291
  298MOL0     C40127   7.284   8.059   9.264 -0.6606  0.0382  0.4188
  298MOL0     C40128   7.232   7.941   9.313 -0.0834 -0.6451 -0.3119
  298MOL0     C40129   7.090   7.921   9.321 -0.6775 -0.6219  0.1739
  298MOL0     C40130   7.007   8.020   9.286  0.2732 -0.4090  0.5536
  298MOL0     O40131   6.877   7.984   9.292  0.2924 -0.3279  0.3482
  298MOL0     C40132   6.769   8.089   9.300 -0.1636  0.3268 -0.1862
  298MOL0     C40133   6.726   8.112   9.155  0.5733  0.6458 -0.3203
  298MOL0     C40134   6.585   8.175   9.153 -0.2506 -0.3332 -0.0838
  298MOL0     C40135   6.544   8.192   9.007  0.1524  0.4042 -0.3613
  298MOL0     C40136   6.408   8.276   9.001 -0.1741 -0.3887 -1.2901
  298MOL0     C40137   6.361   8.291   8.860 -1.5091 -0.3956  0.2971
  298MOL0     C40138   6.216   8.355   8.860 -0.5673  0.0641 -0.2503
  298MOL0     C40139   6.186   8.405   8.720 -0.8588  1.0279  0.2821
  298MOL0    Cl40140   6.259   8.564   8.692 -0.5927 -0.1170 -0.2736
  298MOL0     C40141   7.058   8.137   9.236  0.0875  0.2452  0.6201
  298MOL0     C40142   7.197   8.149   9.220 -0.9347  0.7121 -0.6259
  298MOL0     O40143   7.470   8.043   9.454 -0.1300  0.1095  0.3439
  298MOL0     C40144   7.729   8.024   9.421  0.0659 -0.0198 -0.7528
  298MOL0     C40145   7.865   8.035   9.407  0.1185  1.5343  0.3002
  298MOL0     N40146   8.516   8.468   9.488  0.4202 -0.0077  0.1097
  298MOL0     N40147   8.624   8.423   9.551  0.4309 -0.2458  0.3088
  298MOL0     C40148   9.520   7.617   9.911  0.3096  0.2846 -0.2367
  298MOL0     C40149   9.662   7.616   9.892 -0.2702  0.1756 -0.1297
  298MOL0     C40150  10.026   7.848   9.821 -0.6780  0.5182 -0.1973
  298MOL0     C40151  10.076   7.968   9.872  0.6514 -0.4005 -0.3693
  298MOL0     C40152  10.214   8.003   9.864  0.8621  0.0169 -0.1917
  298MOL0     C40153  10.315   7.914   9.827  0.4225  0.3282  1.1388
  298MOL0     O40154  10.452   7.947   9.821 -0.5914 -0.1249  0.7304
  298MOL0     C40155  10.494   8.079   9.842 -0.2692  0.3568  0.5659
  298MOL0     C40156  10.499   8.118   9.993 -0.6876  0.1339  0.5931
  298MOL0     C40157  10.587   8.035  10.088  0.3179  0.2060  0.9408
  298MOL0     C40158  10.737   8.017  10.043  0.6492 -0.3803  0.1841
  298MOL0     C40159  10.818   7.936  10.129 -0.3986 -0.3682  1.1169
  298MOL0     C40160  10.886   7.873  10.203 -0.6124 -0.0271  0.2266
  298MOL0     C40161  10.266   7.787   9.783  0.3240 -0.3755  0.4931
  298MOL0     C40162  10.125   7.761   9.776 -1.2196  0.5201 -1.1425
  298MOL0     H40163   9.675   7.723   9.567 -0.5639 -1.5166 -0.1645
  298MOL0     H40164   9.428   7.720   9.606  0.9026  1.5761 -0.3232
  298MOL0     H40165   9.251   7.800   9.727  0.6709  0.0031  3.6400
  298MOL0     H40166   9.186   7.646   9.659 -1.7162 -2.3450  1.5767
  298MOL0     H40167   9.058   7.609   9.890  1.5386 -0.5408 -0.3904
  298MOL0     H40168   9.115   7.774   9.934  0.0019  0.5925  0.4382
  298MOL0     H40169   9.004   7.871   9.760 -4.5628  1.1611 -1.5473
  298MOL0     H40170   8.946   7.717   9.688 -1.5160  1.6301 -1.2726
  298MOL0     H40171   8.809   7.698   9.883 -0.7905  0.6251  1.6788
  298MOL0     H40172   8.877   7.858   9.947  0.6378  0.1370 -0.2320
  298MOL0     H40173   8.714   7.818   9.690 -2.8621 -0.2506 -0.4735
  298MOL0     H40174   8.643   7.870   9.840  0.7888 -3.4401  0.6460
  298MOL0     H40175   8.814   8.059   9.846 -0.4619  2.0968 -0.4011
  298MOL0     H40176   8.837   8.019   9.666 -1.0967 -3.7746 -1.5748
  298MOL0     H40177   8.593   8.059   9.622 -2.7021  0.5555  1.4088
  298MOL0     H40178   8.563   8.082   9.783  1.5209 -1.7538  1.9221
  298MOL0     H40179   8.776   8.258   9.661  0.0445 -2.0778 -1.2203
  298MOL0     H40180   8.687   8.300   9.805 -3.4268  1.2577  0.0771
  298MOL0     H40181   8.384   8.240   9.682  0.9937  0.8180  2.2217
  298MOL0     H40182   8.197   8.403   9.547  1.4888 -0.9482  2.0618
  298MOL0     H40183   8.246   8.495   9.403 -0.6555  0.3282  1.7676
  298MOL0     H40184   8.340   8.244   9.323 -0.2807 -0.9396 -1.2586
  298MOL0     H40185   8.174   8.300   9.287  1.1777 -0.3441 -0.3453
  298MOL0     H40186   8.080   8.189   9.488 -2.2454 -4.3259  1.6078
  298MOL0     H40187   8.237   8.140   9.538 -1.6188 -2.2866  0.2217
  298MOL0     H40188   8.115   7.950   9.435  0.5590 -2.0921 -1.0090
  298MOL0     H40189   8.252   8.012   9.325  1.6394  2.5597  1.8455
  298MOL0     H40190   7.890   8.154   9.089 -0.2906  1.5203  0.8974
  298MOL0     H40191   7.563   8.077   9.029 -2.3358  0.8323  2.0754
  298MOL0     H40192   7.581   8.246   9.093 -0.7187 -0.8036  2.4312
  298MOL0     H40193   7.701   8.183   8.984 -2.6381  0.8239 -0.7189
  298MOL0     H40194   7.287   7.853   9.344  0.8915  0.2589  0.5962
  298MOL0     H40195   7.059   7.826   9.363 -3.8519  0.2338  0.0341
  298MOL0     H40196   6.680   8.047   9.348  0.5212  0.6499  1.4512
  298MOL0     H40197   6.790   8.188   9.342 -1.2834 -0.1174  1.5514
  298MOL0     H40198   6.800   8.174   9.103 -1.3751  3.3503 -0.0976
  298MOL0     H40199   6.713   8.011   9.114 -0.8939  0.5979  0.2217
  298MOL0     H40200   6.588   8.274   9.200  0.7379 -0.4061  0.0231
  298MOL0     H40201   6.517   8.111   9.210 -0.3555 -0.6783 -0.5879
  298MOL0     H40202   6.618   8.242   8.944  0.7593  0.5259  0.4310
  298MOL0     H40203   6.533   8.092   8.964  0.1172  1.7790 -3.7970
  298MOL0     H40204   6.432   8.378   9.034  0.9854 -0.8117 -0.7647
  298MOL0     H40205   6.330   8.224   9.057 -0.3484 -2.4154 -3.2892
  298MOL0     H40206   6.433   8.355   8.810  0.1142  0.2418  3.2184
  298MOL0     H40207   6.368   8.196   8.806  0.2303  0.3085 -0.7852
  298MOL0     H40208   6.202   8.435   8.933 -1.1540  0.5279 -0.8530
  298MOL0     H40209   6.145   8.283   8.903  1.4680 -1.5804  0.5361
  298MOL0     H40210   6.077   8.416   8.718 -0.7633  2.2314 -2.2435
  298MOL0     H40211   6.205   8.335   8.639  1.4343  1.3639  0.4648
  298MOL0     H40212   6.998   8.226   9.215 -0.4499 -0.5183 -1.3097
  298MOL0     H40213   7.239   8.240   9.180 -2.0097  1.5636  0.1475
  298MOL0     H40214   7.692   8.005   9.522  1.3933  2.2557  0.2455
  298MOL0     H40215   7.927   8.016   9.494  2.3881  2.3701 -1.0356
  298MOL0     H40216   9.467   7.603  10.005  0.1731  0.9892 -0.2043
  298MOL0     H40217   9.719   7.609   9.984 -3.5270 -0.1732  2.0159
  298MOL0     H40218  10.008   8.037   9.921 -2.5616 -1.9800 -2.2845
  298MOL0     H40219  10.237   8.102   9.902  2.1769  0.0302 -0.9511
  298MOL0     H40220  10.596   8.088   9.806 -0.3593  0.6595  0.3880
  298MOL0     H40221  10.433   8.150   9.785  1.0835  0.3456 -0.9268
  298MOL0     H40222  10.399   8.113  10.039 -1.0091 -1.6211 -0.2462
  298MOL0     H40223  10.533   8.222   9.997  1.3219 -0.5122  1.8841
  298MOL0     H40224  10.543   7.937  10.106 -0.7885 -0.1263 -2.7401
  298MOL0     H40225  10.593   8.083  10.186 -0.5290 -2.0438  2.1735
  298MOL0     H40226  10.779   8.118  10.043 -2.5713  1.1259 -1.1778
  298MOL0     H40227  10.742   7.984   9.938 -0.7332  1.3860 -0.4927
  298MOL0     H40228  10.965   7.819  10.251  1.6169  2.6163 -0.1861
  298MOL0     H40229  10.350   7.727   9.748  1.0866  1.8439 -1.7623
  298MOL0     H40230  10.085   7.667   9.740 -1.1471  0.0288  0.0254
  299MOL0     O40231  11.029   4.433   4.135  0.2491 -0.5760  0.0438
  299MOL0     C40232  10.988   4.332   4.203  0.2970  0.1539 -0.8628
  299MOL0     O40233  10.896   4.248   4.164  0.0310 -0.0694  0.5906
  299MOL0     C40234  10.815   4.275   4.060 -0.2684  0.3251 -0.7605
  299MOL0     C40235  10.762   4.400   4.043  0.1225  0.0858 -0.5021
  299MOL0     C40236  10.672   4.427   3.947 -0.0377  0.0720 -0.1108
  299MOL0     C40237  10.616   4.319   3.881  0.0138 -0.2808  0.4807
  299MOL0     O40238  10.520   4.330   3.785  0.0958  0.4148  0.3176
  299MOL0     C40239  10.456   4.455   3.751 -0.3874  0.3651  0.7369
  299MOL0     C40240  10.364   4.442   3.623 -1.1965 -0.2980 -0.2284
  299MOL0     C40241  10.239   4.368   3.641  0.2812 -0.0316  0.7975
  299MOL0     C40242  10.129   4.404   3.533  0.1038 -0.8650  0.1700
  299MOL0     C40243  10.020   4.301   3.528 -0.6204 -0.0443  0.7578
  299MOL0     C40244   9.914   4.341   3.437 -0.1911 -0.0197 -0.2256
  299MOL0     C40245   9.794   4.249   3.455 -0.1318  0.1282 -0.5748
  299MOL0     C40246   9.797   4.129   3.354  1.1288 -0.8446  0.1607
  299MOL0     N40247   9.667   4.064   3.345 -0.1658  0.5221  0.1144
  299MOL0     C40248   9.553   4.117   3.328  1.0091 -0.4411 -0.5067
  299MOL0     C40249   9.456   4.018   3.342 -0.3450  0.3367  0.3282
  299MOL0     C40250   9.303   4.042   3.323 -0.0181 -0.3059  0.9124
  299MOL0     C40251   9.217   3.963   3.424  0.4353 -0.0440  0.5299
  299MOL0     C40252   9.067   3.990   3.395 -0.6877  0.7146 -0.2962
  299MOL0     C40253   8.972   3.890   3.453  1.4475  0.7431  0.7425
  299MOL0     O40254   8.851   3.887   3.377 -0.3016  0.7710  0.5475
  299MOL0     C40255   8.745   3.961   3.426 -0.5793  0.1598  0.3913
  299MOL0     C40256   8.745   4.088   3.478 -0.3945 -0.9264 -0.7330
  299MOL0     C40257   8.630   4.155   3.521 -0.9418  0.8572 -0.1521
  299MOL0     C40258   8.649   4.304   3.566 -0.4463 -0.9457 -0.0581
  299MOL0     C40259   8.508   4.078   3.515 -0.1061  0.1840  0.0581
  299MOL0     C40260   8.378   4.127   3.570  0.8689 -0.2016 -0.6037
  299MOL0     O40261   8.282   4.037   3.562  0.3405 -0.6053 -0.3892
  299MOL0     C40262   8.148   4.057   3.588  0.6785  1.3038  0.4288
  299MOL0     C40263   8.105   4.143   3.695  0.4215  0.5465 -0.6815
  299MOL0     C40264   7.979   4.156   3.743  0.3358 -0.2574 -0.1730
  299MOL0     C40265   7.883   4.091   3.676  0.3338 -0.6595  0.1893
  299MOL0     O40266   7.754   4.110   3.715  0.4090 -0.1819  0.7423
  299MOL0     C40267   7.700   3.986   3.748  0.9830  0.1018 -1.1464
  299MOL0     C40268   7.554   4.012   3.802  0.8185 -0.9210  0.3964
  299MOL0     C40269   7.473   3.881   3.811 -0.1670 -1.5115  0.5337
  299MOL0     C40270   7.370   3.842   3.700  0.3066  0.9002 -0.2192
  299MOL0     C40271   7.283   3.737   3.769  0.2002  0.5534  0.0054
  299MOL0     C40272   7.151   3.709   3.696 -0.0092  0.6241  0.2855
  299MOL0     C40273   7.060   3.594   3.739  0.7222 -0.0855 -0.2572
  299MOL0     C40274   6.917   3.607   3.692  0.3311 -0.2689  0.4160
  299MOL0    Cl40275   6.910   3.618   3.509 -0.0328 -0.0131  0.6058
  299MOL0     C40276   7.916   4.002   3.562  0.5833 -0.4696 -0.1039
  299MOL0     C40277   8.047   3.985   3.521 -0.0017 -0.0998  0.6226
  299MOL0     O40278   8.368   4.239   3.626 -0.0535  0.4419  0.4361
  299MOL0     C40279   8.504   3.957   3.439 -0.8591  0.3613 -0.3500
  299MOL0     C40280   8.623   3.895   3.412 -0.3880 -0.6379  0.0824
  299MOL0     N40281   9.518   3.900   3.359  0.3561 -0.1086  0.1524
  299MOL0     N40282   9.642   3.933   3.372 -0.2517 -0.4377 -0.5074
  299MOL0     C40283  10.676   4.188   3.885 -0.1296 -0.5796 -0.3405
  299MOL0     C40284  10.775   4.167   3.980 -0.4322 -0.0418  0.3304
  299MOL0     C40285  11.058   4.308   4.329  0.3169  0.2385 -1.0144
  299MOL0     C40286  11.193   4.332   4.346  0.0167 -0.8119 -0.2986
  299MOL0     C40287  11.248   4.312   4.476  0.1281  0.3145 -0.3156
  299MOL0     C40288  11.169   4.276   4.589 -0.5281  1.1208  0.1402
  299MOL0     O40289  11.226   4.273   4.714 -0.4418  0.0507  0.5803
  299MOL0     C40290  11.136   4.264   4.820 -0.5350  0.4248  0.0571
  299MOL0     C40291  11.210   4.298   4.950  0.0293 -0.5726  0.0460
  299MOL0     C40292  11.106   4.299   5.065  0.1342 -0.5333  0.3812
  299MOL0     C40293  11.049   4.156   5.092 -0.4027  0.0824  0.3904
  299MOL0     C40294  10.906   4.137   5.098  0.1713  0.0703  0.0914
  299MOL0     C40295  10.792   4.089   5.094  0.6794 -0.2332 -0.3486
  299MOL0     C40296  11.031   4.251   4.566 -0.7134 -0.9239 -0.1266
  299MOL0     C40297  10.981   4.259   4.435 -0.0628 -0.2405 -0.1402
  299MOL0     H40298  10.790   4.487   4.100 -0.1491  1.2443 -2.0797
  299MOL0     H40299  10.633   4.526   3.928  2.0448  0.5755 -2.2034
  299MOL0     H40300  10.384   4.484   3.828  0.3216  0.3768  1.4038
  299MOL0     H40301  10.530   4.533   3.733 -0.5453  0.6196  1.1650
  299MOL0     H40302  10.347   4.542   3.583  2.4366  0.9712  0.9949
  299MOL0     H40303  10.426   4.397   3.545 -2.8394 -1.0642 -1.1534
  299MOL0     H40304  10.262   4.261   3.634  0.2303 -0.0697  1.1890
  299MOL0     H40305  10.203   4.399   3.739  3.2832  2.8173  1.1740
  299MOL0     H40306  10.084   4.503   3.550 -0.1767 -1.2516  1.8085
  299MOL0     H40307  10.169   4.409   3.431 -0.0621  0.3502  0.1488
  299MOL0     H40308  10.064   4.203   3.509  0.2199  0.4632 -0.0713
  299MOL0     H40309   9.971   4.300   3.626  0.1677  0.5922  1.1791
  299MOL0     H40310   9.881   4.442   3.464 -1.5960  0.3465 -2.9103
  299MOL0     H40311   9.954   4.350   3.335 -2.2548 -0.1429 -1.0866
  299MOL0     H40312   9.784   4.197   3.550 -1.4681 -0.7296 -1.1553
  299MOL0     H40313   9.703   4.303   3.430 -1.1614 -1.3498 -0.1389
  299MOL0     H40314   9.872   4.053   3.376  1.3649 -1.3325 -2.0761
  299MOL0     H40315   9.831   4.171   3.259  0.7537  0.7999  0.7265
  299MOL0     H40316   9.534   4.222   3.309 -0.2910 -0.2578  1.4214
  299MOL0     H40317   9.279   4.148   3.317  0.9791  0.0940  3.0579
  299MOL0     H40318   9.279   4.016   3.219 -0.1521  1.0745  0.5828
  299MOL0     H40319   9.236   3.983   3.530 -0.5941 -0.4251  0.7989
  299MOL0     H40320   9.224   3.857   3.397 -0.1783  0.3944 -1.4849
  299MOL0     H40321   9.063   3.981   3.286  1.8106 -0.1678 -0.3656
  299MOL0     H40322   9.043   4.091   3.429  0.6957  1.4970 -1.5546
  299MOL0     H40323   8.944   3.902   3.558 -2.6371 -0.3429 -0.0674
  299MOL0     H40324   9.019   3.792   3.435 -0.1729  0.1100 -0.1585
  299MOL0     H40325   8.839   4.143   3.483 -0.3380 -1.1028  1.1038
  299MOL0     H40326   8.592   4.334   3.654 -0.1506 -0.7779  0.0773
  299MOL0     H40327   8.756   4.324   3.579 -0.6653  1.7991 -1.5842
  299MOL0     H40328   8.629   4.364   3.477 -1.6498 -0.1660  0.7097
  299MOL0     H40329   8.172   4.205   3.754 -0.7387 -0.5645  1.9999
  299MOL0     H40330   7.953   4.221   3.826  1.5887  5.6779 -3.8186
  299MOL0     H40331   7.691   3.928   3.656  0.0784 -0.2054 -0.8701
  299MOL0     H40332   7.753   3.931   3.827 -1.3198  1.4049  1.4865
  299MOL0     H40333   7.563   4.056   3.902  1.9796 -1.5462  0.5870
  299MOL0     H40334   7.509   4.079   3.728 -2.9062 -2.5665  0.9709
  299MOL0     H40335   7.419   3.886   3.906  1.6277  0.5526  1.5102
  299MOL0     H40336   7.541   3.796   3.820  0.5692 -0.7443  2.9435
  299MOL0     H40337   7.308   3.926   3.667 -0.0277  1.5210  1.8447
  299MOL0     H40338   7.419   3.808   3.609 -1.1700 -0.5042 -0.5540
  299MOL0     H40339   7.256   3.771   3.870  1.5500  0.2084  0.5059
  299MOL0     H40340   7.333   3.640   3.779 -0.7093  0.1615  0.9369
  299MOL0     H40341   7.088   3.799   3.703 -0.9800 -0.1138  1.4315
  299MOL0     H40342   7.179   3.692   3.592  0.3799 -1.4415  0.6958
  299MOL0     H40343   7.048   3.598   3.847 -0.1102  1.0370 -0.3741
  299MOL0     H40344   7.094   3.495   3.706  0.7881  0.5750 -2.3150
  299MOL0     H40345   6.874   3.701   3.727 -0.8756 -1.2371  1.6302
  299MOL0     H40346   6.852   3.531   3.734  2.6142 -2.0351  0.9553
  299MOL0     H40347   7.833   3.965   3.502 -0.2594  0.6684  0.3197
  299MOL0     H40348   8.079   3.937   3.429 -1.4614 -0.3402  0.2152
  299MOL0     H40349   8.419   3.895   3.411  2.9334 -4.9072 -1.6826
  299MOL0     H40350   8.617   3.797   3.365  3.3047  0.1378 -2.4029
  299MOL0     H40351  10.645   4.114   3.812 -0.3425  1.7193 -2.7247
  299MOL0     H40352  10.830   4.074   3.990  1.3836  0.8657 -0.7810
  299MOL0     H40353  11.251   4.348   4.255 -0.3644 -2.6889 -0.9035
  299MOL0     H40354  11.357   4.313   4.481  0.1771  1.3376 -1.2994
  299MOL0     H40355  11.054   4.336   4.814  0.8000  1.9181 -0.8755
  299MOL0     H40356  11.093   4.164   4.807 -0.7468  0.7883 -2.5810
  299MOL0     H40357  11.263   4.393   4.939 -1.4329  0.2563 -0.0554
  299MOL0     H40358  11.281   4.216   4.968 -0.4630 -1.6193 -2.3606
  299MOL0     H40359  11.020   4.363   5.043 -0.6584 -1.8565 -0.4650
  299MOL0     H40360  11.151   4.344   5.155  2.3897  1.1722 -1.4690
  299MOL0     H40361  11.086   4.132   5.192 -1.1509  0.5469  0.7862
  299MOL0     H40362  11.081   4.093   5.009  1.0770  0.7966  0.3969
  299MOL0     H40363  10.704   4.028   5.095 -0.0453  0.7125  2.4631
  299MOL0     H40364  10.974   4.211   4.649  1.2660 -1.1415  1.1965
  299MOL0     H40365  10.885   4.209   4.424 -0.8519  1.5173 -1.7956
  300MOL0     O40366   9.325   4.656   9.570 -0.4564 -0.6967 -0.3252
  300MOL0     C40367   9.378   4.760   9.534 -0.9065  0.2147 -0.4334
  300MOL0     O40368   9.318   4.862   9.469  0.3524  0.3155  0.7475
  300MOL0     C40369   9.181   4.862   9.443  0.0737  0.0428 -0.5255
  300MOL0     C40370   9.079   4.849   9.548  0.5839 -0.2935  0.4508
  300MOL0     C40371   8.948   4.854   9.525  0.3967  0.3828 -0.4907
  300MOL0     C40372   8.910   4.889   9.396 -0.5345  0.0747  0.2211
  300MOL0     O40373   8.782   4.911   9.351  0.4619  0.7591 -0.7100
  300MOL0     C40374   8.693   4.915   9.459 -0.3909 -0.1985  0.3422
  300MOL0     C40375   8.560   4.954   9.395 -0.0046 -0.1494  0.4913
  300MOL0     C40376   8.444   4.984   9.489  0.2195 -0.3549 -0.0798
  300MOL0     C40377   8.323   5.038   9.408 -0.0934  0.1258 -0.1061
  300MOL0     C40378   8.201   5.082   9.494  0.1995 -0.7257  0.0243
  300MOL0     C40379   8.083   5.141   9.404  0.5886 -1.3991 -0.7622
  300MOL0     C40380   7.973   5.202   9.498 -0.0402  0.0508 -0.0099
  300MOL0     C40381   7.908   5.108   9.603 -0.1115  0.0510 -0.3151
  300MOL0     N40382   7.802   5.026   9.543 -0.4094  0.2521  0.0674
  300MOL0     C40383   7.804   4.912   9.459  1.0714 -0.5415 -0.5028
  300MOL0     C40384   7.675   4.889   9.425  0.0541 -0.2670  0.3497
  300MOL0     C40385   7.634   4.769   9.355 -0.4736  0.9977  0.4905
  300MOL0     C40386   7.482   4.741   9.366 -1.1693 -0.0561  1.0480
  300MOL0     C40387   7.400   4.846   9.288  0.6274 -0.0779 -0.8893
  300MOL0     C40388   7.253   4.799   9.274 -0.3265 -0.3361  0.2306
  300MOL0     O40389   7.180   4.898   9.204 -0.0765  0.0036  0.4245
  300MOL0     C40390   7.045   4.874   9.178 -0.1682  0.1853 -0.3455
  300MOL0     C40391   6.971   4.762   9.220 -0.3112 -0.1988 -0.2222
  300MOL0     C40392   6.841   4.744   9.179 -0.4185 -0.5316  0.3134
  300MOL0     C40393   6.771   4.622   9.235 -0.0643  0.4435  0.5741
  300MOL0     C40394   6.784   4.830   9.086  0.2452  0.6345 -0.0030
  300MOL0     C40395   6.647   4.822   9.023  0.3868 -0.2846  0.4118
  300MOL0     O40396   6.612   4.927   8.941  0.5511 -0.2307 -0.2039
  300MOL0     C40397   6.482   4.943   8.900 -0.5318  0.1909 -0.0792
  300MOL0     C40398   6.434   4.885   8.783 -0.2392  0.0150  0.4758
  300MOL0     C40399   6.308   4.925   8.733  0.4784 -0.5449  0.1028
  300MOL0     C40400   6.233   5.017   8.802  1.0892 -0.6101  0.2470
  300MOL0     O40401   6.107   5.046   8.759 -0.5570  0.6749  0.0896
  300MOL0     C40402   6.035   5.169   8.789  0.1801  0.0601 -0.2425
  300MOL0     C40403   5.906   5.181   8.726  0.5368 -0.3847  0.1790
  300MOL0     C40404   5.819   5.290   8.791 -0.4380  0.3034  0.6131
  300MOL0     C40405   5.746   5.230   8.906  0.0506 -0.4118  0.0473
  300MOL0     C40406   5.608   5.301   8.945 -0.3688 -0.0184  0.4642
  300MOL0     C40407   5.498   5.258   8.848 -0.1737  0.0510  0.2322
  300MOL0     C40408   5.370   5.345   8.851 -0.4208 -0.8791 -0.4581
  300MOL0     C40409   5.243   5.277   8.808 -0.2049 -0.4378  0.3868
  300MOL0    Cl40410   5.243   5.222   8.637 -0.0885 -0.2896  0.1758
  300MOL0     C40411   6.282   5.074   8.918  0.3913 -0.0566 -0.4214
  300MOL0     C40412   6.403   5.037   8.970  0.7929  0.1339 -0.5879
  300MOL0     O40413   6.573   4.731   9.051 -0.6640 -0.0710 -0.0220
  300MOL0     C40414   6.855   4.946   9.045 -0.4017 -0.3437 -0.1053
  300MOL0     C40415   6.982   4.965   9.098 -0.0598  1.0296 -0.0478
  300MOL0     N40416   7.595   4.976   9.501 -0.5848 -0.3474  0.2449
  300MOL0     N40417   7.674   5.070   9.552  0.3260 -0.2534  0.5637
  300MOL0     C40418   9.007   4.910   9.298  0.5544 -0.5402 -0.3586
  300MOL0     C40419   9.143   4.896   9.320  0.5630 -0.6143  0.2042
  300MOL0     C40420   9.522   4.765   9.548  1.0349 -0.8119 -0.2466
  300MOL0     C40421   9.588   4.654   9.610  0.1166 -0.2361  0.6220
  300MOL0     C40422   9.726   4.664   9.634  0.5946 -0.3975  0.7345
  300MOL0     C40423   9.793   4.785   9.604 -0.7336  0.1943 -0.6800
  300MOL0     O40424   9.927   4.765   9.630  0.6142 -0.3927  0.3089
  300MOL0     C40425  10.018   4.877   9.634  0.7061  0.5426 -0.8728
  300MOL0     C40426  10.049   4.919   9.775 -0.0973 -0.2727 -0.1984
  300MOL0     C40427   9.926   4.990   9.846 -0.3629 -0.1129  0.8694
  300MOL0     C40428   9.964   5.052   9.982 -0.1204  0.1304 -0.2944
  300MOL0     C40429  10.066   5.151   9.960  0.2557 -0.6989  0.7255
  300MOL0     C40430  10.154   5.232   9.944  0.2866  0.3065 -0.4651
  300MOL0     C40431   9.731   4.896   9.550  0.2012  0.2431 -0.2186
  300MOL0     C40432   9.594   4.885   9.532 -0.4439 -0.7778  0.2545
  300MOL0     H40433   9.114   4.814   9.645  2.4363  0.8252  0.2370
  300MOL0     H40434   8.894   4.818   9.612  2.1234  0.5696  0.7164
  300MOL0     H40435   8.677   4.820   9.510 -3.7595 -0.8797 -1.6962
  300MOL0     H40436   8.729   4.987   9.533  0.3782  1.1266 -1.2356
  300MOL0     H40437   8.570   5.041   9.330  0.9086  0.1952  1.0846
  300MOL0     H40438   8.534   4.869   9.331  3.0488 -3.2447  2.9842
  300MOL0     H40439   8.410   4.902   9.553  2.6056  0.0210  1.8317
  300MOL0     H40440   8.490   5.062   9.552 -1.6239  1.5826 -1.0009
  300MOL0     H40441   8.351   5.127   9.350 -1.1027  2.3104  2.4896
  300MOL0     H40442   8.292   4.951   9.350 -1.6074 -0.3215  1.3084
  300MOL0     H40443   8.165   5.006   9.563 -3.7067  0.9297  0.0787
  300MOL0     H40444   8.224   5.165   9.562 -0.8568 -0.0205 -0.4506
  300MOL0     H40445   8.126   5.213   9.333  1.5148 -1.3937 -0.2211
  300MOL0     H40446   8.029   5.061   9.353 -1.1220 -3.3495  3.5662
  300MOL0     H40447   8.019   5.284   9.553  2.2914 -1.8620  1.0633
  300MOL0     H40448   7.893   5.245   9.437  2.1779  2.4164 -1.4659
  300MOL0     H40449   7.867   5.165   9.687  2.4556 -2.4283  2.8873
  300MOL0     H40450   7.985   5.040   9.640  1.1638  1.9745  0.7125
  300MOL0     H40451   7.894   4.858   9.432  1.0844  0.5667 -2.9530
  300MOL0     H40452   7.656   4.783   9.248  0.0735 -0.6700  0.3564
  300MOL0     H40453   7.687   4.681   9.392  0.4806  0.1293 -2.6221
  300MOL0     H40454   7.461   4.738   9.474  2.6219  2.6683  2.0742
  300MOL0     H40455   7.462   4.644   9.321 -0.3254 -1.0065  2.6208
  300MOL0     H40456   7.446   4.861   9.189 -2.2356 -0.9524 -2.4702
  300MOL0     H40457   7.391   4.943   9.337  0.2579 -0.3816 -0.3395
  300MOL0     H40458   7.217   4.781   9.376 -0.1650  0.1460  0.3783
  300MOL0     H40459   7.245   4.702   9.225 -1.2831  0.5515 -1.4338
  300MOL0     H40460   7.024   4.682   9.270 -1.0112 -0.1386  0.6403
  300MOL0     H40461   6.751   4.543   9.161 -0.2121 -1.5281  2.6159
  300MOL0     H40462   6.826   4.570   9.314 -2.3352 -0.9792  1.3285
  300MOL0     H40463   6.677   4.647   9.286 -1.6626 -0.7714 -1.5761
  300MOL0     H40464   6.483   4.798   8.742  0.5548 -1.2955  3.8639
  300MOL0     H40465   6.266   4.872   8.648  0.8280 -0.1096 -0.3478
  300MOL0     H40466   6.026   5.172   8.898 -1.0228  2.4321 -0.3331
  300MOL0     H40467   6.081   5.263   8.757 -0.6208  0.0910 -1.3537
  300MOL0     H40468   5.901   5.208   8.620 -1.7643 -0.6479  0.1692
  300MOL0     H40469   5.852   5.088   8.740  0.5803 -0.1994  1.6764
  300MOL0     H40470   5.751   5.330   8.715 -0.4808  3.2041  2.0190
  300MOL0     H40471   5.878   5.380   8.811 -0.1793  0.3820 -0.4459
  300MOL0     H40472   5.715   5.126   8.891 -2.3790  0.1504  0.6919
  300MOL0     H40473   5.814   5.242   8.990 -0.8292  1.0958  0.5795
  300MOL0     H40474   5.616   5.409   8.933  1.4322 -0.2811 -1.3112
  300MOL0     H40475   5.585   5.263   9.045 -0.0471 -1.1269  0.1281
  300MOL0     H40476   5.540   5.249   8.747 -0.1183 -1.1939  0.3499
  300MOL0     H40477   5.472   5.156   8.878 -2.1577  0.2539 -0.6277
  300MOL0     H40478   5.391   5.436   8.795  0.4714  0.1111  1.3968
  300MOL0     H40479   5.353   5.385   8.952  0.4864  1.1697 -1.0702
  300MOL0     H40480   5.149   5.333   8.822 -0.3291 -0.8750  1.4397
  300MOL0     H40481   5.231   5.192   8.876  0.8706 -1.6792 -0.9269
  300MOL0     H40482   6.239   5.162   8.963  1.2280  0.2939 -0.2911
  300MOL0     H40483   6.439   5.087   9.059  1.4029 -0.2993 -0.5812
  300MOL0     H40484   6.824   5.022   8.974 -0.5537 -1.3623 -1.1637
  300MOL0     H40485   7.048   5.046   9.066 -1.2637  1.4801 -1.5445
  300MOL0     H40486   8.975   4.935   9.197 -0.0081  0.4344  0.0517
  300MOL0     H40487   9.219   4.907   9.243  0.6697 -0.2924  0.3518
  300MOL0     H40488   9.543   4.565   9.651 -2.5032  0.6543 -0.0984
  300MOL0     H40489   9.777   4.577   9.675 -0.3584  0.1551  3.2231
  300MOL0     H40490  10.112   4.850   9.585  2.3761  1.7574  1.4751
  300MOL0     H40491   9.973   4.964   9.587  0.4574 -0.1901 -2.0348
  300MOL0     H40492  10.139   4.980   9.772 -0.0335 -0.3959 -0.9155
  300MOL0     H40493  10.068   4.832   9.839  1.9819  0.5219  0.3467
  300MOL0     H40494   9.851   4.913   9.863 -0.2822 -0.2579  0.5789
  300MOL0     H40495   9.888   5.067   9.778  2.1321  0.7007  0.2606
  300MOL0     H40496  10.005   4.979  10.052  0.0996 -0.5466 -1.1178
  300MOL0     H40497   9.880   5.101  10.033  2.3058  3.1120  1.1853
  300MOL0     H40498  10.229   5.308   9.937  1.4199 -0.7440 -0.0909
  300MOL0     H40499   9.777   4.993   9.531 -1.0363  0.7837 -0.6006
  300MOL0     H40500   9.547   4.976   9.496  2.0194 -0.3085 -2.1161
  301MOL0     O40501   4.144   3.954   7.498 -0.7486  0.8176 -0.2782
  301MOL0     C40502   4.163   4.043   7.416 -0.6330  0.3049  1.4138
  301MOL0     O40503   4.068   4.112   7.348 -0.3726 -0.1459  0.1647
  301MOL0     C40504   3.932   4.121   7.389  0.3780  0.2710 -1.1406
  301MOL0     C40505   3.873   4.096   7.516  0.2580 -0.1041 -0.0974
  301MOL0     C40506   3.739   4.111   7.542 -0.1087 -0.3749  0.0218
  301MOL0     C40507   3.651   4.162   7.443 -0.3570  0.1280  0.1225
  301MOL0     O40508   3.520   4.189   7.460  0.0159 -0.3008  0.9849
  301MOL0     C40509   3.492   4.253   7.591  0.0335  0.1894 -0.1185
  301MOL0     C40510   3.351   4.309   7.562 -0.3864 -0.4006 -0.2518
  301MOL0     C40511   3.312   4.408   7.672  0.3651  0.4136  0.1264
  301MOL0     C40512   3.346   4.358   7.815  0.1109  0.6672 -0.7658
  301MOL0     C40513   3.324   4.462   7.929 -0.5238  0.2313  0.1502
  301MOL0     C40514   3.185   4.490   7.955  0.5932  0.3337 -0.4907
  301MOL0     C40515   3.165   4.590   8.066 -0.2528  0.7944 -0.1482
  301MOL0     C40516   3.170   4.527   8.205 -0.2783 -0.1369  0.2626
  301MOL0     N40517   3.041   4.460   8.219 -0.4107 -1.0294  0.1501
  301MOL0     C40518   3.014   4.327   8.196 -0.1041 -0.6712  0.1570
  301MOL0     C40519   2.886   4.304   8.223  0.7697 -0.4593 -0.3250
  301MOL0     C40520   2.809   4.175   8.222  0.9933 -0.0739  0.3965
  301MOL0     C40521   2.708   4.159   8.340 -0.0895 -0.3439 -0.4860
  301MOL0     C40522   2.587   4.063   8.307  0.7743 -0.5556  0.7632
  301MOL0     C40523   2.503   4.026   8.422  0.1066 -0.0337 -0.4122
  301MOL0     O40524   2.394   3.951   8.370  0.5727 -0.2341 -0.3746
  301MOL0     C40525   2.272   3.952   8.433  0.2050 -0.8372  0.1863
  301MOL0     C40526   2.233   4.027   8.547  0.9403  0.1570 -0.1107
  301MOL0     C40527   2.099   4.026   8.592 -0.5383 -0.0175  0.6594
  301MOL0     C40528   2.064   4.109   8.711 -0.7509  0.2886 -0.6185
  301MOL0     C40529   2.007   3.943   8.528 -0.6217  0.5768 -0.3304
  301MOL0     C40530   1.856   3.932   8.571 -0.6382 -0.2298  0.6206
  301MOL0     O40531   1.785   3.843   8.497 -0.6984 -0.7805  0.1155
  301MOL0     C40532   1.671   3.791   8.547  0.1122  0.8039 -0.2784
  301MOL0     C40533   1.562   3.766   8.467  0.2136 -0.7060 -0.0652
  301MOL0     C40534   1.440   3.715   8.515 -0.6466  0.4254  0.0914
  301MOL0     C40535   1.431   3.678   8.653  0.0235  1.1117 -0.0142
  301MOL0     O40536   1.318   3.615   8.699  0.1217  0.1241 -0.0915
  301MOL0     C40537   1.298   3.572   8.834 -0.2659  0.5898  0.1485
  301MOL0     C40538   1.181   3.476   8.847  0.0495 -0.5985 -0.3644
  301MOL0     C40539   1.172   3.352   8.759 -0.9085  0.7777 -0.8701
  301MOL0     C40540   1.032   3.280   8.783 -0.2539 -0.2943 -0.6667
  301MOL0     C40541   0.953   3.242   8.661  0.2313 -0.6262 -0.1437
  301MOL0     C40542   0.808   3.187   8.694  0.1250  0.3834 -0.5855
  301MOL0     C40543   0.742   3.131   8.570  1.2872 -0.1942  0.1013
  301MOL0     C40544   0.589   3.109   8.615  0.4512 -0.5461 -0.6082
  301MOL0    Cl40545   0.508   3.017   8.476  0.1456 -0.0513 -0.0203
  301MOL0     C40546   1.542   3.697   8.734  0.1163 -0.1999 -0.8625
  301MOL0     C40547   1.662   3.741   8.680  0.8359 -0.7138 -0.2042
  301MOL0     O40548   1.808   4.008   8.651  0.7687  0.0997  0.4343
  301MOL0     C40549   2.047   3.872   8.418 -0.7414  1.0242 -0.4475
  301MOL0     C40550   2.181   3.871   8.372 -0.0921 -0.0709 -0.8402
  301MOL0     N40551   2.836   4.425   8.264 -0.1989 -0.5207 -0.0176
  301MOL0     N40552   2.926   4.518   8.272 -0.4478 -0.3669  0.5764
  301MOL0     C40553   3.709   4.188   7.311  0.5100  0.0993 -0.0503
  301MOL0     C40554   3.850   4.173   7.293  0.0584 -0.0287 -0.7810
  301MOL0     C40555   4.308   4.054   7.363  0.9535  0.9760 -0.8082
  301MOL0     C40556   4.418   4.041   7.451  0.6893  0.1323 -0.1778
  301MOL0     C40557   4.543   4.089   7.416  0.2972 -0.5826 -0.3832
  301MOL0     C40558   4.564   4.150   7.288  0.4418  0.0952  0.0884
  301MOL0     O40559   4.676   4.191   7.234  0.3163 -0.7498  0.5056
  301MOL0     C40560   4.809   4.167   7.299  0.4400 -0.0624 -0.9285
  301MOL0     C40561   4.931   4.221   7.233  0.0826  0.9434 -0.0636
  301MOL0     C40562   4.912   4.227   7.084  0.2184 -0.0169 -0.6644
  301MOL0     C40563   4.846   4.348   7.013 -0.3479  0.5857 -0.3833
  301MOL0     C40564   4.853   4.328   6.864 -0.2280 -0.2172  0.1272
  301MOL0     C40565   4.848   4.292   6.747  0.0368  0.7410  0.5760
  301MOL0     C40566   4.456   4.160   7.198 -0.2938  0.3413 -0.5002
  301MOL0     C40567   4.331   4.109   7.235 -0.0116 -1.7758 -0.3117
  301MOL0     H40568   3.936   4.077   7.602  1.2976  1.3228 -0.4904
  301MOL0     H40569   3.709   4.093   7.645 -0.4649  1.4705  0.2856
  301MOL0     H40570   3.494   4.182   7.675  2.3474 -1.9457 -1.8321
  301MOL0     H40571   3.547   4.344   7.617  0.0543  1.2843 -3.5876
  301MOL0     H40572   3.341   4.350   7.461 -2.5529  1.2644  0.5591
  301MOL0     H40573   3.288   4.219   7.566  1.5772 -2.1324 -3.5640
  301MOL0     H40574   3.350   4.510   7.659 -1.5331  0.9492 -1.7362
  301MOL0     H40575   3.204   4.420   7.666  0.4210  0.3699 -1.3362
  301MOL0     H40576   3.280   4.273   7.835  1.5076 -0.6273 -1.5372
  301MOL0     H40577   3.448   4.323   7.828 -1.3810 -3.0453  3.0944
  301MOL0     H40578   3.371   4.421   8.018  0.3097 -1.8186 -1.1527
  301MOL0     H40579   3.385   4.550   7.905  2.3510 -0.9124  2.6691
  301MOL0     H40580   3.156   4.543   7.864  3.7687 -1.3132 -2.6584
  301MOL0     H40581   3.116   4.405   7.946  0.2979  0.5249 -0.0796
  301MOL0     H40582   3.241   4.666   8.043 -0.9474  1.2538 -0.9952
  301MOL0     H40583   3.067   4.637   8.061 -0.9578 -0.7052 -1.0787
  301MOL0     H40584   3.185   4.611   8.273 -0.0606  0.5092 -0.5617
  301MOL0     H40585   3.252   4.455   8.208  0.8466  0.8794 -2.6979
  301MOL0     H40586   3.084   4.254   8.158  1.5881  1.2597 -0.5943
  301MOL0     H40587   2.754   4.181   8.128  1.0944 -3.4804  0.0100
  301MOL0     H40588   2.876   4.090   8.205 -1.6966 -2.1969 -0.1931
  301MOL0     H40589   2.672   4.258   8.371  0.5473 -0.0047 -0.8355
  301MOL0     H40590   2.772   4.110   8.414  0.5946 -0.7157 -1.3167
  301MOL0     H40591   2.617   3.973   8.252 -1.2233 -0.7329 -0.1495
  301MOL0     H40592   2.517   4.110   8.238  1.9054 -0.4575 -0.3476
  301MOL0     H40593   2.470   4.118   8.471 -0.9285  0.1872 -1.4985
  301MOL0     H40594   2.557   3.960   8.491  3.1000  0.4186 -2.1202
  301MOL0     H40595   2.301   4.100   8.591  1.3460  0.6714 -1.5270
  301MOL0     H40596   2.010   4.203   8.695 -0.5228  1.7638  5.1001
  301MOL0     H40597   2.012   4.050   8.787  0.6747 -0.5032 -0.2203
  301MOL0     H40598   2.157   4.133   8.763 -0.3136 -1.3817 -0.5840
  301MOL0     H40599   1.581   3.798   8.366  0.1069 -0.1273  0.0932
  301MOL0     H40600   1.354   3.706   8.449  1.0534  2.1289 -2.5740
  301MOL0     H40601   1.389   3.522   8.870  0.8667  2.0615 -0.5663
  301MOL0     H40602   1.285   3.658   8.900  1.0419  1.0517 -0.1725
  301MOL0     H40603   1.178   3.444   8.952  1.4445 -2.1293 -0.7476
  301MOL0     H40604   1.094   3.539   8.826 -0.0267 -0.6514 -0.2158
  301MOL0     H40605   1.247   3.283   8.800 -0.3034  1.5895 -0.5777
  301MOL0     H40606   1.189   3.364   8.652 -0.7642 -0.7663 -1.0469
  301MOL0     H40607   1.048   3.186   8.837  2.2845 -0.3234 -1.3509
  301MOL0     H40608   0.975   3.346   8.850  0.8407  1.4613 -1.3968
  301MOL0     H40609   1.014   3.164   8.615  1.2956 -0.8814  1.6151
  301MOL0     H40610   0.943   3.326   8.591 -0.2660 -2.1185 -1.9358
  301MOL0     H40611   0.826   3.098   8.754 -0.1753  0.1786 -0.7940
  301MOL0     H40612   0.731   3.251   8.738  1.8824  0.9817  1.8574
  301MOL0     H40613   0.787   3.040   8.531  0.1436 -0.1399 -1.3934
  301MOL0     H40614   0.744   3.202   8.487  0.4682 -1.9938 -1.5113
  301MOL0     H40615   0.535   3.202   8.636 -0.5318 -1.1064 -0.5851
  301MOL0     H40616   0.576   3.048   8.705  1.6579 -0.4875 -0.3732
  301MOL0     H40617   1.549   3.667   8.839 -2.5350  0.0001 -0.5640
  301MOL0     H40618   1.729   3.763   8.762  0.7831  0.9423 -0.5783
  301MOL0     H40619   1.978   3.809   8.363 -1.3027  1.3286 -0.1061
  301MOL0     H40620   2.211   3.804   8.292  0.1769  0.0810 -0.8723
  301MOL0     H40621   3.648   4.217   7.227 -0.0637  2.3047  1.0395
  301MOL0     H40622   3.891   4.213   7.200 -4.4480  0.0633 -3.0137
  301MOL0     H40623   4.399   3.992   7.546  0.7035  0.1537 -0.1637
  301MOL0     H40624   4.633   4.073   7.476  1.0350  0.4368 -1.1802
  301MOL0     H40625   4.797   4.207   7.400  0.1844  1.9433 -1.7060
  301MOL0     H40626   4.827   4.059   7.310  1.7424  0.2521  0.3885
  301MOL0     H40627   5.002   4.144   7.264 -1.6201 -1.6183 -2.0698
  301MOL0     H40628   4.959   4.318   7.273  2.6120  0.6339 -0.8487
  301MOL0     H40629   4.863   4.136   7.047  0.9625  0.7147 -3.7659
  301MOL0     H40630   5.016   4.231   7.051  0.9668 -0.3915  1.5065
  301MOL0     H40631   4.892   4.442   7.045  1.6915 -0.3672 -0.4057
  301MOL0     H40632   4.739   4.360   7.034 -0.1598 -1.1409  1.8741
  301MOL0     H40633   4.846   4.269   6.642  0.3944  1.5828  0.3726
  301MOL0     H40634   4.474   4.218   7.108  4.3199 -3.5817 -2.6051
  301MOL0     H40635   4.248   4.110   7.164  1.1716 -1.0044 -1.7548
  302MOL0     O40636   6.438   4.849  11.000  0.3348 -0.2959  0.4230
  302MOL0     C40637   6.460   4.732  10.972 -0.8770  1.4437 -1.2028
  302MOL0     O40638   6.375   4.642  10.912 -0.2875 -0.3940 -0.1310
  302MOL0     C40639   6.251   4.691  10.882 -0.9748 -0.5165  1.0364
  302MOL0     C40640   6.255   4.789  10.777  0.1564 -0.3296 -0.8361
  302MOL0     C40641   6.131   4.858  10.746 -0.0482  0.4849  0.3696
  302MOL0     C40642   6.010   4.830  10.810  0.4396  0.0969 -0.7374
  302MOL0     O40643   5.892   4.904  10.774 -0.4074  0.0457 -0.3477
  302MOL0     C40644   5.758   4.874  10.808 -0.8409  0.2998 -0.0996
  302MOL0     C40645   5.688   4.859  10.674  0.1456 -0.2943  0.3808
  302MOL0     C40646   5.533   4.869  10.690 -0.6426 -0.0254  0.0445
  302MOL0     C40647   5.455   4.898  10.558  0.6389  0.3748  0.4296
  302MOL0     C40648   5.303   4.882  10.584  0.0206  0.0986  0.1312
  302MOL0     C40649   5.211   4.864  10.456  0.1855 -0.4637 -0.2310
  302MOL0     C40650   5.065   4.886  10.492  0.6044  0.8761  0.5123
  302MOL0     C40651   5.010   4.767  10.569 -0.1269 -1.0510  0.0925
  302MOL0     N40652   4.870   4.797  10.600  0.2876  0.1851 -0.2011
  302MOL0     C40653   4.762   4.799  10.513 -0.4348  0.2468  0.2930
  302MOL0     C40654   4.652   4.801  10.592  0.1665  0.0878 -0.1016
  302MOL0     C40655   4.504   4.819  10.553  0.1658 -0.3790  1.0785
  302MOL0     C40656   4.433   4.674  10.543  0.2370 -0.0126  0.3570
  302MOL0     C40657   4.288   4.680  10.477  0.0252 -0.5550  0.0562
  302MOL0     C40658   4.213   4.557  10.443  0.7055  0.2416  0.4664
  302MOL0     O40659   4.111   4.589  10.345 -0.5644 -0.3942 -0.6222
  302MOL0     C40660   4.031   4.488  10.294  0.3979  0.8817  0.3616
  302MOL0     C40661   3.926   4.524  10.205 -0.1162 -0.1224 -0.4423
  302MOL0     C40662   3.832   4.439  10.152 -0.0918  0.1746  0.8287
  302MOL0     C40663   3.732   4.496  10.055  0.1202  0.3574 -0.3274
  302MOL0     C40664   3.827   4.307  10.199 -0.9125  0.1955 -0.2956
  302MOL0     C40665   3.717   4.212  10.174 -0.0517  0.1765 -0.0346
  302MOL0     O40666   3.760   4.087  10.145  0.5564  0.6956  0.4850
  302MOL0     C40667   3.667   3.985  10.140  0.6483 -0.4658 -0.0446
  302MOL0     C40668   3.601   3.930  10.254 -0.1410  0.0035  0.1337
  302MOL0     C40669   3.510   3.822  10.234  0.1305 -0.3839  0.7880
  302MOL0     C40670   3.482   3.764  10.107 -0.9563 -0.1735 -0.4319
  302MOL0     O40671   3.412   3.650  10.076  0.4363 -0.2640 -0.0285
  302MOL0     C40672   3.322   3.608  10.182  0.7250  0.4292 -0.4804
  302MOL0     C40673   3.222   3.498  10.127  0.4116 -0.8597  0.0649
  302MOL0     C40674   3.096   3.465  10.209 -0.1519  0.3075  0.1799
  302MOL0     C40675   3.002   3.582  10.235  0.3425 -0.3280  0.0291
  302MOL0     C40676   2.875   3.541  10.313  0.5676  0.1081  0.2955
  302MOL0     C40677   2.792   3.426  10.262  0.3378  0.6614 -0.6454
  302MOL0     C40678   2.753   3.441  10.114 -0.4951  0.2514 -0.8684
  302MOL0     C40679   2.665   3.320  10.065 -0.4253  0.7191 -0.5872
  302MOL0    Cl40680   2.737   3.161  10.115  0.2993 -0.2557  0.1996
  302MOL0     C40681   3.547   3.827   9.999 -0.2562  0.7257 -0.1429
  302MOL0     C40682   3.643   3.923  10.016 -0.1232  0.0851  0.2511
  302MOL0     O40683   3.603   4.239  10.186 -0.2836 -0.5315  0.3845
  302MOL0     C40684   3.935   4.265  10.282  1.1958  0.0488 -1.2533
  302MOL0     C40685   4.038   4.347  10.324  0.2315 -0.4448 -1.3139
  302MOL0     N40686   4.691   4.814  10.719 -0.6146 -0.0414 -0.2006
  302MOL0     N40687   4.822   4.805  10.726  0.5111 -0.1214  0.6749
  302MOL0     C40688   6.012   4.724  10.904  0.2366 -1.5123  1.0903
  302MOL0     C40689   6.131   4.658  10.944 -0.0204  0.0870 -0.0084
  302MOL0     C40690   6.605   4.680  11.001  1.1695  0.4073  0.1901
  302MOL0     C40691   6.640   4.545  10.976  0.4143  0.7951 -0.7530
  302MOL0     C40692   6.775   4.507  10.981 -0.1742  0.3926 -0.2311
  302MOL0     C40693   6.876   4.590  11.018 -0.7160 -0.2906 -0.0375
  302MOL0     O40694   7.010   4.552  11.033 -0.3757 -0.7173  1.0528
  302MOL0     C40695   7.049   4.416  11.008 -0.1770 -0.0962 -0.0039
  302MOL0     C40696   7.184   4.375  11.059  0.6079 -0.4640  0.0583
  302MOL0     C40697   7.198   4.402  11.213  0.8951  0.4242  0.1781
  302MOL0     C40698   7.089   4.341  11.307 -0.7399  0.5645 -0.5325
  302MOL0     C40699   7.085   4.190  11.297  0.5847  0.0373  0.1262
  302MOL0     C40700   7.084   4.064  11.295  0.2283 -0.5584  0.7292
  302MOL0     C40701   6.847   4.721  11.057  0.1933  0.3709  0.7554
  302MOL0     C40702   6.710   4.767  11.049  0.1559 -0.4573 -1.0022
  302MOL0     H40703   6.340   4.827  10.720 -1.3466  0.3017 -2.7508
  302MOL0     H40704   6.135   4.942  10.678 -2.0554  1.5038  1.4279
  302MOL0     H40705   5.746   4.792  10.879 -0.6458  1.6492  1.5497
  302MOL0     H40706   5.720   4.959  10.864  2.4813  2.9214 -1.4468
  302MOL0     H40707   5.730   4.940  10.613  0.2398 -1.1839 -0.7797
  302MOL0     H40708   5.722   4.768  10.625 -2.9695 -0.6484 -1.3900
  302MOL0     H40709   5.498   4.776  10.737  2.0611 -0.4578  1.4489
  302MOL0     H40710   5.517   4.944  10.767  2.2407 -0.4854  1.2251
  302MOL0     H40711   5.477   5.001  10.529 -0.1450  0.3179 -0.4071
  302MOL0     H40712   5.492   4.821  10.490 -1.9114 -0.4248 -0.1627
  302MOL0     H40713   5.283   4.796  10.647 -0.3819 -0.9981 -1.4241
  302MOL0     H40714   5.257   4.965  10.637 -0.6606 -1.7162  2.5467
  302MOL0     H40715   5.234   4.948  10.389  0.2658 -0.1714  0.1593
  302MOL0     H40716   5.225   4.766  10.409  2.5301  0.8410 -2.5168
  302MOL0     H40717   5.048   4.967  10.563 -0.4466 -1.3497  2.9502
  302MOL0     H40718   5.001   4.915  10.408 -0.4201  0.0364  0.9856
  302MOL0     H40719   5.065   4.746  10.661  0.3755 -0.9597 -0.1824
  302MOL0     H40720   5.009   4.679  10.505 -2.5483 -0.0578 -1.3858
  302MOL0     H40721   4.750   4.800  10.405  0.3174  2.4930  0.1844
  302MOL0     H40722   4.453   4.889  10.619  0.0065  0.1120  0.4463
  302MOL0     H40723   4.506   4.862  10.452  1.2776 -2.2105  0.2625
  302MOL0     H40724   4.417   4.624  10.638  1.1347  0.8073  0.9570
  302MOL0     H40725   4.492   4.608  10.478  2.9940  1.2066  1.4696
  302MOL0     H40726   4.305   4.732  10.382  1.2743 -1.0644 -0.0208
  302MOL0     H40727   4.223   4.745  10.535  0.5471 -1.9447  2.3354
  302MOL0     H40728   4.164   4.518  10.532 -0.8949 -0.4842 -0.6784
  302MOL0     H40729   4.277   4.481  10.396  1.9143  1.8244 -0.5752
  302MOL0     H40730   3.930   4.626  10.168  1.0161 -0.7707 -2.2096
  302MOL0     H40731   3.680   4.579  10.105 -2.5236 -0.6378 -1.2611
  302MOL0     H40732   3.786   4.539   9.970  0.0788  0.8348 -0.1183
  302MOL0     H40733   3.661   4.420  10.023 -0.2709  1.2222 -1.5738
  302MOL0     H40734   3.627   3.965  10.354 -1.4618 -0.1714  0.5603
  302MOL0     H40735   3.452   3.785  10.318 -1.3530  1.9398  0.8906
  302MOL0     H40736   3.380   3.568  10.266  0.9123  0.1504 -0.7458
  302MOL0     H40737   3.264   3.694  10.217  0.5056  1.2854 -2.7981
  302MOL0     H40738   3.195   3.536  10.028  0.4998 -1.8232 -0.3342
  302MOL0     H40739   3.274   3.405  10.105  1.7598 -0.2058  0.3680
  302MOL0     H40740   3.127   3.413  10.300  0.7930  0.1902 -0.1909
  302MOL0     H40741   3.040   3.404  10.137  0.1722  1.9865 -1.5825
  302MOL0     H40742   3.058   3.659  10.289 -1.4792 -0.5981  2.4620
  302MOL0     H40743   2.974   3.629  10.141 -1.5968  0.6711  1.0329
  302MOL0     H40744   2.805   3.626  10.314  1.1115  0.5737 -0.0703
  302MOL0     H40745   2.902   3.524  10.417  0.3509  1.1490  0.5338
  302MOL0     H40746   2.853   3.335  10.269 -1.0826 -0.2028  1.5014
  302MOL0     H40747   2.707   3.416  10.330 -0.9682 -2.1719 -2.5079
  302MOL0     H40748   2.847   3.456  10.060  2.0294 -1.2030  2.7274
  302MOL0     H40749   2.690   3.530  10.109 -0.0287  0.8457  2.2109
  302MOL0     H40750   2.654   3.336   9.957  4.3772  3.8215 -0.9336
  302MOL0     H40751   2.568   3.344  10.108 -0.0912 -2.0989  2.0806
  302MOL0     H40752   3.536   3.786   9.899 -1.9463 -1.8130  0.9677
  302MOL0     H40753   3.693   3.966   9.929  0.9676  1.3431  1.4563
  302MOL0     H40754   3.943   4.163  10.318  1.1707  0.3728 -0.3165
  302MOL0     H40755   4.120   4.306  10.382 -0.1052  1.2097  0.4143
  302MOL0     H40756   5.915   4.691  10.940 -0.6113 -3.3829 -2.4632
  302MOL0     H40757   6.127   4.581  11.020  3.6470 -0.3297 -0.0860
  302MOL0     H40758   6.570   4.471  10.937 -0.9958  1.9073 -0.4086
  302MOL0     H40759   6.790   4.403  10.954  1.3262 -0.1549  2.3989
  302MOL0     H40760   6.976   4.352  11.058 -0.2513  0.4770  0.6511
  302MOL0     H40761   7.045   4.406  10.899 -0.6113 -2.5795  0.1842
  302MOL0     H40762   7.258   4.441  11.014 -1.0624  0.4667 -1.4570
  302MOL0     H40763   7.203   4.267  11.050  0.1214 -0.7286  1.9185
  302MOL0     H40764   7.200   4.510  11.230 -1.7338  0.4782  0.5843
  302MOL0     H40765   7.291   4.357  11.249 -0.6210 -1.6690  1.7264
  302MOL0     H40766   6.990   4.382  11.282 -1.3908  1.3133  2.7159
  302MOL0     H40767   7.113   4.378  11.407  1.0198  0.9390 -1.0683
  302MOL0     H40768   7.081   3.957  11.282  1.6312 -0.5775  0.4018
  302MOL0     H40769   6.931   4.787  11.074  0.4321  0.5155 -0.8466
  302MOL0     H40770   6.691   4.870  11.078  1.1018 -1.2842  3.1547
  303MOL0     O40771   6.063   9.765   8.840  0.4848  0.8891 -0.0665
  303MOL0     C40772   6.124   9.766   8.946 -0.4667 -0.5474 -0.5265
  303MOL0     O40773   6.108   9.858   9.047  0.0108  0.3309 -1.0012
  303MOL0     C40774   6.029   9.966   9.042  0.2178 -0.4982 -0.3676
  303MOL0     C40775   6.076  10.097   9.069  0.8055  0.2326  0.1319
  303MOL0     C40776   5.982  10.204   9.066  0.5717 -0.9077 -0.3601
  303MOL0     C40777   5.845  10.186   9.035  0.2576  0.5631 -0.6758
  303MOL0     O40778   5.741  10.276   9.052 -0.6759 -0.0376 -0.3953
  303MOL0     C40779   5.780  10.409   9.031  0.0753 -0.7207  0.5079
  303MOL0     C40780   5.653  10.489   8.999  0.6314 -0.3830  0.7908
  303MOL0     C40781   5.579  10.522   9.131  0.4510 -0.2387  0.6031
  303MOL0     C40782   5.521  10.397   9.180  1.6658 -0.3590 -0.1486
  303MOL0     C40783   5.399  10.415   9.277 -0.4049  0.5231  1.0362
  303MOL0     C40784   5.277  10.492   9.222  0.2792 -0.6197  0.5797
  303MOL0     C40785   5.216  10.428   9.093 -0.7255 -0.4151 -0.4784
  303MOL0     C40786   5.107  10.519   9.034 -0.2580  0.9256 -0.3859
  303MOL0     N40787   4.975  10.469   9.085 -0.1703 -0.2159  0.0376
  303MOL0     C40788   4.896  10.383   9.012 -0.8708 -0.6021  0.0055
  303MOL0     C40789   4.784  10.371   9.081  0.5458  0.2280  0.5630
  303MOL0     C40790   4.691  10.256   9.048  0.3934  0.3147 -1.0133
  303MOL0     C40791   4.579  10.242   9.152 -0.6250 -0.5607  0.0736
  303MOL0     C40792   4.460  10.164   9.097 -0.0945 -0.0091  0.0005
  303MOL0     C40793   4.359  10.148   9.210  0.9723  0.2047  0.0269
  303MOL0     O40794   4.416  10.056   9.301 -0.3831  0.2002 -0.6856
  303MOL0     C40795   4.345  10.019   9.412 -0.2399  0.1418 -0.7738
  303MOL0     C40796   4.374   9.896   9.481 -0.8663 -0.2786 -0.6930
  303MOL0     C40797   4.293   9.854   9.593  0.8065 -0.0646 -0.6262
  303MOL0     C40798   4.357   9.749   9.682  0.5735  0.2904  0.2415
  303MOL0     C40799   4.183   9.929   9.632  0.8512  0.1640  0.4067
  303MOL0     C40800   4.093   9.882   9.741  0.6742  0.1509  0.7992
  303MOL0     O40801   4.068   9.751   9.759  0.1529 -0.5623 -0.5465
  303MOL0     C40802   3.969   9.720   9.857 -1.0432  0.1551  0.4637
  303MOL0     C40803   3.831   9.757   9.850  0.3790  0.0557  0.0415
  303MOL0     C40804   3.739   9.720   9.947 -0.4985  0.0116  0.3091
  303MOL0     C40805   3.781   9.639  10.049 -0.3889  0.2317  0.1190
  303MOL0     O40806   3.684   9.595  10.139  0.2479  0.8379  0.1335
  303MOL0     C40807   3.722   9.494  10.238 -0.0796  0.0908 -0.1063
  303MOL0     C40808   3.772   9.559  10.363 -0.0397 -0.0280 -0.5557
  303MOL0     C40809   3.717   9.493  10.496 -0.1783  0.4293 -0.1073
  303MOL0     C40810   3.556   9.490  10.496 -0.3369 -0.1003 -0.0405
  303MOL0     C40811   3.501   9.452  10.633 -0.3642 -0.5417 -0.6930
  303MOL0     C40812   3.349   9.427  10.632 -0.3370  0.6216  1.0985
  303MOL0     C40813   3.254   9.550  10.585 -0.1014  0.5763 -0.9619
  303MOL0     C40814   3.112   9.501  10.598 -0.0106 -0.0268  0.3668
  303MOL0    Cl40815   3.045   9.429  10.750  0.2181  0.1139 -0.6646
  303MOL0     C40816   3.916   9.594  10.052 -0.4787 -0.2584  1.0246
  303MOL0     C40817   4.013   9.638   9.959  0.0558  0.1429 -0.0560
  303MOL0     O40818   4.037   9.973   9.805 -0.1543  0.4539 -0.3299
  303MOL0     C40819   4.159  10.049   9.569  0.1422  0.1308  0.1357
  303MOL0     C40820   4.236  10.093   9.456 -0.9475 -0.4526 -0.5908
  303MOL0     N40821   4.781  10.450   9.194 -0.3952 -0.2066 -0.4814
  303MOL0     N40822   4.902  10.504   9.198 -0.2097 -0.1534 -0.3093
  303MOL0     C40823   5.800  10.058   9.009 -0.0349  0.4068 -0.3152
  303MOL0     C40824   5.888   9.950   9.010  0.5435 -0.1852 -0.9747
  303MOL0     C40825   6.238   9.656   8.965 -0.0633 -0.7514 -0.5450
  303MOL0     C40826   6.237   9.548   8.873 -0.0053  0.4984 -0.6181
  303MOL0     C40827   6.352   9.460   8.893 -1.5020  0.3339 -0.2581
  303MOL0     C40828   6.440   9.461   9.003  0.8977  0.0771 -0.0795
  303MOL0     O40829   6.523   9.351   9.010  0.3246 -0.0480  0.3267
  303MOL0     C40830   6.627   9.360   9.111 -1.4003 -0.1772 -0.5525
  303MOL0     C40831   6.741   9.255   9.082  0.3815 -0.0990  0.0235
  303MOL0     C40832   6.852   9.270   9.189 -1.0333  0.7590  0.3281
  303MOL0     C40833   6.952   9.149   9.196  0.4558 -0.2124  0.0802
  303MOL0     C40834   7.033   9.152   9.316 -0.3696  0.0994 -0.9844
  303MOL0     C40835   7.098   9.135   9.417 -0.7274 -1.5384  0.2691
  303MOL0     C40836   6.436   9.572   9.089  0.6385  1.4458 -1.2814
  303MOL0     C40837   6.336   9.664   9.072  0.3072 -0.7183 -0.2131
  303MOL0     H40838   6.180  10.117   9.094  1.9086  0.9311 -4.1816
  303MOL0     H40839   6.014  10.302   9.100 -0.4758 -1.0567  1.1562
  303MOL0     H40840   5.828  10.460   9.115 -0.8523  1.0502  0.0076
  303MOL0     H40841   5.840  10.410   8.939 -1.1795 -1.2596 -0.3409
  303MOL0     H40842   5.678  10.583   8.947  1.0641 -1.8353 -1.7860
  303MOL0     H40843   5.585  10.439   8.930  0.0434  2.2895 -0.7256
  303MOL0     H40844   5.645  10.559   9.209  0.3711  0.5738  0.2864
  303MOL0     H40845   5.501  10.592   9.100 -2.1435 -3.5437 -0.9768
  303MOL0     H40846   5.495  10.340   9.091  0.0311  0.6372 -0.3544
  303MOL0     H40847   5.596  10.345   9.240  1.4189  0.2949  0.7615
  303MOL0     H40848   5.372  10.314   9.309  1.3916 -0.3699 -0.1128
  303MOL0     H40849   5.438  10.463   9.368  0.8310  0.7071  0.4256
  303MOL0     H40850   5.206  10.501   9.305 -0.7477  2.2180 -0.4974
  303MOL0     H40851   5.302  10.598   9.210 -1.3774 -0.1177  1.2745
  303MOL0     H40852   5.296  10.414   9.019 -0.7276  0.1329 -0.5920
  303MOL0     H40853   5.180  10.325   9.102 -0.3331 -0.4142  1.7462
  303MOL0     H40854   5.117  10.520   8.925 -1.6685 -1.5555 -0.6079
  303MOL0     H40855   5.119  10.624   9.064 -1.8805  0.4455  2.2305
  303MOL0     H40856   4.931  10.326   8.926 -3.0047 -4.2185  1.2779
  303MOL0     H40857   4.650  10.268   8.948 -0.6906  2.3409 -0.3908
  303MOL0     H40858   4.740  10.158   9.050  0.7975  0.5111  0.4715
  303MOL0     H40859   4.555  10.342   9.189  2.9458  1.4573 -2.5003
  303MOL0     H40860   4.617  10.188   9.239  1.2320 -1.4075 -1.1893
  303MOL0     H40861   4.492  10.062   9.076 -1.4983 -0.2359 -1.1717
  303MOL0     H40862   4.415  10.214   9.010  1.1465  2.7337  0.8167
  303MOL0     H40863   4.269  10.098   9.172  0.2243  2.6645 -1.6606
  303MOL0     H40864   4.336  10.241   9.263 -1.6754 -0.8629  0.9668
  303MOL0     H40865   4.469   9.853   9.450  0.0015  1.7326 -0.9488
  303MOL0     H40866   4.465   9.768   9.693  0.4136  1.0468  0.5489
  303MOL0     H40867   4.307   9.755   9.779  1.6063  1.8967  0.7277
  303MOL0     H40868   4.344   9.649   9.640  2.8050  0.2176 -0.4045
  303MOL0     H40869   3.790   9.839   9.791  1.8286  0.2328 -0.7544
  303MOL0     H40870   3.646   9.775   9.958 -0.9032 -0.8754  1.4912
  303MOL0     H40871   3.630   9.438  10.259  1.2601 -2.1573  0.1432
  303MOL0     H40872   3.788   9.417  10.195 -0.3229 -1.2441  1.7601
  303MOL0     H40873   3.880   9.545  10.358 -0.3334 -3.3547  0.0246
  303MOL0     H40874   3.739   9.664  10.358 -0.9400 -0.3299 -1.0433
  303MOL0     H40875   3.744   9.558  10.580  0.5114  0.5296 -0.4027
  303MOL0     H40876   3.766   9.396  10.508  0.1595  0.1296 -3.0728
  303MOL0     H40877   3.521   9.587  10.459  0.7384  0.7797  1.1496
  303MOL0     H40878   3.526   9.408  10.431  2.2633 -2.3111  1.3441
  303MOL0     H40879   3.511   9.530  10.709 -1.4316 -2.4548  1.5052
  303MOL0     H40880   3.556   9.366  10.673  2.0350  1.1576 -0.0451
  303MOL0     H40881   3.336   9.339  10.567  0.5758  1.4178 -0.1944
  303MOL0     H40882   3.319   9.399  10.733  0.2348  0.6697  1.2853
  303MOL0     H40883   3.263   9.576  10.480 -0.9198  0.2189 -1.1324
  303MOL0     H40884   3.274   9.638  10.647 -2.9819 -0.3251  1.5256
  303MOL0     H40885   3.090   9.429  10.518  1.5421 -0.8405  0.6389
  303MOL0     H40886   3.055   9.593  10.586  0.8631  0.2372 -2.4482
  303MOL0     H40887   3.947   9.537  10.139 -0.8300 -1.0560  0.6366
  303MOL0     H40888   4.115   9.602   9.967 -0.6893 -1.7108  2.6142
  303MOL0     H40889   4.074  10.104   9.609  0.3401 -0.5436  1.5230
  303MOL0     H40890   4.201  10.185   9.409  1.0373  1.6958  1.7987
  303MOL0     H40891   5.694  10.042   8.994  0.2142 -1.8393  0.0543
  303MOL0     H40892   5.847   9.853   8.981 -0.8970  0.2238 -0.4001
  303MOL0     H40893   6.174   9.547   8.785 -0.1137 -2.0643 -0.5800
  303MOL0     H40894   6.358   9.366   8.839  0.5540  1.2118 -1.6226
  303MOL0     H40895   6.665   9.462   9.101  0.7398 -0.8250  0.2803
  303MOL0     H40896   6.574   9.341   9.205  0.2749  0.7713  0.6532
  303MOL0     H40897   6.774   9.255   8.977  0.8012 -1.1443  0.1453
  303MOL0     H40898   6.694   9.158   9.099 -1.7419  1.3171  3.1333
  303MOL0     H40899   6.808   9.287   9.288 -1.1218 -0.2741  0.4776
  303MOL0     H40900   6.900   9.364   9.159 -0.9057  0.7438  0.4846
  303MOL0     H40901   7.026   9.137   9.115  0.0323 -1.2054 -0.1858
  303MOL0     H40902   6.898   9.055   9.176 -1.6382  1.1251 -0.8944
  303MOL0     H40903   7.156   9.125   9.506 -0.1762  1.2870  0.3290
  303MOL0     H40904   6.518   9.588   9.159  1.0170 -3.3409 -0.2725
  303MOL0     H40905   6.340   9.757   9.127  1.4577 -0.0326 -1.3965
  304MOL0     O40906  10.846   1.088   0.370  0.0933  0.3792 -1.0301
  304MOL0     C40907  10.873   1.053   0.481  0.6249  0.1884 -0.1473
  304MOL0     O40908  10.808   1.096   0.604 -0.5124 -0.6414 -0.1496
  304MOL0     C40909  10.675   1.112   0.600  0.0469 -0.2111 -0.0002
  304MOL0     C40910  10.596   1.000   0.625  0.1054 -0.2313  0.5449
  304MOL0     C40911  10.453   0.997   0.626  0.8127 -0.4332 -1.5101
  304MOL0     C40912  10.390   1.122   0.622  0.5371  0.2919 -0.2115
  304MOL0     O40913  10.256   1.130   0.621  0.1922  0.3600 -0.2932
  304MOL0     C40914  10.179   1.029   0.694 -0.3500  0.3522 -0.4103
  304MOL0     C40915  10.062   1.096   0.764 -0.8444 -0.1220 -0.4089
  304MOL0     C40916   9.952   1.134   0.660  0.0119  0.6317  0.1886
  304MOL0     C40917   9.827   1.173   0.733  0.5142  0.2508  0.1306
  304MOL0     C40918   9.732   1.208   0.627 -0.4407  0.1257 -0.3387
  304MOL0     C40919   9.596   1.224   0.691 -0.0757 -0.9063 -0.3437
  304MOL0     C40920   9.479   1.276   0.603  0.0829 -0.5686 -0.3564
  304MOL0     C40921   9.441   1.185   0.487  0.5615  0.5922  0.8413
  304MOL0     N40922   9.345   1.081   0.522 -0.4109 -0.1720 -0.2115
  304MOL0     C40923   9.368   0.963   0.584  0.8255  0.2183  0.1576
  304MOL0     C40924   9.245   0.909   0.607 -0.8336 -0.1245 -0.2933
  304MOL0     C40925   9.219   0.767   0.661 -0.3915 -0.1914 -0.2724
  304MOL0     C40926   9.077   0.726   0.648  0.6418  0.8126  0.2490
  304MOL0     C40927   9.055   0.576   0.693  0.1051  0.4231 -0.4972
  304MOL0     C40928   8.917   0.527   0.716  0.2225 -0.0423 -0.9292
  304MOL0     O40929   8.838   0.511   0.592 -0.0017  0.0027 -0.7684
  304MOL0     C40930   8.707   0.480   0.597 -0.5572  0.2702  0.0288
  304MOL0     C40931   8.640   0.512   0.482  0.5861  0.5934 -0.0580
  304MOL0     C40932   8.503   0.481   0.458  0.1867 -0.2683 -0.5217
  304MOL0     C40933   8.458   0.486   0.320  0.2577  0.6159 -0.5375
  304MOL0     C40934   8.427   0.415   0.564 -0.3415  0.0268  0.1096
  304MOL0     C40935   8.289   0.384   0.566 -0.2070  0.1151 -0.2724
  304MOL0     O40936   8.252   0.255   0.599 -0.0969  0.2986 -0.3443
  304MOL0     C40937   8.118   0.248   0.636 -0.9572  0.5893 -1.3111
  304MOL0     C40938   8.021   0.223   0.544  0.7234 -0.1384 -0.7268
  304MOL0     C40939   7.884   0.215   0.590  0.1235  0.6762  0.4854
  304MOL0     C40940   7.847   0.220   0.721  0.4089 -0.4749 -0.4021
  304MOL0     O40941   7.720   0.224   0.764 -0.2249 -0.0135 -0.3612
  304MOL0     C40942   7.622   0.136   0.712  0.3560  0.5731  0.5121
  304MOL0     C40943   7.490   0.150   0.783 -0.3985 -0.7014  1.2605
  304MOL0     C40944   7.374   0.095   0.699 -0.4246 -0.0532  0.0262
  304MOL0     C40945   7.390  -0.056   0.667 -0.6454 -0.5967 -0.7063
  304MOL0     C40946   7.384  -0.146   0.790 -0.4491 -1.1051 -1.3036
  304MOL0     C40947   7.391  -0.296   0.772 -0.0977  0.2284  0.3530
  304MOL0     C40948   7.371  -0.368   0.901 -0.3028  1.2962 -0.4400
  304MOL0     C40949   7.400  -0.516   0.893 -1.0429 -0.0805 -0.0870
  304MOL0    Cl40950   7.575  -0.540   0.871 -0.6465  0.4136  0.1431
  304MOL0     C40951   7.946   0.230   0.818 -0.5904 -0.4727 -0.2176
  304MOL0     C40952   8.083   0.244   0.776  0.4441 -0.6922  0.5738
  304MOL0     O40953   8.216   0.465   0.505 -0.3629 -0.4427 -0.5647
  304MOL0     C40954   8.494   0.390   0.683 -0.8112  0.1300  0.5392
  304MOL0     C40955   8.636   0.415   0.698  0.5388  0.0317 -0.3251
  304MOL0     N40956   9.152   0.998   0.557 -0.0822  0.7971  0.3186
  304MOL0     N40957   9.210   1.099   0.517 -0.1146 -0.1492 -0.2958
  304MOL0     C40958  10.467   1.234   0.604  0.2893  0.4135 -0.1355
  304MOL0     C40959  10.612   1.231   0.580 -0.1311 -0.5237 -0.0515
  304MOL0     C40960  11.003   0.979   0.493  0.1767  0.3940 -1.3380
  304MOL0     C40961  11.052   0.963   0.616  0.0504  0.3730  0.1885
  304MOL0     C40962  11.176   0.894   0.631 -0.5413  0.2469 -0.0527
  304MOL0     C40963  11.247   0.853   0.516 -0.0372 -0.0388  0.9112
  304MOL0     O40964  11.362   0.779   0.511  0.9913 -1.2037  0.0699
  304MOL0     C40965  11.419   0.734   0.636  0.8844 -0.1258  0.1313
  304MOL0     C40966  11.337   0.625   0.709 -0.4832  1.1785  0.6705
  304MOL0     C40967  11.391   0.585   0.847 -0.7760  0.1295  0.2359
  304MOL0     C40968  11.350   0.672   0.961  0.4068 -0.3353 -0.7028
  304MOL0     C40969  11.352   0.612   1.092 -0.5831  0.1892  0.2988
  304MOL0     C40970  11.362   0.568   1.204 -0.1770  0.5606  0.2464
  304MOL0     C40971  11.188   0.861   0.392  0.2263 -0.4126  0.4963
  304MOL0     C40972  11.069   0.929   0.380 -0.0481 -0.9833 -0.7016
  304MOL0     H40973  10.653   0.910   0.643  0.4858  0.0433  0.7216
  304MOL0     H40974  10.401   0.903   0.635  0.1654  0.0495  0.1654
  304MOL0     H40975  10.138   0.952   0.627 -1.4356  0.7758 -0.2619
  304MOL0     H40976  10.236   0.976   0.770 -1.2626  0.7760  0.6037
  304MOL0     H40977  10.020   1.020   0.831  1.6340 -1.7236 -0.5318
  304MOL0     H40978  10.098   1.184   0.819 -0.1712 -0.3583 -0.4616
  304MOL0     H40979   9.983   1.212   0.590 -1.3914 -0.6425 -2.0056
  304MOL0     H40980   9.930   1.044   0.601  1.0765  0.7147 -0.3588
  304MOL0     H40981   9.796   1.088   0.795 -1.4708  0.4385 -0.5516
  304MOL0     H40982   9.840   1.260   0.798  0.1731  0.0628  0.4588
  304MOL0     H40983   9.768   1.301   0.584 -1.7454  0.6130 -0.4189
  304MOL0     H40984   9.724   1.138   0.543 -3.4100  1.1629 -1.0171
  304MOL0     H40985   9.563   1.129   0.735  0.1281 -0.9159 -0.2123
  304MOL0     H40986   9.592   1.295   0.774 -0.9871 -1.0451 -0.2630
  304MOL0     H40987   9.393   1.295   0.668 -0.4264 -1.6371 -0.6905
  304MOL0     H40988   9.506   1.377   0.573  0.6895 -0.6412 -0.0602
  304MOL0     H40989   9.512   1.131   0.424 -0.6874  1.1162 -1.1102
  304MOL0     H40990   9.388   1.256   0.422  2.4478  1.3203  0.0045
  304MOL0     H40991   9.463   0.912   0.592  0.6028 -0.1493  0.4996
  304MOL0     H40992   9.279   0.690   0.612  2.7307  0.4568  2.1864
  304MOL0     H40993   9.243   0.772   0.768  0.1167  0.3016 -0.4039
  304MOL0     H40994   9.047   0.740   0.544 -2.2401  2.1209  1.1309
  304MOL0     H40995   9.015   0.794   0.708 -0.1283 -1.2372  1.9052
  304MOL0     H40996   9.101   0.563   0.791 -0.6634  2.5328  0.2091
  304MOL0     H40997   9.100   0.514   0.614 -3.0983 -1.9295 -0.6447
  304MOL0     H40998   8.851   0.593   0.773 -0.2990  0.9109 -2.5611
  304MOL0     H40999   8.937   0.432   0.766 -2.3304 -0.3745 -0.3811
  304MOL0     H41000   8.688   0.570   0.405 -3.0709  4.1975  0.0531
  304MOL0     H41001   8.397   0.403   0.282  1.1204 -0.3171  0.0575
  304MOL0     H41002   8.403   0.581   0.317  1.4454  1.8544  5.1871
  304MOL0     H41003   8.543   0.491   0.252  1.5333 -4.0526  0.3711
  304MOL0     H41004   8.047   0.229   0.439 -1.0717  2.0928 -1.1101
  304MOL0     H41005   7.806   0.198   0.517  1.8831 -1.2090 -1.0259
  304MOL0     H41006   7.603   0.164   0.608 -1.0802 -0.1706  0.5444
  304MOL0     H41007   7.665   0.036   0.710  0.4164  0.5393  2.2821
  304MOL0     H41008   7.473   0.098   0.878  1.5787 -2.9119  0.4817
  304MOL0     H41009   7.476   0.259   0.793 -0.3326 -0.5772  0.1186
  304MOL0     H41010   7.361   0.154   0.608 -4.4653  0.8655  0.9961
  304MOL0     H41011   7.280   0.109   0.753  0.4984  0.7514  1.5107
  304MOL0     H41012   7.306  -0.076   0.600 -2.3956 -1.2812  1.5821
  304MOL0     H41013   7.482  -0.077   0.612 -0.6449 -0.4486 -0.7621
  304MOL0     H41014   7.305  -0.126   0.863  0.4002 -0.8729 -0.4171
  304MOL0     H41015   7.475  -0.112   0.841 -2.2727  1.9129  0.2014
  304MOL0     H41016   7.300  -0.309   0.713 -0.3669  2.8572  0.0817
  304MOL0     H41017   7.484  -0.335   0.730  0.8521  1.3636  1.3123
  304MOL0     H41018   7.266  -0.356   0.929 -1.3233 -2.6046 -2.0359
  304MOL0     H41019   7.438  -0.327   0.978 -2.1201  1.2405  1.2546
  304MOL0     H41020   7.347  -0.571   0.815 -1.0971 -1.1511  0.6752
  304MOL0     H41021   7.375  -0.563   0.989  0.7309 -0.2223  0.3509
  304MOL0     H41022   7.930   0.220   0.925  1.7169 -0.2002  0.2121
  304MOL0     H41023   8.166   0.237   0.846 -0.1945 -2.6051  1.2187
  304MOL0     H41024   8.434   0.342   0.759 -2.4612 -2.0633 -1.9903
  304MOL0     H41025   8.690   0.384   0.787 -1.2318  0.0820  0.8149
  304MOL0     H41026  10.409   1.324   0.625 -0.6080 -0.8562  3.5653
  304MOL0     H41027  10.670   1.322   0.565  0.5100 -1.2200 -2.0845
  304MOL0     H41028  10.994   0.992   0.703 -0.1014 -0.7651  0.4830
  304MOL0     H41029  11.216   0.887   0.732  1.1914 -0.2120 -0.7406
  304MOL0     H41030  11.523   0.709   0.611  0.4604 -0.0748 -1.8584
  304MOL0     H41031  11.429   0.815   0.709 -1.9635  0.0035  0.4997
  304MOL0     H41032  11.333   0.533   0.650  1.8272  1.1527  0.4825
  304MOL0     H41033  11.233   0.658   0.716 -1.3814 -1.2497 -0.2418
  304MOL0     H41034  11.500   0.576   0.846 -0.5631  2.1045  0.8543
  304MOL0     H41035  11.339   0.490   0.863 -2.1874  0.3359 -2.5754
  304MOL0     H41036  11.247   0.700   0.938  1.0362  0.5602 -2.6606
  304MOL0     H41037  11.423   0.753   0.968  0.0748 -0.0642 -0.3954
  304MOL0     H41038  11.364   0.537   1.307 -3.4864 -2.6189 -0.4639
  304MOL0     H41039  11.229   0.816   0.302 -2.8014  0.9030 -1.7071
  304MOL0     H41040  11.028   0.964   0.286 -1.0379  1.3152  0.4945
  305MOL0     O41041   7.700  10.037   3.426  0.3770 -0.2425  0.3135
  305MOL0     C41042   7.796  10.064   3.348 -0.3383  0.4048 -0.3072
  305MOL0     O41043   7.785  10.076   3.213 -0.0578  0.0641  0.0943
  305MOL0     C41044   7.659  10.099   3.167  0.1876  0.2632  0.9300
  305MOL0     C41045   7.571   9.989   3.156 -0.1226 -0.2990  0.5329
  305MOL0     C41046   7.440  10.001   3.107  0.5195 -0.3533 -0.4249
  305MOL0     C41047   7.395  10.135   3.068 -0.3079  0.2926 -0.3570
  305MOL0     O41048   7.268  10.159   3.030  0.2613 -0.5121 -0.6357
  305MOL0     C41049   7.164  10.093   3.103 -0.5113 -0.0648 -0.3807
  305MOL0     C41050   7.033  10.125   3.045 -0.8331  1.4484  0.1857
  305MOL0     C41051   6.922  10.083   3.132  0.8665  0.7508  0.0761
  305MOL0     C41052   6.890  10.189   3.245  0.3702 -0.3827  0.5296
  305MOL0     C41053   6.782  10.141   3.346  0.1751  0.8121  0.0749
  305MOL0     C41054   6.638  10.140   3.279  0.3247  0.4717  0.3697
  305MOL0     C41055   6.533  10.077   3.373 -0.1427  1.0694 -0.0665
  305MOL0     C41056   6.526   9.920   3.361 -0.4835  0.0123  0.5044
  305MOL0     N41057   6.489   9.896   3.218 -0.5854 -0.8908  0.6299
  305MOL0     C41058   6.562   9.825   3.122  0.0136  0.4407 -0.0803
  305MOL0     C41059   6.487   9.847   3.006 -0.0864 -0.0316  0.2223
  305MOL0     C41060   6.524   9.796   2.869  0.2538 -0.4039  0.1533
  305MOL0     C41061   6.449   9.851   2.748 -0.0979 -0.3336 -0.9071
  305MOL0     C41062   6.319   9.769   2.737  1.4119 -0.4783 -0.6981
  305MOL0     C41063   6.236   9.817   2.619 -0.5893  0.8232 -0.9932
  305MOL0     O41064   6.216   9.954   2.633  0.4995  0.7601 -0.3842
  305MOL0     C41065   6.143  10.012   2.538  1.2801 -0.7873  0.2717
  305MOL0     C41066   6.034   9.945   2.468 -0.3737 -0.1442 -0.1166
  305MOL0     C41067   5.949  10.013   2.392  0.0452  0.0549 -0.4586
  305MOL0     C41068   5.837   9.929   2.331  0.0221  0.6863  0.3478
  305MOL0     C41069   5.961  10.150   2.378 -0.8802 -0.3658  0.0424
  305MOL0     C41070   5.874  10.221   2.273 -0.4741  0.1383 -0.5122
  305MOL0     O41071   5.931  10.327   2.203 -0.0559 -0.3377  0.0766
  305MOL0     C41072   5.863  10.383   2.104  0.3535  0.0120  0.0310
  305MOL0     C41073   5.911  10.346   1.982  0.0216 -0.0489 -0.4679
  305MOL0     C41074   5.849  10.384   1.871  0.2081 -0.0824  0.0422
  305MOL0     C41075   5.740  10.477   1.878 -0.5108  0.0196  0.2064
  305MOL0     O41076   5.678  10.511   1.769 -0.1310 -0.4562  1.0802
  305MOL0     C41077   5.551  10.584   1.771 -0.3225  0.2453  0.0961
  305MOL0     C41078   5.481  10.570   1.633  0.3470  0.5212 -0.0987
  305MOL0     C41079   5.341  10.633   1.626  0.4064  0.0914  0.4307
  305MOL0     C41080   5.299  10.625   1.485 -0.4630  0.0289  0.1477
  305MOL0     C41081   5.161  10.667   1.473  0.0777 -0.3924 -0.1487
  305MOL0     C41082   5.109  10.629   1.331 -0.0274 -0.6978 -0.8629
  305MOL0     C41083   4.982  10.704   1.286  0.1781  0.9508 -0.0758
  305MOL0     C41084   4.918  10.651   1.154 -0.7354  0.2787  0.6360
  305MOL0    Cl41085   4.862  10.477   1.185  0.0664 -0.1643  0.1572
  305MOL0     C41086   5.694  10.516   2.011  0.5861  0.5623  0.5034
  305MOL0     C41087   5.748  10.462   2.121 -0.1129 -0.0158  0.7957
  305MOL0     O41088   5.752  10.195   2.275 -0.3695  0.0908 -0.0549
  305MOL0     C41089   6.065  10.225   2.437  0.2035 -0.2646  0.2389
  305MOL0     C41090   6.154  10.150   2.521  0.4202 -0.3222 -0.0438
  305MOL0     N41091   6.363   9.901   3.043 -0.2013 -0.1360 -0.2909
  305MOL0     N41092   6.367   9.933   3.169 -0.3820  0.2039 -0.4396
  305MOL0     C41093   7.482  10.236   3.072 -0.3894 -0.3570  0.1395
  305MOL0     C41094   7.618  10.221   3.118  0.6008  0.9845  0.2211
  305MOL0     C41095   7.932  10.074   3.404  0.4422  0.9719  0.2645
  305MOL0     C41096   8.046  10.047   3.325  0.6030 -0.2368 -1.2558
  305MOL0     C41097   8.180  10.063   3.382 -0.2720 -0.5304  0.1030
  305MOL0     C41098   8.197  10.075   3.521 -0.5196 -0.3223 -0.4209
  305MOL0     O41099   8.338  10.078   3.556  0.5942 -0.5167 -0.1029
  305MOL0     C41100   8.373  10.127   3.684 -0.2284  0.2764 -0.3740
  305MOL0     C41101   8.474  10.037   3.753 -0.0243  0.7675 -0.2238
  305MOL0     C41102   8.615  10.054   3.695  0.4576 -0.0146  0.3044
  305MOL0     C41103   8.715   9.993   3.801 -0.0245 -0.7706  0.4035
  305MOL0     C41104   8.844  10.043   3.764 -0.4227  0.1626 -0.0396
  305MOL0     C41105   8.947  10.098   3.735  0.7623 -0.0913 -0.2863
  305MOL0     C41106   8.086  10.080   3.603 -0.1368  0.5389 -0.4513
  305MOL0     C41107   7.957  10.087   3.542  0.4441  0.0060  0.5467
  305MOL0     H41108   7.607   9.891   3.186  0.1277 -0.6532 -0.8528
  305MOL0     H41109   7.379   9.913   3.093 -2.2718  1.4404 -0.3850
  305MOL0     H41110   7.173   9.984   3.098  1.7397 -0.3348  4.4144
  305MOL0     H41111   7.168  10.126   3.207  0.7117 -1.4987  0.0562
  305MOL0     H41112   7.027  10.234   3.035 -0.7118  1.4427  0.0571
  305MOL0     H41113   7.028  10.091   2.941 -0.9572  2.9463 -0.3262
  305MOL0     H41114   6.837  10.043   3.076  0.2987 -3.6557  3.5545
  305MOL0     H41115   6.949   9.987   3.175 -0.2403 -0.4266 -1.7144
  305MOL0     H41116   6.978  10.210   3.305 -0.8159  0.6188  1.9968
  305MOL0     H41117   6.867  10.286   3.199  0.5479 -0.0612  1.1178
  305MOL0     H41118   6.809  10.041   3.383 -4.2685 -0.1876  1.2167
  305MOL0     H41119   6.792  10.208   3.432  4.0586 -0.8251  1.0919
  305MOL0     H41120   6.609  10.245   3.269 -0.5255  0.0784 -2.0722
  305MOL0     H41121   6.626  10.107   3.175 -2.2622  0.3862  0.6356
  305MOL0     H41122   6.563  10.103   3.475  0.2918 -0.4350  0.2076
  305MOL0     H41123   6.434  10.123   3.365 -1.3023 -1.1015  0.9411
  305MOL0     H41124   6.447   9.894   3.433  0.8885  0.6137  2.3080
  305MOL0     H41125   6.618   9.868   3.390 -1.4521 -1.5820  0.8080
  305MOL0     H41126   6.656   9.772   3.126 -0.9372 -1.5427 -2.0279
  305MOL0     H41127   6.630   9.817   2.853  0.4109 -1.5713 -0.4642
  305MOL0     H41128   6.524   9.686   2.870 -2.0804 -0.4678 -0.4559
  305MOL0     H41129   6.519   9.841   2.665  2.7830  2.9875  0.8267
  305MOL0     H41130   6.427   9.958   2.750  0.6281 -0.1834 -0.7663
  305MOL0     H41131   6.264   9.785   2.830  0.9571  0.1850 -1.0771
  305MOL0     H41132   6.329   9.660   2.729 -2.8993 -0.9328 -2.8951
  305MOL0     H41133   6.139   9.765   2.622  0.8733 -2.0606  0.6181
  305MOL0     H41134   6.282   9.789   2.524  1.3589 -0.5981  0.2969
  305MOL0     H41135   6.017   9.840   2.492 -3.1066  0.4622  0.9861
  305MOL0     H41136   5.760   9.912   2.406  0.1600 -0.3415  0.2618
  305MOL0     H41137   5.788   9.972   2.243  0.3115 -2.0922 -1.2939
  305MOL0     H41138   5.879   9.839   2.284  1.6832  0.7088  1.6680
  305MOL0     H41139   5.996  10.280   1.974 -0.5378 -0.8562  0.0976
  305MOL0     H41140   5.873  10.335   1.777  4.1037  0.3165  0.6625
  305MOL0     H41141   5.488  10.533   1.845  0.5830 -0.7968  0.1906
  305MOL0     H41142   5.578  10.687   1.793 -1.1626  0.6002 -0.5173
  305MOL0     H41143   5.542  10.617   1.556 -0.9992  1.5518 -0.5713
  305MOL0     H41144   5.466  10.464   1.611  0.1369  0.6196 -0.4279
  305MOL0     H41145   5.331  10.733   1.669  1.4294 -0.5806  2.3141
  305MOL0     H41146   5.265  10.572   1.676 -1.0626  0.7171 -0.9295
  305MOL0     H41147   5.361  10.693   1.426  0.1295  2.4228  3.2690
  305MOL0     H41148   5.318  10.525   1.447  1.5166  0.2048  0.5753
  305MOL0     H41149   5.141  10.773   1.491  2.3636  0.3135 -1.4160
  305MOL0     H41150   5.095  10.610   1.539  0.2072 -1.0928 -0.6186
  305MOL0     H41151   5.190  10.647   1.259  0.6492  0.2884  0.1013
  305MOL0     H41152   5.080  10.524   1.337  0.4575 -0.7382  1.5476
  305MOL0     H41153   5.007  10.811   1.284 -3.2766  1.8708  0.1336
  305MOL0     H41154   4.898  10.692   1.355 -1.6818  0.2094 -2.3421
  305MOL0     H41155   4.992  10.652   1.073 -0.2360  0.0573  1.0832
  305MOL0     H41156   4.836  10.715   1.120 -2.5485 -1.7731  0.9666
  305MOL0     H41157   5.611  10.583   2.034 -0.1571 -0.0137 -0.4465
  305MOL0     H41158   5.704  10.491   2.215 -2.4206  1.5850 -0.6664
  305MOL0     H41159   6.077  10.332   2.419  1.5947 -0.2806  0.9703
  305MOL0     H41160   6.236  10.212   2.555  0.4809 -1.1229  1.3368
  305MOL0     H41161   7.449  10.337   3.049  0.9398 -0.3230 -1.8483
  305MOL0     H41162   7.695  10.298   3.122  3.6812 -1.7257 -1.5385
  305MOL0     H41163   8.033  10.046   3.217  0.1287  5.0518 -1.5513
  305MOL0     H41164   8.265  10.050   3.316 -1.7592 -3.4791 -1.4287
  305MOL0     H41165   8.423  10.225   3.673  1.4663  0.2503  4.5976
  305MOL0     H41166   8.288  10.148   3.750 -2.4411 -3.3363 -1.8158
  305MOL0     H41167   8.439   9.934   3.739  0.5761  0.4845  0.3112
  305MOL0     H41168   8.478  10.056   3.860  1.8164 -1.8438  0.2653
  305MOL0     H41169   8.631  10.162   3.689  1.7423 -0.2443 -0.9749
  305MOL0     H41170   8.637  10.015   3.595  0.4409  0.6406  0.0366
  305MOL0     H41171   8.705   9.887   3.775 -0.1986 -1.0604  1.6020
  305MOL0     H41172   8.691  10.015   3.905 -3.8176  1.0787 -0.6855
  305MOL0     H41173   9.039  10.149   3.714  1.4901 -0.3243  2.0377
  305MOL0     H41174   8.091  10.092   3.711  0.5421  2.9364 -0.6902
  305MOL0     H41175   7.878  10.079   3.616  0.1365 -1.2194  0.1137
  306MOL0     O41176   5.638   1.167   0.191 -0.7998 -0.6385  0.2749
  306MOL0     C41177   5.588   1.096   0.101 -0.7554 -0.3031 -0.3479
  306MOL0     O41178   5.463   1.063   0.091 -0.0014  0.5720 -0.5644
  306MOL0     C41179   5.379   1.106   0.193 -0.6988  0.2404  0.2091
  306MOL0     C41180   5.354   1.240   0.217 -0.3737  0.0708  0.6143
  306MOL0     C41181   5.268   1.280   0.312  0.2960 -0.8943 -0.5120
  306MOL0     C41182   5.189   1.190   0.387 -0.1055 -0.1999  0.4335
  306MOL0     O41183   5.100   1.224   0.487  0.2687  0.7800  0.5011
  306MOL0     C41184   5.038   1.125   0.568  0.2654 -0.8608 -0.5836
  306MOL0     C41185   4.972   1.202   0.687  0.6641 -0.7537 -0.9282
  306MOL0     C41186   4.891   1.117   0.791  0.7888 -0.5413 -0.2444
  306MOL0     C41187   4.794   1.192   0.887 -0.9034  0.0895  0.1863
  306MOL0     C41188   4.732   1.100   0.991  0.2394 -0.2480 -0.3928
  306MOL0     C41189   4.635   1.188   1.070 -0.6053  0.1844  0.5632
  306MOL0     C41190   4.501   1.202   0.994  0.9652  0.0847 -0.0548
  306MOL0     C41191   4.386   1.263   1.088  0.3560  0.3382  0.2291
  306MOL0     N41192   4.380   1.187   1.217 -0.1636 -0.0524 -1.3410
  306MOL0     C41193   4.327   1.062   1.243 -0.4935 -0.2439 -0.0485
  306MOL0     C41194   4.346   1.039   1.379 -0.0623  0.2853  0.5637
  306MOL0     C41195   4.296   0.928   1.469  0.5378 -0.3035 -0.6929
  306MOL0     C41196   4.142   0.937   1.475  0.1421 -0.2939 -0.0573
  306MOL0     C41197   4.091   0.849   1.590  0.4078  0.0438 -0.5366
  306MOL0     C41198   3.942   0.879   1.637  0.1606  0.1925 -0.8034
  306MOL0     O41199   3.877   0.764   1.678  0.1563  0.1447  0.4219
  306MOL0     C41200   3.751   0.770   1.713  0.9632 -0.6842 -0.6137
  306MOL0     C41201   3.662   0.879   1.706 -0.2565  0.4641  0.4886
  306MOL0     C41202   3.524   0.866   1.738  0.3783 -0.0467  0.0515
  306MOL0     C41203   3.443   0.994   1.732 -1.3456  0.2703 -0.2076
  306MOL0     C41204   3.468   0.742   1.787  0.1750 -0.1011 -0.2181
  306MOL0     C41205   3.327   0.715   1.795  0.5559 -0.3474 -1.3446
  306MOL0     O41206   3.279   0.591   1.742 -0.6199 -0.0323  0.2580
  306MOL0     C41207   3.140   0.558   1.748 -0.4661 -0.1772  0.1534
  306MOL0     C41208   3.033   0.643   1.723  0.1666 -0.0497 -0.1157
  306MOL0     C41209   2.900   0.602   1.714  0.6218  0.1683 -0.5850
  306MOL0     C41210   2.869   0.465   1.725  0.3737  0.2075  0.0143
  306MOL0     O41211   2.740   0.422   1.701  0.7992  0.2549 -0.2281
  306MOL0     C41212   2.661   0.489   1.600 -0.3916  0.3324  0.6648
  306MOL0     C41213   2.558   0.383   1.546 -0.3152 -0.5362  0.4159
  306MOL0     C41214   2.452   0.452   1.459  0.7784 -0.0415 -0.0351
  306MOL0     C41215   2.355   0.346   1.397 -0.1375 -0.0432 -0.8504
  306MOL0     C41216   2.228   0.413   1.347 -0.1362  0.7720 -0.9265
  306MOL0     C41217   2.140   0.312   1.268 -0.3844 -0.5953  0.2654
  306MOL0     C41218   2.012   0.378   1.228  0.8855 -0.2838 -0.2469
  306MOL0     C41219   1.940   0.298   1.120  0.3392  0.5265 -0.6345
  306MOL0    Cl41220   1.878   0.132   1.163 -0.6655  0.1912 -0.4511
  306MOL0     C41221   2.977   0.373   1.750 -0.0434 -0.6781  1.1208
  306MOL0     C41222   3.107   0.421   1.760 -0.1101  0.0182  0.2804
  306MOL0     O41223   3.265   0.789   1.863 -0.7923  0.4895  0.1411
  306MOL0     C41224   3.558   0.639   1.793 -0.2507  0.1962  0.3288
  306MOL0     C41225   3.692   0.647   1.762  0.0292  0.2355 -0.2007
  306MOL0     N41226   4.415   1.153   1.423  0.8278 -0.0606  0.4715
  306MOL0     N41227   4.439   1.232   1.329  0.4004 -0.8993  0.1204
  306MOL0     C41228   5.211   1.056   0.359  0.4564 -0.0831 -0.9246
  306MOL0     C41229   5.303   1.011   0.263 -0.8946 -0.2123  0.3564
  306MOL0     C41230   5.675   1.070  -0.009 -0.7603 -0.6856  0.5606
  306MOL0     C41231   5.797   1.137  -0.027  0.0709 -0.3590 -0.2079
  306MOL0     C41232   5.869   1.100  -0.139  0.0068 -0.4521 -0.0416
  306MOL0     C41233   5.819   1.026  -0.240 -1.4998  0.2663  0.5239
  306MOL0     O41234   5.894   1.017  -0.360  0.3025 -0.1167 -0.3184
  306MOL0     C41235   5.911   0.879  -0.397  0.1246  0.2781 -0.8952
  306MOL0     C41236   6.058   0.862  -0.409  0.2871 -0.4419  0.1604
  306MOL0     C41237   6.124   0.889  -0.270  0.5266 -0.6937  0.3729
  306MOL0     C41238   6.279   0.866  -0.269 -0.1905 -0.1141  0.1301
  306MOL0     C41239   6.351   0.957  -0.363 -0.0640  0.0344 -0.2999
  306MOL0     C41240   6.424   1.029  -0.425  0.4416 -0.5253 -1.0658
  306MOL0     C41241   5.686   0.974  -0.227  0.3442 -0.5178  0.4549
  306MOL0     C41242   5.616   0.989  -0.109 -0.0309  0.1272 -0.1181
  306MOL0     H41243   5.420   1.313   0.170  0.9670 -0.1491  2.0833
  306MOL0     H41244   5.247   1.383   0.339 -1.5226 -0.8311 -1.9449
  306MOL0     H41245   4.970   1.059   0.514  0.7634 -2.2855  0.4600
  306MOL0     H41246   5.116   1.060   0.609 -0.7284 -2.4867 -1.2030
  306MOL0     H41247   5.056   1.248   0.740 -0.6675  0.3712  0.2548
  306MOL0     H41248   4.918   1.288   0.648  0.2617 -0.5604  0.0405
  306MOL0     H41249   4.824   1.045   0.743  0.7579 -0.6009 -0.1121
  306MOL0     H41250   4.969   1.073   0.854  0.9804  2.2728  1.6210
  306MOL0     H41251   4.853   1.274   0.931  0.6446 -0.0986 -1.4033
  306MOL0     H41252   4.718   1.229   0.818 -0.7615  0.0413  0.0030
  306MOL0     H41253   4.695   1.010   0.941 -0.7587  0.5374 -1.1187
  306MOL0     H41254   4.808   1.061   1.059  0.5292  0.2051 -0.4544
  306MOL0     H41255   4.626   1.142   1.169 -2.9220  0.2808  0.4435
  306MOL0     H41256   4.675   1.290   1.078  0.6255 -0.0890 -1.3579
  306MOL0     H41257   4.511   1.257   0.901 -2.1237  0.4346 -0.2986
  306MOL0     H41258   4.464   1.103   0.964 -1.2337  0.7949  0.0954
  306MOL0     H41259   4.291   1.259   1.034 -1.0033  0.1463  2.5204
  306MOL0     H41260   4.414   1.364   1.120  0.0515  0.2144  0.8963
  306MOL0     H41261   4.274   0.997   1.174 -1.9828  0.6632  0.1894
  306MOL0     H41262   4.315   0.832   1.421 -1.8331 -0.4451 -1.4788
  306MOL0     H41263   4.347   0.935   1.565 -1.1324  1.0887  0.1472
  306MOL0     H41264   4.105   0.914   1.374 -0.3637  1.2782 -0.2581
  306MOL0     H41265   4.105   1.038   1.494 -2.6287 -1.1625 -0.3645
  306MOL0     H41266   4.163   0.868   1.670  2.5421 -0.2873 -2.2884
  306MOL0     H41267   4.105   0.743   1.564 -2.0187  0.2642 -3.1600
  306MOL0     H41268   3.884   0.923   1.555 -0.0831  1.4302  0.0024
  306MOL0     H41269   3.941   0.968   1.701  0.4735  1.0278 -1.9175
  306MOL0     H41270   3.688   0.983   1.691 -0.2729  0.2714 -0.9801
  306MOL0     H41271   3.335   0.980   1.723 -1.4730 -0.9474  2.3159
  306MOL0     H41272   3.470   1.040   1.827  1.5030 -0.3989 -0.6142
  306MOL0     H41273   3.485   1.059   1.655  0.9483 -0.6114  0.2236
  306MOL0     H41274   3.046   0.748   1.697 -1.3628 -0.0878 -1.1115
  306MOL0     H41275   2.816   0.665   1.688 -0.4989 -1.3862 -0.8890
  306MOL0     H41276   2.608   0.576   1.639  0.7758  0.3537  2.3116
  306MOL0     H41277   2.734   0.524   1.527  1.3626 -0.9985  1.6869
  306MOL0     H41278   2.616   0.305   1.497  3.8741  1.7989  1.1750
  306MOL0     H41279   2.503   0.344   1.633  0.9389  0.2565  1.6189
  306MOL0     H41280   2.487   0.517   1.378  2.8277 -0.4704  0.4493
  306MOL0     H41281   2.394   0.525   1.515  1.7806  1.1499 -0.4939
  306MOL0     H41282   2.409   0.298   1.315 -1.3969  1.3962 -2.6232
  306MOL0     H41283   2.321   0.269   1.467 -2.1782  1.1114 -0.4959
  306MOL0     H41284   2.250   0.498   1.281  2.1454  2.0476  1.2898
  306MOL0     H41285   2.170   0.452   1.431 -1.9826 -0.5120 -1.5403
  306MOL0     H41286   2.204   0.285   1.183 -2.0499 -2.6560 -0.3930
  306MOL0     H41287   2.119   0.219   1.321  1.6083  0.7150  3.6974
  306MOL0     H41288   2.030   0.476   1.183 -2.4349  0.9950  0.8606
  306MOL0     H41289   1.945   0.391   1.314 -3.2983 -2.0999 -2.8619
  306MOL0     H41290   2.015   0.297   1.041  1.5163 -1.1079  0.4345
  306MOL0     H41291   1.855   0.361   1.090 -1.5031 -1.7330 -0.4247
  306MOL0     H41292   2.968   0.265   1.753 -0.5948 -0.6498  0.6457
  306MOL0     H41293   3.188   0.349   1.770  0.1134  0.1626 -0.4783
  306MOL0     H41294   3.531   0.542   1.833 -0.2151  0.7966  1.8700
  306MOL0     H41295   3.755   0.560   1.774  1.3830  1.2395  0.1267
  306MOL0     H41296   5.165   0.973   0.412 -1.7408  0.2770 -2.1884
  306MOL0     H41297   5.310   0.904   0.248 -0.9672  0.0260 -1.5864
  306MOL0     H41298   5.846   1.220   0.022  0.3587 -0.3538 -0.4998
  306MOL0     H41299   5.974   1.123  -0.154 -0.3751  0.0874 -2.1933
  306MOL0     H41300   5.873   0.813  -0.319  2.3544 -0.3805 -0.2834
  306MOL0     H41301   5.863   0.853  -0.492  1.0146 -0.7335 -1.0893
  306MOL0     H41302   6.103   0.931  -0.480  0.7669  0.0188  0.8906
  306MOL0     H41303   6.091   0.768  -0.454  1.7423  0.3783 -0.5805
  306MOL0     H41304   6.077   0.825  -0.195 -1.7534  0.9592  0.4491
  306MOL0     H41305   6.114   0.993  -0.238 -1.8834  0.1269 -2.6074
  306MOL0     H41306   6.289   0.762  -0.304  0.4190 -0.5579  1.5668
  306MOL0     H41307   6.319   0.870  -0.168 -3.3047 -1.9170  1.5950
  306MOL0     H41308   6.470   1.102  -0.488 -3.5160  1.8091 -1.6068
  306MOL0     H41309   5.648   0.907  -0.302 -0.7561 -2.1061  2.3268
  306MOL0     H41310   5.521   0.941  -0.091 -0.0124  1.0916  3.0401
  307MOL0     O41311   6.595   4.352   3.253  0.6027 -0.2559  0.4291
  307MOL0     C41312   6.624   4.469   3.259  0.7395 -0.8042  0.0991
  307MOL0     O41313   6.536   4.579   3.268  0.6448 -1.0834  0.6014
  307MOL0     C41314   6.399   4.541   3.271  0.0513 -0.5917 -0.0002
  307MOL0     C41315   6.333   4.557   3.389 -0.5327 -0.3456 -0.4171
  307MOL0     C41316   6.204   4.520   3.401  0.1337 -0.1964  0.3355
  307MOL0     C41317   6.130   4.480   3.287 -0.1983 -0.1818 -0.0217
  307MOL0     O41318   5.994   4.447   3.290  0.0391 -0.1321  0.0272
  307MOL0     C41319   5.926   4.481   3.410  0.7139  0.6136  1.1589
  307MOL0     C41320   5.776   4.471   3.383 -0.0534  0.1728 -0.5985
  307MOL0     C41321   5.701   4.523   3.504 -0.2760  0.9824 -0.2298
  307MOL0     C41322   5.550   4.542   3.494  0.2937 -0.1485  0.6697
  307MOL0     C41323   5.477   4.569   3.630 -0.0232  0.0287 -0.4438
  307MOL0     C41324   5.322   4.538   3.636  0.7690  0.0535 -0.3258
  307MOL0     C41325   5.240   4.560   3.504  0.2903  0.1455 -0.1626
  307MOL0     C41326   5.096   4.525   3.534  0.3337 -0.0377  0.3252
  307MOL0     N41327   5.030   4.628   3.614  0.6710  0.3147  0.4214
  307MOL0     C41328   4.946   4.718   3.558 -0.2619  0.4497  0.0639
  307MOL0     C41329   4.877   4.773   3.664 -0.4061 -1.1666  0.5351
  307MOL0     C41330   4.775   4.880   3.639 -0.4198  0.4994  0.4503
  307MOL0     C41331   4.631   4.838   3.676 -0.1010  0.3130  0.4397
  307MOL0     C41332   4.551   4.842   3.539  0.0679 -0.3175  0.9766
  307MOL0     C41333   4.413   4.781   3.570 -0.6055  0.4490 -0.2844
  307MOL0     O41334   4.339   4.880   3.634  0.0204  0.5104 -0.6775
  307MOL0     C41335   4.212   4.868   3.684 -0.4292 -0.7423  0.1007
  307MOL0     C41336   4.152   4.976   3.743  0.7976 -1.0682 -0.1439
  307MOL0     C41337   4.014   4.988   3.768  0.1164 -0.0535  0.0788
  307MOL0     C41338   3.943   5.107   3.836  0.4309 -0.4190  0.2166
  307MOL0     C41339   3.938   4.868   3.742 -0.5571 -0.3250  0.7085
  307MOL0     C41340   3.792   4.867   3.752  0.0454  0.4357  0.1197
  307MOL0     O41341   3.734   4.744   3.777 -0.9333  0.2734 -0.1134
  307MOL0     C41342   3.611   4.748   3.834  0.3351 -0.0414 -0.4465
  307MOL0     C41343   3.587   4.787   3.961  0.3869  0.3207  0.0629
  307MOL0     C41344   3.457   4.784   4.015  0.1775 -0.3271 -0.6433
  307MOL0     C41345   3.349   4.737   3.943  0.3954  0.5690  0.1863
  307MOL0     O41346   3.222   4.732   3.991  0.3295 -0.6265 -0.4029
  307MOL0     C41347   3.207   4.687   4.124  0.0092 -0.7443 -0.8485
  307MOL0     C41348   3.117   4.561   4.137 -0.2138 -0.3562  0.4644
  307MOL0     C41349   2.974   4.592   4.096  0.5065 -0.0132 -0.2841
  307MOL0     C41350   2.943   4.668   3.968 -0.3760  0.1320  0.1084
  307MOL0     C41351   2.794   4.659   3.921 -0.3953 -0.1407  0.3633
  307MOL0     C41352   2.702   4.731   4.027 -1.0158  0.0733  0.6727
  307MOL0     C41353   2.559   4.742   3.965 -0.1562  0.5260  0.9967
  307MOL0     C41354   2.459   4.639   4.009  0.3551  0.0336 -0.3422
  307MOL0    Cl41355   2.488   4.485   3.922  0.2720  0.3747 -0.1342
  307MOL0     C41356   3.372   4.691   3.820  0.2301 -0.5695  0.2713
  307MOL0     C41357   3.504   4.698   3.764  0.3166  0.7754 -0.3953
  307MOL0     O41358   3.729   4.963   3.703  0.7265  0.1770  0.2359
  307MOL0     C41359   3.998   4.749   3.702 -0.2645  0.0618  0.5412
  307MOL0     C41360   4.137   4.752   3.672  0.0094  0.5642  0.3466
  307MOL0     N41361   4.918   4.703   3.774  0.1602  0.2224 -0.7177
  307MOL0     N41362   5.011   4.620   3.747 -0.3216 -0.6380 -0.6348
  307MOL0     C41363   6.190   4.483   3.163 -0.0872 -0.2666 -0.2023
  307MOL0     C41364   6.324   4.510   3.155 -0.1352  0.6188 -0.6867
  307MOL0     C41365   6.763   4.518   3.239  0.4975 -0.2491 -0.3100
  307MOL0     C41366   6.790   4.658   3.246  0.4918  0.1115  0.5835
  307MOL0     C41367   6.922   4.707   3.244  0.4528 -0.1755 -0.1399
  307MOL0     C41368   7.027   4.616   3.239 -0.5220 -0.5804  0.4095
  307MOL0     O41369   7.157   4.664   3.235  0.6929  0.3337  0.5556
  307MOL0     C41370   7.271   4.583   3.209 -0.5253  0.0931 -0.2374
  307MOL0     C41371   7.293   4.577   3.055 -0.0649 -0.1985  0.0259
  307MOL0     C41372   7.426   4.525   2.998  0.2151 -0.1275  0.1708
  307MOL0     C41373   7.546   4.613   2.987 -0.3966 -0.1765  0.7017
  307MOL0     C41374   7.666   4.541   2.939 -0.0909  0.3475  0.0184
  307MOL0     C41375   7.752   4.465   2.902 -0.0851  0.4105  0.2212
  307MOL0     C41376   7.002   4.480   3.218 -0.0474 -0.1797  0.0565
  307MOL0     C41377   6.868   4.430   3.217  0.0662 -1.0039  0.3353
  307MOL0     H41378   6.381   4.580   3.483 -1.8941  1.6930 -0.1463
  307MOL0     H41379   6.162   4.541   3.499  1.5136  1.5019  0.5979
  307MOL0     H41380   5.939   4.421   3.501 -2.4610 -0.6949  0.8571
  307MOL0     H41381   5.952   4.585   3.434  0.2252  0.7031  1.3215
  307MOL0     H41382   5.753   4.521   3.288  3.5999 -0.5837 -2.0358
  307MOL0     H41383   5.750   4.367   3.359  2.6838 -0.9050  0.7236
  307MOL0     H41384   5.714   4.446   3.581  0.5881  2.6099  1.3138
  307MOL0     H41385   5.743   4.620   3.532 -0.3830  0.5052  1.7777
  307MOL0     H41386   5.528   4.616   3.416  2.7086 -2.0815 -2.0524
  307MOL0     H41387   5.510   4.449   3.454  1.3413  0.5614 -2.2755
  307MOL0     H41388   5.514   4.497   3.704 -2.8139 -0.5462  0.5314
  307MOL0     H41389   5.498   4.671   3.663 -3.1673 -0.4614  3.9791
  307MOL0     H41390   5.307   4.435   3.670  1.8346  1.1243  3.9976
  307MOL0     H41391   5.276   4.596   3.717 -0.6301 -0.8169 -0.4511
  307MOL0     H41392   5.246   4.667   3.481  1.0144 -0.3171 -2.3666
  307MOL0     H41393   5.272   4.500   3.418 -3.9244 -1.1208 -1.0488
  307MOL0     H41394   5.091   4.428   3.584  2.1657 -1.5642 -2.2175
  307MOL0     H41395   5.044   4.512   3.439  2.1965 -0.3162 -0.7140
  307MOL0     H41396   4.949   4.731   3.451  0.0637 -1.3531 -0.1790
  307MOL0     H41397   4.804   4.954   3.714  2.8362 -0.3880  0.1883
  307MOL0     H41398   4.763   4.919   3.538 -1.3634 -2.1388 -0.5543
  307MOL0     H41399   4.593   4.917   3.741  1.4725  2.8965 -1.5667
  307MOL0     H41400   4.616   4.738   3.718  1.0554 -0.3055 -0.5480
  307MOL0     H41401   4.607   4.791   3.460  1.9733  2.7179  0.2007
  307MOL0     H41402   4.535   4.947   3.511 -2.1897 -0.6677  0.7551
  307MOL0     H41403   4.431   4.696   3.636 -0.8389  0.0469 -0.7338
  307MOL0     H41404   4.374   4.754   3.471  0.6167  2.6772 -1.4635
  307MOL0     H41405   4.206   5.069   3.757  0.1618 -0.7581  0.3183
  307MOL0     H41406   4.003   5.195   3.862 -0.1952 -0.3951  1.6686
  307MOL0     H41407   3.870   5.150   3.768  3.1272 -0.2446 -2.8343
  307MOL0     H41408   3.893   5.074   3.927 -0.3754 -0.4119 -0.2171
  307MOL0     H41409   3.665   4.832   4.022  1.5036 -1.3688 -0.0344
  307MOL0     H41410   3.440   4.817   4.117  0.2650 -1.5671 -0.2088
  307MOL0     H41411   3.305   4.674   4.169 -0.2368 -0.9642 -0.3670
  307MOL0     H41412   3.151   4.764   4.177  0.1101 -3.2024  3.2553
  307MOL0     H41413   3.160   4.481   4.076  1.8242  0.1782  1.1169
  307MOL0     H41414   3.117   4.531   4.242  1.0840  2.5864  1.4100
  307MOL0     H41415   2.935   4.650   4.180 -1.4130 -1.1101 -0.3770
  307MOL0     H41416   2.923   4.496   4.088  0.2448  0.2354 -2.0730
  307MOL0     H41417   2.964   4.771   3.996 -0.1060 -0.0792  0.6872
  307MOL0     H41418   3.020   4.640   3.895  2.7995  1.1824  2.8602
  307MOL0     H41419   2.759   4.556   3.916  0.0912 -0.2634 -1.8410
  307MOL0     H41420   2.782   4.701   3.820  2.9945 -1.6941 -0.8519
  307MOL0     H41421   2.708   4.687   4.127  1.4318  0.6215  0.8424
  307MOL0     H41422   2.746   4.830   4.043  0.5177 -0.6905  1.4037
  307MOL0     H41423   2.562   4.749   3.856 -1.2925 -1.0439  0.8232
  307MOL0     H41424   2.518   4.839   3.994 -3.6617 -0.0681 -1.3463
  307MOL0     H41425   2.359   4.674   3.983  0.0552  1.0676  1.9951
  307MOL0     H41426   2.462   4.616   4.116 -2.0254 -1.4188 -0.5263
  307MOL0     H41427   3.291   4.648   3.762  0.0042  0.8563 -0.5155
  307MOL0     H41428   3.535   4.652   3.671  0.1161 -1.5916  0.6498
  307MOL0     H41429   3.944   4.657   3.680  1.0955 -0.5505 -0.3517
  307MOL0     H41430   4.180   4.668   3.618  1.3237  2.8030 -2.3614
  307MOL0     H41431   6.135   4.459   3.073  0.5757 -3.1476  0.0580
  307MOL0     H41432   6.365   4.495   3.056 -0.8999  0.5188 -0.9965
  307MOL0     H41433   6.713   4.733   3.257  0.4702  0.4462 -1.5573
  307MOL0     H41434   6.936   4.814   3.244 -0.8463  0.0197 -0.6726
  307MOL0     H41435   7.363   4.616   3.257  0.7625 -1.2346 -1.6476
  307MOL0     H41436   7.242   4.484   3.246 -2.8987  0.8137 -0.0488
  307MOL0     H41437   7.277   4.681   3.024 -0.1191 -0.8468 -2.2870
  307MOL0     H41438   7.213   4.517   3.012 -1.0335  0.9370  0.1897
  307MOL0     H41439   7.405   4.485   2.898  0.0166  0.0142  0.1550
  307MOL0     H41440   7.449   4.437   3.058 -3.6010 -1.1426  0.4165
  307MOL0     H41441   7.569   4.661   3.083  0.6163 -0.0517  0.4112
  307MOL0     H41442   7.527   4.698   2.920  0.6410 -2.2482 -2.4039
  307MOL0     H41443   7.826   4.399   2.858 -0.1688  0.3778  0.1295
  307MOL0     H41444   7.070   4.399   3.196 -0.3790 -1.2501  2.6340
  307MOL0     H41445   6.853   4.324   3.202  0.3285 -0.9749 -0.1578
  308MOL0     O41446   8.722   1.879   7.556 -0.3384 -0.4394 -0.6060
  308MOL0     C41447   8.828   1.928   7.512  0.3018 -0.0528 -0.4716
  308MOL0     O41448   8.832   2.012   7.403 -0.6487  0.1710 -0.8235
  308MOL0     C41449   8.735   1.999   7.311  0.8338 -0.2328 -1.1513
  308MOL0     C41450   8.756   1.946   7.185  1.1874 -0.9385 -0.2160
  308MOL0     C41451   8.658   1.930   7.091 -1.4622  0.3693  0.2061
  308MOL0     C41452   8.530   1.960   7.131  0.0207 -0.0398 -0.0591
  308MOL0     O41453   8.417   1.927   7.054 -0.0745  0.3938 -0.2296
  308MOL0     C41454   8.439   1.950   6.913  0.5624  0.4663 -0.2669
  308MOL0     C41455   8.300   1.961   6.852 -0.1094  0.4300  0.1534
  308MOL0     C41456   8.242   2.100   6.870  0.4974  0.2616  0.2456
  308MOL0     C41457   8.108   2.100   6.800  0.1117  0.2053 -0.2091
  308MOL0     C41458   8.122   2.147   6.651 -0.2865 -0.6172 -0.4011
  308MOL0     C41459   7.979   2.158   6.585 -0.1196  0.5462 -0.7387
  308MOL0     C41460   7.920   2.010   6.569 -0.8128  0.2503  0.3924
  308MOL0     C41461   7.809   2.022   6.461 -0.0415  0.1695 -0.7597
  308MOL0     N41462   7.697   1.935   6.509  0.8071 -0.1391  0.2295
  308MOL0     C41463   7.622   1.840   6.438 -0.4185  0.0825  0.2389
  308MOL0     C41464   7.526   1.789   6.518 -0.7595 -0.2781  0.5708
  308MOL0     C41465   7.444   1.676   6.465 -0.4532 -0.2522 -0.2050
  308MOL0     C41466   7.305   1.720   6.425  0.2457 -0.4218 -0.2707
  308MOL0     C41467   7.212   1.741   6.557  0.1436 -0.7652  0.1723
  308MOL0     C41468   7.076   1.812   6.512 -0.4060  0.9042 -0.2348
  308MOL0     O41469   6.977   1.797   6.617  0.1292  0.4363 -0.9644
  308MOL0     C41470   6.843   1.811   6.592 -0.0137 -0.5191  0.6036
  308MOL0     C41471   6.744   1.736   6.653  0.1450  0.1883  0.1067
  308MOL0     C41472   6.609   1.776   6.632 -0.7604  0.5823  0.2435
  308MOL0     C41473   6.513   1.689   6.697  0.4216 -0.4676  0.4629
  308MOL0     C41474   6.579   1.885   6.544 -0.5646 -0.2056 -0.0499
  308MOL0     C41475   6.440   1.937   6.520 -0.4912 -0.1297  0.4616
  308MOL0     O41476   6.364   1.939   6.638  0.8310 -0.1540  0.9629
  308MOL0     C41477   6.232   1.995   6.630  0.3552 -0.1904 -0.2448
  308MOL0     C41478   6.132   1.937   6.696  1.1773  1.2847  0.1378
  308MOL0     C41479   6.007   1.998   6.700 -0.5461 -0.4445 -0.5132
  308MOL0     C41480   5.987   2.133   6.658  0.8535  0.0283  0.5615
  308MOL0     O41481   5.870   2.189   6.693  0.0504 -0.7658  0.9095
  308MOL0     C41482   5.853   2.335   6.674  0.6107 -0.4029 -0.0678
  308MOL0     C41483   5.715   2.376   6.726  0.4892  0.3394 -0.1440
  308MOL0     C41484   5.594   2.293   6.667 -1.2060  0.3765  0.6241
  308MOL0     C41485   5.463   2.348   6.733 -0.1340 -0.3427  0.5577
  308MOL0     C41486   5.328   2.281   6.705 -0.8910  0.0549 -0.1869
  308MOL0     C41487   5.320   2.143   6.778 -0.0372 -0.1654  0.2315
  308MOL0     C41488   5.169   2.109   6.808 -0.4429 -0.6719 -0.2097
  308MOL0     C41489   5.147   1.972   6.871 -0.3879 -0.3764 -0.5891
  308MOL0    Cl41490   4.971   1.941   6.885  0.1114  0.6693 -0.3749
  308MOL0     C41491   6.089   2.192   6.589  0.4660  0.3882  0.1981
  308MOL0     C41492   6.210   2.122   6.575  0.6115 -0.7535  0.3520
  308MOL0     O41493   6.400   1.975   6.407 -0.6517 -0.3799 -0.2909
  308MOL0     C41494   6.683   1.956   6.480  0.0170  0.0620  0.6124
  308MOL0     C41495   6.813   1.923   6.513 -0.0301  0.3067  0.3068
  308MOL0     N41496   7.529   1.863   6.637  0.1017  0.6509 -0.5601
  308MOL0     N41497   7.633   1.939   6.628  1.2387 -0.2724  0.3201
  308MOL0     C41498   8.497   2.003   7.258  0.6102  0.3614  0.4330
  308MOL0     C41499   8.603   2.031   7.346  0.2081  0.6220 -0.5643
  308MOL0     C41500   8.946   1.899   7.585 -1.2597  0.4962 -0.2198
  308MOL0     C41501   8.942   1.900   7.726 -0.9059  0.6781 -0.0726
  308MOL0     C41502   9.052   1.856   7.804 -0.0428  0.1866  0.4659
  308MOL0     C41503   9.173   1.823   7.739  0.5463 -0.8049 -0.0516
  308MOL0     O41504   9.284   1.798   7.822 -0.1568 -0.1435 -0.2406
  308MOL0     C41505   9.401   1.743   7.771  0.0085  0.2548 -0.3167
  308MOL0     C41506   9.490   1.734   7.895 -0.7887 -0.2737  0.0407
  308MOL0     C41507   9.544   1.875   7.948  0.1693  0.4692 -0.5060
  308MOL0     C41508   9.666   1.866   8.037  0.0124 -0.9734  0.7478
  308MOL0     C41509   9.716   1.993   8.088 -0.3155 -0.1773 -0.1121
  308MOL0     C41510   9.756   2.104   8.132  0.3295  0.4878  0.4775
  308MOL0     C41511   9.182   1.820   7.602 -0.1527 -0.7310  0.1267
  308MOL0     C41512   9.068   1.857   7.523  0.2887 -0.4977 -0.3244
  308MOL0     H41513   8.860   1.919   7.173  1.8896  0.2685  2.3204
  308MOL0     H41514   8.687   1.900   6.991 -1.4586  3.7422 -0.9266
  308MOL0     H41515   8.492   2.042   6.888 -0.3066  1.3364  0.9830
  308MOL0     H41516   8.497   1.864   6.879 -0.0719 -1.2844  2.7043
  308MOL0     H41517   8.321   1.949   6.745  1.1908 -3.1094  0.6819
  308MOL0     H41518   8.230   1.881   6.877 -0.3899  1.6064  3.5395
  308MOL0     H41519   8.213   2.127   6.972 -2.3892  0.1609 -0.4874
  308MOL0     H41520   8.314   2.178   6.841  0.3646  0.4574  0.4367
  308MOL0     H41521   8.052   2.006   6.801 -0.5140  0.5723  0.3088
  308MOL0     H41522   8.054   2.176   6.857  0.7613 -0.3579  1.2269
  308MOL0     H41523   8.161   2.249   6.645 -1.6789  0.0541  1.2246
  308MOL0     H41524   8.192   2.080   6.600 -0.9354 -1.5835 -0.0454
  308MOL0     H41525   7.905   2.214   6.643 -2.3358 -0.3598 -2.5447
  308MOL0     H41526   7.994   2.201   6.485  3.0167 -0.1468 -0.6617
  308MOL0     H41527   7.998   1.945   6.527  1.0062  0.8899  2.5689
  308MOL0     H41528   7.875   1.967   6.659 -3.1352  0.1822 -0.7416
  308MOL0     H41529   7.836   2.005   6.356 -0.2079 -0.0952 -0.7612
  308MOL0     H41530   7.763   2.120   6.452  1.7778  1.1301 -0.1075
  308MOL0     H41531   7.651   1.796   6.344 -0.1594  0.9272 -0.0879
  308MOL0     H41532   7.507   1.637   6.384  1.3605 -1.5175  1.6997
  308MOL0     H41533   7.455   1.596   6.539  3.1121 -2.0603 -2.3994
  308MOL0     H41534   7.264   1.638   6.365  2.9518 -2.0164 -0.0893
  308MOL0     H41535   7.300   1.807   6.359 -2.1030 -1.1786 -1.1957
  308MOL0     H41536   7.265   1.799   6.633 -1.4745  1.7441 -0.4846
  308MOL0     H41537   7.193   1.646   6.607 -1.0489 -0.7563 -0.2285
  308MOL0     H41538   7.046   1.756   6.424  0.2145 -2.2381  1.4105
  308MOL0     H41539   7.085   1.920   6.498  3.7254  1.0162  1.5987
  308MOL0     H41540   6.759   1.651   6.719 -0.4804 -0.6799 -0.8311
  308MOL0     H41541   6.560   1.590   6.704  0.8200 -0.3822 -0.7208
  308MOL0     H41542   6.493   1.734   6.795 -3.3725 -2.1123  0.6082
  308MOL0     H41543   6.424   1.679   6.634  2.6193  0.0872 -3.0331
  308MOL0     H41544   6.132   1.834   6.729  3.1426  0.5025 -1.9963
  308MOL0     H41545   5.922   1.944   6.740 -2.4434  2.7402  0.0462
  308MOL0     H41546   5.930   2.391   6.729  2.9554  0.4450 -3.8585
  308MOL0     H41547   5.869   2.354   6.568 -0.2749 -1.8431 -0.4804
  308MOL0     H41548   5.721   2.366   6.835  4.1265 -3.2897 -0.4258
  308MOL0     H41549   5.696   2.481   6.703 -2.1493 -0.2114 -0.8514
  308MOL0     H41550   5.599   2.184   6.676  0.5316  0.5345  2.1598
  308MOL0     H41551   5.594   2.321   6.561  2.7608  1.5664  0.7487
  308MOL0     H41552   5.474   2.349   6.842 -0.2101  0.3332  0.5660
  308MOL0     H41553   5.462   2.453   6.703  0.5948 -0.1531  1.1828
  308MOL0     H41554   5.316   2.255   6.599  3.2979  1.4438 -1.1830
  308MOL0     H41555   5.248   2.350   6.735  0.4874  1.4864  0.3409
  308MOL0     H41556   5.366   2.070   6.711  1.8095 -0.2763  1.5406
  308MOL0     H41557   5.383   2.138   6.868  1.1896  3.3121 -0.3012
  308MOL0     H41558   5.122   2.124   6.710 -0.6040 -0.6021 -0.1234
  308MOL0     H41559   5.126   2.182   6.878 -0.7444  1.5956 -2.5950
  308MOL0     H41560   5.183   1.964   6.974  2.0124  0.8094 -1.2603
  308MOL0     H41561   5.194   1.889   6.819  0.1085  0.6492 -1.8233
  308MOL0     H41562   6.077   2.292   6.549 -1.4510  1.2497  2.6725
  308MOL0     H41563   6.287   2.164   6.511 -2.3438  0.2140 -2.9494
  308MOL0     H41564   6.662   2.039   6.413 -1.8705  1.5927  2.9139
  308MOL0     H41565   6.889   1.990   6.475  1.5211 -1.7355 -0.3562
  308MOL0     H41566   8.392   2.016   7.282 -0.1318 -1.8675 -1.2109
  308MOL0     H41567   8.580   2.068   7.446  0.1016 -0.5118 -0.1593
  308MOL0     H41568   8.852   1.924   7.781  0.7160  2.6810  1.9024
  308MOL0     H41569   9.051   1.864   7.912 -1.6285  0.1778  0.4812
  308MOL0     H41570   9.375   1.643   7.735 -0.9641  1.1903 -2.3788
  308MOL0     H41571   9.439   1.795   7.682  1.2503 -1.0083 -0.5675
  308MOL0     H41572   9.570   1.670   7.860 -2.3417 -0.3184 -4.0072
  308MOL0     H41573   9.441   1.680   7.976  1.9285 -1.9780  0.6480
  308MOL0     H41574   9.463   1.928   8.000  0.3944  2.7297 -2.2742
  308MOL0     H41575   9.558   1.936   7.858 -0.9058 -0.4503 -1.3328
  308MOL0     H41576   9.752   1.819   7.989 -0.6619 -1.2001 -0.2585
  308MOL0     H41577   9.654   1.797   8.122 -0.4361 -2.6495 -0.5998
  308MOL0     H41578   9.789   2.199   8.167  0.6164  1.2687 -1.7636
  308MOL0     H41579   9.267   1.777   7.550 -0.7973 -1.6292 -0.2047
  308MOL0     H41580   9.077   1.864   7.415 -0.5570  1.3919 -0.3127
  309MOL0     O41581  10.243   1.540   0.083 -0.5110 -0.7408  0.0417
  309MOL0     C41582  10.324   1.495   0.170  1.0260 -0.1548  0.9035
  309MOL0     O41583  10.298   1.485   0.296 -0.6043  0.0889  0.2965
  309MOL0     C41584  10.167   1.491   0.324  0.5828  0.2614  0.1968
  309MOL0     C41585  10.081   1.380   0.321 -1.0462 -0.2516 -0.2244
  309MOL0     C41586   9.947   1.391   0.345 -0.6149 -0.0605 -0.8099
  309MOL0     C41587   9.892   1.515   0.373  0.2801  0.3478  0.0655
  309MOL0     O41588   9.755   1.533   0.386  0.0925 -0.3159 -0.1977
  309MOL0     C41589   9.692   1.591   0.274 -0.1550 -0.3950  0.3385
  309MOL0     C41590   9.552   1.541   0.245  0.4050  0.2580 -0.1127
  309MOL0     C41591   9.438   1.586   0.344  0.0507 -1.0172 -0.5307
  309MOL0     C41592   9.297   1.537   0.308  0.6593  0.4404 -0.4297
  309MOL0     C41593   9.190   1.603   0.408 -0.3990 -0.0385 -0.1756
  309MOL0     C41594   9.052   1.549   0.371 -0.4561  0.0384  0.2068
  309MOL0     C41595   8.955   1.628   0.463  0.2022  0.1418 -0.1421
  309MOL0     C41596   8.804   1.583   0.453 -0.0357 -0.0370 -0.2835
  309MOL0     N41597   8.719   1.648   0.553  0.4424  0.1295  0.2784
  309MOL0     C41598   8.707   1.781   0.571  0.1664 -0.1103  0.3377
  309MOL0     C41599   8.613   1.798   0.670 -0.0956  0.2293  0.1471
  309MOL0     C41600   8.569   1.927   0.737  0.9797  0.6588  0.9495
  309MOL0     C41601   8.592   1.918   0.883 -0.2530  0.5635 -0.5635
  309MOL0     C41602   8.503   2.015   0.959  0.0897  0.0244 -0.6219
  309MOL0     C41603   8.358   1.974   0.971 -0.2828 -0.2127 -0.6857
  309MOL0     O41604   8.303   2.061   1.071 -0.6824  0.0091  0.0814
  309MOL0     C41605   8.173   2.043   1.116 -0.0137  0.4023  0.8681
  309MOL0     C41606   8.090   1.925   1.107 -0.3445 -0.6409  0.2188
  309MOL0     C41607   7.970   1.922   1.173 -0.2115 -0.1242  0.4835
  309MOL0     C41608   7.903   1.778   1.175  0.2123 -0.5648  0.1671
  309MOL0     C41609   7.921   2.045   1.233  0.2917 -0.2429  0.6291
  309MOL0     C41610   7.783   2.068   1.282  0.4529 -0.3081 -0.0487
  309MOL0     O41611   7.761   2.195   1.332 -0.1821 -0.0108  0.1455
  309MOL0     C41612   7.640   2.216   1.380  0.4682  0.5557  0.3698
  309MOL0     C41613   7.628   2.226   1.521  0.8798 -0.3001  0.6804
  309MOL0     C41614   7.500   2.245   1.578 -0.6625 -0.2654  0.5150
  309MOL0     C41615   7.390   2.254   1.489  0.6765  1.2273  0.1705
  309MOL0     O41616   7.261   2.252   1.532  0.3269 -0.4237 -0.2065
  309MOL0     C41617   7.237   2.230   1.670  0.8955 -0.2179 -0.0274
  309MOL0     C41618   7.082   2.196   1.676  0.0669  0.5569 -0.1985
  309MOL0     C41619   7.050   2.074   1.586  0.3739  0.7219  0.4522
  309MOL0     C41620   6.907   2.026   1.614 -0.5053  0.7813  0.0906
  309MOL0     C41621   6.873   1.911   1.513  0.3365  0.6733  0.0830
  309MOL0     C41622   6.728   1.855   1.533 -0.1776  0.1816  0.0959
  309MOL0     C41623   6.686   1.760   1.415 -0.0709  0.0490  1.0852
  309MOL0     C41624   6.561   1.683   1.442  0.2443  0.6694  0.2985
  309MOL0    Cl41625   6.438   1.807   1.477  0.1279  0.0061 -0.0512
  309MOL0     C41626   7.408   2.261   1.353  0.1763 -0.5443 -0.0829
  309MOL0     C41627   7.528   2.231   1.296 -0.9190 -0.6244 -0.3205
  309MOL0     O41628   7.701   1.981   1.252 -0.0394  0.1790  0.2157
  309MOL0     C41629   8.011   2.157   1.238  0.4023 -0.5025  0.4164
  309MOL0     C41630   8.133   2.153   1.171  0.4439 -0.0460 -0.0148
  309MOL0     N41631   8.565   1.675   0.698 -0.3135 -0.0648  0.2182
  309MOL0     N41632   8.619   1.590   0.623 -0.4511 -0.0386  0.2875
  309MOL0     C41633   9.973   1.628   0.383  0.8294 -0.2926  0.2179
  309MOL0     C41634  10.111   1.616   0.361  0.8660  0.1314 -0.9589
  309MOL0     C41635  10.449   1.446   0.118 -0.2453  0.0859 -0.0842
  309MOL0     C41636  10.542   1.378   0.203  0.0781 -0.2555 -0.5052
  309MOL0     C41637  10.660   1.323   0.149 -0.4868 -0.0851  0.4344
  309MOL0     C41638  10.680   1.320   0.010  0.2299  0.5257  0.5691
  309MOL0     O41639  10.794   1.273  -0.049  0.1348  0.1079 -0.1257
  309MOL0     C41640  10.889   1.202   0.013  1.2650  0.6338 -0.1283
  309MOL0     C41641  10.994   1.302   0.067 -0.0936 -0.5175 -0.5796
  309MOL0     C41642  11.111   1.233   0.136 -0.7142  0.2405 -0.3996
  309MOL0     C41643  11.186   1.130   0.056  1.0667 -0.4861  0.0952
  309MOL0     C41644  11.303   1.075   0.123 -0.3274  0.0373  0.3099
  309MOL0     C41645  11.405   1.037   0.171 -0.1032 -0.5545 -0.1352
  309MOL0     C41646  10.585   1.379  -0.072  0.9486 -0.1451  0.2359
  309MOL0     C41647  10.473   1.447  -0.020 -0.7236 -0.3578  0.1949
  309MOL0     H41648  10.129   1.287   0.293 -3.0543 -1.5982  0.6089
  309MOL0     H41649   9.886   1.302   0.337 -0.4429 -0.2023 -0.5699
  309MOL0     H41650   9.685   1.700   0.282 -0.5872 -0.3399 -0.6826
  309MOL0     H41651   9.760   1.568   0.192 -2.3930 -0.7607 -1.5257
  309MOL0     H41652   9.524   1.561   0.142 -1.4968  2.1850  0.6838
  309MOL0     H41653   9.561   1.433   0.237 -0.4314  0.2579 -1.2545
  309MOL0     H41654   9.466   1.552   0.444  1.1842 -0.4022 -0.6221
  309MOL0     H41655   9.430   1.695   0.348 -1.6398 -1.1509  1.3343
  309MOL0     H41656   9.283   1.562   0.203  2.2787 -2.5971 -1.4626
  309MOL0     H41657   9.283   1.429   0.304 -0.3077  0.6034 -2.0954
  309MOL0     H41658   9.215   1.577   0.511  4.3237  1.1492 -0.7833
  309MOL0     H41659   9.193   1.712   0.398  1.2925 -0.1484 -1.2193
  309MOL0     H41660   9.029   1.583   0.270 -1.2958 -0.0400  0.3673
  309MOL0     H41661   9.040   1.441   0.384 -0.1688  0.0854  0.9115
  309MOL0     H41662   8.993   1.615   0.565 -0.0709  3.3460  0.4553
  309MOL0     H41663   8.963   1.736   0.448 -0.0339  0.1444 -0.2505
  309MOL0     H41664   8.796   1.475   0.467  3.2367 -0.8598 -3.3547
  309MOL0     H41665   8.771   1.607   0.351 -2.2170  0.6612  0.5235
  309MOL0     H41666   8.764   1.861   0.526  1.6761 -1.1350  0.3571
  309MOL0     H41667   8.635   2.000   0.689  1.1116  0.0758  0.2070
  309MOL0     H41668   8.463   1.945   0.720  0.2492  0.2704  4.5156
  309MOL0     H41669   8.697   1.940   0.903 -1.0862  1.9760  3.0117
  309MOL0     H41670   8.584   1.817   0.924 -0.3580  0.7348 -0.1564
  309MOL0     H41671   8.511   2.113   0.912 -1.3354  0.2763 -0.3853
  309MOL0     H41672   8.543   2.019   1.061 -1.2058 -0.5924 -0.0691
  309MOL0     H41673   8.361   1.873   1.014  0.2161  0.8153  1.8921
  309MOL0     H41674   8.305   1.970   0.876 -1.2148 -1.8767 -0.1366
  309MOL0     H41675   8.135   1.838   1.060  0.8166 -0.7026  1.4128
  309MOL0     H41676   7.978   1.703   1.151 -0.3450 -0.2338 -3.0541
  309MOL0     H41677   7.855   1.773   1.273 -3.5723  0.8142 -1.4042
  309MOL0     H41678   7.826   1.774   1.097  0.4437  0.5123 -0.1402
  309MOL0     H41679   7.717   2.213   1.582 -0.0248 -2.5178  1.6582
  309MOL0     H41680   7.495   2.264   1.685 -1.7136 -0.8943  0.5914
  309MOL0     H41681   7.291   2.150   1.720  0.8593 -1.2798 -1.6255
  309MOL0     H41682   7.266   2.324   1.717  2.6422  0.4578 -2.2900
  309MOL0     H41683   7.044   2.181   1.777  1.2701 -1.7353 -0.0274
  309MOL0     H41684   7.037   2.288   1.636  1.8776  1.4911 -0.2319
  309MOL0     H41685   7.114   1.986   1.597 -2.0413 -1.3515 -1.0328
  309MOL0     H41686   7.054   2.098   1.480 -0.7807  1.7997  0.6182
  309MOL0     H41687   6.907   1.980   1.714  0.2112 -1.2840 -0.8091
  309MOL0     H41688   6.836   2.108   1.604 -0.7679  0.3060 -2.8831
  309MOL0     H41689   6.947   1.831   1.519  0.0670  0.5286  2.2854
  309MOL0     H41690   6.877   1.948   1.410 -0.1029 -2.6577 -1.2457
  309MOL0     H41691   6.722   1.805   1.630 -1.6024 -0.3385 -0.2340
  309MOL0     H41692   6.664   1.943   1.543  0.3003  0.3456  2.1216
  309MOL0     H41693   6.763   1.682   1.414 -1.2869 -1.1775 -0.5107
  309MOL0     H41694   6.688   1.806   1.316  0.9873 -1.1229  0.5286
  309MOL0     H41695   6.570   1.619   1.531  1.8980  1.2488  0.5859
  309MOL0     H41696   6.520   1.617   1.365 -2.6763 -0.9940  3.0543
  309MOL0     H41697   7.332   2.282   1.278 -1.0481  2.0708  1.7608
  309MOL0     H41698   7.546   2.236   1.189  0.6743 -0.2129 -0.0642
  309MOL0     H41699   7.987   2.258   1.271  3.3547 -0.2811  2.2261
  309MOL0     H41700   8.194   2.242   1.156 -0.7674  0.9662  0.8929
  309MOL0     H41701   9.922   1.722   0.404  0.3098  0.1941 -2.7541
  309MOL0     H41702  10.180   1.700   0.360  1.1237 -0.0422  0.3266
  309MOL0     H41703  10.510   1.367   0.306  0.3480 -2.9357 -0.6388
  309MOL0     H41704  10.727   1.265   0.213  0.7940  0.3556 -0.4772
  309MOL0     H41705  10.846   1.149   0.099  1.8128 -0.5674 -0.5670
  309MOL0     H41706  10.918   1.123  -0.057  0.2264 -0.5140  0.6956
  309MOL0     H41707  10.949   1.375   0.135 -0.7561 -0.8260 -0.6799
  309MOL0     H41708  11.028   1.356  -0.022  0.4468  0.2062  0.0582
  309MOL0     H41709  11.079   1.186   0.229  0.7245 -1.7594 -0.8204
  309MOL0     H41710  11.186   1.310   0.156 -0.6715 -0.0960  0.7649
  309MOL0     H41711  11.234   1.188  -0.024 -0.2952  1.6363  0.7459
  309MOL0     H41712  11.120   1.051   0.020 -0.9567  0.2074  2.0293
  309MOL0     H41713  11.500   1.026   0.219  0.3032 -0.2545 -0.8573
  309MOL0     H41714  10.587   1.376  -0.180 -4.0214  0.0119 -0.1248
  309MOL0     H41715  10.410   1.498  -0.092  1.0436 -0.4516 -1.5128
  310MOL0     O41716   0.548   0.175   7.366  0.3819 -0.6075 -0.7004
  310MOL0     C41717   0.608   0.287   7.382  0.2617  0.2491  0.8274
  310MOL0     O41718   0.553   0.410   7.363 -0.2015 -0.1661 -0.3564
  310MOL0     C41719   0.446   0.423   7.275  0.9282  0.2523 -0.2954
  310MOL0     C41720   0.312   0.391   7.315 -1.0441 -0.5741  0.3243
  310MOL0     C41721   0.210   0.376   7.219 -0.2787 -0.1258  1.0774
  310MOL0     C41722   0.235   0.388   7.082 -0.7547 -0.2279 -0.5295
  310MOL0     O41723   0.144   0.349   6.985 -0.0921 -0.7275 -0.3246
  310MOL0     C41724   0.066   0.232   7.019 -0.4161 -0.2893  0.2438
  310MOL0     C41725  -0.017   0.189   6.892 -0.0876 -0.3150 -0.3485
  310MOL0     C41726   0.045   0.185   6.751 -0.1625 -0.7122 -0.3916
  310MOL0     C41727  -0.057   0.179   6.641 -0.6375  0.1643  0.3429
  310MOL0     C41728   0.016   0.194   6.504  0.5600  0.4012  0.3735
  310MOL0     C41729  -0.076   0.173   6.384  0.0804 -0.1450 -0.0016
  310MOL0     C41730  -0.203   0.260   6.399 -0.0484 -0.4335  0.5393
  310MOL0     C41731  -0.283   0.272   6.267  0.5671  0.1688 -0.5761
  310MOL0     N41732  -0.419   0.340   6.276 -0.6047  0.0984  0.2902
  310MOL0     C41733  -0.429   0.482   6.275  0.4393 -0.1038  0.7355
  310MOL0     C41734  -0.548   0.500   6.330 -0.2545 -0.5454 -0.6163
  310MOL0     C41735  -0.605   0.640   6.360 -0.2919  0.8367  0.1321
  310MOL0     C41736  -0.748   0.668   6.295  0.5142  0.6298 -0.3598
  310MOL0     C41737  -0.749   0.706   6.148 -0.5418 -0.0698 -0.0542
  310MOL0     C41738  -0.887   0.736   6.093 -0.4246  0.3203  0.6272
  310MOL0     O41739  -0.926   0.874   6.119 -0.0472 -0.2982 -0.1609
  310MOL0     C41740  -1.059   0.903   6.100 -0.1368 -0.4687 -0.4922
  310MOL0     C41741  -1.116   1.001   6.178 -0.3358 -0.3636 -0.1835
  310MOL0     C41742  -1.253   1.043   6.175 -0.4784  0.0652  0.3199
  310MOL0     C41743  -1.305   1.158   6.262  0.6448  0.1813 -0.3783
  310MOL0     C41744  -1.337   0.964   6.087  0.0351 -0.8106  0.1170
  310MOL0     C41745  -1.489   0.976   6.076 -0.0756  0.6282 -0.5356
  310MOL0     O41746  -1.557   0.865   6.027  0.1459  0.2493 -0.5680
  310MOL0     C41747  -1.684   0.853   6.043 -0.5035  0.1122  0.0824
  310MOL0     C41748  -1.740   0.755   6.124 -0.2088  0.9304  0.4883
  310MOL0     C41749  -1.869   0.726   6.120  0.5293 -0.6145 -0.4975
  310MOL0     C41750  -1.961   0.792   6.030 -0.2489  0.5133  0.2516
  310MOL0     O41751  -2.095   0.765   5.998 -0.3583 -0.1133 -0.7552
  310MOL0     C41752  -2.154   0.641   6.040 -0.1047  0.3988 -0.1161
  310MOL0     C41753  -2.220   0.578   5.919  0.1198  0.0462  0.6048
  310MOL0     C41754  -2.298   0.447   5.946  0.5406 -0.0028 -0.0032
  310MOL0     C41755  -2.409   0.419   5.839 -0.2398 -0.3972  0.5868
  310MOL0     C41756  -2.493   0.292   5.877 -0.7171 -1.1356  0.3154
  310MOL0     C41757  -2.599   0.342   5.983 -0.4616  0.1039  0.5676
  310MOL0     C41758  -2.714   0.240   5.984  0.6906  0.6053 -0.2252
  310MOL0     C41759  -2.828   0.265   6.079  0.1949  0.4414  0.3449
  310MOL0    Cl41760  -2.899   0.431   6.068  0.1897  0.1562  0.2832
  310MOL0     C41761  -1.906   0.881   5.948 -0.6263 -0.4029  0.1413
  310MOL0     C41762  -1.767   0.918   5.950 -0.3142  0.0044 -1.0552
  310MOL0     O41763  -1.548   1.073   6.129  0.1699  0.1763  0.3973
  310MOL0     C41764  -1.273   0.874   5.998  0.0731  0.1125 -0.6260
  310MOL0     C41765  -1.140   0.845   6.000 -0.2846 -0.5640  0.5001
  310MOL0     N41766  -0.611   0.385   6.362  0.8779 -0.1918 -0.0859
  310MOL0     N41767  -0.532   0.288   6.328 -0.1015  0.3808  0.0151
  310MOL0     C41768   0.367   0.424   7.047 -0.7510 -0.2662  0.4894
  310MOL0     C41769   0.473   0.448   7.139 -0.0427  0.8767  0.2258
  310MOL0     C41770   0.751   0.279   7.411  0.1264  0.3698 -0.0223
  310MOL0     C41771   0.813   0.159   7.449 -0.0836  0.4498  0.4318
  310MOL0     C41772   0.942   0.142   7.488 -0.8703 -0.2235  0.1365
  310MOL0     C41773   1.025   0.253   7.487 -1.5843 -0.0065 -0.0933
  310MOL0     O41774   1.164   0.250   7.519 -0.0153 -0.3725  0.1872
  310MOL0     C41775   1.218   0.117   7.544  0.5425  0.3554 -0.1920
  310MOL0     C41776   1.372   0.131   7.527  0.5786 -0.0465 -0.1698
  310MOL0     C41777   1.419   0.241   7.628  0.4811  0.5148 -0.4211
  310MOL0     C41778   1.573   0.246   7.648  0.0968  0.0903  0.3678
  310MOL0     C41779   1.612   0.201   7.783  0.1645  0.1575 -0.3323
  310MOL0     C41780   1.613   0.174   7.904 -1.2919 -0.2469 -0.0015
  310MOL0     C41781   0.975   0.379   7.445 -0.2218 -0.1131 -0.1642
  310MOL0     C41782   0.838   0.388   7.404  0.9422 -0.0586  0.3418
  310MOL0     H41783   0.288   0.358   7.416  3.1144 -0.4829  1.5212
  310MOL0     H41784   0.114   0.336   7.252  0.2614 -1.2370  1.3453
  310MOL0     H41785   0.136   0.152   7.044  0.8783  0.1526 -1.6791
  310MOL0     H41786  -0.006   0.252   7.099  0.1811  1.2806  0.4350
  310MOL0     H41787  -0.066   0.093   6.914 -1.6942  0.3708 -0.8166
  310MOL0     H41788  -0.101   0.259   6.886 -0.1887 -0.5379 -1.9220
  310MOL0     H41789   0.089   0.284   6.735 -0.7086 -0.0486  1.7800
  310MOL0     H41790   0.122   0.108   6.749  0.6261  0.0281  0.2026
  310MOL0     H41791  -0.108   0.083   6.643 -1.8087  0.7803  1.5761
  310MOL0     H41792  -0.135   0.255   6.653 -0.4018  0.1826  1.9714
  310MOL0     H41793   0.060   0.294   6.500  0.3832  0.5112  1.0019
  310MOL0     H41794   0.093   0.119   6.484  1.7892  1.7967 -0.3139
  310MOL0     H41795  -0.031   0.215   6.294 -1.5759  0.0655 -0.7669
  310MOL0     H41796  -0.093   0.067   6.367  1.4992 -0.2637 -0.8598
  310MOL0     H41797  -0.265   0.208   6.472 -2.8426  2.1638  0.1970
  310MOL0     H41798  -0.185   0.363   6.433 -1.0782 -0.4589  1.1818
  310MOL0     H41799  -0.285   0.171   6.224  1.9887 -1.5000  2.8540
  310MOL0     H41800  -0.215   0.331   6.205  2.1640 -2.7344 -1.7962
  310MOL0     H41801  -0.365   0.560   6.236  0.2091  0.1619  0.8801
  310MOL0     H41802  -0.620   0.635   6.468 -0.4103 -1.4593  0.0513
  310MOL0     H41803  -0.531   0.717   6.336  0.7629 -0.8208 -2.2806
  310MOL0     H41804  -0.795   0.744   6.358  0.6358  0.7722 -0.4393
  310MOL0     H41805  -0.810   0.580   6.312  0.7533  0.3307 -1.0175
  310MOL0     H41806  -0.715   0.623   6.086 -2.5483  0.2951 -1.7846
  310MOL0     H41807  -0.687   0.792   6.120  1.5402 -1.4140  0.1875
  310MOL0     H41808  -0.955   0.664   6.140  1.0178 -0.3961  1.6815
  310MOL0     H41809  -0.885   0.719   5.985  1.2111  0.7704  0.5572
  310MOL0     H41810  -1.048   1.039   6.254 -1.0768 -1.3017  0.9871
  310MOL0     H41811  -1.390   1.126   6.322  2.8096  1.1518  3.4944
  310MOL0     H41812  -1.225   1.176   6.334  1.0453  1.3466 -1.0948
  310MOL0     H41813  -1.330   1.241   6.195  1.2860 -0.1945 -1.1033
  310MOL0     H41814  -1.681   0.707   6.201 -3.5757 -0.9013  2.1736
  310MOL0     H41815  -1.920   0.656   6.185 -2.4074  0.3173 -1.6322
  310MOL0     H41816  -2.069   0.573   6.057 -0.2356  0.4189  0.6717
  310MOL0     H41817  -2.212   0.634   6.132 -0.7618 -0.3123 -0.5710
  310MOL0     H41818  -2.284   0.654   5.875 -0.7128 -0.5268  0.7931
  310MOL0     H41819  -2.145   0.553   5.843  0.1457 -5.5567  1.9812
  310MOL0     H41820  -2.353   0.458   6.040 -2.5151 -1.7736 -1.4466
  310MOL0     H41821  -2.220   0.371   5.956 -1.1148 -1.7524  0.1904
  310MOL0     H41822  -2.470   0.509   5.830 -0.2633 -0.5586 -1.2367
  310MOL0     H41823  -2.359   0.403   5.744  1.6653 -1.2284  1.6613
  310MOL0     H41824  -2.429   0.211   5.914  2.3533  0.3438 -1.3332
  310MOL0     H41825  -2.537   0.257   5.783  1.3070  1.4224 -1.7533
  310MOL0     H41826  -2.565   0.341   6.087 -0.7529  0.3882  0.6643
  310MOL0     H41827  -2.646   0.435   5.951 -2.0853 -0.3266  1.5896
  310MOL0     H41828  -2.671   0.149   6.025  1.9495  0.5952 -1.4793
  310MOL0     H41829  -2.754   0.215   5.885  5.2796 -1.1559 -1.8566
  310MOL0     H41830  -2.777   0.268   6.176  0.3171  1.6016  0.2592
  310MOL0     H41831  -2.903   0.187   6.071  0.1684  0.6409 -1.8629
  310MOL0     H41832  -1.970   0.924   5.872 -0.3700  1.7957  1.0859
  310MOL0     H41833  -1.735   0.994   5.880 -3.2513  1.8479 -0.5883
  310MOL0     H41834  -1.334   0.819   5.927 -0.2289 -0.3740 -0.0009
  310MOL0     H41835  -1.104   0.770   5.930  0.7589  1.2800 -1.0456
  310MOL0     H41836   0.389   0.435   6.941 -2.2533 -0.9956  0.0698
  310MOL0     H41837   0.561   0.495   7.098 -1.7861  1.4778 -3.1373
  310MOL0     H41838   0.748   0.072   7.453  0.4413  0.0191 -0.2443
  310MOL0     H41839   0.970   0.039   7.510  1.9247  0.5772  0.7931
  310MOL0     H41840   1.200   0.078   7.644  0.7503 -1.5682 -0.8676
  310MOL0     H41841   1.192   0.036   7.476  0.6930 -0.7136  0.9933
  310MOL0     H41842   1.404   0.168   7.429 -1.5353  3.8959  0.4244
  310MOL0     H41843   1.419   0.036   7.552  1.2610  0.4093  0.3308
  310MOL0     H41844   1.360   0.232   7.720 -1.2787  0.5230 -1.5158
  310MOL0     H41845   1.394   0.344   7.601  0.2443  1.0204  1.5504
  310MOL0     H41846   1.620   0.343   7.630  1.0665 -0.2019  1.2206
  310MOL0     H41847   1.620   0.179   7.576  0.4673  0.0575  0.6360
  310MOL0     H41848   1.615   0.152   8.009  1.6063  2.3875  0.6554
  310MOL0     H41849   1.033   0.470   7.443 -0.6223  0.1798  0.8334
  310MOL0     H41850   0.804   0.488   7.377  0.1231 -0.1575  0.9380
  311MOL0     O41851   1.852   2.306  10.702 -0.1006  0.2543  0.4703
  311MOL0     C41852   1.884   2.295  10.820  0.2977  0.6621 -0.7369
  311MOL0     O41853   1.805   2.219  10.911 -0.9847 -0.1918  0.8244
  311MOL0     C41854   1.720   2.134  10.850  0.3121  0.1610 -0.0038
  311MOL0     C41855   1.589   2.165  10.837  0.5238 -0.2826  0.1192
  311MOL0     C41856   1.512   2.080  10.755 -0.7083  0.1817 -0.0099
  311MOL0     C41857   1.564   1.965  10.691 -0.4308  1.2236 -0.4502
  311MOL0     O41858   1.498   1.884  10.597  0.0705  0.5895  0.2596
  311MOL0     C41859   1.364   1.909  10.556 -0.0116 -0.3561 -0.3574
  311MOL0     C41860   1.326   1.800  10.452 -1.0233 -0.1431 -0.2831
  311MOL0     C41861   1.182   1.818  10.393  1.0038  0.5098 -0.4952
  311MOL0     C41862   1.132   1.712  10.293 -0.0066  0.3414 -0.0423
  311MOL0     C41863   0.979   1.695  10.286  0.1650 -0.2270 -0.3453
  311MOL0     C41864   0.899   1.827  10.259  0.2649  0.6030 -0.6979
  311MOL0     C41865   0.758   1.790  10.233 -0.5092  0.3704 -0.3654
  311MOL0     C41866   0.671   1.909  10.193 -0.4008  0.6832 -0.1022
  311MOL0     N41867   0.547   1.848  10.146 -0.2386 -0.2703  0.0396
  311MOL0     C41868   0.469   1.754  10.214  0.0384  0.3251  0.3906
  311MOL0     C41869   0.352   1.750  10.136  0.3869  1.1960  0.1709
  311MOL0     C41870   0.232   1.660  10.155 -0.8208 -0.1482 -0.6525
  311MOL0     C41871   0.096   1.710  10.193 -0.4687  0.2808  0.3650
  311MOL0     C41872   0.032   1.821  10.102 -0.6504  0.1086 -0.3493
  311MOL0     C41873   0.024   1.772   9.957 -0.1815 -0.3238 -0.0585
  311MOL0     O41874  -0.035   1.639   9.946  0.7970  0.0076  0.2811
  311MOL0     C41875  -0.170   1.616   9.937  0.5190 -0.3324  0.7808
  311MOL0     C41876  -0.208   1.481   9.916  0.3131  0.4680  0.1717
  311MOL0     C41877  -0.341   1.443   9.897  0.1564 -0.4987  0.0893
  311MOL0     C41878  -0.369   1.291   9.886  0.0254 -0.1423  0.0757
  311MOL0     C41879  -0.444   1.543   9.899  0.1543 -0.2267  0.0129
  311MOL0     C41880  -0.590   1.514   9.902 -0.4400  0.8826 -0.1867
  311MOL0     O41881  -0.660   1.628   9.881 -0.7574  0.1427  0.2234
  311MOL0     C41882  -0.786   1.637   9.922 -0.1227  0.5438 -0.2620
  311MOL0     C41883  -0.884   1.565   9.850  0.1610 -0.1600 -1.0401
  311MOL0     C41884  -1.021   1.587   9.891  0.3560 -0.3426 -0.4795
  311MOL0     C41885  -1.060   1.668   9.998  0.3779  0.4280  0.1979
  311MOL0     O41886  -1.187   1.681  10.045  0.5024 -0.4727 -0.4909
  311MOL0     C41887  -1.289   1.697   9.942  0.9522  0.1327 -0.7379
  311MOL0     C41888  -1.390   1.577   9.949 -0.6368 -0.3164  0.3733
  311MOL0     C41889  -1.472   1.566   9.822  0.0187 -0.4184  0.2390
  311MOL0     C41890  -1.572   1.447   9.838  0.8425 -0.3102  0.3780
  311MOL0     C41891  -1.676   1.436   9.721  0.0787 -0.4756  0.5449
  311MOL0     C41892  -1.821   1.387   9.752 -0.2464 -0.1487  0.2691
  311MOL0     C41893  -1.908   1.487   9.825 -0.2940 -0.1807  0.9077
  311MOL0     C41894  -2.025   1.413   9.885 -0.2985  0.2859  0.5698
  311MOL0    Cl41895  -2.144   1.376   9.755 -0.2625  0.2628 -0.4723
  311MOL0     C41896  -0.952   1.722  10.072  0.3144 -0.1039  0.6605
  311MOL0     C41897  -0.815   1.704  10.040 -0.5917 -0.3544 -0.0539
  311MOL0     O41898  -0.634   1.406   9.930 -0.0858  0.2938  0.6497
  311MOL0     C41899  -0.398   1.678   9.916  0.8939  0.2957 -0.3189
  311MOL0     C41900  -0.265   1.714   9.928  0.4653 -0.1495 -0.1203
  311MOL0     N41901   0.367   1.829  10.027 -0.2401 -0.3021  0.6451
  311MOL0     N41902   0.482   1.889  10.035 -0.4774  0.4315 -0.1824
  311MOL0     C41903   1.692   1.929  10.720 -0.8579 -0.2820  0.6950
  311MOL0     C41904   1.771   2.014  10.797  0.3362  0.3410 -0.2988
  311MOL0     C41905   2.013   2.356  10.866 -0.7380  0.2119 -0.5366
  311MOL0     C41906   2.037   2.359  11.003 -0.1188  0.8063 -0.1755
  311MOL0     C41907   2.158   2.411  11.053  0.2494 -0.3686  0.0200
  311MOL0     C41908   2.251   2.468  10.975  0.1476  0.0516 -0.1446
  311MOL0     O41909   2.365   2.520  11.035  0.5895 -0.2853  0.3926
  311MOL0     C41910   2.464   2.576  10.947  0.7201  0.4619  0.6324
  311MOL0     C41911   2.575   2.629  11.026  0.5583  0.2215 -0.1242
  311MOL0     C41912   2.522   2.740  11.127  0.4045 -0.4460 -0.8443
  311MOL0     C41913   2.624   2.811  11.223 -0.0901  0.1627 -0.1873
  311MOL0     C41914   2.705   2.923  11.157  0.2808  0.1605 -0.4439
  311MOL0     C41915   2.739   3.027  11.114  0.2602  0.0722 -0.2350
  311MOL0     C41916   2.223   2.474  10.836  0.5222 -0.1393 -0.4953
  311MOL0     C41917   2.107   2.417  10.778 -0.3122  0.7577  0.0427
  311MOL0     H41918   1.557   2.254  10.889 -0.3913 -1.3327  1.4168
  311MOL0     H41919   1.407   2.108  10.743 -0.5209 -0.0409 -2.7151
  311MOL0     H41920   1.311   1.900  10.651  3.2876 -3.4458  1.4414
  311MOL0     H41921   1.357   2.008  10.511 -2.2699  0.1902  1.0542
  311MOL0     H41922   1.402   1.805  10.373 -2.0978  0.1216 -1.3236
  311MOL0     H41923   1.346   1.707  10.506  3.4613  0.9522  0.3748
  311MOL0     H41924   1.117   1.792  10.478  1.4538 -2.2462 -0.8836
  311MOL0     H41925   1.160   1.921  10.364  0.2052  0.2864 -0.7297
  311MOL0     H41926   1.167   1.738  10.193 -1.8988  0.3597 -0.7339
  311MOL0     H41927   1.175   1.613  10.311  0.2562  0.5881  0.7138
  311MOL0     H41928   0.962   1.625  10.203  2.8782 -1.4187  0.0032
  311MOL0     H41929   0.936   1.641  10.371 -0.5075  1.1688  0.2237
  311MOL0     H41930   0.895   1.888  10.349  0.5913  1.5003 -1.2773
  311MOL0     H41931   0.946   1.889  10.182  0.7429  1.0895 -0.0331
  311MOL0     H41932   0.755   1.724  10.147  0.7687  2.7296 -2.3428
  311MOL0     H41933   0.731   1.739  10.326  0.4484  1.4097  0.5182
  311MOL0     H41934   0.721   1.968  10.115 -0.2473  0.6100 -0.0608
  311MOL0     H41935   0.655   1.966  10.284 -1.9085  0.5643 -0.2768
  311MOL0     H41936   0.486   1.713  10.313  3.7141  0.8153  0.1029
  311MOL0     H41937   0.229   1.612  10.057  0.8144  1.1660 -1.3897
  311MOL0     H41938   0.251   1.590  10.236 -1.1130  1.4548  0.8598
  311MOL0     H41939   0.106   1.751  10.294  2.6467  1.8015 -0.4385
  311MOL0     H41940   0.026   1.626  10.191 -0.8159  0.5748 -0.5658
  311MOL0     H41941   0.093   1.910  10.116  0.0568 -0.6368  1.5673
  311MOL0     H41942  -0.070   1.841  10.136 -0.4736 -1.8822  1.5666
  311MOL0     H41943   0.120   1.775   9.906 -0.0918  2.7548  0.0608
  311MOL0     H41944  -0.042   1.835   9.897 -1.9638  0.2803  2.3539
  311MOL0     H41945  -0.135   1.401   9.908 -0.9043 -0.5729 -1.1756
  311MOL0     H41946  -0.435   1.274   9.800  3.3829  0.3554 -2.8647
  311MOL0     H41947  -0.275   1.235   9.873 -0.6379 -1.3779  0.5098
  311MOL0     H41948  -0.408   1.247   9.978  1.6075 -1.1177  0.3181
  311MOL0     H41949  -0.866   1.503   9.763 -2.0120 -0.9173 -1.0113
  311MOL0     H41950  -1.102   1.542   9.834 -0.7574 -0.2000  0.9224
  311MOL0     H41951  -1.343   1.790   9.966  4.4395  2.4777 -1.2533
  311MOL0     H41952  -1.246   1.713   9.842  2.7946 -0.5104 -0.0765
  311MOL0     H41953  -1.323   1.492   9.968  1.3819  1.1899  0.3309
  311MOL0     H41954  -1.462   1.592  10.030 -1.0552  2.8396 -0.4475
  311MOL0     H41955  -1.415   1.537   9.733  1.7411 -0.5899  1.3549
  311MOL0     H41956  -1.530   1.656   9.799  0.0768 -0.4713 -0.1300
  311MOL0     H41957  -1.519   1.352   9.843 -1.0641 -1.4075  0.7287
  311MOL0     H41958  -1.621   1.472   9.933 -0.8235  1.2613 -0.8215
  311MOL0     H41959  -1.643   1.356   9.655 -4.3858 -0.3629 -2.2605
  311MOL0     H41960  -1.686   1.526   9.660 -2.8044 -0.5284  0.8035
  311MOL0     H41961  -1.865   1.366   9.655  2.2259  0.5581 -1.1070
  311MOL0     H41962  -1.808   1.295   9.810 -0.1892  1.0444  2.2711
  311MOL0     H41963  -1.945   1.568   9.762  0.5701 -0.0611  0.5389
  311MOL0     H41964  -1.843   1.532   9.901 -1.9937  0.1007  2.2569
  311MOL0     H41965  -2.070   1.471   9.965 -3.3573 -1.5322  0.3221
  311MOL0     H41966  -1.993   1.316   9.925 -1.5727  0.2154  1.4408
  311MOL0     H41967  -0.985   1.777  10.159  0.8389 -0.6940  1.2459
  311MOL0     H41968  -0.746   1.753  10.107  0.2496  0.1138 -1.2324
  311MOL0     H41969  -0.470   1.760   9.923 -0.6995 -1.1819  2.5309
  311MOL0     H41970  -0.232   1.817   9.939 -0.0458 -0.2116  2.8626
  311MOL0     H41971   1.734   1.844  10.667 -1.0070 -0.6930  1.2276
  311MOL0     H41972   1.876   1.991  10.813  0.8492  1.7801 -1.3856
  311MOL0     H41973   1.979   2.315  11.084  0.2158 -1.6542 -1.1879
  311MOL0     H41974   2.159   2.410  11.162  0.5786  1.8412  0.0718
  311MOL0     H41975   2.497   2.499  10.876  1.9289  0.9626  0.6357
  311MOL0     H41976   2.416   2.660  10.896  0.8683  0.7576  0.9773
  311MOL0     H41977   2.638   2.681  10.952  0.0686  0.4848 -0.3608
  311MOL0     H41978   2.631   2.558  11.087 -1.0937  1.7975  3.5388
  311MOL0     H41979   2.450   2.692  11.193 -0.1660 -0.1709 -1.2603
  311MOL0     H41980   2.476   2.816  11.063 -0.9017  1.9754  2.6769
  311MOL0     H41981   2.696   2.745  11.273 -1.1480  0.1022  1.2928
  311MOL0     H41982   2.571   2.859  11.305 -0.0451 -0.0786 -0.0146
  311MOL0     H41983   2.765   3.115  11.060 -1.0426 -0.6532 -2.1728
  311MOL0     H41984   2.293   2.524  10.769 -1.5904  4.3062  0.2550
  311MOL0     H41985   2.093   2.414  10.671 -0.7994  3.0381 -0.0067
  312MOL0     O41986   9.331   0.381  10.631  0.0312  0.2190  0.2231
  312MOL0     C41987   9.393   0.355  10.529 -0.6637 -0.2535  0.3206
  312MOL0     O41988   9.359   0.398  10.409  1.0980 -0.3835  0.5296
  312MOL0     C41989   9.290   0.518  10.395 -0.7513 -0.1802 -0.4076
  312MOL0     C41990   9.289   0.622  10.488 -0.3763 -0.4808 -0.2176
  312MOL0     C41991   9.208   0.730  10.465  0.3554 -0.7301 -0.3355
  312MOL0     C41992   9.132   0.743  10.352 -0.6040  0.2043  0.2290
  312MOL0     O41993   9.031   0.839  10.329 -0.2901  0.1568  0.3577
  312MOL0     C41994   9.016   0.943  10.426  0.0434 -0.2837 -0.4512
  312MOL0     C41995   8.898   1.037  10.403 -0.0854 -0.0968 -0.6344
  312MOL0     C41996   8.764   0.964  10.415 -0.0684 -0.1514 -0.3459
  312MOL0     C41997   8.651   1.072  10.446 -0.4382 -0.3261  0.0953
  312MOL0     C41998   8.515   0.998  10.435  0.6162 -1.0580  0.3684
  312MOL0     C41999   8.488   0.878  10.526 -0.1276 -0.1164  0.2983
  312MOL0     C42000   8.367   0.800  10.471  0.3722 -0.2225  0.3697
  312MOL0     C42001   8.332   0.689  10.563 -0.2235 -0.1631  0.6761
  312MOL0     N42002   8.216   0.613  10.502 -0.1614  0.2318  0.0458
  312MOL0     C42003   8.093   0.663  10.484  0.0176  0.5498 -0.1278
  312MOL0     C42004   8.011   0.563  10.471 -0.3922  0.2145  0.4442
  312MOL0     C42005   7.858   0.578  10.464 -0.5625 -0.4178  0.0395
  312MOL0     C42006   7.798   0.674  10.572  0.2935 -0.4044 -0.0195
  312MOL0     C42007   7.651   0.683  10.563  0.5847  1.1011  0.0182
  312MOL0     C42008   7.598   0.770  10.454  0.3090  0.1416  0.0672
  312MOL0     O42009   7.573   0.899  10.509  0.4687 -0.9358  0.2259
  312MOL0     C42010   7.451   0.951  10.462 -0.7189  0.4734  0.2206
  312MOL0     C42011   7.406   0.945  10.329 -0.0906  0.0395 -0.4338
  312MOL0     C42012   7.286   1.005  10.278 -0.1890  0.2417 -0.1126
  312MOL0     C42013   7.257   0.978  10.136  0.4139  0.2425  0.1825
  312MOL0     C42014   7.205   1.068  10.374  0.1773 -0.1064  0.2234
  312MOL0     C42015   7.063   1.103  10.357  0.0785 -0.6212  0.1199
  312MOL0     O42016   7.017   1.090  10.230 -0.0278 -0.1786 -0.0404
  312MOL0     C42017   6.904   1.155  10.188  0.4193 -0.6753 -0.4237
  312MOL0     C42018   6.861   1.278  10.240  0.0397 -0.4566 -0.5815
  312MOL0     C42019   6.734   1.328  10.207  0.5761 -0.2171  0.0478
  312MOL0     C42020   6.644   1.267  10.113  0.1658  0.2086  0.5932
  312MOL0     O42021   6.525   1.336  10.091  0.3723 -0.1900  0.3145
  312MOL0     C42022   6.421   1.276  10.007 -0.8104 -0.2484  0.0632
  312MOL0     C42023   6.323   1.392   9.972  0.0336  0.1222  0.1846
  312MOL0     C42024   6.403   1.518   9.933 -0.0363  0.1863  0.3493
  312MOL0     C42025   6.305   1.619   9.884 -0.3073 -0.0790 -0.2104
  312MOL0     C42026   6.354   1.763   9.885  0.6740 -0.5785  0.2968
  312MOL0     C42027   6.473   1.799   9.799 -1.0062 -0.0642 -0.4230
  312MOL0     C42028   6.450   1.782   9.649 -0.6637  0.0719 -0.3085
  312MOL0     C42029   6.557   1.831   9.556  0.5622  0.1635 -1.1102
  312MOL0    Cl42030   6.708   1.740   9.591  0.0811  0.2189  0.3208
  312MOL0     C42031   6.682   1.143  10.068 -0.2212  0.7358  0.2027
  312MOL0     C42032   6.809   1.087  10.105 -0.5347 -0.0410  0.5601
  312MOL0     O42033   6.988   1.138  10.449 -0.1558 -0.4745 -0.8568
  312MOL0     C42034   7.251   1.066  10.506  0.5213 -0.6986  0.2964
  312MOL0     C42035   7.366   1.015  10.551 -0.3861  0.3035  0.3700
  312MOL0     N42036   8.085   0.455  10.470 -0.0770  0.2261  0.2338
  312MOL0     N42037   8.207   0.479  10.486  0.0010  0.5403  0.4046
  312MOL0     C42038   9.126   0.641  10.262  0.7618 -0.1273 -0.4617
  312MOL0     C42039   9.201   0.525  10.292  0.1143 -0.6607  0.3571
  312MOL0     C42040   9.507   0.261  10.531  0.4328  0.2148  0.4265
  312MOL0     C42041   9.573   0.237  10.651  0.3835  1.1523 -0.2267
  312MOL0     C42042   9.684   0.147  10.666  0.0045  1.1668 -0.0545
  312MOL0     C42043   9.723   0.079  10.554 -0.0145 -0.1772 -0.2637
  312MOL0     O42044   9.836  -0.001  10.568  0.7285  0.0505  0.3530
  312MOL0     C42045   9.927   0.021  10.462 -0.2007 -0.2213  0.0104
  312MOL0     C42046  10.051  -0.071  10.466 -0.0197  0.2517  0.2418
  312MOL0     C42047  10.018  -0.217  10.469  0.3724  0.3112  0.1802
  312MOL0     C42048  10.143  -0.301  10.508  0.1428  0.2768  0.7084
  312MOL0     C42049  10.198  -0.390  10.408  0.2171  0.1069 -0.2827
  312MOL0     C42050  10.241  -0.465  10.326  0.3367 -0.1148  0.6139
  312MOL0     C42051   9.663   0.113  10.432 -0.4321 -0.4008 -0.9388
  312MOL0     C42052   9.550   0.195  10.420  0.0413  0.1020 -0.5168
  312MOL0     H42053   9.339   0.617  10.584  0.5037 -1.2429 -0.6947
  312MOL0     H42054   9.215   0.807  10.541  2.5045 -1.0815 -0.1325
  312MOL0     H42055   9.009   0.899  10.526  4.2150 -0.6511 -0.1637
  312MOL0     H42056   9.103   1.008  10.421 -0.4499  0.6844  2.0329
  312MOL0     H42057   8.899   1.116  10.479  2.4329 -0.4775 -0.1514
  312MOL0     H42058   8.918   1.089  10.309 -1.4376  1.6750  0.0167
  312MOL0     H42059   8.733   0.921  10.320 -0.7818  0.1628 -0.2643
  312MOL0     H42060   8.775   0.885  10.490  0.5335  0.1997 -0.0546
  312MOL0     H42061   8.651   1.125  10.542  1.3409  0.4131 -0.2784
  312MOL0     H42062   8.655   1.154  10.374  1.3628 -0.6126 -0.1620
  312MOL0     H42063   8.446   1.080  10.458  2.3436  0.2622  1.0554
  312MOL0     H42064   8.505   0.974  10.329 -0.3486 -1.2774  0.4967
  312MOL0     H42065   8.568   0.803  10.523 -0.4995 -0.4913 -0.6680
  312MOL0     H42066   8.458   0.903  10.629 -2.5629 -0.1610 -0.3300
  312MOL0     H42067   8.276   0.857  10.452  0.5926 -0.2254 -0.7701
  312MOL0     H42068   8.406   0.753  10.380  0.7042  1.1845 -0.2413
  312MOL0     H42069   8.298   0.735  10.657 -2.5825  0.4048 -0.3784
  312MOL0     H42070   8.418   0.624  10.574 -0.4646 -1.1517 -2.4443
  312MOL0     H42071   8.059   0.766  10.480  3.0609  1.6327 -1.2424
  312MOL0     H42072   7.842   0.633  10.371  1.1950  1.1706  0.6305
  312MOL0     H42073   7.801   0.484  10.462  0.8797 -1.3845  1.3948
  312MOL0     H42074   7.839   0.775  10.568 -1.0694  0.3262  2.3519
  312MOL0     H42075   7.818   0.631  10.671 -2.1762 -0.1371  0.6677
  312MOL0     H42076   7.615   0.702  10.664  3.4368 -0.8361  1.5455
  312MOL0     H42077   7.609   0.586  10.535 -1.5038  2.4076 -1.6747
  312MOL0     H42078   7.512   0.723  10.406  1.1371 -0.2989 -1.0502
  312MOL0     H42079   7.671   0.783  10.373  0.4098  3.5588  0.5841
  312MOL0     H42080   7.457   0.888  10.253 -0.2477  2.0331 -2.1411
  312MOL0     H42081   7.155   0.939  10.126  1.1397 -1.8862  0.7261
  312MOL0     H42082   7.269   1.070  10.078 -0.9002  1.0100  1.0779
  312MOL0     H42083   7.326   0.902  10.100 -0.2774 -1.0198  1.4078
  312MOL0     H42084   6.917   1.333  10.316  1.4462 -0.2881 -1.7054
  312MOL0     H42085   6.690   1.421  10.244  2.1782  1.3020 -1.6508
  312MOL0     H42086   6.471   1.235   9.918  1.0290  2.1541 -0.1364
  312MOL0     H42087   6.372   1.202  10.071  1.4786 -2.0397 -0.1271
  312MOL0     H42088   6.255   1.369   9.890  1.3337  1.2206 -1.2516
  312MOL0     H42089   6.258   1.413  10.058  1.0351 -0.9569  1.2527
  312MOL0     H42090   6.481   1.497   9.859 -2.9117 -2.5241 -2.2298
  312MOL0     H42091   6.445   1.563  10.024 -2.8291  0.5265  1.5549
  312MOL0     H42092   6.276   1.581   9.785 -0.0718  0.0271 -0.3211
  312MOL0     H42093   6.213   1.624   9.943  0.2004  0.4762  0.5528
  312MOL0     H42094   6.358   1.791   9.991 -1.2534 -1.1218  0.5534
  312MOL0     H42095   6.269   1.824   9.852  0.1425 -0.9867  0.8856
  312MOL0     H42096   6.493   1.905   9.813  0.9110 -0.3846 -0.4929
  312MOL0     H42097   6.558   1.736   9.825 -1.0889 -0.9195 -2.0586
  312MOL0     H42098   6.358   1.828   9.612  0.8937  2.6913 -1.1691
  312MOL0     H42099   6.437   1.675   9.634  3.2019 -0.3832 -1.5808
  312MOL0     H42100   6.566   1.935   9.589 -1.2863  0.0839 -0.1944
  312MOL0     H42101   6.526   1.833   9.451  1.6739  3.5827 -1.5206
  312MOL0     H42102   6.613   1.074  10.020  0.9146  0.6482 -1.4012
  312MOL0     H42103   6.846   0.991  10.069 -0.0920  0.0494  0.7712
  312MOL0     H42104   7.189   1.116  10.579 -0.5557 -1.5647  0.0062
  312MOL0     H42105   7.391   1.018  10.656  2.9957  1.8445 -0.3336
  312MOL0     H42106   9.056   0.645  10.180 -3.0901  3.2966  2.5292
  312MOL0     H42107   9.194   0.447  10.217  2.0845 -0.1982 -0.3457
  312MOL0     H42108   9.534   0.280  10.743 -2.3761 -2.3288  0.4836
  312MOL0     H42109   9.740   0.139  10.759 -0.8926  2.7092  0.6712
  312MOL0     H42110   9.887  -0.007  10.363  0.6985  1.7299 -0.9558
  312MOL0     H42111   9.956   0.126  10.464 -3.0244  0.6383  0.9928
  312MOL0     H42112  10.111  -0.056  10.557  0.3605 -0.9674  0.2140
  312MOL0     H42113  10.119  -0.054  10.382 -0.6503 -1.3195 -0.6354
  312MOL0     H42114   9.990  -0.252  10.369  4.7578 -2.6841 -0.2646
  312MOL0     H42115   9.937  -0.236  10.540 -1.5173 -0.1798 -2.0090
  312MOL0     H42116  10.115  -0.358  10.597  1.9398 -0.1707  1.0299
  312MOL0     H42117  10.225  -0.235  10.538 -1.1783  2.3248  0.0441
  312MOL0     H42118  10.267  -0.536  10.250  2.3812  0.0602  1.1112
  312MOL0     H42119   9.695   0.059  10.343 -1.9713  2.7967 -3.6622
  312MOL0     H42120   9.498   0.220  10.328 -1.0427  3.3554  0.8090
  313MOL0     O42121   4.086   4.584   8.201  0.2622 -0.2878  0.2444
  313MOL0     C42122   4.031   4.656   8.113 -0.3257 -0.3126  0.2388
  313MOL0     O42123   3.901   4.695   8.099  0.2877 -0.4311 -0.6868
  313MOL0     C42124   3.810   4.646   8.191  0.6684 -0.0456 -0.2817
  313MOL0     C42125   3.833   4.683   8.322 -0.2484 -0.8500  0.5236
  313MOL0     C42126   3.737   4.655   8.413 -0.3751  0.2321  0.3373
  313MOL0     C42127   3.618   4.587   8.373 -0.1879 -0.0325  0.5967
  313MOL0     O42128   3.519   4.543   8.454  0.3179 -1.0157  0.0877
  313MOL0     C42129   3.505   4.617   8.579  0.4527  0.3383  0.9748
  313MOL0     C42130   3.381   4.572   8.655 -0.5997 -0.3819  0.5017
  313MOL0     C42131   3.255   4.571   8.571  0.8569 -0.5010  0.3246
  313MOL0     C42132   3.135   4.562   8.671  0.7291  0.1639 -0.2085
  313MOL0     C42133   3.003   4.540   8.595 -0.5051  0.2540  0.4846
  313MOL0     C42134   2.886   4.581   8.692 -0.0813 -0.0658 -0.1066
  313MOL0     C42135   2.762   4.561   8.601 -0.2847 -0.9146  0.4873
  313MOL0     C42136   2.636   4.589   8.677 -0.2771 -0.0637 -0.2705
  313MOL0     N42137   2.530   4.520   8.602 -0.2095 -0.3478  0.2973
  313MOL0     C42138   2.503   4.550   8.467 -0.1444 -0.0162  0.0818
  313MOL0     C42139   2.409   4.453   8.437  0.6060 -0.4224 -0.7140
  313MOL0     C42140   2.339   4.431   8.308  1.1579  0.3263 -0.8903
  313MOL0     C42141   2.192   4.474   8.333  0.5752  0.5966 -0.1062
  313MOL0     C42142   2.097   4.375   8.402  0.5082 -0.7673  0.4820
  313MOL0     C42143   1.985   4.457   8.477 -0.6027 -0.4966  0.8041
  313MOL0     O42144   1.872   4.461   8.387 -0.0125  0.3788 -0.8226
  313MOL0     C42145   1.747   4.495   8.432 -0.8433  0.1217  0.7942
  313MOL0     C42146   1.656   4.546   8.340  0.3976  0.8401  0.3359
  313MOL0     C42147   1.529   4.598   8.381 -0.1678 -0.3411 -0.0816
  313MOL0     C42148   1.439   4.650   8.275 -0.0326  0.3141 -0.1385
  313MOL0     C42149   1.491   4.589   8.518 -0.0557  0.1361 -0.5697
  313MOL0     C42150   1.367   4.645   8.580  0.3957  0.2897  0.2392
  313MOL0     O42151   1.335   4.611   8.711  0.4347  0.1763  0.5396
  313MOL0     C42152   1.203   4.614   8.742 -0.9624 -0.1476 -0.2934
  313MOL0     C42153   1.140   4.740   8.760 -0.3220 -0.3690 -0.0484
  313MOL0     C42154   1.016   4.753   8.807  0.5084  0.2830 -0.8740
  313MOL0     C42155   0.944   4.632   8.825 -0.1249 -0.3898 -0.0972
  313MOL0     O42156   0.816   4.656   8.873 -0.4990  0.0406  0.0958
  313MOL0     C42157   0.739   4.548   8.929 -0.3581  0.1098 -0.2634
  313MOL0     C42158   0.609   4.594   8.986  0.2272 -0.2817 -0.0068
  313MOL0     C42159   0.528   4.469   9.036  0.8080 -0.0906 -0.2588
  313MOL0     C42160   0.373   4.511   9.032 -0.2098  0.2726  0.4499
  313MOL0     C42161   0.263   4.410   9.063 -0.2342  0.5869  0.1788
  313MOL0     C42162   0.125   4.469   9.048  0.2123 -0.5624 -0.2617
  313MOL0     C42163   0.022   4.390   9.123  0.9958  0.9071 -0.4756
  313MOL0     C42164  -0.106   4.363   9.031  0.1322 -0.1022  0.0026
  313MOL0    Cl42165  -0.222   4.254   9.116  0.4577  0.1629 -0.1421
  313MOL0     C42166   1.011   4.505   8.813  0.0372 -1.1130 -0.3151
  313MOL0     C42167   1.145   4.500   8.772 -0.1222 -0.1809 -0.3912
  313MOL0     O42168   1.296   4.714   8.513  0.5885 -0.2691  0.2758
  313MOL0     C42169   1.583   4.531   8.608  0.1780 -0.6001 -0.4886
  313MOL0     C42170   1.709   4.489   8.565  0.2608 -0.4393  0.6705
  313MOL0     N42171   2.395   4.364   8.546  0.2414  0.3613  0.0927
  313MOL0     N42172   2.455   4.415   8.648 -0.0733 -0.0606  0.3430
  313MOL0     C42173   3.597   4.561   8.239  0.4776  0.1344 -0.3254
  313MOL0     C42174   3.695   4.591   8.148 -1.0396  0.4194 -0.5697
  313MOL0     C42175   4.123   4.702   8.007 -0.4998 -0.7470 -0.6278
  313MOL0     C42176   4.087   4.758   7.880 -0.0122 -0.6068  0.3906
  313MOL0     C42177   4.183   4.810   7.792 -0.3816  0.2739  0.5500
  313MOL0     C42178   4.315   4.809   7.826 -0.8736 -0.8058  0.0015
  313MOL0     O42179   4.407   4.864   7.731 -0.6356 -0.4867  0.4956
  313MOL0     C42180   4.545   4.816   7.750 -0.7511  0.1263 -0.6549
  313MOL0     C42181   4.630   4.831   7.621  0.4398  1.0052  0.8514
  313MOL0     C42182   4.658   4.981   7.595  0.4498  0.0549  0.9643
  313MOL0     C42183   4.795   5.033   7.652  0.2894 -0.0908 -0.1193
  313MOL0     C42184   4.807   5.174   7.627 -0.3669 -0.6348  0.3584
  313MOL0     C42185   4.806   5.294   7.609 -0.9424  0.1239 -0.6216
  313MOL0     C42186   4.361   4.755   7.952  0.4361  0.5920  0.5660
  313MOL0     C42187   4.263   4.691   8.033 -0.7394 -0.1292  0.0058
  313MOL0     H42188   3.915   4.741   8.364  0.4687 -0.1779 -1.6774
  313MOL0     H42189   3.755   4.669   8.520  1.9389  0.3347 -0.0212
  313MOL0     H42190   3.597   4.604   8.637  1.1676  0.8660 -0.0264
  313MOL0     H42191   3.494   4.724   8.559 -0.7523 -0.0191 -0.4134
  313MOL0     H42192   3.399   4.475   8.702 -0.1109 -1.4047 -1.6579
  313MOL0     H42193   3.370   4.638   8.742  0.6342 -3.0771  2.8917
  313MOL0     H42194   3.248   4.655   8.501  0.5669 -3.1761 -3.1375
  313MOL0     H42195   3.262   4.489   8.499 -0.0789  0.3653 -0.7916
  313MOL0     H42196   3.150   4.476   8.738  1.1267 -1.0464 -1.7785
  313MOL0     H42197   3.118   4.661   8.714 -1.2313  0.9475 -2.5753
  313MOL0     H42198   3.001   4.603   8.505 -0.9184 -2.3319 -1.4573
  313MOL0     H42199   2.991   4.435   8.565 -0.3440  1.0483 -2.7986
  313MOL0     H42200   2.882   4.523   8.784  1.5793 -0.3009 -0.1521
  313MOL0     H42201   2.900   4.686   8.716  1.0180 -0.1074 -0.5403
  313MOL0     H42202   2.767   4.630   8.516  0.6434  0.1633  1.3730
  313MOL0     H42203   2.774   4.458   8.567 -0.5443 -0.8823  0.2969
  313MOL0     H42204   2.608   4.694   8.680 -1.1507 -0.2106 -2.0081
  313MOL0     H42205   2.648   4.543   8.776 -3.2077 -1.6955 -0.5400
  313MOL0     H42206   2.533   4.630   8.400 -2.9469 -1.1122 -2.7076
  313MOL0     H42207   2.381   4.487   8.224  0.8668  0.6002 -0.8569
  313MOL0     H42208   2.334   4.324   8.288  0.5076 -0.0795  1.1769
  313MOL0     H42209   2.150   4.494   8.234  2.1296 -1.1919 -1.2049
  313MOL0     H42210   2.188   4.564   8.395 -2.8168  0.3842  0.1446
  313MOL0     H42211   2.160   4.322   8.475  0.3211 -2.4190 -0.5047
  313MOL0     H42212   2.057   4.297   8.337 -2.9040 -0.8039  2.3484
  313MOL0     H42213   2.017   4.557   8.508 -1.1996 -0.4058  1.1367
  313MOL0     H42214   1.967   4.404   8.571  1.2178 -0.3567  1.2754
  313MOL0     H42215   1.688   4.550   8.236 -0.4457  0.3912  0.0505
  313MOL0     H42216   1.334   4.621   8.291 -0.6586  2.8012  0.6456
  313MOL0     H42217   1.442   4.759   8.264 -2.5236  0.4395 -0.2227
  313MOL0     H42218   1.461   4.611   8.175  1.3152  2.6077 -0.8093
  313MOL0     H42219   1.188   4.835   8.738  0.6717 -1.0940 -1.1122
  313MOL0     H42220   0.980   4.849   8.844 -2.5538 -2.1093  3.1117
  313MOL0     H42221   0.720   4.488   8.840  5.5194 -1.1369 -1.0958
  313MOL0     H42222   0.798   4.491   9.001 -0.4431 -1.1850 -1.1950
  313MOL0     H42223   0.621   4.669   9.065 -1.1107  0.0973 -0.1445
  313MOL0     H42224   0.553   4.640   8.904  2.4721 -1.3190 -2.2690
  313MOL0     H42225   0.552   4.438   9.138 -3.2367 -1.3031  0.5309
  313MOL0     H42226   0.544   4.393   8.958 -1.4156  1.7630 -2.7205
  313MOL0     H42227   0.363   4.597   9.100  1.7351  1.1082 -0.2546
  313MOL0     H42228   0.351   4.559   8.937  1.0195  1.6209  0.8152
  313MOL0     H42229   0.280   4.384   9.167  3.4055  1.7283 -0.0021
  313MOL0     H42230   0.275   4.325   8.995 -2.2734 -0.0319  0.5235
  313MOL0     H42231   0.121   4.563   9.103 -1.2868 -1.1223  0.6466
  313MOL0     H42232   0.103   4.496   8.944  1.3580  1.7443  0.0167
  313MOL0     H42233  -0.008   4.439   9.216  0.2540 -1.3911  0.5624
  313MOL0     H42234   0.058   4.288   9.140  3.2937  1.4958 -1.4200
  313MOL0     H42235  -0.084   4.312   8.937  1.3911  1.6863 -0.7167
  313MOL0     H42236  -0.143   4.459   8.994 -3.0026 -2.2758 -3.1631
  313MOL0     H42237   0.967   4.409   8.840 -0.2410 -1.3682 -1.6169
  313MOL0     H42238   1.209   4.413   8.761  1.7073  1.1305 -0.5458
  313MOL0     H42239   1.560   4.534   8.714  2.0665  0.0693 -0.0443
  313MOL0     H42240   1.777   4.450   8.640  0.3191 -3.2494 -0.7365
  313MOL0     H42241   3.502   4.514   8.212  1.4004 -2.1484  0.2042
  313MOL0     H42242   3.698   4.561   8.043  2.2677 -2.1233  0.0783
  313MOL0     H42243   3.985   4.756   7.844  0.7252 -1.4925 -1.7923
  313MOL0     H42244   4.153   4.850   7.696 -0.6021 -3.4831 -1.1113
  313MOL0     H42245   4.603   4.851   7.836  0.1683  0.9714 -1.5856
  313MOL0     H42246   4.527   4.710   7.769  0.1849  0.2625  1.1757
  313MOL0     H42247   4.572   4.781   7.542  0.7566 -0.0601  1.2739
  313MOL0     H42248   4.725   4.780   7.640  0.1612 -0.5886 -1.5193
  313MOL0     H42249   4.574   5.036   7.639  0.5307 -0.1304  1.3455
  313MOL0     H42250   4.658   4.997   7.486  0.2968  0.7098  1.0566
  313MOL0     H42251   4.882   4.983   7.609 -0.5120 -0.3635 -1.4655
  313MOL0     H42252   4.795   5.012   7.759 -3.0088 -1.6839 -0.2842
  313MOL0     H42253   4.822   5.399   7.594  0.4991 -0.1554 -1.2825
  313MOL0     H42254   4.464   4.733   7.979  0.2519 -1.1629  0.0088
  313MOL0     H42255   4.302   4.642   8.122  0.6089  3.3983  1.5474
  314MOL0     O42256   2.977   7.779   6.442  0.0773  0.0467  0.4713
  314MOL0     C42257   3.045   7.879   6.431  0.0784  0.1587 -0.1539
  314MOL0     O42258   3.029   7.981   6.343 -0.0145  0.1749  0.3294
  314MOL0     C42259   2.918   8.007   6.268 -0.2037 -0.1292  0.4037
  314MOL0     C42260   2.797   7.957   6.300 -0.0463  0.1533 -0.8019
  314MOL0     C42261   2.677   8.003   6.236 -1.2415 -0.0444 -0.8300
  314MOL0     C42262   2.684   8.092   6.126 -0.0192  0.6853 -0.4401
  314MOL0     O42263   2.570   8.124   6.053 -0.0987  0.2852  0.6130
  314MOL0     C42264   2.546   8.030   5.947 -0.4725  0.3886  0.2138
  314MOL0     C42265   2.407   8.060   5.891  0.0454  0.4321 -0.2897
  314MOL0     C42266   2.301   7.990   5.977 -0.0614  0.1482  0.7668
  314MOL0     C42267   2.171   7.998   5.895 -0.2653  0.0289 -0.4599
  314MOL0     C42268   2.053   7.914   5.955 -0.2535 -0.3718 -0.5505
  314MOL0     C42269   2.011   7.945   6.100  0.3688 -0.0817  0.1573
  314MOL0     C42270   1.980   8.090   6.152 -0.0659 -0.4723 -0.0782
  314MOL0     C42271   1.882   8.170   6.066  0.1671 -0.1449 -0.2154
  314MOL0     N42272   1.743   8.121   6.063 -0.5178  0.1815 -0.7109
  314MOL0     C42273   1.646   8.135   6.160 -1.2418  0.2284 -0.0822
  314MOL0     C42274   1.533   8.083   6.107  0.0765 -0.1383 -0.1404
  314MOL0     C42275   1.395   8.090   6.182 -0.5763  0.4701  0.3192
  314MOL0     C42276   1.277   8.049   6.096 -0.2162  0.2632  0.0509
  314MOL0     C42277   1.151   8.046   6.184 -0.1869 -0.0189 -0.4651
  314MOL0     C42278   1.025   7.957   6.147 -0.3711  0.4599 -0.0413
  314MOL0     O42279   0.952   8.004   6.029  0.5874 -0.0040  0.3502
  314MOL0     C42280   0.834   7.932   5.998 -0.2385 -0.7595 -0.5254
  314MOL0     C42281   0.771   7.980   5.884 -0.9154  0.4736  0.8411
  314MOL0     C42282   0.644   7.936   5.835 -0.0721 -0.5806 -0.9533
  314MOL0     C42283   0.575   8.007   5.726  0.4477  0.3021  0.1284
  314MOL0     C42284   0.582   7.830   5.912  0.6662 -0.2549  1.0176
  314MOL0     C42285   0.443   7.784   5.875 -0.6159 -0.3171 -0.0671
  314MOL0     O42286   0.375   7.726   5.969 -0.1225  0.5370  0.4492
  314MOL0     C42287   0.243   7.700   5.948 -0.1172  0.2643  0.3752
  314MOL0     C42288   0.187   7.568   5.942  0.7066 -0.4214  0.6202
  314MOL0     C42289   0.052   7.551   5.914 -0.2378  0.0955  0.0032
  314MOL0     C42290  -0.031   7.663   5.899 -0.1156  0.0289 -0.4873
  314MOL0     O42291  -0.161   7.650   5.853 -0.2922 -0.2080 -0.7499
  314MOL0     C42292  -0.243   7.561   5.915  0.8564 -0.5313  0.9356
  314MOL0     C42293  -0.383   7.553   5.855 -0.5374  0.8169 -0.1783
  314MOL0     C42294  -0.462   7.678   5.850  0.0657  0.1353  0.0313
  314MOL0     C42295  -0.469   7.745   5.982 -0.0905  0.7072 -0.3100
  314MOL0     C42296  -0.530   7.894   5.970  0.2333 -0.2295  0.1708
  314MOL0     C42297  -0.643   7.906   5.873  0.0464 -1.0799  0.4830
  314MOL0     C42298  -0.773   7.852   5.935  0.2587 -0.1319 -0.2123
  314MOL0     C42299  -0.874   7.965   5.942 -0.0803  0.0833 -0.5163
  314MOL0    Cl42300  -1.013   7.902   6.043  0.4689 -0.2192  0.0274
  314MOL0     C42301   0.016   7.790   5.916 -0.0294  0.1128  0.2609
  314MOL0     C42302   0.153   7.808   5.936 -0.2930  0.1737  0.5351
  314MOL0     O42303   0.410   7.781   5.760  1.0367  0.0928 -0.7845
  314MOL0     C42304   0.654   7.780   6.025 -1.0494  0.1961 -0.3710
  314MOL0     C42305   0.773   7.832   6.071 -0.9530 -0.1353 -0.7193
  314MOL0     N42306   1.564   8.029   5.983 -0.2180 -0.0299 -0.2615
  314MOL0     N42307   1.692   8.054   5.963  0.4565  0.4138  0.5153
  314MOL0     C42308   2.805   8.149   6.096  0.2483  0.2271  0.0476
  314MOL0     C42309   2.922   8.108   6.170 -0.3632  0.1683  0.0979
  314MOL0     C42310   3.167   7.883   6.508 -0.0392 -0.1715 -0.3968
  314MOL0     C42311   3.286   7.936   6.461  0.2461 -0.7482 -0.1875
  314MOL0     C42312   3.403   7.940   6.540 -0.4513  0.6054  0.1785
  314MOL0     C42313   3.400   7.874   6.668 -0.4740 -0.1697  0.8043
  314MOL0     O42314   3.512   7.873   6.749 -0.4032 -0.3771 -0.8981
  314MOL0     C42315   3.631   7.938   6.714 -0.8068  0.1266 -0.4031
  314MOL0     C42316   3.735   7.929   6.831 -0.4058 -0.4400  0.3776
  314MOL0     C42317   3.805   7.791   6.862  0.4417  0.1573  0.7656
  314MOL0     C42318   3.957   7.801   6.855 -0.3649 -0.0754 -0.1735
  314MOL0     C42319   4.007   7.689   6.926  0.2625  0.4562 -0.7084
  314MOL0     C42320   4.060   7.587   6.965  0.3051  0.3195 -0.3162
  314MOL0     C42321   3.274   7.822   6.716 -0.0637 -0.7482  0.5818
  314MOL0     C42322   3.167   7.825   6.631 -0.3660  0.0382  0.1185
  314MOL0     H42323   2.781   7.882   6.378  0.1056 -1.0957 -1.9466
  314MOL0     H42324   2.577   7.966   6.254 -0.5311 -0.7827  2.2112
  314MOL0     H42325   2.619   8.042   5.866  0.3872 -1.8382  0.6171
  314MOL0     H42326   2.557   7.928   5.983  4.6238  0.2251 -1.1252
  314MOL0     H42327   2.392   8.168   5.895 -1.8734  0.2024 -0.5174
  314MOL0     H42328   2.401   8.022   5.789 -2.0085  2.5469 -1.0356
  314MOL0     H42329   2.322   7.883   5.989  0.1876  0.2207  1.0065
  314MOL0     H42330   2.286   8.042   6.073 -2.0942 -0.0171  0.5831
  314MOL0     H42331   2.144   8.104   5.887  1.0652  0.5300  1.1318
  314MOL0     H42332   2.195   7.963   5.794  0.6536  0.1011 -0.2725
  314MOL0     H42333   1.964   7.931   5.893  0.9262 -0.1498 -2.2676
  314MOL0     H42334   2.070   7.806   5.967  1.0567  0.1001  3.3133
  314MOL0     H42335   1.915   7.897   6.120  0.5617  0.5606  3.0023
  314MOL0     H42336   2.072   7.884   6.166 -0.6322 -1.8951 -0.5259
  314MOL0     H42337   1.943   8.094   6.255  1.6101 -1.0792  0.5842
  314MOL0     H42338   2.080   8.134   6.162  0.2835 -1.3271  0.2910
  314MOL0     H42339   1.922   8.178   5.965  2.1130  1.3388  0.5891
  314MOL0     H42340   1.880   8.266   6.119 -1.9194 -0.5180  0.4552
  314MOL0     H42341   1.663   8.187   6.254 -1.5114 -0.1261  0.1623
  314MOL0     H42342   1.401   8.033   6.275  0.7531 -0.4097 -0.2709
  314MOL0     H42343   1.372   8.194   6.206 -0.5272  1.1271 -2.1935
  314MOL0     H42344   1.308   7.959   6.042 -2.4407 -0.2370 -0.4797
  314MOL0     H42345   1.272   8.114   6.009  0.5797  0.6152  0.2628
  314MOL0     H42346   1.118   8.149   6.203 -0.9709 -0.7443  2.7713
  314MOL0     H42347   1.172   8.003   6.283 -2.1368  1.1008  0.5118
  314MOL0     H42348   0.954   7.960   6.230 -0.2064  0.7043  0.0920
  314MOL0     H42349   1.065   7.855   6.145  0.4658  0.7658  0.4130
  314MOL0     H42350   0.814   8.065   5.834  2.2954 -0.9966  0.8707
  314MOL0     H42351   0.561   7.949   5.635 -1.9927 -0.1442  0.7214
  314MOL0     H42352   0.473   8.033   5.757 -0.6033 -0.8261 -2.1905
  314MOL0     H42353   0.616   8.106   5.701 -3.5391  2.1899  0.1778
  314MOL0     H42354   0.251   7.480   5.947  0.5369 -0.7366 -1.4953
  314MOL0     H42355   0.009   7.454   5.892 -1.5925  0.4150  1.0829
  314MOL0     H42356  -0.202   7.461   5.903  1.5102 -0.3656  1.7388
  314MOL0     H42357  -0.254   7.580   6.022 -0.3809 -1.6095  1.0314
  314MOL0     H42358  -0.374   7.507   5.756 -0.0214  1.2947 -0.3582
  314MOL0     H42359  -0.436   7.479   5.915 -0.1941  1.8740  1.4930
  314MOL0     H42360  -0.562   7.641   5.825  1.2188 -3.7519  0.5005
  314MOL0     H42361  -0.419   7.743   5.772 -0.1710 -2.0462 -2.0433
  314MOL0     H42362  -0.517   7.679   6.055  1.6529  0.2621  0.4979
  314MOL0     H42363  -0.370   7.762   6.026  0.2014 -0.3920 -0.5338
  314MOL0     H42364  -0.456   7.957   5.921  1.1508 -1.2808  0.1695
  314MOL0     H42365  -0.554   7.923   6.072  0.8466 -0.9004  0.5204
  314MOL0     H42366  -0.652   8.013   5.849  1.4659 -0.5784  2.0467
  314MOL0     H42367  -0.622   7.860   5.776  1.8056  1.9847 -0.7577
  314MOL0     H42368  -0.752   7.818   6.037 -1.2832 -2.6037 -0.6265
  314MOL0     H42369  -0.817   7.766   5.883  0.1161  0.1214 -0.5152
  314MOL0     H42370  -0.917   7.988   5.844  1.9331 -0.6849 -1.6317
  314MOL0     H42371  -0.830   8.052   5.991  2.1420 -2.3769  2.1736
  314MOL0     H42372  -0.036   7.885   5.903  2.5627  1.7033  0.7226
  314MOL0     H42373   0.195   7.907   5.932  0.4691 -0.1742 -1.6199
  314MOL0     H42374   0.604   7.696   6.073 -0.0915 -0.7286 -0.9279
  314MOL0     H42375   0.813   7.787   6.161 -0.9253 -0.4450 -0.8838
  314MOL0     H42376   2.812   8.226   6.020  2.1122  2.8629  2.6498
  314MOL0     H42377   3.017   8.156   6.149 -0.5363  2.2809  3.4134
  314MOL0     H42378   3.289   7.973   6.359 -0.0414 -0.9628 -0.2735
  314MOL0     H42379   3.492   7.988   6.501 -0.1799 -0.7765 -0.9837
  314MOL0     H42380   3.676   7.894   6.625  0.7810 -2.0800  1.3791
  314MOL0     H42381   3.613   8.040   6.679 -0.0447 -0.0973 -1.4828
  314MOL0     H42382   3.671   7.957   6.916  0.1566  1.6170  0.1893
  314MOL0     H42383   3.811   8.007   6.821  0.9146 -1.9241 -2.0432
  314MOL0     H42384   3.781   7.719   6.784  0.8633  2.4675 -1.6362
  314MOL0     H42385   3.773   7.755   6.960 -3.2936  0.2959 -0.2704
  314MOL0     H42386   3.998   7.888   6.907  0.5450 -0.1130 -0.7980
  314MOL0     H42387   3.974   7.804   6.747 -2.3824 -1.0075 -0.5578
  314MOL0     H42388   4.105   7.491   6.981  0.7530  0.2915 -1.5845
  314MOL0     H42389   3.259   7.784   6.817 -0.0458  0.1401  0.9284
  314MOL0     H42390   3.077   7.770   6.657 -0.6286  0.0445 -0.7576
  315MOL0     O42391   8.098   0.571   6.893  1.1836  0.3808 -0.2802
  315MOL0     C42392   8.084   0.565   6.775  0.5976 -0.8147  0.0400
  315MOL0     O42393   7.959   0.572   6.717  0.5544  0.2454 -0.6839
  315MOL0     C42394   7.843   0.559   6.783 -0.4962 -0.9697 -2.0432
  315MOL0     C42395   7.747   0.659   6.758 -0.5231 -0.1624 -0.0841
  315MOL0     C42396   7.623   0.647   6.825 -0.3682 -0.0716  0.7281
  315MOL0     C42397   7.590   0.537   6.899  0.0837  0.8184 -0.0565
  315MOL0     O42398   7.473   0.534   6.980  0.2623 -0.2243 -0.2118
  315MOL0     C42399   7.423   0.657   7.035  0.0068 -0.6121 -0.8223
  315MOL0     C42400   7.293   0.721   6.984  0.0019  0.5276 -0.0627
  315MOL0     C42401   7.166   0.635   7.011 -0.8022  0.3818  0.0151
  315MOL0     C42402   7.053   0.683   6.924 -0.5328 -0.0541 -0.7045
  315MOL0     C42403   6.930   0.592   6.934 -0.6933 -0.0550 -0.7989
  315MOL0     C42404   6.818   0.625   6.840  0.5072  0.3241  0.9152
  315MOL0     C42405   6.705   0.532   6.838 -0.1624  0.4022 -0.4927
  315MOL0     C42406   6.605   0.560   6.727 -0.0948 -0.1939 -1.3676
  315MOL0     N42407   6.528   0.680   6.758  0.4045  0.1115 -0.4167
  315MOL0     C42408   6.406   0.685   6.826 -0.1630  0.3107  0.9635
  315MOL0     C42409   6.376   0.815   6.806 -0.4747  0.2599 -0.1593
  315MOL0     C42410   6.264   0.882   6.871  0.9409 -0.3217 -0.2846
  315MOL0     C42411   6.129   0.887   6.784 -0.3073 -0.2218 -0.4486
  315MOL0     C42412   6.136   0.978   6.664  0.1017  0.0835  0.2534
  315MOL0     C42413   5.996   1.014   6.610  0.3433  1.0692 -0.3419
  315MOL0     O42414   5.995   1.070   6.476  0.4035  0.0677 -0.0181
  315MOL0     C42415   5.867   1.107   6.436  0.5920  0.5154  0.0978
  315MOL0     C42416   5.859   1.175   6.316  0.1744 -0.6282 -0.0509
  315MOL0     C42417   5.735   1.221   6.268 -1.3913  0.6459 -0.8199
  315MOL0     C42418   5.746   1.286   6.139  0.8038 -0.7658 -0.6775
  315MOL0     C42419   5.613   1.204   6.339  0.0928 -0.4678 -0.1194
  315MOL0     C42420   5.480   1.240   6.296  0.1099 -0.5203  0.0059
  315MOL0     O42421   5.381   1.230   6.381 -0.3776 -0.0879 -0.3785
  315MOL0     C42422   5.249   1.251   6.339 -0.8319  0.3938 -0.1488
  315MOL0     C42423   5.200   1.360   6.277 -0.4331 -0.2939  0.7106
  315MOL0     C42424   5.058   1.370   6.239 -0.6270 -0.4738  0.3334
  315MOL0     C42425   4.976   1.264   6.263  0.9536  1.1171  0.0571
  315MOL0     O42426   4.841   1.258   6.230  0.0449 -0.2161 -0.2503
  315MOL0     C42427   4.772   1.383   6.205 -0.5051  0.0559  0.0856
  315MOL0     C42428   4.621   1.352   6.190 -0.4664 -0.1147  0.2216
  315MOL0     C42429   4.581   1.322   6.334 -0.2882  0.1470  0.3563
  315MOL0     C42430   4.436   1.284   6.361 -0.1736 -0.4002  0.6067
  315MOL0     C42431   4.397   1.154   6.296 -0.9802  0.1534 -0.1351
  315MOL0     C42432   4.261   1.103   6.334 -0.6434  0.1706 -0.2064
  315MOL0     C42433   4.235   1.092   6.489 -0.1407  0.1982 -0.2967
  315MOL0     C42434   4.145   0.975   6.514  0.2110 -0.2347 -0.7328
  315MOL0    Cl42435   3.990   0.988   6.404 -0.0331 -0.5240 -0.0185
  315MOL0     C42436   5.038   1.145   6.305  0.1620 -0.1235  0.5719
  315MOL0     C42437   5.172   1.142   6.332  0.6114  0.9411 -0.2442
  315MOL0     O42438   5.471   1.275   6.180 -0.3020 -0.0619 -0.7210
  315MOL0     C42439   5.623   1.137   6.458 -0.7874  1.0511  0.3851
  315MOL0     C42440   5.746   1.078   6.503  0.0563  0.3397 -0.4717
  315MOL0     N42441   6.458   0.877   6.712 -0.4026 -0.3826 -0.9100
  315MOL0     N42442   6.549   0.797   6.688 -0.3039 -0.4940  0.1581
  315MOL0     C42443   7.678   0.427   6.900 -0.0602 -0.5765 -0.0498
  315MOL0     C42444   7.809   0.442   6.852 -0.5065 -0.2156 -0.2372
  315MOL0     C42445   8.204   0.574   6.689 -0.2290  0.5019 -0.1780
  315MOL0     C42446   8.337   0.561   6.734  0.8144  0.4416 -0.6132
  315MOL0     C42447   8.440   0.577   6.653 -0.6725 -0.2715 -0.5900
  315MOL0     C42448   8.414   0.602   6.517  0.4827 -0.0482 -0.0562
  315MOL0     O42449   8.511   0.604   6.419  0.6744  0.0203  0.5680
  315MOL0     C42450   8.612   0.495   6.420  0.1674 -0.3061  0.6696
  315MOL0     C42451   8.758   0.557   6.417  0.4471  0.1990  1.8021
  315MOL0     C42452   8.788   0.630   6.281  0.1186  0.6704 -0.0387
  315MOL0     C42453   8.888   0.736   6.301 -0.8290 -0.0617  0.8507
  315MOL0     C42454   9.005   0.704   6.390 -0.4336  0.1515 -0.1390
  315MOL0     C42455   9.072   0.660   6.486 -0.3752  0.2558 -0.0339
  315MOL0     C42456   8.288   0.622   6.473 -0.1200  0.2140  0.5586
  315MOL0     C42457   8.180   0.611   6.550 -0.2382  0.0303 -0.3200
  315MOL0     H42458   7.778   0.749   6.705  3.0570  0.5125  2.7262
  315MOL0     H42459   7.548   0.725   6.823 -1.4752 -1.1098  0.4393
  315MOL0     H42460   7.411   0.634   7.142  0.3263  3.3028  0.2021
  315MOL0     H42461   7.506   0.727   7.045 -0.0974 -0.8054  3.2114
  315MOL0     H42462   7.288   0.815   7.040 -1.7845  0.7377 -0.5018
  315MOL0     H42463   7.297   0.750   6.879  2.9276 -0.2083 -0.2338
  315MOL0     H42464   7.188   0.530   6.987  3.7727  1.1733 -0.3088
  315MOL0     H42465   7.136   0.633   7.116  2.0843 -0.1812  0.9456
  315MOL0     H42466   7.022   0.784   6.954 -0.7269 -0.6934  1.3878
  315MOL0     H42467   7.080   0.691   6.819 -1.5281 -1.2778 -1.0805
  315MOL0     H42468   6.959   0.488   6.918  0.7199  0.2660 -0.4777
  315MOL0     H42469   6.889   0.601   7.035  1.6827  0.5881  0.1820
  315MOL0     H42470   6.778   0.718   6.883  0.7897  1.3290 -0.8762
  315MOL0     H42471   6.849   0.647   6.737 -0.9263  0.7902  0.5618
  315MOL0     H42472   6.745   0.433   6.814  1.8560  0.6923  1.4037
  315MOL0     H42473   6.640   0.519   6.926  0.2083 -2.7817 -0.5653
  315MOL0     H42474   6.535   0.478   6.717 -0.2369 -0.1782 -0.5824
  315MOL0     H42475   6.661   0.588   6.637  0.0053  1.1557 -0.9099
  315MOL0     H42476   6.346   0.607   6.872 -0.5538 -1.2731 -1.9978
  315MOL0     H42477   6.234   0.820   6.956 -3.1703 -1.1343 -2.0568
  315MOL0     H42478   6.295   0.981   6.908  0.9247 -1.0143  1.7121
  315MOL0     H42479   6.047   0.919   6.848 -0.5765 -0.4216 -0.6928
  315MOL0     H42480   6.107   0.785   6.753 -0.0150 -1.2667  2.4619
  315MOL0     H42481   6.190   0.929   6.583 -0.7573 -0.3275 -0.0862
  315MOL0     H42482   6.185   1.073   6.689 -0.4218  0.5736 -0.5489
  315MOL0     H42483   5.939   1.073   6.682 -2.8043 -1.6784 -0.3095
  315MOL0     H42484   5.943   0.918   6.599 -0.6501  1.7955 -2.5087
  315MOL0     H42485   5.945   1.185   6.251 -0.9465  0.4135 -1.4509
  315MOL0     H42486   5.717   1.392   6.135 -0.3824 -1.0687 -0.4066
  315MOL0     H42487   5.847   1.297   6.097  1.0576  4.6544  0.6252
  315MOL0     H42488   5.687   1.226   6.069 -2.6617  0.7205  0.7650
  315MOL0     H42489   5.266   1.443   6.253 -0.9626 -0.2876 -0.8034
  315MOL0     H42490   5.029   1.463   6.193  0.7923  0.5720  1.4701
  315MOL0     H42491   4.797   1.448   6.289  1.0308 -2.1204  1.4109
  315MOL0     H42492   4.808   1.424   6.110 -0.2535 -0.8804 -0.2327
  315MOL0     H42493   4.575   1.442   6.147  1.0692  1.2027  1.2001
  315MOL0     H42494   4.611   1.267   6.121  2.8811 -1.0997  0.7638
  315MOL0     H42495   4.610   1.408   6.395  2.9491 -1.2286  0.9774
  315MOL0     H42496   4.643   1.239   6.370 -0.1889 -1.1652 -2.5320
  315MOL0     H42497   4.436   1.265   6.468 -2.0958 -2.6109  0.2909
  315MOL0     H42498   4.363   1.361   6.335  1.1088  1.1814  1.5317
  315MOL0     H42499   4.461   1.069   6.321 -1.3944 -1.0752 -2.8802
  315MOL0     H42500   4.399   1.171   6.188 -1.2549 -2.3036 -0.5946
  315MOL0     H42501   4.171   1.155   6.299 -1.8446 -1.2570  0.5811
  315MOL0     H42502   4.244   1.001   6.297 -0.9173  0.1746 -0.0955
  315MOL0     H42503   4.188   1.183   6.528  3.5366  1.1500  2.4568
  315MOL0     H42504   4.335   1.075   6.530 -0.0467  1.2603 -0.0559
  315MOL0     H42505   4.118   0.975   6.620 -3.1381  1.1809 -1.4550
  315MOL0     H42506   4.201   0.887   6.481  0.0368 -0.1382 -1.2978
  315MOL0     H42507   4.972   1.059   6.311  0.2068 -0.0459  3.5671
  315MOL0     H42508   5.218   1.047   6.356  0.8946  0.3571 -2.7633
  315MOL0     H42509   5.531   1.116   6.514 -0.9438  0.2778 -0.1419
  315MOL0     H42510   5.737   1.028   6.599  0.9571  0.3658 -0.3668
  315MOL0     H42511   7.651   0.333   6.947  1.6056 -0.9083  0.2952
  315MOL0     H42512   7.879   0.360   6.865 -0.0582  0.0443 -0.9704
  315MOL0     H42513   8.346   0.550   6.842  1.2331  4.3303 -0.1079
  315MOL0     H42514   8.541   0.584   6.691 -0.0640 -0.7873 -2.0241
  315MOL0     H42515   8.616   0.429   6.507  4.0129 -1.1908  0.0093
  315MOL0     H42516   8.595   0.424   6.338 -4.8705  1.5826 -0.2642
  315MOL0     H42517   8.823   0.469   6.418 -0.4930 -0.8965 -3.5863
  315MOL0     H42518   8.780   0.611   6.510  1.2220  0.0697  1.7032
  315MOL0     H42519   8.696   0.672   6.238 -2.4157 -1.5619  2.7510
  315MOL0     H42520   8.841   0.567   6.210  0.3152  0.6938  0.0852
  315MOL0     H42521   8.828   0.818   6.342 -1.1203  0.7207 -1.0555
  315MOL0     H42522   8.919   0.764   6.200  0.1787 -2.4041  0.4412
  315MOL0     H42523   9.122   0.626   6.575  0.7295  1.5156 -0.1515
  315MOL0     H42524   8.279   0.645   6.367  4.1869 -1.7891 -0.4699
  315MOL0     H42525   8.079   0.626   6.515 -0.3327  0.7463  0.2303
  316MOL0     O42526   6.329   9.172   3.255 -0.3469  0.1183 -0.1090
  316MOL0     C42527   6.436   9.222   3.229  0.0912 -0.7292 -0.4779
  316MOL0     O42528   6.457   9.344   3.167 -0.8263 -0.4852  0.2059
  316MOL0     C42529   6.354   9.404   3.094  0.5501 -0.9503  0.4919
  316MOL0     C42530   6.302   9.529   3.136 -0.3145 -0.4009  0.4090
  316MOL0     C42531   6.198   9.590   3.070  0.0241  0.3244  0.4521
  316MOL0     C42532   6.136   9.523   2.957  0.6526 -1.0145 -0.7050
  316MOL0     O42533   6.020   9.569   2.889 -0.4340  0.0759  0.0441
  316MOL0     C42534   5.967   9.699   2.930 -0.0497 -0.5075  0.0770
  316MOL0     C42535   5.881   9.733   2.804  0.5413  0.2275 -0.4672
  316MOL0     C42536   5.812   9.859   2.840  0.7281 -0.1920 -0.9769
  316MOL0     C42537   5.731   9.897   2.715 -0.3910  0.7166 -0.7762
  316MOL0     C42538   5.583   9.856   2.734  0.9945  0.7070  0.6242
  316MOL0     C42539   5.484   9.863   2.615  0.2062 -0.4317  0.4757
  316MOL0     C42540   5.340   9.819   2.629 -0.3814 -0.4396 -0.4087
  316MOL0     C42541   5.321   9.667   2.644  0.5015 -0.7108 -0.1280
  316MOL0     N42542   5.179   9.638   2.621  0.7446 -1.0742  0.4760
  316MOL0     C42543   5.079   9.622   2.712  0.3792 -0.2424 -0.0568
  316MOL0     C42544   4.958   9.637   2.650 -0.4376  0.6598 -0.2407
  316MOL0     C42545   4.823   9.632   2.715  0.1457  0.4328  0.1522
  316MOL0     C42546   4.718   9.546   2.636 -0.4094 -0.5588 -0.3273
  316MOL0     C42547   4.739   9.402   2.669 -0.3151  0.0489  0.3629
  316MOL0     C42548   4.640   9.314   2.592  0.1229  0.6236  0.0633
  316MOL0     O42549   4.507   9.361   2.573  0.3396  0.0573 -0.4055
  316MOL0     C42550   4.391   9.287   2.596  0.5201  0.2699 -0.8787
  316MOL0     C42551   4.279   9.361   2.604 -0.0984  0.2393 -0.6057
  316MOL0     C42552   4.156   9.295   2.602  0.5154  0.8931  0.9721
  316MOL0     C42553   4.036   9.393   2.591 -0.7507  0.2465 -0.2337
  316MOL0     C42554   4.146   9.153   2.595  0.4110  0.0352 -1.3054
  316MOL0     C42555   4.023   9.071   2.585 -0.1780  0.4349 -0.3544
  316MOL0     O42556   3.916   9.131   2.524 -0.2557 -0.0981  0.0865
  316MOL0     C42557   3.792   9.072   2.544  0.0263  0.1376 -1.3518
  316MOL0     C42558   3.754   8.937   2.534  0.3998 -0.6833 -0.7664
  316MOL0     C42559   3.619   8.904   2.567  0.1994  0.3290 -0.1905
  316MOL0     C42560   3.524   9.003   2.604 -0.3672  0.5936 -0.6508
  316MOL0     O42561   3.389   8.959   2.621 -0.6436  0.2073 -0.7602
  316MOL0     C42562   3.282   9.049   2.615 -0.8798 -0.9277  0.7197
  316MOL0     C42563   3.164   8.965   2.582  0.7823 -0.0593  0.4505
  316MOL0     C42564   3.029   9.013   2.632 -0.2156 -0.7988 -0.1295
  316MOL0     C42565   2.916   8.951   2.540  0.0852  0.2218 -0.0146
  316MOL0     C42566   2.783   8.997   2.579  0.8389  0.3441 -0.5740
  316MOL0     C42567   2.684   8.957   2.470  0.5880 -0.5913 -1.0144
  316MOL0     C42568   2.530   8.975   2.508  0.0178  0.1070  0.1668
  316MOL0     C42569   2.487   8.865   2.608 -0.1869  0.9150 -0.3373
  316MOL0    Cl42570   2.313   8.812   2.601 -0.2047 -0.0213  0.3182
  316MOL0     C42571   3.566   9.135   2.622  0.0361 -0.7259 -0.5220
  316MOL0     C42572   3.705   9.169   2.600  0.9164 -1.0827  0.8623
  316MOL0     O42573   4.028   8.955   2.626  0.3774  0.5557  0.2951
  316MOL0     C42574   4.265   9.082   2.595 -0.1429  0.2812 -0.1164
  316MOL0     C42575   4.387   9.149   2.599  0.5365  0.1745  0.0322
  316MOL0     N42576   4.984   9.654   2.516 -0.0156  0.5029  0.4609
  316MOL0     N42577   5.116   9.655   2.496  0.9136  0.2685 -0.1798
  316MOL0     C42578   6.192   9.401   2.916  0.8643 -0.3577  0.1878
  316MOL0     C42579   6.306   9.348   2.979 -0.0137  0.1392  0.0278
  316MOL0     C42580   6.557   9.153   3.266 -0.5197 -0.7041  0.2983
  316MOL0     C42581   6.551   9.023   3.312 -0.4459  0.8184 -0.3419
  316MOL0     C42582   6.670   8.939   3.341  0.4870 -0.8394  0.1271
  316MOL0     C42583   6.795   8.999   3.334 -0.3520  0.8612 -0.9016
  316MOL0     O42584   6.919   8.940   3.361  0.3794 -0.1061 -0.1523
  316MOL0     C42585   6.924   8.829   3.449 -0.1275  0.5059  0.3349
  316MOL0     C42586   7.071   8.802   3.492  0.3930 -0.0018 -0.3013
  316MOL0     C42587   7.125   8.912   3.589 -0.3658 -0.6185  0.2321
  316MOL0     C42588   7.275   8.880   3.625 -0.6920 -0.0444  0.0774
  316MOL0     C42589   7.309   8.760   3.704  0.0786  0.1274 -0.6995
  316MOL0     C42590   7.328   8.652   3.759 -0.3056  0.9452  0.0404
  316MOL0     C42591   6.799   9.127   3.282  0.0846 -1.1963  0.8155
  316MOL0     C42592   6.683   9.204   3.250 -0.1440 -0.3378 -0.6291
  316MOL0     H42593   6.346   9.591   3.213 -1.4881 -0.4041  1.1087
  316MOL0     H42594   6.154   9.683   3.106 -1.7031  1.8860 -4.7914
  316MOL0     H42595   5.898   9.691   3.015 -1.6940 -1.4766 -1.2765
  316MOL0     H42596   6.046   9.774   2.937 -0.6992  0.3428 -1.3490
  316MOL0     H42597   5.942   9.746   2.715  0.3870  0.0481 -0.5990
  316MOL0     H42598   5.805   9.656   2.787 -0.7215  1.4664 -0.6203
  316MOL0     H42599   5.740   9.835   2.918  1.3808 -1.0694 -0.6212
  316MOL0     H42600   5.880   9.939   2.872 -0.8081  0.7452  0.0989
  316MOL0     H42601   5.745  10.004   2.701  1.9292  0.2455 -2.5829
  316MOL0     H42602   5.776   9.850   2.627 -0.8106  0.9580 -1.1164
  316MOL0     H42603   5.582   9.749   2.761 -1.3477  0.3641 -0.6326
  316MOL0     H42604   5.552   9.911   2.823  1.6206  0.4363  1.0192
  316MOL0     H42605   5.498   9.963   2.572  2.3547 -1.6515 -1.9697
  316MOL0     H42606   5.520   9.791   2.541 -0.4266  0.0667 -0.3292
  316MOL0     H42607   5.306   9.870   2.720  1.1903 -1.3622  0.7503
  316MOL0     H42608   5.284   9.860   2.544 -0.1006 -0.9230 -0.8297
  316MOL0     H42609   5.357   9.645   2.745  1.0518  2.8890  0.5876
  316MOL0     H42610   5.380   9.604   2.576  0.6714  0.9853 -1.6166
  316MOL0     H42611   5.096   9.606   2.818 -0.5878  2.0126  0.5029
  316MOL0     H42612   4.840   9.605   2.820  5.0152  0.6956 -0.3494
  316MOL0     H42613   4.785   9.734   2.711 -1.9428 -0.3180 -2.3980
  316MOL0     H42614   4.743   9.560   2.531 -2.7421 -2.9704 -1.3021
  316MOL0     H42615   4.616   9.579   2.655  0.2365  1.7900 -0.6600
  316MOL0     H42616   4.729   9.391   2.777  2.2468  1.8808  0.8904
  316MOL0     H42617   4.840   9.377   2.635  0.8500  2.8497  1.4404
  316MOL0     H42618   4.641   9.222   2.651  0.9835  0.8506  0.4229
  316MOL0     H42619   4.670   9.270   2.496  0.5994 -1.0408  0.9312
  316MOL0     H42620   4.291   9.469   2.597  3.1472  0.1099  0.8467
  316MOL0     H42621   3.943   9.368   2.644 -0.5656  1.9750  0.9760
  316MOL0     H42622   4.070   9.475   2.655  1.5798  0.1006 -1.1979
  316MOL0     H42623   4.020   9.417   2.486 -0.2533  0.4110 -0.2703
  316MOL0     H42624   3.827   8.865   2.499  0.7869 -0.4756 -0.3965
  316MOL0     H42625   3.589   8.799   2.569  1.7559 -0.3823 -4.3985
  316MOL0     H42626   3.272   9.111   2.705 -0.8948  1.8615 -1.0885
  316MOL0     H42627   3.301   9.112   2.528  0.4044 -2.1585  0.0774
  316MOL0     H42628   3.156   8.954   2.474 -0.0096  2.1825  0.2436
  316MOL0     H42629   3.173   8.866   2.629  3.8851  0.3681  1.0025
  316MOL0     H42630   3.023   9.122   2.622 -3.0419 -1.0120 -1.7713
  316MOL0     H42631   3.017   8.999   2.740  0.5387 -1.1786 -0.0895
  316MOL0     H42632   2.935   8.987   2.438  1.0528 -0.9352 -0.2569
  316MOL0     H42633   2.911   8.842   2.541  2.5981  0.0555  0.5501
  316MOL0     H42634   2.780   9.106   2.589 -2.2160  0.4987 -2.1067
  316MOL0     H42635   2.756   8.960   2.678  2.0783  0.9490  0.0097
  316MOL0     H42636   2.712   9.011   2.379  2.2132  0.5119  0.0892
  316MOL0     H42637   2.690   8.849   2.455  1.5398 -1.0192  1.8772
  316MOL0     H42638   2.465   8.972   2.420  1.1974  0.3879 -0.7353
  316MOL0     H42639   2.520   9.071   2.560  0.1851  1.4633 -2.1569
  316MOL0     H42640   2.510   8.903   2.708  2.2629  2.8036 -1.5044
  316MOL0     H42641   2.555   8.782   2.586  0.2457  1.0460  0.4919
  316MOL0     H42642   3.484   9.204   2.641  0.1097 -0.6932 -0.3253
  316MOL0     H42643   3.718   9.277   2.594 -2.7163 -0.4579  1.8145
  316MOL0     H42644   4.259   8.975   2.586 -3.4192  0.4798 -1.6562
  316MOL0     H42645   4.479   9.091   2.600 -1.5957 -3.5538  1.8706
  316MOL0     H42646   6.147   9.342   2.837 -0.4283 -0.0053  0.6321
  316MOL0     H42647   6.358   9.259   2.944  0.9128 -0.1110  1.8962
  316MOL0     H42648   6.455   8.975   3.324  0.5885 -1.7361 -1.5827
  316MOL0     H42649   6.666   8.839   3.382  0.4236 -0.4139  1.1960
  316MOL0     H42650   6.859   8.843   3.536  1.6303  1.4097  1.5580
  316MOL0     H42651   6.877   8.748   3.393  1.1606  0.6853 -1.0764
  316MOL0     H42652   7.139   8.784   3.408  1.8690 -0.3196  0.9017
  316MOL0     H42653   7.061   8.713   3.556 -1.3839  0.6106  0.3276
  316MOL0     H42654   7.068   8.918   3.682 -1.1820 -1.9767 -0.1589
  316MOL0     H42655   7.111   9.004   3.532 -0.0868 -2.1193 -2.4133
  316MOL0     H42656   7.332   8.960   3.671  1.7970 -1.5756 -0.1654
  316MOL0     H42657   7.325   8.866   3.528 -1.0617 -0.8526 -0.0047
  316MOL0     H42658   7.348   8.562   3.814  0.9375  0.7861 -0.6459
  316MOL0     H42659   6.894   9.178   3.281 -0.7833  0.5349  2.1003
  316MOL0     H42660   6.697   9.308   3.220 -0.6091 -0.3469 -0.8869
  317MOL0     O42661   9.751  10.343   7.973  0.4775 -0.3322 -0.2216
  317MOL0     C42662   9.806  10.454   7.979 -0.9918 -0.3440 -0.2249
  317MOL0     O42663   9.747  10.577   7.992  0.0755 -0.1789 -0.1369
  317MOL0     C42664   9.614  10.560   8.029  0.3090  0.1761  0.3143
  317MOL0     C42665   9.518  10.540   7.923  0.5690 -0.4722  0.6938
  317MOL0     C42666   9.389  10.521   7.945  0.3773 -0.6069 -0.4358
  317MOL0     C42667   9.347  10.510   8.078  0.3509  1.1493 -0.2367
  317MOL0     O42668   9.215  10.491   8.120  0.2516  0.1650  0.7061
  317MOL0     C42669   9.106  10.567   8.052  0.4860 -0.4789 -0.4442
  317MOL0     C42670   8.975  10.501   8.085  0.5198  0.9170  0.0069
  317MOL0     C42671   8.851  10.570   8.026  0.0374 -0.5384 -0.3716
  317MOL0     C42672   8.707  10.544   8.090  0.3200  0.2702  0.5866
  317MOL0     C42673   8.708  10.527   8.243 -0.0923  0.3868 -0.7167
  317MOL0     C42674   8.562  10.502   8.280 -0.1651  0.3352  0.2979
  317MOL0     C42675   8.551  10.457   8.420  0.8975 -0.1414 -0.5745
  317MOL0     C42676   8.416  10.403   8.440 -0.2394  0.2105 -0.3897
  317MOL0     N42677   8.388  10.389   8.583 -0.6390 -0.1563 -0.0044
  317MOL0     C42678   8.436  10.295   8.671  0.1470  0.5720 -1.3754
  317MOL0     C42679   8.387  10.330   8.793 -0.2008  0.4044 -0.4368
  317MOL0     C42680   8.402  10.244   8.918 -0.0659  0.0283  0.1926
  317MOL0     C42681   8.362  10.102   8.904  0.0693  1.1033 -0.5024
  317MOL0     C42682   8.225  10.081   8.832  0.1249 -0.5499 -0.2216
  317MOL0     C42683   8.102  10.134   8.912 -0.2796 -0.0832  0.0045
  317MOL0     O42684   8.067  10.071   9.033 -0.3257 -0.1489 -0.1531
  317MOL0     C42685   8.031  10.147   9.140 -0.4440  0.3874 -0.4792
  317MOL0     C42686   8.036  10.081   9.262 -0.2392 -0.8476  0.1932
  317MOL0     C42687   7.995  10.145   9.378 -0.6723 -0.0896 -0.0399
  317MOL0     C42688   8.022  10.070   9.505 -0.5755 -0.3946 -1.0777
  317MOL0     C42689   7.939  10.272   9.387  0.4183  0.0855  0.2062
  317MOL0     C42690   7.879  10.325   9.506  0.4189  0.1973 -0.8542
  317MOL0     O42691   7.863  10.455   9.507 -0.5588  0.3854 -0.3772
  317MOL0     C42692   7.773  10.514   9.589  0.6895  0.2922 -0.1545
  317MOL0     C42693   7.667  10.573   9.521  0.0897 -0.1325 -0.2038
  317MOL0     C42694   7.578  10.664   9.586  0.2212  0.1236  0.3338
  317MOL0     C42695   7.586  10.675   9.725  0.8770  0.0985 -0.0202
  317MOL0     O42696   7.491  10.740   9.800 -0.0937 -0.1915 -0.5547
  317MOL0     C42697   7.395  10.803   9.729  0.3654  0.0167 -0.1081
  317MOL0     C42698   7.306  10.878   9.826  0.6002  0.0670 -0.3192
  317MOL0     C42699   7.177  10.943   9.780 -0.0512 -0.0130  0.5403
  317MOL0     C42700   7.110  11.009   9.892 -0.6495 -1.2087  0.0450
  317MOL0     C42701   6.980  11.073   9.852  0.8143  0.8170  0.3043
  317MOL0     C42702   6.935  11.155   9.978 -0.3895 -0.4577  0.5855
  317MOL0     C42703   6.815  11.250   9.940  0.4979 -0.7904  0.2130
  317MOL0     C42704   6.737  11.326  10.048  0.1283 -0.8468 -0.8947
  317MOL0    Cl42705   6.671  11.211  10.167  0.2872  0.1236  0.0125
  317MOL0     C42706   7.681  10.595   9.793  0.2601  0.1205  0.2628
  317MOL0     C42707   7.774  10.520   9.726  0.4057 -0.0211  0.1240
  317MOL0     O42708   7.823  10.244   9.586  0.1133 -0.1979  0.2130
  317MOL0     C42709   7.937  10.341   9.260 -0.7145  0.7741  0.1526
  317MOL0     C42710   7.980  10.277   9.142 -0.3507 -0.4490  0.2487
  317MOL0     N42711   8.316  10.446   8.788  0.3425  0.1827  0.0037
  317MOL0     N42712   8.316  10.482   8.659  0.7459 -0.0025 -0.0706
  317MOL0     C42713   9.440  10.520   8.187  1.0326  0.0576  1.6052
  317MOL0     C42714   9.573  10.550   8.164 -0.9281  0.9905  0.1976
  317MOL0     C42715   9.956  10.442   7.968  0.3478 -0.1433  0.2612
  317MOL0     C42716  10.037  10.547   7.999  0.0491 -0.5024 -0.1006
  317MOL0     C42717  10.177  10.538   7.989  0.1210 -0.1031 -0.2635
  317MOL0     C42718  10.239  10.421   7.945  0.5121 -0.8296 -1.0540
  317MOL0     O42719  10.377  10.419   7.952  0.7721 -0.1890 -0.0010
  317MOL0     C42720  10.461  10.324   7.881  0.1144 -0.6770 -1.0623
  317MOL0     C42721  10.600  10.379   7.883 -0.1804  0.7136  0.7499
  317MOL0     C42722  10.691  10.294   7.781 -0.3483  0.7043  0.3548
  317MOL0     C42723  10.832  10.364   7.768  0.8198 -0.1964  0.1266
  317MOL0     C42724  10.918  10.316   7.655 -0.4795 -0.3078 -0.4244
  317MOL0     C42725  10.972  10.302   7.550  0.3296  0.1363 -0.1749
  317MOL0     C42726  10.157  10.321   7.909  0.3387  0.0410  0.4765
  317MOL0     C42727  10.024  10.320   7.927  0.9085 -1.4381  0.5807
  317MOL0     H42728   9.563  10.529   7.825  1.0321 -1.4392  1.0119
  317MOL0     H42729   9.317  10.511   7.865  0.5776  2.6346 -1.1617
  317MOL0     H42730   9.105  10.667   8.096 -0.0702 -1.3196  1.5632
  317MOL0     H42731   9.114  10.574   7.943 -0.1694  1.1197 -0.4149
  317MOL0     H42732   8.969  10.404   8.035  2.8647  0.9742 -0.4983
  317MOL0     H42733   8.961  10.484   8.192 -3.8999  0.9353 -0.3815
  317MOL0     H42734   8.872  10.676   8.038 -2.1099  0.0203 -1.0945
  317MOL0     H42735   8.837  10.557   7.918  1.2058  1.8093 -0.8751
  317MOL0     H42736   8.655  10.638   8.070  0.1014  0.1289  0.4881
  317MOL0     H42737   8.663  10.458   8.038 -0.5318 -1.2230  3.6006
  317MOL0     H42738   8.771  10.440   8.267 -1.3244 -0.5806 -0.9010
  317MOL0     H42739   8.740  10.613   8.302 -2.0066  0.8040 -0.2235
  317MOL0     H42740   8.504  10.593   8.265 -1.2334 -0.0805  1.6899
  317MOL0     H42741   8.535  10.419   8.213 -0.4044  1.3826 -0.9481
  317MOL0     H42742   8.624  10.377   8.431 -0.4841 -1.3598  0.1579
  317MOL0     H42743   8.564  10.538   8.491 -2.2535 -1.9289  2.3577
  317MOL0     H42744   8.407  10.305   8.393 -1.6999  1.2369 -2.4498
  317MOL0     H42745   8.336  10.469   8.404 -1.0274 -0.3785  0.2612
  317MOL0     H42746   8.495  10.208   8.644 -1.5646 -0.8554 -0.7486
  317MOL0     H42747   8.509  10.249   8.939  0.8873 -2.9727 -3.0837
  317MOL0     H42748   8.342  10.295   8.994  3.3251  1.7253  1.9688
  317MOL0     H42749   8.360  10.049   9.000 -0.8613  0.0255 -1.0903
  317MOL0     H42750   8.440  10.060   8.840  1.2917  0.8854  1.0710
  317MOL0     H42751   8.212   9.975   8.808  0.1107 -0.5996  0.0052
  317MOL0     H42752   8.216  10.126   8.733  0.6005 -1.4164 -0.6593
  317MOL0     H42753   8.017  10.113   8.847 -1.2712 -0.9268  1.5181
  317MOL0     H42754   8.109  10.243   8.920  1.6276 -0.2115  0.5801
  317MOL0     H42755   8.070   9.978   9.268  2.8557 -0.0150 -1.0015
  317MOL0     H42756   8.051  10.138   9.586 -1.7704 -0.3691 -0.6621
  317MOL0     H42757   7.928  10.024   9.535 -0.9898 -1.1300 -3.3180
  317MOL0     H42758   8.094   9.988   9.503  0.4144  0.4425 -1.0196
  317MOL0     H42759   7.663  10.559   9.413 -2.7416 -1.6283 -0.0049
  317MOL0     H42760   7.510  10.722   9.524 -0.1691  0.4083  1.0200
  317MOL0     H42761   7.447  10.883   9.675  0.1727 -0.1184 -0.4956
  317MOL0     H42762   7.337  10.735   9.666  0.2536 -0.2996  0.3387
  317MOL0     H42763   7.269  10.798   9.891  1.1041 -1.5871 -1.9901
  317MOL0     H42764   7.372  10.947   9.880  1.6437 -2.0807  1.3056
  317MOL0     H42765   7.107  10.875   9.730 -1.5353 -1.5445  4.3755
  317MOL0     H42766   7.207  11.020   9.708 -2.6512  0.5811 -0.0122
  317MOL0     H42767   7.096  10.946   9.980 -0.7144 -1.4832 -0.1595
  317MOL0     H42768   7.176  11.089   9.924 -2.5279  0.0423  0.9850
  317MOL0     H42769   6.907  10.995   9.828 -0.7883  2.2853  0.2184
  317MOL0     H42770   6.991  11.128   9.758  3.2965  0.5237  0.3455
  317MOL0     H42771   6.919  11.080  10.056  0.8141 -2.2256 -0.7778
  317MOL0     H42772   7.018  11.221  10.004 -0.7685  0.6952 -0.9379
  317MOL0     H42773   6.730  11.190   9.906 -0.5569 -1.1328  3.2243
  317MOL0     H42774   6.827  11.322   9.858  0.4424  0.6886  1.4639
  317MOL0     H42775   6.658  11.382   9.996 -0.5690 -0.0890  0.9026
  317MOL0     H42776   6.801  11.399  10.098 -2.0052  0.6524 -0.1919
  317MOL0     H42777   7.695  10.602   9.900  0.0618  3.5346  0.1722
  317MOL0     H42778   7.846  10.460   9.781 -1.0749 -0.8540  1.2451
  317MOL0     H42779   7.905  10.444   9.248  2.4137  1.6843 -1.6581
  317MOL0     H42780   7.956  10.323   9.047 -1.6329  1.4532  1.4284
  317MOL0     H42781   9.405  10.505   8.289 -0.7402  0.0789  1.0284
  317MOL0     H42782   9.644  10.569   8.245  0.1724  1.4444 -0.8343
  317MOL0     H42783   9.988  10.643   8.016  1.3125  0.3676 -1.1143
  317MOL0     H42784  10.245  10.615   8.026  1.9386 -1.0638 -1.4712
  317MOL0     H42785  10.460  10.226   7.929 -0.0127 -0.6614 -1.0322
  317MOL0     H42786  10.423  10.307   7.779 -3.8808 -2.9506  0.5654
  317MOL0     H42787  10.632  10.381   7.987  1.4601 -0.6730  0.2989
  317MOL0     H42788  10.607  10.481   7.843 -0.8477  0.1991 -0.7995
  317MOL0     H42789  10.643  10.309   7.684 -3.9893  0.9927  2.0455
  317MOL0     H42790  10.684  10.189   7.809 -0.5167  0.3628 -0.9103
  317MOL0     H42791  10.881  10.348   7.865  3.1827  2.6295 -0.4515
  317MOL0     H42792  10.823  10.473   7.767 -0.3682 -0.2625  1.1250
  317MOL0     H42793  11.013  10.295   7.452 -0.1120  0.1755 -0.3659
  317MOL0     H42794  10.215  10.232   7.888 -1.4852 -1.2194  0.6134
  317MOL0     H42795   9.968  10.233   7.895  3.2582 -3.1613  0.9001
  318MOL0     O42796   2.006   6.402   5.980  0.3366  0.5097  0.0111
  318MOL0     C42797   2.085   6.334   6.048 -0.6666  0.2962 -0.5095
  318MOL0     O42798   2.043   6.250   6.152  0.1242 -0.4950 -0.1560
  318MOL0     C42799   1.915   6.211   6.175 -1.1790 -0.4013  0.9420
  318MOL0     C42800   1.818   6.200   6.073  0.4978  0.5353 -0.5094
  318MOL0     C42801   1.693   6.146   6.104 -0.1215  0.6209  0.4981
  318MOL0     C42802   1.663   6.101   6.236  0.2728  0.0954 -0.4290
  318MOL0     O42803   1.541   6.064   6.279  0.0407 -0.9679  0.3541
  318MOL0     C42804   1.428   6.096   6.200  0.2318 -0.2099  0.3256
  318MOL0     C42805   1.306   6.038   6.280 -0.3041 -0.4287 -0.1520
  318MOL0     C42806   1.176   6.081   6.227 -0.4204 -0.3408 -0.5361
  318MOL0     C42807   1.070   6.015   6.312  0.6068 -0.0417 -0.3323
  318MOL0     C42808   0.930   6.063   6.272 -0.8752  0.2161 -0.1850
  318MOL0     C42809   0.821   6.016   6.372  0.2211 -0.1209  0.0169
  318MOL0     C42810   0.693   6.096   6.374 -0.1278 -0.1031 -0.3956
  318MOL0     C42811   0.578   6.017   6.447 -0.3906  0.5176 -0.1976
  318MOL0     N42812   0.452   6.051   6.393 -0.0231 -0.1048  0.4440
  318MOL0     C42813   0.413   6.165   6.337 -0.0609  0.9190 -0.8283
  318MOL0     C42814   0.283   6.156   6.308 -0.2628 -0.3491  0.4470
  318MOL0     C42815   0.199   6.252   6.240  0.5376 -0.0476  0.3004
  318MOL0     C42816   0.270   6.329   6.120 -0.6537  0.0325  0.4263
  318MOL0     C42817   0.180   6.360   6.002 -0.3634  0.3916 -0.3086
  318MOL0     C42818   0.077   6.458   6.031  0.2172 -0.3564  1.0907
  318MOL0     O42819   0.001   6.488   5.910  0.2131  0.3467 -0.6170
  318MOL0     C42820  -0.129   6.445   5.916 -0.2147  0.2796 -0.2911
  318MOL0     C42821  -0.178   6.326   5.969  0.8885 -0.7757 -0.0105
  318MOL0     C42822  -0.318   6.307   5.980  1.1812  0.4558  0.7883
  318MOL0     C42823  -0.364   6.163   6.017  0.0899  0.3917  0.3708
  318MOL0     C42824  -0.414   6.397   5.922 -0.2771  0.1134 -0.5669
  318MOL0     C42825  -0.562   6.372   5.898 -0.4368  0.6807 -0.7668
  318MOL0     O42826  -0.642   6.479   5.882  0.8370  0.2818 -0.1145
  318MOL0     C42827  -0.781   6.453   5.893  0.2988 -0.4233  0.1498
  318MOL0     C42828  -0.837   6.384   5.997 -0.5963  0.0215  0.4308
  318MOL0     C42829  -0.974   6.362   5.988 -0.0930  0.6199  0.7351
  318MOL0     C42830  -1.061   6.420   5.898 -0.3819  0.2880  0.1788
  318MOL0     O42831  -1.195   6.384   5.901  0.1170 -0.3896 -0.5687
  318MOL0     C42832  -1.276   6.497   5.867  0.3624  0.4273 -0.0206
  318MOL0     C42833  -1.402   6.485   5.959 -0.8139  0.8634  0.2234
  318MOL0     C42834  -1.495   6.361   5.942  0.6482 -0.1958  0.5921
  318MOL0     C42835  -1.624   6.380   6.022 -0.6393 -0.1110 -1.4531
  318MOL0     C42836  -1.734   6.278   5.981 -0.3514 -0.2490  0.5878
  318MOL0     C42837  -1.860   6.306   6.066  0.7200 -0.0604  1.1051
  318MOL0     C42838  -1.952   6.191   6.040 -0.1697  0.4109  0.7889
  318MOL0     C42839  -2.094   6.219   6.101 -0.1394 -0.5526  0.6770
  318MOL0    Cl42840  -2.201   6.086   6.059 -0.5614 -0.2152  0.1500
  318MOL0     C42841  -1.000   6.489   5.795  0.2834  0.6946  0.2192
  318MOL0     C42842  -0.868   6.491   5.783 -0.7140  0.5692  0.7739
  318MOL0     O42843  -0.586   6.255   5.880  0.0827  0.1140  0.4774
  318MOL0     C42844  -0.363   6.520   5.870  0.1158  0.3240  0.3878
  318MOL0     C42845  -0.223   6.543   5.870  0.1387 -0.1590  0.0294
  318MOL0     N42846   0.245   6.033   6.347 -1.2143  0.6875 -0.7807
  318MOL0     N42847   0.341   5.971   6.409 -0.3239 -0.5713  0.0904
  318MOL0     C42848   1.761   6.120   6.338 -0.1355  0.8518 -0.4402
  318MOL0     C42849   1.891   6.163   6.308  0.1835 -0.5777  0.4777
  318MOL0     C42850   2.228   6.379   6.039 -1.1483  0.7098 -0.1166
  318MOL0     C42851   2.258   6.492   5.967 -0.2609  0.2642  0.4883
  318MOL0     C42852   2.394   6.533   5.967 -0.0473 -0.3304 -0.3680
  318MOL0     C42853   2.496   6.480   6.046 -0.4368  0.0797  0.1166
  318MOL0     O42854   2.619   6.542   6.066 -0.2345 -0.1438  0.3583
  318MOL0     C42855   2.738   6.456   6.036  0.7920  0.0542 -0.4175
  318MOL0     C42856   2.795   6.493   5.893  0.5491  0.3069 -1.2391
  318MOL0     C42857   2.911   6.389   5.853  0.7093  0.0625 -0.8491
  318MOL0     C42858   3.057   6.432   5.892 -0.0061 -0.7755  1.5339
  318MOL0     C42859   3.059   6.468   6.031  0.4182 -0.5741  0.4201
  318MOL0     C42860   3.067   6.507   6.153 -0.7712  0.4682  0.4570
  318MOL0     C42861   2.466   6.365   6.123  0.7907  0.4830  0.3651
  318MOL0     C42862   2.331   6.312   6.116 -0.5888 -0.0086  0.1481
  318MOL0     H42863   1.834   6.228   5.970  0.1746  1.2857 -0.3625
  318MOL0     H42864   1.611   6.147   6.033  0.1348  0.8988  0.2013
  318MOL0     H42865   1.410   6.204   6.200  0.0345 -0.2127  1.8620
  318MOL0     H42866   1.441   6.054   6.100  0.0533 -1.6478  0.8909
  318MOL0     H42867   1.312   5.929   6.273 -1.8911 -0.5651  0.2614
  318MOL0     H42868   1.319   6.070   6.384 -0.7442  2.4421 -0.8880
  318MOL0     H42869   1.169   6.191   6.231 -2.0108 -0.1423 -4.5785
  318MOL0     H42870   1.169   6.044   6.125 -1.7958 -1.5385 -0.0399
  318MOL0     H42871   1.079   5.906   6.309  0.2239 -0.0915  0.2024
  318MOL0     H42872   1.081   6.053   6.414 -1.9471  2.7036 -0.9517
  318MOL0     H42873   0.925   6.172   6.272 -0.4998  0.2567  1.3593
  318MOL0     H42874   0.893   6.028   6.175 -0.2966 -2.2459  0.4007
  318MOL0     H42875   0.786   5.922   6.329 -2.4249 -0.8120  3.2369
  318MOL0     H42876   0.863   5.998   6.472  1.0213  0.0963 -0.2762
  318MOL0     H42877   0.718   6.191   6.423  0.3500 -0.8317  0.8185
  318MOL0     H42878   0.666   6.111   6.269  0.8376 -2.1937 -0.9922
  318MOL0     H42879   0.589   6.037   6.554  0.3294  0.5239 -0.2720
  318MOL0     H42880   0.589   5.908   6.440  0.5336  0.6283 -0.5959
  318MOL0     H42881   0.462   6.261   6.332  2.0275  0.0065  0.6744
  318MOL0     H42882   0.116   6.197   6.194 -0.1046  0.1273  1.2249
  318MOL0     H42883   0.170   6.333   6.308  1.1365  2.0939 -1.8571
  318MOL0     H42884   0.356   6.272   6.085  0.1937 -0.6219  3.2616
  318MOL0     H42885   0.315   6.424   6.151 -1.0687 -0.1748  1.7558
  318MOL0     H42886   0.140   6.267   5.961 -0.6697  0.2641  0.2694
  318MOL0     H42887   0.242   6.399   5.921 -0.8557  1.0969 -0.3529
  318MOL0     H42888   0.116   6.553   6.069  1.8358 -0.4073 -0.3142
  318MOL0     H42889   0.019   6.429   6.119  0.2859  0.7485  1.5198
  318MOL0     H42890  -0.119   6.237   5.989  1.1596 -1.1517 -2.3101
  318MOL0     H42891  -0.450   6.156   6.085  0.4309 -0.3543  0.7468
  318MOL0     H42892  -0.377   6.106   5.925 -0.8742  2.2363 -0.6939
  318MOL0     H42893  -0.284   6.115   6.074  0.2468  0.6248  0.3468
  318MOL0     H42894  -0.782   6.331   6.074 -2.4768 -0.9330  1.1857
  318MOL0     H42895  -1.023   6.323   6.076  0.0310 -0.6052  0.2879
  318MOL0     H42896  -1.226   6.594   5.880  0.7099  0.2236  0.1934
  318MOL0     H42897  -1.325   6.497   5.770 -0.3260  1.8498  0.3021
  318MOL0     H42898  -1.351   6.492   6.056  1.9398  2.5146 -1.2193
  318MOL0     H42899  -1.467   6.571   5.947 -3.0574 -0.3416  2.6701
  318MOL0     H42900  -1.452   6.267   5.977 -0.5263 -0.3465  1.6955
  318MOL0     H42901  -1.516   6.341   5.837  0.0763  0.1920  0.6300
  318MOL0     H42902  -1.600   6.372   6.128 -1.4016  0.8157 -1.2003
  318MOL0     H42903  -1.656   6.483   6.007 -1.0646  0.1762  1.0182
  318MOL0     H42904  -1.712   6.176   6.015 -2.2120 -1.0369 -0.4382
  318MOL0     H42905  -1.751   6.283   5.874  2.1271  1.1591  0.1801
  318MOL0     H42906  -1.836   6.313   6.173 -2.4302  0.8890  1.8532
  318MOL0     H42907  -1.905   6.403   6.042  2.6649  1.5999  3.5946
  318MOL0     H42908  -1.906   6.099   6.079  0.4811  1.4293  2.5362
  318MOL0     H42909  -1.969   6.178   5.932 -0.6940  0.2931  0.8875
  318MOL0     H42910  -2.134   6.308   6.052  0.4652 -0.2979  0.6389
  318MOL0     H42911  -2.098   6.242   6.208  0.5158  1.2602  0.3512
  318MOL0     H42912  -1.068   6.530   5.721 -1.7286 -0.2264  1.4484
  318MOL0     H42913  -0.818   6.546   5.704 -0.6419 -0.0569  0.3798
  318MOL0     H42914  -0.427   6.584   5.810  1.1241 -1.3218 -2.6595
  318MOL0     H42915  -0.181   6.637   5.837  0.8213 -1.4765 -3.2835
  318MOL0     H42916   1.726   6.103   6.439 -2.4079  0.8548 -1.1559
  318MOL0     H42917   1.967   6.171   6.385  0.9644 -0.6908 -0.2593
  318MOL0     H42918   2.183   6.539   5.904  0.1256  2.2590  1.4118
  318MOL0     H42919   2.413   6.624   5.911  0.3096 -0.0678  0.1667
  318MOL0     H42920   2.818   6.466   6.110  0.1134 -1.4447  0.5699
  318MOL0     H42921   2.704   6.352   6.033 -0.7910  0.5543 -0.6270
  318MOL0     H42922   2.830   6.597   5.892  3.2064 -0.4822  0.1443
  318MOL0     H42923   2.714   6.490   5.819 -0.8612  3.9304 -0.0609
  318MOL0     H42924   2.915   6.384   5.744 -1.5356 -1.3769 -0.9537
  318MOL0     H42925   2.889   6.286   5.885 -3.1036  0.2327 -2.3653
  318MOL0     H42926   3.082   6.516   5.826 -2.7277 -1.1186 -0.0625
  318MOL0     H42927   3.122   6.348   5.865 -1.4305 -1.4427  0.0130
  318MOL0     H42928   3.081   6.551   6.250  1.2504  1.6702 -0.3270
  318MOL0     H42929   2.540   6.316   6.185 -0.6555  0.1174  1.8854
  318MOL0     H42930   2.307   6.218   6.164  0.7700 -1.2181 -1.4355
  319MOL0     O42931   8.207   6.930   4.008 -0.0483 -0.1110  0.3409
  319MOL0     C42932   8.243   6.889   3.895  0.8536 -0.1426  0.6860
  319MOL0     O42933   8.173   6.799   3.811  0.2442  0.2780 -0.6162
  319MOL0     C42934   8.046   6.755   3.848  0.1751 -0.1045  0.0168
  319MOL0     C42935   8.010   6.625   3.864  0.7043  0.6695  0.3419
  319MOL0     C42936   7.875   6.595   3.886 -0.0205  0.2545  0.8884
  319MOL0     C42937   7.778   6.698   3.909 -0.3139  0.1880  0.5143
  319MOL0     O42938   7.648   6.678   3.943  0.2907 -0.8839 -1.1154
  319MOL0     C42939   7.584   6.548   3.946  0.7657  1.1387  0.2343
  319MOL0     C42940   7.440   6.557   4.008 -0.7074 -0.6024 -0.8126
  319MOL0     C42941   7.346   6.651   3.935  0.8042 -0.4730  0.2801
  319MOL0     C42942   7.208   6.649   4.002 -0.8911 -0.3447  0.4014
  319MOL0     C42943   7.109   6.714   3.904  0.7668  0.9818  0.5445
  319MOL0     C42944   6.974   6.722   3.980 -0.7072 -0.9606 -0.2773
  319MOL0     C42945   6.859   6.790   3.897  0.5722 -0.0758 -0.0252
  319MOL0     C42946   6.718   6.733   3.909  0.5000  0.0861 -0.0097
  319MOL0     N42947   6.628   6.826   3.835  0.7283  0.5901  0.4237
  319MOL0     C42948   6.572   6.937   3.887 -0.0088 -0.0848 -0.6791
  319MOL0     C42949   6.504   6.992   3.787 -0.2789 -0.2100  0.4516
  319MOL0     C42950   6.414   7.117   3.805  0.1671  1.0787 -0.1707
  319MOL0     C42951   6.314   7.137   3.691  0.2023 -0.9237 -0.8557
  319MOL0     C42952   6.210   7.238   3.713 -0.3714 -0.2952 -0.3151
  319MOL0     C42953   6.132   7.292   3.585 -0.1462 -0.3539  0.1763
  319MOL0     O42954   6.000   7.313   3.633  0.5076 -0.0033  0.3087
  319MOL0     C42955   5.916   7.401   3.564  0.8566 -0.6203 -0.9369
  319MOL0     C42956   5.804   7.456   3.636  0.0041 -0.8794 -0.3357
  319MOL0     C42957   5.718   7.540   3.568  0.8305 -0.6215 -0.2093
  319MOL0     C42958   5.590   7.564   3.630 -0.2927 -0.5014  0.0278
  319MOL0     C42959   5.755   7.582   3.439  0.3859  0.1815 -0.0542
  319MOL0     C42960   5.673   7.681   3.366  0.4248 -0.4984  0.4185
  319MOL0     O42961   5.674   7.662   3.234 -0.5243  0.1979  0.1938
  319MOL0     C42962   5.579   7.727   3.157  0.3883 -0.2085  0.8675
  319MOL0     C42963   5.604   7.809   3.045  0.4989 -0.8562  0.1229
  319MOL0     C42964   5.504   7.872   2.974  0.8750 -0.7007 -0.0845
  319MOL0     C42965   5.368   7.846   2.998  0.0315 -0.8146 -0.1975
  319MOL0     O42966   5.267   7.903   2.928 -0.8019 -0.4577 -0.1143
  319MOL0     C42967   5.272   8.047   2.906  0.0528  0.2260 -0.7972
  319MOL0     C42968   5.151   8.092   2.824  0.0750 -0.2838  0.2520
  319MOL0     C42969   5.021   8.057   2.893  0.2835 -0.6245  0.0069
  319MOL0     C42970   4.952   7.947   2.814 -0.4891  0.0474  0.7239
  319MOL0     C42971   4.831   7.898   2.886 -1.2383  0.0149  0.2015
  319MOL0     C42972   4.699   7.987   2.887 -0.4311  0.0394  0.7850
  319MOL0     C42973   4.585   7.933   2.977 -0.6948  0.0954 -0.8322
  319MOL0     C42974   4.448   7.981   2.935  0.0258 -0.2521  0.4113
  319MOL0    Cl42975   4.412   7.902   2.778  0.5075  0.2509  0.2172
  319MOL0     C42976   5.342   7.768   3.108  0.9614 -0.6068  0.8056
  319MOL0     C42977   5.441   7.715   3.188 -0.0139  0.0745 -0.0948
  319MOL0     O42978   5.617   7.773   3.425 -0.2302  0.2297  0.3069
  319MOL0     C42979   5.863   7.524   3.380 -1.0883 -0.4081 -0.0290
  319MOL0     C42980   5.948   7.436   3.439  0.0797  0.0098  0.4676
  319MOL0     N42981   6.508   6.907   3.678  0.3671 -0.3087  0.7086
  319MOL0     N42982   6.583   6.809   3.709  0.6281 -0.2737  0.5124
  319MOL0     C42983   7.818   6.837   3.894  0.7057 -0.1568 -0.5305
  319MOL0     C42984   7.950   6.864   3.859  0.3774  0.7736 -0.2848
  319MOL0     C42985   8.378   6.930   3.853 -0.5147 -0.8378 -0.3624
  319MOL0     C42986   8.426   7.053   3.903 -0.5328  0.1990 -1.0847
  319MOL0     C42987   8.561   7.091   3.893  0.6663  0.1422  0.8414
  319MOL0     C42988   8.649   7.004   3.817  0.1365  0.0702  0.4478
  319MOL0     O42989   8.782   7.034   3.807 -0.8387 -0.0227 -0.6342
  319MOL0     C42990   8.834   7.166   3.814 -0.5249  0.1005  0.0332
  319MOL0     C42991   8.913   7.190   3.682  0.0051 -0.2091  0.3811
  319MOL0     C42992   8.971   7.334   3.661  0.1069 -0.1002  0.2289
  319MOL0     C42993   9.088   7.365   3.753  0.3246  0.0728 -0.0503
  319MOL0     C42994   9.054   7.391   3.889 -0.0233  1.0007 -0.6774
  319MOL0     C42995   9.058   7.416   4.009 -0.4777  0.9852 -0.4098
  319MOL0     C42996   8.590   6.891   3.759  0.5832 -0.2615 -0.3891
  319MOL0     C42997   8.457   6.847   3.777 -0.3980  0.0045 -0.2564
  319MOL0     H42998   8.085   6.547   3.869  0.7329  0.7474  1.1813
  319MOL0     H42999   7.856   6.490   3.903 -1.8334  0.6937  1.9240
  319MOL0     H43000   7.563   6.506   3.847  1.8792 -1.3862  0.9708
  319MOL0     H43001   7.643   6.472   3.999 -3.0118 -2.2860 -0.0470
  319MOL0     H43002   7.394   6.457   4.004 -2.6299  0.2357 -0.9794
  319MOL0     H43003   7.441   6.586   4.114 -1.0320  0.0893 -0.9975
  319MOL0     H43004   7.390   6.751   3.930  1.6703 -0.8589 -0.0704
  319MOL0     H43005   7.342   6.610   3.833  0.2057  0.7471 -0.2022
  319MOL0     H43006   7.173   6.550   4.034 -0.8437 -1.4670 -2.7453
  319MOL0     H43007   7.212   6.699   4.099  0.0871 -2.0141  1.2662
  319MOL0     H43008   7.142   6.813   3.871  1.3301  1.4859  2.4777
  319MOL0     H43009   7.108   6.652   3.814  1.2873 -0.8439  1.7415
  319MOL0     H43010   6.932   6.624   4.009 -1.6222 -0.8647 -1.2023
  319MOL0     H43011   6.996   6.765   4.078  1.3686 -1.0901 -0.6454
  319MOL0     H43012   6.854   6.893   3.933 -0.8344 -0.8050  2.0133
  319MOL0     H43013   6.879   6.789   3.789  0.0645  1.7756 -0.1711
  319MOL0     H43014   6.686   6.714   4.011 -0.8936  0.5379 -0.3480
  319MOL0     H43015   6.729   6.642   3.848 -0.9953 -0.0691 -0.0666
  319MOL0     H43016   6.592   6.976   3.986 -0.3888 -0.8985 -0.2694
  319MOL0     H43017   6.351   7.094   3.892 -0.5238 -3.3726 -1.6087
  319MOL0     H43018   6.472   7.210   3.812  0.0553  1.0041  2.5901
  319MOL0     H43019   6.263   7.041   3.682  0.0004 -0.8594 -0.4401
  319MOL0     H43020   6.370   7.160   3.600  2.6130  1.1045  0.9792
  319MOL0     H43021   6.240   7.327   3.769 -3.0168 -1.0119  2.4985
  319MOL0     H43022   6.135   7.188   3.775 -0.5956  0.2810 -0.1183
  319MOL0     H43023   6.126   7.209   3.514  0.2201  1.2538 -1.8137
  319MOL0     H43024   6.174   7.385   3.546 -0.8985 -0.2044 -0.3145
  319MOL0     H43025   5.795   7.424   3.740 -0.5818  0.2857 -0.0135
  319MOL0     H43026   5.590   7.670   3.657  1.1552 -0.8323  1.4943
  319MOL0     H43027   5.512   7.541   3.557  1.0292 -1.1592 -1.2150
  319MOL0     H43028   5.561   7.511   3.721  1.8982 -0.7026  0.6645
  319MOL0     H43029   5.710   7.831   3.031  0.9590 -1.4817  2.1879
  319MOL0     H43030   5.537   7.952   2.909  2.6536 -1.5336 -0.2510
  319MOL0     H43031   5.277   8.101   3.002 -0.2060  2.7479 -2.1027
  319MOL0     H43032   5.357   8.071   2.842  0.7334  0.6279  0.2187
  319MOL0     H43033   5.168   8.200   2.811  2.1983 -0.6579 -0.6370
  319MOL0     H43034   5.151   8.043   2.726 -2.7352 -1.4936  0.7727
  319MOL0     H43035   4.948   8.139   2.887  0.5101 -0.5137 -2.7232
  319MOL0     H43036   5.044   8.025   2.995 -1.4226 -4.6636 -0.6939
  319MOL0     H43037   4.916   7.982   2.717  3.7465 -0.6112 -1.3035
  319MOL0     H43038   5.025   7.866   2.809 -2.2305 -1.5884  0.8141
  319MOL0     H43039   4.859   7.885   2.991 -1.6441  3.2496  0.7991
  319MOL0     H43040   4.815   7.794   2.854  0.5063 -1.1556  2.7635
  319MOL0     H43041   4.709   8.091   2.920 -1.4146  1.4952 -3.0392
  319MOL0     H43042   4.662   7.997   2.785 -1.1464 -0.6593  0.9643
  319MOL0     H43043   4.600   7.966   3.081  0.3833  0.7331 -1.1724
  319MOL0     H43044   4.591   7.825   2.995 -0.5119  0.3604  0.8983
  319MOL0     H43045   4.439   8.090   2.932 -0.5451 -0.2627  1.3627
  319MOL0     H43046   4.370   7.944   3.002 -0.3861  0.1432  0.1562
  319MOL0     H43047   5.239   7.740   3.129  0.9417 -1.2752 -0.1590
  319MOL0     H43048   5.405   7.656   3.271 -0.1041  1.9311  1.2506
  319MOL0     H43049   5.887   7.560   3.280  0.8124  0.9344  0.8456
  319MOL0     H43050   6.032   7.396   3.383 -0.0191 -0.6214  0.7625
  319MOL0     H43051   7.740   6.912   3.905  1.2373  0.5733 -1.5743
  319MOL0     H43052   7.991   6.964   3.844  0.7754  0.7432  0.5595
  319MOL0     H43053   8.361   7.113   3.966  0.7152 -1.5314  2.0870
  319MOL0     H43054   8.602   7.171   3.954 -0.7489  2.0124 -0.5568
  319MOL0     H43055   8.758   7.245   3.825  0.5243  1.0188  0.9171
  319MOL0     H43056   8.909   7.167   3.893 -0.6538 -0.4637  0.1615
  319MOL0     H43057   8.844   7.172   3.599  0.2640 -2.9655  0.6811
  319MOL0     H43058   9.003   7.128   3.670  1.5053  2.1633 -1.6782
  319MOL0     H43059   8.888   7.403   3.679  1.0321  0.6185  2.0005
  319MOL0     H43060   8.999   7.354   3.558  0.8485 -2.6157 -0.1376
  319MOL0     H43061   9.146   7.444   3.705  0.7410 -1.9779 -3.2642
  319MOL0     H43062   9.154   7.279   3.768  0.6827  0.4834  0.8179
  319MOL0     H43063   9.079   7.462   4.103  1.0824  2.2071 -1.3019
  319MOL0     H43064   8.654   6.842   3.686  0.1148 -0.0371 -0.9552
  319MOL0     H43065   8.410   6.764   3.726  0.3845  0.1172 -1.2070
  320MOL0     O43066   2.252   9.594   8.804  0.8016  0.9529  0.7079
  320MOL0     C43067   2.261   9.631   8.918 -1.2776 -0.4494  0.4763
  320MOL0     O43068   2.158   9.689   8.984 -0.4053  0.5076  0.3960
  320MOL0     C43069   2.040   9.697   8.928  0.7111  0.6559  0.2630
  320MOL0     C43070   1.989   9.821   8.884 -0.8733 -0.3562 -0.0477
  320MOL0     C43071   1.867   9.825   8.816 -0.4481  0.7398  0.3188
  320MOL0     C43072   1.797   9.707   8.790  0.6939 -0.3319  0.8050
  320MOL0     O43073   1.679   9.700   8.715  0.2388 -0.1539  0.0109
  320MOL0     C43074   1.628   9.822   8.679 -0.2950  0.2564 -0.2200
  320MOL0     C43075   1.482   9.789   8.631  0.1675  0.1816  0.2622
  320MOL0     C43076   1.417   9.898   8.539 -0.3042 -0.1068  0.0005
  320MOL0     C43077   1.266   9.880   8.526 -0.4261  0.7898  0.3865
  320MOL0     C43078   1.201   9.994   8.442 -0.1616 -0.1357 -0.1355
  320MOL0     C43079   1.048   9.994   8.444  0.3460  0.2784 -0.1786
  320MOL0     C43080   0.983  10.125   8.401 -0.9002  0.3853  0.1951
  320MOL0     C43081   0.975  10.120   8.253 -0.3314 -0.1139 -0.4179
  320MOL0     N43082   0.876  10.205   8.187 -0.1766 -0.7415 -0.5115
  320MOL0     C43083   0.878  10.347   8.207 -0.6514  0.2874 -0.3125
  320MOL0     C43084   0.743  10.385   8.196  0.7198  0.1517  0.1869
  320MOL0     C43085   0.683  10.520   8.210  0.0955 -0.2272  0.2418
  320MOL0     C43086   0.589  10.536   8.094 -0.7425  0.0407  0.5207
  320MOL0     C43087   0.674  10.557   7.971  0.7430  0.6285  0.0593
  320MOL0     C43088   0.604  10.538   7.841 -0.1930  0.0968 -0.2939
  320MOL0     O43089   0.557  10.664   7.807  0.4927 -0.1216  0.2444
  320MOL0     C43090   0.448  10.667   7.727  0.0414 -0.0732  0.1535
  320MOL0     C43091   0.375  10.785   7.732 -0.4581 -0.9282  0.9879
  320MOL0     C43092   0.263  10.806   7.651  0.1932 -0.9765  0.5707
  320MOL0     C43093   0.214  10.949   7.641 -1.0609  0.6049  0.2235
  320MOL0     C43094   0.221  10.700   7.557 -0.7432  0.2504  0.4611
  320MOL0     C43095   0.103  10.711   7.467  0.3670  0.5046 -0.3866
  320MOL0     O43096   0.105  10.627   7.365 -0.0604  0.4975 -0.1490
  320MOL0     C43097  -0.012  10.629   7.290 -1.0451  1.1487  0.4479
  320MOL0     C43098  -0.128  10.573   7.352  0.3645 -0.6563 -0.0408
  320MOL0     C43099  -0.252  10.590   7.297  0.3159 -0.8521  1.2682
  320MOL0     C43100  -0.262  10.652   7.173  0.5809 -0.6159 -0.2827
  320MOL0     O43101  -0.384  10.665   7.115  0.1186  0.8392  0.2276
  320MOL0     C43102  -0.410  10.545   7.037  0.4886 -0.2124 -0.1232
  320MOL0     C43103  -0.549  10.546   6.979 -0.5674  0.7526 -0.2621
  320MOL0     C43104  -0.657  10.548   7.088 -0.2675  0.0471 -0.2002
  320MOL0     C43105  -0.797  10.559   7.016 -0.6318 -0.5474  0.1034
  320MOL0     C43106  -0.913  10.565   7.113 -0.3989  0.0532  0.2838
  320MOL0     C43107  -1.042  10.577   7.035 -1.2529 -0.5272  0.6701
  320MOL0     C43108  -1.165  10.577   7.125 -0.2753 -0.4156 -0.3109
  320MOL0     C43109  -1.277  10.629   7.039  0.0713 -0.6781  0.2208
  320MOL0    Cl43110  -1.431  10.556   7.071  0.6615 -0.5902 -0.2691
  320MOL0     C43111  -0.140  10.698   7.108  0.2212 -0.7017  0.3535
  320MOL0     C43112  -0.017  10.694   7.164  0.1396  0.2658 -0.4246
  320MOL0     O43113   0.019  10.797   7.481 -0.0165 -0.4588 -0.3289
  320MOL0     C43114   0.302  10.588   7.553  0.2083 -0.2184 -0.3402
  320MOL0     C43115   0.415  10.570   7.631 -0.7842 -1.0918  0.0449
  320MOL0     N43116   0.671  10.271   8.177 -0.2837  1.1450  0.0045
  320MOL0     N43117   0.751  10.172   8.158 -0.3804  0.1976 -0.2901
  320MOL0     C43118   1.843   9.584   8.830 -0.8273  0.1169  0.0704
  320MOL0     C43119   1.970   9.584   8.892  0.0137 -0.2354 -0.1641
  320MOL0     C43120   2.387   9.586   8.995 -0.8089 -0.0222 -0.2435
  320MOL0     C43121   2.490   9.515   8.928  0.0307 -0.1346 -0.0880
  320MOL0     C43122   2.616   9.480   8.985  0.6544  0.0682  0.3397
  320MOL0     C43123   2.630   9.497   9.122 -0.4678  0.6746  0.8859
  320MOL0     O43124   2.750   9.456   9.177 -0.2769 -0.5488  0.1303
  320MOL0     C43125   2.775   9.467   9.316 -0.3174  1.0792 -0.2586
  320MOL0     C43126   2.882   9.368   9.361 -1.3217 -0.3449  0.5219
  320MOL0     C43127   3.024   9.415   9.328 -0.2833  0.0211  1.0062
  320MOL0     C43128   3.088   9.509   9.439 -0.2007  0.1165  0.4418
  320MOL0     C43129   3.119   9.431   9.566 -0.4458  0.7107  0.5693
  320MOL0     C43130   3.120   9.371   9.668 -1.0570 -0.5154  0.3349
  320MOL0     C43131   2.526   9.569   9.190 -0.4036 -0.8095 -0.7638
  320MOL0     C43132   2.409   9.614   9.127  0.0988  0.2754 -0.5473
  320MOL0     H43133   2.051   9.910   8.876 -0.9859 -0.4332 -2.5387
  320MOL0     H43134   1.832   9.924   8.789 -1.2594  0.5561  0.6476
  320MOL0     H43135   1.624   9.896   8.759  2.8464 -0.4949  0.7582
  320MOL0     H43136   1.687   9.859   8.595 -0.4025 -1.4461 -1.1065
  320MOL0     H43137   1.480   9.704   8.562 -0.7296 -1.5559  2.3155
  320MOL0     H43138   1.423   9.746   8.713  0.3981 -0.3808  0.1378
  320MOL0     H43139   1.432   9.994   8.590 -1.1812  0.3731 -0.6179
  320MOL0     H43140   1.464   9.899   8.439 -0.2805  3.2219 -0.0708
  320MOL0     H43141   1.252   9.780   8.483  0.5514  0.5657  0.5627
  320MOL0     H43142   1.220   9.876   8.625  0.9097 -0.0515  1.0074
  320MOL0     H43143   1.216  10.092   8.488 -1.0105 -0.5433  1.0456
  320MOL0     H43144   1.236  10.000   8.338 -2.1761  2.1639 -0.7792
  320MOL0     H43145   1.021   9.904   8.389  2.7696 -0.2819 -0.5791
  320MOL0     H43146   1.012   9.976   8.546  0.2692 -1.1766 -0.4471
  320MOL0     H43147   0.879  10.126   8.437 -0.5271 -1.7978  1.5289
  320MOL0     H43148   1.044  10.208   8.435 -2.1839  2.0644 -1.4262
  320MOL0     H43149   0.953  10.018   8.221 -0.5634 -0.0340 -0.5149
  320MOL0     H43150   1.074  10.142   8.211 -0.3300 -0.9830 -0.8922
  320MOL0     H43151   0.968  10.405   8.222 -0.1161 -0.4651 -0.5271
  320MOL0     H43152   0.617  10.525   8.297 -0.0099 -2.8895  0.4126
  320MOL0     H43153   0.763  10.594   8.214  0.6640 -0.7687 -0.7811
  320MOL0     H43154   0.522  10.621   8.107 -0.5142  0.0673  1.5994
  320MOL0     H43155   0.528  10.445   8.091  0.5546 -1.2298  5.0348
  320MOL0     H43156   0.754  10.482   7.965  0.9589  0.9426 -1.3155
  320MOL0     H43157   0.712  10.660   7.976 -2.9765  2.0879  1.0075
  320MOL0     H43158   0.525  10.462   7.842  1.1449 -1.4159 -2.2474
  320MOL0     H43159   0.675  10.493   7.771  0.8727 -0.1366  0.8966
  320MOL0     H43160   0.415  10.861   7.799  1.2577  0.2305 -1.2036
  320MOL0     H43161   0.276  11.024   7.691 -1.0759  0.7886 -0.0339
  320MOL0     H43162   0.227  10.973   7.535 -1.6690 -1.1365 -0.2648
  320MOL0     H43163   0.113  10.947   7.683 -0.1873  1.7231  2.6009
  320MOL0     H43164  -0.128  10.522   7.448 -0.9513 -1.1909 -0.3065
  320MOL0     H43165  -0.344  10.557   7.345 -0.7377  1.9564  1.3901
  320MOL0     H43166  -0.345  10.550   6.949  2.8693 -1.4370  1.4650
  320MOL0     H43167  -0.398  10.449   7.088 -1.5537 -0.1380  0.5938
  320MOL0     H43168  -0.550  10.638   6.920  0.6903  0.9072 -0.0768
  320MOL0     H43169  -0.552  10.456   6.918  0.8803 -0.3863  1.2482
  320MOL0     H43170  -0.658  10.630   7.162 -5.5961 -0.3785  0.5871
  320MOL0     H43171  -0.656  10.452   7.141 -0.0609  0.1421 -0.0272
  320MOL0     H43172  -0.796  10.643   6.945 -2.1150  0.3562  1.1109
  320MOL0     H43173  -0.816  10.469   6.958 -2.2936 -1.1983  1.5980
  320MOL0     H43174  -0.903  10.653   7.178 -2.2159  2.8851 -2.9139
  320MOL0     H43175  -0.913  10.478   7.179  0.6528  0.6042  1.0160
  320MOL0     H43176  -1.044  10.662   6.966 -0.3191 -2.7014 -2.2302
  320MOL0     H43177  -1.041  10.491   6.967  4.9518  0.2596 -0.7594
  320MOL0     H43178  -1.150  10.646   7.208  2.1570 -1.1977 -0.0152
  320MOL0     H43179  -1.190  10.479   7.168  3.6280 -1.5606 -0.2000
  320MOL0     H43180  -1.263  10.622   6.931 -1.7669 -3.2251  0.0558
  320MOL0     H43181  -1.293  10.734   7.063 -0.4272 -0.1415 -2.2133
  320MOL0     H43182  -0.149  10.739   7.008  2.3174  0.0940  0.4401
  320MOL0     H43183   0.074  10.736   7.122  1.0338 -0.5983  0.6221
  320MOL0     H43184   0.269  10.511   7.483 -0.5705  0.9686 -1.3237
  320MOL0     H43185   0.473  10.478   7.626 -0.9990 -1.1781 -1.5318
  320MOL0     H43186   1.781   9.500   8.802  0.5949 -0.5331 -1.2275
  320MOL0     H43187   2.025   9.494   8.919  3.6510  2.3945  2.1356
  320MOL0     H43188   2.482   9.487   8.824 -0.3148  0.9361 -0.3667
  320MOL0     H43189   2.685   9.423   8.923  0.1833 -1.6072  1.3027
  320MOL0     H43190   2.804   9.570   9.338  0.9885  0.4911  0.9609
  320MOL0     H43191   2.682   9.451   9.371 -1.0828 -0.4563 -1.9000
  320MOL0     H43192   2.860   9.269   9.320 -0.1849 -0.8754  1.1409
  320MOL0     H43193   2.865   9.361   9.469 -0.9223  0.4207  0.6425
  320MOL0     H43194   3.026   9.480   9.240 -3.2721 -2.9837 -1.5777
  320MOL0     H43195   3.087   9.329   9.306 -1.4241 -0.7619  0.7287
  320MOL0     H43196   3.028   9.596   9.466 -1.3335 -1.2496  2.5772
  320MOL0     H43197   3.181   9.549   9.397 -0.5875  1.5879  0.9374
  320MOL0     H43198   3.091   9.303   9.745 -0.2957 -1.2746 -0.0349
  320MOL0     H43199   2.541   9.580   9.297 -0.7567 -1.5414 -0.6254
  320MOL0     H43200   2.333   9.682   9.163 -0.2005  0.5198 -1.5936
  321MOL0     O43201   5.004   0.271   8.663  0.1982 -0.3581  0.2739
  321MOL0     C43202   4.911   0.343   8.693 -0.8074  0.6747  0.1354
  321MOL0     O43203   4.903   0.484   8.683  0.0993  0.7816  0.1682
  321MOL0     C43204   5.027   0.546   8.683 -0.3157  0.5395  0.0819
  321MOL0     C43205   5.084   0.590   8.563  0.2077 -0.5252 -0.6339
  321MOL0     C43206   5.206   0.656   8.570  0.6912  0.5818  0.2840
  321MOL0     C43207   5.270   0.681   8.681 -0.7631 -0.3847 -0.6363
  321MOL0     O43208   5.386   0.749   8.666 -0.2057 -0.2195  0.3136
  321MOL0     C43209   5.480   0.763   8.774  0.1529 -0.7388  0.4399
  321MOL0     C43210   5.614   0.809   8.723  0.9858 -0.5674 -0.4885
  321MOL0     C43211   5.717   0.790   8.830 -0.0274  0.4481 -0.8952
  321MOL0     C43212   5.707   0.897   8.938  0.3242 -0.8414 -0.5915
  321MOL0     C43213   5.810   0.899   9.060  0.3401  0.4865 -0.6673
  321MOL0     C43214   5.777   0.777   9.147  0.5928  0.3544 -0.2267
  321MOL0     C43215   5.865   0.767   9.270 -0.4659  0.1468 -0.6939
  321MOL0     C43216   5.816   0.663   9.370  0.1245 -0.1591 -0.1561
  321MOL0     N43217   5.684   0.692   9.429 -0.0261  0.1432  1.1190
  321MOL0     C43218   5.631   0.826   9.454  0.5905 -0.2997  0.5590
  321MOL0     C43219   5.528   0.802   9.544  0.2346  0.4418  0.7630
  321MOL0     C43220   5.432   0.902   9.592  0.3682 -0.2850  0.4255
  321MOL0     C43221   5.388   0.877   9.725  0.4047 -0.3362 -0.1144
  321MOL0     C43222   5.498   0.921   9.820  0.0418 -0.0576 -1.3317
  321MOL0     C43223   5.434   0.934   9.956  0.1086 -0.0464  0.1489
  321MOL0     O43224   5.520   1.004  10.044 -0.1869 -0.0800 -0.2742
  321MOL0     C43225   5.617   0.942  10.124  0.8553  0.2715  0.1718
  321MOL0     C43226   5.663   0.808  10.106 -0.7722 -0.6936  0.9295
  321MOL0     C43227   5.736   0.748  10.203 -0.3946 -0.2688 -0.8259
  321MOL0     C43228   5.748   0.602  10.188 -0.2043  0.7895 -0.1861
  321MOL0     C43229   5.793   0.821  10.311 -0.3716 -0.0235  0.5771
  321MOL0     C43230   5.878   0.755  10.411  0.3466  0.2048 -0.1351
  321MOL0     O43231   5.940   0.635  10.382  0.5960  0.0437 -0.0613
  321MOL0     C43232   6.009   0.571  10.480 -0.5074  0.2515 -0.5625
  321MOL0     C43233   6.150   0.547  10.472 -0.4882  1.1682 -0.0736
  321MOL0     C43234   6.219   0.498  10.588 -0.0998 -0.2849 -0.3009
  321MOL0     C43235   6.151   0.459  10.705 -0.0123  0.6074 -0.0193
  321MOL0     O43236   6.215   0.413  10.818  0.3610  0.6378  0.3008
  321MOL0     C43237   6.145   0.334  10.919 -0.3939 -0.1685  0.9671
  321MOL0     C43238   6.231   0.339  11.043 -0.8443 -1.3541 -0.0288
  321MOL0     C43239   6.199   0.465  11.123  0.9218 -0.3513  0.0546
  321MOL0     C43240   6.267   0.457  11.265  0.4007 -1.0452  0.0518
  321MOL0     C43241   6.267   0.584  11.337 -0.0315 -0.4374  0.8559
  321MOL0     C43242   6.131   0.629  11.388  0.3178 -0.0324 -0.1251
  321MOL0     C43243   6.151   0.773  11.442 -0.1875 -0.8244  0.3064
  321MOL0     C43244   6.028   0.816  11.510  0.4122 -0.2068  0.3300
  321MOL0    Cl43245   5.890   0.828  11.391 -0.7135  0.0163  0.1388
  321MOL0     C43246   6.008   0.466  10.706 -0.1146  0.2943 -0.3573
  321MOL0     C43247   5.938   0.526  10.595 -0.1662  1.1451 -0.5318
  321MOL0     O43248   5.908   0.824  10.506  0.0850 -0.1050 -0.6284
  321MOL0     C43249   5.749   0.952  10.325  0.4208 -0.6618  0.7629
  321MOL0     C43250   5.663   1.015  10.235  0.0565  0.7748 -0.1242
  321MOL0     N43251   5.508   0.665   9.556 -0.2066  0.6441 -0.2092
  321MOL0     N43252   5.593   0.599   9.484  0.2072 -0.3847  0.1503
  321MOL0     C43253   5.222   0.629   8.803  0.6905  0.0843  0.3721
  321MOL0     C43254   5.098   0.571   8.809  0.3220  0.1553 -0.1538
  321MOL0     C43255   4.789   0.271   8.732  0.1387  0.1464 -0.1382
  321MOL0     C43256   4.664   0.333   8.734 -0.0106  0.5155  0.1787
  321MOL0     C43257   4.555   0.259   8.777  0.2940 -0.6559 -0.2971
  321MOL0     C43258   4.564   0.122   8.803 -0.1881 -0.9707 -0.6084
  321MOL0     O43259   4.453   0.051   8.843 -0.3771 -0.0832  0.8191
  321MOL0     C43260   4.348   0.108   8.928 -0.5716 -0.9877  0.7826
  321MOL0     C43261   4.216   0.106   8.852 -0.2290 -0.5860  0.4235
  321MOL0     C43262   4.116   0.213   8.910 -0.4370  0.1030  0.1809
  321MOL0     C43263   3.967   0.167   8.890  0.4226 -0.4221  0.4729
  321MOL0     C43264   3.931   0.064   8.987 -0.0350  0.0175 -0.1001
  321MOL0     C43265   3.890  -0.010   9.076  0.1794  1.0256  0.4958
  321MOL0     C43266   4.685   0.059   8.783 -0.7688  0.5667  0.3184
  321MOL0     C43267   4.796   0.128   8.745  0.2644 -0.4834 -0.7468
  321MOL0     H43268   5.050   0.573   8.461  2.9180 -1.3140 -1.4832
  321MOL0     H43269   5.245   0.685   8.473  0.7191 -0.4292 -0.0162
  321MOL0     H43270   5.437   0.841   8.838  0.5734 -1.7007  1.9632
  321MOL0     H43271   5.491   0.676   8.840 -0.1968 -2.2946 -1.4726
  321MOL0     H43272   5.638   0.757   8.629 -0.0974 -0.3328 -0.9101
  321MOL0     H43273   5.594   0.913   8.697 -1.9616 -0.9352 -0.0290
  321MOL0     H43274   5.707   0.692   8.876 -0.4191  1.4843  1.3444
  321MOL0     H43275   5.817   0.817   8.795  0.9189 -1.7677 -0.0765
  321MOL0     H43276   5.715   0.992   8.886  0.1981 -0.0658  0.7709
  321MOL0     H43277   5.608   0.886   8.984  0.0772 -1.7022 -1.2996
  321MOL0     H43278   5.908   0.873   9.017 -0.9043 -2.2169 -2.1658
  321MOL0     H43279   5.791   0.996   9.105  0.5111 -0.3924  1.4055
  321MOL0     H43280   5.669   0.776   9.169  0.4194 -2.1173 -0.9012
  321MOL0     H43281   5.792   0.682   9.095 -2.6981 -0.3657 -0.1248
  321MOL0     H43282   5.968   0.735   9.252 -0.3371  0.6102 -0.7956
  321MOL0     H43283   5.884   0.864   9.316 -0.5845  0.0475 -0.4332
  321MOL0     H43284   5.891   0.641   9.447  0.0495 -4.7175 -1.0770
  321MOL0     H43285   5.823   0.573   9.307 -0.4992  0.0013 -0.4607
  321MOL0     H43286   5.660   0.916   9.401 -0.5351  0.1332  0.6441
  321MOL0     H43287   5.479   1.001   9.584  0.9644 -0.6817 -1.6274
  321MOL0     H43288   5.341   0.912   9.533 -0.0162 -1.0117  0.8907
  321MOL0     H43289   5.355   0.774   9.738 -0.0168 -0.1624  0.1987
  321MOL0     H43290   5.297   0.935   9.738 -1.6874 -3.2820 -0.6514
  321MOL0     H43291   5.534   1.020   9.792 -2.7428  0.9026 -1.8390
  321MOL0     H43292   5.570   0.838   9.823 -1.3505 -1.2825  0.8097
  321MOL0     H43293   5.399   0.841  10.000 -0.7993  0.3693  0.3351
  321MOL0     H43294   5.347   1.000   9.949  0.8202  1.3599  2.9760
  321MOL0     H43295   5.618   0.759  10.021  0.3780  0.3950 -0.3501
  321MOL0     H43296   5.846   0.570  10.150 -0.4512  0.5751 -0.6500
  321MOL0     H43297   5.723   0.551  10.282 -0.4542 -0.1448 -0.7392
  321MOL0     H43298   5.668   0.572  10.119  0.1514  1.6698 -0.9916
  321MOL0     H43299   6.204   0.592  10.389  1.4929 -2.8678 -1.2490
  321MOL0     H43300   6.327   0.499  10.579 -0.1358  0.8638 -0.7683
  321MOL0     H43301   6.041   0.369  10.930 -0.9362 -0.8962 -1.3473
  321MOL0     H43302   6.138   0.231  10.883 -0.8026 -0.6069  2.2407
  321MOL0     H43303   6.207   0.257  11.111 -0.5230 -0.1684  1.5687
  321MOL0     H43304   6.335   0.327  11.011 -1.2881  2.6247 -3.9807
  321MOL0     H43305   6.093   0.491  11.128  0.8403 -0.6234 -0.2410
  321MOL0     H43306   6.249   0.549  11.074  1.8660  0.7875  2.7585
  321MOL0     H43307   6.224   0.373  11.320 -0.3621 -0.8457 -0.2220
  321MOL0     H43308   6.372   0.432  11.250  0.4358 -0.8197 -0.0885
  321MOL0     H43309   6.306   0.662  11.271 -2.4953 -0.5118 -0.8007
  321MOL0     H43310   6.334   0.574  11.423  1.7836 -2.1395 -0.6425
  321MOL0     H43311   6.066   0.633  11.300 -1.0259 -0.7614  0.7975
  321MOL0     H43312   6.099   0.559  11.465 -0.1645  1.1233  0.7548
  321MOL0     H43313   6.188   0.835  11.359  0.7799 -0.9118  0.6645
  321MOL0     H43314   6.237   0.769  11.510  1.4776 -1.2214 -1.7128
  321MOL0     H43315   6.050   0.912  11.557  3.4175 -0.8417  0.4022
  321MOL0     H43316   5.987   0.742  11.581 -1.0835  0.5303  0.2776
  321MOL0     H43317   5.940   0.448  10.789 -0.6734  0.2207 -0.8224
  321MOL0     H43318   5.829   0.534  10.593 -0.3124 -0.1550  0.9879
  321MOL0     H43319   5.787   1.001  10.414 -1.3897 -0.6616  1.5810
  321MOL0     H43320   5.634   1.116  10.263  1.6078  2.2661 -3.4517
  321MOL0     H43321   5.290   0.643   8.886 -1.6738  3.4569  1.9797
  321MOL0     H43322   5.067   0.556   8.912  3.4099  0.8852  0.9993
  321MOL0     H43323   4.651   0.437   8.706 -1.9052  0.0053 -1.0453
  321MOL0     H43324   4.457   0.305   8.786 -0.3166 -1.4700 -2.2588
  321MOL0     H43325   4.347   0.068   9.030 -0.7733  2.3103  2.2140
  321MOL0     H43326   4.366   0.215   8.946 -1.6791 -0.0553 -2.8557
  321MOL0     H43327   4.171   0.006   8.847 -0.3232 -0.5234  0.0360
  321MOL0     H43328   4.244   0.133   8.750  3.3711  3.4630  2.1409
  321MOL0     H43329   4.125   0.309   8.858  1.8049  0.2412  0.7244
  321MOL0     H43330   4.121   0.221   9.019 -1.1128 -1.1107  0.3199
  321MOL0     H43331   3.951   0.128   8.789 -1.5948  2.0198 -0.2263
  321MOL0     H43332   3.890   0.244   8.885 -0.4140 -1.3161 -1.8047
  321MOL0     H43333   3.842  -0.054   9.162 -0.1393 -2.1039 -1.1544
  321MOL0     H43334   4.688  -0.045   8.813 -2.9204  0.2298 -0.4451
  321MOL0     H43335   4.894   0.082   8.739  2.2675  3.2941 -0.0618
  322MOL0     O43336   1.902   0.532   4.967 -0.5831  0.3086  0.3530
  322MOL0     C43337   1.940   0.442   5.042 -0.7041 -0.5199 -0.1347
  322MOL0     O43338   1.861   0.381   5.124 -0.5672 -0.0204 -0.7847
  322MOL0     C43339   1.731   0.413   5.108 -0.1106  0.5410 -0.2300
  322MOL0     C43340   1.656   0.347   5.019 -0.0866  1.5176 -0.1120
  322MOL0     C43341   1.520   0.365   5.016 -0.0686 -0.7163  0.4046
  322MOL0     C43342   1.454   0.428   5.126 -0.1292  0.2185  0.0627
  322MOL0     O43343   1.315   0.405   5.136 -0.2053  0.5036 -0.0361
  322MOL0     C43344   1.243   0.503   5.215  0.0831 -0.3873  0.5123
  322MOL0     C43345   1.099   0.502   5.164 -0.6026  0.6640  0.2203
  322MOL0     C43346   1.086   0.515   5.009 -0.3078  0.0558 -0.2158
  322MOL0     C43347   0.958   0.455   4.965  0.1818 -0.5755 -0.4959
  322MOL0     C43348   0.919   0.490   4.818  0.2540  0.4780 -0.1990
  322MOL0     C43349   0.790   0.413   4.768  0.0791 -0.2625  0.2723
  322MOL0     C43350   0.680   0.377   4.868  0.0170 -0.1598  0.5583
  322MOL0     C43351   0.601   0.500   4.915 -0.0091 -0.0333  0.0369
  322MOL0     N43352   0.506   0.566   4.818  0.0796 -0.1750 -0.4941
  322MOL0     C43353   0.389   0.511   4.773 -0.2052  0.0528 -0.0295
  322MOL0     C43354   0.329   0.620   4.709  0.4028 -0.3581 -1.1061
  322MOL0     C43355   0.202   0.623   4.640 -0.2256  0.1469 -0.3697
  322MOL0     C43356   0.207   0.531   4.527 -0.5691 -0.8756  0.8197
  322MOL0     C43357   0.292   0.573   4.403 -0.3187 -0.1266  0.0640
  322MOL0     C43358   0.256   0.705   4.334  0.8830  0.3857 -0.1017
  322MOL0     O43359   0.120   0.742   4.349  0.2971  0.3024 -0.6915
  322MOL0     C43360   0.064   0.839   4.258  0.1076  0.0987  0.0678
  322MOL0     C43361   0.135   0.906   4.162 -0.1732  0.7442 -0.4183
  322MOL0     C43362   0.095   1.009   4.083  1.1569  0.6431 -0.5902
  322MOL0     C43363   0.189   1.095   4.012  0.6767  0.0712 -0.0346
  322MOL0     C43364  -0.052   1.047   4.103 -0.8166  0.6344  0.4960
  322MOL0     C43365  -0.118   1.154   4.027 -0.7724 -0.4245 -0.2082
  322MOL0     O43366  -0.251   1.164   4.059  0.0865  0.3101 -0.1789
  322MOL0     C43367  -0.318   1.271   3.998 -0.3442 -0.2640  0.3135
  322MOL0     C43368  -0.452   1.243   3.977  0.0176  0.2845 -0.3305
  322MOL0     C43369  -0.538   1.333   3.906 -0.1589 -0.9694  0.0476
  322MOL0     C43370  -0.491   1.464   3.873 -0.1271  0.3059  0.1701
  322MOL0     O43371  -0.565   1.560   3.817 -0.2497 -0.0567 -0.0351
  322MOL0     C43372  -0.703   1.558   3.833  0.4295 -0.5316  0.3527
  322MOL0     C43373  -0.767   1.683   3.774 -1.2235  0.4729  0.9921
  322MOL0     C43374  -0.927   1.679   3.783 -0.6145  0.4231  0.2841
  322MOL0     C43375  -0.979   1.819   3.777 -0.0824 -0.8773  0.2936
  322MOL0     C43376  -1.126   1.817   3.750 -0.4296 -0.6076  0.5522
  322MOL0     C43377  -1.211   1.724   3.832  0.2632 -0.0177  0.0315
  322MOL0     C43378  -1.360   1.764   3.804 -0.0360 -0.0365  0.2314
  322MOL0     C43379  -1.455   1.716   3.914 -0.0286 -0.7330 -0.4918
  322MOL0    Cl43380  -1.428   1.803   4.071 -0.0215 -0.1486 -0.3872
  322MOL0     C43381  -0.365   1.495   3.920  0.0729  0.1767  0.1900
  322MOL0     C43382  -0.271   1.397   3.972 -0.6173  0.0577  0.1605
  322MOL0     O43383  -0.054   1.222   3.949  0.5145  0.3993  0.7044
  322MOL0     C43384  -0.126   0.973   4.197 -0.1255  0.1064 -0.4789
  322MOL0     C43385  -0.074   0.865   4.271 -0.8792 -0.6052  1.2268
  322MOL0     N43386   0.413   0.730   4.713 -0.3283 -0.0697  0.2967
  322MOL0     N43387   0.513   0.692   4.777 -0.5552  0.1690  0.4924
  322MOL0     C43388   1.536   0.487   5.224  0.3389 -0.4449 -0.0385
  322MOL0     C43389   1.676   0.484   5.214 -0.3851 -0.1296 -0.4585
  322MOL0     C43390   2.079   0.388   5.024 -0.2851 -0.3371  0.0244
  322MOL0     C43391   2.123   0.296   5.119 -0.0523 -0.4190  0.5679
  322MOL0     C43392   2.256   0.268   5.119  0.0287 -0.9944 -0.9384
  322MOL0     C43393   2.348   0.317   5.025  0.8719 -0.4853 -0.2249
  322MOL0     O43394   2.478   0.274   5.012  0.1670 -0.3740 -0.1396
  322MOL0     C43395   2.535   0.203   5.124  0.1139 -0.1819 -0.0525
  322MOL0     C43396   2.688   0.200   5.109  0.6337 -0.7803  0.1993
  322MOL0     C43397   2.747   0.122   5.230  0.2576 -1.2074  0.2078
  322MOL0     C43398   2.901   0.111   5.211 -0.1935  0.7464  0.2721
  322MOL0     C43399   2.963   0.036   5.321  0.2579 -0.3720  0.6098
  322MOL0     C43400   3.018  -0.027   5.407  0.3902 -0.6383  0.3612
  322MOL0     C43401   2.294   0.392   4.926  0.3551  0.3632 -0.5291
  322MOL0     C43402   2.163   0.429   4.921 -0.2688 -1.2047  0.3299
  322MOL0     H43403   1.696   0.282   4.942  0.0038  0.7477  0.5706
  322MOL0     H43404   1.454   0.326   4.939 -3.4368  3.3839  0.8764
  322MOL0     H43405   1.247   0.481   5.322  3.7404 -2.2103  0.1364
  322MOL0     H43406   1.277   0.605   5.198 -2.8933  0.7579  0.7347
  322MOL0     H43407   1.052   0.408   5.195 -0.9796  0.6712 -0.3107
  322MOL0     H43408   1.043   0.584   5.209  0.1624  0.4958  1.5313
  322MOL0     H43409   1.087   0.621   4.981 -0.9723 -0.1637 -1.1239
  322MOL0     H43410   1.171   0.468   4.958  0.0676  0.6979 -0.1989
  322MOL0     H43411   0.957   0.348   4.988  2.6623 -0.5423  0.1007
  322MOL0     H43412   0.874   0.488   5.026 -2.4826 -4.7904 -1.4405
  322MOL0     H43413   0.885   0.593   4.815 -0.3173  0.2858 -0.3516
  322MOL0     H43414   0.994   0.461   4.744  1.2932 -0.7902  1.2667
  322MOL0     H43415   0.741   0.472   4.690 -1.1210 -0.8800  0.5396
  322MOL0     H43416   0.827   0.327   4.711  2.2470  1.0384 -0.4314
  322MOL0     H43417   0.626   0.300   4.811  2.7653 -1.0035 -1.1421
  322MOL0     H43418   0.715   0.315   4.951  0.9128 -2.0842 -1.1387
  322MOL0     H43419   0.662   0.583   4.951  1.2194 -1.4228  1.3122
  322MOL0     H43420   0.551   0.469   5.007 -1.0176  0.8880 -0.1790
  322MOL0     H43421   0.368   0.407   4.793  1.5517 -0.6024 -1.3038
  322MOL0     H43422   0.119   0.585   4.700  1.1357 -1.5026  0.5586
  322MOL0     H43423   0.181   0.724   4.604  3.4098  0.5082 -1.9024
  322MOL0     H43424   0.107   0.521   4.484 -1.1860 -1.5857  2.3438
  322MOL0     H43425   0.249   0.434   4.555  1.3396 -0.5663 -0.7218
  322MOL0     H43426   0.276   0.492   4.331  0.5230 -2.4331  2.3040
  322MOL0     H43427   0.400   0.578   4.422 -0.4925  2.5312  0.7869
  322MOL0     H43428   0.294   0.691   4.233  2.8026 -1.0725  0.7534
  322MOL0     H43429   0.322   0.778   4.382  0.5872 -0.3610  1.5083
  322MOL0     H43430   0.236   0.866   4.161 -1.3180 -2.4190 -0.5341
  322MOL0     H43431   0.173   1.100   3.904 -0.8844 -2.0918  0.0402
  322MOL0     H43432   0.189   1.195   4.057  1.0835  0.6921 -1.3642
  322MOL0     H43433   0.288   1.057   4.039 -0.7976 -2.8225  1.8254
  322MOL0     H43434  -0.478   1.139   3.997  2.7395  0.1034  3.1216
  322MOL0     H43435  -0.640   1.308   3.880  0.1632 -0.8057 -1.4909
  322MOL0     H43436  -0.751   1.481   3.771 -3.1100  2.2474 -0.7356
  322MOL0     H43437  -0.732   1.530   3.935 -0.2529  0.9972  0.6139
  322MOL0     H43438  -0.731   1.761   3.842  0.6424  1.0142 -0.5153
  322MOL0     H43439  -0.725   1.692   3.674 -2.9298 -0.6607  0.1246
  322MOL0     H43440  -0.971   1.634   3.873 -0.8976  1.4627  0.6876
  322MOL0     H43441  -0.965   1.622   3.699 -0.0677 -1.2727  1.1427
  322MOL0     H43442  -0.961   1.870   3.872  1.7341  2.1030 -1.4868
  322MOL0     H43443  -0.932   1.877   3.696 -1.4269  1.3743  1.0383
  322MOL0     H43444  -1.133   1.787   3.645 -0.3016  2.1269 -0.2911
  322MOL0     H43445  -1.153   1.922   3.760  0.6995  0.1751 -3.2341
  322MOL0     H43446  -1.202   1.618   3.806 -4.0610 -0.4194 -0.5877
  322MOL0     H43447  -1.197   1.733   3.940 -1.3340  1.6645  0.1544
  322MOL0     H43448  -1.386   1.717   3.709  3.1161 -2.0745  0.2495
  322MOL0     H43449  -1.383   1.871   3.799  2.3010  0.4802 -1.2996
  322MOL0     H43450  -1.443   1.609   3.932  0.6387 -0.0955  4.0304
  322MOL0     H43451  -1.563   1.728   3.900 -0.2746 -1.0541  0.9778
  322MOL0     H43452  -0.323   1.594   3.904 -0.1708  0.3427  0.5702
  322MOL0     H43453  -0.172   1.434   3.999 -0.2126  1.4463 -2.8477
  322MOL0     H43454  -0.231   0.990   4.215  0.4920  1.6820  2.1180
  322MOL0     H43455  -0.129   0.808   4.344  1.5088 -1.8000  2.2042
  322MOL0     H43456   1.490   0.531   5.312  0.5652 -2.4546  1.1581
  322MOL0     H43457   1.735   0.536   5.288 -1.0646  1.1700 -0.7953
  322MOL0     H43458   2.069   0.257   5.205  0.4461  0.1964  1.1734
  322MOL0     H43459   2.285   0.217   5.210  1.3634  1.6530  0.2543
  322MOL0     H43460   2.513   0.261   5.214 -0.9128 -1.6150  0.6598
  322MOL0     H43461   2.499   0.101   5.144 -2.1526  0.5608 -0.0911
  322MOL0     H43462   2.715   0.306   5.105 -2.4491  0.0662 -0.6520
  322MOL0     H43463   2.716   0.166   5.009  2.2735 -0.0694  0.3895
  322MOL0     H43464   2.698   0.025   5.246  0.6468 -1.5890 -0.8243
  322MOL0     H43465   2.716   0.177   5.319  1.0808  0.7954 -0.6776
  322MOL0     H43466   2.948   0.209   5.200 -1.9278  1.5243 -0.4966
  322MOL0     H43467   2.923   0.059   5.118 -0.7812 -1.9806  1.5448
  322MOL0     H43468   3.087  -0.073   5.475  1.0557  0.2236  0.2820
  322MOL0     H43469   2.359   0.418   4.843  0.8739  0.6844 -0.0271
  322MOL0     H43470   2.140   0.478   4.827  1.1464 -2.0286 -0.4786
  323MOL0     O43471   4.590   1.505   3.548  0.1529  0.0352 -0.1875
  323MOL0     C43472   4.665   1.491   3.453 -0.2516  0.0740  0.5098
  323MOL0     O43473   4.647   1.548   3.333  0.1749 -1.0056 -0.5856
  323MOL0     C43474   4.539   1.631   3.310  0.6242 -0.3781 -0.0798
  323MOL0     C43475   4.557   1.745   3.236 -0.5653 -0.0716 -0.6083
  323MOL0     C43476   4.452   1.829   3.208  0.8499 -0.0229 -0.2340
  323MOL0     C43477   4.316   1.790   3.231 -0.3128  0.7125 -0.7740
  323MOL0     O43478   4.192   1.851   3.205  0.0173 -0.1681 -0.3767
  323MOL0     C43479   4.198   1.939   3.094  0.4317  0.6370 -0.3157
  323MOL0     C43480   4.215   1.864   2.967  0.3280 -0.4348  0.2546
  323MOL0     C43481   4.099   1.762   2.942  0.4283 -0.0350 -0.1829
  323MOL0     C43482   3.961   1.826   2.933  0.5156 -0.1073 -0.0870
  323MOL0     C43483   3.861   1.733   2.859  0.3639 -0.0853 -0.4425
  323MOL0     C43484   3.730   1.801   2.832  0.1477 -0.1132  0.1554
  323MOL0     C43485   3.723   1.881   2.701  0.4051  0.2416 -0.1581
  323MOL0     C43486   3.608   1.973   2.687  0.1997  0.4966 -0.5910
  323MOL0     N43487   3.477   1.906   2.655  0.5085 -0.4189  0.1039
  323MOL0     C43488   3.453   1.813   2.554 -0.3196  0.3056  0.4271
  323MOL0     C43489   3.315   1.793   2.550 -0.7708 -1.0875 -0.1143
  323MOL0     C43490   3.233   1.718   2.446 -0.0594 -0.3824  0.2462
  323MOL0     C43491   3.114   1.647   2.512  1.1726  0.2661 -0.5399
  323MOL0     C43492   2.990   1.741   2.527  0.5218  0.6071  0.1864
  323MOL0     C43493   2.864   1.675   2.602 -0.4394 -1.1084  0.1009
  323MOL0     O43494   2.822   1.559   2.532 -0.2597  0.7394 -0.9774
  323MOL0     C43495   2.697   1.510   2.545 -0.2849 -0.0367  0.1364
  323MOL0     C43496   2.601   1.558   2.637 -0.1231 -0.6274  0.0607
  323MOL0     C43497   2.474   1.498   2.649 -0.7704 -0.3237  0.2063
  323MOL0     C43498   2.384   1.552   2.757  0.7778  0.1748  0.3288
  323MOL0     C43499   2.443   1.388   2.569  0.8097  0.2933  0.4748
  323MOL0     C43500   2.318   1.302   2.569 -0.0139 -0.0894 -0.2042
  323MOL0     O43501   2.315   1.189   2.492  0.1431 -0.3663 -0.5834
  323MOL0     C43502   2.202   1.181   2.428  0.1916  1.2394 -0.3951
  323MOL0     C43503   2.090   1.129   2.497 -0.2124 -0.3893  0.3184
  323MOL0     C43504   1.972   1.100   2.425 -0.7197  0.3363 -0.5318
  323MOL0     C43505   1.961   1.112   2.287  0.3703  0.8080  0.7516
  323MOL0     O43506   1.840   1.107   2.217  0.3119  0.2509 -0.7398
  323MOL0     C43507   1.714   1.064   2.280 -0.3990  0.8900  1.0348
  323MOL0     C43508   1.599   1.080   2.181 -0.1860  0.0001  0.0503
  323MOL0     C43509   1.587   1.226   2.129 -0.2745 -0.0272  0.0420
  323MOL0     C43510   1.440   1.252   2.093 -0.2096  0.3163  0.0789
  323MOL0     C43511   1.422   1.386   2.018 -0.7918  1.3846 -1.0624
  323MOL0     C43512   1.285   1.413   1.960  0.0752 -0.3041 -0.8268
  323MOL0     C43513   1.226   1.314   1.860  0.7025 -0.0099  0.2570
  323MOL0     C43514   1.107   1.364   1.785 -0.1035  0.2659  0.3166
  323MOL0    Cl43515   0.952   1.366   1.878 -0.1720  0.1225 -0.0714
  323MOL0     C43516   2.071   1.164   2.219 -0.0543  0.0837  0.0888
  323MOL0     C43517   2.191   1.194   2.290  0.0941  0.2828  1.0185
  323MOL0     O43518   2.224   1.356   2.617  0.3535 -0.2240 -0.4446
  323MOL0     C43519   2.534   1.346   2.469 -0.1209  0.8373 -0.4748
  323MOL0     C43520   2.661   1.409   2.464  0.2062  0.2931 -0.0109
  323MOL0     N43521   3.269   1.886   2.651  0.4509  0.2959 -0.2675
  323MOL0     N43522   3.369   1.949   2.717 -0.0485  0.6685  0.5511
  323MOL0     C43523   4.302   1.669   3.303  0.3915 -0.9188 -0.7031
  323MOL0     C43524   4.412   1.593   3.340 -0.8493  0.6287  0.8882
  323MOL0     C43525   4.789   1.419   3.479  0.4462  0.4351 -0.1079
  323MOL0     C43526   4.802   1.358   3.609 -0.8371 -1.0959 -0.2139
  323MOL0     C43527   4.922   1.296   3.642 -0.0632  0.6908 -0.3913
  323MOL0     C43528   5.036   1.316   3.565 -0.2449 -0.8760  0.2358
  323MOL0     O43529   5.163   1.268   3.604  0.7285 -0.0006 -1.0078
  323MOL0     C43530   5.172   1.244   3.748 -0.2950  0.0713 -0.1004
  323MOL0     C43531   5.304   1.168   3.768  0.4753  0.3629 -0.3922
  323MOL0     C43532   5.433   1.250   3.753 -0.6394  0.7544  0.2980
  323MOL0     C43533   5.562   1.171   3.745 -0.2061 -0.5329 -0.7920
  323MOL0     C43534   5.589   1.116   3.615 -0.0013 -0.6255  0.2510
  323MOL0     C43535   5.588   1.056   3.503 -1.0342  0.6685 -1.4337
  323MOL0     C43536   5.024   1.372   3.432  0.7405  0.3785  0.6363
  323MOL0     C43537   4.895   1.421   3.388  0.0946  0.0810  0.2011
  323MOL0     H43538   4.649   1.790   3.201 -1.0911 -0.1127 -2.1436
  323MOL0     H43539   4.463   1.922   3.154 -1.4707 -0.5320 -1.7246
  323MOL0     H43540   4.104   1.995   3.089 -2.1244 -2.6055  4.3176
  323MOL0     H43541   4.286   2.002   3.113  2.1146 -2.2077  2.1670
  323MOL0     H43542   4.208   1.941   2.889 -3.8376 -1.0092 -0.1620
  323MOL0     H43543   4.318   1.827   2.974  1.1213  1.9215  3.9749
  323MOL0     H43544   4.116   1.706   2.849  1.9865 -0.1140  0.1267
  323MOL0     H43545   4.097   1.692   3.026  0.3072 -1.4043 -1.2767
  323MOL0     H43546   3.932   1.849   3.036 -1.5329  1.8743 -1.0336
  323MOL0     H43547   3.957   1.920   2.878 -1.5543  0.1481  0.4258
  323MOL0     H43548   3.899   1.692   2.765  0.3711 -1.4975  0.1502
  323MOL0     H43549   3.850   1.643   2.921  2.6532 -1.7800 -2.3002
  323MOL0     H43550   3.658   1.719   2.825 -1.0632  0.7966  1.5068
  323MOL0     H43551   3.698   1.869   2.912 -1.5636  0.6452 -1.1129
  323MOL0     H43552   3.815   1.937   2.685  1.2574 -0.9084  0.5559
  323MOL0     H43553   3.719   1.812   2.616 -2.8606 -0.0825  0.1381
  323MOL0     H43554   3.639   2.042   2.607 -0.1338  1.2003 -0.1200
  323MOL0     H43555   3.596   2.036   2.775 -2.5105 -2.4181  1.3592
  323MOL0     H43556   3.527   1.774   2.485 -1.5449  2.1112 -2.0674
  323MOL0     H43557   3.198   1.781   2.363 -0.1404 -1.9354 -0.9460
  323MOL0     H43558   3.296   1.640   2.403  2.4609  2.1115 -0.9660
  323MOL0     H43559   3.134   1.620   2.616 -0.2171 -0.5728 -0.4675
  323MOL0     H43560   3.094   1.553   2.459  2.5645 -0.8188  0.7448
  323MOL0     H43561   2.958   1.768   2.426  1.9323  0.5771 -0.2915
  323MOL0     H43562   3.018   1.830   2.585 -0.8574  0.4194  1.1925
  323MOL0     H43563   2.783   1.747   2.618 -0.7990 -1.1907 -1.2788
  323MOL0     H43564   2.890   1.650   2.706 -0.1959 -0.0833  0.2965
  323MOL0     H43565   2.611   1.648   2.696  1.6108 -1.3771  1.0060
  323MOL0     H43566   2.414   1.646   2.805 -0.1503 -0.3766  2.0599
  323MOL0     H43567   2.288   1.583   2.715  0.0873 -1.8030  0.3746
  323MOL0     H43568   2.377   1.484   2.843  1.1769 -0.5783 -0.2275
  323MOL0     H43569   2.105   1.103   2.601 -0.5924 -1.6974  0.0727
  323MOL0     H43570   1.884   1.063   2.477 -0.1233 -0.8304 -0.3298
  323MOL0     H43571   1.728   0.961   2.314  0.8464  0.7372  0.1289
  323MOL0     H43572   1.702   1.121   2.373 -1.7484  1.2522  0.6520
  323MOL0     H43573   1.620   1.024   2.089 -2.1748  0.7467 -0.9192
  323MOL0     H43574   1.511   1.033   2.225  0.2697  1.6753  2.9827
  323MOL0     H43575   1.640   1.230   2.033 -0.9366 -0.8983 -0.3752
  323MOL0     H43576   1.623   1.299   2.201 -0.7607 -0.4846  0.7569
  323MOL0     H43577   1.400   1.174   2.028  1.4122  0.1079 -0.7162
  323MOL0     H43578   1.385   1.256   2.187  2.0264  1.9494  1.4030
  323MOL0     H43579   1.501   1.400   1.943 -2.3853  0.2125 -3.0655
  323MOL0     H43580   1.439   1.458   2.098 -1.3329 -0.1710  0.5301
  323MOL0     H43581   1.223   1.430   2.048  2.1780  2.0742  0.3484
  323MOL0     H43582   1.301   1.512   1.916  0.8449  0.3006  0.7183
  323MOL0     H43583   1.206   1.217   1.907  0.1775  0.1958  0.4635
  323MOL0     H43584   1.312   1.313   1.792  2.0189  0.2318  1.8755
  323MOL0     H43585   1.091   1.292   1.704  4.2221 -1.5705  0.7870
  323MOL0     H43586   1.123   1.463   1.741 -0.9046 -0.1426 -0.9314
  323MOL0     H43587   2.066   1.185   2.113  0.2253  4.7238  0.8088
  323MOL0     H43588   2.280   1.215   2.232  1.1267 -2.5098  1.4486
  323MOL0     H43589   2.510   1.275   2.391 -0.0583  1.4689 -1.0737
  323MOL0     H43590   2.726   1.372   2.386  0.8251 -1.4474  1.2590
  323MOL0     H43591   4.203   1.624   3.311  0.6709 -1.2607  2.3376
  323MOL0     H43592   4.387   1.501   3.391  0.3019  0.0762  0.4868
  323MOL0     H43593   4.727   1.348   3.686  0.4857 -0.1743  1.2434
  323MOL0     H43594   4.918   1.257   3.743 -2.7236  0.5624 -0.4785
  323MOL0     H43595   5.178   1.343   3.795  0.8890  0.4362 -0.9808
  323MOL0     H43596   5.095   1.176   3.786 -1.8174  1.1934 -1.0252
  323MOL0     H43597   5.300   1.086   3.696 -0.7238  1.7713 -1.9816
  323MOL0     H43598   5.311   1.137   3.873  0.2949  1.2587 -0.1039
  323MOL0     H43599   5.450   1.317   3.837 -3.7395 -0.2463  1.8917
  323MOL0     H43600   5.426   1.306   3.659 -1.4120 -2.5711 -1.8218
  323MOL0     H43601   5.570   1.106   3.832  2.9136 -0.2205 -0.7595
  323MOL0     H43602   5.646   1.237   3.764  0.4067 -0.6957 -2.7200
  323MOL0     H43603   5.589   0.997   3.414  3.5675 -3.2416  0.7020
  323MOL0     H43604   5.106   1.373   3.361  2.8429 -1.3979  2.8528
  323MOL0     H43605   4.888   1.452   3.284  1.5269 -1.2741 -0.3526
  324MOL0     O43606   0.167   6.705   7.243 -0.7321  0.3621 -0.4076
  324MOL0     C43607   0.154   6.812   7.189  0.1145  1.0395  0.0430
  324MOL0     O43608   0.036   6.872   7.157 -0.7344  0.5550 -0.5577
  324MOL0     C43609  -0.086   6.810   7.165  0.6408 -0.9134 -0.0471
  324MOL0     C43610  -0.138   6.724   7.268  0.1600 -0.5400 -0.6901
  324MOL0     C43611  -0.254   6.656   7.261  0.1666 -0.2877  0.6349
  324MOL0     C43612  -0.330   6.663   7.147  0.2839  0.7127 -0.1982
  324MOL0     O43613  -0.453   6.609   7.156  0.5534  0.3058 -0.5272
  324MOL0     C43614  -0.506   6.549   7.043 -0.2376 -0.2578  0.5881
  324MOL0     C43615  -0.628   6.475   7.102 -0.0072  0.4308 -0.0737
  324MOL0     C43616  -0.715   6.441   6.987 -0.2150  0.0374  0.0238
  324MOL0     C43617  -0.842   6.373   7.040 -0.2120  0.4885 -0.4229
  324MOL0     C43618  -0.966   6.427   6.973 -0.8597  0.3022 -0.0429
  324MOL0     C43619  -1.086   6.333   6.992  0.6190 -1.1065 -0.2123
  324MOL0     C43620  -1.189   6.401   6.908 -0.6768 -0.0269  0.4700
  324MOL0     C43621  -1.267   6.508   6.974  0.1766 -0.7713 -0.0570
  324MOL0     N43622  -1.408   6.480   6.973  0.3251 -0.2035 -0.0073
  324MOL0     C43623  -1.466   6.397   7.062 -0.2088  0.0287  0.2157
  324MOL0     C43624  -1.589   6.365   7.022  0.1245  0.2960 -0.6941
  324MOL0     C43625  -1.681   6.265   7.100 -0.0200 -0.7462  0.5240
  324MOL0     C43626  -1.695   6.152   7.011  0.2597 -0.0209  0.6633
  324MOL0     C43627  -1.791   6.055   7.078  0.0203 -0.0690 -0.5941
  324MOL0     C43628  -1.940   6.103   7.123 -0.0219 -0.3043  0.4525
  324MOL0     O43629  -2.032   6.110   7.011 -0.6357  0.2314 -0.4000
  324MOL0     C43630  -2.150   6.169   7.030  0.5906 -0.0558 -0.7299
  324MOL0     C43631  -2.224   6.219   6.926  0.7166 -0.0362 -0.3536
  324MOL0     C43632  -2.351   6.284   6.938  0.6332  0.4400  0.3342
  324MOL0     C43633  -2.391   6.368   6.816 -0.1968  0.9015  0.2404
  324MOL0     C43634  -2.419   6.285   7.064  0.0769 -0.1140  1.2730
  324MOL0     C43635  -2.559   6.338   7.081  0.0556  0.3207 -0.2755
  324MOL0     O43636  -2.624   6.296   7.189 -0.1778 -0.4468 -1.2666
  324MOL0     C43637  -2.761   6.327   7.214 -0.4087  0.6520  0.3570
  324MOL0     C43638  -2.840   6.229   7.268 -0.0951  0.2438  0.7695
  324MOL0     C43639  -2.970   6.258   7.305  0.0185 -0.0123 -1.1405
  324MOL0     C43640  -3.029   6.381   7.292 -0.8024 -0.1983 -0.4470
  324MOL0     O43641  -3.158   6.410   7.335  0.6335  0.1567 -0.1053
  324MOL0     C43642  -3.252   6.295   7.335 -0.4666 -0.8745  0.0785
  324MOL0     C43643  -3.386   6.363   7.327 -0.1052 -0.7088  0.2963
  324MOL0     C43644  -3.505   6.267   7.329  0.7325  0.1196  0.1702
  324MOL0     C43645  -3.535   6.215   7.184  0.6307 -0.0921 -0.4184
  324MOL0     C43646  -3.672   6.160   7.170 -0.6997  0.3878  0.2602
  324MOL0     C43647  -3.681   6.032   7.249 -0.4205 -0.2383 -0.2888
  324MOL0     C43648  -3.818   5.971   7.229 -0.1555 -0.0581  0.4463
  324MOL0     C43649  -3.938   6.060   7.261  0.5632 -0.3200  0.7624
  324MOL0    Cl43650  -4.097   5.956   7.282 -0.6731 -0.0893  0.3976
  324MOL0     C43651  -2.958   6.483   7.229 -0.1894 -0.1443 -0.7673
  324MOL0     C43652  -2.821   6.451   7.200  0.0155 -0.0044 -0.3685
  324MOL0     O43653  -2.607   6.419   6.996  0.3632  0.3611 -0.5795
  324MOL0     C43654  -2.340   6.229   7.173  0.0263  0.2425 -0.2424
  324MOL0     C43655  -2.216   6.170   7.155 -0.0750 -0.7397  0.0342
  324MOL0     N43656  -1.607   6.450   6.914 -0.3245  0.6417 -0.3410
  324MOL0     N43657  -1.499   6.520   6.888  0.5417  0.5913  0.3017
  324MOL0     C43658  -0.297   6.749   7.044  0.8615  0.8744  0.8932
  324MOL0     C43659  -0.172   6.821   7.054  0.2570 -0.2137 -0.5812
  324MOL0     C43660   0.283   6.873   7.161  1.2841  1.1289  0.1946
  324MOL0     C43661   0.397   6.840   7.240  0.1422 -0.4000 -0.1333
  324MOL0     C43662   0.518   6.900   7.212 -0.0020  0.6848 -0.2689
  324MOL0     C43663   0.538   6.998   7.109  0.4052  0.0619 -0.7140
  324MOL0     O43664   0.659   7.058   7.074 -0.3298 -0.4797  0.2791
  324MOL0     C43665   0.786   7.005   7.118  0.2358  0.4054 -0.0613
  324MOL0     C43666   0.822   6.875   7.055 -0.4558 -0.3668 -0.6331
  324MOL0     C43667   0.961   6.814   7.091 -0.4780 -0.0272 -1.1524
  324MOL0     C43668   0.969   6.663   7.106 -0.4133 -0.7128 -0.7201
  324MOL0     C43669   0.898   6.605   6.992  0.2588  0.3270  0.8310
  324MOL0     C43670   0.829   6.563   6.902 -0.4131  0.0800 -0.2081
  324MOL0     C43671   0.427   7.039   7.043 -0.1972  0.3002  0.0830
  324MOL0     C43672   0.302   6.978   7.064  0.1992 -0.4474  0.5484
  324MOL0     H43673  -0.077   6.714   7.358  0.4041  0.5471 -0.7124
  324MOL0     H43674  -0.289   6.601   7.348  3.4649 -0.2454  2.1056
  324MOL0     H43675  -0.539   6.621   6.967 -2.7263  0.2360  2.0476
  324MOL0     H43676  -0.443   6.470   7.001 -2.0999 -2.8944  2.4782
  324MOL0     H43677  -0.586   6.379   7.136 -0.0906  0.4524  0.0912
  324MOL0     H43678  -0.689   6.521   7.181  2.4457  2.0644  0.9623
  324MOL0     H43679  -0.738   6.537   6.939  2.6699  1.2734  0.9349
  324MOL0     H43680  -0.666   6.372   6.918  0.1269 -0.4975  0.7951
  324MOL0     H43681  -0.832   6.267   7.016 -0.7368  0.1350  0.8409
  324MOL0     H43682  -0.860   6.378   7.148  0.2114 -2.2935 -0.1475
  324MOL0     H43683  -0.989   6.526   7.013 -1.2841 -0.7752  2.5528
  324MOL0     H43684  -0.934   6.432   6.868  0.7884 -1.7820  0.3046
  324MOL0     H43685  -1.066   6.229   6.968 -1.6911 -1.3092 -1.5129
  324MOL0     H43686  -1.117   6.333   7.097 -0.5483  1.0381 -0.4933
  324MOL0     H43687  -1.155   6.443   6.813  0.8814 -0.0343  1.0095
  324MOL0     H43688  -1.252   6.319   6.871  0.4798 -0.7482  0.0343
  324MOL0     H43689  -1.243   6.602   6.923  1.8193 -2.0387 -1.7601
  324MOL0     H43690  -1.245   6.524   7.080 -2.5437  1.3181  0.3235
  324MOL0     H43691  -1.405   6.361   7.143 -1.8294  1.4317  2.1596
  324MOL0     H43692  -1.631   6.229   7.190 -2.1769 -2.3817  1.1602
  324MOL0     H43693  -1.773   6.317   7.129  1.1719  1.2971  0.8874
  324MOL0     H43694  -1.602   6.099   6.989  0.0168  0.0211 -0.5124
  324MOL0     H43695  -1.745   6.173   6.916 -1.7037  2.7126  2.1782
  324MOL0     H43696  -1.749   6.011   7.169  0.9850  1.0023 -0.5099
  324MOL0     H43697  -1.802   5.970   7.009  0.3026  2.0474 -3.3966
  324MOL0     H43698  -1.934   6.198   7.177 -0.3595  0.9089 -1.5524
  324MOL0     H43699  -1.982   6.029   7.191 -1.8555 -1.0563 -1.4018
  324MOL0     H43700  -2.189   6.228   6.824  1.7819 -0.5612 -0.0532
  324MOL0     H43701  -2.416   6.470   6.849  0.1370  1.9441 -2.5026
  324MOL0     H43702  -2.313   6.374   6.740 -1.6798 -0.9883 -1.5470
  324MOL0     H43703  -2.474   6.321   6.763  1.3691  1.2647 -2.7172
  324MOL0     H43704  -2.789   6.133   7.270  3.0558  1.7404 -0.8401
  324MOL0     H43705  -3.027   6.181   7.357  0.3927  0.8853  0.6950
  324MOL0     H43706  -3.238   6.222   7.255  1.1615 -0.6615  0.1544
  324MOL0     H43707  -3.229   6.245   7.429  0.8653 -2.8159 -1.2122
  324MOL0     H43708  -3.402   6.432   7.411 -1.9323 -1.9318  1.0185
  324MOL0     H43709  -3.387   6.423   7.236  0.6361 -0.2306  0.5971
  324MOL0     H43710  -3.587   6.329   7.365  1.3916  0.9274  0.2868
  324MOL0     H43711  -3.491   6.185   7.400 -1.0915 -0.0412  0.4019
  324MOL0     H43712  -3.531   6.307   7.125  0.6651  0.6217  0.6536
  324MOL0     H43713  -3.467   6.145   7.136 -2.2292 -2.1001 -1.8171
  324MOL0     H43714  -3.700   6.155   7.065  2.0979  1.0690 -0.6211
  324MOL0     H43715  -3.738   6.232   7.218  1.2304  1.0800  2.0264
  324MOL0     H43716  -3.607   5.955   7.226 -0.6766 -0.6368  0.2229
  324MOL0     H43717  -3.680   6.057   7.355  1.7880  3.0458 -0.9338
  324MOL0     H43718  -3.828   5.882   7.293  1.0407 -0.5457 -0.0115
  324MOL0     H43719  -3.813   5.938   7.125  2.6459  2.1402 -0.2415
  324MOL0     H43720  -3.952   6.113   7.166 -1.1026 -0.7967  0.7064
  324MOL0     H43721  -3.928   6.124   7.349  3.5753  0.3280  0.0375
  324MOL0     H43722  -3.002   6.581   7.215 -1.7968 -0.7465 -0.1030
  324MOL0     H43723  -2.763   6.530   7.154  0.6591 -0.8524 -1.0571
  324MOL0     H43724  -2.377   6.229   7.275  1.9537  3.2451  0.5641
  324MOL0     H43725  -2.168   6.136   7.246 -1.4115 -3.0271 -0.0442
  324MOL0     H43726  -0.363   6.761   6.958 -0.6222  1.3353  2.0564
  324MOL0     H43727  -0.146   6.870   6.960 -3.3332  1.8391 -0.6644
  324MOL0     H43728   0.387   6.771   7.323 -0.9079 -0.2997 -0.1631
  324MOL0     H43729   0.602   6.857   7.265 -2.5517 -3.3138  1.0156
  324MOL0     H43730   0.859   7.085   7.103 -1.5447  2.4841  1.6372
  324MOL0     H43731   0.776   6.987   7.225 -2.6879 -1.3259 -0.5277
  324MOL0     H43732   0.838   6.885   6.947  1.3800  0.4112 -0.3305
  324MOL0     H43733   0.743   6.801   7.068 -3.6047  2.5710 -1.5878
  324MOL0     H43734   1.012   6.861   7.176  1.1585  0.6326 -2.4627
  324MOL0     H43735   1.023   6.840   7.006  1.7942  0.7658  0.6455
  324MOL0     H43736   0.920   6.632   7.199  1.3041  1.0246  0.8651
  324MOL0     H43737   1.073   6.628   7.098 -0.1118  0.4177 -2.0990
  324MOL0     H43738   0.774   6.528   6.817 -0.0980  0.5900 -0.6369
  324MOL0     H43739   0.445   7.119   6.972 -0.2573 -1.4863 -2.0651
  324MOL0     H43740   0.219   7.012   7.003 -0.9699  0.3743  2.5186
  325MOL0     O43741  11.021   1.380   7.269  0.1054  0.3719 -0.2700
  325MOL0     C43742  11.098   1.300   7.301 -0.1783  0.3543 -0.4775
  325MOL0     O43743  11.078   1.162   7.295 -0.1343  0.2874 -0.0833
  325MOL0     C43744  10.956   1.106   7.256 -0.0166 -0.4371  0.1176
  325MOL0     C43745  10.854   1.086   7.356 -0.5853 -0.2714  0.8473
  325MOL0     C43746  10.729   1.034   7.315 -0.4624  1.3665  0.1288
  325MOL0     C43747  10.703   1.014   7.184 -0.2602 -0.5498  0.7183
  325MOL0     O43748  10.575   1.002   7.142  0.2189  0.5481  0.1456
  325MOL0     C43749  10.461   1.037   7.222 -0.9274  0.6998  0.1732
  325MOL0     C43750  10.341   1.023   7.128 -0.0772  0.8438 -0.0101
  325MOL0     C43751  10.202   1.038   7.182 -0.0684 -0.5769 -0.6320
  325MOL0     C43752  10.099   1.030   7.069 -0.2103  0.5850  0.4808
  325MOL0     C43753   9.961   1.044   7.125  0.4143  0.3815 -0.1010
  325MOL0     C43754   9.847   1.026   7.019 -0.0833 -0.5631  0.3302
  325MOL0     C43755   9.699   1.051   7.052 -0.1124 -0.0670 -0.2157
  325MOL0     C43756   9.606   0.968   6.969  0.6995  0.0435  0.6680
  325MOL0     N43757   9.577   1.035   6.836 -0.2011  0.6625  0.5496
  325MOL0     C43758   9.650   1.024   6.717 -1.0435  0.3405  0.4691
  325MOL0     C43759   9.585   1.101   6.630  0.3732  0.1017  0.8240
  325MOL0     C43760   9.611   1.111   6.482 -0.2570  0.5741  0.8843
  325MOL0     C43761   9.511   1.046   6.379  0.2903 -0.2841 -0.4561
  325MOL0     C43762   9.371   1.110   6.397 -0.3997 -0.1094 -0.5051
  325MOL0     C43763   9.275   1.050   6.304 -0.4205  0.1491  0.3305
  325MOL0     O43764   9.156   1.128   6.280  0.4336 -0.6358 -0.2062
  325MOL0     C43765   9.039   1.110   6.356 -0.1214 -0.4472 -0.8077
  325MOL0     C43766   9.040   1.041   6.478  0.5837 -0.4710 -1.3668
  325MOL0     C43767   8.913   1.024   6.554  0.5214  0.3984 -0.0764
  325MOL0     C43768   8.931   0.946   6.676  0.2726 -0.3038  0.6308
  325MOL0     C43769   8.790   1.066   6.500  0.0438 -0.0108 -0.5434
  325MOL0     C43770   8.651   1.061   6.560  0.0616 -0.4436 -0.3234
  325MOL0     O43771   8.538   1.090   6.490  0.7895 -0.1012 -0.0494
  325MOL0     C43772   8.416   1.086   6.551 -0.3261 -0.3919 -0.2609
  325MOL0     C43773   8.330   1.198   6.547 -0.3547  0.0448  0.5404
  325MOL0     C43774   8.201   1.191   6.599  0.1263  0.5371 -0.4599
  325MOL0     C43775   8.143   1.070   6.651  0.2019 -0.9560  0.3387
  325MOL0     O43776   8.016   1.052   6.691  0.1413  0.2665 -0.3032
  325MOL0     C43777   7.939   1.174   6.712  0.5004  0.2659 -0.6506
  325MOL0     C43778   7.801   1.140   6.788 -0.5873 -0.1415  1.0144
  325MOL0     C43779   7.830   1.088   6.930  1.0242  0.5674 -0.1819
  325MOL0     C43780   7.691   1.037   6.983  0.6050  0.8551  0.4010
  325MOL0     C43781   7.602   1.151   7.023 -0.2182 -0.6575 -0.1444
  325MOL0     C43782   7.471   1.099   7.084 -0.4247 -0.6253 -0.6886
  325MOL0     C43783   7.406   1.213   7.157  0.3093 -1.0915  0.2708
  325MOL0     C43784   7.275   1.178   7.241 -0.2829  1.1550 -0.0017
  325MOL0    Cl43785   7.150   1.109   7.136  0.1855 -0.4175 -0.3175
  325MOL0     C43786   8.222   0.961   6.637  0.3745 -0.4969  0.2437
  325MOL0     C43787   8.364   0.969   6.590  0.2859  0.5939 -0.6897
  325MOL0     O43788   8.648   1.041   6.684 -0.6684 -0.0136 -0.5198
  325MOL0     C43789   8.794   1.124   6.363  0.5181  1.3168 -0.5930
  325MOL0     C43790   8.920   1.146   6.299 -0.0174  0.7057 -0.0299
  325MOL0     N43791   9.482   1.171   6.688 -0.3646 -0.0866  0.2503
  325MOL0     N43792   9.477   1.125   6.815  0.1537  0.3901 -0.0267
  325MOL0     C43793  10.797   1.052   7.084 -0.9342  0.3426 -0.2154
  325MOL0     C43794  10.928   1.081   7.123 -1.4988  0.4798 -0.5901
  325MOL0     C43795  11.223   1.339   7.360 -0.3547  1.1834 -0.5967
  325MOL0     C43796  11.252   1.474   7.378  0.1410  0.6080 -0.3375
  325MOL0     C43797  11.363   1.521   7.449  1.2544 -0.0630 -0.2961
  325MOL0     C43798  11.460   1.430   7.485 -0.4075 -0.0287 -0.4693
  325MOL0     O43799  11.576   1.465   7.550  0.0933  0.3072  0.7947
  325MOL0     C43800  11.634   1.585   7.500 -0.8074 -0.3737 -0.5516
  325MOL0     C43801  11.782   1.574   7.538  0.5053 -0.1314  0.2635
  325MOL0     C43802  11.857   1.703   7.529  0.6648  0.0864 -0.1399
  325MOL0     C43803  12.007   1.680   7.555  0.5137  0.0670 -0.5356
  325MOL0     C43804  12.090   1.801   7.557  0.1522  0.1424  0.2158
  325MOL0     C43805  12.174   1.892   7.562 -0.0483  0.0742  0.2638
  325MOL0     C43806  11.434   1.293   7.462  0.2069 -0.3540  0.7452
  325MOL0     C43807  11.315   1.251   7.402  0.1171  0.4950  0.0196
  325MOL0     H43808  10.877   1.105   7.460 -3.2090  1.7212  1.1738
  325MOL0     H43809  10.652   1.024   7.391 -1.5585  0.1817 -1.0842
  325MOL0     H43810  10.440   0.966   7.303 -1.6019  0.8511  0.1411
  325MOL0     H43811  10.471   1.135   7.270 -1.2140  1.2118 -0.7971
  325MOL0     H43812  10.357   1.086   7.040 -0.5252 -0.6711 -1.2280
  325MOL0     H43813  10.352   0.920   7.092 -2.8666  0.1543  0.8308
  325MOL0     H43814  10.175   0.960   7.254 -1.2872  0.0080 -0.4417
  325MOL0     H43815  10.183   1.132   7.234 -3.6216 -0.7805 -1.3082
  325MOL0     H43816  10.113   1.114   7.000 -1.2232  2.3834  2.3253
  325MOL0     H43817  10.099   0.932   7.021 -2.9187  0.5119  0.4544
  325MOL0     H43818   9.929   0.971   7.200 -2.0324  1.7909  0.3460
  325MOL0     H43819   9.947   1.140   7.177 -0.7187 -0.0347  0.3905
  325MOL0     H43820   9.869   1.092   6.935  0.2907 -0.2818  0.6467
  325MOL0     H43821   9.864   0.926   6.976 -2.3870  0.1597 -2.5969
  325MOL0     H43822   9.688   1.040   7.161  0.0995  1.2191 -0.0436
  325MOL0     H43823   9.681   1.157   7.030  0.8254  0.2439  0.4523
  325MOL0     H43824   9.508   0.972   7.017 -1.1208 -0.8654 -2.6258
  325MOL0     H43825   9.636   0.863   6.962 -0.9368 -0.5927  2.4565
  325MOL0     H43826   9.735   0.958   6.704 -0.2139  1.4982 -0.1594
  325MOL0     H43827   9.618   1.215   6.450 -1.9345 -0.3327 -3.1485
  325MOL0     H43828   9.712   1.072   6.465  0.1465  2.1578 -0.6254
  325MOL0     H43829   9.524   0.938   6.383  0.7191 -0.2744 -1.3581
  325MOL0     H43830   9.531   1.073   6.275 -1.3482 -0.0986 -0.7446
  325MOL0     H43831   9.385   1.218   6.398  0.9458 -0.2718  0.1930
  325MOL0     H43832   9.334   1.077   6.495  3.9363 -2.0688  0.7191
  325MOL0     H43833   9.251   0.950   6.341 -1.3108  2.1214  6.2492
  325MOL0     H43834   9.325   1.047   6.207  2.7421 -0.3320  1.8410
  325MOL0     H43835   9.134   1.005   6.520  0.7543  1.0356 -0.3576
  325MOL0     H43836   8.881   1.000   6.757 -0.6082 -0.1862  0.0231
  325MOL0     H43837   8.888   0.845   6.675  0.5615 -0.4507  1.7066
  325MOL0     H43838   9.037   0.932   6.700  0.4886  0.5191  0.1790
  325MOL0     H43839   8.379   1.285   6.504  0.3344  0.0754  1.3517
  325MOL0     H43840   8.140   1.278   6.576  2.2334  2.4358  0.8231
  325MOL0     H43841   7.990   1.248   6.775 -0.9176  0.1630  0.6835
  325MOL0     H43842   7.914   1.222   6.617 -0.1038  0.1234 -0.5658
  325MOL0     H43843   7.741   1.232   6.785 -2.7566 -1.3853 -4.2303
  325MOL0     H43844   7.748   1.072   6.722 -0.4760  0.2838  0.4833
  325MOL0     H43845   7.861   1.172   6.993  0.2496  1.0491 -0.4217
  325MOL0     H43846   7.903   1.007   6.934 -0.7999 -1.2876 -1.9627
  325MOL0     H43847   7.638   0.977   6.908 -0.4815  2.3736 -0.1059
  325MOL0     H43848   7.707   0.978   7.073 -1.8848 -0.7523 -0.1136
  325MOL0     H43849   7.575   1.219   6.941  0.3149 -1.7477 -1.2563
  325MOL0     H43850   7.662   1.213   7.090  0.5281 -0.7341 -0.7272
  325MOL0     H43851   7.410   1.066   6.999 -0.5997  1.9372 -1.6366
  325MOL0     H43852   7.486   1.013   7.150 -0.7465 -1.3851 -1.5730
  325MOL0     H43853   7.385   1.292   7.085  1.5552 -0.1309  0.9158
  325MOL0     H43854   7.481   1.257   7.224  2.3487 -2.0033 -1.3022
  325MOL0     H43855   7.230   1.270   7.280  1.2707  1.8313  0.2627
  325MOL0     H43856   7.306   1.111   7.321  0.5125  0.5653 -0.7770
  325MOL0     H43857   8.192   0.862   6.672  0.6129  0.5950  3.9884
  325MOL0     H43858   8.416   0.874   6.597 -2.4269 -0.9307  0.2324
  325MOL0     H43859   8.700   1.158   6.323 -1.2506 -0.1545  1.9731
  325MOL0     H43860   8.914   1.181   6.197  0.4263 -0.4235 -0.4647
  325MOL0     H43861  10.778   1.037   6.978 -0.8376  2.7388 -0.6153
  325MOL0     H43862  11.008   1.086   7.050 -1.0071  3.0833  0.0281
  325MOL0     H43863  11.175   1.544   7.348 -0.2867  0.7529  1.0153
  325MOL0     H43864  11.370   1.628   7.467 -0.9543 -0.2761  2.5277
  325MOL0     H43865  11.625   1.582   7.391 -1.3470 -1.7446 -0.4854
  325MOL0     H43866  11.592   1.673   7.551  0.9449  0.6704 -0.8396
  325MOL0     H43867  11.828   1.493   7.480 -2.2643 -1.7888  0.1968
  325MOL0     H43868  11.771   1.530   7.637 -0.9521 -0.8251 -0.1705
  325MOL0     H43869  11.821   1.774   7.603 -0.1035  0.0970 -0.5200
  325MOL0     H43870  11.848   1.750   7.431 -0.0517  2.3640  0.9630
  325MOL0     H43871  12.053   1.615   7.480  1.8851 -1.0209  1.1738
  325MOL0     H43872  12.022   1.631   7.651 -2.3839  0.8553  0.4112
  325MOL0     H43873  12.241   1.974   7.577 -0.3925 -0.0135  2.7316
  325MOL0     H43874  11.507   1.216   7.487 -0.3050 -1.1575 -0.1458
  325MOL0     H43875  11.312   1.144   7.381  4.0970  0.3991 -0.8760
  326MOL0     O43876   3.190   1.156   1.335 -0.4247  0.3434 -0.0858
  326MOL0     C43877   3.263   1.074   1.383  0.0541 -0.0918 -0.2845
  326MOL0     O43878   3.227   0.975   1.468  0.2279 -0.2077 -0.0185
  326MOL0     C43879   3.093   0.959   1.483 -0.7887 -0.0880  0.5273
  326MOL0     C43880   3.021   0.896   1.381  0.3759 -0.0752 -0.8592
  326MOL0     C43881   2.883   0.869   1.402 -0.7137  0.1649  0.6263
  326MOL0     C43882   2.813   0.902   1.524 -0.5044  0.3399 -0.0497
  326MOL0     O43883   2.685   0.881   1.559  0.7240 -0.3647  0.6272
  326MOL0     C43884   2.595   0.855   1.444  0.4449  0.3230 -0.0464
  326MOL0     C43885   2.447   0.877   1.485 -0.2660  0.6797  0.5591
  326MOL0     C43886   2.359   0.835   1.376  0.1919 -0.9718 -0.4493
  326MOL0     C43887   2.211   0.888   1.394 -0.1495 -0.2947 -0.1674
  326MOL0     C43888   2.117   0.835   1.284 -0.2101  0.1325  0.1043
  326MOL0     C43889   1.980   0.885   1.307  0.0723  0.0615  0.9468
  326MOL0     C43890   1.908   0.867   1.176 -0.6888 -0.6590  0.7132
  326MOL0     C43891   1.755   0.884   1.202  0.0151 -0.0576  0.5523
  326MOL0     N43892   1.697   0.767   1.275  0.4116  0.5868 -0.5491
  326MOL0     C43893   1.685   0.642   1.222 -0.4856 -0.0229  1.2452
  326MOL0     C43894   1.612   0.571   1.311 -0.0555  0.4688 -0.5201
  326MOL0     C43895   1.561   0.428   1.298 -0.3083  0.7023  0.0253
  326MOL0     C43896   1.416   0.434   1.283  0.1317  0.2964 -0.5788
  326MOL0     C43897   1.361   0.294   1.263  0.2244 -0.5251  0.6023
  326MOL0     C43898   1.211   0.295   1.252 -0.7308  1.0327  0.1343
  326MOL0     O43899   1.169   0.166   1.214 -0.2197 -0.6237 -0.0983
  326MOL0     C43900   1.034   0.143   1.196 -0.0846 -0.4630  0.5200
  326MOL0     C43901   1.002   0.030   1.121  0.6085 -0.7351  0.8698
  326MOL0     C43902   0.864   0.004   1.090 -0.0744 -0.1521 -0.1062
  326MOL0     C43903   0.835  -0.129   1.023 -0.5212  0.2426 -0.0971
  326MOL0     C43904   0.768   0.094   1.142 -0.0421  0.0750  0.7169
  326MOL0     C43905   0.626   0.074   1.130  0.9030  0.6193 -1.3708
  326MOL0     O43906   0.572  -0.050   1.132  0.1994 -0.4653  0.8226
  326MOL0     C43907   0.436  -0.065   1.131  0.3522 -0.1886  0.4233
  326MOL0     C43908   0.333  -0.011   1.221  0.4954  0.6451 -0.2937
  326MOL0     C43909   0.205  -0.064   1.224  1.1836 -0.0317  0.5779
  326MOL0     C43910   0.162  -0.157   1.129 -0.7363 -0.8846 -0.1184
  326MOL0     O43911   0.027  -0.205   1.121 -0.6758 -0.2862  0.1468
  326MOL0     C43912  -0.069  -0.163   1.217 -0.0055 -0.4612 -0.1883
  326MOL0     C43913  -0.202  -0.240   1.209 -0.1795 -1.2276 -0.8528
  326MOL0     C43914  -0.263  -0.260   1.340  0.0093 -0.5844 -0.2008
  326MOL0     C43915  -0.410  -0.304   1.338 -0.6904  0.8648  0.0015
  326MOL0     C43916  -0.454  -0.355   1.475  0.3638 -0.1390  0.0537
  326MOL0     C43917  -0.587  -0.435   1.471  0.5130  0.0160 -0.1711
  326MOL0     C43918  -0.707  -0.346   1.431 -0.7908 -0.4138 -0.9872
  326MOL0     C43919  -0.842  -0.412   1.464  0.4424 -0.1076  0.1715
  326MOL0    Cl43920  -0.850  -0.575   1.387 -0.1976  0.1443  0.5876
  326MOL0     C43921   0.255  -0.199   1.027  0.8237  0.7700 -0.5517
  326MOL0     C43922   0.381  -0.149   1.027  0.3181 -0.4479  0.0950
  326MOL0     O43923   0.565   0.173   1.093  0.0578  0.2164 -0.4415
  326MOL0     C43924   0.803   0.204   1.212  0.0542  0.7652  0.1667
  326MOL0     C43925   0.935   0.223   1.244 -0.4972  0.4135 -0.4498
  326MOL0     N43926   1.580   0.655   1.416 -0.5529  0.0642 -0.2540
  326MOL0     N43927   1.630   0.770   1.392  0.1638  0.3049  0.0667
  326MOL0     C43928   2.890   0.967   1.621 -0.0081 -1.0490  0.1852
  326MOL0     C43929   3.027   1.003   1.601 -0.4975  0.2412  0.0771
  326MOL0     C43930   3.408   1.086   1.344  0.5194  0.2302  0.1027
  326MOL0     C43931   3.508   1.001   1.395 -0.3719  0.4421  0.0896
  326MOL0     C43932   3.636   1.004   1.346 -1.0599 -0.7767  0.6704
  326MOL0     C43933   3.678   1.104   1.261 -0.2835 -0.4338  0.4643
  326MOL0     O43934   3.810   1.097   1.221  0.2961 -0.5700 -0.3188
  326MOL0     C43935   3.858   1.203   1.130  0.9417 -0.7476 -0.0536
  326MOL0     C43936   4.006   1.166   1.093  0.3137 -0.3707 -0.5460
  326MOL0     C43937   4.011   1.037   1.010 -0.5029 -0.5174  1.0200
  326MOL0     C43938   3.944   1.040   0.870  0.1117  0.2720  0.4859
  326MOL0     C43939   4.007   1.149   0.784  0.0550 -0.3541 -0.1883
  326MOL0     C43940   4.051   1.220   0.702 -0.6338  0.6173  0.3546
  326MOL0     C43941   3.577   1.205   1.224  0.0158 -0.1096 -0.5829
  326MOL0     C43942   3.442   1.190   1.255  1.3758  0.0252 -0.0505
  326MOL0     H43943   3.070   0.877   1.286 -2.0182  1.8576 -2.6264
  326MOL0     H43944   2.827   0.831   1.317  0.2897  0.2903 -0.1144
  326MOL0     H43945   2.619   0.920   1.359 -1.8837  1.5191  0.1205
  326MOL0     H43946   2.606   0.749   1.422 -2.5598 -0.3715  1.2915
  326MOL0     H43947   2.428   0.816   1.574  1.1382 -1.4950 -0.5243
  326MOL0     H43948   2.433   0.984   1.501 -0.0827  1.3132 -2.7234
  326MOL0     H43949   2.391   0.879   1.282  0.1133  0.9738  0.3761
  326MOL0     H43950   2.361   0.728   1.355 -0.9079 -0.7599 -1.7853
  326MOL0     H43951   2.181   0.839   1.488  1.4332 -1.3208 -0.1732
  326MOL0     H43952   2.210   0.997   1.393  2.4379 -0.1961  1.1309
  326MOL0     H43953   2.150   0.873   1.187 -2.2395 -0.4002 -0.8426
  326MOL0     H43954   2.123   0.727   1.267  0.0181  0.2838 -0.8153
  326MOL0     H43955   1.948   0.820   1.389  0.3002 -1.3276 -0.0265
  326MOL0     H43956   1.979   0.987   1.346  1.6579 -0.1951  1.7328
  326MOL0     H43957   1.941   0.951   1.114  0.1911 -0.8340  0.9230
  326MOL0     H43958   1.934   0.771   1.131 -2.1357 -0.9499  0.4477
  326MOL0     H43959   1.697   0.880   1.110 -1.3183 -1.6725  1.3987
  326MOL0     H43960   1.737   0.981   1.248  2.6186  2.6423 -3.5308
  326MOL0     H43961   1.707   0.614   1.120 -3.5997  1.2291  0.1184
  326MOL0     H43962   1.614   0.397   1.208  0.2890  2.9812 -0.4930
  326MOL0     H43963   1.590   0.364   1.382 -1.8074  1.2277  0.9846
  326MOL0     H43964   1.400   0.487   1.189 -1.2928  0.8772 -0.0466
  326MOL0     H43965   1.370   0.489   1.367 -0.5685 -1.5746  0.3234
  326MOL0     H43966   1.381   0.245   1.359 -2.1434 -1.1191  0.8598
  326MOL0     H43967   1.406   0.245   1.176 -1.1178 -1.8797  0.6282
  326MOL0     H43968   1.171   0.364   1.177 -0.4746  3.1577  1.8410
  326MOL0     H43969   1.171   0.316   1.352  1.8297  0.5120  1.3463
  326MOL0     H43970   1.073  -0.046   1.092 -0.3341 -1.1815 -0.3468
  326MOL0     H43971   0.780  -0.198   1.088  0.1884  0.1726  0.4394
  326MOL0     H43972   0.774  -0.115   0.933  0.5716 -2.3860 -1.3631
  326MOL0     H43973   0.924  -0.184   0.991 -1.9186 -1.4437 -1.3345
  326MOL0     H43974   0.360   0.056   1.302 -0.6153  1.1773 -0.3520
  326MOL0     H43975   0.141  -0.022   1.301  2.7342  0.5751  1.6070
  326MOL0     H43976  -0.031  -0.181   1.318 -1.9878  1.8728  1.0865
  326MOL0     H43977  -0.079  -0.054   1.223  1.2941 -0.3860  0.9650
  326MOL0     H43978  -0.259  -0.170   1.148  1.8760  1.8524  0.4948
  326MOL0     H43979  -0.189  -0.339   1.165  0.7961 -0.6188 -1.9920
  326MOL0     H43980  -0.255  -0.165   1.395  1.7323 -0.3102 -0.8592
  326MOL0     H43981  -0.196  -0.325   1.398  0.6775 -0.3290 -0.6727
  326MOL0     H43982  -0.475  -0.218   1.319 -2.7214  0.0789  2.6663
  326MOL0     H43983  -0.422  -0.378   1.259 -1.2439  0.5571  0.3656
  326MOL0     H43984  -0.464  -0.265   1.537  1.7829  0.0166  0.0907
  326MOL0     H43985  -0.375  -0.424   1.506 -0.4012 -1.9562 -1.8648
  326MOL0     H43986  -0.576  -0.522   1.405  1.6700  0.5410 -0.7046
  326MOL0     H43987  -0.606  -0.470   1.573 -4.2797 -2.3743 -1.5633
  326MOL0     H43988  -0.705  -0.329   1.323 -2.8746  4.9016 -0.5075
  326MOL0     H43989  -0.706  -0.246   1.477 -0.6326  0.2292 -2.3352
  326MOL0     H43990  -0.918  -0.345   1.423  0.3330 -1.3292 -1.7502
  326MOL0     H43991  -0.844  -0.417   1.573 -0.5541 -1.7672  0.1070
  326MOL0     H43992   0.228  -0.270   0.950  0.0367 -0.8939  1.1741
  326MOL0     H43993   0.440  -0.184   0.943 -0.2560  2.9668 -1.8848
  326MOL0     H43994   0.731   0.282   1.235  0.7956  2.2700 -2.1786
  326MOL0     H43995   0.956   0.304   1.314  0.7792  1.1380 -1.6179
  326MOL0     H43996   2.839   0.987   1.715  1.5883 -0.5370  0.9751
  326MOL0     H43997   3.092   1.057   1.669  0.5685 -1.9215  0.8478
  326MOL0     H43998   3.482   0.925   1.468  0.8106 -1.5387 -1.4484
  326MOL0     H43999   3.716   0.940   1.382  1.6812  2.7004  1.2699
  326MOL0     H44000   3.799   1.208   1.038 -0.0048 -2.4435  0.4206
  326MOL0     H44001   3.854   1.305   1.169  1.4876 -0.0927 -1.6147
  326MOL0     H44002   4.060   1.156   1.188 -0.0285  1.8750 -0.0500
  326MOL0     H44003   4.053   1.251   1.043 -1.3589  0.2034 -1.1999
  326MOL0     H44004   3.965   0.956   1.067 -0.8726 -0.3918  0.8999
  326MOL0     H44005   4.110   0.995   0.987 -0.8686  0.4892 -3.2379
  326MOL0     H44006   3.835   1.048   0.880 -0.3773 -1.9180 -1.9692
  326MOL0     H44007   3.959   0.943   0.824 -2.4898  0.5325 -1.1271
  326MOL0     H44008   4.091   1.295   0.637 -0.5853  1.8226  1.7234
  326MOL0     H44009   3.609   1.292   1.168  1.0347 -1.0874 -1.5582
  326MOL0     H44010   3.381   1.269   1.212 -0.4157  0.6772  3.3560
  327MOL0     O44011   3.116   4.799   0.445 -0.3477 -0.5131 -0.6493
  327MOL0     C44012   3.161   4.692   0.403  1.0979 -0.4336  0.2726
  327MOL0     O44013   3.108   4.611   0.304  0.8796 -0.3144 -0.3952
  327MOL0     C44014   2.979   4.637   0.250 -0.4165  0.1622 -0.0266
  327MOL0     C44015   2.959   4.645   0.109 -0.5698 -0.8843 -0.5629
  327MOL0     C44016   2.835   4.682   0.048 -0.7279 -0.2747 -0.0424
  327MOL0     C44017   2.726   4.719   0.131 -0.7735  0.3710 -0.1616
  327MOL0     O44018   2.610   4.735   0.072 -0.7307 -0.2941  0.5505
  327MOL0     C44019   2.537   4.837   0.127 -0.5085  0.1273 -0.4772
  327MOL0     C44020   2.408   4.792   0.196 -0.1624 -0.2983 -0.0248
  327MOL0     C44021   2.286   4.738   0.111 -0.0545  0.2656  0.0663
  327MOL0     C44022   2.182   4.670   0.194 -1.3809  0.0521 -0.0229
  327MOL0     C44023   2.049   4.677   0.113  0.8900  0.5570  0.2001
  327MOL0     C44024   1.937   4.602   0.180 -0.8311  0.1530  0.5703
  327MOL0     C44025   1.801   4.598   0.106 -0.1292  0.3072  0.1323
  327MOL0     C44026   1.800   4.590  -0.044 -0.6284 -0.4262  0.5301
  327MOL0     N44027   1.667   4.554  -0.086 -0.0896 -0.3499  0.0477
  327MOL0     C44028   1.643   4.431  -0.148  0.2297  0.1104 -0.1191
  327MOL0     C44029   1.511   4.420  -0.172  0.2441 -0.0066 -0.5285
  327MOL0     C44030   1.444   4.300  -0.225  0.5510  0.2202  0.1225
  327MOL0     C44031   1.345   4.238  -0.126  0.0494 -0.0292  0.0221
  327MOL0     C44032   1.291   4.106  -0.187  0.3710 -0.3242 -0.7195
  327MOL0     C44033   1.176   4.047  -0.086 -0.1710  0.0466  0.3777
  327MOL0     O44034   1.062   4.119  -0.094  0.5133 -0.0569  0.0746
  327MOL0     C44035   0.976   4.097   0.008 -0.3540  0.3684 -0.7630
  327MOL0     C44036   0.903   3.976   0.022  0.1046  0.1366 -0.5862
  327MOL0     C44037   0.813   3.954   0.135 -0.2798  0.5740  0.5726
  327MOL0     C44038   0.743   3.822   0.130  0.3176 -0.0550 -0.2294
  327MOL0     C44039   0.791   4.060   0.230  0.0156 -0.0116  0.2728
  327MOL0     C44040   0.702   4.048   0.353  0.4250  0.1450  0.3294
  327MOL0     O44041   0.709   4.147   0.452  0.6850  0.3577 -0.8913
  327MOL0     C44042   0.650   4.135   0.572  0.6380  0.4884 -0.1455
  327MOL0     C44043   0.652   4.014   0.643 -0.5642 -0.5854  0.1627
  327MOL0     C44044   0.604   4.010   0.774 -0.4480 -0.4284  0.3393
  327MOL0     C44045   0.547   4.124   0.835 -0.0605  1.3526  0.2687
  327MOL0     O44046   0.489   4.129   0.960  0.3286 -0.7319 -0.3439
  327MOL0     C44047   0.427   4.012   1.010 -1.1300 -0.0465  0.1057
  327MOL0     C44048   0.330   4.060   1.120 -0.1742 -0.3182  0.1252
  327MOL0     C44049   0.209   4.133   1.051 -0.3598  0.3194 -0.6201
  327MOL0     C44050   0.129   4.207   1.166 -0.3921  0.4178  0.0970
  327MOL0     C44051  -0.009   4.268   1.133  0.8703 -0.0282 -0.6146
  327MOL0     C44052  -0.101   4.316   1.250 -0.0426  0.2113  1.0084
  327MOL0     C44053  -0.026   4.410   1.342  1.0086 -0.5746 -0.0287
  327MOL0     C44054  -0.127   4.494   1.425 -0.5284  0.2322 -0.5536
  327MOL0    Cl44055  -0.239   4.393   1.508  0.5343  0.0218 -0.2087
  327MOL0     C44056   0.552   4.247   0.765  0.0574 -0.0456  0.3270
  327MOL0     C44057   0.597   4.250   0.635  0.0209  0.2141  0.5767
  327MOL0     O44058   0.628   3.944   0.361  0.1288  0.6903 -0.0386
  327MOL0     C44059   0.864   4.178   0.208  0.2063 -0.4285  0.6387
  327MOL0     C44060   0.954   4.197   0.103  0.8938 -0.7275 -0.3599
  327MOL0     N44061   1.451   4.542  -0.136  0.1383 -0.3896  0.4445
  327MOL0     N44062   1.545   4.620  -0.084  0.0818 -0.6178  0.0133
  327MOL0     C44063   2.744   4.706   0.273  0.0918  0.2317 -0.3725
  327MOL0     C44064   2.872   4.669   0.326  0.5748 -0.3980  0.1876
  327MOL0     C44065   3.285   4.653   0.468 -0.3199  0.6439  0.3590
  327MOL0     C44066   3.328   4.698   0.591  0.5572  0.0892 -0.5845
  327MOL0     C44067   3.451   4.654   0.644 -0.3662  0.2447  0.8277
  327MOL0     C44068   3.525   4.552   0.577 -0.7355 -0.1629 -0.1694
  327MOL0     O44069   3.639   4.504   0.626  0.5681  0.1598  0.0049
  327MOL0     C44070   3.696   4.560   0.748  0.7089 -0.2588 -0.5966
  327MOL0     C44071   3.835   4.516   0.773  0.3435 -0.5125 -0.1149
  327MOL0     C44072   3.910   4.508   0.638 -0.3907 -0.0621 -0.3048
  327MOL0     C44073   4.058   4.475   0.657  0.1417  0.0551  0.1038
  327MOL0     C44074   4.085   4.349   0.717  0.2197  0.7471 -0.1108
  327MOL0     C44075   4.089   4.240   0.777 -0.2493 -0.5348 -0.2188
  327MOL0     C44076   3.482   4.496   0.457  0.5171  0.4399 -0.0660
  327MOL0     C44077   3.368   4.557   0.399 -0.8500  0.2427 -0.0073
  327MOL0     H44078   3.048   4.624   0.052  0.1528  0.6287 -0.0436
  327MOL0     H44079   2.836   4.680  -0.060  2.7365 -0.3941 -0.1287
  327MOL0     H44080   2.597   4.910   0.182 -2.4494  1.1746  0.3544
  327MOL0     H44081   2.496   4.889   0.039  0.1173  0.4597 -0.5798
  327MOL0     H44082   2.417   4.718   0.277 -0.3612 -1.0338 -0.6598
  327MOL0     H44083   2.372   4.879   0.253  0.7044  0.4447 -0.5929
  327MOL0     H44084   2.242   4.825   0.062  0.1395  0.5076  0.3183
  327MOL0     H44085   2.310   4.667   0.031 -0.4493 -0.8998  0.9518
  327MOL0     H44086   2.201   4.564   0.212 -3.1116 -0.2834  0.0690
  327MOL0     H44087   2.172   4.722   0.290 -0.9325 -1.5256  0.9169
  327MOL0     H44088   2.017   4.781   0.096  0.4423  0.5359  0.8723
  327MOL0     H44089   2.068   4.638   0.013 -2.0042 -1.7935  0.4240
  327MOL0     H44090   1.972   4.504   0.213  0.2114  0.0053 -0.8930
  327MOL0     H44091   1.921   4.658   0.273 -0.3261  1.0227  0.1517
  327MOL0     H44092   1.758   4.505   0.143  0.6677 -0.1806 -0.1483
  327MOL0     H44093   1.736   4.683   0.129 -3.3551 -2.0021  0.0654
  327MOL0     H44094   1.878   4.521  -0.078  3.2022  2.3115  3.0306
  327MOL0     H44095   1.828   4.688  -0.083 -0.7414 -0.3765  0.5756
  327MOL0     H44096   1.723   4.359  -0.159  1.5755  0.6075  4.2711
  327MOL0     H44097   1.391   4.328  -0.316 -2.4155  1.0953  1.9781
  327MOL0     H44098   1.513   4.216  -0.237  1.2405  0.8387 -0.3018
  327MOL0     H44099   1.261   4.306  -0.109 -2.8465 -3.2207 -0.2892
  327MOL0     H44100   1.396   4.224  -0.030 -0.4618  0.9641  0.4567
  327MOL0     H44101   1.363   4.025  -0.202  0.2858 -0.5003 -0.1730
  327MOL0     H44102   1.246   4.129  -0.285  0.3069  1.4846 -0.2908
  327MOL0     H44103   1.218   4.028   0.013  0.7085 -0.5790 -0.1029
  327MOL0     H44104   1.154   3.944  -0.115  0.4888 -0.2653  0.9803
  327MOL0     H44105   0.921   3.894  -0.047  2.7394  0.0938  0.0725
  327MOL0     H44106   0.638   3.835   0.102  0.7292  2.5639 -0.8439
  327MOL0     H44107   0.788   3.755   0.055 -0.8053  1.4492 -2.3555
  327MOL0     H44108   0.754   3.773   0.227 -0.5494  2.6536  1.3390
  327MOL0     H44109   0.689   3.931   0.583  0.2654 -0.2041  0.1366
  327MOL0     H44110   0.614   3.918   0.830 -1.5351 -0.0068  1.2423
  327MOL0     H44111   0.367   3.960   0.935  0.4503 -1.3252 -0.3321
  327MOL0     H44112   0.504   3.952   1.059  2.3296  2.3723 -1.8840
  327MOL0     H44113   0.303   3.975   1.184  0.4930 -0.6174  0.0245
  327MOL0     H44114   0.382   4.129   1.188 -0.9261  0.0834  0.2971
  327MOL0     H44115   0.137   4.057   1.019 -0.4607  0.9778 -1.9946
  327MOL0     H44116   0.245   4.196   0.970  3.6188 -1.0652 -0.1255
  327MOL0     H44117   0.115   4.140   1.251 -2.0954  1.2904  0.5598
  327MOL0     H44118   0.195   4.287   1.202  0.7856 -1.3728  2.1736
  327MOL0     H44119  -0.055   4.190   1.071 -0.1186  0.7862 -0.9408
  327MOL0     H44120  -0.003   4.356   1.069 -0.6670 -0.2105 -1.0735
  327MOL0     H44121  -0.172   4.373   1.189  2.0988  1.6514 -0.2664
  327MOL0     H44122  -0.154   4.241   1.309 -0.6293 -0.3252 -0.1603
  327MOL0     H44123   0.049   4.470   1.289  1.1518 -1.7935 -1.2891
  327MOL0     H44124   0.044   4.355   1.406  1.7531  0.2168 -0.1490
  327MOL0     H44125  -0.182   4.560   1.357  1.1440 -1.5005 -3.8389
  327MOL0     H44126  -0.077   4.558   1.498 -1.8494 -0.5183  1.0931
  327MOL0     H44127   0.503   4.330   0.815  1.7145  0.7573  0.6880
  327MOL0     H44128   0.588   4.342   0.577 -2.6987 -0.7646 -0.7407
  327MOL0     H44129   0.842   4.267   0.267  1.1963  0.2044  0.0752
  327MOL0     H44130   1.016   4.286   0.094  1.2119 -1.1413 -3.6034
  327MOL0     H44131   2.673   4.729   0.351  4.9085  0.3193  4.5587
  327MOL0     H44132   2.877   4.668   0.434 -0.6292  0.0529  0.2675
  327MOL0     H44133   3.261   4.768   0.639 -2.4285 -4.0123  1.7600
  327MOL0     H44134   3.485   4.695   0.739  0.0504  0.7518  0.4704
  327MOL0     H44135   3.702   4.667   0.729 -1.3398  0.2126  0.9872
  327MOL0     H44136   3.631   4.546   0.835  1.3807 -1.3273 -0.2466
  327MOL0     H44137   3.828   4.415   0.816  3.9250 -1.4597 -1.4198
  327MOL0     H44138   3.883   4.586   0.842  3.5964  1.0038 -3.6273
  327MOL0     H44139   3.910   4.606   0.590  3.3123  0.2162  0.0019
  327MOL0     H44140   3.867   4.425   0.581  0.5249 -1.7264  1.3346
  327MOL0     H44141   4.113   4.549   0.715 -0.5543  0.8507 -0.2224
  327MOL0     H44142   4.106   4.474   0.559  1.4483 -0.3611  0.7328
  327MOL0     H44143   4.091   4.140   0.816 -2.0146 -0.5446 -0.0834
  327MOL0     H44144   3.534   4.419   0.400 -3.5332 -2.8274  0.1632
  327MOL0     H44145   3.334   4.518   0.303 -0.5280 -1.8399  0.6931
  328MOL0     O44146   2.767   4.079   5.513 -0.7765  0.1058 -0.5800
  328MOL0     C44147   2.713   4.192   5.516  0.0743 -0.2320 -0.3975
  328MOL0     O44148   2.591   4.217   5.573 -0.0997 -0.5700  0.4183
  328MOL0     C44149   2.509   4.117   5.613  0.6483  0.2303  0.2938
  328MOL0     C44150   2.474   4.116   5.749 -0.0894  0.1521  0.0784
  328MOL0     C44151   2.377   4.026   5.802  0.6371 -0.2685  0.0746
  328MOL0     C44152   2.318   3.926   5.711 -0.2524  0.0371 -0.9857
  328MOL0     O44153   2.230   3.846   5.770  0.7425  0.3986  0.2513
  328MOL0     C44154   2.150   3.763   5.682 -0.5239  0.2634 -0.1084
  328MOL0     C44155   2.026   3.715   5.751  0.1796  0.3073 -0.7859
  328MOL0     C44156   2.057   3.621   5.861 -0.5692 -0.6825 -0.7594
  328MOL0     C44157   1.936   3.595   5.942  0.4468 -0.3609  0.2715
  328MOL0     C44158   1.946   3.481   6.049 -0.2831  0.6890 -0.7853
  328MOL0     C44159   1.983   3.338   5.995  0.6482 -0.2768 -0.1421
  328MOL0     C44160   1.969   3.226   6.089 -0.0878 -0.2815 -0.5429
  328MOL0     C44161   1.822   3.190   6.123  0.1149  0.2135  0.0811
  328MOL0     N44162   1.764   3.123   6.006  0.7109 -0.2145  0.1664
  328MOL0     C44163   1.763   2.985   5.990  0.9420  0.7435  0.9045
  328MOL0     C44164   1.677   2.968   5.888  0.0839  0.1148 -0.0666
  328MOL0     C44165   1.626   2.831   5.849  0.0663 -0.8996  0.0703
  328MOL0     C44166   1.574   2.820   5.710  1.1328 -0.3160  0.2243
  328MOL0     C44167   1.573   2.670   5.667 -0.5978  0.3910 -0.4074
  328MOL0     C44168   1.500   2.574   5.763 -0.3674  0.3881  0.1143
  328MOL0     O44169   1.472   2.449   5.701  0.2370  0.2893 -0.1780
  328MOL0     C44170   1.360   2.434   5.634 -0.3465  0.2272  0.1799
  328MOL0     C44171   1.327   2.303   5.601 -0.0076 -0.0096  0.0280
  328MOL0     C44172   1.213   2.278   5.524  1.5288 -0.4444 -0.4865
  328MOL0     C44173   1.179   2.125   5.515  0.6749 -0.3624 -0.2899
  328MOL0     C44174   1.140   2.381   5.456  0.6132  0.1982  0.0120
  328MOL0     C44175   1.017   2.366   5.368  0.3455 -0.0527 -0.3811
  328MOL0     O44176   0.973   2.471   5.298  0.7989  0.0790 -0.1354
  328MOL0     C44177   0.862   2.460   5.221  0.5104 -0.5123  0.4841
  328MOL0     C44178   0.848   2.374   5.106  0.2964  0.9243 -0.2215
  328MOL0     C44179   0.724   2.361   5.038  0.2994 -0.3350  0.4507
  328MOL0     C44180   0.620   2.442   5.069  0.4136 -0.4385  0.3072
  328MOL0     O44181   0.499   2.434   5.002  0.4604  0.3681  0.7630
  328MOL0     C44182   0.388   2.520   5.039 -1.3671 -0.1717 -0.7030
  328MOL0     C44183   0.267   2.494   4.941 -0.1839 -1.0335 -0.6480
  328MOL0     C44184   0.159   2.596   4.977  0.3461 -0.6001  0.2882
  328MOL0     C44185   0.021   2.541   4.947 -0.4303  0.1983  0.4621
  328MOL0     C44186  -0.096   2.635   4.955  0.0416  1.0110 -0.1377
  328MOL0     C44187  -0.076   2.754   4.859  0.1596  0.3334  0.9454
  328MOL0     C44188  -0.214   2.793   4.799  0.0247  0.9111  0.7813
  328MOL0     C44189  -0.315   2.857   4.902  1.1440  0.0903  0.1998
  328MOL0    Cl44190  -0.439   2.958   4.823  0.3361 -0.0384 -0.2304
  328MOL0     C44191   0.637   2.534   5.175  0.2111  0.6494 -0.0681
  328MOL0     C44192   0.757   2.538   5.246 -0.0102 -0.0629 -0.6014
  328MOL0     O44193   0.975   2.250   5.351 -0.2913  0.0913 -0.7003
  328MOL0     C44194   1.173   2.510   5.498  0.7478 -1.0261 -0.0784
  328MOL0     C44195   1.282   2.540   5.576 -0.5770  0.4967  0.3186
  328MOL0     N44196   1.614   3.094   5.864 -0.9014 -1.0205 -0.6523
  328MOL0     N44197   1.665   3.182   5.939 -0.5263  0.3662  0.1963
  328MOL0     C44198   2.359   3.929   5.575 -0.2473 -0.1737  0.1213
  328MOL0     C44199   2.442   4.027   5.523 -0.2885 -0.3405 -0.2887
  328MOL0     C44200   2.802   4.302   5.477  1.1943  0.5098 -0.6439
  328MOL0     C44201   2.920   4.283   5.416 -0.6626 -0.0780 -0.1686
  328MOL0     C44202   3.012   4.387   5.396 -0.1270 -0.3848  0.0934
  328MOL0     C44203   2.986   4.520   5.443  0.3546  0.7300  0.5302
  328MOL0     O44204   3.087   4.608   5.430 -0.0251 -0.5086 -0.5579
  328MOL0     C44205   3.071   4.747   5.477 -0.3731 -0.7333 -0.6811
  328MOL0     C44206   3.197   4.830   5.461  0.5771  0.4415 -0.3472
  328MOL0     C44207   3.322   4.758   5.520 -0.2713 -0.2127  1.1329
  328MOL0     C44208   3.303   4.711   5.662  0.1865 -0.4066  0.2465
  328MOL0     C44209   3.423   4.696   5.732 -0.7461  0.6796 -0.8000
  328MOL0     C44210   3.538   4.675   5.776 -0.4716  0.2414 -0.6128
  328MOL0     C44211   2.856   4.537   5.491  0.0796  0.9331  0.3127
  328MOL0     C44212   2.767   4.433   5.519  0.0477  0.2505 -0.5560
  328MOL0     H44213   2.512   4.189   5.819 -2.5632 -0.2573  2.0309
  328MOL0     H44214   2.346   4.021   5.906  1.6497  2.1303  0.5565
  328MOL0     H44215   2.107   3.814   5.595 -0.4028 -1.2839 -1.0960
  328MOL0     H44216   2.211   3.679   5.647  0.4569  0.8594  0.1254
  328MOL0     H44217   1.970   3.798   5.796  0.4690 -1.2490  2.7677
  328MOL0     H44218   1.954   3.663   5.686  2.6159 -0.7127 -2.8266
  328MOL0     H44219   2.095   3.524   5.826 -2.5268 -1.6757 -0.2941
  328MOL0     H44220   2.127   3.670   5.928 -1.4300 -1.2944  0.6263
  328MOL0     H44221   1.912   3.695   5.980 -0.8007  0.0704 -1.5471
  328MOL0     H44222   1.854   3.574   5.872  0.4665  0.2182  0.0758
  328MOL0     H44223   2.030   3.503   6.116  0.3637 -1.0929 -0.9464
  328MOL0     H44224   1.863   3.470   6.119  2.2747 -0.9085  2.2828
  328MOL0     H44225   1.912   3.328   5.912  1.4950  0.4658 -0.9965
  328MOL0     H44226   2.086   3.340   5.957  0.5656  3.0131 -0.4623
  328MOL0     H44227   2.032   3.140   6.065 -0.2056 -1.3280  2.4311
  328MOL0     H44228   2.007   3.263   6.185  1.5526 -1.6548 -0.6107
  328MOL0     H44229   1.767   3.283   6.142  0.1422 -0.1417  2.1647
  328MOL0     H44230   1.813   3.123   6.209 -0.8688 -0.3713 -0.4597
  328MOL0     H44231   1.823   2.913   6.046  0.8717 -0.3483 -0.3906
  328MOL0     H44232   1.710   2.763   5.865 -0.2069 -0.4407  4.8408
  328MOL0     H44233   1.552   2.806   5.926 -0.8227 -0.1925 -0.5336
  328MOL0     H44234   1.636   2.871   5.636  0.0110 -1.7265 -1.7986
  328MOL0     H44235   1.471   2.858   5.707  0.9524 -0.8412 -2.1274
  328MOL0     H44236   1.670   2.625   5.645 -1.4183 -1.3067 -0.7115
  328MOL0     H44237   1.522   2.670   5.571 -0.7490  1.9076 -0.3493
  328MOL0     H44238   1.408   2.620   5.800 -0.9032 -0.6919  0.1588
  328MOL0     H44239   1.563   2.555   5.850 -0.2488  2.6226  0.5966
  328MOL0     H44240   1.388   2.216   5.623  0.9907  0.3484 -1.2156
  328MOL0     H44241   1.217   2.083   5.421 -0.0516  0.4131 -0.9383
  328MOL0     H44242   1.217   2.072   5.603  3.1098  0.3264 -0.8426
  328MOL0     H44243   1.071   2.108   5.517  0.5444  0.4466  0.0805
  328MOL0     H44244   0.933   2.308   5.088  1.1298  1.8375  0.2423
  328MOL0     H44245   0.710   2.290   4.957 -2.6623  0.6582 -0.0171
  328MOL0     H44246   0.357   2.499   5.142  1.8866  2.2518  0.9283
  328MOL0     H44247   0.432   2.620   5.031  1.8468 -1.4399 -0.2352
  328MOL0     H44248   0.300   2.504   4.837  1.6060  2.3092  0.0937
  328MOL0     H44249   0.239   2.389   4.954 -0.1933 -0.8533  1.0450
  328MOL0     H44250   0.186   2.689   4.925  0.9187 -1.5860 -1.2341
  328MOL0     H44251   0.164   2.624   5.083 -3.1628  1.3701  0.0934
  328MOL0     H44252   0.007   2.494   4.849  0.3109 -0.0596  0.4721
  328MOL0     H44253   0.008   2.459   5.019  2.6619  0.1596  1.1607
  328MOL0     H44254  -0.093   2.683   5.053  0.1444 -1.4052  1.1131
  328MOL0     H44255  -0.195   2.591   4.942  0.1257  0.5041  0.8904
  328MOL0     H44256  -0.043   2.838   4.920 -0.9856  0.8346  0.8904
  328MOL0     H44257  -0.013   2.737   4.771 -2.2739  1.9856 -1.2707
  328MOL0     H44258  -0.266   2.705   4.761 -2.4148  3.5245 -2.5293
  328MOL0     H44259  -0.201   2.850   4.707  0.1651 -0.5134 -0.0990
  328MOL0     H44260  -0.261   2.916   4.976  0.6072  1.1545 -0.2338
  328MOL0     H44261  -0.369   2.783   4.962 -1.7966  0.2491 -2.0086
  328MOL0     H44262   0.560   2.599   5.216 -0.9398 -1.1648  0.7816
  328MOL0     H44263   0.762   2.603   5.332 -2.8959 -0.4664 -0.0349
  328MOL0     H44264   1.121   2.590   5.445  0.8726  1.4019  3.1416
  328MOL0     H44265   1.311   2.642   5.595  1.5309 -0.3832  2.3902
  328MOL0     H44266   2.332   3.845   5.512  1.1994  0.5779 -1.5929
  328MOL0     H44267   2.461   4.030   5.416 -1.2047 -2.2282 -0.5414
  328MOL0     H44268   2.959   4.188   5.381  1.9851  0.4615  1.0256
  328MOL0     H44269   3.093   4.376   5.325  2.2605 -1.8097  2.8821
  328MOL0     H44270   2.986   4.790   5.423  1.3692  2.1487 -1.3576
  328MOL0     H44271   3.049   4.750   5.584  0.1343 -1.1948 -0.5606
  328MOL0     H44272   3.185   4.929   5.506  1.7795  1.5319 -2.2486
  328MOL0     H44273   3.204   4.844   5.352  0.4422 -0.1739 -0.4374
  328MOL0     H44274   3.391   4.842   5.523 -1.1667  0.5517  4.2260
  328MOL0     H44275   3.357   4.670   5.466  2.1701  1.5922 -0.4032
  328MOL0     H44276   3.241   4.620   5.660 -1.4880  0.6005 -3.7276
  328MOL0     H44277   3.243   4.778   5.723  2.1590  1.2665  0.4540
  328MOL0     H44278   3.634   4.661   5.821 -1.4007 -0.4585  1.2351
  328MOL0     H44279   2.824   4.638   5.515  0.0865  0.7860  0.9742
  328MOL0     H44280   2.680   4.460   5.578  1.0779  0.0575  1.1191
  329MOL0     O44281   2.816   2.824   6.213 -0.5957 -0.7534  0.4315
  329MOL0     C44282   2.797   2.945   6.244  0.7142 -0.3946  0.6389
  329MOL0     O44283   2.730   2.996   6.356 -0.2862 -0.1691  0.9126
  329MOL0     C44284   2.666   2.911   6.449  0.4492  0.2359  0.7956
  329MOL0     C44285   2.608   2.974   6.566  0.2371  0.2985  0.6814
  329MOL0     C44286   2.545   2.902   6.666 -0.3883 -0.2381  0.4400
  329MOL0     C44287   2.529   2.759   6.655 -0.6312 -0.1799  0.0219
  329MOL0     O44288   2.474   2.685   6.758 -0.4482  0.2631  0.3243
  329MOL0     C44289   2.439   2.747   6.887  0.4273  0.1363 -0.5786
  329MOL0     C44290   2.370   2.654   6.982  0.1450  0.8897 -0.8314
  329MOL0     C44291   2.226   2.639   6.929  0.3959  0.8474 -0.5087
  329MOL0     C44292   2.144   2.541   7.007 -0.0223 -0.3170  0.6466
  329MOL0     C44293   1.992   2.552   6.980  0.3468  0.5973  0.0909
  329MOL0     C44294   1.960   2.511   6.840 -0.2276 -0.0177  0.9625
  329MOL0     C44295   1.809   2.534   6.804 -0.3177  0.5358 -0.3106
  329MOL0     C44296   1.783   2.474   6.674  0.3616  0.2615  0.0760
  329MOL0     N44297   1.643   2.454   6.654  0.4520  0.5498  1.4707
  329MOL0     C44298   1.548   2.560   6.641 -0.2153 -0.3073 -0.0415
  329MOL0     C44299   1.430   2.501   6.595 -0.1157 -0.5979 -0.7425
  329MOL0     C44300   1.300   2.573   6.572 -0.0581  0.6430  0.3052
  329MOL0     C44301   1.214   2.544   6.449 -0.1712  0.1645  0.0692
  329MOL0     C44302   1.285   2.571   6.324 -0.3613  0.0491  0.7770
  329MOL0     C44303   1.196   2.612   6.200  0.8544 -0.6437 -0.5544
  329MOL0     O44304   1.249   2.556   6.082  0.0999  0.1742 -0.0696
  329MOL0     C44305   1.153   2.519   5.999  0.3101 -0.3195  0.3347
  329MOL0     C44306   1.092   2.401   5.997  0.0619 -0.3405 -0.8094
  329MOL0     C44307   0.977   2.366   5.917  1.0874  0.6787 -0.6685
  329MOL0     C44308   0.928   2.224   5.932 -0.0438  0.8832  0.0143
  329MOL0     C44309   0.926   2.464   5.832  0.0268 -0.0321  0.1384
  329MOL0     C44310   0.796   2.456   5.758  0.4360 -1.3510  0.1107
  329MOL0     O44311   0.743   2.567   5.707 -0.0080 -0.9311 -0.3904
  329MOL0     C44312   0.641   2.584   5.620  0.4523 -0.5819 -0.7441
  329MOL0     C44313   0.579   2.485   5.540  0.2085 -0.3944  0.1532
  329MOL0     C44314   0.458   2.511   5.474 -0.0485 -0.0055  1.1513
  329MOL0     C44315   0.389   2.628   5.497  0.4016 -0.5213  0.6405
  329MOL0     O44316   0.267   2.659   5.442  0.0377  0.7956 -0.1171
  329MOL0     C44317   0.175   2.549   5.408 -0.4728  0.1018 -0.2268
  329MOL0     C44318   0.043   2.606   5.363 -0.1475 -0.5910  0.0001
  329MOL0     C44319  -0.069   2.495   5.354  0.3426  0.1795  0.5698
  329MOL0     C44320  -0.213   2.542   5.351  0.4246 -0.1442  0.3599
  329MOL0     C44321  -0.307   2.420   5.324  0.3278  0.4287  1.1949
  329MOL0     C44322  -0.446   2.462   5.316 -0.1782  0.2793 -1.4056
  329MOL0     C44323  -0.542   2.344   5.295 -0.7871  0.0057  0.0410
  329MOL0     C44324  -0.690   2.382   5.303 -0.1365  0.0723 -0.6077
  329MOL0    Cl44325  -0.723   2.480   5.456 -0.0018  0.0230  0.1882
  329MOL0     C44326   0.448   2.727   5.581 -0.3848  0.4607 -0.8611
  329MOL0     C44327   0.571   2.708   5.644 -0.6466  0.0305 -0.2412
  329MOL0     O44328   0.739   2.348   5.740 -0.1667  0.3203 -0.5045
  329MOL0     C44329   0.984   2.594   5.839 -0.4496  0.2802  0.4680
  329MOL0     C44330   1.093   2.621   5.922 -0.7111  0.2474 -0.3466
  329MOL0     N44331   1.460   2.364   6.587 -0.1538 -0.3772  0.4530
  329MOL0     N44332   1.587   2.346   6.608  1.1301  0.2935 -0.4404
  329MOL0     C44333   2.570   2.699   6.538 -0.2458 -0.4128 -0.2144
  329MOL0     C44334   2.638   2.769   6.439 -0.1527 -0.5750  0.4184
  329MOL0     C44335   2.839   3.046   6.145  0.0281 -0.3579 -0.2302
  329MOL0     C44336   2.909   3.007   6.034 -0.8690  0.1308  0.2620
  329MOL0     C44337   2.964   3.103   5.944  0.0827  1.2141  0.4892
  329MOL0     C44338   2.966   3.238   5.974 -0.3655  0.6252  0.2612
  329MOL0     O44339   3.039   3.314   5.880  0.0955  0.1457 -0.3896
  329MOL0     C44340   3.082   3.449   5.914  0.1775  0.5510 -0.3048
  329MOL0     C44341   3.144   3.523   5.793  0.0817  0.4105 -0.0119
  329MOL0     C44342   3.283   3.481   5.754  0.3426  1.1639 -0.0679
  329MOL0     C44343   3.353   3.568   5.645  0.2705  0.6169  0.1042
  329MOL0     C44344   3.366   3.705   5.686 -0.3251 -0.3107 -0.8482
  329MOL0     C44345   3.377   3.823   5.711 -0.1486  1.1114 -0.3085
  329MOL0     C44346   2.899   3.278   6.095  0.9037 -0.1974  0.7357
  329MOL0     C44347   2.840   3.183   6.178 -1.1249 -0.6523  0.2014
  329MOL0     H44348   2.609   3.083   6.563 -1.1759  0.2976 -0.6550
  329MOL0     H44349   2.513   2.962   6.751  0.2429 -0.4696  0.8493
  329MOL0     H44350   2.528   2.776   6.944 -1.5986  0.1481  2.8700
  329MOL0     H44351   2.367   2.827   6.870 -0.9002 -1.1741 -1.3733
  329MOL0     H44352   2.425   2.560   6.976  0.8865  1.3712 -2.2580
  329MOL0     H44353   2.378   2.699   7.081  0.0943  1.6065 -1.1472
  329MOL0     H44354   2.177   2.736   6.930  0.3288  0.8107  0.0589
  329MOL0     H44355   2.225   2.601   6.827  1.3147  0.9893 -0.5842
  329MOL0     H44356   2.185   2.439   7.000 -0.7350 -0.5806  0.2203
  329MOL0     H44357   2.165   2.575   7.109  3.4979  1.4495 -0.5187
  329MOL0     H44358   1.931   2.493   7.050 -1.1046  1.9631  0.0551
  329MOL0     H44359   1.966   2.658   6.990  0.2276  0.8659 -2.5226
  329MOL0     H44360   2.031   2.565   6.777  1.3863  0.4357  3.0546
  329MOL0     H44361   1.980   2.403   6.833 -0.3179  0.0797 -1.4286
  329MOL0     H44362   1.749   2.481   6.878  0.3665 -1.1888 -0.9303
  329MOL0     H44363   1.786   2.641   6.806 -0.1619  0.5682 -0.2478
  329MOL0     H44364   1.830   2.375   6.677  1.5036  0.8136  2.1042
  329MOL0     H44365   1.826   2.535   6.594 -1.8024  0.0554 -1.3470
  329MOL0     H44366   1.569   2.665   6.658  2.3583 -0.6226 -0.8691
  329MOL0     H44367   1.246   2.528   6.656  0.3905 -0.9162 -0.2055
  329MOL0     H44368   1.313   2.681   6.587 -1.3924  0.5452  2.6085
  329MOL0     H44369   1.127   2.609   6.433 -0.2034  0.7424  2.2205
  329MOL0     H44370   1.183   2.440   6.450  0.7703 -0.1973 -2.3780
  329MOL0     H44371   1.353   2.490   6.296  1.7555  2.0279 -0.1078
  329MOL0     H44372   1.350   2.656   6.344 -0.1068 -0.1939  0.9898
  329MOL0     H44373   1.207   2.720   6.188  0.3867 -0.5969 -0.6041
  329MOL0     H44374   1.091   2.585   6.219 -0.2073  2.7045 -0.9550
  329MOL0     H44375   1.133   2.312   6.044 -1.4715  0.0296  1.3851
  329MOL0     H44376   0.832   2.217   5.984  0.5190  0.6448  1.0511
  329MOL0     H44377   0.912   2.181   5.833  0.2021 -0.8392  0.6814
  329MOL0     H44378   1.001   2.159   5.981 -0.3205  1.0068  0.5958
  329MOL0     H44379   0.630   2.390   5.525  2.0166  0.0467  2.7684
  329MOL0     H44380   0.428   2.426   5.414  3.1436 -0.3133 -0.1616
  329MOL0     H44381   0.211   2.492   5.322  1.3521  1.8570 -0.6944
  329MOL0     H44382   0.154   2.484   5.494 -0.3542  2.7022  1.9375
  329MOL0     H44383   0.012   2.670   5.447  0.4064  0.5187 -0.6266
  329MOL0     H44384   0.051   2.658   5.267 -1.0838 -0.5296 -0.0563
  329MOL0     H44385  -0.056   2.417   5.429  0.3489 -0.6326 -0.2538
  329MOL0     H44386  -0.066   2.437   5.261 -2.6724 -2.1737  1.7825
  329MOL0     H44387  -0.239   2.586   5.447 -1.0873 -1.5277  0.6301
  329MOL0     H44388  -0.232   2.619   5.275 -2.1765 -1.7032 -0.7159
  329MOL0     H44389  -0.288   2.344   5.401  0.1450 -1.4305 -0.4992
  329MOL0     H44390  -0.277   2.378   5.227  0.9915  0.0319  1.5655
  329MOL0     H44391  -0.476   2.512   5.409 -0.9589 -2.1818 -0.2654
  329MOL0     H44392  -0.469   2.529   5.232 -0.9934 -1.5392 -2.6907
  329MOL0     H44393  -0.512   2.268   5.368 -0.0304 -0.5008 -0.7802
  329MOL0     H44394  -0.529   2.299   5.196 -1.1601  0.9573 -0.4531
  329MOL0     H44395  -0.746   2.290   5.324 -0.9520  0.6147 -0.3657
  329MOL0     H44396  -0.725   2.439   5.217  0.8204 -1.7872 -2.2983
  329MOL0     H44397   0.393   2.816   5.611 -1.2522 -0.0241 -0.9730
  329MOL0     H44398   0.606   2.784   5.712 -1.4782 -0.1821  0.4428
  329MOL0     H44399   0.928   2.678   5.799 -1.5776 -1.0198 -0.8015
  329MOL0     H44400   1.139   2.720   5.926 -0.3396  0.0594  0.2087
  329MOL0     H44401   2.560   2.594   6.515 -2.1776  0.0434 -1.7479
  329MOL0     H44402   2.661   2.714   6.349  1.1584  1.5319 -0.6172
  329MOL0     H44403   2.932   2.904   6.009  1.0070  1.0066 -2.0055
  329MOL0     H44404   3.009   3.066   5.852 -1.1479  2.2272 -0.5572
  329MOL0     H44405   3.001   3.508   5.959 -0.6920 -0.3781 -0.6366
  329MOL0     H44406   3.152   3.450   5.998  0.4022  0.3808 -0.4932
  329MOL0     H44407   3.142   3.627   5.827  0.6105  0.2083  0.6760
  329MOL0     H44408   3.075   3.507   5.710  0.3755  1.5096 -0.4786
  329MOL0     H44409   3.295   3.379   5.716  1.4064  0.8847  0.9479
  329MOL0     H44410   3.345   3.485   5.844 -0.8822 -0.7774  0.9395
  329MOL0     H44411   3.305   3.555   5.547  0.6690  1.9708 -0.2879
  329MOL0     H44412   3.457   3.534   5.637  0.4895  1.3930 -0.4978
  329MOL0     H44413   3.388   3.929   5.728 -1.0409  1.0213  0.9488
  329MOL0     H44414   2.905   3.384   6.120 -0.6165  0.9826 -3.0525
  329MOL0     H44415   2.803   3.228   6.269 -0.1095  2.8417 -0.9441
  330MOL0     O44416   0.505   1.471   3.272  0.2856  0.0448  0.3072
  330MOL0     C44417   0.530   1.350   3.250 -0.1447  1.1830  0.6220
  330MOL0     O44418   0.441   1.245   3.222 -0.5881 -0.0098  0.1764
  330MOL0     C44419   0.309   1.256   3.206 -0.3752  0.9336  0.5214
  330MOL0     C44420   0.244   1.145   3.138  0.7793 -0.1595 -0.0380
  330MOL0     C44421   0.104   1.152   3.111  0.3928 -0.0699 -0.2996
  330MOL0     C44422   0.034   1.272   3.133  0.3675 -0.7005 -0.4998
  330MOL0     O44423  -0.103   1.289   3.101 -0.0679  0.5119 -0.5052
  330MOL0     C44424  -0.161   1.188   3.016 -1.0632 -0.0935 -0.8910
  330MOL0     C44425  -0.294   1.258   2.986 -0.5691 -0.1697 -0.3996
  330MOL0     C44426  -0.398   1.174   2.904  0.1841 -0.4003  0.1184
  330MOL0     C44427  -0.532   1.204   2.960 -0.1747 -0.7913 -0.3176
  330MOL0     C44428  -0.630   1.140   2.869 -0.4180  0.2332  0.4895
  330MOL0     C44429  -0.769   1.211   2.872  0.5625  0.3845 -0.3158
  330MOL0     C44430  -0.878   1.133   2.799  0.3161  0.2505 -1.0012
  330MOL0     C44431  -0.841   1.112   2.658 -0.0165 -0.1426  0.2612
  330MOL0     N44432  -0.948   1.044   2.579 -0.2273 -0.4454  0.3890
  330MOL0     C44433  -0.916   0.972   2.463  0.1971  0.2942 -0.4287
  330MOL0     C44434  -1.041   0.952   2.410 -0.2983  0.8327 -0.0432
  330MOL0     C44435  -1.067   0.898   2.274  0.1431  0.3833 -0.3664
  330MOL0     C44436  -1.212   0.860   2.255  0.5292 -0.2546  0.1922
  330MOL0     C44437  -1.257   0.821   2.112 -0.2745  0.7261 -0.0541
  330MOL0     C44438  -1.408   0.793   2.096  0.0903  0.5235  0.0900
  330MOL0     O44439  -1.437   0.773   1.959  0.0497  0.8882  0.4020
  330MOL0     C44440  -1.562   0.808   1.913 -0.4743 -0.8060 -0.1511
  330MOL0     C44441  -1.583   0.837   1.782  0.1823 -0.7610 -0.0890
  330MOL0     C44442  -1.713   0.848   1.733 -0.3969 -0.5166  0.3216
  330MOL0     C44443  -1.718   0.902   1.584 -0.4165  0.6204 -0.1841
  330MOL0     C44444  -1.823   0.851   1.817  0.2548 -0.3408 -0.0368
  330MOL0     C44445  -1.959   0.895   1.788 -0.0047  0.8274 -0.1662
  330MOL0     O44446  -1.972   0.962   1.670  0.0027 -0.0458 -0.0730
  330MOL0     C44447  -2.092   0.971   1.606 -0.0825 -0.1796  0.2820
  330MOL0     C44448  -2.228   0.962   1.658  0.3984 -0.5209 -0.4607
  330MOL0     C44449  -2.339   0.971   1.582  0.1723 -0.5472 -0.4509
  330MOL0     C44450  -2.328   1.010   1.451  0.0610  0.1528  0.0488
  330MOL0     O44451  -2.439   1.039   1.370  0.5274  1.0531 -0.0870
  330MOL0     C44452  -2.525   1.151   1.405  0.1153  0.1796 -0.4635
  330MOL0     C44453  -2.649   1.152   1.307 -0.3881 -0.5604 -0.5367
  330MOL0     C44454  -2.700   1.014   1.281 -0.7653  0.4879  0.2851
  330MOL0     C44455  -2.849   1.022   1.260  1.5349 -0.2368 -0.1311
  330MOL0     C44456  -2.908   0.880   1.257  0.3578 -0.7581 -0.3491
  330MOL0     C44457  -3.061   0.886   1.269 -0.0179 -0.3320 -0.0350
  330MOL0     C44458  -3.125   0.960   1.145  0.1624 -0.4771  0.4684
  330MOL0     C44459  -3.267   0.997   1.187  0.4097  0.3618 -0.3020
  330MOL0    Cl44460  -3.352   1.073   1.050  0.0509 -0.0645 -0.5477
  330MOL0     C44461  -2.198   1.009   1.392 -0.3593  0.7331  1.0811
  330MOL0     C44462  -2.081   1.000   1.471 -0.2623 -0.3146  0.4667
  330MOL0     O44463  -2.050   0.857   1.858  0.3132  0.8405  0.2063
  330MOL0     C44464  -1.802   0.818   1.950  0.5269  0.3951  0.5568
  330MOL0     C44465  -1.675   0.788   1.993 -0.3932 -0.0321  0.4930
  330MOL0     N44466  -1.136   1.003   2.499 -0.1853 -0.5426  0.2142
  330MOL0     N44467  -1.082   1.067   2.602  0.1018 -0.1352  0.2171
  330MOL0     C44468   0.105   1.380   3.185 -0.2133 -0.0498 -0.7104
  330MOL0     C44469   0.237   1.384   3.212  0.4139  0.4070 -0.9996
  330MOL0     C44470   0.676   1.315   3.280  0.6860  0.0680 -0.3967
  330MOL0     C44471   0.757   1.405   3.352  0.1632 -0.1702  0.3067
  330MOL0     C44472   0.886   1.372   3.385  0.7564  0.3511  0.4364
  330MOL0     C44473   0.933   1.244   3.363 -0.7169 -0.2688 -0.3346
  330MOL0     O44474   1.068   1.235   3.402  0.3569  0.1541  0.9027
  330MOL0     C44475   1.134   1.117   3.375 -0.0731  0.8171  0.2238
  330MOL0     C44476   1.278   1.119   3.426 -1.5886  0.3008  0.7075
  330MOL0     C44477   1.362   1.002   3.375 -0.4586 -0.2882 -0.6841
  330MOL0     C44478   1.483   0.970   3.462  0.1812  0.1375  0.4256
  330MOL0     C44479   1.554   1.104   3.491  0.4857  0.7499  0.4083
  330MOL0     C44480   1.603   1.205   3.535  0.2020 -0.5437 -0.3405
  330MOL0     C44481   0.853   1.153   3.290 -0.6405  0.9911 -1.1629
  330MOL0     C44482   0.722   1.184   3.258 -0.6910 -0.3305  0.9025
  330MOL0     H44483   0.293   1.050   3.119 -0.3519 -1.5956  3.4751
  330MOL0     H44484   0.055   1.074   3.054 -0.5100  1.3313 -1.5246
  330MOL0     H44485  -0.101   1.157   2.930 -0.5585 -2.8974  0.3340
  330MOL0     H44486  -0.184   1.096   3.071 -0.3165 -1.7804 -3.2201
  330MOL0     H44487  -0.344   1.281   3.080  0.6113 -4.7738  1.6165
  330MOL0     H44488  -0.264   1.348   2.933  0.9312  1.4045  2.8588
  330MOL0     H44489  -0.385   1.195   2.798  0.1994 -0.5690  0.0861
  330MOL0     H44490  -0.374   1.068   2.920  3.7666 -0.0120 -1.6650
  330MOL0     H44491  -0.548   1.168   3.062 -1.0786  3.8450  1.4409
  330MOL0     H44492  -0.543   1.313   2.968 -0.4320 -0.9354  2.0082
  330MOL0     H44493  -0.589   1.147   2.767  0.2432  2.3899  0.8485
  330MOL0     H44494  -0.652   1.034   2.888  1.1800 -0.6817 -2.1621
  330MOL0     H44495  -0.791   1.224   2.978 -2.4084 -2.2554 -0.4473
  330MOL0     H44496  -0.771   1.308   2.823 -0.8415  0.8823  0.6482
  330MOL0     H44497  -0.883   1.032   2.840 -0.5874  0.5040 -0.4720
  330MOL0     H44498  -0.977   1.178   2.809 -1.3505 -3.1180 -0.9509
  330MOL0     H44499  -0.751   1.049   2.655 -0.3106 -0.5334 -0.4345
  330MOL0     H44500  -0.807   1.208   2.618  1.4589 -1.3593 -1.5807
  330MOL0     H44501  -0.823   0.935   2.421 -0.1313 -2.7648  1.2727
  330MOL0     H44502  -1.035   0.976   2.204  0.6333  2.0853  1.6534
  330MOL0     H44503  -1.010   0.806   2.261 -0.4650 -0.3617  1.7652
  330MOL0     H44504  -1.272   0.949   2.276 -0.3426 -0.3280 -1.8168
  330MOL0     H44505  -1.240   0.786   2.331 -1.7962  0.7407  0.4012
  330MOL0     H44506  -1.199   0.731   2.090  0.4764  0.3541  2.9898
  330MOL0     H44507  -1.221   0.891   2.035 -2.4198 -0.9839 -2.8224
  330MOL0     H44508  -1.459   0.882   2.134 -3.1484 -1.1960  0.1259
  330MOL0     H44509  -1.430   0.704   2.155 -0.3647  1.2312  1.0285
  330MOL0     H44510  -1.498   0.865   1.721 -0.3190 -1.4053 -1.1190
  330MOL0     H44511  -1.783   0.841   1.520 -1.7817 -0.6504  2.2863
  330MOL0     H44512  -1.762   1.001   1.573  1.8940  1.7405  0.1926
  330MOL0     H44513  -1.617   0.900   1.541  0.0416  0.8435  0.8565
  330MOL0     H44514  -2.246   0.949   1.765 -0.3459  1.1027 -0.3608
  330MOL0     H44515  -2.438   0.975   1.626 -0.1232  2.1507 -1.1349
  330MOL0     H44516  -2.556   1.126   1.507  1.2652 -0.2241 -0.2032
  330MOL0     H44517  -2.471   1.244   1.422  0.5523  0.0069 -0.8820
  330MOL0     H44518  -2.724   1.219   1.349 -0.4328 -2.0996  2.0110
  330MOL0     H44519  -2.607   1.184   1.210  0.1004 -0.2691 -0.2350
  330MOL0     H44520  -2.669   0.951   1.366 -0.4754  1.1348  0.6691
  330MOL0     H44521  -2.641   0.979   1.196  1.6338  2.5180  0.9929
  330MOL0     H44522  -2.898   1.087   1.333 -0.3453 -0.3454 -1.2304
  330MOL0     H44523  -2.871   1.079   1.169 -1.7394  1.8934  1.7547
  330MOL0     H44524  -2.866   0.821   1.339  2.5227  0.4137 -0.5576
  330MOL0     H44525  -2.884   0.842   1.157  0.9146 -1.9928  0.2389
  330MOL0     H44526  -3.092   0.783   1.290  2.9523 -1.0433  1.4669
  330MOL0     H44527  -3.087   0.932   1.365 -1.0725  0.6107 -0.7459
  330MOL0     H44528  -3.129   0.903   1.052  2.0852  0.5446 -0.2883
  330MOL0     H44529  -3.081   1.057   1.122  1.7649 -1.2037  0.3307
  330MOL0     H44530  -3.282   1.054   1.279 -0.8314 -0.2666 -0.0773
  330MOL0     H44531  -3.326   0.907   1.210 -0.9582  1.5614  1.0869
  330MOL0     H44532  -2.180   1.026   1.286 -1.1490 -1.6484  0.5155
  330MOL0     H44533  -1.986   1.009   1.418  0.1880  1.6952  1.5076
  330MOL0     H44534  -1.880   0.831   2.023  0.0640  0.8680 -0.0180
  330MOL0     H44535  -1.658   0.764   2.097 -2.0588 -2.9101  0.2166
  330MOL0     H44536   0.054   1.475   3.191  2.5581  1.6166 -1.5273
  330MOL0     H44537   0.274   1.474   3.261  0.2712 -2.1977  4.7903
  330MOL0     H44538   0.726   1.502   3.386  1.8824 -0.0871  1.7622
  330MOL0     H44539   0.945   1.450   3.432 -0.4001  0.7793  1.2249
  330MOL0     H44540   1.074   1.036   3.417 -1.6155  0.8549 -1.7828
  330MOL0     H44541   1.152   1.103   3.268  0.4756 -0.3970  0.4597
  330MOL0     H44542   1.280   1.121   3.536  0.1154  1.8210  0.6938
  330MOL0     H44543   1.324   1.213   3.396  1.5924 -2.1834 -3.2848
  330MOL0     H44544   1.392   1.027   3.273 -2.6254 -1.4128 -1.6410
  330MOL0     H44545   1.302   0.911   3.375 -1.3814  0.2822  0.7064
  330MOL0     H44546   1.539   0.895   3.406  0.5437  0.3733  0.4731
  330MOL0     H44547   1.451   0.930   3.558 -0.1116 -1.0637 -0.1488
  330MOL0     H44548   1.660   1.291   3.566 -5.4814  3.3256  0.9416
  330MOL0     H44549   0.888   1.055   3.259 -2.8694  0.1273 -1.1064
  330MOL0     H44550   0.662   1.102   3.219 -0.1355  0.7585 -2.5875
  331MOL0     O44551   4.124   1.449   3.788 -0.7096  0.7440 -0.7096
  331MOL0     C44552   4.148   1.558   3.836  0.9046 -0.9366 -0.4214
  331MOL0     O44553   4.066   1.662   3.841  0.0714 -0.0897 -0.4006
  331MOL0     C44554   3.960   1.658   3.762  0.3723 -0.0403  0.1083
  331MOL0     C44555   3.981   1.683   3.628  0.2356 -0.1050 -0.0258
  331MOL0     C44556   3.871   1.690   3.543  0.3998 -0.4448 -0.0817
  331MOL0     C44557   3.744   1.673   3.595 -0.4838  0.2430 -0.2178
  331MOL0     O44558   3.655   1.676   3.496  0.2670  0.0987 -0.3113
  331MOL0     C44559   3.536   1.608   3.515 -0.2594  0.1445  0.3184
  331MOL0     C44560   3.462   1.627   3.381 -0.3697 -0.0810 -0.7449
  331MOL0     C44561   3.341   1.533   3.364 -0.0451  0.1728 -0.0721
  331MOL0     C44562   3.266   1.544   3.238 -0.4569 -0.2517  0.6645
  331MOL0     C44563   3.168   1.661   3.263  0.3077  0.0109  0.2352
  331MOL0     C44564   3.074   1.683   3.149 -0.1553 -0.1560 -0.4774
  331MOL0     C44565   3.154   1.721   3.018 -0.5020  0.1200  0.5630
  331MOL0     C44566   3.073   1.735   2.890  0.9068  0.5421  0.1836
  331MOL0     N44567   2.971   1.843   2.907 -0.2737  0.5295 -0.2368
  331MOL0     C44568   2.988   1.976   2.919 -0.0474 -0.7296  0.2662
  331MOL0     C44569   2.866   2.028   2.934 -0.0768 -0.3012 -0.4621
  331MOL0     C44570   2.837   2.178   2.969  0.5679  0.0856 -0.7505
  331MOL0     C44571   2.900   2.216   3.110  0.5080  0.2747  0.8630
  331MOL0     C44572   2.879   2.363   3.151 -0.6611  0.9224  0.5658
  331MOL0     C44573   2.740   2.379   3.205  0.5488 -0.0913  0.5137
  331MOL0     O44574   2.720   2.506   3.263  0.1436  0.2210  0.0356
  331MOL0     C44575   2.599   2.546   3.317  0.4926 -0.4967  0.0786
  331MOL0     C44576   2.482   2.472   3.319  0.7675 -1.3766  0.6842
  331MOL0     C44577   2.360   2.515   3.366  0.4149  0.6807 -0.3040
  331MOL0     C44578   2.246   2.434   3.323 -0.6554  0.4770  0.4785
  331MOL0     C44579   2.357   2.640   3.434 -0.5167  0.0261  0.4672
  331MOL0     C44580   2.235   2.677   3.508  0.9053 -0.5065 -0.2441
  331MOL0     O44581   2.216   2.814   3.530 -0.3005 -0.1399 -0.9729
  331MOL0     C44582   2.106   2.856   3.605 -0.8758  0.7334 -0.1142
  331MOL0     C44583   2.127   2.926   3.723 -0.0502  0.4910  0.4472
  331MOL0     C44584   2.019   2.961   3.809 -0.7493  0.3935 -0.0077
  331MOL0     C44585   1.885   2.918   3.780 -0.2326 -0.4468 -0.1597
  331MOL0     O44586   1.773   2.957   3.850 -0.5786 -0.4065 -0.4294
  331MOL0     C44587   1.761   3.096   3.895 -0.0940 -0.7616  0.0073
  331MOL0     C44588   1.610   3.112   3.933  0.5504  0.0333  0.1951
  331MOL0     C44589   1.518   3.124   3.811 -0.9633  0.4815  0.1970
  331MOL0     C44590   1.378   3.156   3.857  0.6050  0.3229 -0.2339
  331MOL0     C44591   1.284   3.171   3.733 -0.4226  1.0168 -0.1689
  331MOL0     C44592   1.248   3.036   3.674  0.8720 -0.0658  0.3963
  331MOL0     C44593   1.171   3.070   3.546 -0.6767  0.2019  0.3548
  331MOL0     C44594   1.109   2.948   3.476 -0.0173 -0.1702 -0.2096
  331MOL0    Cl44595   0.971   2.879   3.572  0.2318 -0.0776 -0.6026
  331MOL0     C44596   1.868   2.838   3.660  0.4609  0.3772 -0.0757
  331MOL0     C44597   1.976   2.810   3.573  0.3522 -0.5041  0.4350
  331MOL0     O44598   2.178   2.585   3.568  0.1607  0.8082  0.0621
  331MOL0     C44599   2.470   2.714   3.442  0.4780 -1.1393 -0.0116
  331MOL0     C44600   2.591   2.671   3.381  1.0583  0.3936  0.1471
  331MOL0     N44601   2.773   1.925   2.929  0.9195  0.0752 -0.1409
  331MOL0     N44602   2.840   1.818   2.908  0.6720  0.1115 -0.1125
  331MOL0     C44603   3.727   1.657   3.730  0.6993  0.9129 -0.1838
  331MOL0     C44604   3.836   1.650   3.819 -0.4323 -0.6296 -0.6119
  331MOL0     C44605   4.284   1.584   3.893 -0.3511 -1.0509 -0.6944
  331MOL0     C44606   4.392   1.510   3.848  0.2343 -0.6714  0.2422
  331MOL0     C44607   4.523   1.524   3.895  0.0760  0.1245  0.1767
  331MOL0     C44608   4.544   1.619   3.991  0.2932  0.0226 -0.3774
  331MOL0     O44609   4.662   1.641   4.058 -0.4337 -0.4246  0.5825
  331MOL0     C44610   4.760   1.538   4.073 -0.1277 -0.5195  0.5220
  331MOL0     C44611   4.866   1.548   3.970 -0.7817  0.0724  0.6048
  331MOL0     C44612   5.015   1.512   4.012  0.2095  0.0976 -0.7640
  331MOL0     C44613   5.029   1.375   4.071  0.0540  0.9126  0.1339
  331MOL0     C44614   5.170   1.339   4.074 -0.3844  0.4409  0.3827
  331MOL0     C44615   5.291   1.322   4.097 -0.5995  0.4306 -1.2106
  331MOL0     C44616   4.444   1.699   4.043 -0.3048 -0.6333  0.4533
  331MOL0     C44617   4.315   1.683   3.989 -0.2402 -0.3131  0.6569
  331MOL0     H44618   4.084   1.688   3.594  1.2946 -2.7449  2.3448
  331MOL0     H44619   3.890   1.710   3.438 -0.2275 -1.1796 -0.3455
  331MOL0     H44620   3.575   1.506   3.524 -0.3902  0.1752  1.4073
  331MOL0     H44621   3.472   1.631   3.601  0.6527 -2.6965  1.8937
  331MOL0     H44622   3.412   1.724   3.373 -1.3637 -0.6351 -1.4360
  331MOL0     H44623   3.530   1.628   3.296 -1.1747 -1.0170 -1.4148
  331MOL0     H44624   3.381   1.432   3.377  1.0807  0.8186  2.0266
  331MOL0     H44625   3.276   1.540   3.452 -0.0283  2.0691 -0.1765
  331MOL0     H44626   3.342   1.569   3.164  0.1382  1.1245  1.7056
  331MOL0     H44627   3.219   1.449   3.210 -2.5017  0.8898  0.0307
  331MOL0     H44628   3.113   1.655   3.357  0.5053 -1.0589  0.2864
  331MOL0     H44629   3.234   1.748   3.259  0.6217 -0.2625 -2.0871
  331MOL0     H44630   3.019   1.591   3.125  0.7066 -0.3972 -1.6013
  331MOL0     H44631   2.998   1.759   3.169 -0.2032 -0.9073  2.8343
  331MOL0     H44632   3.204   1.817   3.033 -1.7303  0.5282  2.4753
  331MOL0     H44633   3.233   1.649   2.995 -0.1125  1.3583 -2.2751
  331MOL0     H44634   3.021   1.643   2.864  3.4906  0.2844 -5.3159
  331MOL0     H44635   3.134   1.757   2.802 -0.1064 -0.1668 -0.7206
  331MOL0     H44636   3.082   2.032   2.916 -0.6417  0.3921  1.5370
  331MOL0     H44637   2.881   2.250   2.899  3.0347 -0.7240 -0.1615
  331MOL0     H44638   2.729   2.189   2.982  0.6931 -0.6065  1.3506
  331MOL0     H44639   3.006   2.191   3.097  0.4790  0.6533 -0.2170
  331MOL0     H44640   2.864   2.151   3.190  0.0000 -1.8804 -1.0264
  331MOL0     H44641   2.907   2.423   3.064 -0.1738  2.0438  1.4656
  331MOL0     H44642   2.955   2.388   3.226  0.9714  2.0750 -1.3644
  331MOL0     H44643   2.721   2.295   3.273 -0.9118 -1.3219 -1.2941
  331MOL0     H44644   2.656   2.363   3.137 -1.3292 -0.9811  2.8798
  331MOL0     H44645   2.497   2.378   3.267  0.6105 -0.7780 -0.4741
  331MOL0     H44646   2.175   2.503   3.276  1.0075  0.6414 -2.0073
  331MOL0     H44647   2.278   2.367   3.243  1.2551  0.7403  0.9853
  331MOL0     H44648   2.220   2.375   3.411  0.1861 -3.3164 -1.5656
  331MOL0     H44649   2.220   2.970   3.757  0.1975  0.7039 -0.4904
  331MOL0     H44650   2.035   3.028   3.893 -2.8119  1.4654 -0.3998
  331MOL0     H44651   1.835   3.111   3.974  1.8895 -1.1403 -1.6918
  331MOL0     H44652   1.782   3.161   3.809 -1.2716 -1.2224 -0.6449
  331MOL0     H44653   1.575   3.030   3.997 -0.3173  0.1553 -0.1128
  331MOL0     H44654   1.601   3.204   3.992  0.3959 -1.2331  2.2618
  331MOL0     H44655   1.528   3.031   3.754  0.4925 -0.9772  2.6807
  331MOL0     H44656   1.562   3.203   3.749 -1.5938 -0.0705 -0.9898
  331MOL0     H44657   1.353   3.085   3.936  1.2171  0.4880  0.1207
  331MOL0     H44658   1.382   3.256   3.903 -0.9697 -0.6830  2.3391
  331MOL0     H44659   1.334   3.233   3.658  1.2668  2.9421  2.3444
  331MOL0     H44660   1.193   3.229   3.753 -0.9369 -0.0392  0.6201
  331MOL0     H44661   1.324   2.958   3.663 -1.5059 -2.2706 -1.8064
  331MOL0     H44662   1.175   3.000   3.747  1.5502  1.1000  1.6785
  331MOL0     H44663   1.242   3.118   3.478  0.5130 -0.7165  0.9132
  331MOL0     H44664   1.093   3.143   3.570  0.3691  0.7451  2.3887
  331MOL0     H44665   1.185   2.873   3.452 -0.5316 -0.1018 -2.3087
  331MOL0     H44666   1.078   2.976   3.375 -1.6895  1.7023  0.7512
  331MOL0     H44667   1.773   2.796   3.628  0.4073  0.7592 -0.4299
  331MOL0     H44668   1.956   2.744   3.490 -0.2836  0.2334 -0.0091
  331MOL0     H44669   2.460   2.812   3.490  3.0838 -1.6061  1.6814
  331MOL0     H44670   2.682   2.723   3.408  0.3597  1.2552  0.9047
  331MOL0     H44671   3.629   1.647   3.775  0.0011  0.0692 -1.8407
  331MOL0     H44672   3.826   1.654   3.927 -0.6188  0.7151 -0.6556
  331MOL0     H44673   4.381   1.439   3.766 -0.0355  1.3686 -1.5652
  331MOL0     H44674   4.607   1.467   3.857 -0.8896  0.3745 -2.6210
  331MOL0     H44675   4.806   1.553   4.171 -1.2649  0.7245  0.8864
  331MOL0     H44676   4.719   1.438   4.055 -0.6702 -0.8400  3.0715
  331MOL0     H44677   4.860   1.649   3.928 -0.1844 -0.2689 -0.3388
  331MOL0     H44678   4.840   1.477   3.891  2.2842  0.0103 -0.4843
  331MOL0     H44679   5.047   1.582   4.089  1.1924  0.0373 -1.0939
  331MOL0     H44680   5.079   1.530   3.925  0.0155  2.5901 -0.4638
  331MOL0     H44681   4.972   1.303   4.012 -3.1125  1.1107  2.6999
  331MOL0     H44682   4.982   1.368   4.170 -3.6507  2.8931 -1.2879
  331MOL0     H44683   5.396   1.331   4.115 -1.1872  1.7934  2.2909
  331MOL0     H44684   4.468   1.774   4.117  0.5569 -1.2127  0.7765
  331MOL0     H44685   4.229   1.743   4.017 -0.4672 -0.0163 -0.6064
  332MOL0     O44686   0.799   9.961  11.093  0.8519 -0.4743 -0.2127
  332MOL0     C44687   0.867  10.003  11.002 -0.2552  0.3021 -0.2010
  332MOL0     O44688   0.810  10.051  10.889 -0.4689  0.5904  0.2271
  332MOL0     C44689   0.684  10.097  10.879 -1.0477  0.1227 -0.5667
  332MOL0     C44690   0.643  10.197  10.960  0.0262 -0.4147  0.3625
  332MOL0     C44691   0.502  10.233  10.965  0.1786 -0.1843 -0.3398
  332MOL0     C44692   0.403  10.163  10.887 -0.5743  0.1000 -0.2121
  332MOL0     O44693   0.274  10.194  10.906 -0.1768 -0.5607 -0.5608
  332MOL0     C44694   0.178  10.134  10.824 -0.5100  0.3510  0.0502
  332MOL0     C44695   0.049  10.218  10.828  0.2203  0.2920 -0.8497
  332MOL0     C44696  -0.049  10.169  10.937 -0.0793  0.4412 -0.1231
  332MOL0     C44697  -0.176  10.256  10.935 -0.3792  0.2317 -0.7286
  332MOL0     C44698  -0.273  10.209  11.037  0.0605  0.8673 -1.1156
  332MOL0     C44699  -0.344  10.079  11.005  0.7606  0.5649 -0.1665
  332MOL0     C44700  -0.462  10.058  11.099 -1.2143 -0.1485 -0.2662
  332MOL0     C44701  -0.521   9.922  11.067  0.1242 -0.1967  0.5183
  332MOL0     N44702  -0.633   9.862  11.144 -0.6277  0.0227 -0.6755
  332MOL0     C44703  -0.654   9.878  11.282 -0.1379  0.9733  1.0414
  332MOL0     C44704  -0.776   9.817  11.301  0.8682 -0.3398 -0.5442
  332MOL0     C44705  -0.856   9.818  11.423  0.5978 -0.1806  0.2581
  332MOL0     C44706  -1.009   9.802  11.402  0.0687  0.1720 -0.0899
  332MOL0     C44707  -1.080   9.775  11.540 -0.5882 -0.5229  0.2798
  332MOL0     C44708  -1.229   9.730  11.541 -0.2765  0.0802 -0.0957
  332MOL0     O44709  -1.267   9.700  11.675  1.2103 -0.1524  0.5338
  332MOL0     C44710  -1.393   9.638  11.679 -0.8922 -0.3933 -0.0034
  332MOL0     C44711  -1.495   9.631  11.580 -0.0356  0.3521  0.1967
  332MOL0     C44712  -1.621   9.565  11.603  0.7752  0.3695  0.3914
  332MOL0     C44713  -1.709   9.534  11.483 -0.7331  0.4919  0.4605
  332MOL0     C44714  -1.649   9.516  11.732 -0.7611 -0.3884 -0.6720
  332MOL0     C44715  -1.778   9.469  11.780 -0.2270  0.0371 -0.1657
  332MOL0     O44716  -1.897   9.517  11.727  0.7491 -0.5327  0.3867
  332MOL0     C44717  -2.012   9.460  11.768  1.3305  0.2544 -0.1582
  332MOL0     C44718  -2.091   9.504  11.878  0.4565  0.4895 -1.2560
  332MOL0     C44719  -2.209   9.438  11.918  0.1121 -0.0214  0.8291
  332MOL0     C44720  -2.260   9.326  11.836  0.0690  0.2000  0.1480
  332MOL0     O44721  -2.380   9.259  11.851  0.1403  0.3052  0.3967
  332MOL0     C44722  -2.467   9.301  11.963 -0.5650  0.1308 -0.1696
  332MOL0     C44723  -2.600   9.231  11.990  0.7647 -0.3765  0.5548
  332MOL0     C44724  -2.699   9.315  12.081 -0.3769  0.2975 -0.4300
  332MOL0     C44725  -2.849   9.271  12.051  0.5264 -0.8409 -1.0472
  332MOL0     C44726  -2.936   9.347  12.155 -0.1819  0.2919  0.0535
  332MOL0     C44727  -3.066   9.392  12.099  0.1022  0.0193 -0.3944
  332MOL0     C44728  -3.176   9.430  12.198  0.0946  0.0964 -0.3953
  332MOL0     C44729  -3.311   9.456  12.145  0.4346  0.4832  0.0941
  332MOL0    Cl44730  -3.433   9.471  12.270 -0.0606  0.2088 -0.4169
  332MOL0     C44731  -2.193   9.295  11.722  0.0694 -0.2494  0.3994
  332MOL0     C44732  -2.075   9.361  11.686 -0.4422  0.1859 -0.0368
  332MOL0     O44733  -1.776   9.378  11.866 -0.1500  0.0699  0.0668
  332MOL0     C44734  -1.544   9.522  11.826  0.0118  0.7178  0.2863
  332MOL0     C44735  -1.421   9.573  11.797  0.2272 -0.2915 -0.5712
  332MOL0     N44736  -0.818   9.767  11.180 -0.0049 -0.0552  0.1498
  332MOL0     N44737  -0.726   9.780  11.089  0.1259  0.2097  0.2302
  332MOL0     C44738   0.452  10.058  10.804  0.1814 -0.0499 -0.2129
  332MOL0     C44739   0.591  10.031  10.802  0.5713  0.2376  0.4045
  332MOL0     C44740   1.013   9.977  11.008  0.3810  1.3545 -0.3971
  332MOL0     C44741   1.102  10.010  10.908  0.0150  0.5780 -0.0022
  332MOL0     C44742   1.244   9.990  10.925  0.3388  0.2454  0.3085
  332MOL0     C44743   1.296   9.931  11.037 -0.3079  0.4993 -0.4097
  332MOL0     O44744   1.423   9.906  11.049  0.2377 -0.0624  0.5568
  332MOL0     C44745   1.492  10.023  11.083 -0.6486 -0.1688  0.6789
  332MOL0     C44746   1.639   9.976  11.095  0.7178  0.3829 -0.1840
  332MOL0     C44747   1.730  10.082  11.025  0.3909  0.4517  0.2897
  332MOL0     C44748   1.875  10.043  11.049 -0.5267 -0.3895  0.1606
  332MOL0     C44749   1.976  10.142  11.004  0.2033  0.3740  0.6675
  332MOL0     C44750   2.059  10.228  10.977 -0.6304  0.0555 -0.7434
  332MOL0     C44751   1.204   9.890  11.139  0.1420  0.1227  0.7174
  332MOL0     C44752   1.067   9.911  11.124  0.4217 -0.0083  0.8750
  332MOL0     H44753   0.718  10.259  11.010  1.6296 -1.1302 -1.0667
  332MOL0     H44754   0.462  10.309  11.031 -2.7632 -1.7019 -0.1820
  332MOL0     H44755   0.210  10.138  10.720  0.7361  0.4569  0.4228
  332MOL0     H44756   0.162  10.030  10.851 -0.4231 -0.0452 -1.3501
  332MOL0     H44757   0.078  10.321  10.852  1.3969 -0.2556  0.1809
  332MOL0     H44758  -0.004  10.211  10.732  1.5087  1.6413 -1.7019
  332MOL0     H44759  -0.077  10.064  10.932 -4.5704  1.4190  0.7992
  332MOL0     H44760   0.009  10.178  11.030  0.0870  1.1737 -0.2862
  332MOL0     H44761  -0.141  10.354  10.968 -0.1452 -0.4317  1.0737
  332MOL0     H44762  -0.217  10.258  10.833 -2.1774 -2.7854 -0.1878
  332MOL0     H44763  -0.230  10.188  11.135 -0.5402  0.5180 -0.9225
  332MOL0     H44764  -0.350  10.286  11.047 -1.6481 -0.9903  1.0129
  332MOL0     H44765  -0.388  10.076  10.905 -0.5279  1.3333  0.3523
  332MOL0     H44766  -0.272   9.997  11.015  1.1450  0.9193 -0.0470
  332MOL0     H44767  -0.436  10.074  11.204  0.0749  4.4318 -1.0630
  332MOL0     H44768  -0.545  10.129  11.086 -0.5888  0.6101 -0.1731
  332MOL0     H44769  -0.445   9.843  11.069 -1.1826 -1.5257 -0.1348
  332MOL0     H44770  -0.559   9.924  10.965 -1.9747 -0.2155  1.2546
  332MOL0     H44771  -0.595   9.932  11.354  1.7486  0.1269  0.2140
  332MOL0     H44772  -0.825   9.741  11.494 -1.9734 -0.7888  0.8382
  332MOL0     H44773  -0.841   9.917  11.466 -1.0130 -0.5900  1.8893
  332MOL0     H44774  -1.025   9.710  11.345  5.6609 -1.2618  0.0366
  332MOL0     H44775  -1.050   9.892  11.355  0.7743  0.7843  0.4427
  332MOL0     H44776  -1.060   9.860  11.606  2.4620 -0.9185  0.0380
  332MOL0     H44777  -1.021   9.690  11.577 -1.4669 -2.4095 -2.3202
  332MOL0     H44778  -1.221   9.638  11.483  0.5293 -0.2305  0.4994
  332MOL0     H44779  -1.283   9.808  11.486  0.4036  0.9517  0.4550
  332MOL0     H44780  -1.484   9.667  11.478  1.0143 -0.9200 -0.1724
  332MOL0     H44781  -1.759   9.436  11.485 -2.5280  1.2892 -1.3174
  332MOL0     H44782  -1.787   9.610  11.471  0.9507  2.1606 -0.1916
  332MOL0     H44783  -1.643   9.530  11.396  1.4607  1.6912  1.9802
  332MOL0     H44784  -2.046   9.574  11.948  1.0736 -3.6953  2.9899
  332MOL0     H44785  -2.271   9.457  12.005 -3.0124 -4.2483 -0.1106
  332MOL0     H44786  -2.413   9.299  12.058  0.8312  0.4512 -0.9427
  332MOL0     H44787  -2.485   9.406  11.938  0.1862 -0.3533 -3.0868
  332MOL0     H44788  -2.651   9.223  11.893  1.6040  1.3662 -0.0671
  332MOL0     H44789  -2.581   9.131  12.029 -2.7069 -1.5185 -0.2721
  332MOL0     H44790  -2.694   9.422  12.059 -0.0044  0.5792  0.9436
  332MOL0     H44791  -2.673   9.291  12.184  1.3446 -0.0926 -0.9323
  332MOL0     H44792  -2.876   9.318  11.955 -0.0980  3.5055  1.0136
  332MOL0     H44793  -2.864   9.163  12.049 -2.1611 -0.5252 -1.7675
  332MOL0     H44794  -2.881   9.431  12.197 -0.4221 -0.3787  1.7769
  332MOL0     H44795  -2.948   9.276  12.237 -2.4546 -0.9792 -1.2750
  332MOL0     H44796  -3.045   9.476  12.031 -0.5494 -0.6441 -1.4420
  332MOL0     H44797  -3.111   9.311  12.041  0.3439  1.6266 -2.9798
  332MOL0     H44798  -3.138   9.520  12.246  2.0545  0.1370 -1.8769
  332MOL0     H44799  -3.196   9.347  12.266 -3.1305  2.3722  1.7675
  332MOL0     H44800  -3.335   9.368  12.085  2.2175  2.2756 -3.5621
  332MOL0     H44801  -3.303   9.542  12.078  1.3374 -0.4997 -1.0999
  332MOL0     H44802  -2.239   9.219  11.660  1.0893 -0.8881  0.4003
  332MOL0     H44803  -2.020   9.336  11.596  0.2857 -0.7580  0.6501
  332MOL0     H44804  -1.568   9.487  11.926 -1.8664  1.5232  0.1577
  332MOL0     H44805  -1.350   9.562  11.878  3.3464 -0.8047 -3.1912
  332MOL0     H44806   0.379  10.002  10.746  2.8567 -1.3026 -2.5560
  332MOL0     H44807   0.623   9.947  10.741 -1.2064  0.8176 -1.4504
  332MOL0     H44808   1.063  10.049  10.814 -1.2590 -0.1501  0.2002
  332MOL0     H44809   1.313   9.999  10.842  2.1377 -1.1577  1.5542
  332MOL0     H44810   1.491  10.112  11.020  0.3821 -0.3141  0.4415
  332MOL0     H44811   1.452  10.059  11.178 -0.6184 -0.5258  0.8305
  332MOL0     H44812   1.659   9.878  11.050 -3.2852 -1.2087  1.0641
  332MOL0     H44813   1.663   9.974  11.201  0.4409  0.6653 -0.1146
  332MOL0     H44814   1.709  10.179  11.070  0.2910  0.6535 -0.1779
  332MOL0     H44815   1.703  10.092  10.919  1.6115  0.3541 -0.0500
  332MOL0     H44816   1.898   9.947  11.001  1.4024 -1.0148  2.1711
  332MOL0     H44817   1.885  10.032  11.158 -2.6649 -2.5747  0.2450
  332MOL0     H44818   2.121  10.314  10.966  0.3967 -0.6438 -0.5304
  332MOL0     H44819   1.241   9.844  11.229  1.8036 -2.3137 -1.0769
  332MOL0     H44820   1.012   9.882  11.213  1.1489  1.3029  1.7812
  333MOL0     O44821   8.063   9.710   9.098  0.4636  1.2179  0.1189
  333MOL0     C44822   8.156   9.683   9.024  0.9707  0.0718  0.2643
  333MOL0     O44823   8.153   9.687   8.883  0.5300 -0.2073 -0.8519
  333MOL0     C44824   8.041   9.713   8.804  0.1246 -0.6207 -0.2165
  333MOL0     C44825   8.038   9.663   8.666 -1.0480 -0.2020 -0.7034
  333MOL0     C44826   7.936   9.692   8.583 -0.2944  0.3901  0.1253
  333MOL0     C44827   7.828   9.775   8.617  0.6179 -0.1252  0.1060
  333MOL0     O44828   7.715   9.798   8.541 -0.0047  0.4878  0.1887
  333MOL0     C44829   7.657   9.680   8.485 -0.0391 -0.1288 -0.1369
  333MOL0     C44830   7.517   9.643   8.551  0.3385  0.7707  0.0290
  333MOL0     C44831   7.425   9.766   8.566  0.0099  0.5540 -1.3932
  333MOL0     C44832   7.275   9.740   8.583 -0.5478 -0.3955  0.5825
  333MOL0     C44833   7.190   9.864   8.570  0.3909 -0.2326  0.4901
  333MOL0     C44834   7.037   9.834   8.601 -0.6472  0.2206  0.5908
  333MOL0     C44835   6.967   9.963   8.557  0.2856 -0.9705  0.0223
  333MOL0     C44836   6.818   9.962   8.595 -0.8570  0.3086  0.0030
  333MOL0     N44837   6.743  10.023   8.487  0.5180  0.0653 -0.6216
  333MOL0     C44838   6.782  10.129   8.408  0.0186 -0.1474  0.0861
  333MOL0     C44839   6.673  10.156   8.329  0.4735 -0.4056 -0.1115
  333MOL0     C44840   6.661  10.266   8.228 -0.2706  0.1042 -0.6852
  333MOL0     C44841   6.521  10.306   8.204 -0.4094  0.2654  0.6588
  333MOL0     C44842   6.459  10.213   8.101  1.1178  0.3637  0.8762
  333MOL0     C44843   6.308  10.225   8.090 -0.7720  0.2435 -0.1216
  333MOL0     O44844   6.256  10.359   8.096 -0.4367 -0.1606  0.7310
  333MOL0     C44845   6.123  10.363   8.076 -0.1528  0.2666 -0.0873
  333MOL0     C44846   6.066  10.485   8.088 -0.0778  0.3100  0.6444
  333MOL0     C44847   5.928  10.508   8.073 -0.0550 -0.8714  0.0345
  333MOL0     C44848   5.871  10.639   8.120 -0.6131  0.1181  0.9304
  333MOL0     C44849   5.840  10.398   8.045  1.3044  0.3943 -0.6449
  333MOL0     C44850   5.680  10.418   8.037 -0.2834  0.8543  0.7695
  333MOL0     O44851   5.624  10.300   8.015 -0.7399 -0.1442  0.0545
  333MOL0     C44852   5.486  10.277   8.024 -0.0064  0.3025 -0.1678
  333MOL0     C44853   5.388  10.360   8.066 -0.5875 -0.9265  1.7472
  333MOL0     C44854   5.255  10.331   8.070  0.2320  0.1116  0.1082
  333MOL0     C44855   5.214  10.202   8.024 -0.5521 -0.3961 -0.9249
  333MOL0     O44856   5.090  10.146   8.036 -0.0014  0.3054 -0.6397
  333MOL0     C44857   4.985  10.232   7.999  0.1952 -0.2818 -0.0771
  333MOL0     C44858   4.848  10.171   8.002 -0.1544 -0.1056  0.0921
  333MOL0     C44859   4.752  10.283   7.944 -0.3184  0.1151 -0.1424
  333MOL0     C44860   4.629  10.207   7.902 -0.4922 -0.2845 -0.4252
  333MOL0     C44861   4.523  10.306   7.866  0.3044 -0.2621  0.3431
  333MOL0     C44862   4.381  10.231   7.847 -0.3175 -0.3930 -0.4317
  333MOL0     C44863   4.314  10.173   7.977  0.7086  0.5257 -0.0370
  333MOL0     C44864   4.168  10.145   7.954 -0.3558 -1.3104 -0.3576
  333MOL0    Cl44865   4.158  10.007   7.842  0.2543  0.1594 -0.3073
  333MOL0     C44866   5.315  10.112   7.973  0.1380 -0.1243 -0.0319
  333MOL0     C44867   5.452  10.148   7.986  0.1947 -0.4448  0.2907
  333MOL0     O44868   5.625  10.525   8.052  0.5040 -0.3209 -0.2081
  333MOL0     C44869   5.898  10.270   8.042  0.2216 -0.6910 -0.3064
  333MOL0     C44870   6.042  10.255   8.060 -0.0373  0.4619  0.7165
  333MOL0     N44871   6.576  10.062   8.354 -0.3516  0.3993 -0.0728
  333MOL0     N44872   6.622   9.983   8.446  0.2515 -0.0340  0.3320
  333MOL0     C44873   7.826   9.831   8.746  0.0896 -0.6701  1.2120
  333MOL0     C44874   7.932   9.797   8.832  0.9354  0.8161  0.6868
  333MOL0     C44875   8.286   9.655   9.084 -0.3115 -0.6662  0.3848
  333MOL0     C44876   8.296   9.656   9.222  0.3856  0.0376  0.3818
  333MOL0     C44877   8.423   9.656   9.286  0.3809  0.1796  0.0146
  333MOL0     C44878   8.537   9.645   9.204 -0.0311 -0.0704  0.2693
  333MOL0     O44879   8.659   9.623   9.258 -0.3551 -0.2942 -0.1157
  333MOL0     C44880   8.755   9.547   9.179 -0.4519  0.9180 -0.1998
  333MOL0     C44881   8.877   9.508   9.260 -0.4939 -0.0544  0.3010
  333MOL0     C44882   8.847   9.431   9.391 -0.0437 -0.3441  0.1552
  333MOL0     C44883   8.950   9.442   9.509 -0.1056 -0.0521 -0.0562
  333MOL0     C44884   9.077   9.370   9.479 -0.5595 -1.5934  0.3426
  333MOL0     C44885   9.188   9.314   9.453 -0.2177  1.1672 -0.0414
  333MOL0     C44886   8.528   9.658   9.061 -0.1401  0.5024  0.5248
  333MOL0     C44887   8.400   9.665   9.005 -0.4117 -0.0650  0.5479
  333MOL0     H44888   8.125   9.606   8.633 -0.2779 -0.0035  0.8931
  333MOL0     H44889   7.956   9.649   8.486 -2.7290  0.6805 -0.5570
  333MOL0     H44890   7.637   9.706   8.381  2.6970 -0.4713 -0.8073
  333MOL0     H44891   7.723   9.593   8.482  2.8388  1.8253  1.4825
  333MOL0     H44892   7.476   9.569   8.481  2.1921  0.2474 -0.5767
  333MOL0     H44893   7.534   9.605   8.652 -0.3376 -0.1291 -0.1821
  333MOL0     H44894   7.449   9.835   8.647 -2.5975 -0.0036 -0.0067
  333MOL0     H44895   7.434   9.818   8.470  0.9831  0.8604 -1.1457
  333MOL0     H44896   7.235   9.668   8.510 -2.0843  0.2858  0.7176
  333MOL0     H44897   7.257   9.692   8.679 -0.5355 -1.3064  0.1477
  333MOL0     H44898   7.222   9.941   8.641 -1.7130  0.3708  0.8744
  333MOL0     H44899   7.204   9.904   8.469 -0.2296 -1.9532 -0.3136
  333MOL0     H44900   7.004   9.749   8.540 -0.1737  1.7604 -1.9790
  333MOL0     H44901   7.026   9.816   8.708 -2.2130  2.6784  0.9037
  333MOL0     H44902   7.012  10.051   8.604 -1.5261 -1.3668  2.7396
  333MOL0     H44903   6.982   9.973   8.449  0.1250 -0.7006  0.0237
  333MOL0     H44904   6.798   9.999   8.696 -2.9154  1.2853 -0.7104
  333MOL0     H44905   6.786   9.857   8.591 -1.5031  0.4881  0.3196
  333MOL0     H44906   6.875  10.183   8.422 -0.2775 -0.1652  2.6369
  333MOL0     H44907   6.721  10.353   8.255 -1.4760  0.1175  2.1893
  333MOL0     H44908   6.706  10.215   8.141 -0.6869 -0.0856 -0.7930
  333MOL0     H44909   6.520  10.405   8.159 -4.1709 -0.5408 -1.5115
  333MOL0     H44910   6.453  10.315   8.289 -1.1796 -0.9537  0.2183
  333MOL0     H44911   6.478  10.110   8.131 -3.4420 -1.0762 -0.2696
  333MOL0     H44912   6.497  10.234   8.001 -1.7501  1.0842 -0.1801
  333MOL0     H44913   6.271  10.171   8.179 -0.4087  1.7467  0.9724
  333MOL0     H44914   6.276  10.170   8.001  0.8352 -0.4092 -0.3233
  333MOL0     H44915   6.120  10.573   8.122 -0.0174  0.3586  0.4257
  333MOL0     H44916   5.816  10.693   8.043  1.2733  0.3923 -0.2725
  333MOL0     H44917   5.811  10.620   8.210 -1.8732 -1.2174 -0.1321
  333MOL0     H44918   5.951  10.709   8.144 -0.8835  0.1401  1.8078
  333MOL0     H44919   5.411  10.461   8.100  0.5606 -1.1404  1.6316
  333MOL0     H44920   5.179  10.404   8.095  1.0706 -0.0900  3.7908
  333MOL0     H44921   4.985  10.321   8.063 -1.1358 -1.0505  1.0537
  333MOL0     H44922   5.009  10.261   7.896  1.1868  1.8667  0.6988
  333MOL0     H44923   4.867  10.083   7.939  2.8688 -0.0378  0.7419
  333MOL0     H44924   4.811  10.144   8.101 -1.7454  1.6833  0.0488
  333MOL0     H44925   4.795  10.347   7.866  1.9719 -0.0082  0.9174
  333MOL0     H44926   4.739  10.354   8.026  1.1320  0.3121 -0.0443
  333MOL0     H44927   4.656  10.127   7.833  2.0436  1.5702 -1.7441
  333MOL0     H44928   4.592  10.155   7.991  0.1906 -0.9959 -0.5370
  333MOL0     H44929   4.540  10.359   7.771 -0.3531  1.2899  1.0519
  333MOL0     H44930   4.517  10.378   7.948  6.0089  2.4485 -1.1195
  333MOL0     H44931   4.311  10.306   7.807  0.4617  2.8800  3.6063
  333MOL0     H44932   4.391  10.155   7.769 -2.2043 -0.6823 -0.4431
  333MOL0     H44933   4.322  10.248   8.056  0.5100 -0.7795  1.2553
  333MOL0     H44934   4.366  10.080   8.001 -1.0705 -0.8915 -1.3357
  333MOL0     H44935   4.111  10.232   7.917  0.9614 -0.8884 -1.4635
  333MOL0     H44936   4.126  10.118   8.051 -2.8529 -2.1922 -1.5842
  333MOL0     H44937   5.283  10.015   7.936 -0.7657  0.2040 -0.1547
  333MOL0     H44938   5.531  10.083   7.950 -0.0802 -1.0302  0.7212
  333MOL0     H44939   5.849  10.175   8.023 -0.3425 -0.4870  0.1147
  333MOL0     H44940   6.074  10.151   8.058  1.2624  0.8536  0.1588
  333MOL0     H44941   7.749   9.902   8.773  0.8460  0.8885 -0.4880
  333MOL0     H44942   7.925   9.837   8.933 -3.5165 -1.0465  1.3563
  333MOL0     H44943   8.207   9.667   9.283 -0.5779 -0.5368 -0.8690
  333MOL0     H44944   8.414   9.666   9.394 -0.4842 -1.2226  0.1027
  333MOL0     H44945   8.704   9.455   9.148  1.2138  0.0843 -0.5828
  333MOL0     H44946   8.783   9.595   9.085 -0.7410  0.5965 -0.4545
  333MOL0     H44947   8.918   9.606   9.287 -1.8927  0.7862 -0.4895
  333MOL0     H44948   8.948   9.463   9.190  0.4207  0.6189  0.7693
  333MOL0     H44949   8.854   9.323   9.371  0.4203  0.0823 -2.2441
  333MOL0     H44950   8.753   9.468   9.434 -0.1057 -1.8190  1.4119
  333MOL0     H44951   8.912   9.392   9.598  2.2913  0.5944  1.4168
  333MOL0     H44952   8.971   9.548   9.528 -1.3429  0.1031  0.4996
  333MOL0     H44953   9.277   9.259   9.429  0.4924  2.2606  0.0457
  333MOL0     H44954   8.607   9.631   8.992 -0.9929 -2.1720  0.4825
  333MOL0     H44955   8.399   9.664   8.896  0.9461 -0.1947  0.5116
  334MOL0     O44956   1.823   3.413   7.946  0.4436 -0.2411 -0.1714
  334MOL0     C44957   1.858   3.444   7.829 -0.0049 -0.6797  0.1798
  334MOL0     O44958   1.780   3.465   7.725 -0.0324  0.0819 -0.1202
  334MOL0     C44959   1.649   3.443   7.744 -0.8322  0.0014 -0.1058
  334MOL0     C44960   1.565   3.547   7.803 -0.4013  0.4702 -0.5305
  334MOL0     C44961   1.423   3.535   7.809 -1.3467  0.5759  1.0733
  334MOL0     C44962   1.361   3.437   7.732  0.8228  0.5147  0.1561
  334MOL0     O44963   1.223   3.422   7.724  0.2021 -0.6119 -0.4085
  334MOL0     C44964   1.131   3.526   7.748  0.6592 -0.1411 -0.4777
  334MOL0     C44965   0.995   3.469   7.712 -0.4155 -0.6144  0.6836
  334MOL0     C44966   0.890   3.580   7.701  0.7928  0.6440  0.0739
  334MOL0     C44967   0.756   3.508   7.685 -0.3723 -0.5828 -0.4165
  334MOL0     C44968   0.631   3.598   7.694 -0.3257 -0.2193 -0.4594
  334MOL0     C44969   0.508   3.509   7.658  0.4686  0.6479 -0.9138
  334MOL0     C44970   0.375   3.582   7.674 -0.9507  0.1593 -0.0742
  334MOL0     C44971   0.263   3.509   7.590  0.2511  0.2075 -0.4098
  334MOL0     N44972   0.139   3.581   7.596 -0.4979 -1.3450  0.5435
  334MOL0     C44973   0.035   3.548   7.678  0.6620  0.7793  0.1901
  334MOL0     C44974  -0.054   3.648   7.669  0.2479 -0.7888 -0.8254
  334MOL0     C44975  -0.175   3.642   7.748 -0.5925 -0.3232 -0.6178
  334MOL0     C44976  -0.278   3.570   7.663 -0.6125  0.5988  0.0938
  334MOL0     C44977  -0.414   3.608   7.717 -0.1983 -0.0641 -0.2931
  334MOL0     C44978  -0.529   3.557   7.632 -0.4525  0.0627  0.2384
  334MOL0     O44979  -0.518   3.627   7.503  0.1535 -0.3814 -0.8380
  334MOL0     C44980  -0.633   3.675   7.450 -1.5007 -0.7783  0.0137
  334MOL0     C44981  -0.735   3.588   7.411  0.0091  0.5310  0.1488
  334MOL0     C44982  -0.857   3.628   7.344 -0.3622  0.9513 -0.2499
  334MOL0     C44983  -0.934   3.509   7.289  0.5494  0.2838  0.2922
  334MOL0     C44984  -0.875   3.766   7.324  0.0156  0.1549  0.7410
  334MOL0     C44985  -1.001   3.822   7.266  0.2442 -0.1148 -0.0124
  334MOL0     O44986  -1.006   3.963   7.246 -0.0495 -1.2661  0.0153
  334MOL0     C44987  -1.113   4.015   7.184  0.1719 -0.0448  0.0077
  334MOL0     C44988  -1.158   3.976   7.054 -0.0332 -1.0112  0.7141
  334MOL0     C44989  -1.265   4.046   6.994 -0.1831 -1.0078 -0.0116
  334MOL0     C44990  -1.331   4.150   7.054 -0.2493 -0.9316 -0.5100
  334MOL0     O44991  -1.419   4.221   6.982 -0.2937 -0.7279 -0.2826
  334MOL0     C44992  -1.518   4.298   7.047  0.7167 -0.7708  0.8724
  334MOL0     C44993  -1.482   4.446   7.074  0.2919  0.8500 -0.0284
  334MOL0     C44994  -1.601   4.517   7.143  0.1625 -0.6561 -0.6060
  334MOL0     C44995  -1.555   4.645   7.197 -0.3864  0.0427  0.3395
  334MOL0     C44996  -1.666   4.744   7.238 -1.0820 -0.6244 -0.6992
  334MOL0     C44997  -1.617   4.869   7.317 -0.2908 -0.1174 -0.3215
  334MOL0     C44998  -1.572   4.845   7.465 -0.1612 -0.2037  0.0863
  334MOL0     C44999  -1.511   4.972   7.519  0.5573 -0.3276  0.4347
  334MOL0    Cl45000  -1.646   5.096   7.529  0.1174  0.4426  0.0714
  334MOL0     C45001  -1.287   4.192   7.179  0.0014 -0.2803  0.0095
  334MOL0     C45002  -1.174   4.132   7.239  0.5806 -0.6364  0.3841
  334MOL0     O45003  -1.089   3.749   7.226 -0.1980  0.8271  0.3215
  334MOL0     C45004  -0.780   3.855   7.371  1.1423 -0.2130 -0.9577
  334MOL0     C45005  -0.664   3.811   7.437  0.9275 -0.4128 -0.0675
  334MOL0     N45006   0.009   3.749   7.591 -1.0613 -0.6198 -0.0523
  334MOL0     N45007   0.126   3.707   7.554  0.0998 -0.0773  0.2248
  334MOL0     C45008   1.445   3.339   7.675 -0.1342 -0.5680 -0.2419
  334MOL0     C45009   1.583   3.339   7.686  0.5864 -0.8658  0.3762
  334MOL0     C45010   2.004   3.466   7.802  0.3490  0.0553  0.8063
  334MOL0     C45011   2.047   3.559   7.711 -0.4111  0.4421  0.3749
  334MOL0     C45012   2.178   3.558   7.669 -0.4388  1.1520 -0.2112
  334MOL0     C45013   2.271   3.468   7.720  0.4124 -0.8147 -0.5019
  334MOL0     O45014   2.402   3.467   7.675 -0.1939  0.0980 -0.2142
  334MOL0     C45015   2.464   3.592   7.636  0.2566 -0.5219 -1.2265
  334MOL0     C45016   2.614   3.557   7.640 -0.3096 -0.3292  0.1078
  334MOL0     C45017   2.697   3.664   7.572 -0.1214  0.0571 -1.0614
  334MOL0     C45018   2.850   3.642   7.576  0.2108 -0.1299  0.3279
  334MOL0     C45019   2.897   3.510   7.513 -0.0927 -0.5996 -0.3157
  334MOL0     C45020   2.910   3.394   7.470  0.1059 -0.7496  0.6299
  334MOL0     C45021   2.229   3.374   7.813  0.9114 -0.3442 -1.0976
  334MOL0     C45022   2.093   3.381   7.850  0.0771 -0.3296 -0.1886
  334MOL0     H45023   1.622   3.623   7.855  2.6202 -1.2393 -1.0800
  334MOL0     H45024   1.359   3.610   7.855 -0.5514  2.7120 -1.0735
  334MOL0     H45025   1.131   3.564   7.850 -0.3103 -0.1107 -0.4841
  334MOL0     H45026   1.156   3.613   7.687  0.3470  0.0723 -0.3022
  334MOL0     H45027   0.997   3.405   7.623 -2.2064 -1.5561  1.2696
  334MOL0     H45028   0.959   3.407   7.795  1.1539 -1.1824  0.9671
  334MOL0     H45029   0.882   3.646   7.788 -3.2009  4.5268 -2.7511
  334MOL0     H45030   0.920   3.643   7.617  2.5057 -1.5199 -1.0301
  334MOL0     H45031   0.738   3.457   7.590 -3.4850  0.9451 -0.8096
  334MOL0     H45032   0.748   3.434   7.765  1.3615 -1.6466 -1.1869
  334MOL0     H45033   0.633   3.631   7.799 -0.4169 -1.1285 -0.1573
  334MOL0     H45034   0.646   3.681   7.625 -2.9376 -1.0130 -2.1198
  334MOL0     H45035   0.528   3.478   7.555 -3.1071  1.0243 -1.8448
  334MOL0     H45036   0.500   3.411   7.707 -0.9835  0.1359 -2.1107
  334MOL0     H45037   0.345   3.598   7.777 -2.8349  2.1482 -0.8569
  334MOL0     H45038   0.409   3.677   7.631  1.9966 -0.1852  1.2344
  334MOL0     H45039   0.245   3.409   7.632  1.0631 -0.8159 -2.3592
  334MOL0     H45040   0.310   3.492   7.493  1.5447  4.3449 -0.6846
  334MOL0     H45041   0.022   3.467   7.749 -2.0748  1.8416  1.0299
  334MOL0     H45042  -0.160   3.589   7.843 -0.9277  1.0420  0.2234
  334MOL0     H45043  -0.209   3.743   7.771 -0.1063 -0.4266  0.6747
  334MOL0     H45044  -0.280   3.460   7.666 -3.1717  0.6094  1.4876
  334MOL0     H45045  -0.259   3.599   7.560 -1.0077 -1.0712 -0.4786
  334MOL0     H45046  -0.417   3.717   7.727 -2.6812 -0.0867 -0.3210
  334MOL0     H45047  -0.432   3.564   7.815  0.3065  0.2269 -0.0648
  334MOL0     H45048  -0.612   3.590   7.695  0.4467 -0.5631  1.8084
  334MOL0     H45049  -0.536   3.449   7.617  1.8412  0.0570 -1.4814
  334MOL0     H45050  -0.709   3.483   7.415 -2.8278 -0.2397  0.4552
  334MOL0     H45051  -0.879   3.415   7.304  1.3655  0.9791  1.7958
  334MOL0     H45052  -1.035   3.492   7.327 -0.2946 -1.7569 -2.4904
  334MOL0     H45053  -0.948   3.522   7.181 -1.0587 -2.4928  0.0783
  334MOL0     H45054  -1.096   3.902   7.003  3.3450  0.8377  1.8212
  334MOL0     H45055  -1.290   4.022   6.891  3.2318 -2.2846 -0.6717
  334MOL0     H45056  -1.609   4.295   6.985  0.9148 -0.0363  0.5413
  334MOL0     H45057  -1.538   4.253   7.145  3.0582  0.4714  1.9949
  334MOL0     H45058  -1.385   4.452   7.124  0.2370  1.1470  0.0428
  334MOL0     H45059  -1.469   4.495   6.977 -1.4573 -1.4163 -1.4974
  334MOL0     H45060  -1.640   4.462   7.229 -1.4477  0.4829 -0.5632
  334MOL0     H45061  -1.685   4.522   7.074  0.1077  0.4608 -0.4837
  334MOL0     H45062  -1.493   4.620   7.283 -0.7186  1.6563  1.0861
  334MOL0     H45063  -1.496   4.692   7.118 -0.0973  0.5876  0.8653
  334MOL0     H45064  -1.737   4.690   7.301 -0.8200  1.1458  1.2340
  334MOL0     H45065  -1.719   4.778   7.149 -1.0755  0.4178 -0.3201
  334MOL0     H45066  -1.538   4.916   7.258  0.8098 -0.2072  1.0323
  334MOL0     H45067  -1.697   4.943   7.313  0.2700  0.5841  0.9138
  334MOL0     H45068  -1.495   4.767   7.470  0.9024  0.7412 -0.8905
  334MOL0     H45069  -1.660   4.810   7.519  0.3397 -0.1994  0.9286
  334MOL0     H45070  -1.437   5.003   7.445  1.1580  1.7241  1.8209
  334MOL0     H45071  -1.458   4.957   7.614  1.3672 -2.8593 -0.3232
  334MOL0     H45072  -1.327   4.279   7.231  2.6374 -0.2084  2.1138
  334MOL0     H45073  -1.141   4.174   7.334  1.4950 -2.6549  1.0131
  334MOL0     H45074  -0.803   3.960   7.362 -0.7267 -0.5228 -0.2439
  334MOL0     H45075  -0.584   3.874   7.475  0.8700  0.2532 -1.0259
  334MOL0     H45076   1.396   3.266   7.611  1.7444  0.4451 -2.9977
  334MOL0     H45077   1.653   3.278   7.629  0.6918  1.3640 -2.0840
  334MOL0     H45078   1.980   3.625   7.657 -1.1371 -1.8094 -1.6978
  334MOL0     H45079   2.217   3.637   7.605  0.0979  0.7124 -0.4392
  334MOL0     H45080   2.438   3.622   7.534  0.0208  2.1609 -0.4440
  334MOL0     H45081   2.441   3.674   7.704 -0.2899  0.5908 -2.7037
  334MOL0     H45082   2.624   3.457   7.595 -2.7521 -0.1900 -0.8641
  334MOL0     H45083   2.642   3.554   7.746 -1.8440  1.8636  0.6337
  334MOL0     H45084   2.672   3.762   7.614  1.3428 -1.1032  2.9889
  334MOL0     H45085   2.671   3.670   7.466 -0.6825  1.4472 -0.8736
  334MOL0     H45086   2.888   3.639   7.678  2.8457 -0.9976 -0.5849
  334MOL0     H45087   2.894   3.727   7.523 -0.1371 -1.0541 -1.5626
  334MOL0     H45088   2.897   3.298   7.426 -3.9030 -0.4158  0.6921
  334MOL0     H45089   2.300   3.300   7.845 -1.1950 -2.2888 -0.6730
  334MOL0     H45090   2.074   3.302   7.922  4.5167 -1.0515  0.5385
  335MOL0     O45091   8.332   7.558   0.852  0.0818 -0.5618 -1.0866
  335MOL0     C45092   8.385   7.451   0.849 -0.1250 -0.5840 -0.1894
  335MOL0     O45093   8.329   7.334   0.905  0.1170  0.2394 -0.3257
  335MOL0     C45094   8.254   7.343   1.016 -0.4785  0.3352  0.5348
  335MOL0     C45095   8.233   7.460   1.099  0.1531 -0.0807 -0.3927
  335MOL0     C45096   8.137   7.457   1.206  0.1891  0.7507  0.7596
  335MOL0     C45097   8.060   7.342   1.227  0.8867  0.4096  0.1162
  335MOL0     O45098   7.967   7.329   1.323  0.2427  0.2602 -0.5622
  335MOL0     C45099   7.906   7.447   1.374  0.6486 -0.6780  0.3099
  335MOL0     C45100   7.783   7.402   1.460 -0.3598  0.7886  0.8058
  335MOL0     C45101   7.695   7.515   1.492 -0.1899 -1.2501  0.3883
  335MOL0     C45102   7.549   7.472   1.517  0.0008  0.6043 -0.1514
  335MOL0     C45103   7.457   7.589   1.533 -0.3404  0.4358  0.7132
  335MOL0     C45104   7.415   7.646   1.394 -0.3821  0.2864 -0.4814
  335MOL0     C45105   7.275   7.699   1.409 -0.6062 -1.2217 -0.4926
  335MOL0     C45106   7.167   7.586   1.408  0.2433 -0.0370 -0.0672
  335MOL0     N45107   7.071   7.619   1.515  0.2026 -0.9878  1.1091
  335MOL0     C45108   6.955   7.684   1.499  0.3057  0.0889 -1.0326
  335MOL0     C45109   6.892   7.683   1.627 -0.2316  0.0026 -0.0321
  335MOL0     C45110   6.755   7.733   1.666  0.5456  0.0037  0.5153
  335MOL0     C45111   6.712   7.869   1.608  0.8614 -0.2246  0.7629
  335MOL0     C45112   6.788   7.997   1.655 -0.7693  0.1390 -0.2423
  335MOL0     C45113   6.745   8.131   1.599  0.4390  0.9703 -0.2776
  335MOL0     O45114   6.629   8.171   1.669  0.4836 -0.8116  0.0769
  335MOL0     C45115   6.535   8.230   1.599  0.7312  0.1171 -0.9328
  335MOL0     C45116   6.515   8.240   1.463 -0.1058  1.3563 -0.9858
  335MOL0     C45117   6.398   8.278   1.400  0.1196  0.1776  0.1292
  335MOL0     C45118   6.385   8.262   1.251 -0.9222  0.0574 -0.1145
  335MOL0     C45119   6.286   8.316   1.484 -0.5149  0.1591  0.1454
  335MOL0     C45120   6.169   8.378   1.433 -0.3934 -0.8150  0.3401
  335MOL0     O45121   6.057   8.368   1.512  0.3819 -0.3299 -0.5102
  335MOL0     C45122   5.941   8.434   1.474 -0.0798 -0.1746  1.2991
  335MOL0     C45123   5.879   8.506   1.573 -0.0053  0.1056 -0.8294
  335MOL0     C45124   5.750   8.569   1.547 -0.4498 -0.8768  0.2702
  335MOL0     C45125   5.700   8.565   1.410  0.2789  1.1343  0.3417
  335MOL0     O45126   5.591   8.641   1.360 -0.0234 -0.3555  0.1616
  335MOL0     C45127   5.511   8.711   1.460  0.0153  0.1161 -0.1169
  335MOL0     C45128   5.442   8.816   1.378  0.1135 -0.0440  1.2778
  335MOL0     C45129   5.376   8.922   1.469  0.6657 -0.6520  0.9744
  335MOL0     C45130   5.321   9.038   1.385  0.0108  0.1019  0.3558
  335MOL0     C45131   5.289   9.148   1.487 -0.6682 -0.0507  0.1126
  335MOL0     C45132   5.181   9.109   1.594  0.2218  0.0962  0.0212
  335MOL0     C45133   5.150   9.229   1.693  0.5971  0.3394  0.6304
  335MOL0     C45134   5.032   9.192   1.793 -1.1957 -1.1788  0.4070
  335MOL0    Cl45135   4.879   9.171   1.709  0.1531  0.1780  0.4687
  335MOL0     C45136   5.771   8.498   1.310 -0.6698  0.5849 -0.4725
  335MOL0     C45137   5.883   8.426   1.345 -0.5983  0.3513 -0.0268
  335MOL0     O45138   6.180   8.446   1.329 -0.3510 -0.3305  0.2365
  335MOL0     C45139   6.299   8.288   1.620 -0.2721 -0.2183  0.0938
  335MOL0     C45140   6.417   8.240   1.673 -0.0890 -0.4220 -0.2489
  335MOL0     N45141   6.984   7.625   1.711 -0.0449  0.2134 -0.5395
  335MOL0     N45142   7.085   7.603   1.653 -0.1118 -0.5933  0.3293
  335MOL0     C45143   8.082   7.232   1.144  0.8074 -0.8094  0.0471
  335MOL0     C45144   8.179   7.226   1.048  0.1176  0.2060  0.3250
  335MOL0     C45145   8.498   7.440   0.765  0.0741 -0.1147 -0.4865
  335MOL0     C45146   8.535   7.311   0.712 -0.3340 -0.1773  0.6178
  335MOL0     C45147   8.642   7.304   0.629 -0.2905 -0.8293 -0.7559
  335MOL0     C45148   8.731   7.411   0.610  0.1429  0.3697  0.6325
  335MOL0     O45149   8.845   7.406   0.538 -0.1723 -0.2036  0.3562
  335MOL0     C45150   8.866   7.306   0.442 -1.0510  0.2238  0.3660
  335MOL0     C45151   8.956   7.364   0.338 -0.0076  0.1239 -0.3320
  335MOL0     C45152   8.910   7.492   0.275  0.2920 -0.6218  0.1371
  335MOL0     C45153   8.945   7.627   0.339 -0.5990  0.2092 -0.3947
  335MOL0     C45154   9.079   7.680   0.296  0.1016 -0.0003  0.0509
  335MOL0     C45155   9.195   7.732   0.282  0.2962  0.2413  0.1435
  335MOL0     C45156   8.699   7.535   0.666  0.4112 -0.0512  0.1772
  335MOL0     C45157   8.586   7.545   0.741  0.2957 -0.5759  0.2747
  335MOL0     H45158   8.284   7.556   1.090  0.4900 -0.2435 -0.2477
  335MOL0     H45159   8.142   7.547   1.266  2.8932  0.1521  1.5800
  335MOL0     H45160   7.976   7.503   1.436  0.2230 -1.0903  1.1911
  335MOL0     H45161   7.879   7.506   1.286  0.1353 -1.7128 -0.2536
  335MOL0     H45162   7.720   7.329   1.408  0.3930  2.8459 -3.4378
  335MOL0     H45163   7.809   7.371   1.562 -0.8261 -0.6581  0.5068
  335MOL0     H45164   7.728   7.565   1.584  2.5365  2.3335 -2.2749
  335MOL0     H45165   7.695   7.591   1.414  0.3904 -0.2814  1.2997
  335MOL0     H45166   7.502   7.423   1.431 -0.7301  0.6203  0.2331
  335MOL0     H45167   7.543   7.402   1.601  0.0772  3.2669  2.1977
  335MOL0     H45168   7.369   7.558   1.590 -1.6913  2.0039 -0.4246
  335MOL0     H45169   7.509   7.662   1.596  0.2719  2.0897 -1.5940
  335MOL0     H45170   7.484   7.717   1.348  1.7587 -2.3014 -1.5682
  335MOL0     H45171   7.419   7.563   1.323  3.7290  1.0710 -1.4544
  335MOL0     H45172   7.280   7.750   1.505  1.6336  0.0728 -1.2230
  335MOL0     H45173   7.246   7.781   1.343 -1.9837  0.5220  2.0999
  335MOL0     H45174   7.215   7.490   1.429  0.3794 -0.6887 -2.9323
  335MOL0     H45175   7.110   7.594   1.314  1.7175 -0.5645 -1.0424
  335MOL0     H45176   6.915   7.720   1.404 -1.4098  1.7153  0.2285
  335MOL0     H45177   6.681   7.661   1.630  1.4904 -1.0151  0.5675
  335MOL0     H45178   6.747   7.745   1.775  2.1794  1.5476  0.5116
  335MOL0     H45179   6.608   7.888   1.633  0.4279  0.2903 -1.2553
  335MOL0     H45180   6.715   7.865   1.499 -1.0809  0.8237  0.6405
  335MOL0     H45181   6.895   7.989   1.632 -0.4364  1.1765  0.8271
  335MOL0     H45182   6.789   7.993   1.764 -0.1047 -0.3697 -0.2573
  335MOL0     H45183   6.727   8.117   1.492 -0.2518  1.1882 -0.1976
  335MOL0     H45184   6.823   8.204   1.622  1.9199 -1.0840  1.7581
  335MOL0     H45185   6.599   8.219   1.397  2.4873 -1.2134  2.7184
  335MOL0     H45186   6.291   8.217   1.219  0.1077 -1.6854 -0.8593
  335MOL0     H45187   6.387   8.364   1.212 -0.6849 -0.1381 -0.6266
  335MOL0     H45188   6.465   8.204   1.203 -0.1077  2.4124 -1.8054
  335MOL0     H45189   5.934   8.496   1.667 -3.7518  2.4189  1.9002
  335MOL0     H45190   5.699   8.619   1.629 -1.0724 -1.7454  0.4366
  335MOL0     H45191   5.455   8.631   1.509  1.7374 -0.4735  0.9713
  335MOL0     H45192   5.571   8.759   1.538  1.6140 -2.8653  0.6255
  335MOL0     H45193   5.511   8.867   1.311 -2.3003 -1.2134 -2.4237
  335MOL0     H45194   5.362   8.776   1.315 -2.4219 -0.8041  4.6733
  335MOL0     H45195   5.454   8.954   1.539  0.3717  0.2074  0.9160
  335MOL0     H45196   5.293   8.874   1.520 -3.4936  1.8455 -2.7571
  335MOL0     H45197   5.393   9.070   1.310  0.7970  0.9892  1.4441
  335MOL0     H45198   5.227   9.013   1.335  1.0933  0.8581 -2.2243
  335MOL0     H45199   5.254   9.239   1.440 -0.4396 -1.3611 -2.7976
  335MOL0     H45200   5.387   9.162   1.534  1.6631 -1.6356 -3.8183
  335MOL0     H45201   5.090   9.070   1.548 -2.1882  3.5910  1.4148
  335MOL0     H45202   5.213   9.018   1.646  0.9716  0.3386 -0.0048
  335MOL0     H45203   5.116   9.322   1.645  1.8032  0.6056  0.2445
  335MOL0     H45204   5.240   9.246   1.752 -0.1451  2.3141  1.2741
  335MOL0     H45205   5.029   9.288   1.845  0.3806 -0.4873 -0.6910
  335MOL0     H45206   5.057   9.106   1.857  0.5405  1.0360  2.9092
  335MOL0     H45207   5.730   8.500   1.209  0.7277 -0.9724 -1.1198
  335MOL0     H45208   5.931   8.361   1.272  0.1036 -1.2006  1.7359
  335MOL0     H45209   6.217   8.287   1.692 -1.1177 -3.1519 -0.7506
  335MOL0     H45210   6.431   8.213   1.777  0.9437  1.5107  0.1680
  335MOL0     H45211   8.017   7.147   1.165 -1.5340  1.0968  1.0659
  335MOL0     H45212   8.190   7.144   0.978  1.0513  0.2510  0.4001
  335MOL0     H45213   8.474   7.225   0.739 -0.4440 -0.1102  0.5855
  335MOL0     H45214   8.666   7.209   0.583  0.3752  0.1629 -2.5499
  335MOL0     H45215   8.901   7.211   0.484 -0.4202  0.5002  0.4841
  335MOL0     H45216   8.772   7.278   0.393 -0.5729  1.1762 -1.1569
  335MOL0     H45217   8.976   7.300   0.251 -0.2422  1.7709 -1.6502
  335MOL0     H45218   9.054   7.380   0.383  1.1478  2.1225 -3.2170
  335MOL0     H45219   8.801   7.493   0.263  0.4273  0.7297 -1.3828
  335MOL0     H45220   8.940   7.492   0.170 -1.7763  2.5366 -0.5895
  335MOL0     H45221   8.949   7.625   0.448 -0.7758  1.6068 -0.3499
  335MOL0     H45222   8.871   7.701   0.307  0.2035  1.4062  0.4310
  335MOL0     H45223   9.299   7.758   0.288  0.0660  0.8229  3.2257
  335MOL0     H45224   8.761   7.621   0.645  2.5183 -1.7071 -0.7926
  335MOL0     H45225   8.550   7.639   0.782 -3.2051 -1.6035 -0.0639
  336MOL0     O45226   5.133   9.930  11.058  0.1810  0.0417  0.0495
  336MOL0     C45227   5.124   9.859  11.161 -0.7039  0.7957 -0.2995
  336MOL0     O45228   5.024   9.861  11.244 -1.0005  0.1503  0.3935
  336MOL0     C45229   4.903   9.927  11.226 -0.2769 -0.0889  0.1967
  336MOL0     C45230   4.818   9.878  11.322  0.4194  0.4669 -0.0060
  336MOL0     C45231   4.680   9.914  11.305  0.2861  0.1245 -0.0008
  336MOL0     C45232   4.636  10.010  11.208  0.9459 -0.3181  0.2099
  336MOL0     O45233   4.500  10.021  11.208 -0.6353  0.0349  0.1926
  336MOL0     C45234   4.458  10.147  11.141 -0.2423  0.2700 -0.3082
  336MOL0     C45235   4.307  10.165  11.166  0.1613 -0.0094 -0.2439
  336MOL0     C45236   4.266  10.156  11.315  0.2979 -0.0634  0.6388
  336MOL0     C45237   4.132  10.224  11.347  0.4301 -0.2910  0.1892
  336MOL0     C45238   4.047  10.137  11.437  0.3489  0.2561 -0.0070
  336MOL0     C45239   3.912  10.207  11.460  0.0334 -0.3685 -0.6715
  336MOL0     C45240   3.824  10.236  11.331 -0.5551  0.8324  0.0256
  336MOL0     C45241   3.785  10.108  11.242  0.4973 -0.9824 -0.5104
  336MOL0     N45242   3.718  10.002  11.322 -0.7932  0.1546 -0.3543
  336MOL0     C45243   3.586  10.001  11.354  0.0409  0.0920 -0.4264
  336MOL0     C45244   3.569   9.901  11.446  0.6021 -0.0185  0.8348
  336MOL0     C45245   3.443   9.853  11.513 -0.5154 -0.3818 -0.3338
  336MOL0     C45246   3.419   9.947  11.638 -0.5661 -0.4087 -0.1536
  336MOL0     C45247   3.307   9.891  11.733 -0.4160  0.0884  0.1110
  336MOL0     C45248   3.176   9.898  11.663  0.4391  0.0535 -0.1437
  336MOL0     O45249   3.084   9.884  11.773 -0.1419  0.3981  0.2065
  336MOL0     C45250   2.948   9.884  11.750  0.1557  0.4030  0.6776
  336MOL0     C45251   2.896   9.890  11.623 -0.4599 -0.7981  0.3636
  336MOL0     C45252   2.756   9.902  11.604 -0.4159  0.6546  0.1848
  336MOL0     C45253   2.705   9.892  11.458  0.4761 -0.1026  0.6945
  336MOL0     C45254   2.669   9.906  11.713  0.1803  0.2718 -0.1711
  336MOL0     C45255   2.522   9.905  11.704 -0.7631  0.4183  0.0224
  336MOL0     O45256   2.453   9.878  11.815  0.4169  0.7942 -0.0206
  336MOL0     C45257   2.318   9.893  11.802  0.4632  0.0579 -0.5947
  336MOL0     C45258   2.267  10.023  11.803  0.3293  0.4360 -0.5223
  336MOL0     C45259   2.127  10.050  11.800  0.2698 -0.4281 -1.2186
  336MOL0     C45260   2.036   9.945  11.799 -0.2725  0.5048 -0.0155
  336MOL0     O45261   1.896   9.956  11.775 -0.0137 -0.2479 -0.2915
  336MOL0     C45262   1.824   9.908  11.893  0.0608  0.0885 -0.3539
  336MOL0     C45263   1.678   9.970  11.911 -0.9108  0.1083  0.9564
  336MOL0     C45264   1.688  10.103  11.961 -0.2191 -0.8154 -0.1144
  336MOL0     C45265   1.561  10.195  11.975  0.1178 -0.0221  0.2646
  336MOL0     C45266   1.544  10.267  11.843 -0.5637 -0.0189  0.7121
  336MOL0     C45267   1.415  10.351  11.844  0.8055 -0.2518 -0.0633
  336MOL0     C45268   1.385  10.437  11.969 -0.9877  0.2516 -0.3667
  336MOL0     C45269   1.278  10.530  11.917 -0.0865 -0.1085  0.7506
  336MOL0    Cl45270   1.347  10.658  11.801  0.4019 -0.5823  0.0344
  336MOL0     C45271   2.084   9.816  11.797 -0.0709 -0.7740  0.0862
  336MOL0     C45272   2.222   9.795  11.811 -0.2497 -1.2363  0.6496
  336MOL0     O45273   2.476   9.917  11.593  0.1297 -0.0242 -0.9737
  336MOL0     C45274   2.734   9.895  11.844 -0.0573  0.6130 -0.2595
  336MOL0     C45275   2.871   9.887  11.860 -0.2871  0.8893 -0.2950
  336MOL0     N45276   3.696   9.837  11.450 -0.2394 -0.2537  0.1747
  336MOL0     N45277   3.777   9.901  11.379  0.0514 -0.4200  0.1895
  336MOL0     C45278   4.735  10.072  11.128 -0.9166  0.2045  0.5314
  336MOL0     C45279   4.867  10.026  11.141 -0.5290 -1.2102  0.6742
  336MOL0     C45280   5.244   9.780  11.198  0.2419  0.1999 -0.2103
  336MOL0     C45281   5.358   9.766  11.113 -0.5123 -0.2143  0.5104
  336MOL0     C45282   5.470   9.699  11.153  0.1624  0.2947  0.1967
  336MOL0     C45283   5.487   9.665  11.290 -0.0450  0.0341 -0.0363
  336MOL0     O45284   5.611   9.630  11.331  0.5786 -0.2202  0.2960
  336MOL0     C45285   5.611   9.555  11.450  0.1437  0.2099  0.3868
  336MOL0     C45286   5.746   9.479  11.455  0.1428 -1.3188 -0.0864
  336MOL0     C45287   5.861   9.579  11.421 -0.4487 -0.2895 -0.2780
  336MOL0     C45288   5.994   9.536  11.479  0.1665 -0.0902 -0.1737
  336MOL0     C45289   6.000   9.567  11.620 -0.4722  0.0630  0.5514
  336MOL0     C45290   6.011   9.596  11.739 -0.0890  0.8467  0.2614
  336MOL0     C45291   5.369   9.676  11.372 -0.0922 -0.8930 -0.1035
  336MOL0     C45292   5.253   9.725  11.328 -0.7367 -0.4682 -0.0573
  336MOL0     H45293   4.854   9.810  11.398  0.4346 -0.6779 -1.0141
  336MOL0     H45294   4.605   9.880  11.376  1.4212  0.2759  1.3116
  336MOL0     H45295   4.519  10.224  11.188  0.7206  0.8763 -2.4485
  336MOL0     H45296   4.465  10.138  11.033  0.2899 -1.9162 -0.1414
  336MOL0     H45297   4.288  10.267  11.130 -2.0455 -0.3277 -0.1234
  336MOL0     H45298   4.246  10.093  11.110 -1.3110  0.6334  0.4826
  336MOL0     H45299   4.266  10.048  11.335 -0.7145  0.3881  3.5816
  336MOL0     H45300   4.345  10.187  11.383  0.2849 -0.2761  0.7540
  336MOL0     H45301   4.152  10.314  11.406  0.1219 -1.2521  1.8414
  336MOL0     H45302   4.091  10.248  11.249  0.9487  1.0000  0.2750
  336MOL0     H45303   4.027  10.038  11.394 -0.9561 -0.0157  1.1282
  336MOL0     H45304   4.108  10.132  11.527  1.4854  0.7988 -0.7352
  336MOL0     H45305   3.857  10.136  11.524 -0.2582 -0.2292 -0.7687
  336MOL0     H45306   3.923  10.305  11.508 -4.0261 -0.5836  1.1620
  336MOL0     H45307   3.732  10.291  11.354 -1.2621  0.2750 -1.3233
  336MOL0     H45308   3.886  10.311  11.281  0.9696 -0.6680 -0.4262
  336MOL0     H45309   3.878  10.069  11.199  1.2132  0.9000 -0.7767
  336MOL0     H45310   3.726  10.145  11.158  0.5535 -3.8948 -1.9307
  336MOL0     H45311   3.513  10.069  11.312 -2.3217 -2.2843 -0.4877
  336MOL0     H45312   3.357   9.844  11.446  0.2643 -1.1059 -1.2638
  336MOL0     H45313   3.463   9.751  11.548 -2.4806 -0.9739 -0.7691
  336MOL0     H45314   3.387  10.047  11.609 -1.2632 -0.2614  1.0143
  336MOL0     H45315   3.514   9.943  11.691  0.2565 -0.7842 -1.6195
  336MOL0     H45316   3.305   9.952  11.825 -0.0159  1.6792 -0.8862
  336MOL0     H45317   3.326   9.787  11.758  0.3062 -0.1143 -1.2077
  336MOL0     H45318   3.156   9.814  11.596 -0.0132 -1.6691  2.0344
  336MOL0     H45319   3.158   9.995  11.616 -0.8216 -0.7289 -1.3636
  336MOL0     H45320   2.956   9.885  11.533 -1.2984 -2.0933 -0.1620
  336MOL0     H45321   2.785   9.890  11.384  2.9118  1.8206  3.0837
  336MOL0     H45322   2.640   9.804  11.449 -0.4949  0.6479  0.1212
  336MOL0     H45323   2.644   9.982  11.450  0.0315 -0.4758 -0.3151
  336MOL0     H45324   2.336  10.106  11.813  0.2692  0.5086 -0.7005
  336MOL0     H45325   2.094  10.153  11.797 -0.4858 -0.5963  0.3338
  336MOL0     H45326   1.820   9.800  11.877  1.9118 -0.1928  0.8560
  336MOL0     H45327   1.872   9.930  11.988 -0.5724 -0.6689  0.1552
  336MOL0     H45328   1.632   9.972  11.812  4.0522 -0.6551 -1.7025
  336MOL0     H45329   1.621   9.911  11.983  0.6735 -1.9272  0.6292
  336MOL0     H45330   1.774  10.153  11.915  1.1932  1.2190  4.1570
  336MOL0     H45331   1.717  10.084  12.065 -1.3512  0.9535  0.5755
  336MOL0     H45332   1.469  10.141  11.998 -0.7315  1.2560 -0.0602
  336MOL0     H45333   1.582  10.263  12.059  0.3911  1.0936 -0.6838
  336MOL0     H45334   1.541  10.207  11.752 -1.4314  1.0499  0.0125
  336MOL0     H45335   1.634  10.328  11.832 -2.1031  2.2093 -0.2368
  336MOL0     H45336   1.411  10.414  11.754 -2.2180  0.0071  0.1589
  336MOL0     H45337   1.334  10.280  11.831  0.5474  0.5107 -3.7646
  336MOL0     H45338   1.476  10.491  11.994  0.0116  0.1615 -3.3486
  336MOL0     H45339   1.343  10.374  12.047  1.7948  0.1052  1.1279
  336MOL0     H45340   1.231  10.588  11.997  1.5731  1.7859  0.4267
  336MOL0     H45341   1.212  10.468  11.856  3.7346 -0.2270 -3.8564
  336MOL0     H45342   2.028   9.730  11.764 -0.8200  0.3356 -1.7004
  336MOL0     H45343   2.248   9.690  11.827  1.7593 -1.4795 -2.9864
  336MOL0     H45344   2.670   9.894  11.932 -1.1271 -2.0267 -0.9809
  336MOL0     H45345   2.911   9.894  11.961 -1.4377  0.5309  0.2066
  336MOL0     H45346   4.716  10.139  11.045  1.6535 -1.2420 -1.3649
  336MOL0     H45347   4.941  10.078  11.082 -2.4636  3.6139  2.0461
  336MOL0     H45348   5.358   9.813  11.015 -0.5380  2.4200  1.6690
  336MOL0     H45349   5.558   9.695  11.089 -2.2720 -2.7986 -3.3341
  336MOL0     H45350   5.588   9.615  11.539  0.3139 -1.4839  1.6076
  336MOL0     H45351   5.538   9.475  11.439 -0.4014  0.9350 -1.7568
  336MOL0     H45352   5.723   9.394  11.391 -2.9678 -2.5676  2.4256
  336MOL0     H45353   5.763   9.436  11.554  1.5624 -4.0955 -1.4434
  336MOL0     H45354   5.845   9.677  11.467  0.2032 -1.0400  1.6435
  336MOL0     H45355   5.878   9.581  11.313  0.9934 -0.6003 -0.0661
  336MOL0     H45356   6.077   9.582  11.423  1.6598 -3.4188 -0.9157
  336MOL0     H45357   6.009   9.430  11.461 -0.0837 -0.1358 -0.1104
  336MOL0     H45358   6.032   9.626  11.840  2.1170  0.8064 -0.1267
  336MOL0     H45359   5.371   9.666  11.480 -1.3149 -0.8277 -0.0668
  336MOL0     H45360   5.176   9.749  11.401  1.4028  1.6452  1.6754
  337MOL0     O45361   7.145   8.408   0.831  0.7472  0.2104  0.3358
  337MOL0     C45362   7.198   8.313   0.894 -0.1612 -0.5627 -0.2705
  337MOL0     O45363   7.133   8.209   0.960 -0.7884 -1.0066  0.5215
  337MOL0     C45364   7.006   8.182   0.926  0.4064  0.8272 -0.0416
  337MOL0     C45365   6.905   8.203   1.024  0.0441 -0.3793 -0.6876
  337MOL0     C45366   6.773   8.173   0.984 -0.5629  0.1523  0.3135
  337MOL0     C45367   6.737   8.114   0.859 -0.2157  0.2856  0.2029
  337MOL0     O45368   6.607   8.089   0.814 -0.0145 -0.8097 -0.2596
  337MOL0     C45369   6.500   8.076   0.906  0.1338  0.1402  0.5335
  337MOL0     C45370   6.367   8.018   0.847 -0.9205  0.4441 -0.2138
  337MOL0     C45371   6.340   8.053   0.702  0.0639 -0.3247 -0.5056
  337MOL0     C45372   6.191   8.055   0.682  0.4268 -0.9036 -1.0818
  337MOL0     C45373   6.144   8.141   0.569  0.1648  0.7436 -0.1131
  337MOL0     C45374   5.999   8.114   0.534 -0.1376 -0.4909 -0.6310
  337MOL0     C45375   5.959   8.134   0.388  0.1731 -0.1061  0.3260
  337MOL0     C45376   5.819   8.080   0.366  0.0579 -0.0289 -0.2245
  337MOL0     N45377   5.786   8.120   0.224 -0.0521  0.4754  0.4245
  337MOL0     C45378   5.723   8.232   0.173  1.4574  0.2082  0.4026
  337MOL0     C45379   5.683   8.197   0.045 -0.2115  0.0506 -1.0375
  337MOL0     C45380   5.610   8.288  -0.048  0.1685 -0.2736 -0.6985
  337MOL0     C45381   5.458   8.280  -0.024  0.2561 -0.2258 -0.1691
  337MOL0     C45382   5.407   8.278   0.127  0.7406  0.9089  0.2124
  337MOL0     C45383   5.256   8.293   0.118 -0.1696 -0.5334  0.0299
  337MOL0     O45384   5.232   8.353   0.242  0.2033  0.0657 -0.2935
  337MOL0     C45385   5.104   8.351   0.295 -0.2976 -0.0773  0.5684
  337MOL0     C45386   5.091   8.402   0.430  1.0436  0.0827 -0.7664
  337MOL0     C45387   4.966   8.404   0.492 -0.0181  0.0877  0.6247
  337MOL0     C45388   4.948   8.453   0.632 -0.2088  0.5183 -0.6156
  337MOL0     C45389   4.851   8.365   0.412 -0.2319 -0.4015 -0.0978
  337MOL0     C45390   4.716   8.370   0.472 -0.3917 -0.1014  1.4685
  337MOL0     O45391   4.626   8.432   0.387 -0.4554 -0.4367  0.1137
  337MOL0     C45392   4.504   8.473   0.427 -0.1953  0.4070  0.1285
  337MOL0     C45393   4.469   8.489   0.565  0.1115  0.4550 -0.3341
  337MOL0     C45394   4.339   8.530   0.603  0.3017  0.3090  0.8326
  337MOL0     C45395   4.242   8.554   0.511 -0.0259 -0.3530  0.5875
  337MOL0     O45396   4.121   8.617   0.540  0.1103 -0.3731 -0.1757
  337MOL0     C45397   4.119   8.697   0.659 -0.0111  0.7808 -1.0494
  337MOL0     C45398   3.996   8.789   0.672 -0.3369  1.0568 -0.2870
  337MOL0     C45399   3.857   8.707   0.674 -0.1097  0.5780  0.5212
  337MOL0     C45400   3.743   8.788   0.736 -0.5143  0.0584  0.1956
  337MOL0     C45401   3.613   8.704   0.744 -0.0308  0.0726  0.1343
  337MOL0     C45402   3.503   8.792   0.797  0.2037 -0.4085 -0.0984
  337MOL0     C45403   3.375   8.716   0.819 -0.3114 -0.7623 -0.2147
  337MOL0     C45404   3.258   8.805   0.818  0.7413  0.3480  0.3254
  337MOL0    Cl45405   3.116   8.689   0.859  0.2014 -0.3096  0.4004
  337MOL0     C45406   4.274   8.531   0.375 -0.3807  0.8368 -0.6258
  337MOL0     C45407   4.402   8.489   0.336 -0.5626  0.1472  0.7517
  337MOL0     O45408   4.682   8.311   0.569  0.0449  0.5218  0.1234
  337MOL0     C45409   4.870   8.322   0.286  0.7408 -0.0497 -0.0879
  337MOL0     C45410   4.991   8.310   0.226  0.2044 -0.8385 -0.7905
  337MOL0     N45411   5.732   8.078   0.011  0.5796 -0.0823  0.3239
  337MOL0     N45412   5.783   8.028   0.116  0.0611  0.0120 -0.4721
  337MOL0     C45413   6.840   8.089   0.765 -0.0583  0.2627  0.1808
  337MOL0     C45414   6.974   8.125   0.803 -0.2845 -0.2491 -0.0696
  337MOL0     C45415   7.350   8.318   0.906 -0.5163  0.3250 -0.0533
  337MOL0     C45416   7.411   8.251   1.013  0.4072 -0.0206  0.0232
  337MOL0     C45417   7.547   8.244   1.023  0.4783  0.0830 -0.5356
  337MOL0     C45418   7.629   8.295   0.923 -0.0424 -0.3865  0.0543
  337MOL0     O45419   7.770   8.287   0.921 -0.3148 -0.0977  0.0334
  337MOL0     C45420   7.829   8.211   1.029  0.4855 -0.2344 -0.1756
  337MOL0     C45421   7.981   8.207   1.009 -0.8863  0.4725  0.4139
  337MOL0     C45422   8.021   8.121   0.882  0.8498 -0.9588  0.4544
  337MOL0     C45423   8.172   8.095   0.875  0.2644  0.0466  0.0542
  337MOL0     C45424   8.192   7.971   0.789  0.0529  0.1786 -0.8249
  337MOL0     C45425   8.191   7.861   0.729 -0.4458 -0.9995 -0.7032
  337MOL0     C45426   7.576   8.372   0.821 -0.1651 -0.6345 -0.6344
  337MOL0     C45427   7.433   8.377   0.807  0.0531  0.1473 -0.4676
  337MOL0     H45428   6.925   8.252   1.119  0.5755 -1.8413 -0.0265
  337MOL0     H45429   6.698   8.190   1.061  0.9317 -0.7276  2.0304
  337MOL0     H45430   6.531   8.012   0.989 -1.5543 -2.0414 -0.3956
  337MOL0     H45431   6.479   8.176   0.945  1.7190  1.2047 -1.2187
  337MOL0     H45432   6.370   7.909   0.852  2.5540  0.5095  1.5073
  337MOL0     H45433   6.292   8.057   0.917  0.4576  0.7360  1.1380
  337MOL0     H45434   6.387   8.151   0.687  1.2762 -1.1657 -2.5793
  337MOL0     H45435   6.391   7.987   0.632  0.7262 -1.3499  0.8828
  337MOL0     H45436   6.156   7.953   0.668 -2.4214  0.1589 -2.3654
  337MOL0     H45437   6.138   8.094   0.769 -0.7278 -0.4955 -1.9493
  337MOL0     H45438   6.148   8.246   0.601  0.8617 -0.3635  4.0313
  337MOL0     H45439   6.205   8.126   0.480 -0.5859  2.4954 -0.9631
  337MOL0     H45440   5.960   8.017   0.563 -2.1615  0.1612 -1.0207
  337MOL0     H45441   5.944   8.187   0.595  2.1708 -1.0686  2.4043
  337MOL0     H45442   5.963   8.243   0.377  0.7677 -0.0906  0.6295
  337MOL0     H45443   6.029   8.086   0.319  1.5357  1.1774  0.7593
  337MOL0     H45444   5.744   8.118   0.437 -0.3808 -3.7613  1.5308
  337MOL0     H45445   5.818   7.971   0.365 -0.5864 -0.1027 -3.7403
  337MOL0     H45446   5.714   8.333   0.212  0.1873  1.1116 -2.0267
  337MOL0     H45447   5.645   8.391  -0.036  1.9317 -0.6972 -1.7894
  337MOL0     H45448   5.641   8.250  -0.145  1.2228  0.1748 -0.5546
  337MOL0     H45449   5.423   8.190  -0.076  0.3465 -1.0792  1.1761
  337MOL0     H45450   5.414   8.368  -0.070 -1.0468 -0.5002  0.4827
  337MOL0     H45451   5.455   8.359   0.183 -0.8890  2.3129 -0.3301
  337MOL0     H45452   5.427   8.180   0.170 -0.1636  0.1860 -0.9417
  337MOL0     H45453   5.214   8.194   0.095  0.1643 -0.6101 -0.2670
  337MOL0     H45454   5.227   8.360   0.037 -1.9103 -0.9416  0.2627
  337MOL0     H45455   5.182   8.442   0.475  2.7858 -1.2960 -2.8201
  337MOL0     H45456   4.904   8.371   0.690 -0.0520  0.7702 -0.1339
  337MOL0     H45457   5.043   8.477   0.681  1.1240 -0.9037 -2.3435
  337MOL0     H45458   4.883   8.541   0.641  1.7008  2.0157 -0.8732
  337MOL0     H45459   4.545   8.482   0.642  0.0123  1.5647 -0.1188
  337MOL0     H45460   4.311   8.548   0.707 -0.6432  1.3205  0.4271
  337MOL0     H45461   4.121   8.635   0.748  1.4473  2.2212 -0.0183
  337MOL0     H45462   4.209   8.759   0.661  0.2603  0.5472 -3.0845
  337MOL0     H45463   3.996   8.841   0.768 -1.0527  1.7200 -0.6308
  337MOL0     H45464   3.992   8.868   0.596  0.4127  2.4217  1.0322
  337MOL0     H45465   3.874   8.618   0.736  1.1978  1.5635  1.6460
  337MOL0     H45466   3.827   8.680   0.573 -1.1020  0.0935  0.9333
  337MOL0     H45467   3.773   8.816   0.837  1.8740  0.8838 -0.6667
  337MOL0     H45468   3.740   8.876   0.672  0.6506 -1.1085 -1.5532
  337MOL0     H45469   3.626   8.623   0.816  1.1913 -0.9883 -1.2082
  337MOL0     H45470   3.595   8.665   0.643 -0.2186  1.3760 -0.3596
  337MOL0     H45471   3.544   8.832   0.891 -2.1855 -0.6847  1.1419
  337MOL0     H45472   3.490   8.877   0.729  1.4858 -0.9687 -1.0749
  337MOL0     H45473   3.388   8.670   0.918  1.9174 -1.4910 -0.7896
  337MOL0     H45474   3.365   8.644   0.737 -1.5921 -0.2583 -0.5162
  337MOL0     H45475   3.239   8.853   0.722 -0.1295  0.2353  0.4361
  337MOL0     H45476   3.263   8.885   0.893  2.1424  0.8383 -0.2547
  337MOL0     H45477   4.198   8.538   0.298 -1.7215  0.4131  0.5983
  337MOL0     H45478   4.420   8.483   0.229 -0.2518  3.0246  0.5653
  337MOL0     H45479   4.781   8.291   0.232  1.2910  0.1920 -1.1693
  337MOL0     H45480   5.003   8.265   0.128 -0.6227  0.2593 -1.4205
  337MOL0     H45481   6.828   8.062   0.660  0.0696 -0.6503  0.3931
  337MOL0     H45482   7.056   8.104   0.736  0.3404  1.5465  0.0724
  337MOL0     H45483   7.351   8.184   1.075  0.3104  1.2737  1.3764
  337MOL0     H45484   7.594   8.193   1.106  2.8178  0.9361 -1.2429
  337MOL0     H45485   7.809   8.259   1.126  0.0479 -0.2670 -0.2516
  337MOL0     H45486   7.790   8.109   1.034 -0.9725  0.3538  1.0742
  337MOL0     H45487   8.024   8.161   1.099  2.4083  0.5415 -0.9912
  337MOL0     H45488   8.026   8.305   0.991 -1.7883  0.9944  0.9389
  337MOL0     H45489   7.985   8.167   0.790  2.4722 -0.9314 -0.2076
  337MOL0     H45490   7.969   8.026   0.900  3.3748 -2.1748  1.8920
  337MOL0     H45491   8.217   8.075   0.973  1.6208  0.6468 -0.4285
  337MOL0     H45492   8.216   8.181   0.824 -1.5920  0.9736 -0.0580
  337MOL0     H45493   8.195   7.763   0.685  2.8402  0.1500 -3.3739
  337MOL0     H45494   7.640   8.442   0.768 -0.5915  2.1804  2.1881
  337MOL0     H45495   7.388   8.435   0.726 -0.5054 -1.7612 -1.5860
  338MOL0     O45496   8.520   4.243   9.109 -0.7893  1.1186 -0.2978
  338MOL0     C45497   8.544   4.157   9.195 -0.1939  0.7773  1.1029
  338MOL0     O45498   8.459   4.115   9.288  0.5721  0.3848 -0.5528
  338MOL0     C45499   8.332   4.163   9.285  0.1162  0.1945 -1.2405
  338MOL0     C45500   8.268   4.150   9.409  0.0950 -0.3677  0.3570
  338MOL0     C45501   8.135   4.168   9.429 -0.9212  0.3378 -0.3761
  338MOL0     C45502   8.062   4.222   9.315  0.6447  0.4612 -0.1758
  338MOL0     O45503   7.925   4.240   9.331  0.2164 -0.4858  0.5857
  338MOL0     C45504   7.852   4.319   9.237  0.6895 -0.3393  0.4926
  338MOL0     C45505   7.731   4.380   9.304 -0.3232 -0.7663 -0.6323
  338MOL0     C45506   7.636   4.280   9.359  0.1354  0.1127  0.2883
  338MOL0     C45507   7.621   4.294   9.510  0.2895  0.4561  0.7975
  338MOL0     C45508   7.525   4.189   9.562 -0.2771  0.4075  0.6658
  338MOL0     C45509   7.479   4.219   9.705  0.1469  0.1226  0.4358
  338MOL0     C45510   7.390   4.113   9.775  0.3262 -0.1930 -0.0423
  338MOL0     C45511   7.424   4.101   9.928  0.7685  0.3041 -0.2559
  338MOL0     N45512   7.339   4.006   9.998 -0.0532 -0.5450 -0.1497
  338MOL0     C45513   7.210   4.032  10.037  0.1907  0.2176 -1.5856
  338MOL0     C45514   7.173   3.914  10.088 -0.1506  0.6508 -0.6712
  338MOL0     C45515   7.043   3.890  10.157 -0.1213  0.0135 -0.4635
  338MOL0     C45516   6.956   3.774  10.097 -0.1729  0.5763 -0.1452
  338MOL0     C45517   6.882   3.808   9.965  0.5268 -0.5644 -0.7083
  338MOL0     C45518   6.805   3.681   9.913  0.1339  0.5429  1.0896
  338MOL0     O45519   6.694   3.657   9.994  0.0210 -0.4540 -0.6451
  338MOL0     C45520   6.576   3.727   9.985 -0.6549 -0.5569 -0.0784
  338MOL0     C45521   6.554   3.843   9.907  0.1080  0.8006  0.9957
  338MOL0     C45522   6.428   3.903   9.899 -0.1627 -0.0938 -0.4782
  338MOL0     C45523   6.428   4.032   9.814 -0.1091  1.3016  0.1890
  338MOL0     C45524   6.318   3.838   9.971  0.1186 -0.3431  0.3444
  338MOL0     C45525   6.178   3.885   9.968 -1.0365 -0.5731 -0.6286
  338MOL0     O45526   6.091   3.798  10.012  1.0866  0.2840  0.0938
  338MOL0     C45527   5.950   3.812  10.013 -1.1719  0.1610  0.4318
  338MOL0     C45528   5.891   3.896   9.929  0.5519  0.1333 -0.1075
  338MOL0     C45529   5.749   3.904   9.932 -0.2994  0.2951  0.6391
  338MOL0     C45530   5.673   3.833  10.033 -0.1742 -0.4025 -0.5364
  338MOL0     O45531   5.532   3.838  10.033 -1.2151  0.9707  0.8440
  338MOL0     C45532   5.467   3.943   9.949  0.2170  0.0808 -0.6052
  338MOL0     C45533   5.319   3.965   9.996  0.4316  0.2193  0.1548
  338MOL0     C45534   5.246   4.047   9.883 -0.9996  0.3993  0.0420
  338MOL0     C45535   5.091   4.044   9.917 -0.5138  0.5363 -0.3295
  338MOL0     C45536   5.022   4.137   9.815  0.7261  1.0709 -0.0480
  338MOL0     C45537   4.870   4.116   9.829  0.5381  1.0554  0.2283
  338MOL0     C45538   4.799   4.229   9.754  0.1733 -0.2342  0.9594
  338MOL0     C45539   4.653   4.223   9.790 -0.4848 -0.3797 -0.0084
  338MOL0    Cl45540   4.605   4.259   9.951  0.0473  0.4840 -0.0598
  338MOL0     C45541   5.742   3.750  10.126 -0.5585  0.2397  0.1609
  338MOL0     C45542   5.883   3.733  10.113  0.4652  0.9212 -0.1108
  338MOL0     O45543   6.161   4.004   9.933 -0.9464  0.1194 -0.4196
  338MOL0     C45544   6.341   3.726  10.050 -0.1292 -0.5029 -0.2246
  338MOL0     C45545   6.473   3.677  10.060  1.0286 -0.1140 -0.0834
  338MOL0     N45546   7.285   3.822  10.091 -0.1719 -0.0679  0.3045
  338MOL0     N45547   7.385   3.882  10.030  0.6076 -0.6189  0.5589
  338MOL0     C45548   8.119   4.239   9.185  0.3525  0.1456  0.2444
  338MOL0     C45549   8.252   4.208   9.174  0.7063 -0.3063 -0.3667
  338MOL0     C45550   8.688   4.113   9.194 -0.2872 -0.4305  0.2951
  338MOL0     C45551   8.785   4.191   9.135 -0.0624 -0.0591  0.1647
  338MOL0     C45552   8.915   4.160   9.162 -0.3633  0.4995 -1.1957
  338MOL0     C45553   8.959   4.048   9.226 -0.2059 -0.2060 -1.1698
  338MOL0     O45554   9.095   4.026   9.219  0.1271  0.0540  0.1272
  338MOL0     C45555   9.135   3.903   9.263 -0.5099 -0.4775  0.2465
  338MOL0     C45556   9.283   3.874   9.232  0.3280  0.2479 -0.8001
  338MOL0     C45557   9.374   3.954   9.322 -1.0709 -0.6773  0.1199
  338MOL0     C45558   9.523   3.912   9.297 -0.0036 -0.7168  0.9133
  338MOL0     C45559   9.547   3.768   9.292  0.4938 -0.6021 -0.2752
  338MOL0     C45560   9.558   3.655   9.322  0.6353 -0.2543 -0.5056
  338MOL0     C45561   8.862   3.961   9.284 -0.4651 -0.8972  1.1113
  338MOL0     C45562   8.725   4.002   9.267  0.4994  0.4743 -0.5565
  338MOL0     H45563   8.318   4.086   9.481 -0.0976 -1.9789 -0.8797
  338MOL0     H45564   8.101   4.134   9.527  3.9583 -0.6816  1.2369
  338MOL0     H45565   7.908   4.403   9.195 -1.3108  0.4641 -0.7566
  338MOL0     H45566   7.807   4.254   9.161 -1.7837  0.4465  1.1720
  338MOL0     H45567   7.761   4.456   9.377  0.4213  0.4476 -2.1329
  338MOL0     H45568   7.670   4.438   9.233 -0.5793 -4.2080 -3.4798
  338MOL0     H45569   7.539   4.280   9.308 -0.0070  0.4215  0.5574
  338MOL0     H45570   7.671   4.177   9.348 -4.8396 -2.0695  2.0547
  338MOL0     H45571   7.718   4.281   9.558  0.9217  1.7906 -0.0545
  338MOL0     H45572   7.574   4.390   9.533 -1.4512 -0.5883  1.9478
  338MOL0     H45573   7.435   4.171   9.504 -0.0728 -1.3898  0.8473
  338MOL0     H45574   7.585   4.097   9.572 -0.4415  0.2258 -0.0025
  338MOL0     H45575   7.568   4.228   9.768 -0.0910  0.6693  0.6960
  338MOL0     H45576   7.427   4.315   9.698  0.4827  0.4285  1.9441
  338MOL0     H45577   7.287   4.142   9.754  0.1215 -1.1669 -0.4242
  338MOL0     H45578   7.416   4.016   9.731 -0.5801  0.6559 -2.6800
  338MOL0     H45579   7.405   4.189   9.989  1.8388 -0.4314  1.2170
  338MOL0     H45580   7.524   4.069   9.960 -0.3024 -1.4132  1.5917
  338MOL0     H45581   7.151   4.122  10.029  0.7408  0.7000 -0.4811
  338MOL0     H45582   7.050   3.879  10.265 -1.1988  0.6300 -0.3126
  338MOL0     H45583   6.976   3.976  10.150  0.1504  0.1732 -1.2190
  338MOL0     H45584   6.887   3.740  10.175  0.9156 -2.0405 -0.2237
  338MOL0     H45585   7.019   3.685  10.083 -1.1854 -0.5813  2.2176
  338MOL0     H45586   6.956   3.835   9.888  0.3305  1.8279 -0.1274
  338MOL0     H45587   6.818   3.895   9.974  0.3436 -0.8122  0.4816
  338MOL0     H45588   6.870   3.593   9.912  0.6228  0.8874 -0.4811
  338MOL0     H45589   6.772   3.692   9.809  1.2732  1.4809  0.8060
  338MOL0     H45590   6.637   3.894   9.860  3.1021 -1.9916  2.8487
  338MOL0     H45591   6.527   4.066   9.781 -0.0380 -0.1126 -1.1896
  338MOL0     H45592   6.379   4.014   9.718 -2.0685  1.3826  1.1185
  338MOL0     H45593   6.380   4.113   9.869  0.1655  0.6952  1.3592
  338MOL0     H45594   5.949   3.938   9.847 -0.0126  1.2355  0.0338
  338MOL0     H45595   5.689   3.952   9.856 -1.5938  0.3034  1.6326
  338MOL0     H45596   5.527   4.035   9.953  0.7045 -0.2463 -0.0811
  338MOL0     H45597   5.464   3.911   9.844 -0.2839  1.5474 -1.0550
  338MOL0     H45598   5.276   3.867  10.018  2.3885 -0.8304 -0.4710
  338MOL0     H45599   5.317   4.029  10.084 -2.5396  1.1746 -0.4772
  338MOL0     H45600   5.268   4.006   9.784 -0.2263  3.0096 -0.9560
  338MOL0     H45601   5.291   4.147   9.876  2.3430 -0.8645  1.1077
  338MOL0     H45602   5.060   3.939   9.915  3.5368 -0.8168 -0.3730
  338MOL0     H45603   5.080   4.082  10.019  2.8298 -1.3046  0.8495
  338MOL0     H45604   5.048   4.100   9.715 -1.0646 -0.6753  0.0563
  338MOL0     H45605   5.054   4.240   9.830  1.5907  0.4422  3.0413
  338MOL0     H45606   4.840   4.018   9.791 -2.5641  0.6059  3.3714
  338MOL0     H45607   4.845   4.114   9.935  0.2193 -1.1827  0.1596
  338MOL0     H45608   4.806   4.214   9.645  0.8282 -3.4527  1.3427
  338MOL0     H45609   4.846   4.324   9.781 -0.0843  0.1988 -0.0665
  338MOL0     H45610   4.602   4.131   9.758 -1.2679  0.2888 -0.7224
  338MOL0     H45611   4.611   4.306   9.733 -2.0437 -0.1687  1.3831
  338MOL0     H45612   5.688   3.704  10.209  1.5256 -2.3767  0.2069
  338MOL0     H45613   5.936   3.665  10.179 -1.0532 -0.7752 -0.5726
  338MOL0     H45614   6.269   3.667  10.106 -1.9586  0.2770 -1.6597
  338MOL0     H45615   6.492   3.591  10.124  0.9292 -0.4552 -0.5105
  338MOL0     H45616   8.059   4.272   9.101 -3.2419 -1.1190  2.1178
  338MOL0     H45617   8.293   4.218   9.074  0.2923  1.1525 -0.4191
  338MOL0     H45618   8.754   4.273   9.070 -0.9440  0.3170  1.0352
  338MOL0     H45619   8.994   4.217   9.112 -1.1797 -0.1391 -3.3508
  338MOL0     H45620   9.117   3.895   9.371  1.6090 -0.2497  0.6591
  338MOL0     H45621   9.075   3.832   9.205 -0.2674  0.3921 -1.1122
  338MOL0     H45622   9.295   3.891   9.124 -3.9699 -1.8675 -1.8455
  338MOL0     H45623   9.295   3.768   9.253  1.2066  0.1029 -1.9486
  338MOL0     H45624   9.355   3.942   9.429  0.1195  3.9531  1.0530
  338MOL0     H45625   9.363   4.061   9.302  0.7266 -0.4531  0.0973
  338MOL0     H45626   9.594   3.945   9.373 -0.0904 -1.8683  1.5130
  338MOL0     H45627   9.559   3.946   9.199 -0.9391 -3.0144 -0.2918
  338MOL0     H45628   9.564   3.551   9.347  0.8255 -1.1715 -3.8749
  338MOL0     H45629   8.900   3.880   9.346  1.2916 -0.4235  0.7109
  338MOL0     H45630   8.646   3.949   9.319  0.6138 -0.5890 -1.4319
  339MOL0     O45631   9.110   7.596   8.036  0.7340 -0.1069  0.2815
  339MOL0     C45632   9.031   7.677   7.984 -0.0748 -0.3003 -0.8139
  339MOL0     O45633   9.067   7.788   7.900  0.6120 -0.1830 -0.3648
  339MOL0     C45634   9.195   7.793   7.850 -0.0525 -0.0031 -0.1185
  339MOL0     C45635   9.278   7.900   7.881  0.0225  0.3089 -0.0756
  339MOL0     C45636   9.406   7.901   7.827 -0.4947 -0.4236 -0.4793
  339MOL0     C45637   9.450   7.804   7.735 -0.5854 -0.1159 -0.2710
  339MOL0     O45638   9.560   7.818   7.657 -0.2454 -0.1529 -0.1875
  339MOL0     C45639   9.642   7.926   7.701 -0.0822 -0.1629 -0.2818
  339MOL0     C45640   9.779   7.916   7.628 -0.3762  0.3714 -0.0415
  339MOL0     C45641   9.885   8.005   7.691  0.1803 -0.9730 -0.1851
  339MOL0     C45642   9.847   8.150   7.689 -0.0353 -0.3441 -0.5757
  339MOL0     C45643   9.854   8.202   7.549 -0.0585  0.1047  0.7646
  339MOL0     C45644   9.823   8.353   7.560  0.0368 -0.0553  0.5120
  339MOL0     C45645   9.839   8.432   7.427  0.3240 -0.0669 -0.3792
  339MOL0     C45646   9.801   8.584   7.429 -0.6841  0.8735 -0.8329
  339MOL0     N45647   9.683   8.597   7.515  0.0041  0.0951 -0.3460
  339MOL0     C45648   9.566   8.529   7.509  0.1799 -0.1359 -1.0414
  339MOL0     C45649   9.484   8.593   7.600  0.4738 -0.0187  0.0275
  339MOL0     C45650   9.343   8.550   7.636  0.9151 -0.1597  0.6584
  339MOL0     C45651   9.230   8.561   7.526 -0.0102 -0.0655 -0.2633
  339MOL0     C45652   9.091   8.538   7.587  0.2924 -0.2044 -0.3213
  339MOL0     C45653   8.985   8.568   7.473 -0.1556  0.1134  0.6464
  339MOL0     O45654   8.985   8.710   7.453  0.0432 -0.5336  0.2546
  339MOL0     C45655   8.855   8.759   7.444  0.3003 -0.7281  0.4518
  339MOL0     C45656   8.816   8.826   7.326 -0.6505 -0.0406  0.2559
  339MOL0     C45657   8.681   8.869   7.306 -0.8845 -0.0763 -0.3518
  339MOL0     C45658   8.647   8.944   7.179 -0.5393  0.3418  0.2379
  339MOL0     C45659   8.580   8.844   7.405  0.7623  0.5027  0.3866
  339MOL0     C45660   8.430   8.869   7.396 -0.1847 -0.2508  0.6553
  339MOL0     O45661   8.360   8.845   7.505  0.7588 -0.1369 -0.0753
  339MOL0     C45662   8.220   8.864   7.507 -0.0647  0.7164 -0.9710
  339MOL0     C45663   8.159   8.985   7.465  0.5895  0.5840  0.8299
  339MOL0     C45664   8.017   8.996   7.464  0.1142 -0.2098 -0.4034
  339MOL0     C45665   7.939   8.888   7.498 -0.5013 -0.4901 -0.2274
  339MOL0     O45666   7.802   8.894   7.494  0.3333 -0.3412 -0.3505
  339MOL0     C45667   7.756   8.923   7.628 -0.9484  1.2398 -0.1626
  339MOL0     C45668   7.604   8.942   7.618  0.1094 -0.7795 -0.0684
  339MOL0     C45669   7.544   8.976   7.760  0.3975  0.3624 -0.0702
  339MOL0     C45670   7.387   8.995   7.772  0.3582  1.3354 -0.0486
  339MOL0     C45671   7.333   9.041   7.913  0.7317 -0.2511  0.0404
  339MOL0     C45672   7.188   9.078   7.923  0.4162 -0.4234 -0.4558
  339MOL0     C45673   7.090   8.959   7.944 -0.4792 -0.3082 -0.0729
  339MOL0     C45674   7.054   8.917   8.087 -0.3553  0.0774  0.5901
  339MOL0    Cl45675   7.199   8.911   8.196 -0.6891  0.2103 -0.0302
  339MOL0     C45676   8.000   8.768   7.541  0.5073 -0.4455  0.3409
  339MOL0     C45677   8.139   8.757   7.543 -0.7115  0.0339 -0.4820
  339MOL0     O45678   8.387   8.922   7.289 -0.5389  0.2730  0.1349
  339MOL0     C45679   8.624   8.788   7.525  0.1309  0.1769 -0.7138
  339MOL0     C45680   8.761   8.743   7.544  0.3023  0.6705 -0.0597
  339MOL0     N45681   9.556   8.685   7.670  0.4037  0.2672  0.7925
  339MOL0     N45682   9.670   8.685   7.616  0.1698 -0.1179  0.0450
  339MOL0     C45683   9.380   7.692   7.723 -0.2263  0.0452 -1.4624
  339MOL0     C45684   9.253   7.683   7.780 -0.1341 -1.1077  0.8930
  339MOL0     C45685   8.894   7.667   8.029 -0.1057  0.4930  0.0643
  339MOL0     C45686   8.792   7.741   7.957 -0.0966  1.3894 -0.5979
  339MOL0     C45687   8.660   7.729   7.991 -0.2244  0.8917  0.5940
  339MOL0     C45688   8.623   7.645   8.093  1.8760 -0.0903  0.9427
  339MOL0     O45689   8.487   7.609   8.094  0.8937 -0.3004 -0.7368
  339MOL0     C45690   8.435   7.543   8.204  0.0718 -0.4854  0.1990
  339MOL0     C45691   8.284   7.570   8.213  0.4508  0.3379  0.1636
  339MOL0     C45692   8.215   7.465   8.317  0.0474  0.5575  0.4250
  339MOL0     C45693   8.061   7.460   8.312  0.0247 -0.2836 -0.4540
  339MOL0     C45694   8.011   7.597   8.332 -0.6470 -0.0082 -0.0489
  339MOL0     C45695   7.960   7.709   8.343 -0.0469 -0.0552  0.1327
  339MOL0     C45696   8.713   7.586   8.175 -0.2400 -0.2501 -0.0129
  339MOL0     C45697   8.846   7.604   8.137 -0.3765  0.7844 -0.2508
  339MOL0     H45698   9.253   7.983   7.947  0.0601  0.7981 -0.6662
  339MOL0     H45699   9.462   7.990   7.855  0.6405 -0.9038 -1.1431
  339MOL0     H45700   9.593   8.020   7.675 -1.1927  0.2006  2.7079
  339MOL0     H45701   9.663   7.932   7.809 -1.5569 -1.2739  0.1044
  339MOL0     H45702   9.812   7.812   7.638 -0.6851  0.3024  0.2528
  339MOL0     H45703   9.777   7.936   7.520 -0.6758  0.1909 -0.0707
  339MOL0     H45704   9.887   7.979   7.797  0.1964  1.1139  0.3797
  339MOL0     H45705   9.982   8.001   7.641  1.7953 -0.4860  2.6856
  339MOL0     H45706   9.749   8.171   7.732 -0.7187 -0.1415 -2.1609
  339MOL0     H45707   9.918   8.206   7.751 -2.4433  0.9459  1.2030
  339MOL0     H45708   9.949   8.185   7.497 -1.6066 -1.2288 -1.7943
  339MOL0     H45709   9.769   8.159   7.496  1.3042 -1.5035 -0.2290
  339MOL0     H45710   9.720   8.352   7.596  0.9256 -1.9680  3.3946
  339MOL0     H45711   9.889   8.395   7.637  2.0767 -0.6687 -0.7972
  339MOL0     H45712   9.942   8.428   7.391  0.9348 -0.5775  1.3098
  339MOL0     H45713   9.774   8.387   7.351  0.8910  0.9033 -1.4658
  339MOL0     H45714   9.788   8.635   7.334 -1.0703  0.4901 -0.9878
  339MOL0     H45715   9.884   8.639   7.475 -0.1357 -0.1647 -0.5529
  339MOL0     H45716   9.547   8.446   7.443 -0.0365  0.6948 -2.0474
  339MOL0     H45717   9.348   8.451   7.683  1.5017  0.6154  2.2934
  339MOL0     H45718   9.321   8.607   7.727 -0.7076  0.1183  0.1310
  339MOL0     H45719   9.250   8.488   7.448 -0.2600 -2.4529  1.7605
  339MOL0     H45720   9.242   8.663   7.488  2.0471  0.7788  2.3116
  339MOL0     H45721   9.079   8.593   7.681 -0.8667  0.0691 -0.6120
  339MOL0     H45722   9.084   8.429   7.595 -0.9110 -0.0262  1.8455
  339MOL0     H45723   8.887   8.525   7.495  1.0198 -2.9815  0.2875
  339MOL0     H45724   9.015   8.525   7.377 -0.7283  0.9787  0.0693
  339MOL0     H45725   8.885   8.844   7.244 -1.7581 -1.5462 -1.0715
  339MOL0     H45726   8.739   8.970   7.126  1.0887  1.4044  3.3307
  339MOL0     H45727   8.578   8.888   7.115 -0.9540  0.4092  0.6291
  339MOL0     H45728   8.600   9.036   7.212 -1.5872 -0.3207  0.6310
  339MOL0     H45729   8.224   9.072   7.453  0.7438  0.4460  0.6483
  339MOL0     H45730   7.961   9.088   7.445 -1.4312 -0.6120  1.7700
  339MOL0     H45731   7.782   8.846   7.702 -0.5027  0.5719 -0.9965
  339MOL0     H45732   7.796   9.015   7.672  1.0149  0.8993 -1.1159
  339MOL0     H45733   7.587   9.026   7.550  0.0535 -1.1713 -0.5378
  339MOL0     H45734   7.542   8.858   7.586  1.4420 -2.1182  0.7467
  339MOL0     H45735   7.589   9.067   7.802  2.1205 -1.2924  1.9384
  339MOL0     H45736   7.576   8.901   7.833 -0.3635 -1.0655 -1.1717
  339MOL0     H45737   7.359   9.068   7.695 -1.0961  0.1880 -0.6528
  339MOL0     H45738   7.341   8.902   7.738 -0.2594  1.3289  0.7555
  339MOL0     H45739   7.389   9.131   7.939  1.0231 -0.1024 -1.0522
  339MOL0     H45740   7.351   8.960   7.985 -0.1408 -1.2993 -0.8927
  339MOL0     H45741   7.181   9.141   8.012  3.4303  1.4339 -1.4063
  339MOL0     H45742   7.172   9.145   7.838  2.8100  0.4345 -0.3027
  339MOL0     H45743   7.126   8.869   7.893 -0.3606 -0.7733  0.8028
  339MOL0     H45744   7.005   8.986   7.881  0.7231  1.8551 -0.8575
  339MOL0     H45745   6.988   8.830   8.086 -1.4603  0.8295 -2.0564
  339MOL0     H45746   6.987   8.995   8.124  1.4526  1.3126  1.4261
  339MOL0     H45747   7.934   8.683   7.554 -1.4123  0.7904 -0.7718
  339MOL0     H45748   8.186   8.664   7.574 -0.9244 -0.1428 -0.6921
  339MOL0     H45749   8.561   8.776   7.613  2.1483  1.7074  1.0309
  339MOL0     H45750   8.790   8.695   7.637  1.7994  1.7632  0.0823
  339MOL0     H45751   9.415   7.625   7.645 -0.8214 -0.6004 -1.1852
  339MOL0     H45752   9.178   7.607   7.763 -1.6681  0.5455 -0.1612
  339MOL0     H45753   8.810   7.812   7.877 -0.6775  0.4212 -1.6056
  339MOL0     H45754   8.583   7.786   7.940  0.3125  0.9602 -0.1746
  339MOL0     H45755   8.454   7.436   8.191 -0.6510 -0.4288 -1.6116
  339MOL0     H45756   8.490   7.576   8.293  1.2175 -1.1369 -0.2442
  339MOL0     H45757   8.231   7.561   8.117  2.1134  2.8045 -1.0853
  339MOL0     H45758   8.262   7.672   8.245  1.9267  0.5216  0.6369
  339MOL0     H45759   8.240   7.494   8.420 -1.1178 -0.9372  1.1835
  339MOL0     H45760   8.256   7.367   8.293 -1.7585  0.5127 -3.1486
  339MOL0     H45761   8.018   7.397   8.390 -0.5155  0.1285 -0.4095
  339MOL0     H45762   8.034   7.425   8.212  0.5542 -0.4028 -0.5554
  339MOL0     H45763   7.895   7.793   8.350 -1.7472 -1.3085  0.1047
  339MOL0     H45764   8.689   7.529   8.264  0.3697  1.0589  1.0293
  339MOL0     H45765   8.924   7.555   8.194 -0.9753 -0.5395 -0.5185
  340MOL0     O45766   4.348   1.165   3.296 -0.1338 -0.3641 -0.2505
  340MOL0     C45767   4.404   1.124   3.396 -0.3909 -0.4825 -0.5681
  340MOL0     O45768   4.352   1.116   3.518 -0.2307  0.4642 -0.5374
  340MOL0     C45769   4.218   1.130   3.527  0.1186  0.2686  0.2445
  340MOL0     C45770   4.144   1.016   3.553 -0.7900  1.1637 -0.0391
  340MOL0     C45771   4.009   1.021   3.573  0.0159  0.3557 -0.2714
  340MOL0     C45772   3.945   1.144   3.577 -0.5376 -0.2895 -0.0279
  340MOL0     O45773   3.814   1.168   3.594  0.4179  0.4165  0.2875
  340MOL0     C45774   3.719   1.073   3.537  0.5930 -0.3696  0.3723
  340MOL0     C45775   3.571   1.116   3.549  0.5710  0.0046 -0.0104
  340MOL0     C45776   3.472   1.072   3.436 -0.1965 -0.4858  0.2578
  340MOL0     C45777   3.334   1.097   3.504  0.1078 -0.0455  0.1306
  340MOL0     C45778   3.222   1.010   3.439  0.1136 -0.2897  0.5227
  340MOL0     C45779   3.186   1.058   3.299 -0.0709  0.0606  0.4328
  340MOL0     C45780   3.271   0.984   3.194  0.0432  0.1284  0.0111
  340MOL0     C45781   3.212   0.997   3.058  0.0868  0.0689  0.5555
  340MOL0     N45782   3.123   1.119   3.042  0.2142 -0.2938 -0.6231
  340MOL0     C45783   2.986   1.123   3.036  0.2496 -0.5358  0.3768
  340MOL0     C45784   2.949   1.252   3.008 -0.6851 -0.6568 -0.6983
  340MOL0     C45785   2.830   1.335   2.982 -0.3453 -0.8466 -0.0157
  340MOL0     C45786   2.776   1.376   3.118 -0.0403  0.9522  0.4532
  340MOL0     C45787   2.715   1.515   3.109  0.9323  0.6252 -0.4020
  340MOL0     C45788   2.662   1.561   3.249 -0.5331 -0.6983  0.4049
  340MOL0     O45789   2.565   1.475   3.308  0.7656  0.1198 -0.6902
  340MOL0     C45790   2.439   1.463   3.254  0.1157  0.1289 -0.4921
  340MOL0     C45791   2.365   1.366   3.317 -0.3698 -0.7210 -0.0508
  340MOL0     C45792   2.233   1.343   3.282 -0.0459 -0.3377 -0.7613
  340MOL0     C45793   2.155   1.243   3.367 -0.2035 -0.6956  0.2270
  340MOL0     C45794   2.176   1.406   3.173 -0.3986 -0.3025 -0.4719
  340MOL0     C45795   2.042   1.384   3.125  0.7003  0.4445  0.0934
  340MOL0     O45796   2.015   1.447   3.010  0.2334  0.2320  0.2239
  340MOL0     C45797   1.904   1.417   2.932  0.2654  0.4765 -0.3822
  340MOL0     C45798   1.771   1.446   2.966 -0.0644  0.4847 -0.1144
  340MOL0     C45799   1.668   1.392   2.893  0.3831 -0.6611  0.3083
  340MOL0     C45800   1.697   1.299   2.784  0.7199 -1.0154 -0.4169
  340MOL0     O45801   1.594   1.244   2.711  0.0451 -0.3666  0.1930
  340MOL0     C45802   1.520   1.336   2.622 -0.0549  0.3430  0.0836
  340MOL0     C45803   1.414   1.251   2.553 -0.3540 -0.1068  0.5153
  340MOL0     C45804   1.311   1.335   2.472  0.3299 -0.1797  0.5463
  340MOL0     C45805   1.211   1.239   2.411 -0.1380 -0.6867 -0.4931
  340MOL0     C45806   1.114   1.306   2.322  0.2611 -0.2470 -0.1329
  340MOL0     C45807   1.024   1.206   2.248 -0.1569  0.4517  0.0849
  340MOL0     C45808   0.903   1.165   2.336  0.6507 -0.1196 -0.3965
  340MOL0     C45809   0.825   1.048   2.276  0.1427  0.6985  0.1037
  340MOL0    Cl45810   0.746   1.094   2.126  0.2574 -0.4646  0.1823
  340MOL0     C45811   1.829   1.278   2.747  0.1842 -0.3250 -0.2250
  340MOL0     C45812   1.925   1.342   2.816  0.1378  0.1451  0.2359
  340MOL0     O45813   1.968   1.304   3.176 -0.3980 -0.1629 -0.4720
  340MOL0     C45814   2.257   1.495   3.099  0.2927  0.2069 -0.1451
  340MOL0     C45815   2.381   1.536   3.143 -0.9124 -0.3194  0.1149
  340MOL0     N45816   3.070   1.321   2.997 -0.3296 -1.0097  0.0306
  340MOL0     N45817   3.170   1.247   3.014 -0.1172 -0.2666  0.1294
  340MOL0     C45818   4.022   1.259   3.554  1.0375  0.1743  0.1583
  340MOL0     C45819   4.159   1.246   3.524  0.2934 -0.1404  0.5866
  340MOL0     C45820   4.550   1.096   3.384 -0.7376 -0.4718 -0.4225
  340MOL0     C45821   4.617   1.029   3.490  0.4362 -0.3058 -0.1557
  340MOL0     C45822   4.751   0.996   3.485 -0.3374  0.0926 -0.3757
  340MOL0     C45823   4.828   1.020   3.367 -0.0831  0.4083 -0.8417
  340MOL0     O45824   4.961   0.991   3.375  0.3925  0.0654 -0.0606
  340MOL0     C45825   5.051   1.029   3.274 -0.0459  0.2886  0.0369
  340MOL0     C45826   5.189   1.033   3.353 -0.4892  0.0919  0.1746
  340MOL0     C45827   5.308   1.096   3.264  0.0049 -0.3369  0.4737
  340MOL0     C45828   5.346   1.013   3.141 -0.3510  0.4956 -0.3190
  340MOL0     C45829   5.385   0.874   3.182 -0.8988  0.6440 -0.5368
  340MOL0     C45830   5.418   0.757   3.215  0.4540 -0.3490 -0.9884
  340MOL0     C45831   4.756   1.076   3.255  1.1729  0.6866 -0.1724
  340MOL0     C45832   4.617   1.101   3.260 -0.2762  0.4013 -0.2608
  340MOL0     H45833   4.208   0.929   3.557  0.3807  1.7675 -3.1985
  340MOL0     H45834   3.960   0.925   3.585  1.2887 -0.0930  1.6953
  340MOL0     H45835   3.742   1.070   3.430  1.6740 -2.3629  0.6193
  340MOL0     H45836   3.733   0.974   3.582 -1.0244 -1.1849 -0.8333
  340MOL0     H45837   3.535   1.080   3.645 -0.1631 -0.9559 -0.6238
  340MOL0     H45838   3.571   1.226   3.550 -2.7033  0.1386  1.9399
  340MOL0     H45839   3.488   1.146   3.357  0.6604  1.1267  1.8613
  340MOL0     H45840   3.477   0.966   3.407 -2.7390 -0.0885 -2.0706
  340MOL0     H45841   3.337   1.062   3.608  1.9252 -2.2220 -0.5537
  340MOL0     H45842   3.306   1.202   3.502 -0.7680 -0.2624 -1.7088
  340MOL0     H45843   3.250   0.904   3.434 -0.1523 -0.3020 -2.8663
  340MOL0     H45844   3.132   1.022   3.502  0.4358 -1.6657  1.3017
  340MOL0     H45845   3.086   1.019   3.279  0.9552 -2.0008 -1.0006
  340MOL0     H45846   3.191   1.167   3.300 -0.3953  0.0753  0.6954
  340MOL0     H45847   3.375   1.018   3.195  0.1775 -0.2863  0.8007
  340MOL0     H45848   3.275   0.877   3.218 -0.8697  0.0068 -0.3421
  340MOL0     H45849   3.149   0.911   3.030  0.9633 -0.1297 -0.9420
  340MOL0     H45850   3.288   0.999   2.979 -0.1490  0.8752  0.3384
  340MOL0     H45851   2.919   1.041   3.058  0.0983 -0.2404  1.0137
  340MOL0     H45852   2.843   1.428   2.927 -1.8571  1.7734  3.6346
  340MOL0     H45853   2.760   1.272   2.926 -0.9186 -2.8205  2.6669
  340MOL0     H45854   2.853   1.378   3.196  1.9855  1.6263 -1.4681
  340MOL0     H45855   2.695   1.306   3.143  0.4443  0.7461  1.5079
  340MOL0     H45856   2.634   1.507   3.035  1.4238 -1.4714 -0.7744
  340MOL0     H45857   2.798   1.571   3.065 -0.2149  2.2102 -0.6567
  340MOL0     H45858   2.614   1.658   3.233  1.1868 -0.2709 -3.0175
  340MOL0     H45859   2.753   1.572   3.308 -0.2840  2.3526 -0.3556
  340MOL0     H45860   2.400   1.314   3.406 -1.9614 -1.1221  0.3764
  340MOL0     H45861   2.219   1.209   3.450 -1.3069  0.0368  1.4155
  340MOL0     H45862   2.058   1.274   3.407 -2.2726 -2.2896 -3.2153
  340MOL0     H45863   2.134   1.158   3.303 -0.7303 -0.1816 -0.2857
  340MOL0     H45864   1.738   1.503   3.052 -1.7099 -1.7206  0.8244
  340MOL0     H45865   1.564   1.414   2.915 -0.1089 -0.9686 -1.5516
  340MOL0     H45866   1.470   1.407   2.688 -0.0403 -0.4465  0.9655
  340MOL0     H45867   1.583   1.382   2.545  0.8232 -0.8518  0.0520
  340MOL0     H45868   1.458   1.176   2.487  2.8166 -0.1786  2.5264
  340MOL0     H45869   1.362   1.193   2.629 -0.8334 -0.7928 -0.3120
  340MOL0     H45870   1.349   1.383   2.382  0.4328 -0.2235  0.5672
  340MOL0     H45871   1.267   1.402   2.547 -0.0510 -0.5511  0.6612
  340MOL0     H45872   1.265   1.166   2.351 -0.9614 -0.1880 -1.8896
  340MOL0     H45873   1.156   1.180   2.485  0.1264 -0.7600 -0.3581
  340MOL0     H45874   1.175   1.343   2.239  2.2904 -1.2131  0.8526
  340MOL0     H45875   1.057   1.384   2.372  1.6154  2.2457 -2.1864
  340MOL0     H45876   0.997   1.260   2.157  0.2434  2.5700  1.1431
  340MOL0     H45877   1.082   1.117   2.222  1.5195  2.0091 -1.9076
  340MOL0     H45878   0.839   1.254   2.340 -3.1451 -2.6643  2.1024
  340MOL0     H45879   0.928   1.134   2.438 -2.6572 -4.5878 -0.6943
  340MOL0     H45880   0.754   1.014   2.353 -1.5348  1.1041 -1.2016
  340MOL0     H45881   0.898   0.969   2.260 -0.5002  0.4562 -1.8664
  340MOL0     H45882   1.856   1.215   2.663 -3.0947 -0.6189 -1.2257
  340MOL0     H45883   2.027   1.320   2.784  0.7948  1.4935  1.3144
  340MOL0     H45884   2.215   1.543   3.012 -0.8524 -1.0810 -0.3307
  340MOL0     H45885   2.437   1.622   3.109  3.3893 -1.7185  2.8337
  340MOL0     H45886   3.967   1.352   3.550 -0.9040 -0.9865 -1.9657
  340MOL0     H45887   4.210   1.341   3.512 -1.4455  1.1777  2.7613
  340MOL0     H45888   4.559   1.009   3.580 -0.1887  0.6331 -0.3297
  340MOL0     H45889   4.804   0.958   3.572  1.6486 -2.1178 -2.3911
  340MOL0     H45890   5.044   0.964   3.187 -1.6335  3.8000 -2.7304
  340MOL0     H45891   5.026   1.129   3.239  1.2606  0.4823 -0.3640
  340MOL0     H45892   5.222   0.929   3.363  1.1088  0.4387 -0.9721
  340MOL0     H45893   5.186   1.083   3.450  2.5109  1.0799 -0.1291
  340MOL0     H45894   5.394   1.117   3.328  0.0818 -0.4819  0.4183
  340MOL0     H45895   5.262   1.191   3.235 -2.0380 -0.3731  3.2196
  340MOL0     H45896   5.430   1.070   3.100  0.1035  2.2231  2.7734
  340MOL0     H45897   5.267   0.997   3.067  0.7107  1.9423 -1.8391
  340MOL0     H45898   5.444   0.663   3.259 -0.7681  0.2422  1.1367
  340MOL0     H45899   4.802   1.098   3.160  2.0674 -0.7595 -0.1084
  340MOL0     H45900   4.567   1.149   3.177 -1.7607  0.2632  0.5259
  341MOL0     O45901   9.562   7.021   1.547 -0.5637  0.0222 -0.1796
  341MOL0     C45902   9.633   6.961   1.627  0.0850  0.3063 -0.0862
  341MOL0     O45903   9.607   6.927   1.750  0.4594 -0.2609 -0.1217
  341MOL0     C45904   9.480   6.947   1.807 -0.0632 -0.1272  0.4735
  341MOL0     C45905   9.430   6.850   1.889  0.7693 -0.7371  0.0747
  341MOL0     C45906   9.309   6.866   1.960 -0.1742  0.2908  0.2189
  341MOL0     C45907   9.240   6.985   1.942  0.0976  0.2340  0.0122
  341MOL0     O45908   9.129   7.016   2.018  0.1985 -0.3172 -0.2501
  341MOL0     C45909   9.021   6.922   2.013  0.3012  0.8046  0.2266
  341MOL0     C45910   8.888   6.979   2.053 -0.9690  0.2811  0.1006
  341MOL0     C45911   8.768   6.895   2.005  0.3484 -0.7461 -0.5793
  341MOL0     C45912   8.639   6.961   2.054  0.2334 -0.3776  0.3788
  341MOL0     C45913   8.517   6.868   2.033  0.1978  0.4382 -0.1201
  341MOL0     C45914   8.401   6.929   2.125 -1.1207 -0.0196  0.4015
  341MOL0     C45915   8.266   6.869   2.100  0.1241 -1.1250 -0.1343
  341MOL0     C45916   8.180   6.907   2.221  0.2731 -0.3637  0.7578
  341MOL0     N45917   8.038   6.876   2.184 -0.6996 -0.3702 -0.1230
  341MOL0     C45918   7.933   6.935   2.241  0.2164 -0.9116 -0.4420
  341MOL0     C45919   7.823   6.868   2.195 -0.1718 -0.4914  0.3721
  341MOL0     C45920   7.686   6.899   2.238 -0.3298  1.1818  0.3299
  341MOL0     C45921   7.574   6.801   2.191  1.0449  0.1935 -0.1585
  341MOL0     C45922   7.609   6.651   2.229 -0.1628 -0.6661 -0.1719
  341MOL0     C45923   7.507   6.555   2.177  0.3072  0.0779  0.3036
  341MOL0     O45924   7.383   6.587   2.244 -0.2256 -0.0431 -0.7528
  341MOL0     C45925   7.269   6.550   2.188  0.8293  0.2583  0.9640
  341MOL0     C45926   7.257   6.447   2.086  0.2496  0.4711  0.2066
  341MOL0     C45927   7.138   6.403   2.032  0.2652 -0.5554  0.3364
  341MOL0     C45928   7.143   6.285   1.932 -0.3780 -0.3081 -0.5640
  341MOL0     C45929   7.018   6.457   2.078 -0.2125 -0.2778 -0.4707
  341MOL0     C45930   6.886   6.418   2.030  0.3588 -0.4017  0.2087
  341MOL0     O45931   6.773   6.484   2.088  0.0909 -0.1233  0.3842
  341MOL0     C45932   6.640   6.452   2.069 -0.0743  0.3871 -1.6715
  341MOL0     C45933   6.589   6.328   2.018 -0.6637 -1.2144  0.2656
  341MOL0     C45934   6.447   6.316   2.011  0.1085  0.9727  0.8125
  341MOL0     C45935   6.362   6.409   2.058  0.5223 -0.2261 -0.7068
  341MOL0     O45936   6.218   6.397   2.055 -0.0834 -0.2780 -0.2629
  341MOL0     C45937   6.172   6.267   2.038  0.5969 -0.4426 -0.5774
  341MOL0     C45938   6.023   6.275   2.076 -0.3730  0.7564 -0.4815
  341MOL0     C45939   5.933   6.352   1.989  1.1084 -0.3033  0.6866
  341MOL0     C45940   5.796   6.355   2.055 -0.4958  0.3591  0.2535
  341MOL0     C45941   5.697   6.431   1.965 -0.7620 -0.7528 -0.2488
  341MOL0     C45942   5.567   6.436   2.046 -0.7106 -0.7746 -0.5307
  341MOL0     C45943   5.462   6.494   1.958  0.0791 -0.0374  0.3456
  341MOL0     C45944   5.333   6.517   2.034 -0.5061 -0.5842  0.3372
  341MOL0    Cl45945   5.213   6.525   1.905  0.0548 -0.3463  0.5594
  341MOL0     C45946   6.416   6.519   2.116 -0.7689 -0.4905  0.0135
  341MOL0     C45947   6.553   6.541   2.124 -0.5758 -0.0206 -0.2273
  341MOL0     O45948   6.885   6.320   1.950  0.1036 -0.1006 -1.2930
  341MOL0     C45949   7.024   6.574   2.164  0.4930  0.2518 -0.4531
  341MOL0     C45950   7.149   6.617   2.217  0.8054 -1.3860  0.2271
  341MOL0     N45951   7.869   6.777   2.100  0.5498  0.9162 -0.3590
  341MOL0     N45952   7.996   6.778   2.096  0.3133 -0.1114  0.1266
  341MOL0     C45953   9.283   7.088   1.865  0.0209 -0.2072 -0.4830
  341MOL0     C45954   9.404   7.074   1.789 -0.2901  0.3457  0.2357
  341MOL0     C45955   9.763   6.924   1.560 -0.1305  0.1897  0.2586
  341MOL0     C45956   9.777   6.958   1.418 -0.3361 -0.0429  0.1911
  341MOL0     C45957   9.892   6.926   1.351 -0.5947 -0.0422 -1.0956
  341MOL0     C45958   9.997   6.857   1.417  0.2518 -0.9177 -0.1284
  341MOL0     O45959  10.116   6.837   1.355 -0.0530 -0.9445  0.4908
  341MOL0     C45960  10.107   6.776   1.228  0.0656  0.7783 -0.1246
  341MOL0     C45961  10.213   6.859   1.146 -0.6213  0.5690 -0.4890
  341MOL0     C45962  10.364   6.822   1.165  0.8113  1.0924 -0.7682
  341MOL0     C45963  10.454   6.898   1.065  0.0905  0.2842  0.4712
  341MOL0     C45964  10.456   6.823   0.941  0.5204 -0.0219  0.3029
  341MOL0     C45965  10.468   6.759   0.844  0.0199  0.3575 -0.3508
  341MOL0     C45966   9.980   6.823   1.554  0.0815  0.2984 -0.1904
  341MOL0     C45967   9.871   6.860   1.630  0.0404  0.1592  0.2189
  341MOL0     H45968   9.491   6.761   1.884  0.6731 -0.7538 -1.8014
  341MOL0     H45969   9.268   6.789   2.024  0.0884  1.8398  2.3366
  341MOL0     H45970   9.016   6.884   1.910  0.8632  2.8782 -0.6163
  341MOL0     H45971   9.039   6.841   2.084 -0.5574 -0.5686 -1.0718
  341MOL0     H45972   8.886   7.000   2.160 -1.1029 -0.6116  0.2819
  341MOL0     H45973   8.872   7.076   2.004  1.0730 -0.1183 -1.4822
  341MOL0     H45974   8.768   6.885   1.896 -2.1084 -0.5273 -0.6497
  341MOL0     H45975   8.778   6.795   2.050 -0.1344 -0.7372 -0.4452
  341MOL0     H45976   8.650   6.984   2.160  1.1425  2.3951 -0.2317
  341MOL0     H45977   8.625   7.058   2.005  0.2167 -0.5832 -0.0355
  341MOL0     H45978   8.484   6.864   1.929 -1.0165  0.4140  0.2470
  341MOL0     H45979   8.548   6.769   2.068  3.4073  0.8918 -1.3874
  341MOL0     H45980   8.423   6.909   2.230  1.5828  0.6011  0.0520
  341MOL0     H45981   8.403   7.038   2.114  3.1399 -0.1105 -2.4442
  341MOL0     H45982   8.227   6.917   2.009 -0.0830 -0.8914  0.0767
  341MOL0     H45983   8.264   6.761   2.085  1.6339 -1.0525 -1.0421
  341MOL0     H45984   8.192   7.016   2.230  0.5602 -0.4168  1.0439
  341MOL0     H45985   8.218   6.849   2.306 -1.3916 -0.8383  1.2194
  341MOL0     H45986   7.952   7.009   2.318  3.0501 -2.6978  0.7602
  341MOL0     H45987   7.695   6.899   2.347  4.8893  2.0226  0.1341
  341MOL0     H45988   7.657   7.000   2.206 -2.6529 -0.0687 -1.8832
  341MOL0     H45989   7.566   6.801   2.082  1.4065 -0.2022 -0.1909
  341MOL0     H45990   7.483   6.845   2.232  0.1674  0.2277 -2.0338
  341MOL0     H45991   7.601   6.647   2.338 -1.2713 -0.8148 -0.2444
  341MOL0     H45992   7.703   6.609   2.193  1.7399  3.1315 -0.1421
  341MOL0     H45993   7.537   6.451   2.194 -0.8913 -0.9033 -2.8576
  341MOL0     H45994   7.495   6.561   2.069  0.2234 -0.8488  0.2516
  341MOL0     H45995   7.340   6.379   2.074 -0.2571  0.0790 -1.2488
  341MOL0     H45996   7.093   6.198   1.975  0.2944  0.5323  2.1468
  341MOL0     H45997   7.093   6.314   1.839  0.9052  1.6734 -0.6980
  341MOL0     H45998   7.248   6.257   1.917  0.3602  0.6649  2.2018
  341MOL0     H45999   6.653   6.248   1.981 -1.1442 -0.9829 -1.1362
  341MOL0     H46000   6.412   6.223   1.967  0.8522  0.6401  0.9045
  341MOL0     H46001   6.179   6.237   1.933 -1.1128  0.4421 -0.9733
  341MOL0     H46002   6.230   6.200   2.102  0.2010  0.0727  0.3421
  341MOL0     H46003   5.975   6.177   2.084 -0.5944  0.9552  0.8250
  341MOL0     H46004   6.017   6.314   2.178  1.3411 -2.0020  0.8056
  341MOL0     H46005   5.942   6.290   1.900 -1.6214  0.7435 -0.4453
  341MOL0     H46006   5.972   6.453   1.975  0.5271  0.2725  2.8016
  341MOL0     H46007   5.752   6.255   2.064 -4.4558  2.0869  3.1251
  341MOL0     H46008   5.802   6.407   2.152 -1.7682  0.9455  0.0383
  341MOL0     H46009   5.684   6.398   1.862 -2.5209  1.9951 -1.0071
  341MOL0     H46010   5.747   6.528   1.960  3.4355 -2.6269  0.5672
  341MOL0     H46011   5.543   6.332   2.070  2.6503 -2.0677 -2.1132
  341MOL0     H46012   5.577   6.500   2.135 -2.4809 -1.1292 -0.0374
  341MOL0     H46013   5.454   6.428   1.871  3.9479  0.2485 -0.4365
  341MOL0     H46014   5.489   6.592   1.918 -0.3301  0.3736  1.0595
  341MOL0     H46015   5.350   6.614   2.083  0.2667 -1.0439  1.0018
  341MOL0     H46016   5.306   6.447   2.113  0.4098 -0.5406  0.7039
  341MOL0     H46017   6.346   6.597   2.143 -0.3527  0.5686 -1.8002
  341MOL0     H46018   6.597   6.631   2.166 -1.6523  0.3788  0.0781
  341MOL0     H46019   6.930   6.617   2.195 -0.2881 -2.3033  1.0255
  341MOL0     H46020   7.157   6.696   2.290  1.2388 -1.3770  0.1724
  341MOL0     H46021   9.226   7.179   1.875  1.6931  0.6495  2.4136
  341MOL0     H46022   9.438   7.163   1.737  0.1682  0.5345  0.8457
  341MOL0     H46023   9.691   6.984   1.356 -0.4409 -1.8288 -0.4980
  341MOL0     H46024   9.889   6.943   1.244 -0.1802  0.2161 -1.0684
  341MOL0     H46025  10.134   6.670   1.225  0.4053  0.6881  2.8082
  341MOL0     H46026  10.011   6.793   1.180  0.6571  1.4449 -1.1067
  341MOL0     H46027  10.201   6.967   1.161 -2.3207  0.6222 -1.9966
  341MOL0     H46028  10.201   6.846   1.039  1.5509  0.2713 -0.7540
  341MOL0     H46029  10.383   6.715   1.153 -2.4829  0.4572 -1.3750
  341MOL0     H46030  10.399   6.860   1.261 -0.3556  2.6678 -0.9175
  341MOL0     H46031  10.553   6.896   1.109  0.0303 -0.3845  0.5807
  341MOL0     H46032  10.430   7.003   1.046  2.0051  0.7476  0.4165
  341MOL0     H46033  10.489   6.691   0.764  0.6629 -1.5537  1.3644
  341MOL0     H46034  10.058   6.776   1.614 -0.0513  1.4371  0.9206
  341MOL0     H46035   9.863   6.850   1.738  1.0873  1.3411  0.4178
  342MOL0     O46036   8.604   5.136   1.946 -0.4122  0.2360  0.0794
  342MOL0     C46037   8.592   5.258   1.907 -0.6546 -0.3799 -0.6740
  342MOL0     O46038   8.474   5.317   1.878 -0.4782  0.4365  0.0008
  342MOL0     C46039   8.367   5.236   1.877  0.4269 -0.0663 -1.1272
  342MOL0     C46040   8.254   5.293   1.935 -1.0717  0.2643  0.3731
  342MOL0     C46041   8.132   5.225   1.918  0.3512  0.7042 -0.0222
  342MOL0     C46042   8.125   5.094   1.860 -0.9412  0.0653  0.7241
  342MOL0     O46043   8.001   5.032   1.840 -1.0464  0.3910 -0.9244
  342MOL0     C46044   7.991   4.890   1.820 -0.5803  0.6978  0.3319
  342MOL0     C46045   7.888   4.865   1.718  0.2969  0.0308  0.1484
  342MOL0     C46046   7.885   4.716   1.661  0.0065  0.8148 -0.7001
  342MOL0     C46047   7.757   4.685   1.585 -0.5169 -0.1280 -0.3627
  342MOL0     C46048   7.748   4.535   1.553  0.4179 -0.3733 -0.1553
  342MOL0     C46049   7.625   4.514   1.462  0.0615 -0.0394 -0.3411
  342MOL0     C46050   7.601   4.361   1.444 -0.2269  0.4380 -0.1317
  342MOL0     C46051   7.477   4.340   1.358 -0.9768 -0.6445 -0.0523
  342MOL0     N46052   7.425   4.202   1.343  0.1023 -0.7191  0.5240
  342MOL0     C46053   7.344   4.153   1.440  0.0530  0.4841  0.1773
  342MOL0     C46054   7.277   4.046   1.375 -0.1507 -1.4456  0.9102
  342MOL0     C46055   7.181   3.954   1.448 -0.2393 -0.3176  0.5869
  342MOL0     C46056   7.037   4.015   1.438 -0.5820 -0.0027 -0.3578
  342MOL0     C46057   6.937   3.912   1.492 -0.0635  0.0177 -0.0087
  342MOL0     C46058   6.939   3.893   1.645 -0.2711 -0.3731  0.8416
  342MOL0     O46059   6.922   4.028   1.701 -0.2806  0.5883  0.0887
  342MOL0     C46060   6.798   4.072   1.748 -0.0600 -0.1826  0.1138
  342MOL0     C46061   6.803   4.178   1.844  0.4855 -0.2255 -0.4234
  342MOL0     C46062   6.684   4.235   1.895 -0.2659  0.0761  0.2099
  342MOL0     C46063   6.710   4.346   2.002 -1.3564 -0.4386  0.8501
  342MOL0     C46064   6.558   4.173   1.868 -0.1468 -0.1355 -0.5206
  342MOL0     C46065   6.430   4.203   1.938 -0.7856  0.0603  0.0802
  342MOL0     O46066   6.342   4.098   1.960  0.0080 -0.3853  0.6340
  342MOL0     C46067   6.209   4.123   1.993 -0.7241  0.5747 -0.3963
  342MOL0     C46068   6.120   4.208   1.929 -0.3112 -0.3120  0.8805
  342MOL0     C46069   5.988   4.231   1.968 -0.3002 -0.8983 -0.3441
  342MOL0     C46070   5.947   4.172   2.089 -0.3574 -0.8188 -0.5554
  342MOL0     O46071   5.822   4.204   2.131 -0.6518  0.0623 -0.1250
  342MOL0     C46072   5.808   4.243   2.263  0.3403  0.0820 -0.1040
  342MOL0     C46073   5.732   4.372   2.254  0.4439  1.2272  0.4350
  342MOL0     C46074   5.719   4.426   2.389 -0.2450 -0.0291 -0.3849
  342MOL0     C46075   5.670   4.571   2.384  1.2560 -0.7024  0.5158
  342MOL0     C46076   5.650   4.641   2.519 -0.0937  0.3315  0.4826
  342MOL0     C46077   5.591   4.782   2.497  0.9626 -0.2241 -0.0617
  342MOL0     C46078   5.544   4.843   2.631 -0.4720 -0.5396  0.3143
  342MOL0     C46079   5.494   4.981   2.626  0.2159  0.0244 -0.3171
  342MOL0    Cl46080   5.384   5.033   2.491 -0.2131  0.0126  0.2403
  342MOL0     C46081   6.029   4.076   2.155  0.3548 -0.7411  0.1059
  342MOL0     C46082   6.159   4.056   2.106  0.6089  0.9973 -1.1625
  342MOL0     O46083   6.425   4.316   1.990 -0.0958  0.6745 -0.0589
  342MOL0     C46084   6.562   4.069   1.773 -0.2222  0.3751  0.7914
  342MOL0     C46085   6.676   4.028   1.702  0.1446  0.9536 -0.6955
  342MOL0     N46086   7.319   4.045   1.245  0.3639  0.0657 -0.3107
  342MOL0     N46087   7.412   4.132   1.229  0.2455  0.1124  0.5770
  342MOL0     C46088   8.237   5.051   1.799  0.1982  0.4953 -0.5123
  342MOL0     C46089   8.356   5.116   1.809  0.0408 -0.2446 -0.0187
  342MOL0     C46090   8.721   5.335   1.893 -0.0168  0.1985  0.7784
  342MOL0     C46091   8.851   5.288   1.914  0.1796  0.5091 -1.1825
  342MOL0     C46092   8.960   5.371   1.921  0.2779  0.6353 -0.2641
  342MOL0     C46093   8.944   5.512   1.902 -0.3811  0.2797 -0.5418
  342MOL0     O46094   9.033   5.609   1.905 -0.3231  0.1336 -0.1628
  342MOL0     C46095   9.168   5.572   1.936 -0.6510 -0.2397  0.4129
  342MOL0     C46096   9.255   5.691   1.995  0.3871  0.2476  0.0805
  342MOL0     C46097   9.307   5.778   1.877  0.2035 -0.8166  0.1905
  342MOL0     C46098   9.325   5.714   1.730 -0.5671  0.0415  0.0271
  342MOL0     C46099   9.396   5.824   1.661 -0.5451  0.4855  0.3363
  342MOL0     C46100   9.463   5.914   1.609  0.0093  0.2386 -0.7349
  342MOL0     C46101   8.819   5.553   1.877  0.3584  0.8476  0.1766
  342MOL0     C46102   8.709   5.472   1.870  0.0759  0.1088  0.0173
  342MOL0     H46103   8.251   5.392   1.980 -1.3304  0.0490  0.8350
  342MOL0     H46104   8.043   5.257   1.971 -0.0994 -0.2769 -0.1683
  342MOL0     H46105   8.078   4.832   1.787 -1.6275 -0.9198  0.3398
  342MOL0     H46106   7.957   4.846   1.914  1.3709 -0.0073  0.7702
  342MOL0     H46107   7.792   4.889   1.766  0.6686  1.9238  0.0095
  342MOL0     H46108   7.899   4.932   1.633 -2.3097 -0.1137 -0.3846
  342MOL0     H46109   7.973   4.697   1.598  0.2914  0.1689 -0.1102
  342MOL0     H46110   7.888   4.644   1.743 -2.7827  0.8846 -0.4378
  342MOL0     H46111   7.665   4.701   1.640 -0.7837 -1.1042 -0.5162
  342MOL0     H46112   7.758   4.747   1.494  1.6491  2.9859  1.5786
  342MOL0     H46113   7.843   4.505   1.507  1.5267  0.7597  1.2523
  342MOL0     H46114   7.731   4.474   1.642 -1.6169 -3.6267 -2.5816
  342MOL0     H46115   7.537   4.551   1.514  0.6404 -1.4151  1.7528
  342MOL0     H46116   7.637   4.565   1.366  0.9802  0.8022  0.2033
  342MOL0     H46117   7.685   4.320   1.387 -0.1648  1.4534 -0.7960
  342MOL0     H46118   7.594   4.314   1.542 -0.6849 -0.0506 -0.3889
  342MOL0     H46119   7.487   4.394   1.263  0.0267  0.1980  0.5132
  342MOL0     H46120   7.397   4.395   1.409 -0.6131 -0.5826  0.4583
  342MOL0     H46121   7.331   4.190   1.541  0.1024  0.5528  0.1585
  342MOL0     H46122   7.179   3.856   1.400 -1.9235 -0.1780  0.2978
  342MOL0     H46123   7.217   3.941   1.550 -0.8259  2.5965  1.2580
  342MOL0     H46124   7.014   4.037   1.334 -0.8719 -1.1013 -0.5365
  342MOL0     H46125   7.039   4.110   1.493  1.1633 -0.1101 -0.1966
  342MOL0     H46126   6.960   3.815   1.448 -1.6369 -0.2627 -0.2540
  342MOL0     H46127   6.839   3.951   1.462 -0.0613 -0.5189 -0.7345
  342MOL0     H46128   7.034   3.846   1.670  0.9263  0.9143 -1.0346
  342MOL0     H46129   6.858   3.824   1.671 -1.0002 -0.6365 -1.9032
  342MOL0     H46130   6.895   4.208   1.892  2.1819 -1.3197 -2.8021
  342MOL0     H46131   6.804   4.395   1.976 -0.2809 -3.1373 -0.7144
  342MOL0     H46132   6.637   4.427   1.994 -0.9238 -0.2037 -1.1567
  342MOL0     H46133   6.727   4.312   2.105  1.9380  0.0838  0.5964
  342MOL0     H46134   6.163   4.261   1.844  1.0176 -2.0137  0.4440
  342MOL0     H46135   5.916   4.288   1.910  0.2864  2.2251  1.7481
  342MOL0     H46136   5.758   4.164   2.320 -1.6647 -0.1942 -2.0951
  342MOL0     H46137   5.899   4.271   2.318 -0.5704 -0.5539  1.8362
  342MOL0     H46138   5.800   4.433   2.194 -0.4240 -0.0859 -2.0088
  342MOL0     H46139   5.640   4.370   2.196  1.6400  1.0502 -1.5583
  342MOL0     H46140   5.805   4.413   2.455 -1.9073 -1.0970  1.6675
  342MOL0     H46141   5.644   4.360   2.434 -0.1879 -1.6221 -2.4659
  342MOL0     H46142   5.729   4.634   2.317 -1.3914  0.8085 -0.5207
  342MOL0     H46143   5.570   4.576   2.342  1.4353 -1.3134 -0.0083
  342MOL0     H46144   5.750   4.665   2.557  0.0046  4.0244 -1.6068
  342MOL0     H46145   5.592   4.579   2.587  1.1041  0.2908  1.5268
  342MOL0     H46146   5.666   4.851   2.458  0.2091 -0.1620 -1.4853
  342MOL0     H46147   5.510   4.780   2.423  0.3371  4.2554  0.1752
  342MOL0     H46148   5.621   4.828   2.706 -1.8627 -0.7149  1.7664
  342MOL0     H46149   5.458   4.782   2.660 -2.4932  2.0255  0.1104
  342MOL0     H46150   5.579   5.049   2.640  1.2640 -1.5524  1.5178
  342MOL0     H46151   5.432   4.988   2.716 -0.5568 -1.7485 -0.6601
  342MOL0     H46152   6.000   4.025   2.246 -0.9694  0.7259  0.5614
  342MOL0     H46153   6.212   3.978   2.161  0.0034 -0.1265 -2.1278
  342MOL0     H46154   6.464   4.033   1.745 -1.4143  1.5916  3.1145
  342MOL0     H46155   6.679   3.949   1.628 -2.2897 -2.0034  2.0679
  342MOL0     H46156   8.220   4.967   1.732  1.3880 -0.0534 -0.1532
  342MOL0     H46157   8.444   5.081   1.757  1.1095  1.1261  0.8104
  342MOL0     H46158   8.861   5.182   1.936  2.4085  0.6584 -1.2080
  342MOL0     H46159   9.056   5.323   1.936  0.9395  1.7834 -0.6906
  342MOL0     H46160   9.165   5.497   2.016  1.0668 -0.6091  0.1507
  342MOL0     H46161   9.211   5.523   1.848 -1.4261 -1.2556  0.5672
  342MOL0     H46162   9.344   5.645   2.039  1.0266  1.1828 -0.2090
  342MOL0     H46163   9.202   5.744   2.075  1.2193 -1.3444  1.7371
  342MOL0     H46164   9.403   5.815   1.912  0.5641 -0.6422 -0.9369
  342MOL0     H46165   9.244   5.867   1.866  0.4803 -0.6531 -0.0825
  342MOL0     H46166   9.234   5.686   1.676  0.7130 -2.2716 -1.0840
  342MOL0     H46167   9.380   5.621   1.741  1.0967  0.7731 -1.5587
  342MOL0     H46168   9.528   5.996   1.587 -0.5280  1.2351  1.1937
  342MOL0     H46169   8.813   5.661   1.870  0.2325  0.7182 -3.5853
  342MOL0     H46170   8.615   5.514   1.837 -0.7809  0.2391  2.4331
  343MOL0     O46171   3.349   3.271   1.826  0.5704 -0.3650  0.5727
  343MOL0     C46172   3.321   3.326   1.934  0.0951  0.2745 -0.6382
  343MOL0     O46173   3.195   3.371   1.974 -0.2341  0.9982  0.4528
  343MOL0     C46174   3.094   3.357   1.884 -0.2176  0.9963 -0.9645
  343MOL0     C46175   3.033   3.474   1.846 -0.2973 -1.1303  0.4229
  343MOL0     C46176   2.934   3.468   1.748  0.5358 -0.2323 -0.5338
  343MOL0     C46177   2.893   3.348   1.695 -0.3794 -0.4474 -0.5274
  343MOL0     O46178   2.791   3.342   1.602 -0.4488  0.3481  0.3346
  343MOL0     C46179   2.755   3.450   1.519  0.0413 -0.9242 -0.8397
  343MOL0     C46180   2.623   3.504   1.572  0.1276 -0.3366 -0.1745
  343MOL0     C46181   2.513   3.511   1.461  0.1944 -0.2935 -0.0745
  343MOL0     C46182   2.467   3.373   1.408  0.3356  0.6072  0.2001
  343MOL0     C46183   2.355   3.402   1.310  0.6334 -0.1922 -0.1491
  343MOL0     C46184   2.355   3.273   1.218 -0.0675  0.3155 -0.1641
  343MOL0     C46185   2.249   3.300   1.099 -0.0248  1.0257  0.0624
  343MOL0     C46186   2.219   3.166   1.025  0.7126 -0.9796 -0.5851
  343MOL0     N46187   2.337   3.102   0.966 -0.9382 -0.6300 -0.2023
  343MOL0     C46188   2.424   3.136   0.860 -0.3673 -0.5805 -0.3736
  343MOL0     C46189   2.490   3.026   0.830  0.3716  0.0532 -0.2654
  343MOL0     C46190   2.588   3.016   0.714 -0.1088 -0.6528  0.0591
  343MOL0     C46191   2.682   3.134   0.707 -0.0642  0.2470 -0.4157
  343MOL0     C46192   2.800   3.129   0.612 -0.2680 -0.5230 -1.3821
  343MOL0     C46193   2.889   3.251   0.620  0.4085  0.5536  0.6158
  343MOL0     O46194   2.994   3.225   0.527  0.2340  0.4479  0.1340
  343MOL0     C46195   3.097   3.312   0.498 -1.0494  0.5992 -0.0800
  343MOL0     C46196   3.112   3.430   0.573 -1.1320 -0.1846  0.5602
  343MOL0     C46197   3.206   3.525   0.533 -0.3539  0.3210 -1.0840
  343MOL0     C46198   3.224   3.653   0.616 -0.4791  0.2616  1.6981
  343MOL0     C46199   3.305   3.498   0.430  0.5989  0.3872 -0.0600
  343MOL0     C46200   3.395   3.601   0.375 -0.1969 -0.5435  0.1647
  343MOL0     O46201   3.454   3.558   0.261  0.1911  0.1645  0.4439
  343MOL0     C46202   3.548   3.626   0.189  0.4673 -0.3147 -0.3514
  343MOL0     C46203   3.535   3.630   0.048  0.0408  0.5132  0.0726
  343MOL0     C46204   3.622   3.696  -0.039  1.0818  0.4892 -0.2704
  343MOL0     C46205   3.734   3.754   0.022  0.0891  0.1339 -0.1091
  343MOL0     O46206   3.812   3.828  -0.066 -0.4018  0.8946 -0.7203
  343MOL0     C46207   3.923   3.897  -0.013  0.7987  0.2052  1.0319
  343MOL0     C46208   3.994   3.973  -0.126  0.1718  0.1320 -0.3264
  343MOL0     C46209   3.925   4.095  -0.199  0.3489  0.3877 -0.2904
  343MOL0     C46210   3.769   4.082  -0.202 -0.7388  0.1744 -0.3084
  343MOL0     C46211   3.701   4.204  -0.271 -0.6358 -0.0084 -0.2239
  343MOL0     C46212   3.551   4.195  -0.244  1.1375 -0.0855  0.1540
  343MOL0     C46213   3.473   4.324  -0.291 -0.0690 -0.3967 -0.1439
  343MOL0     C46214   3.324   4.317  -0.251 -0.3404 -0.6287 -0.4371
  343MOL0    Cl46215   3.239   4.231  -0.373 -0.2520  0.1071 -0.4328
  343MOL0     C46216   3.747   3.752   0.165 -0.6150  0.1487  0.7221
  343MOL0     C46217   3.664   3.683   0.247  0.3448  0.6694 -0.3469
  343MOL0     O46218   3.419   3.712   0.422  0.0694 -0.0218  0.4215
  343MOL0     C46219   3.300   3.363   0.383  0.1082  0.7945 -0.1076
  343MOL0     C46220   3.202   3.273   0.413  0.1831 -0.3895 -0.7770
  343MOL0     N46221   2.448   2.925   0.916  0.1372  0.1409  0.1638
  343MOL0     N46222   2.356   2.969   0.992 -1.2174  0.0380 -0.4386
  343MOL0     C46223   2.940   3.228   1.749  0.2852 -0.6535  0.2779
  343MOL0     C46224   3.045   3.233   1.845  0.8561 -0.7851  0.2483
  343MOL0     C46225   3.412   3.300   2.046  0.2621 -0.4661 -0.0819
  343MOL0     C46226   3.544   3.258   2.024 -0.1124 -0.7956  0.8953
  343MOL0     C46227   3.645   3.251   2.125  0.3367  0.6338  0.0300
  343MOL0     C46228   3.603   3.286   2.253 -0.0548  0.1694 -0.2171
  343MOL0     O46229   3.691   3.293   2.360 -0.3025  0.5908 -0.0971
  343MOL0     C46230   3.817   3.227   2.358 -0.2908  0.3368 -0.7867
  343MOL0     C46231   3.802   3.108   2.450 -0.8062  0.2673  0.1938
  343MOL0     C46232   3.754   3.156   2.594 -0.2368  0.2412 -0.3671
  343MOL0     C46233   3.786   3.050   2.696 -0.0290 -0.0266 -0.2595
  343MOL0     C46234   3.685   2.944   2.684  0.8055 -0.3915 -0.8035
  343MOL0     C46235   3.592   2.862   2.682  0.0557 -0.8488 -0.0417
  343MOL0     C46236   3.470   3.307   2.279 -0.5042 -0.0057  0.5924
  343MOL0     C46237   3.376   3.319   2.178  0.3238 -0.3586 -0.5323
  343MOL0     H46238   3.060   3.570   1.890  0.9839 -0.8255 -0.9361
  343MOL0     H46239   2.891   3.563   1.719 -2.0780 -1.3960 -0.7631
  343MOL0     H46240   2.832   3.528   1.520  0.9971 -1.8295  0.6197
  343MOL0     H46241   2.752   3.405   1.420  1.1802 -0.1716 -1.2331
  343MOL0     H46242   2.591   3.452   1.662 -1.5009 -2.1942 -1.7428
  343MOL0     H46243   2.651   3.605   1.602  0.1207 -0.7582  1.3066
  343MOL0     H46244   2.428   3.569   1.499  0.4182  0.0892 -0.1646
  343MOL0     H46245   2.560   3.564   1.378  0.5990  0.4061  0.5872
  343MOL0     H46246   2.552   3.331   1.354 -1.1924 -1.6983 -0.5465
  343MOL0     H46247   2.433   3.309   1.490 -1.4350 -0.0958 -1.0087
  343MOL0     H46248   2.259   3.411   1.362  2.0149  0.9348  2.3955
  343MOL0     H46249   2.376   3.491   1.250  3.6281 -0.1891  0.7762
  343MOL0     H46250   2.452   3.244   1.177  0.1355 -0.1729  0.6350
  343MOL0     H46251   2.323   3.189   1.282  0.0993 -0.1451 -0.6759
  343MOL0     H46252   2.150   3.326   1.138 -0.5268 -1.9322  1.0026
  343MOL0     H46253   2.288   3.372   1.026 -0.3446  0.2578 -0.8808
  343MOL0     H46254   2.142   3.182   0.949  0.7465 -0.1582 -0.4592
  343MOL0     H46255   2.176   3.099   1.099  1.9775 -0.0533  1.0507
  343MOL0     H46256   2.431   3.223   0.796 -0.4986 -0.1690  0.1656
  343MOL0     H46257   2.635   2.919   0.733  0.2165 -0.4407  0.3364
  343MOL0     H46258   2.527   3.001   0.624  1.0928 -0.4116 -0.8260
  343MOL0     H46259   2.714   3.156   0.809 -0.0860 -0.6388 -0.2115
  343MOL0     H46260   2.628   3.227   0.688 -0.4904 -0.3865 -2.5163
  343MOL0     H46261   2.751   3.132   0.514 -2.3088  0.6700 -0.4025
  343MOL0     H46262   2.868   3.044   0.623  0.0239 -0.1726 -0.3676
  343MOL0     H46263   2.934   3.264   0.719  0.0387  1.0590  0.7202
  343MOL0     H46264   2.825   3.338   0.604 -2.4137 -1.2755  1.3365
  343MOL0     H46265   3.042   3.453   0.653  0.2201 -2.4243  2.5301
  343MOL0     H46266   3.155   3.656   0.701 -3.3156  1.1288 -0.4730
  343MOL0     H46267   3.322   3.664   0.664 -0.6499  0.0304  2.1120
  343MOL0     H46268   3.211   3.736   0.546  4.0298  1.8200  2.3875
  343MOL0     H46269   3.441   3.588   0.014  0.0453  0.7766 -0.2674
  343MOL0     H46270   3.608   3.690  -0.146 -1.8091  0.8654 -0.0236
  343MOL0     H46271   3.885   3.973   0.056 -0.6269 -0.8476  1.4473
  343MOL0     H46272   3.991   3.823   0.030  0.5405 -1.1902 -0.8136
  343MOL0     H46273   4.081   4.020  -0.078 -0.1258 -0.2540  0.6180
  343MOL0     H46274   4.016   3.896  -0.201  1.2951 -0.8629  0.9646
  343MOL0     H46275   3.965   4.097  -0.300  0.8236 -1.5888 -0.1900
  343MOL0     H46276   3.951   4.188  -0.149 -0.1452 -0.2533  1.2248
  343MOL0     H46277   3.736   3.987  -0.246 -3.6481  0.4872  0.9436
  343MOL0     H46278   3.750   4.083  -0.094  1.3567  1.1733  0.0991
  343MOL0     H46279   3.721   4.201  -0.379 -1.8674 -3.1817 -0.4779
  343MOL0     H46280   3.746   4.293  -0.225 -0.5095  0.2079 -0.7546
  343MOL0     H46281   3.519   4.107  -0.300 -0.3779  0.0332  0.7806
  343MOL0     H46282   3.527   4.184  -0.137 -2.0369 -3.8221 -0.6942
  343MOL0     H46283   3.481   4.323  -0.400  0.4118 -2.9765 -0.1605
  343MOL0     H46284   3.519   4.414  -0.250 -1.1987  0.3663 -0.4851
  343MOL0     H46285   3.275   4.414  -0.234 -0.9323 -1.2498  1.7447
  343MOL0     H46286   3.300   4.262  -0.160 -1.6383 -0.1590 -0.4729
  343MOL0     H46287   3.830   3.811   0.204 -1.7062  3.7674 -1.9443
  343MOL0     H46288   3.677   3.672   0.354 -0.0036  1.2802 -0.2300
  343MOL0     H46289   3.369   3.331   0.305  0.3814  1.0470  0.0297
  343MOL0     H46290   3.188   3.172   0.376 -0.8207 -0.6731  0.3372
  343MOL0     H46291   2.922   3.132   1.701  1.6765 -1.2286  0.8490
  343MOL0     H46292   3.100   3.153   1.892  0.7459 -1.3040 -0.4886
  343MOL0     H46293   3.571   3.241   1.920 -0.1752  1.6739  0.4139
  343MOL0     H46294   3.746   3.228   2.093 -0.7257 -1.5382 -2.0031
  343MOL0     H46295   3.845   3.194   2.257  0.1901  0.7103 -0.7788
  343MOL0     H46296   3.902   3.283   2.398 -0.9228  1.5328 -1.0774
  343MOL0     H46297   3.892   3.048   2.462  0.5609  2.3540  1.0266
  343MOL0     H46298   3.726   3.040   2.411 -1.6575 -0.6965  3.2198
  343MOL0     H46299   3.646   3.174   2.602 -0.2372  1.2683 -2.0380
  343MOL0     H46300   3.806   3.244   2.632 -1.0652  0.4190  0.3995
  343MOL0     H46301   3.775   3.096   2.794 -0.9753  0.5184 -0.6087
  343MOL0     H46302   3.884   3.003   2.687 -0.6273 -2.0910  2.6456
  343MOL0     H46303   3.507   2.799   2.695 -0.9357  0.3783 -0.3691
  343MOL0     H46304   3.454   3.316   2.386  0.5032  1.1107  0.6691
  343MOL0     H46305   3.279   3.358   2.209  0.1082  1.7589 -3.3923
  344MOL0     O46306   3.000   9.840   9.490  0.4166  0.3424 -0.4068
  344MOL0     C46307   2.900   9.831   9.424  0.1770  0.4733 -0.6078
  344MOL0     O46308   2.774   9.814   9.474 -0.0230 -0.0655 -0.4227
  344MOL0     C46309   2.737   9.778   9.598 -0.2431 -0.4711  0.7660
  344MOL0     C46310   2.809   9.675   9.664  0.3131 -0.5975 -0.3219
  344MOL0     C46311   2.774   9.637   9.791 -0.1338  0.1334  0.4908
  344MOL0     C46312   2.668   9.701   9.860  0.0868 -0.9166  0.3113
  344MOL0     O46313   2.631   9.669   9.990 -0.0757 -0.3837  0.0178
  344MOL0     C46314   2.718   9.592  10.080  0.8293 -0.2337  0.5070
  344MOL0     C46315   2.656   9.574  10.210  0.3931  0.8170  0.2511
  344MOL0     C46316   2.754   9.593  10.335 -0.5692 -0.0010  0.5914
  344MOL0     C46317   2.701   9.560  10.470  0.0187  0.4550 -0.0306
  344MOL0     C46318   2.556   9.603  10.499 -0.4064  0.5025 -0.7858
  344MOL0     C46319   2.509   9.571  10.649  0.4096 -0.6752 -0.3982
  344MOL0     C46320   2.355   9.572  10.645 -0.4522  0.5296 -0.5021
  344MOL0     C46321   2.309   9.549  10.793 -0.1433  0.5434  0.6080
  344MOL0     N46322   2.330   9.661  10.889 -0.8978  0.7912 -0.0001
  344MOL0     C46323   2.227   9.721  10.964 -0.9472 -0.6209 -0.7634
  344MOL0     C46324   2.289   9.808  11.051 -0.3698  0.5754  0.4912
  344MOL0     C46325   2.229   9.909  11.139  0.6891 -0.5210  0.1189
  344MOL0     C46326   2.320   9.940  11.266  0.3651 -0.6169  0.8883
  344MOL0     C46327   2.248  10.050  11.349  0.1101 -0.4170 -1.0207
  344MOL0     C46328   2.121   9.997  11.426  0.1833  0.6646  0.6428
  344MOL0     O46329   2.064  10.096  11.504 -0.3684 -0.6340 -0.0440
  344MOL0     C46330   1.962  10.159  11.443  0.1925 -0.5672  1.0555
  344MOL0     C46331   1.979  10.267  11.348 -0.0385 -0.5055  0.5344
  344MOL0     C46332   1.864  10.329  11.282  0.2034 -0.2745  0.1269
  344MOL0     C46333   1.880  10.438  11.177 -0.9502  0.0282  0.7597
  344MOL0     C46334   1.734  10.287  11.324  0.0841  0.6639  0.1825
  344MOL0     C46335   1.607  10.340  11.272  0.2353 -0.1303  0.5267
  344MOL0     O46336   1.617  10.437  11.194  0.4270  0.4207  0.8390
  344MOL0     C46337   1.515  10.485  11.112 -0.3276 -0.0348  0.1150
  344MOL0     C46338   1.403  10.407  11.070  0.5412  0.0165 -0.6529
  344MOL0     C46339   1.321  10.465  10.976 -1.1685 -0.4259 -0.1089
  344MOL0     C46340   1.351  10.586  10.914  0.7790 -0.4312  0.0211
  344MOL0     O46341   1.284  10.647  10.811 -0.2989  0.6063 -0.0953
  344MOL0     C46342   1.150  10.614  10.804 -0.4958  0.3226 -0.1941
  344MOL0     C46343   1.064  10.702  10.709 -0.3053 -0.4414 -0.4953
  344MOL0     C46344   0.921  10.685  10.726  0.3617 -0.1170  0.0803
  344MOL0     C46345   0.837  10.775  10.630  0.0100 -0.5789 -0.3701
  344MOL0     C46346   0.685  10.786  10.679 -0.0311  0.0270 -0.1081
  344MOL0     C46347   0.595  10.655  10.695 -0.1872  0.2302  0.1011
  344MOL0     C46348   0.454  10.684  10.746 -0.2930  0.0952 -0.5632
  344MOL0     C46349   0.384  10.553  10.784  0.0345  0.8131 -0.7224
  344MOL0    Cl46350   0.201  10.588  10.792  0.0780  0.0059 -0.2300
  344MOL0     C46351   1.465  10.654  10.952 -0.2860  0.2583 -0.3028
  344MOL0     C46352   1.547  10.604  11.051  0.6817 -0.2207  0.2519
  344MOL0     O46353   1.503  10.298  11.315  0.4972  0.1501 -0.1273
  344MOL0     C46354   1.727  10.180  11.416  0.0640 -0.4066  0.0378
  344MOL0     C46355   1.837  10.116  11.471  0.3490  0.2087 -0.1845
  344MOL0     N46356   2.419   9.799  11.022 -0.8331  0.1981  0.1173
  344MOL0     N46357   2.443   9.708  10.935 -0.2178 -1.2447 -0.3285
  344MOL0     C46358   2.599   9.802   9.796  0.0805 -1.0548  0.1943
  344MOL0     C46359   2.629   9.841   9.664  0.1030 -0.4901  0.6818
  344MOL0     C46360   2.916   9.838   9.279 -0.2507  0.0531 -0.4171
  344MOL0     C46361   3.025   9.907   9.229 -0.5155  0.1046  0.0254
  344MOL0     C46362   3.046   9.921   9.096 -0.3742 -0.2023  0.3474
  344MOL0     C46363   2.947   9.897   8.999 -0.0111 -0.5229  0.4624
  344MOL0     O46364   2.959   9.916   8.864 -0.2349  0.5419  0.2131
  344MOL0     C46365   3.085   9.962   8.812  0.3994  0.2076 -0.4790
  344MOL0     C46366   3.079   9.966   8.657 -0.2454 -0.2095  0.1033
  344MOL0     C46367   3.197  10.038   8.594 -0.3760 -0.8252  0.7081
  344MOL0     C46368   3.336   9.969   8.619  0.4670 -0.6142 -0.5030
  344MOL0     C46369   3.333   9.820   8.608  1.0640 -0.4716  0.5997
  344MOL0     C46370   3.326   9.702   8.600  0.5027 -0.4523  0.5620
  344MOL0     C46371   2.836   9.832   9.051  0.4742  0.6388  0.1722
  344MOL0     C46372   2.816   9.805   9.188  0.1668 -0.2395 -0.2060
  344MOL0     H46373   2.892   9.622   9.618  0.9265 -0.4091  0.5534
  344MOL0     H46374   2.812   9.543   9.829 -0.1425 -1.1512 -2.3931
  344MOL0     H46375   2.717   9.494  10.031  2.5342  0.2687 -0.6518
  344MOL0     H46376   2.819   9.635  10.081  0.1071  1.9363 -2.7446
  344MOL0     H46377   2.591   9.661  10.215  0.0314  0.6397 -0.9050
  344MOL0     H46378   2.600   9.480  10.209 -0.4059  1.1749 -3.2962
  344MOL0     H46379   2.846   9.543  10.305 -0.0370  2.5812 -2.7534
  344MOL0     H46380   2.779   9.700  10.336 -0.4214  0.3093 -4.9882
  344MOL0     H46381   2.716   9.454  10.493 -0.7090  0.2294 -0.5621
  344MOL0     H46382   2.767   9.605  10.545  1.8509 -0.4338 -1.0280
  344MOL0     H46383   2.538   9.711  10.493  0.9519  1.1135  3.1126
  344MOL0     H46384   2.485   9.552  10.434 -0.2410  0.1456 -0.6894
  344MOL0     H46385   2.537   9.470  10.678 -0.8813 -0.8302  0.3727
  344MOL0     H46386   2.554   9.647  10.714 -0.5716 -2.2497  2.2807
  344MOL0     H46387   2.306   9.663  10.609  0.7592  1.2244 -0.4305
  344MOL0     H46388   2.311   9.484  10.598 -0.8480  0.7573 -0.5606
  344MOL0     H46389   2.358   9.462  10.838 -0.5700  1.0720  2.1885
  344MOL0     H46390   2.201   9.529  10.797 -0.5813  2.7208  0.9766
  344MOL0     H46391   2.121   9.705  10.954 -0.9838  0.1181 -1.7526
  344MOL0     H46392   2.214  10.003  11.084  1.1666 -0.1021  0.6840
  344MOL0     H46393   2.128   9.877  11.166  1.6006 -1.6720  2.4030
  344MOL0     H46394   2.413   9.984  11.228 -1.3321  0.0504 -3.0145
  344MOL0     H46395   2.345   9.851  11.324 -2.0981 -1.4031  0.8369
  344MOL0     H46396   2.228  10.133  11.281 -0.0165 -0.7474 -1.3871
  344MOL0     H46397   2.318  10.086  11.426 -0.6449 -0.5843 -0.2345
  344MOL0     H46398   2.151   9.912  11.488  0.8505 -0.1252 -0.7188
  344MOL0     H46399   2.043   9.960  11.359  1.4559  0.3010 -0.7025
  344MOL0     H46400   2.082  10.301  11.345 -0.1769  0.3423  2.9059
  344MOL0     H46401   1.832  10.400  11.086 -0.3058 -0.4830  0.6277
  344MOL0     H46402   1.840  10.538  11.197  0.6052  1.7087 -3.3697
  344MOL0     H46403   1.980  10.465  11.142 -1.0857  1.3831  1.3611
  344MOL0     H46404   1.376  10.312  11.115 -0.1543 -0.1303 -1.3666
  344MOL0     H46405   1.241  10.396  10.950 -0.2632 -1.7576  0.4864
  344MOL0     H46406   1.146  10.516  10.754 -0.7801  0.1518  0.1576
  344MOL0     H46407   1.102  10.611  10.902  2.3180 -1.0002  1.2423
  344MOL0     H46408   1.080  10.807  10.737  2.6065 -0.3938 -2.0032
  344MOL0     H46409   1.088  10.688  10.604  1.7813  2.3782 -0.5042
  344MOL0     H46410   0.887  10.709  10.828 -2.7256 -1.2510 -0.5974
  344MOL0     H46411   0.893  10.581  10.709 -1.4292  0.6266 -1.8109
  344MOL0     H46412   0.883  10.874  10.631  0.9650 -0.9859  1.6610
  344MOL0     H46413   0.846  10.747  10.525 -0.3894  0.6891 -0.7572
  344MOL0     H46414   0.635  10.864  10.621 -1.3917  0.2320  1.2732
  344MOL0     H46415   0.686  10.829  10.780 -0.4398 -2.1113  0.8772
  344MOL0     H46416   0.584  10.601  10.601  1.1874  0.1350 -0.0309
  344MOL0     H46417   0.650  10.593  10.767  2.6163  2.3261 -0.0528
  344MOL0     H46418   0.398  10.740  10.669  1.8329  0.9294 -1.5848
  344MOL0     H46419   0.454  10.751  10.832 -2.3358  2.6071 -2.3451
  344MOL0     H46420   0.409  10.521  10.885 -1.6864  2.4415  0.2870
  344MOL0     H46421   0.402  10.474  10.711 -1.7887 -0.4840  0.1545
  344MOL0     H46422   1.471  10.746  10.896 -0.1266  0.5976  0.2614
  344MOL0     H46423   1.641  10.653  11.077  0.9005 -1.0465  1.0539
  344MOL0     H46424   1.628  10.140  11.437 -1.7775  2.3164 -2.5499
  344MOL0     H46425   1.817  10.037  11.542  0.0645  0.9732  0.5983
  344MOL0     H46426   2.528   9.866   9.848  1.0176  2.7232 -2.6967
  344MOL0     H46427   2.573   9.922   9.619 -1.6206 -2.0846 -0.1685
  344MOL0     H46428   3.101   9.938   9.300 -0.8907 -0.0607  0.5004
  344MOL0     H46429   3.144   9.956   9.065  0.2172 -0.6037  1.6891
  344MOL0     H46430   3.124  10.058   8.845  3.9604 -1.6529  1.2919
  344MOL0     H46431   3.148   9.882   8.851 -1.8333 -1.0395  0.8006
  344MOL0     H46432   2.984  10.016   8.635 -1.2571 -2.0212  0.1302
  344MOL0     H46433   3.077   9.863   8.618  0.3265 -0.3816  0.5187
  344MOL0     H46434   3.199  10.140   8.634  2.3681  0.6014 -2.5595
  344MOL0     H46435   3.181  10.050   8.487  1.8874 -0.1433  0.3843
  344MOL0     H46436   3.365   9.993   8.722  1.7065 -1.1908 -0.7038
  344MOL0     H46437   3.400  10.008   8.540 -0.0309 -2.0661 -1.6580
  344MOL0     H46438   3.328   9.596   8.587  0.8851 -0.4800  0.8219
  344MOL0     H46439   2.753   9.808   8.985  1.9941 -2.3801 -0.8715
  344MOL0     H46440   2.731   9.751   9.228  0.3302 -1.1159 -1.0184
  345MOL0     O46441   9.675   4.851   0.626 -0.8914  0.0105 -0.6654
  345MOL0     C46442   9.635   4.863   0.737  0.1005 -0.0709 -0.1377
  345MOL0     O46443   9.506   4.866   0.771  0.9591 -0.1307  0.5095
  345MOL0     C46444   9.407   4.866   0.674 -0.2398 -0.2246  0.7094
  345MOL0     C46445   9.411   4.798   0.552  0.1930 -0.7356 -0.0904
  345MOL0     C46446   9.304   4.809   0.463  0.4252  0.9584  0.3115
  345MOL0     C46447   9.189   4.885   0.495  0.1120  0.4814  0.6813
  345MOL0     O46448   9.110   4.898   0.379 -0.1378  1.3187 -0.6813
  345MOL0     C46449   8.996   4.980   0.383  0.8151 -0.2353  0.1639
  345MOL0     C46450   8.932   5.003   0.244 -0.7928  0.1665  0.4901
  345MOL0     C46451   8.780   5.034   0.240  0.3607 -0.8659  0.2533
  345MOL0     C46452   8.690   4.927   0.292  0.5847 -0.3422  0.6064
  345MOL0     C46453   8.544   4.981   0.318  0.5685 -0.8337 -0.4881
  345MOL0     C46454   8.479   5.057   0.188 -0.2221 -0.5324 -0.1061
  345MOL0     C46455   8.327   5.075   0.200  0.0828 -1.0105  1.1596
  345MOL0     C46456   8.268   5.150   0.076  0.5147  0.4332 -0.5880
  345MOL0     N46457   8.123   5.145   0.076  0.2287 -0.6249 -0.4374
  345MOL0     C46458   8.045   5.252   0.115  0.4914  0.0235 -0.6384
  345MOL0     C46459   7.918   5.229   0.067 -0.1972 -0.0802 -0.2531
  345MOL0     C46460   7.788   5.308   0.090 -0.7161  0.0153  0.9233
  345MOL0     C46461   7.802   5.400   0.209  0.6021 -0.3949 -0.4112
  345MOL0     C46462   7.674   5.475   0.255 -0.1163 -0.2415  0.8210
  345MOL0     C46463   7.576   5.529   0.151  0.5813 -0.1006  0.2534
  345MOL0     O46464   7.474   5.597   0.220  0.0177 -0.6253 -0.6433
  345MOL0     C46465   7.364   5.629   0.148  0.2107  0.1664  0.6889
  345MOL0     C46466   7.363   5.644   0.008 -1.0207 -0.5360  0.7435
  345MOL0     C46467   7.260   5.707  -0.059 -0.2811  0.5028  0.4222
  345MOL0     C46468   7.267   5.727  -0.206  0.1230 -0.2514 -0.0953
  345MOL0     C46469   7.140   5.743   0.006  0.0851  0.0108 -0.9324
  345MOL0     C46470   7.013   5.790  -0.073 -0.2048  0.1812 -1.1331
  345MOL0     O46471   6.895   5.728  -0.025 -0.1955 -0.5627  0.0939
  345MOL0     C46472   6.791   5.719  -0.116 -0.6121 -0.2659  0.2610
  345MOL0     C46473   6.665   5.707  -0.073  0.1714  0.0374  0.3956
  345MOL0     C46474   6.554   5.691  -0.157 -0.2010  1.0245  0.1555
  345MOL0     C46475   6.565   5.701  -0.291  0.4930 -1.0481  0.1755
  345MOL0     O46476   6.465   5.690  -0.382 -0.5314  0.6976 -1.0744
  345MOL0     C46477   6.459   5.808  -0.464  0.2221  0.2601  0.3627
  345MOL0     C46478   6.344   5.804  -0.574 -0.3042  0.1920 -0.1064
  345MOL0     C46479   6.353   5.931  -0.668  0.1215  0.6907 -0.5424
  345MOL0     C46480   6.219   5.969  -0.734 -0.3443 -0.7205  0.4360
  345MOL0     C46481   6.126   6.044  -0.646  0.3989 -0.7872 -0.1398
  345MOL0     C46482   5.998   6.089  -0.724  0.1232 -0.4240  0.0837
  345MOL0     C46483   6.014   6.203  -0.828 -0.4707 -0.4524  0.0753
  345MOL0     C46484   5.887   6.238  -0.894 -0.4504 -0.3029  0.3189
  345MOL0    Cl46485   5.757   6.297  -0.788 -0.7029  0.1484 -0.3594
  345MOL0     C46486   6.693   5.717  -0.345  0.0173  0.2048 -0.5333
  345MOL0     C46487   6.805   5.719  -0.257 -0.6684 -0.3796  0.3456
  345MOL0     O46488   7.022   5.881  -0.153  0.3772  0.1788  0.2086
  345MOL0     C46489   7.135   5.727   0.148 -0.5330  0.3777 -0.1398
  345MOL0     C46490   7.253   5.667   0.216  0.3841  0.0989  0.0012
  345MOL0     N46491   7.934   5.111  -0.008  0.4701  0.1802 -1.3826
  345MOL0     N46492   8.049   5.059   0.009 -0.4171 -0.4948  0.0801
  345MOL0     C46493   9.184   4.953   0.616  1.4195 -0.5253 -0.3007
  345MOL0     C46494   9.300   4.950   0.707 -0.0359 -0.6993  0.2551
  345MOL0     C46495   9.739   4.881   0.840 -0.2753 -0.0560  0.7896
  345MOL0     C46496   9.712   4.924   0.966  0.7406  0.1385  0.3189
  345MOL0     C46497   9.817   4.952   1.055  0.4360  0.0747 -0.4538
  345MOL0     C46498   9.947   4.928   1.024 -0.1715  0.0562 -0.5227
  345MOL0     O46499  10.053   4.938   1.111  0.1149  0.6298  0.0830
  345MOL0     C46500  10.049   4.919   1.252  0.6167 -0.3387 -0.2362
  345MOL0     C46501  10.036   4.777   1.285 -0.9367 -0.1758  0.5154
  345MOL0     C46502  10.162   4.693   1.249 -0.3060 -0.4501 -0.0593
  345MOL0     C46503  10.136   4.592   1.129  0.2786 -0.5986 -0.1286
  345MOL0     C46504  10.244   4.491   1.125  0.0951 -0.6753  0.9281
  345MOL0     C46505  10.328   4.411   1.147  0.0633  0.3709  0.1994
  345MOL0     C46506   9.979   4.884   0.893  0.2649  0.0417  0.0867
  345MOL0     C46507   9.871   4.848   0.810 -0.1607 -1.0242  0.4685
  345MOL0     H46508   9.492   4.728   0.535 -0.0187 -1.4811  1.7586
  345MOL0     H46509   9.312   4.761   0.366 -0.6009  2.7513 -0.7107
  345MOL0     H46510   8.919   4.926   0.440 -0.4411  0.6403 -0.6381
  345MOL0     H46511   9.025   5.079   0.420  0.0186  0.4055 -0.8579
  345MOL0     H46512   8.987   5.085   0.197  1.9142 -0.5813  2.1220
  345MOL0     H46513   8.958   4.921   0.176 -2.3944  1.2022 -1.4559
  345MOL0     H46514   8.752   5.130   0.286 -0.4497 -1.0249  0.1060
  345MOL0     H46515   8.749   5.036   0.135 -0.9754 -0.9077  0.6225
  345MOL0     H46516   8.679   4.856   0.209 -1.1640 -0.5363  0.9720
  345MOL0     H46517   8.730   4.876   0.379  0.2121  0.0793  1.0326
  345MOL0     H46518   8.479   4.896   0.342 -0.9860  0.1115 -1.1968
  345MOL0     H46519   8.526   5.041   0.407 -2.1763 -0.4602 -1.1821
  345MOL0     H46520   8.533   5.153   0.193  0.0554 -0.7104  0.3872
  345MOL0     H46521   8.506   4.991   0.105 -0.5468 -2.3677  1.1923
  345MOL0     H46522   8.273   4.981   0.209  0.2081 -1.0095  2.0540
  345MOL0     H46523   8.320   5.143   0.286 -1.6130  1.1989 -0.5859
  345MOL0     H46524   8.319   5.106  -0.010  3.3755 -0.1046  1.2580
  345MOL0     H46525   8.308   5.252   0.073  1.5257  0.1111 -5.0283
  345MOL0     H46526   8.071   5.336   0.178 -0.7803  0.6009 -0.8461
  345MOL0     H46527   7.771   5.365  -0.002  1.8300 -1.2379 -0.4009
  345MOL0     H46528   7.712   5.230   0.099  0.2333 -1.1650 -0.8295
  345MOL0     H46529   7.875   5.479   0.192  0.0890 -0.1107 -1.3850
  345MOL0     H46530   7.850   5.346   0.291  2.3659 -1.9509 -2.3618
  345MOL0     H46531   7.700   5.549   0.331 -0.7728  1.8497 -0.8573
  345MOL0     H46532   7.620   5.394   0.305  0.0253 -2.4376 -2.2900
  345MOL0     H46533   7.536   5.448   0.090  1.7995 -1.1269  0.7715
  345MOL0     H46534   7.631   5.603   0.092 -2.0328  1.4178 -0.4227
  345MOL0     H46535   7.455   5.615  -0.043  0.6821  0.5640  2.9763
  345MOL0     H46536   7.250   5.832  -0.233 -2.0186 -0.5532 -0.0521
  345MOL0     H46537   7.367   5.706  -0.244  0.3672 -0.8763  0.8543
  345MOL0     H46538   7.188   5.679  -0.265  0.3964 -0.0538 -0.6318
  345MOL0     H46539   6.655   5.709   0.035  1.9860 -1.3589  0.6388
  345MOL0     H46540   6.459   5.664  -0.113  0.6868 -3.0576 -0.0323
  345MOL0     H46541   6.449   5.902  -0.410 -1.5451  1.7177 -2.2568
  345MOL0     H46542   6.545   5.814  -0.531 -0.3866 -4.0570 -1.1804
  345MOL0     H46543   6.347   5.715  -0.637 -0.5309 -0.5905  0.9575
  345MOL0     H46544   6.254   5.786  -0.514 -0.5048 -1.4678 -0.8661
  345MOL0     H46545   6.421   5.909  -0.750  2.4073 -0.9974  1.6329
  345MOL0     H46546   6.391   6.019  -0.616 -2.1041  0.4257  1.7500
  345MOL0     H46547   6.250   6.024  -0.823 -0.6567 -2.3273 -0.7263
  345MOL0     H46548   6.166   5.885  -0.779  1.1092 -0.4751 -1.9169
  345MOL0     H46549   6.169   6.137  -0.608  3.1675 -1.3848 -1.5639
  345MOL0     H46550   6.111   5.980  -0.559 -0.3422  0.8727  1.0120
  345MOL0     H46551   5.959   6.002  -0.777  3.6851 -0.8161 -2.2735
  345MOL0     H46552   5.928   6.121  -0.646 -1.6132 -2.3034 -0.6063
  345MOL0     H46553   6.086   6.167  -0.903 -1.1257 -1.2807 -0.1674
  345MOL0     H46554   6.055   6.289  -0.773  0.1342 -0.4526 -0.3589
  345MOL0     H46555   5.839   6.159  -0.952 -1.6113 -1.5615  2.8084
  345MOL0     H46556   5.904   6.315  -0.969  0.9523 -1.2903 -0.4414
  345MOL0     H46557   6.710   5.713  -0.452  1.2960  1.5655 -0.4082
  345MOL0     H46558   6.903   5.692  -0.295 -0.7552 -0.2663  0.0424
  345MOL0     H46559   7.050   5.764   0.204 -2.1633 -1.9489 -0.9516
  345MOL0     H46560   7.256   5.657   0.324 -2.4590 -3.1273 -0.0468
  345MOL0     H46561   9.101   5.019   0.641  1.8237 -0.3559  0.6499
  345MOL0     H46562   9.308   5.009   0.798 -2.9882 -0.4006  0.4077
  345MOL0     H46563   9.608   4.940   0.991  0.2968  1.5894 -2.1534
  345MOL0     H46564   9.785   4.977   1.155 -1.2647 -0.1417 -0.9182
  345MOL0     H46565  10.139   4.962   1.298  2.0232 -0.4958 -2.6617
  345MOL0     H46566   9.962   4.973   1.289  0.2617 -0.0027 -1.4907
  345MOL0     H46567   9.948   4.735   1.236 -0.2142 -0.0889 -0.9083
  345MOL0     H46568  10.033   4.774   1.394  2.2050 -0.9528  0.6882
  345MOL0     H46569  10.175   4.641   1.344  0.3704  1.0046  0.6605
  345MOL0     H46570  10.248   4.757   1.227  0.4322 -1.5506 -0.4584
  345MOL0     H46571  10.143   4.657   1.041 -1.5218  0.1398  0.2277
  345MOL0     H46572  10.036   4.548   1.140  0.6767 -1.1240  1.7164
  345MOL0     H46573  10.404   4.336   1.159 -1.4561 -1.1134  1.0585
  345MOL0     H46574  10.083   4.869   0.867 -0.1004  0.3334 -1.7040
  345MOL0     H46575   9.894   4.806   0.713 -3.4195  0.6625 -1.2088
  346MOL0     O46576   0.755   5.793   5.350 -0.6551  0.6448  0.7002
  346MOL0     C46577   0.679   5.834   5.270  0.9915  0.0703  0.0500
  346MOL0     O46578   0.691   5.957   5.206  0.9436  0.1361  0.3769
  346MOL0     C46579   0.793   6.042   5.232  0.1606  0.2944 -0.1534
  346MOL0     C46580   0.925   6.000   5.244 -0.1787 -0.0537 -0.0294
  346MOL0     C46581   1.025   6.090   5.294  0.3688 -0.2260  0.0999
  346MOL0     C46582   0.984   6.220   5.340 -0.1027  0.0363 -0.1875
  346MOL0     O46583   1.058   6.301   5.422 -0.4655  0.1159 -0.1982
  346MOL0     C46584   1.135   6.229   5.524  1.1266  0.0664 -0.3799
  346MOL0     C46585   1.214   6.331   5.600 -0.4389  0.1127 -0.1179
  346MOL0     C46586   1.147   6.421   5.700  0.0884  0.4094  0.1669
  346MOL0     C46587   1.249   6.534   5.738 -0.5723  0.0880 -0.7097
  346MOL0     C46588   1.195   6.620   5.852  0.5049 -0.4739 -0.3120
  346MOL0     C46589   1.072   6.695   5.807 -0.9193  0.1232 -0.2329
  346MOL0     C46590   1.041   6.815   5.897 -0.1599 -0.3994  0.0283
  346MOL0     C46591   0.924   6.907   5.848 -0.8542 -0.8210  0.0621
  346MOL0     N46592   0.792   6.848   5.860 -0.5223 -0.5040  0.2278
  346MOL0     C46593   0.699   6.827   5.764 -0.3647 -0.7543  1.0116
  346MOL0     C46594   0.606   6.740   5.818 -0.3506 -0.1182 -0.8267
  346MOL0     C46595   0.489   6.694   5.752  0.6481 -0.0066  0.1627
  346MOL0     C46596   0.391   6.817   5.735  0.1952  0.5057 -0.4526
  346MOL0     C46597   0.277   6.807   5.632 -0.1892 -0.2797 -0.1013
  346MOL0     C46598   0.161   6.716   5.664  0.0671 -0.1628  0.6890
  346MOL0     O46599   0.209   6.575   5.645 -0.3693  0.3699  0.2801
  346MOL0     C46600   0.122   6.467   5.637 -0.4207 -0.2653 -0.3683
  346MOL0     C46601   0.170   6.341   5.670 -0.2823 -0.4469  1.3776
  346MOL0     C46602   0.091   6.225   5.657  0.1620 -0.8825 -0.1099
  346MOL0     C46603   0.168   6.105   5.686  0.0170  0.1070  0.6653
  346MOL0     C46604  -0.047   6.242   5.623 -0.2486  0.2775  0.3916
  346MOL0     C46605  -0.147   6.134   5.622  0.4485  0.2697  0.9346
  346MOL0     O46606  -0.260   6.146   5.550  0.2840 -0.2816  0.2541
  346MOL0     C46607  -0.349   6.046   5.563 -0.5017  0.1576 -0.6520
  346MOL0     C46608  -0.348   5.940   5.472  1.1943 -1.0975  0.5987
  346MOL0     C46609  -0.430   5.831   5.472 -0.0996  0.0875 -0.7285
  346MOL0     C46610  -0.515   5.815   5.582  0.1167  0.6559  1.2469
  346MOL0     O46611  -0.591   5.700   5.590  0.4508  0.4489  0.6664
  346MOL0     C46612  -0.702   5.698   5.677 -0.0935 -0.7487 -0.6973
  346MOL0     C46613  -0.780   5.569   5.647  0.1342 -0.0078 -0.2040
  346MOL0     C46614  -0.877   5.584   5.533  0.4934 -0.8306 -0.4524
  346MOL0     C46615  -0.988   5.479   5.552  0.0236  0.1239  0.1656
  346MOL0     C46616  -1.088   5.487   5.434  0.3215  0.3796 -0.0684
  346MOL0     C46617  -1.191   5.368   5.440  0.2095 -0.4575  0.0865
  346MOL0     C46618  -1.293   5.410   5.329  0.4041  0.6307  0.2979
  346MOL0     C46619  -1.372   5.287   5.285 -0.1788  0.9171 -0.2708
  346MOL0    Cl46620  -1.507   5.267   5.393  0.1367 -0.1263 -0.2350
  346MOL0     C46621  -0.521   5.922   5.677  0.4493 -0.1294 -0.3044
  346MOL0     C46622  -0.445   6.040   5.667  0.2672 -0.7329  0.3739
  346MOL0     O46623  -0.125   6.041   5.701 -0.1226  0.3152 -0.5478
  346MOL0     C46624  -0.095   6.364   5.610  0.2686 -0.6451 -1.3083
  346MOL0     C46625  -0.017   6.481   5.620 -0.5564  0.4219  0.1862
  346MOL0     N46626   0.649   6.718   5.952 -0.1094  0.4131  0.1802
  346MOL0     N46627   0.754   6.785   5.980 -0.7395  0.8025  0.4043
  346MOL0     C46628   0.851   6.254   5.327 -0.5628  0.2749  0.5553
  346MOL0     C46629   0.753   6.171   5.265 -0.3126 -0.3557 -0.5983
  346MOL0     C46630   0.578   5.736   5.213 -0.5610  0.5072 -0.2356
  346MOL0     C46631   0.572   5.602   5.258 -0.0695  0.2889  0.2549
  346MOL0     C46632   0.472   5.520   5.203  0.3057  0.0365  0.0671
  346MOL0     C46633   0.392   5.552   5.096  0.2271 -1.1844  0.3247
  346MOL0     O46634   0.296   5.473   5.027 -0.2525  0.6159 -0.5287
  346MOL0     C46635   0.301   5.326   5.049 -0.3097 -0.5340  0.5844
  346MOL0     C46636   0.292   5.241   4.933  0.0375 -0.3345 -0.2103
  346MOL0     C46637   0.145   5.246   4.885  0.2078  0.0703  0.1972
  346MOL0     C46638   0.058   5.135   4.966  0.2931  0.3810 -0.4910
  346MOL0     C46639  -0.045   5.080   4.879 -0.8063  0.4641 -0.8190
  346MOL0     C46640  -0.120   5.015   4.814  0.1269  0.1953 -0.4776
  346MOL0     C46641   0.394   5.693   5.061 -0.5688  1.0402 -0.1255
  346MOL0     C46642   0.486   5.783   5.121  0.7335  0.3251 -0.0848
  346MOL0     H46643   0.950   5.895   5.231 -1.5293 -0.4890  0.6537
  346MOL0     H46644   1.130   6.065   5.304  1.2234  2.9154  0.0741
  346MOL0     H46645   1.070   6.172   5.591  0.1777  1.2059 -0.3201
  346MOL0     H46646   1.209   6.153   5.495  2.8610 -1.0048  5.4169
  346MOL0     H46647   1.304   6.289   5.647  0.9677  2.9713  0.0012
  346MOL0     H46648   1.260   6.392   5.521  0.9144  1.8807  1.8988
  346MOL0     H46649   1.058   6.469   5.660 -0.1579 -1.5293 -1.8153
  346MOL0     H46650   1.126   6.357   5.787 -1.3390 -1.3926 -1.3908
  346MOL0     H46651   1.335   6.475   5.772 -1.0174 -0.9154 -1.2618
  346MOL0     H46652   1.276   6.608   5.662  0.5591 -0.1426 -0.5562
  346MOL0     H46653   1.174   6.549   5.933 -0.0487 -0.8973 -0.8148
  346MOL0     H46654   1.272   6.687   5.891  0.4041 -0.0131 -0.9025
  346MOL0     H46655   1.085   6.734   5.705 -1.2129  0.4592 -0.1434
  346MOL0     H46656   0.990   6.622   5.802  1.1917 -2.4314  0.0156
  346MOL0     H46657   1.009   6.768   5.991 -1.2884  0.6269  0.1811
  346MOL0     H46658   1.133   6.871   5.912 -0.2544 -0.5736  1.4632
  346MOL0     H46659   0.944   6.921   5.741  1.0265 -1.8383  0.2287
  346MOL0     H46660   0.923   7.006   5.895  0.9849  0.4731 -2.3843
  346MOL0     H46661   0.691   6.860   5.660  0.1958 -1.8364  0.6141
  346MOL0     H46662   0.516   6.651   5.655 -0.6993 -2.6089  0.8460
  346MOL0     H46663   0.449   6.610   5.809 -1.0251  0.0345 -0.8561
  346MOL0     H46664   0.445   6.907   5.706  0.7142  0.5844  0.7002
  346MOL0     H46665   0.352   6.846   5.833 -4.9987  0.1782 -2.1074
  346MOL0     H46666   0.320   6.786   5.534  0.0488  0.4863 -0.1729
  346MOL0     H46667   0.238   6.909   5.642  2.9305  0.9019  1.5034
  346MOL0     H46668   0.074   6.741   5.603  0.3815 -2.3987 -0.7808
  346MOL0     H46669   0.131   6.724   5.769  1.9778 -1.4903  1.3941
  346MOL0     H46670   0.272   6.346   5.706  1.3879  1.0926 -2.8502
  346MOL0     H46671   0.277   6.114   5.685  0.1393 -1.1886  0.2338
  346MOL0     H46672   0.143   6.059   5.782  0.8884 -2.3251 -0.2024
  346MOL0     H46673   0.148   6.024   5.615  1.6627 -2.2272  2.7178
  346MOL0     H46674  -0.275   5.951   5.392  2.2134  0.5718  1.6896
  346MOL0     H46675  -0.434   5.762   5.388 -1.9540 -2.4114  1.2771
  346MOL0     H46676  -0.670   5.683   5.781 -0.5201 -0.4140 -0.5140
  346MOL0     H46677  -0.759   5.791   5.664  1.4305  0.1514 -1.2546
  346MOL0     H46678  -0.704   5.492   5.633 -1.1558 -1.5187  0.7979
  346MOL0     H46679  -0.831   5.531   5.736  0.5299 -0.9843 -0.3838
  346MOL0     H46680  -0.822   5.572   5.439  1.5156 -1.7077  0.2266
  346MOL0     H46681  -0.927   5.679   5.552  0.1665 -1.0688 -0.1176
  346MOL0     H46682  -0.944   5.379   5.562  1.0621 -0.0424 -4.0042
  346MOL0     H46683  -1.043   5.507   5.642  1.3442  1.9405  0.4699
  346MOL0     H46684  -1.025   5.488   5.345  1.9335  2.4587  1.0063
  346MOL0     H46685  -1.137   5.585   5.443  2.6017  1.5142  0.9342
  346MOL0     H46686  -1.143   5.271   5.422  1.0868  0.1742 -1.1455
  346MOL0     H46687  -1.248   5.363   5.534  2.0943  0.0951  1.3337
  346MOL0     H46688  -1.242   5.447   5.240 -0.9567  1.9573  0.0422
  346MOL0     H46689  -1.365   5.485   5.363 -1.0101 -0.4364 -0.2538
  346MOL0     H46690  -1.306   5.200   5.279 -0.8212 -0.3220  5.1207
  346MOL0     H46691  -1.413   5.293   5.184 -4.5608  0.5188  1.2796
  346MOL0     H46692  -0.591   5.905   5.759  2.4985 -2.2150  1.1180
  346MOL0     H46693  -0.457   6.111   5.749 -1.3148 -1.5373  0.8784
  346MOL0     H46694  -0.202   6.383   5.601 -0.3475 -3.6019 -1.2726
  346MOL0     H46695  -0.066   6.578   5.625  1.6018  1.5383  1.3623
  346MOL0     H46696   0.821   6.351   5.364 -1.9810  0.0488  0.0488
  346MOL0     H46697   0.648   6.196   5.252  0.2752  3.1952  0.3044
  346MOL0     H46698   0.635   5.568   5.340  0.6144 -0.1318 -0.4354
  346MOL0     H46699   0.461   5.418   5.239 -2.0758  0.3020  0.2630
  346MOL0     H46700   0.395   5.298   5.096  0.3425  1.0060  0.2812
  346MOL0     H46701   0.228   5.295   5.124 -0.3086 -2.4485 -0.1753
  346MOL0     H46702   0.326   5.143   4.966 -1.5913 -0.1037  2.3687
  346MOL0     H46703   0.357   5.278   4.853 -0.6052  0.4361 -0.3877
  346MOL0     H46704   0.145   5.209   4.782 -3.7761 -0.8258  0.3485
  346MOL0     H46705   0.100   5.345   4.890  0.1116 -0.0261  1.8763
  346MOL0     H46706   0.013   5.188   5.051 -0.2229  3.2150 -2.3786
  346MOL0     H46707   0.128   5.055   4.992  0.7150  1.1970  1.0717
  346MOL0     H46708  -0.180   4.952   4.752 -0.3601 -1.9048  1.9134
  346MOL0     H46709   0.316   5.739   5.001 -1.0331 -0.5107 -0.7663
  346MOL0     H46710   0.476   5.889   5.102 -1.2562 -0.0050 -1.1280
  347MOL0     O46711   5.905   0.053   0.580 -0.3236 -0.6273 -0.1536
  347MOL0     C46712   5.928  -0.067   0.594 -0.0165  0.3292  0.5118
  347MOL0     O46713   5.842  -0.162   0.547 -0.0047 -0.2229 -0.3020
  347MOL0     C46714   5.773  -0.139   0.435 -0.2059 -0.6203 -0.2527
  347MOL0     C46715   5.637  -0.139   0.434  0.5772 -0.0366  0.1464
  347MOL0     C46716   5.566  -0.120   0.317  0.1310  0.9135  0.3011
  347MOL0     C46717   5.637  -0.111   0.191  0.1044 -0.6886 -0.5435
  347MOL0     O46718   5.573  -0.091   0.072 -0.6623 -0.1144 -0.1166
  347MOL0     C46719   5.494   0.033   0.071 -0.1792 -0.7509 -0.1468
  347MOL0     C46720   5.427   0.036  -0.059 -0.0371  0.0482  0.3525
  347MOL0     C46721   5.341   0.155  -0.071 -0.3532 -0.1853 -0.7479
  347MOL0     C46722   5.250   0.160  -0.194 -0.1140 -0.1512 -0.7377
  347MOL0     C46723   5.143   0.264  -0.181  0.6210 -0.6513  0.6182
  347MOL0     C46724   5.068   0.289  -0.309 -0.0249  0.5278 -0.1539
  347MOL0     C46725   4.982   0.422  -0.275 -0.5914 -0.8155 -0.1214
  347MOL0     C46726   4.878   0.444  -0.374 -0.2889  0.1797 -0.3470
  347MOL0     N46727   4.787   0.555  -0.336 -0.2860 -0.3545 -0.1392
  347MOL0     C46728   4.814   0.689  -0.356 -0.0513  0.0502 -0.3177
  347MOL0     C46729   4.695   0.749  -0.344 -0.3747 -1.6015  0.4674
  347MOL0     C46730   4.672   0.899  -0.354 -0.6086 -0.0169 -0.3135
  347MOL0     C46731   4.699   0.969  -0.222  0.3478  0.0527 -0.1551
  347MOL0     C46732   4.626   0.909  -0.103  0.3182  0.6573 -0.9475
  347MOL0     C46733   4.675   1.004   0.015 -0.2818  0.0829 -0.1203
  347MOL0     O46734   4.610   0.956   0.130 -0.1295 -0.0858  0.1927
  347MOL0     C46735   4.474   0.956   0.151 -0.6671 -0.6508 -0.3262
  347MOL0     C46736   4.432   0.908   0.273  0.1866  0.2153  1.0686
  347MOL0     C46737   4.296   0.903   0.309  0.4720 -0.3723  0.1895
  347MOL0     C46738   4.260   0.847   0.445  0.2002  0.2604 -0.3702
  347MOL0     C46739   4.202   0.966   0.222  0.7022  0.6560  0.5205
  347MOL0     C46740   4.049   0.971   0.250 -0.2127  0.1360  0.2055
  347MOL0     O46741   4.005   0.897   0.358  0.2586  0.5561  0.1770
  347MOL0     C46742   3.874   0.922   0.402  0.5428  0.5153 -0.6515
  347MOL0     C46743   3.789   0.821   0.438 -0.2772  0.0139  0.0914
  347MOL0     C46744   3.656   0.847   0.476 -0.2949  0.4169  0.6636
  347MOL0     C46745   3.617   0.982   0.494  0.5975 -0.3846 -0.6296
  347MOL0     O46746   3.494   1.017   0.548  0.0091  0.2670 -0.1264
  347MOL0     C46747   3.373   0.961   0.491  0.0535  1.3190 -0.8432
  347MOL0     C46748   3.321   1.045   0.373  0.1605  0.9085 -0.3447
  347MOL0     C46749   3.204   0.972   0.313 -0.6089  0.8044 -0.1164
  347MOL0     C46750   3.177   1.014   0.170  0.5163  0.0478 -1.0898
  347MOL0     C46751   3.038   0.987   0.109  0.0679 -0.4181 -0.0958
  347MOL0     C46752   2.996   0.849   0.096  0.0508  0.3250  0.4971
  347MOL0     C46753   2.967   0.760   0.221 -0.5170  0.7028 -0.1014
  347MOL0     C46754   2.841   0.664   0.196 -0.6611 -0.5316 -0.2130
  347MOL0    Cl46755   2.685   0.751   0.166 -0.0642 -0.0594  0.2912
  347MOL0     C46756   3.704   1.081   0.476 -0.4143  0.6895  0.7104
  347MOL0     C46757   3.829   1.052   0.423  0.3604 -0.1881 -0.1952
  347MOL0     O46758   3.974   1.040   0.179  0.1292 -0.2163 -0.4622
  347MOL0     C46759   4.254   1.023   0.100 -0.0663 -0.3551 -0.6766
  347MOL0     C46760   4.383   1.017   0.069  0.4699 -0.5587  0.7818
  347MOL0     N46761   4.603   0.656  -0.309 -0.1058  0.0875 -0.3665
  347MOL0     N46762   4.654   0.534  -0.305 -0.5941 -0.4509 -0.0392
  347MOL0     C46763   5.772  -0.112   0.196 -0.5296  1.3586 -0.2888
  347MOL0     C46764   5.840  -0.132   0.318 -0.6240 -0.3120 -0.1056
  347MOL0     C46765   6.055  -0.115   0.652  0.7882  0.1896 -0.3748
  347MOL0     C46766   6.100  -0.250   0.628  0.7762  0.6915 -1.0319
  347MOL0     C46767   6.228  -0.295   0.664 -0.0253  0.2028  0.6135
  347MOL0     C46768   6.310  -0.208   0.740  0.9815  0.0280 -0.1171
  347MOL0     O46769   6.434  -0.257   0.765  0.4299 -0.0053  0.3921
  347MOL0     C46770   6.540  -0.183   0.826  1.0439 -0.2980 -0.3762
  347MOL0     C46771   6.663  -0.265   0.850 -0.2868  0.1395 -0.2769
  347MOL0     C46772   6.757  -0.192   0.957 -0.2580  0.8363  0.2748
  347MOL0     C46773   6.888  -0.274   0.976  0.0998 -0.1871  0.0505
  347MOL0     C46774   6.976  -0.267   0.858  0.4916  0.6461 -0.0461
  347MOL0     C46775   7.033  -0.264   0.747 -0.8237  0.3401  0.2108
  347MOL0     C46776   6.262  -0.085   0.781 -0.1949  0.7738  0.6900
  347MOL0     C46777   6.143  -0.033   0.731 -0.6960  0.2649  0.1570
  347MOL0     H46778   5.592  -0.153   0.531  0.1844 -1.8445 -0.2466
  347MOL0     H46779   5.459  -0.106   0.306  0.0748  0.1118 -0.3178
  347MOL0     H46780   5.422   0.037   0.154 -1.6618 -0.3567 -1.4136
  347MOL0     H46781   5.553   0.125   0.072 -1.1744 -0.0928 -0.5524
  347MOL0     H46782   5.514   0.047  -0.124  1.3261 -1.0575  1.9172
  347MOL0     H46783   5.365  -0.054  -0.063 -1.9379  1.2081  2.0437
  347MOL0     H46784   5.281   0.170   0.019  0.2333  2.1500 -0.6688
  347MOL0     H46785   5.400   0.246  -0.086  1.4696 -1.6858 -3.5376
  347MOL0     H46786   5.313   0.181  -0.280 -0.5963  2.9286 -0.4426
  347MOL0     H46787   5.202   0.062  -0.196 -1.2780  0.1416  3.2946
  347MOL0     H46788   5.071   0.222  -0.110  0.4467 -0.9738  0.2544
  347MOL0     H46789   5.177   0.362  -0.148 -4.6591  1.4041  0.8898
  347MOL0     H46790   5.142   0.303  -0.388  0.0216 -2.5246 -0.7462
  347MOL0     H46791   4.994   0.211  -0.327 -1.5487  2.1233 -1.1360
  347MOL0     H46792   4.933   0.402  -0.180 -1.1787  0.3176 -0.1693
  347MOL0     H46793   5.043   0.513  -0.272 -1.2578 -0.3085 -1.1393
  347MOL0     H46794   4.824   0.349  -0.378  0.4835 -0.2635 -0.5073
  347MOL0     H46795   4.924   0.467  -0.470  0.6395  0.3477  0.1298
  347MOL0     H46796   4.909   0.740  -0.369  0.8471 -0.9406  1.9431
  347MOL0     H46797   4.746   0.937  -0.425  1.4235 -0.4614  1.4399
  347MOL0     H46798   4.572   0.927  -0.387 -0.8286 -0.2443  0.1537
  347MOL0     H46799   4.663   1.073  -0.223 -0.3416 -0.1657  0.8675
  347MOL0     H46800   4.805   0.978  -0.194 -0.6217  2.1622  3.5393
  347MOL0     H46801   4.668   0.810  -0.083  1.8952  1.4246 -0.3042
  347MOL0     H46802   4.517   0.903  -0.113  0.1255  2.9590 -0.6923
  347MOL0     H46803   4.646   1.108  -0.003 -0.9179 -0.3374 -1.7185
  347MOL0     H46804   4.781   0.996   0.041 -0.3505 -2.0375 -0.2939
  347MOL0     H46805   4.506   0.881   0.347 -0.0876  1.7013  1.9248
  347MOL0     H46806   4.231   0.925   0.515 -1.7846 -1.0547  0.3886
  347MOL0     H46807   4.182   0.770   0.432 -1.0278  1.0259  1.9629
  347MOL0     H46808   4.348   0.802   0.492  0.9117 -0.5383 -2.3639
  347MOL0     H46809   3.818   0.717   0.424 -0.6577 -0.7163  3.7501
  347MOL0     H46810   3.578   0.774   0.490  0.0544  0.5070  3.7270
  347MOL0     H46811   3.385   0.857   0.459  0.8414  0.6060  1.5459
  347MOL0     H46812   3.303   0.957   0.575  0.8780  0.7537 -0.1624
  347MOL0     H46813   3.282   1.138   0.416  1.3559  1.1182  0.3326
  347MOL0     H46814   3.403   1.051   0.300 -0.1106  1.2344 -0.6283
  347MOL0     H46815   3.116   0.977   0.377 -0.2964  0.7820  0.3198
  347MOL0     H46816   3.223   0.864   0.305  0.4964  1.1010 -2.2194
  347MOL0     H46817   3.213   1.116   0.156 -2.2521  1.0918 -1.0702
  347MOL0     H46818   3.247   0.953   0.113 -1.1074 -2.2931 -0.7305
  347MOL0     H46819   3.042   1.032   0.010 -0.1508 -0.2251 -0.0196
  347MOL0     H46820   2.970   1.048   0.170 -1.0241 -0.6236 -1.0642
  347MOL0     H46821   2.907   0.858   0.033  1.8075 -0.4412 -2.2985
  347MOL0     H46822   3.075   0.791   0.048 -0.0281 -0.3302  1.1332
  347MOL0     H46823   2.942   0.815   0.312 -0.7783  0.1719  0.1514
  347MOL0     H46824   3.053   0.695   0.239 -0.9733 -0.6204 -2.3096
  347MOL0     H46825   2.835   0.584   0.271  2.6678  0.6333  1.5080
  347MOL0     H46826   2.874   0.622   0.101  0.0220  2.7207 -1.5382
  347MOL0     H46827   3.684   1.181   0.515 -2.1237  1.4042 -1.7551
  347MOL0     H46828   3.898   1.135   0.407 -0.8214  1.2001  1.4045
  347MOL0     H46829   4.194   1.068   0.022  2.4202  3.7256 -0.5070
  347MOL0     H46830   4.417   1.062  -0.023  0.5977 -0.5918  0.8125
  347MOL0     H46831   5.823  -0.124   0.100  1.8873 -1.0397  1.1536
  347MOL0     H46832   5.948  -0.148   0.316 -0.8834 -2.2243 -1.2767
  347MOL0     H46833   6.047  -0.324   0.568 -0.6587  0.1166  0.8637
  347MOL0     H46834   6.263  -0.395   0.640  1.5339  0.9839 -0.4822
  347MOL0     H46835   6.552  -0.091   0.769  0.9328  1.0819  1.6861
  347MOL0     H46836   6.508  -0.174   0.931 -1.9266 -2.7907 -0.9062
  347MOL0     H46837   6.709  -0.293   0.754 -1.8358  0.2125 -1.0716
  347MOL0     H46838   6.633  -0.350   0.912  1.0776  1.3697  2.2444
  347MOL0     H46839   6.715  -0.186   1.058 -0.6998 -1.3733  0.2569
  347MOL0     H46840   6.781  -0.090   0.923 -2.7322  1.7083  0.9058
  347MOL0     H46841   6.876  -0.378   1.008  3.8186 -0.7540  0.0940
  347MOL0     H46842   6.943  -0.226   1.058 -0.3639  3.5475 -1.6314
  347MOL0     H46843   7.074  -0.248   0.649 -5.6416  1.1670 -2.0043
  347MOL0     H46844   6.321  -0.015   0.840  2.3201 -2.0367  1.8042
  347MOL0     H46845   6.117   0.072   0.743 -1.0572  0.1805  0.1496
  348MOL0     O46846   8.009  10.581   4.250  0.0075 -0.1159 -0.2713
  348MOL0     C46847   7.920  10.619   4.173 -1.3893 -0.0466  2.1111
  348MOL0     O46848   7.893  10.748   4.147  0.1428 -0.0159 -0.0390
  348MOL0     C46849   7.975  10.854   4.190 -0.3678 -0.5935 -0.6960
  348MOL0     C46850   8.118  10.841   4.187  0.1908  0.1180 -1.3774
  348MOL0     C46851   8.197  10.946   4.233 -0.4727 -0.2855  0.8112
  348MOL0     C46852   8.145  11.069   4.283 -0.0881  0.9309 -0.2504
  348MOL0     O46853   8.227  11.165   4.337  0.1945  0.9960  0.0028
  348MOL0     C46854   8.357  11.112   4.386  0.6206 -0.7192 -1.1229
  348MOL0     C46855   8.429  11.204   4.483 -0.2144 -0.7355  0.9942
  348MOL0     C46856   8.426  11.351   4.419  0.4303 -0.0689 -0.6010
  348MOL0     C46857   8.482  11.437   4.526 -0.3650 -0.6302  0.6746
  348MOL0     C46858   8.406  11.447   4.654 -0.4295 -0.8890 -0.5691
  348MOL0     C46859   8.462  11.557   4.738  0.2760  1.2672  0.4794
  348MOL0     C46860   8.372  11.590   4.857 -0.0712 -0.2368 -0.0028
  348MOL0     C46861   8.352  11.482   4.953  0.4321 -0.0189 -0.4272
  348MOL0     N46862   8.300  11.531   5.087 -0.1446  0.0635 -0.0073
  348MOL0     C46863   8.166  11.527   5.128 -0.1879 -0.2161  0.9822
  348MOL0     C46864   8.167  11.558   5.257 -0.6725  0.3411  0.6627
  348MOL0     C46865   8.058  11.546   5.365 -0.9679 -0.3825 -0.8637
  348MOL0     C46866   7.930  11.467   5.325  0.7974  0.0154 -0.7067
  348MOL0     C46867   7.815  11.453   5.428  0.3806 -0.6929 -0.2578
  348MOL0     C46868   7.848  11.390   5.560 -0.3547  0.4501  0.4442
  348MOL0     O46869   7.740  11.411   5.654 -0.2525 -0.4277  0.4973
  348MOL0     C46870   7.638  11.322   5.669  0.4131 -0.6841 -0.5083
  348MOL0     C46871   7.633  11.181   5.646 -0.9319  0.1673 -0.0044
  348MOL0     C46872   7.516  11.109   5.669 -0.2183  0.2702 -0.3158
  348MOL0     C46873   7.536  10.962   5.649 -0.1301  0.2508  0.4945
  348MOL0     C46874   7.405  11.171   5.726 -0.0143 -0.6523  0.1469
  348MOL0     C46875   7.283  11.093   5.752 -0.2749  0.6165 -0.0483
  348MOL0     O46876   7.172  11.158   5.712  0.2829 -0.0518  0.1461
  348MOL0     C46877   7.047  11.104   5.731  0.6732  0.2245 -0.1273
  348MOL0     C46878   7.008  10.966   5.723  0.4052  0.6753 -0.2712
  348MOL0     C46879   6.878  10.930   5.730 -0.8404  0.7822 -0.3860
  348MOL0     C46880   6.777  11.023   5.745  0.0464 -0.1287  0.3565
  348MOL0     O46881   6.652  10.975   5.751  0.1155  0.1291 -0.1321
  348MOL0     C46882   6.544  11.056   5.709 -0.0295 -0.3323  0.5849
  348MOL0     C46883   6.429  10.958   5.721 -0.6650  0.2697 -0.2036
  348MOL0     C46884   6.295  11.009   5.675 -0.8817  1.1850  0.1341
  348MOL0     C46885   6.246  11.117   5.762 -0.7412 -0.0073  0.3997
  348MOL0     C46886   6.098  11.147   5.725 -0.2596 -0.1496  0.1222
  348MOL0     C46887   6.006  11.028   5.753 -0.4549 -0.1093 -0.1654
  348MOL0     C46888   5.863  11.070   5.762 -0.2679 -0.0114  0.8761
  348MOL0     C46889   5.774  10.948   5.787  0.5555  0.2620 -0.3676
  348MOL0    Cl46890   5.608  11.001   5.809  0.1131 -0.3343  0.0453
  348MOL0     C46891   6.813  11.156   5.737  0.2274 -0.5169 -0.7140
  348MOL0     C46892   6.943  11.199   5.728  0.1479 -0.5815  0.1253
  348MOL0     O46893   7.286  10.985   5.818 -0.1494 -0.4009  0.0736
  348MOL0     C46894   7.409  11.309   5.739  0.5871 -0.4272  0.0435
  348MOL0     C46895   7.521  11.386   5.714  0.6581 -0.4178 -0.4395
  348MOL0     N46896   8.298  11.570   5.296 -0.2198 -0.1938  0.2498
  348MOL0     N46897   8.377  11.551   5.194 -0.8440  0.1510  0.3510
  348MOL0     C46898   8.007  11.085   4.272  1.1261  0.7295 -0.2239
  348MOL0     C46899   7.923  10.979   4.224  0.0167  0.4879 -0.4881
  348MOL0     C46900   7.840  10.523   4.095  0.0215 -0.2683 -0.4612
  348MOL0     C46901   7.767  10.569   3.993  0.0688 -0.1441 -0.1703
  348MOL0     C46902   7.691  10.483   3.917 -0.1933  0.1184 -0.1729
  348MOL0     C46903   7.689  10.346   3.947 -0.6843  0.3259  1.5611
  348MOL0     O46904   7.605  10.273   3.872  0.5535  0.3538  0.2179
  348MOL0     C46905   7.633  10.134   3.859  0.0736 -0.3900  0.0631
  348MOL0     C46906   7.586  10.090   3.728  0.0042  0.3812  0.0223
  348MOL0     C46907   7.432  10.125   3.699 -1.0040 -1.0987 -0.9204
  348MOL0     C46908   7.405  10.070   3.564 -0.1676  0.7105  0.5176
  348MOL0     C46909   7.258  10.070   3.538 -0.0229 -0.1435  0.3408
  348MOL0     C46910   7.138  10.061   3.522  0.6074 -0.4180  0.3194
  348MOL0     C46911   7.779  10.295   4.035 -0.0866 -0.9598 -0.3068
  348MOL0     C46912   7.847  10.383   4.122  0.1768 -0.0433 -0.0326
  348MOL0     H46913   8.164  10.751   4.146 -0.6083 -0.5850 -0.7841
  348MOL0     H46914   8.304  10.929   4.229 -0.4625  0.0376 -0.6138
  348MOL0     H46915   8.344  11.013   4.431  0.6786  0.6886  2.2830
  348MOL0     H46916   8.427  11.099   4.302  1.2598 -0.7997 -0.5924
  348MOL0     H46917   8.393  11.200   4.587  0.7101 -1.8822  1.2960
  348MOL0     H46918   8.535  11.179   4.497 -0.2843 -0.4676  2.1788
  348MOL0     H46919   8.481  11.356   4.325  1.6361  3.0498  0.1487
  348MOL0     H46920   8.323  11.385   4.408  0.0532 -0.9102  0.1457
  348MOL0     H46921   8.585  11.409   4.550  1.0554  0.4935 -3.3941
  348MOL0     H46922   8.485  11.538   4.484 -0.1074 -0.4575  1.0971
  348MOL0     H46923   8.299  11.468   4.644 -0.5820  0.6477  2.8739
  348MOL0     H46924   8.425  11.360   4.716  0.5079  0.1490  0.6550
  348MOL0     H46925   8.561  11.521   4.769 -0.8027 -1.2081  1.2411
  348MOL0     H46926   8.473  11.643   4.671  0.0363 -0.6136 -2.1331
  348MOL0     H46927   8.415  11.677   4.907  0.7081  1.0174 -2.6506
  348MOL0     H46928   8.279  11.617   4.806  0.7534 -2.7500 -3.1904
  348MOL0     H46929   8.442  11.422   4.968  0.0806 -0.3361  0.5435
  348MOL0     H46930   8.276  11.422   4.901  1.0502 -0.5852 -0.6951
  348MOL0     H46931   8.086  11.501   5.059 -0.5494  1.8233  0.5695
  348MOL0     H46932   8.105  11.514   5.459  3.1995  1.4571 -2.0680
  348MOL0     H46933   8.013  11.645   5.380 -1.1962 -0.5880 -0.1522
  348MOL0     H46934   7.951  11.367   5.288 -3.3243 -1.1760 -0.2919
  348MOL0     H46935   7.889  11.536   5.250 -2.6364 -0.6913  0.3507
  348MOL0     H46936   7.726  11.404   5.387 -0.5244  0.7879 -0.1018
  348MOL0     H46937   7.788  11.556   5.450 -2.9522 -1.0389 -2.0557
  348MOL0     H46938   7.938  11.427   5.609  0.8923 -1.2757 -0.4489
  348MOL0     H46939   7.875  11.285   5.551 -0.3901  0.4708  0.0736
  348MOL0     H46940   7.721  11.144   5.594 -1.6581  0.7684 -1.7392
  348MOL0     H46941   7.454  10.931   5.583 -0.2727  1.3377  0.1318
  348MOL0     H46942   7.627  10.933   5.597 -1.3032 -2.3258 -0.3098
  348MOL0     H46943   7.538  10.914   5.747  1.6858 -1.8573 -0.5033
  348MOL0     H46944   7.082  10.890   5.702 -1.0072 -0.6129 -0.7329
  348MOL0     H46945   6.849  10.825   5.723  0.8895  0.3303 -1.3431
  348MOL0     H46946   6.534  11.144   5.774 -0.4824  0.0985 -0.0518
  348MOL0     H46947   6.550  11.077   5.602 -0.5000 -2.2851  0.1395
  348MOL0     H46948   6.460  10.863   5.676 -1.0598  0.9075 -1.8574
  348MOL0     H46949   6.425  10.923   5.825 -0.9170 -0.7284 -0.5333
  348MOL0     H46950   6.231  10.921   5.668  1.4219 -0.5269 -0.3636
  348MOL0     H46951   6.315  11.051   5.576  0.3575 -1.0932 -0.6414
  348MOL0     H46952   6.255  11.076   5.863  3.6379  0.9536  0.6109
  348MOL0     H46953   6.315  11.200   5.745  0.8299 -1.7143 -2.1911
  348MOL0     H46954   6.097  11.183   5.621 -0.3496 -0.2572  0.0850
  348MOL0     H46955   6.057  11.230   5.782 -1.7967 -0.9031  0.1594
  348MOL0     H46956   6.019  10.966   5.664  1.5110 -0.1808  0.1373
  348MOL0     H46957   6.032  10.969   5.841  0.0962  1.9246  1.0945
  348MOL0     H46958   5.841  11.108   5.661 -2.0343 -1.9647  0.4431
  348MOL0     H46959   5.844  11.143   5.841 -2.4639 -0.6587  1.0328
  348MOL0     H46960   5.805  10.897   5.878  0.2425 -0.1002 -0.4618
  348MOL0     H46961   5.794  10.880   5.703 -3.4923 -2.4412  0.5972
  348MOL0     H46962   6.732  11.228   5.729  0.9272  0.5339  1.1275
  348MOL0     H46963   6.964  11.303   5.703 -2.0085 -0.0921  0.1341
  348MOL0     H46964   7.326  11.357   5.790 -0.6547 -2.0358 -0.3967
  348MOL0     H46965   7.517  11.492   5.735  0.1271 -0.3711 -0.7538
  348MOL0     H46966   7.958  11.171   4.317  0.8633 -1.0824  3.3302
  348MOL0     H46967   7.816  10.992   4.219  0.2141  2.0712 -0.9514
  348MOL0     H46968   7.772  10.673   3.961 -2.6177  0.4236  0.9298
  348MOL0     H46969   7.617  10.533   3.855 -3.1957  4.5635  6.0390
  348MOL0     H46970   7.739  10.110   3.859  0.9571  2.9926  0.1233
  348MOL0     H46971   7.582  10.075   3.936  0.5538 -0.1388  0.5854
  348MOL0     H46972   7.600   9.981   3.730 -0.4233  0.3289  0.4898
  348MOL0     H46973   7.653  10.131   3.652  0.6417 -0.5380  0.0659
  348MOL0     H46974   7.412  10.233   3.702  0.7552 -0.7034  2.8880
  348MOL0     H46975   7.366  10.087   3.777 -1.6872  0.0044 -0.9338
  348MOL0     H46976   7.428   9.963   3.559  1.2993  1.0007  0.5789
  348MOL0     H46977   7.462  10.110   3.479  0.2855 -0.2969  0.3294
  348MOL0     H46978   7.034  10.052   3.500  0.7635 -1.0620 -0.1776
  348MOL0     H46979   7.783  10.190   4.063 -0.9579 -0.9573 -0.1626
  348MOL0     H46980   7.895  10.344   4.211  1.5937  0.1362 -0.6795
  349MOL0     O46981  10.636   3.854   5.401  0.1896  0.2389 -0.2622
  349MOL0     C46982  10.652   3.962   5.452  0.3418 -0.3901  0.4266
  349MOL0     O46983  10.556   4.049   5.485 -0.4348 -0.0824  0.0883
  349MOL0     C46984  10.426   4.035   5.432  0.2162  0.4032  0.2073
  349MOL0     C46985  10.318   4.039   5.522 -0.7874 -0.3430  0.5055
  349MOL0     C46986  10.190   4.010   5.481  0.1934 -0.5355 -0.5129
  349MOL0     C46987  10.154   3.994   5.347 -0.5522  0.2877 -0.7857
  349MOL0     O46988  10.028   3.997   5.310  0.4046  0.5320  0.2911
  349MOL0     C46989   9.923   3.938   5.390  0.3024 -1.0085 -0.4507
  349MOL0     C46990   9.810   3.924   5.287  0.5683  0.7931 -0.3397
  349MOL0     C46991   9.667   3.935   5.351  0.3259  0.0206  0.4201
  349MOL0     C46992   9.564   3.930   5.240 -0.1299 -0.4358  0.0502
  349MOL0     C46993   9.429   3.937   5.318  0.6496  0.2316 -0.5185
  349MOL0     C46994   9.308   3.937   5.227 -0.5681  0.9003  0.4593
  349MOL0     C46995   9.186   3.939   5.311 -0.0124 -0.0270 -0.0897
  349MOL0     C46996   9.046   3.920   5.228  0.0551  0.4988 -0.2707
  349MOL0     N46997   8.935   3.951   5.320 -0.5377 -0.2480  0.3352
  349MOL0     C46998   8.893   4.071   5.356  0.2790  0.0026  0.6712
  349MOL0     C46999   8.806   4.053   5.458  0.2353 -0.6763  0.2087
  349MOL0     C47000   8.734   4.152   5.546 -0.4946 -0.8348  1.0186
  349MOL0     C47001   8.582   4.143   5.528 -0.2676  0.4388  0.1863
  349MOL0     C47002   8.517   4.058   5.638  0.1768 -0.9515  0.5410
  349MOL0     C47003   8.368   4.058   5.630 -0.3435 -0.0333  0.2352
  349MOL0     O47004   8.316   3.975   5.732  0.1849 -0.1039  0.1443
  349MOL0     C47005   8.182   3.986   5.780 -0.7761 -0.2470  0.1083
  349MOL0     C47006   8.149   3.904   5.888  0.3562  0.1851 -0.6913
  349MOL0     C47007   8.025   3.901   5.945 -0.6150  0.1682  0.5189
  349MOL0     C47008   8.012   3.802   6.060  0.3099 -0.3515 -0.2735
  349MOL0     C47009   7.925   3.988   5.897  0.9552 -0.5806  1.0442
  349MOL0     C47010   7.786   3.996   5.949 -0.2511  0.1899  0.0800
  349MOL0     O47011   7.734   4.113   5.944 -0.1103  0.4336  0.2150
  349MOL0     C47012   7.605   4.137   5.983 -0.5733 -0.5095  0.2566
  349MOL0     C47013   7.566   4.247   6.062 -0.1020  0.0211 -0.5617
  349MOL0     C47014   7.432   4.269   6.094  0.7147 -0.5306 -0.7680
  349MOL0     C47015   7.324   4.194   6.043 -0.0885 -0.6361 -0.2930
  349MOL0     O47016   7.196   4.232   6.084 -0.3511 -0.6406  0.2643
  349MOL0     C47017   7.087   4.171   6.011 -0.0708 -0.4439  0.1520
  349MOL0     C47018   6.960   4.224   6.062  0.0318 -0.0011 -0.3899
  349MOL0     C47019   6.926   4.358   6.002 -0.7262 -0.1101 -0.2638
  349MOL0     C47020   6.781   4.388   6.006  0.5383  0.4570 -0.0537
  349MOL0     C47021   6.747   4.534   5.998 -0.5624 -0.0849 -0.1733
  349MOL0     C47022   6.595   4.578   6.002 -0.5098  1.0397 -0.3142
  349MOL0     C47023   6.575   4.725   5.978  0.7218 -0.0537  1.2343
  349MOL0     C47024   6.432   4.766   5.987 -0.3428 -0.4661  0.3073
  349MOL0    Cl47025   6.329   4.692   5.852 -0.1334 -0.3325 -0.1057
  349MOL0     C47026   7.363   4.085   5.965  0.1220  0.4311 -0.0770
  349MOL0     C47027   7.498   4.056   5.929  0.0845  0.2811  0.1891
  349MOL0     O47028   7.748   3.902   6.018  0.2287  0.2041 -0.0578
  349MOL0     C47029   7.958   4.067   5.781  0.1952  0.3168 -0.3649
  349MOL0     C47030   8.088   4.071   5.732  0.1384  0.1589  0.0719
  349MOL0     N47031   8.812   3.919   5.487  0.3942 -0.1699 -0.6974
  349MOL0     N47032   8.884   3.854   5.400  0.7259 -0.0609  0.0219
  349MOL0     C47033  10.270   3.995   5.254  0.2761 -0.6339 -0.0313
  349MOL0     C47034  10.399   4.011   5.295  0.2259 -0.1860  0.3828
  349MOL0     C47035  10.790   4.004   5.487 -0.0121 -0.6792 -0.6528
  349MOL0     C47036  10.904   3.950   5.428  0.7559  0.2232 -0.5395
  349MOL0     C47037  11.030   3.987   5.479  0.6453  0.2537  0.2236
  349MOL0     C47038  11.049   4.080   5.589  0.3565  1.1648 -0.4936
  349MOL0     O47039  11.182   4.112   5.629  0.0797 -1.0494  0.1318
  349MOL0     C47040  11.295   4.075   5.545 -0.3234 -0.0605  0.6439
  349MOL0     C47041  11.417   4.138   5.612 -0.4414 -0.5464 -0.0455
  349MOL0     C47042  11.415   4.299   5.595  0.5120 -0.0137  0.0165
  349MOL0     C47043  11.541   4.371   5.644  1.2071  0.2973  0.3577
  349MOL0     C47044  11.649   4.347   5.549 -0.4685  0.0270 -0.2028
  349MOL0     C47045  11.749   4.327   5.479  0.3082  0.6478 -0.4213
  349MOL0     C47046  10.933   4.113   5.661 -0.7695  0.0415  0.2227
  349MOL0     C47047  10.803   4.084   5.609 -0.1975  0.0191 -0.1362
  349MOL0     H47048  10.347   4.058   5.625 -1.4781  1.5225  0.3985
  349MOL0     H47049  10.121   4.009   5.565  2.3258 -4.8568  1.5003
  349MOL0     H47050   9.945   3.845   5.444 -0.3374 -0.3812  0.9422
  349MOL0     H47051   9.896   4.005   5.472  0.4832 -0.7766 -0.5788
  349MOL0     H47052   9.821   3.989   5.200  2.4594 -1.3604 -1.8031
  349MOL0     H47053   9.818   3.823   5.247 -0.9590  0.0460  1.0719
  349MOL0     H47054   9.667   3.849   5.418  1.6176 -0.5713 -0.3068
  349MOL0     H47055   9.654   4.026   5.410 -2.8769  1.4809 -2.2233
  349MOL0     H47056   9.574   4.015   5.172 -1.7627 -0.7234 -0.5781
  349MOL0     H47057   9.566   3.840   5.179 -2.8510 -1.0228  0.7063
  349MOL0     H47058   9.430   3.857   5.392  0.1051  0.8012  0.1098
  349MOL0     H47059   9.421   4.031   5.373 -0.0652 -0.4203  0.5134
  349MOL0     H47060   9.303   4.030   5.169 -1.8228  0.8165  0.3998
  349MOL0     H47061   9.306   3.848   5.164 -1.1804 -0.0063  1.7335
  349MOL0     H47062   9.184   3.855   5.382 -0.3819  1.8413  2.2345
  349MOL0     H47063   9.197   4.038   5.357  2.6946  0.8399 -2.3186
  349MOL0     H47064   9.035   3.818   5.191 -3.4137 -0.0249  1.7853
  349MOL0     H47065   9.036   3.999   5.154  2.9353  3.2481  1.9799
  349MOL0     H47066   8.900   4.166   5.304  0.0233  1.0198  2.4222
  349MOL0     H47067   8.762   4.144   5.651  0.1047  2.1484  1.1560
  349MOL0     H47068   8.776   4.249   5.519 -0.7628 -0.2734  2.5346
  349MOL0     H47069   8.554   4.092   5.435 -3.0256  4.6418 -1.5939
  349MOL0     H47070   8.538   4.243   5.527 -0.3772  0.4875  2.8591
  349MOL0     H47071   8.553   4.086   5.738 -1.2002 -0.4428  0.9159
  349MOL0     H47072   8.558   3.961   5.612 -2.8703 -1.3622 -3.7231
  349MOL0     H47073   8.341   4.015   5.533  0.3213  3.3021 -1.5721
  349MOL0     H47074   8.334   4.162   5.637  0.3258  0.3615 -1.9057
  349MOL0     H47075   8.230   3.848   5.933 -0.1325 -0.3345 -0.4482
  349MOL0     H47076   8.110   3.778   6.103  0.7235  1.6549  0.0096
  349MOL0     H47077   7.955   3.842   6.145  1.2760  0.0926  0.1856
  349MOL0     H47078   7.965   3.710   6.026 -0.4715 -0.1529  0.2400
  349MOL0     H47079   7.645   4.313   6.096  2.2812 -2.2061 -1.4130
  349MOL0     H47080   7.403   4.352   6.157  2.2508 -1.3376  1.0942
  349MOL0     H47081   7.104   4.181   5.904  1.9566 -0.5722  0.4217
  349MOL0     H47082   7.084   4.065   6.036  0.5593 -0.3136  0.8193
  349MOL0     H47083   6.886   4.148   6.033  0.1037 -0.0756 -0.3783
  349MOL0     H47084   6.957   4.232   6.171 -0.9171 -1.7131 -0.2547
  349MOL0     H47085   6.960   4.354   5.898 -0.1472  2.8425 -0.2851
  349MOL0     H47086   6.980   4.436   6.057 -0.8148 -1.1976  1.4489
  349MOL0     H47087   6.734   4.330   5.926 -1.5815  1.5879  0.2983
  349MOL0     H47088   6.735   4.348   6.096 -1.2373  0.9734 -0.6861
  349MOL0     H47089   6.788   4.566   5.902  2.0161  0.9502  1.1988
  349MOL0     H47090   6.802   4.585   6.077  1.8246 -2.1392 -0.3863
  349MOL0     H47091   6.543   4.527   5.920 -2.9631  3.1202 -0.1843
  349MOL0     H47092   6.546   4.556   6.097 -1.9136  2.0452 -0.7772
  349MOL0     H47093   6.612   4.742   5.877  1.4884  0.9173  1.6623
  349MOL0     H47094   6.640   4.777   6.050  1.2688 -0.1531  0.8146
  349MOL0     H47095   6.430   4.874   5.970 -0.6678 -0.9998 -4.8356
  349MOL0     H47096   6.407   4.760   6.093  2.2017  0.1183  0.9970
  349MOL0     H47097   7.278   4.022   5.938  0.4509 -1.3390  2.5554
  349MOL0     H47098   7.528   3.987   5.850  1.4872  4.5958 -3.4653
  349MOL0     H47099   7.888   4.137   5.737  0.6451  1.4302  0.6290
  349MOL0     H47100   8.105   4.127   5.641  0.3455 -1.8945 -1.2349
  349MOL0     H47101  10.250   3.981   5.149 -0.9211  3.2664 -0.4760
  349MOL0     H47102  10.484   4.023   5.229  1.0572 -0.9069  1.2863
  349MOL0     H47103  10.900   3.884   5.341  0.9904 -1.8819  0.9770
  349MOL0     H47104  11.113   3.949   5.421 -0.8007 -2.1900 -0.4116
  349MOL0     H47105  11.293   3.965   5.546 -0.3005 -0.0948 -1.2141
  349MOL0     H47106  11.290   4.108   5.441 -1.3247  0.4036  0.8214
  349MOL0     H47107  11.501   4.090   5.561 -1.7557 -2.7748 -0.2690
  349MOL0     H47108  11.414   4.106   5.717 -0.4933 -0.8185 -0.1276
  349MOL0     H47109  11.343   4.350   5.660  3.2447  1.0849  2.4169
  349MOL0     H47110  11.397   4.326   5.491 -0.5456 -2.0328 -0.3853
  349MOL0     H47111  11.573   4.332   5.741 -2.5212 -3.0152  0.5040
  349MOL0     H47112  11.525   4.479   5.648 -2.6784 -0.0667 -0.9721
  349MOL0     H47113  11.838   4.310   5.422  0.2651  1.3914 -0.7340
  349MOL0     H47114  10.946   4.175   5.749  0.6378  0.3407 -0.1696
  349MOL0     H47115  10.713   4.115   5.662  0.5207 -1.1469  1.8915
  350MOL0     O47116   0.588   6.827   5.348  0.1438  0.1892  0.3680
  350MOL0     C47117   0.680   6.751   5.317 -0.2478  0.8480  0.0124
  350MOL0     O47118   0.669   6.640   5.244  0.0006 -0.1498  0.7040
  350MOL0     C47119   0.553   6.567   5.239  0.6129  0.6550 -0.2072
  350MOL0     C47120   0.523   6.501   5.114 -0.1855 -0.2249 -0.0977
  350MOL0     C47121   0.409   6.425   5.095  0.1416 -0.4012  0.9970
  350MOL0     C47122   0.325   6.408   5.198 -0.4548 -0.0803 -0.0502
  350MOL0     O47123   0.222   6.315   5.201  0.0187  0.2436  0.7951
  350MOL0     C47124   0.082   6.358   5.244 -0.8492 -0.3294  0.3178
  350MOL0     C47125  -0.023   6.338   5.139  0.7088  0.5691 -1.0987
  350MOL0     C47126   0.013   6.418   5.006 -0.2094 -0.0873 -0.3645
  350MOL0     C47127  -0.095   6.398   4.902 -0.1176  0.0075  0.2750
  350MOL0     C47128  -0.079   6.500   4.782  0.2517  0.2072  0.1733
  350MOL0     C47129  -0.157   6.434   4.658  0.7041 -0.1844 -0.3968
  350MOL0     C47130  -0.180   6.523   4.546  0.1632 -0.4973  0.1887
  350MOL0     C47131  -0.303   6.479   4.465  0.5473  0.1985  0.3119
  350MOL0     N47132  -0.313   6.545   4.334  0.2244 -0.3649  0.7257
  350MOL0     C47133  -0.230   6.547   4.231 -0.8424 -0.0855 -0.7966
  350MOL0     C47134  -0.281   6.626   4.135  1.2112 -0.7688 -0.2605
  350MOL0     C47135  -0.216   6.656   4.005  1.3743 -0.0879 -0.1187
  350MOL0     C47136  -0.153   6.799   4.001 -0.0146 -0.4767  0.6483
  350MOL0     C47137  -0.117   6.848   3.855 -0.3647 -0.4878 -1.9179
  350MOL0     C47138  -0.230   6.879   3.761 -0.1763 -0.0875 -0.0886
  350MOL0     O47139  -0.269   6.764   3.686  0.7555  0.2399 -1.0365
  350MOL0     C47140  -0.171   6.697   3.619 -0.9663 -0.2279  0.3368
  350MOL0     C47141  -0.059   6.758   3.554 -0.1273  0.5879 -0.1523
  350MOL0     C47142   0.046   6.684   3.500 -0.3823 -0.5803  0.4725
  350MOL0     C47143   0.165   6.758   3.445 -0.2643  0.6142  1.1599
  350MOL0     C47144   0.037   6.543   3.506 -0.1457  0.6820  0.7609
  350MOL0     C47145   0.141   6.447   3.440 -0.7722  0.3924 -0.4266
  350MOL0     O47146   0.092   6.325   3.412  0.7968 -0.3155 -0.2045
  350MOL0     C47147   0.174   6.236   3.348 -0.1928 -0.4451 -0.0585
  350MOL0     C47148   0.214   6.121   3.413  0.5834 -0.2356  0.8759
  350MOL0     C47149   0.291   6.027   3.351  0.1395  0.2708 -0.2753
  350MOL0     C47150   0.320   6.033   3.216 -0.4352 -0.2325 -0.2228
  350MOL0     O47151   0.417   5.943   3.179 -0.4876  0.7542  0.4877
  350MOL0     C47152   0.518   5.987   3.098 -0.2558  0.1911 -0.4262
  350MOL0     C47153   0.615   6.049   3.208  0.3468 -0.5543 -0.3813
  350MOL0     C47154   0.757   6.075   3.154 -0.9906 -0.2717  0.1307
  350MOL0     C47155   0.839   5.946   3.157 -0.2574 -0.3398  0.2522
  350MOL0     C47156   0.975   5.970   3.091 -0.2871 -0.1336  0.7081
  350MOL0     C47157   0.975   5.996   2.933 -0.0564 -0.6392  0.6772
  350MOL0     C47158   1.111   6.020   2.878 -0.5260  0.1162  0.0248
  350MOL0     C47159   1.144   6.165   2.868 -0.2524 -0.6760 -1.4864
  350MOL0    Cl47160   1.326   6.176   2.857  0.2464 -0.3754 -0.1897
  350MOL0     C47161   0.277   6.147   3.145  0.2580  0.3176  0.6460
  350MOL0     C47162   0.200   6.252   3.205 -0.2858  0.9111 -0.6034
  350MOL0     O47163   0.261   6.473   3.441 -0.6016  0.2930 -0.2559
  350MOL0     C47164  -0.078   6.484   3.556 -0.2364 -0.2842  0.2701
  350MOL0     C47165  -0.186   6.555   3.611 -0.4202  0.1738 -0.0784
  350MOL0     N47166  -0.407   6.675   4.178 -0.3170  0.9170  0.5619
  350MOL0     N47167  -0.416   6.623   4.298 -0.9530 -0.4809  0.5746
  350MOL0     C47168   0.345   6.480   5.320 -0.0114  0.4986  0.6240
  350MOL0     C47169   0.460   6.555   5.338  0.3838 -0.8640 -0.1270
  350MOL0     C47170   0.812   6.785   5.356  0.4611  0.0703  1.0380
  350MOL0     C47171   0.905   6.682   5.384 -0.6887  0.2480 -0.0747
  350MOL0     C47172   1.024   6.722   5.440  0.0828  0.3330  0.3475
  350MOL0     C47173   1.064   6.849   5.463  0.2780  0.3472 -1.3733
  350MOL0     O47174   1.186   6.859   5.518  0.5339  0.1143  0.3533
  350MOL0     C47175   1.233   6.989   5.546 -0.3586  1.1438 -0.5643
  350MOL0     C47176   1.383   6.972   5.597  0.1878 -0.1884 -0.3165
  350MOL0     C47177   1.398   6.918   5.746 -0.0293 -0.5970  0.1010
  350MOL0     C47178   1.413   7.014   5.864 -0.1051 -0.1675  0.0189
  350MOL0     C47179   1.287   7.084   5.867  0.5546 -1.1802 -0.4780
  350MOL0     C47180   1.186   7.154   5.873 -0.8094  0.3251  0.0206
  350MOL0     C47181   0.974   6.951   5.432 -0.0249  0.7051  0.1781
  350MOL0     C47182   0.846   6.914   5.376  0.0336 -0.9162 -0.4980
  350MOL0     H47183   0.600   6.516   5.039  0.5611 -0.3123  0.6382
  350MOL0     H47184   0.380   6.374   5.004 -0.2401 -1.5472  1.7375
  350MOL0     H47185   0.061   6.291   5.328  1.9307  0.1907  1.5387
  350MOL0     H47186   0.080   6.463   5.277  0.8637 -0.6292  1.5660
  350MOL0     H47187  -0.026   6.230   5.122 -0.0539  0.2099  1.0341
  350MOL0     H47188  -0.122   6.370   5.172  0.1927 -0.9921 -1.0566
  350MOL0     H47189   0.008   6.527   5.019  0.0889  0.1140 -1.8161
  350MOL0     H47190   0.111   6.381   4.975 -0.1994 -1.2292  0.9161
  350MOL0     H47191  -0.079   6.295   4.867 -0.2602  0.2951 -0.6697
  350MOL0     H47192  -0.197   6.416   4.938 -0.9577  0.3236 -2.0776
  350MOL0     H47193  -0.132   6.593   4.803 -1.7100 -0.1286 -2.6857
  350MOL0     H47194   0.028   6.517   4.762  0.7143 -0.8837  1.5504
  350MOL0     H47195  -0.114   6.334   4.642  0.6061  0.0267 -2.1276
  350MOL0     H47196  -0.254   6.399   4.695  1.1983 -2.4075 -1.0500
  350MOL0     H47197  -0.191   6.626   4.582  2.1043  0.1702 -0.9919
  350MOL0     H47198  -0.098   6.518   4.474 -0.8583 -3.4824 -0.9021
  350MOL0     H47199  -0.389   6.502   4.528  0.4692 -0.3748  0.4199
  350MOL0     H47200  -0.297   6.370   4.456  1.4359  0.2918 -0.3986
  350MOL0     H47201  -0.144   6.482   4.219 -1.1834 -0.5722 -0.6340
  350MOL0     H47202  -0.135   6.582   3.997 -0.5578 -2.4311  0.7506
  350MOL0     H47203  -0.288   6.628   3.927  0.7180 -1.6283  0.9904
  350MOL0     H47204  -0.065   6.808   4.065 -0.7843  0.2790  1.6259
  350MOL0     H47205  -0.233   6.862   4.042 -1.0905 -1.0982 -0.4293
  350MOL0     H47206  -0.044   6.775   3.819  0.2759 -0.7917 -0.1161
  350MOL0     H47207  -0.052   6.935   3.865  0.7159 -1.5198  0.9735
  350MOL0     H47208  -0.200   6.950   3.683 -0.5689  1.5614  1.2207
  350MOL0     H47209  -0.317   6.929   3.805  1.0086  1.0970  0.9680
  350MOL0     H47210  -0.055   6.866   3.553  1.8080  0.5489 -1.1655
  350MOL0     H47211   0.187   6.707   3.350 -0.3991  1.5376  0.6221
  350MOL0     H47212   0.142   6.862   3.422  1.0976  0.5448 -0.7487
  350MOL0     H47213   0.248   6.749   3.516  0.2239  0.8685  0.6314
  350MOL0     H47214   0.173   6.107   3.513 -0.9319 -0.3462  0.2687
  350MOL0     H47215   0.324   5.950   3.419 -2.4190  1.1042  2.0938
  350MOL0     H47216   0.566   5.912   3.036 -0.3957  2.1734 -3.1138
  350MOL0     H47217   0.490   6.065   3.026  0.0534  1.5483  0.8509
  350MOL0     H47218   0.573   6.142   3.249  0.1709 -0.5716 -0.5257
  350MOL0     H47219   0.621   5.984   3.296 -1.3461  0.8673  0.8709
  350MOL0     H47220   0.815   6.147   3.212 -1.9894  0.9201 -0.2922
  350MOL0     H47221   0.760   6.106   3.049 -0.1439 -2.2674 -0.4946
  350MOL0     H47222   0.842   5.926   3.265 -1.0285 -0.1845  0.3043
  350MOL0     H47223   0.787   5.855   3.126 -1.5662 -0.3353  2.2675
  350MOL0     H47224   1.034   5.879   3.108 -1.0203 -0.4495  1.6364
  350MOL0     H47225   1.035   6.043   3.146  1.6980  0.1728 -1.6600
  350MOL0     H47226   0.940   5.901   2.892 -2.3189  0.1069  0.7310
  350MOL0     H47227   0.913   6.082   2.906  3.5909  2.1360  0.3760
  350MOL0     H47228   1.126   5.974   2.780  0.9507  3.1655 -1.3067
  350MOL0     H47229   1.184   5.972   2.943  2.1471  2.5762 -0.9693
  350MOL0     H47230   1.126   6.221   2.960 -1.2430 -2.4646 -0.5620
  350MOL0     H47231   1.084   6.214   2.791 -2.1938 -0.4026  0.1149
  350MOL0     H47232   0.299   6.160   3.039  0.0335  1.1035  0.6828
  350MOL0     H47233   0.173   6.343   3.152 -0.6612  0.4604 -1.1871
  350MOL0     H47234  -0.094   6.376   3.560  1.0541 -0.5154 -0.2344
  350MOL0     H47235  -0.271   6.496   3.645 -1.4405 -0.0012 -2.6909
  350MOL0     H47236   0.270   6.466   5.397  0.0262  0.8685  0.7313
  350MOL0     H47237   0.459   6.607   5.433  1.8530  1.2115 -1.1731
  350MOL0     H47238   0.881   6.577   5.374 -0.4969 -0.0480  2.1850
  350MOL0     H47239   1.093   6.642   5.462  1.6975  1.6417  0.2771
  350MOL0     H47240   1.223   7.055   5.459 -0.9489 -0.5540 -1.8386
  350MOL0     H47241   1.170   7.027   5.628  0.0448 -0.8490  0.7369
  350MOL0     H47242   1.421   7.075   5.589 -0.3175  0.0215 -0.0997
  350MOL0     H47243   1.443   6.912   5.529 -1.0939  0.0246 -1.6838
  350MOL0     H47244   1.491   6.860   5.750 -0.8102 -1.8287  1.1771
  350MOL0     H47245   1.316   6.847   5.760  0.3293 -1.0438 -0.0145
  350MOL0     H47246   1.500   7.079   5.849 -0.2349  0.1501  0.5991
  350MOL0     H47247   1.437   6.962   5.958  2.1614  0.6325 -0.0572
  350MOL0     H47248   1.095   7.211   5.877 -0.3299  1.1018  0.1616
  350MOL0     H47249   0.995   7.056   5.446 -2.1075  0.9527  2.1779
  350MOL0     H47250   0.763   6.982   5.357  0.2609 -1.2097 -2.8216
  351MOL0     O47251   1.137   2.788  10.166 -0.0401 -0.6213 -0.1701
  351MOL0     C47252   1.229   2.731  10.110 -0.2389 -0.6360  0.8074
  351MOL0     O47253   1.220   2.642  10.009 -0.4798 -0.1794  0.9666
  351MOL0     C47254   1.092   2.622   9.967 -0.2973 -0.5730  0.1530
  351MOL0     C47255   1.019   2.530  10.032  0.1607 -0.2620 -0.2924
  351MOL0     C47256   0.896   2.509   9.985  0.8078 -0.9969  0.2356
  351MOL0     C47257   0.827   2.585   9.884  0.0585 -0.7052 -0.1458
  351MOL0     O47258   0.697   2.551   9.864 -0.3264  0.1777  0.4246
  351MOL0     C47259   0.633   2.589   9.739  0.6506  0.3214  0.1235
  351MOL0     C47260   0.493   2.509   9.713 -0.1813 -0.1440 -0.7518
  351MOL0     C47261   0.441   2.540   9.570 -0.2376  0.2411  0.7408
  351MOL0     C47262   0.357   2.421   9.513 -1.0344 -0.5557 -0.7600
  351MOL0     C47263   0.293   2.494   9.392 -0.3233 -0.0356 -0.2214
  351MOL0     C47264   0.240   2.400   9.293 -0.4352  0.4954  0.8365
  351MOL0     C47265   0.178   2.466   9.160 -0.5674  0.2604 -0.1493
  351MOL0     C47266   0.128   2.372   9.044  0.1867  0.3977 -1.1651
  351MOL0     N47267   0.037   2.435   8.945 -1.4706 -0.5840  0.2838
  351MOL0     C47268  -0.061   2.520   8.960 -0.2814  0.0537 -0.1309
  351MOL0     C47269  -0.105   2.559   8.837 -0.1113  0.6833 -0.3062
  351MOL0     C47270  -0.227   2.640   8.794 -0.3760  0.3638 -1.5000
  351MOL0     C47271  -0.336   2.545   8.748  0.0601  0.1062  0.3348
  351MOL0     C47272  -0.371   2.440   8.854  0.2647 -0.0264 -0.7031
  351MOL0     C47273  -0.502   2.364   8.835  1.5090 -0.1513  0.5089
  351MOL0     O47274  -0.500   2.291   8.707  0.1090  0.2891 -0.6507
  351MOL0     C47275  -0.610   2.213   8.685 -0.1096  0.0342 -0.4562
  351MOL0     C47276  -0.735   2.229   8.761 -0.0470  1.0436  0.5696
  351MOL0     C47277  -0.847   2.161   8.725  0.8243  0.7411  0.1211
  351MOL0     C47278  -0.957   2.170   8.825  0.3955  0.2275  0.4146
  351MOL0     C47279  -0.849   2.066   8.614 -0.4614 -0.9549 -1.2370
  351MOL0     C47280  -0.966   1.992   8.565  0.6069  0.2977  1.2309
  351MOL0     O47281  -0.945   1.886   8.470 -0.3764 -0.1363 -0.0132
  351MOL0     C47282  -1.011   1.772   8.489  0.2052 -0.0393  0.6986
  351MOL0     C47283  -1.049   1.701   8.371  0.0717 -0.3444 -0.2042
  351MOL0     C47284  -1.093   1.573   8.380  0.2822 -0.1936  0.3104
  351MOL0     C47285  -1.126   1.520   8.504  0.6125 -1.0126 -1.0772
  351MOL0     O47286  -1.186   1.397   8.511  0.6575 -0.7824  0.0602
  351MOL0     C47287  -1.204   1.328   8.633  0.2507 -0.5408 -0.1631
  351MOL0     C47288  -1.339   1.357   8.699 -0.1099  0.1235  0.4208
  351MOL0     C47289  -1.458   1.321   8.610 -0.3755  0.4343 -0.4967
  351MOL0     C47290  -1.579   1.385   8.679  0.4217 -0.0093 -1.4104
  351MOL0     C47291  -1.705   1.371   8.591 -0.2260 -0.4092  0.0101
  351MOL0     C47292  -1.825   1.458   8.641 -0.2546 -0.0342 -0.3842
  351MOL0     C47293  -1.929   1.461   8.528 -0.2267  0.5428 -0.5753
  351MOL0     C47294  -2.071   1.493   8.577  0.3772  0.0041 -0.4945
  351MOL0    Cl47295  -2.062   1.663   8.643  0.4258  0.4685  0.0215
  351MOL0     C47296  -1.091   1.589   8.622 -0.3634  0.7350  0.4749
  351MOL0     C47297  -1.034   1.714   8.619 -0.7195  0.5091 -0.5163
  351MOL0     O47298  -1.075   2.009   8.625 -0.4636 -0.5448  0.5826
  351MOL0     C47299  -0.727   2.063   8.540 -0.5110  0.2682 -0.2866
  351MOL0     C47300  -0.611   2.129   8.574 -0.2639  0.3887  0.9449
  351MOL0     N47301  -0.023   2.486   8.750 -0.2933  0.2640 -0.1394
  351MOL0     N47302   0.055   2.412   8.815 -0.4627 -0.1592 -0.9439
  351MOL0     C47303   0.907   2.690   9.824 -0.6435 -0.3114  0.1593
  351MOL0     C47304   1.041   2.701   9.863  0.2132 -0.1829  0.7991
  351MOL0     C47305   1.367   2.756  10.160 -0.8378 -0.0972  0.4958
  351MOL0     C47306   1.481   2.721  10.081  0.2135 -0.1338  0.0535
  351MOL0     C47307   1.611   2.745  10.114  0.0879 -0.3505 -0.7402
  351MOL0     C47308   1.631   2.787  10.243 -0.1390  0.6996 -0.0129
  351MOL0     O47309   1.762   2.788  10.292  0.2232 -0.1146  0.4628
  351MOL0     C47310   1.822   2.910  10.240  0.3230  0.4055  0.7460
  351MOL0     C47311   1.936   2.866  10.144  0.4199 -0.2239  0.8405
  351MOL0     C47312   2.046   2.968  10.156  0.6953 -0.4959  0.4478
  351MOL0     C47313   2.159   2.942  10.061  0.1197 -0.0012  0.9813
  351MOL0     C47314   2.256   3.041  10.046  0.5564 -0.3416 -0.3577
  351MOL0     C47315   2.339   3.135  10.044  0.4717  0.9231  0.0500
  351MOL0     C47316   1.522   2.829  10.326 -0.0867 -0.7728 -0.2153
  351MOL0     C47317   1.392   2.815  10.280 -0.1231  0.1643  0.1209
  351MOL0     H47318   1.064   2.479  10.117 -2.4182 -1.7844  0.2641
  351MOL0     H47319   0.841   2.433  10.038 -0.5624  0.4433  0.9696
  351MOL0     H47320   0.611   2.695   9.728 -1.0011 -0.0960 -0.8619
  351MOL0     H47321   0.698   2.557   9.658  1.4618 -1.9375  1.5574
  351MOL0     H47322   0.520   2.403   9.712  0.1018 -0.1278 -4.0147
  351MOL0     H47323   0.421   2.543   9.788  0.4273 -0.7304  0.1192
  351MOL0     H47324   0.389   2.636   9.564  1.1533  0.9499 -0.7899
  351MOL0     H47325   0.533   2.553   9.513 -1.5269  0.4528 -1.3745
  351MOL0     H47326   0.429   2.343   9.488  3.0379  0.9016  4.6185
  351MOL0     H47327   0.276   2.384   9.577 -2.1185  3.0377  0.1710
  351MOL0     H47328   0.217   2.564   9.430  0.4935  0.5075  0.4520
  351MOL0     H47329   0.366   2.548   9.332  1.6816 -1.5740  0.7273
  351MOL0     H47330   0.320   2.332   9.262 -0.6956  0.2333  0.7346
  351MOL0     H47331   0.164   2.339   9.342 -0.8938  1.3092  1.1454
  351MOL0     H47332   0.088   2.511   9.203 -0.6068 -1.3515  1.6086
  351MOL0     H47333   0.251   2.539   9.123  0.4048 -1.0349 -0.8901
  351MOL0     H47334   0.061   2.295   9.085 -0.3278  1.5591  0.2363
  351MOL0     H47335   0.213   2.316   9.004 -3.0490 -4.3018 -2.3122
  351MOL0     H47336  -0.091   2.569   9.052 -1.4331  1.9400 -1.4284
  351MOL0     H47337  -0.259   2.700   8.880  0.3421 -0.8374 -0.3506
  351MOL0     H47338  -0.190   2.700   8.710 -1.5049 -0.3856 -2.5596
  351MOL0     H47339  -0.312   2.489   8.657 -0.7720 -4.2055  2.4629
  351MOL0     H47340  -0.433   2.596   8.743 -0.4299 -0.8512 -0.2112
  351MOL0     H47341  -0.382   2.499   8.945 -1.1881 -2.6219  0.9383
  351MOL0     H47342  -0.288   2.371   8.875 -0.2476 -0.7256 -0.9310
  351MOL0     H47343  -0.578   2.443   8.835  0.2767 -1.2963  1.3702
  351MOL0     H47344  -0.519   2.290   8.914  0.5278 -0.0283  0.4204
  351MOL0     H47345  -0.745   2.297   8.845  0.3394 -0.1065  1.5849
  351MOL0     H47346  -0.981   2.068   8.855 -1.4647  0.8532  1.1775
  351MOL0     H47347  -0.937   2.238   8.909 -1.8648  0.8490  0.5033
  351MOL0     H47348  -1.050   2.204   8.779 -0.5992 -2.6741  0.0526
  351MOL0     H47349  -1.042   1.743   8.271 -1.4885 -0.2570 -0.3079
  351MOL0     H47350  -1.114   1.520   8.288 -0.7248 -0.3326  0.6017
  351MOL0     H47351  -1.200   1.220   8.613  1.6015 -1.0347  2.3889
  351MOL0     H47352  -1.125   1.343   8.707  0.6341 -1.4265 -0.3717
  351MOL0     H47353  -1.345   1.306   8.795 -0.2031 -0.2758  0.2085
  351MOL0     H47354  -1.339   1.464   8.721 -1.4028  0.1212  0.5536
  351MOL0     H47355  -1.465   1.212   8.597  0.9568  0.0454  1.5078
  351MOL0     H47356  -1.441   1.359   8.509  1.5032 -0.2177 -0.4659
  351MOL0     H47357  -1.598   1.340   8.776  0.9803  1.4391 -0.5925
  351MOL0     H47358  -1.573   1.492   8.701 -1.0991 -0.6416  2.9700
  351MOL0     H47359  -1.733   1.266   8.582  1.0486 -0.9004  1.2941
  351MOL0     H47360  -1.673   1.399   8.490 -0.0936 -1.5254 -0.2780
  351MOL0     H47361  -1.867   1.424   8.735  0.0183 -1.2270 -0.6836
  351MOL0     H47362  -1.789   1.560   8.658  0.1158 -0.6927  3.6228
  351MOL0     H47363  -1.934   1.362   8.482  2.8370 -0.3507  0.7149
  351MOL0     H47364  -1.904   1.530   8.447  1.3965 -1.1520 -1.6103
  351MOL0     H47365  -2.091   1.424   8.659  0.1749  1.8230  1.0615
  351MOL0     H47366  -2.144   1.489   8.496 -0.7471  1.6956  0.3753
  351MOL0     H47367  -1.113   1.556   8.723 -1.7289  0.4777  0.1094
  351MOL0     H47368  -1.002   1.757   8.713  1.7059 -1.3923 -0.3784
  351MOL0     H47369  -0.718   1.992   8.459 -0.1302  1.1499 -1.0423
  351MOL0     H47370  -0.515   2.131   8.523 -0.1439 -0.4023  1.1322
  351MOL0     H47371   0.866   2.757   9.750 -1.9064 -0.2698  0.8712
  351MOL0     H47372   1.095   2.780   9.812 -0.3885  0.8515  1.7109
  351MOL0     H47373   1.473   2.683   9.980  0.3058 -4.7914  1.5730
  351MOL0     H47374   1.693   2.723  10.047 -0.2812  1.6323 -1.9071
  351MOL0     H47375   1.758   2.977  10.182  0.3987  0.7145  1.0156
  351MOL0     H47376   1.849   2.968  10.328 -2.7606  1.9951  0.8004
  351MOL0     H47377   1.905   2.869  10.039 -1.7028 -2.1125  1.3298
  351MOL0     H47378   1.963   2.763  10.169  0.3080 -0.1180  1.4027
  351MOL0     H47379   2.087   2.981  10.257 -0.8860  1.5452  0.9025
  351MOL0     H47380   2.007   3.064  10.121  0.7977 -1.0558 -1.2803
  351MOL0     H47381   2.118   2.920   9.962  1.7967  2.1162 -0.2570
  351MOL0     H47382   2.212   2.858  10.106  3.6828  2.2253  1.2651
  351MOL0     H47383   2.409   3.216  10.047  0.1184  1.2058  0.9763
  351MOL0     H47384   1.542   2.858  10.429 -2.8540 -0.4861  0.3336
  351MOL0     H47385   1.314   2.842  10.350 -1.9854 -2.6204 -0.7125
  352MOL0     O47386   9.141   3.646   6.804  0.0944 -0.0782 -0.2328
  352MOL0     C47387   9.212   3.602   6.721 -0.2498 -0.8991  0.7173
  352MOL0     O47388   9.212   3.645   6.592  0.4339 -0.2368  0.3047
  352MOL0     C47389   9.146   3.755   6.540  0.5364  0.1230 -0.6231
  352MOL0     C47390   9.040   3.826   6.599 -0.1084 -0.7503  0.1116
  352MOL0     C47391   8.969   3.917   6.522  0.5259 -0.3560 -0.4399
  352MOL0     C47392   9.006   3.947   6.393 -0.4091 -0.7380 -0.0826
  352MOL0     O47393   8.950   4.057   6.331  0.0433 -0.3390  0.3602
  352MOL0     C47394   9.026   4.120   6.226  0.2055  0.4851 -0.2933
  352MOL0     C47395   8.984   4.266   6.205 -0.7758  0.5008 -0.0577
  352MOL0     C47396   8.841   4.279   6.156  0.0301 -1.4152  0.8083
  352MOL0     C47397   8.789   4.422   6.140  0.3957 -0.8779 -0.0814
  352MOL0     C47398   8.647   4.432   6.080 -0.9202 -1.2518 -0.8319
  352MOL0     C47399   8.625   4.333   5.966 -0.0684 -0.7105 -0.0026
  352MOL0     C47400   8.483   4.370   5.905 -0.5115 -0.2590 -0.7578
  352MOL0     C47401   8.481   4.474   5.794 -0.2421  0.5702 -0.3060
  352MOL0     N47402   8.338   4.477   5.755 -0.3825  0.1827  0.1060
  352MOL0     C47403   8.239   4.547   5.826  0.4903 -0.0497 -0.2546
  352MOL0     C47404   8.123   4.513   5.757 -0.5544  0.9415  0.0626
  352MOL0     C47405   7.972   4.541   5.780  0.4200 -0.4980  0.5835
  352MOL0     C47406   7.944   4.694   5.820 -0.1587  1.2992 -0.0897
  352MOL0     C47407   7.804   4.707   5.883 -0.0454  0.4586 -0.4451
  352MOL0     C47408   7.690   4.691   5.772 -0.2014 -0.0591  0.9056
  352MOL0     O47409   7.692   4.810   5.690 -0.3509 -0.4837 -0.7290
  352MOL0     C47410   7.584   4.835   5.615 -0.3615  0.3540  0.3259
  352MOL0     C47411   7.475   4.740   5.596 -0.1887 -0.0684 -1.1475
  352MOL0     C47412   7.359   4.764   5.524 -0.4436  0.1661  0.5817
  352MOL0     C47413   7.246   4.659   5.516 -0.6782 -0.3586  0.1566
  352MOL0     C47414   7.355   4.898   5.462  0.7601  0.1249  0.0710
  352MOL0     C47415   7.236   4.954   5.389 -0.2551  0.4372 -0.1630
  352MOL0     O47416   7.265   5.047   5.299  0.8051  0.8240 -0.5424
  352MOL0     C47417   7.161   5.057   5.204 -0.6700  0.5058  0.1483
  352MOL0     C47418   7.057   5.146   5.220  0.0946  0.0017 -0.6704
  352MOL0     C47419   6.962   5.158   5.118  0.6161 -0.6767 -0.1080
  352MOL0     C47420   6.966   5.084   5.002  0.1261  0.3103 -0.0800
  352MOL0     O47421   6.863   5.093   4.916 -0.4847 -0.2107 -0.3476
  352MOL0     C47422   6.886   5.130   4.782 -0.0002  1.1105 -0.5130
  352MOL0     C47423   6.779   5.238   4.740 -0.4368 -0.1508 -0.0024
  352MOL0     C47424   6.638   5.221   4.804  0.2356 -0.8799  0.7220
  352MOL0     C47425   6.547   5.338   4.752 -0.3496 -0.8582 -0.5340
  352MOL0     C47426   6.433   5.360   4.844  0.1371  0.3974 -0.5093
  352MOL0     C47427   6.344   5.461   4.783  0.1180  0.3680 -0.6647
  352MOL0     C47428   6.231   5.494   4.883  0.4903 -0.4025 -0.7013
  352MOL0     C47429   6.136   5.605   4.818  0.0437 -0.8169 -0.5184
  352MOL0    Cl47430   6.008   5.526   4.725  0.2710 -0.5067 -0.4005
  352MOL0     C47431   7.075   4.993   4.996 -0.3834  0.1692 -0.1895
  352MOL0     C47432   7.171   4.974   5.093 -0.2121 -0.5493  0.2089
  352MOL0     O47433   7.126   4.916   5.427  0.3446  0.0212 -0.0731
  352MOL0     C47434   7.457   4.990   5.485  0.0890 -0.7948  0.1981
  352MOL0     C47435   7.575   4.962   5.553  0.3105  0.0392 -0.3489
  352MOL0     N47436   8.160   4.425   5.657 -0.2619  0.2759  0.5572
  352MOL0     N47437   8.283   4.407   5.652 -0.3885  0.0556 -1.1264
  352MOL0     C47438   9.112   3.875   6.331  0.4918 -0.1305 -0.7953
  352MOL0     C47439   9.175   3.774   6.406 -0.8468 -1.9010 -0.0877
  352MOL0     C47440   9.323   3.510   6.758  1.3601  0.0780  0.8906
  352MOL0     C47441   9.401   3.451   6.655  0.1230 -0.4899 -0.5618
  352MOL0     C47442   9.498   3.355   6.680 -0.3874 -0.8511  0.2513
  352MOL0     C47443   9.533   3.324   6.813  0.0987  0.3552 -0.0911
  352MOL0     O47444   9.633   3.235   6.850  0.2654  0.8443 -0.2675
  352MOL0     C47445   9.719   3.182   6.741  0.4694 -0.3664 -0.7235
  352MOL0     C47446   9.844   3.125   6.796  0.1405 -0.8109 -0.3325
  352MOL0     C47447   9.847   2.973   6.833  0.3906  0.8202 -0.0734
  352MOL0     C47448   9.747   2.942   6.947  0.4205  1.3492  0.1790
  352MOL0     C47449   9.762   2.798   6.981  0.4036 -0.9974  0.8313
  352MOL0     C47450   9.770   2.678   6.993 -0.1725 -0.1424 -0.3507
  352MOL0     C47451   9.468   3.398   6.910  0.9851 -0.1547  0.0917
  352MOL0     C47452   9.349   3.480   6.885  0.5053  1.0376  0.6352
  352MOL0     H47453   9.008   3.804   6.700  4.2834  0.7721  2.1084
  352MOL0     H47454   8.886   3.981   6.553  1.0868  2.4536 -3.9990
  352MOL0     H47455   9.133   4.117   6.246 -0.0497 -0.1177  1.1564
  352MOL0     H47456   9.005   4.068   6.132  0.7444  2.3791 -1.5261
  352MOL0     H47457   8.989   4.312   6.304 -0.1297  1.1404 -0.3835
  352MOL0     H47458   9.047   4.319   6.133  0.3100  0.5881  0.9243
  352MOL0     H47459   8.839   4.224   6.062 -2.7950  0.0459 -0.1010
  352MOL0     H47460   8.769   4.228   6.221 -2.1222  0.2265 -0.1631
  352MOL0     H47461   8.796   4.483   6.230 -1.1678 -1.2388  0.3244
  352MOL0     H47462   8.862   4.464   6.070 -0.5554 -1.4943 -1.4847
  352MOL0     H47463   8.570   4.441   6.157 -0.7092  0.6629 -0.7922
  352MOL0     H47464   8.648   4.528   6.027  2.2649 -2.2595 -2.8745
  352MOL0     H47465   8.704   4.323   5.891 -1.2576  1.7523 -1.7320
  352MOL0     H47466   8.610   4.234   6.011 -1.3858  0.1858  1.6086
  352MOL0     H47467   8.457   4.275   5.857 -2.8010 -0.2113  0.2290
  352MOL0     H47468   8.409   4.392   5.983  2.0293  1.3498  1.3978
  352MOL0     H47469   8.537   4.452   5.703 -0.6384 -1.5875 -0.0638
  352MOL0     H47470   8.501   4.578   5.824 -0.8562  0.6373 -0.1284
  352MOL0     H47471   8.250   4.628   5.898 -3.6362  0.6254 -0.1804
  352MOL0     H47472   7.909   4.527   5.692 -1.0330  1.7962  1.1833
  352MOL0     H47473   7.938   4.472   5.858  1.1291  0.6605  1.9698
  352MOL0     H47474   7.954   4.762   5.735 -0.6316 -0.1454 -1.3444
  352MOL0     H47475   8.015   4.746   5.885 -0.5854  1.3010  0.3834
  352MOL0     H47476   7.804   4.809   5.923 -0.6281 -0.4065  1.9430
  352MOL0     H47477   7.781   4.626   5.954 -2.4475  0.3436 -1.2719
  352MOL0     H47478   7.592   4.690   5.821  0.0894  2.3906  1.6506
  352MOL0     H47479   7.694   4.603   5.706 -0.9718  1.9378 -1.9893
  352MOL0     H47480   7.482   4.640   5.637 -0.2904  0.5379  0.4159
  352MOL0     H47481   7.286   4.568   5.561 -0.4624 -0.9476 -1.1693
  352MOL0     H47482   7.162   4.679   5.583  0.3245 -0.9619  1.6409
  352MOL0     H47483   7.224   4.645   5.410 -1.3282  0.5404  0.1564
  352MOL0     H47484   7.051   5.208   5.308 -1.6806 -0.6786 -0.2740
  352MOL0     H47485   6.872   5.219   5.126  0.8192 -0.2216 -1.1865
  352MOL0     H47486   6.978   5.190   4.771  0.4882  0.5691  0.4944
  352MOL0     H47487   6.880   5.040   4.721 -1.2320  0.9360 -0.1601
  352MOL0     H47488   6.831   5.332   4.757  0.0199  0.0594 -2.2283
  352MOL0     H47489   6.765   5.233   4.631 -2.6267 -0.5802  0.2448
  352MOL0     H47490   6.641   5.228   4.913  1.0334 -0.9849  0.7148
  352MOL0     H47491   6.589   5.128   4.775 -1.0217 -0.6490  2.0142
  352MOL0     H47492   6.610   5.427   4.751  1.2714 -1.9466 -2.1843
  352MOL0     H47493   6.518   5.323   4.648 -2.1807 -0.5384 -0.1156
  352MOL0     H47494   6.464   5.402   4.940  0.4237  0.4509 -0.6238
  352MOL0     H47495   6.386   5.261   4.856  0.6755  0.0123 -1.4907
  352MOL0     H47496   6.411   5.547   4.769  1.5576 -0.9516 -2.3627
  352MOL0     H47497   6.312   5.428   4.684  0.9692  1.1824 -1.2303
  352MOL0     H47498   6.269   5.538   4.976 -0.5928 -0.4191 -0.2242
  352MOL0     H47499   6.168   5.411   4.917  1.5131 -0.8610  0.1071
  352MOL0     H47500   6.194   5.668   4.750  0.4740 -2.5056 -1.7463
  352MOL0     H47501   6.090   5.666   4.897  0.2939 -2.4762  0.9754
  352MOL0     H47502   7.078   4.951   4.896  2.7971 -1.0974  0.3305
  352MOL0     H47503   7.255   4.910   5.073 -0.5980 -0.6109 -1.3394
  352MOL0     H47504   7.434   5.093   5.461  2.7016 -0.6076 -1.9749
  352MOL0     H47505   7.649   5.041   5.562  2.1381 -1.7020  0.7309
  352MOL0     H47506   9.152   3.884   6.230  0.4183 -0.9432 -0.9049
  352MOL0     H47507   9.252   3.718   6.354  0.2689  1.3540 -2.3119
  352MOL0     H47508   9.374   3.465   6.550 -1.7142  1.0063  0.0460
  352MOL0     H47509   9.545   3.300   6.599 -2.2845 -0.8530 -0.8952
  352MOL0     H47510   9.666   3.096   6.699  0.7973  0.0115 -1.9357
  352MOL0     H47511   9.744   3.243   6.654 -0.8567  1.1696 -0.0754
  352MOL0     H47512   9.876   3.181   6.884  0.3633 -0.9727 -0.3110
  352MOL0     H47513   9.928   3.144   6.729  0.7918  0.5915  0.8383
  352MOL0     H47514   9.951   2.952   6.860  1.1923  1.7252 -2.2278
  352MOL0     H47515   9.825   2.914   6.743  0.9391  1.0111 -0.3322
  352MOL0     H47516   9.645   2.959   6.910 -0.0639 -0.6163  0.4810
  352MOL0     H47517   9.751   2.990   7.045  2.1036 -1.0801  1.3882
  352MOL0     H47518   9.781   2.574   7.015 -1.0307 -0.5097 -1.5527
  352MOL0     H47519   9.487   3.390   7.017 -2.4819 -0.8739  0.8027
  352MOL0     H47520   9.301   3.509   6.978 -0.1740 -2.5053  1.5234
  353MOL0     O47521   3.580   5.819   0.374  0.2314  0.6818  0.1989
  353MOL0     C47522   3.684   5.877   0.394 -0.3478 -0.4850 -0.5195
  353MOL0     O47523   3.765   5.928   0.292 -0.5324 -0.6899  0.5019
  353MOL0     C47524   3.717   5.922   0.168 -0.5778  0.2096  0.3392
  353MOL0     C47525   3.680   5.802   0.103 -0.1301  0.5344  0.4970
  353MOL0     C47526   3.631   5.810  -0.031  0.9519 -0.3474  0.4288
  353MOL0     C47527   3.629   5.928  -0.099  1.1811 -0.6412  0.4871
  353MOL0     O47528   3.578   5.949  -0.221  0.3375 -0.0565 -0.2650
  353MOL0     C47529   3.599   5.838  -0.313  0.0495  0.4958 -0.6862
  353MOL0     C47530   3.469   5.784  -0.377  0.4658 -0.0326  0.1279
  353MOL0     C47531   3.500   5.676  -0.487 -0.4851  0.8856 -0.3145
  353MOL0     C47532   3.365   5.613  -0.527  0.2240  0.4796  0.5251
  353MOL0     C47533   3.392   5.488  -0.613  0.9361 -0.4206  0.1911
  353MOL0     C47534   3.264   5.440  -0.678 -0.0080  0.2436  0.5447
  353MOL0     C47535   3.282   5.306  -0.738 -0.2995  0.6573 -0.7090
  353MOL0     C47536   3.147   5.254  -0.791 -0.3388  0.9215  0.3003
  353MOL0     N47537   3.054   5.345  -0.858  0.2280 -0.0094  0.1988
  353MOL0     C47538   2.945   5.411  -0.798 -0.7703  0.5036  0.3710
  353MOL0     C47539   2.880   5.476  -0.896 -1.1126 -0.4469  0.5585
  353MOL0     C47540   2.771   5.567  -0.877 -0.6234 -0.2790  0.6598
  353MOL0     C47541   2.636   5.505  -0.913  0.1930  0.2283 -0.6859
  353MOL0     C47542   2.518   5.599  -0.903  0.3444  0.0187 -0.5713
  353MOL0     C47543   2.396   5.549  -0.978  0.5873  0.1674 -0.5051
  353MOL0     O47544   2.323   5.466  -0.886  0.6199  0.9190 -0.1418
  353MOL0     C47545   2.183   5.455  -0.895 -0.8519  0.3201  0.0019
  353MOL0     C47546   2.117   5.483  -1.013  0.0452  0.3291  0.7692
  353MOL0     C47547   1.972   5.493  -1.012  0.0809 -0.3273  0.4969
  353MOL0     C47548   1.892   5.534  -1.134 -0.4754 -0.1732 -0.3290
  353MOL0     C47549   1.902   5.448  -0.894  0.5453  0.4930  0.2285
  353MOL0     C47550   1.757   5.428  -0.879  0.2396 -0.1980  0.0075
  353MOL0     O47551   1.709   5.478  -0.765  0.8892 -0.2793  0.1963
  353MOL0     C47552   1.577   5.464  -0.720  0.1162 -0.8837  0.1710
  353MOL0     C47553   1.560   5.387  -0.604  0.3727 -0.0042 -0.0326
  353MOL0     C47554   1.430   5.366  -0.550 -0.2247  0.4752  0.5164
  353MOL0     C47555   1.316   5.426  -0.610 -0.0748 -0.4521 -0.2240
  353MOL0     O47556   1.187   5.401  -0.560  0.0167  0.4510  0.8413
  353MOL0     C47557   1.090   5.351  -0.656  0.3902  0.2127  0.2962
  353MOL0     C47558   0.994   5.290  -0.559 -0.3593  0.1785  0.0673
  353MOL0     C47559   0.867   5.231  -0.611 -0.4069  0.2080  0.0639
  353MOL0     C47560   0.781   5.185  -0.486 -0.0071  0.2871 -0.2898
  353MOL0     C47561   0.656   5.106  -0.530  0.5385  0.3780  0.3943
  353MOL0     C47562   0.559   5.048  -0.418  0.3015  0.7942  0.2426
  353MOL0     C47563   0.439   4.960  -0.474  0.4782 -0.2553  1.2797
  353MOL0     C47564   0.343   4.921  -0.364  0.2523 -0.2654 -0.7643
  353MOL0    Cl47565   0.243   5.053  -0.293 -0.2507  0.1365 -0.0733
  353MOL0     C47566   1.338   5.512  -0.717  0.0652  0.4701  0.0169
  353MOL0     C47567   1.469   5.534  -0.766  0.4735  0.2262  0.3680
  353MOL0     O47568   1.698   5.375  -0.971 -1.0429 -0.1352  0.9348
  353MOL0     C47569   1.980   5.419  -0.781  0.3346  0.0857  0.0273
  353MOL0     C47570   2.122   5.424  -0.775  0.0599  0.5084  0.7867
  353MOL0     N47571   2.939   5.451  -1.016  0.0085  0.6843  0.5347
  353MOL0     N47572   3.034   5.362  -0.995 -0.8653  0.2808  0.3803
  353MOL0     C47573   3.677   6.049  -0.028  0.5363  0.0295  0.6628
  353MOL0     C47574   3.718   6.042   0.101 -0.4997  0.6049 -0.3730
  353MOL0     C47575   3.724   5.893   0.533  0.1418  0.5007 -0.2071
  353MOL0     C47576   3.631   5.854   0.634  0.1266 -0.1562 -0.3301
  353MOL0     C47577   3.664   5.880   0.774  0.4318  0.1906  0.8066
  353MOL0     C47578   3.782   5.943   0.804  0.3583  0.1235 -0.2977
  353MOL0     O47579   3.824   5.986   0.932  0.4353  0.7839 -0.1859
  353MOL0     C47580   3.786   5.899   1.040 -0.7419  0.0016 -0.9153
  353MOL0     C47581   3.846   5.941   1.170 -0.2119 -0.3762  0.0534
  353MOL0     C47582   4.001   5.942   1.168 -0.1923 -0.8782  0.5915
  353MOL0     C47583   4.052   6.019   1.295  0.3153 -0.3274  0.0138
  353MOL0     C47584   4.198   5.997   1.313 -0.5049 -1.0322 -0.1729
  353MOL0     C47585   4.315   6.001   1.330 -0.2153 -0.5064 -0.4669
  353MOL0     C47586   3.877   5.966   0.703  1.0333  0.9713  0.1414
  353MOL0     C47587   3.848   5.936   0.577  1.3481  0.4608  0.7940
  353MOL0     H47588   3.679   5.711   0.161 -2.6619  1.0998  1.4820
  353MOL0     H47589   3.581   5.724  -0.075  0.2808  0.7925 -1.1496
  353MOL0     H47590   3.661   5.879  -0.393 -2.1950  0.9561 -2.3012
  353MOL0     H47591   3.644   5.749  -0.269  0.0371  0.6356 -0.3869
  353MOL0     H47592   3.399   5.752  -0.300  0.5664  0.0645  0.2589
  353MOL0     H47593   3.419   5.865  -0.431  3.3560  1.3059 -0.7444
  353MOL0     H47594   3.540   5.736  -0.569  0.7443  3.5998  2.1045
  353MOL0     H47595   3.565   5.590  -0.464 -0.3943  1.3762  1.4115
  353MOL0     H47596   3.320   5.570  -0.437  1.5790 -1.5559  0.2981
  353MOL0     H47597   3.294   5.682  -0.574 -1.1851 -0.0513  1.7757
  353MOL0     H47598   3.466   5.504  -0.692  0.5728  0.0614 -0.0658
  353MOL0     H47599   3.428   5.420  -0.536 -1.9960 -0.4050  1.6940
  353MOL0     H47600   3.186   5.415  -0.605  0.0975  2.5043  1.5344
  353MOL0     H47601   3.236   5.518  -0.749  1.3277  1.0285  0.8333
  353MOL0     H47602   3.350   5.310  -0.824 -1.5446  1.3402 -1.7042
  353MOL0     H47603   3.335   5.241  -0.668  2.1033  0.5195 -2.5240
  353MOL0     H47604   3.109   5.218  -0.695  1.9689 -3.7799 -0.2502
  353MOL0     H47605   3.169   5.164  -0.850  2.3836 -0.3616  2.9786
  353MOL0     H47606   2.915   5.410  -0.694 -1.2118  3.0284  0.3388
  353MOL0     H47607   2.784   5.605  -0.775 -0.4619  2.6535 -0.3410
  353MOL0     H47608   2.785   5.648  -0.950  4.6284 -1.8559 -0.5681
  353MOL0     H47609   2.624   5.417  -0.850  1.7853  0.5665  0.1584
  353MOL0     H47610   2.635   5.479  -1.020 -0.6898 -0.1623 -0.5860
  353MOL0     H47611   2.540   5.698  -0.943  0.7542  0.7973  1.4829
  353MOL0     H47612   2.492   5.615  -0.798 -1.0313 -0.6789 -0.7702
  353MOL0     H47613   2.426   5.500  -1.070  2.5910  0.5216 -0.0726
  353MOL0     H47614   2.339   5.636  -1.012  0.1012 -0.2621 -0.8023
  353MOL0     H47615   2.175   5.513  -1.101  0.6593  1.4226  1.5196
  353MOL0     H47616   1.821   5.612  -1.107 -0.8305 -0.3701 -0.6834
  353MOL0     H47617   1.950   5.581  -1.214 -1.3628 -0.4599 -1.1646
  353MOL0     H47618   1.836   5.454  -1.185  2.1536 -0.4423 -3.0962
  353MOL0     H47619   1.647   5.347  -0.553 -1.6018 -2.9245  1.3021
  353MOL0     H47620   1.421   5.293  -0.470 -0.1601 -0.6319 -0.4758
  353MOL0     H47621   1.063   5.435  -0.721  0.7821  0.4129  0.3904
  353MOL0     H47622   1.141   5.272  -0.711  0.1940 -1.5056  2.4327
  353MOL0     H47623   1.051   5.205  -0.521  0.5546 -0.1351 -1.8851
  353MOL0     H47624   0.968   5.357  -0.477 -1.1378  0.0551 -0.0669
  353MOL0     H47625   0.897   5.154  -0.683  1.4635  0.8580  0.1060
  353MOL0     H47626   0.809   5.312  -0.656 -1.0163  1.0999  2.3091
  353MOL0     H47627   0.849   5.124  -0.427  1.3366  2.4273  0.4824
  353MOL0     H47628   0.746   5.272  -0.429 -3.2555 -0.4975 -0.8758
  353MOL0     H47629   0.693   5.023  -0.591  4.4947  0.5667  2.2358
  353MOL0     H47630   0.599   5.172  -0.597  2.2339  1.2091 -0.3012
  353MOL0     H47631   0.622   4.986  -0.354  1.4567  0.9499 -0.7096
  353MOL0     H47632   0.519   5.130  -0.358  0.4521  1.2227 -0.2372
  353MOL0     H47633   0.465   4.866  -0.524  1.5434  1.4228 -1.6489
  353MOL0     H47634   0.393   5.026  -0.548  0.1792  1.4014  2.8785
  353MOL0     H47635   0.398   4.859  -0.293 -0.0837 -1.9413 -1.9007
  353MOL0     H47636   0.271   4.848  -0.403  0.7598 -0.9830 -0.3705
  353MOL0     H47637   1.252   5.554  -0.767 -0.2678 -0.7366 -0.4623
  353MOL0     H47638   1.484   5.597  -0.853  1.6092  1.7950  1.6454
  353MOL0     H47639   1.943   5.376  -0.689  2.6002  0.3395  1.1373
  353MOL0     H47640   2.176   5.394  -0.686  0.4160 -2.7055 -0.3772
  353MOL0     H47641   3.687   6.151  -0.062 -0.1637 -0.1141  0.0100
  353MOL0     H47642   3.750   6.133   0.150 -1.7386 -0.1433  2.0281
  353MOL0     H47643   3.534   5.817   0.604 -0.4917  2.3930 -1.6729
  353MOL0     H47644   3.580   5.863   0.840  0.6332 -3.9607  0.2668
  353MOL0     H47645   3.677   5.898   1.055 -0.5397  2.6845  1.8200
  353MOL0     H47646   3.824   5.799   1.018  0.9504  0.7143 -1.3899
  353MOL0     H47647   3.818   5.869   1.248 -0.2758 -0.6462 -0.2217
  353MOL0     H47648   3.814   6.045   1.182  2.0085  0.5120 -1.1689
  353MOL0     H47649   4.039   5.998   1.082  2.5273  0.5887  2.5803
  353MOL0     H47650   4.041   5.841   1.181  2.6949  0.0566 -0.1769
  353MOL0     H47651   3.999   5.992   1.387  0.4037 -2.9972 -0.6476
  353MOL0     H47652   4.035   6.127   1.290 -1.2596 -0.2741  3.6325
  353MOL0     H47653   4.420   6.022   1.325 -0.7818  2.6324 -1.3797
  353MOL0     H47654   3.975   5.999   0.738  1.5733  1.1629 -1.4813
  353MOL0     H47655   3.917   5.954   0.495  1.6026  1.3855  1.1951
  354MOL0     O47656   6.214   1.422   9.606  0.0550 -0.3127  0.3338
  354MOL0     C47657   6.254   1.368   9.504  0.5106  0.3461  1.2982
  354MOL0     O47658   6.176   1.329   9.398  0.5365 -0.7590 -0.5308
  354MOL0     C47659   6.038   1.305   9.420 -0.5032 -0.8178 -0.9488
  354MOL0     C47660   6.002   1.192   9.503  0.8213  0.0182 -0.8132
  354MOL0     C47661   5.862   1.172   9.525 -0.0813 -0.1205 -0.4673
  354MOL0     C47662   5.762   1.263   9.478 -0.1809 -0.4244 -0.7361
  354MOL0     O47663   5.631   1.230   9.515 -0.2024 -0.0060 -0.5500
  354MOL0     C47664   5.524   1.326   9.522 -0.9037 -0.7288 -0.2347
  354MOL0     C47665   5.519   1.415   9.643  0.2435  0.6359  0.0126
  354MOL0     C47666   5.409   1.514   9.644  0.2957  0.6120  0.2763
  354MOL0     C47667   5.376   1.543   9.792 -0.6629 -0.3880  0.3293
  354MOL0     C47668   5.318   1.690   9.807 -0.2874  0.0600 -0.7987
  354MOL0     C47669   5.302   1.720   9.962 -0.4713 -0.9196 -0.1021
  354MOL0     C47670   5.258   1.876   9.966 -0.1665  0.2693  0.3549
  354MOL0     C47671   5.234   1.926  10.109  1.2451 -0.3597  0.5523
  354MOL0     N47672   5.234   2.071  10.081  0.3065  0.0734  0.0932
  354MOL0     C47673   5.348   2.150  10.065  0.7507  0.2528 -0.1414
  354MOL0     C47674   5.299   2.272  10.056  0.7998  0.1797 -0.5541
  354MOL0     C47675   5.377   2.409  10.066  0.2989  0.3516  0.5846
  354MOL0     C47676   5.374   2.465  10.215 -0.3325 -0.0735 -0.8652
  354MOL0     C47677   5.238   2.461  10.295  0.6996 -0.1192  0.2869
  354MOL0     C47678   5.223   2.357  10.402  0.3422 -0.4922  0.8420
  354MOL0     O47679   5.155   2.397  10.520  0.4288  0.2206 -0.5296
  354MOL0     C47680   5.015   2.415  10.523 -0.8294  0.4059 -1.3951
  354MOL0     C47681   4.935   2.416  10.413 -0.1037  0.2709 -0.4608
  354MOL0     C47682   4.800   2.437  10.417  0.6610 -0.0347  0.0055
  354MOL0     C47683   4.730   2.411  10.282 -0.0195 -0.2641 -0.1871
  354MOL0     C47684   4.733   2.474  10.541 -0.6183 -0.2571 -0.0789
  354MOL0     C47685   4.587   2.510  10.553 -0.0016  0.8306  0.0794
  354MOL0     O47686   4.537   2.520  10.681  0.1865  0.4586  0.1013
  354MOL0     C47687   4.407   2.547  10.703 -0.5842  0.0054  0.7549
  354MOL0     C47688   4.304   2.496  10.625  0.5098 -0.2474 -0.1913
  354MOL0     C47689   4.173   2.539  10.637  0.4489 -0.3175  0.3113
  354MOL0     C47690   4.141   2.634  10.732  0.6986 -0.0495  0.1855
  354MOL0     O47691   4.010   2.689  10.755 -1.4089  0.7527  0.5006
  354MOL0     C47692   3.913   2.678  10.655 -0.1146  0.7582 -0.0337
  354MOL0     C47693   3.793   2.766  10.687 -0.5461 -0.1527  0.0758
  354MOL0     C47694   3.705   2.748  10.815 -0.7632 -0.3034 -0.1458
  354MOL0     C47695   3.595   2.856  10.816 -0.0284 -0.5270 -0.4168
  354MOL0     C47696   3.492   2.830  10.919  0.2731 -0.6575 -0.2711
  354MOL0     C47697   3.384   2.950  10.943 -0.4607  0.2072 -0.2110
  354MOL0     C47698   3.283   2.913  11.049 -0.1708  0.8483  0.7394
  354MOL0     C47699   3.134   2.930  11.011  0.0043  0.1347  0.1258
  354MOL0    Cl47700   3.089   2.818  10.875  0.3013  0.2313  0.0689
  354MOL0     C47701   4.233   2.677  10.817 -0.0783 -0.1624 -0.0523
  354MOL0     C47702   4.367   2.635  10.801 -0.8933 -0.8424 -0.4440
  354MOL0     O47703   4.530   2.535  10.448 -0.2389  0.1966 -0.2295
  354MOL0     C47704   4.821   2.480  10.651 -0.0231  0.9133 -0.3446
  354MOL0     C47705   4.959   2.459  10.640  0.1534  0.5896 -0.5928
  354MOL0     N47706   5.160   2.263  10.052 -0.4582 -0.0390  0.4421
  354MOL0     N47707   5.120   2.147  10.073  0.0154 -0.0687  0.9739
  354MOL0     C47708   5.804   1.371   9.391  0.4856  0.4098 -0.1545
  354MOL0     C47709   5.944   1.393   9.365 -0.4210  0.1173 -0.4176
  354MOL0     C47710   6.396   1.357   9.474 -0.0714  0.7194 -0.5054
  354MOL0     C47711   6.440   1.304   9.356 -0.6469  0.3624 -0.0718
  354MOL0     C47712   6.580   1.278   9.344  0.1480 -0.6975 -0.1173
  354MOL0     C47713   6.670   1.326   9.439 -1.0547 -0.1217 -0.2354
  354MOL0     O47714   6.806   1.305   9.426  0.5606  0.5630 -0.5918
  354MOL0     C47715   6.859   1.399   9.335  0.6206  0.0706  1.2428
  354MOL0     C47716   7.010   1.378   9.311  0.6168  0.0019  0.7504
  354MOL0     C47717   7.090   1.415   9.436 -0.0581 -0.7106  0.4683
  354MOL0     C47718   7.239   1.447   9.419  0.2188  0.8615 -0.1543
  354MOL0     C47719   7.308   1.459   9.548 -1.1182  0.4867 -1.0243
  354MOL0     C47720   7.350   1.470   9.662 -1.3760  0.0491  1.0996
  354MOL0     C47721   6.622   1.370   9.563  0.7983 -0.1816 -0.9077
  354MOL0     C47722   6.486   1.390   9.580  0.2903  0.0210  0.2108
  354MOL0     H47723   6.076   1.125   9.544 -0.3863 -0.0685  1.3797
  354MOL0     H47724   5.842   1.083   9.584 -0.6377 -0.0318 -0.5197
  354MOL0     H47725   5.512   1.388   9.432 -0.5662  0.7155  0.6767
  354MOL0     H47726   5.431   1.270   9.528 -3.0086  2.6482  2.2086
  354MOL0     H47727   5.506   1.337   9.718  2.0475  0.2220 -0.0580
  354MOL0     H47728   5.619   1.457   9.659  0.3560  1.4717 -2.4322
  354MOL0     H47729   5.435   1.607   9.593  0.5143  1.5300  1.9840
  354MOL0     H47730   5.312   1.487   9.600 -0.3099  0.8903  1.3960
  354MOL0     H47731   5.312   1.462   9.829 -1.4831  0.5906  1.1313
  354MOL0     H47732   5.461   1.542   9.861 -1.0140  1.1884  0.8422
  354MOL0     H47733   5.388   1.759   9.758 -0.1655  0.4450 -0.1005
  354MOL0     H47734   5.219   1.697   9.762 -1.6307 -1.1902  1.7655
  354MOL0     H47735   5.221   1.659  10.003  0.8165 -1.6934  1.3982
  354MOL0     H47736   5.394   1.694  10.015 -0.1077 -0.0484 -0.2873
  354MOL0     H47737   5.341   1.934   9.923  0.1543 -0.7446 -0.4490
  354MOL0     H47738   5.175   1.895   9.898 -0.0204 -1.3768 -0.3436
  354MOL0     H47739   5.315   1.895  10.176 -0.1021 -1.3407  1.7553
  354MOL0     H47740   5.142   1.899  10.161  0.5471  0.8374 -0.0254
  354MOL0     H47741   5.449   2.117  10.087  0.5774 -1.3438 -1.5890
  354MOL0     H47742   5.484   2.400  10.045  1.1022 -1.0484  4.4163
  354MOL0     H47743   5.316   2.487  10.019 -0.2444 -0.5992 -0.3116
  354MOL0     H47744   5.408   2.569  10.213  0.9541 -0.4651 -0.2767
  354MOL0     H47745   5.450   2.408  10.270 -0.0044 -0.2689 -1.5062
  354MOL0     H47746   5.154   2.459  10.225  0.2097 -1.7516  0.8837
  354MOL0     H47747   5.224   2.562  10.334 -1.7582  1.3983 -3.9008
  354MOL0     H47748   5.318   2.312  10.432  0.2820 -1.6849 -0.6332
  354MOL0     H47749   5.180   2.265  10.362 -0.2195 -0.6379  1.7550
  354MOL0     H47750   4.983   2.388  10.320  0.7358  3.6904 -1.1818
  354MOL0     H47751   4.644   2.469  10.247 -0.9560 -1.2579  0.3946
  354MOL0     H47752   4.792   2.403  10.192 -1.7796 -2.6745 -1.3032
  354MOL0     H47753   4.683   2.312  10.293 -3.5027  1.1992 -0.6733
  354MOL0     H47754   4.323   2.423  10.546  3.1135  1.9503 -1.7913
  354MOL0     H47755   4.093   2.509  10.569 -1.9549  0.7351  2.5101
  354MOL0     H47756   3.954   2.716  10.561  1.4997  2.8870  1.4304
  354MOL0     H47757   3.881   2.574  10.653  1.2114  0.3102  0.7328
  354MOL0     H47758   3.825   2.870  10.676  1.9555 -0.7086  1.2783
  354MOL0     H47759   3.720   2.748  10.607  0.0769  2.1623 -1.0839
  354MOL0     H47760   3.766   2.756  10.905  2.1323 -0.3888 -1.9495
  354MOL0     H47761   3.654   2.652  10.809 -0.7893 -0.2761 -0.4139
  354MOL0     H47762   3.645   2.953  10.822  1.2907 -1.2077  4.5693
  354MOL0     H47763   3.528   2.860  10.730 -1.3628  0.4578  0.6201
  354MOL0     H47764   3.544   2.838  11.015 -1.4303 -0.5185  0.6920
  354MOL0     H47765   3.451   2.730  10.934 -0.5016 -0.2158  0.7092
  354MOL0     H47766   3.428   3.044  10.978 -1.3023  1.4316 -2.2936
  354MOL0     H47767   3.336   2.980  10.849 -1.4850 -1.1578 -0.1603
  354MOL0     H47768   3.300   2.971  11.141  1.0470  0.3194  0.8645
  354MOL0     H47769   3.291   2.807  11.075 -0.6828  0.4790 -0.5162
  354MOL0     H47770   3.115   3.033  10.979 -0.6453 -0.4688 -1.4901
  354MOL0     H47771   3.071   2.912  11.099 -0.7738  2.0892  0.0268
  354MOL0     H47772   4.208   2.740  10.902  1.5238  0.1335  0.2349
  354MOL0     H47773   4.433   2.685  10.871 -2.1343 -0.7453  0.6932
  354MOL0     H47774   4.771   2.493  10.747 -0.8300 -1.6742 -0.3283
  354MOL0     H47775   5.009   2.471  10.735  0.3257 -1.7879 -0.3248
  354MOL0     H47776   5.730   1.426   9.334 -0.1406 -2.0736 -1.8839
  354MOL0     H47777   5.985   1.462   9.292 -0.5143 -1.4234 -2.0059
  354MOL0     H47778   6.371   1.273   9.278 -0.2395 -2.2561  0.5203
  354MOL0     H47779   6.622   1.222   9.260  0.2676  0.0672 -0.5758
  354MOL0     H47780   6.808   1.382   9.240 -0.1170  0.8372  1.4950
  354MOL0     H47781   6.849   1.502   9.371  3.7499 -0.4182  4.0421
  354MOL0     H47782   7.044   1.442   9.230  3.1733 -0.1214  1.6521
  354MOL0     H47783   7.037   1.274   9.296  2.7633  0.4774  0.9887
  354MOL0     H47784   7.083   1.336   9.510  1.5706 -1.2771  0.0627
  354MOL0     H47785   7.041   1.498   9.488  0.6462  0.8132 -1.1804
  354MOL0     H47786   7.257   1.538   9.363  2.6487  4.4683  5.5353
  354MOL0     H47787   7.282   1.358   9.371 -1.8187 -2.3900  3.4393
  354MOL0     H47788   7.385   1.485   9.762  0.7418  1.8201  0.1734
  354MOL0     H47789   6.681   1.396   9.651 -1.3695  1.7527  0.0695
  354MOL0     H47790   6.452   1.418   9.679 -0.4750 -1.5269  0.4041
  355MOL0     O47791   4.998   0.012   7.471 -0.1266 -0.1124  0.6820
  355MOL0     C47792   5.013  -0.016   7.351 -0.9921 -1.2534 -0.4001
  355MOL0     O47793   4.907  -0.044   7.266 -0.0374  0.1091  0.0896
  355MOL0     C47794   4.787  -0.078   7.312  0.2340 -0.7343  0.0912
  355MOL0     C47795   4.699   0.025   7.351  0.3242 -0.1776 -0.2472
  355MOL0     C47796   4.572  -0.009   7.389  0.8098 -0.1490 -0.9349
  355MOL0     C47797   4.529  -0.146   7.393 -0.1379 -1.1521 -0.2750
  355MOL0     O47798   4.401  -0.190   7.417  0.3227 -0.1471  0.5297
  355MOL0     C47799   4.311  -0.086   7.443  0.8774 -0.0400 -0.1627
  355MOL0     C47800   4.168  -0.137   7.463  0.0721 -0.1557  0.3073
  355MOL0     C47801   4.146  -0.213   7.593 -0.1023  0.1182 -0.1473
  355MOL0     C47802   4.017  -0.298   7.576  0.2567 -0.3069  0.1439
  355MOL0     C47803   3.889  -0.240   7.635  0.5889 -0.5908 -0.6034
  355MOL0     C47804   3.761  -0.332   7.628  0.3505 -0.0148  0.2924
  355MOL0     C47805   3.783  -0.465   7.722 -0.0722  0.1308  0.2338
  355MOL0     C47806   3.833  -0.434   7.858 -0.1435  0.6101  0.4417
  355MOL0     N47807   3.722  -0.376   7.940 -0.7953  0.4647  0.1591
  355MOL0     C47808   3.675  -0.245   7.932 -0.2499 -0.4747  0.0767
  355MOL0     C47809   3.558  -0.256   7.992  0.5367 -0.5357 -0.2693
  355MOL0     C47810   3.449  -0.146   8.003 -0.9332  0.2923  0.7946
  355MOL0     C47811   3.404  -0.101   7.864  0.5676 -0.2561 -0.7101
  355MOL0     C47812   3.323  -0.202   7.784  0.4722  0.2290  0.7487
  355MOL0     C47813   3.187  -0.236   7.850 -0.2465  0.2418  0.0904
  355MOL0     O47814   3.111  -0.300   7.746  0.2044 -0.0735  0.3487
  355MOL0     C47815   2.995  -0.241   7.702  0.0618  0.1836 -0.3521
  355MOL0     C47816   2.879  -0.243   7.782  0.5398 -0.1731  0.4364
  355MOL0     C47817   2.768  -0.167   7.740  0.3993 -0.4008 -0.4593
  355MOL0     C47818   2.647  -0.173   7.828  0.8028  0.0185 -0.5958
  355MOL0     C47819   2.764  -0.100   7.616  0.0709 -0.1797 -0.5349
  355MOL0     C47820   2.647  -0.021   7.567  0.0635  0.8645  0.5829
  355MOL0     O47821   2.656   0.020   7.442 -0.5775 -0.3763 -0.1236
  355MOL0     C47822   2.548   0.069   7.376 -0.1277  0.2322  0.1499
  355MOL0     C47823   2.480  -0.035   7.311  0.4828  0.1236 -0.7690
  355MOL0     C47824   2.343  -0.021   7.273 -0.3881 -0.0213  0.5578
  355MOL0     C47825   2.282   0.104   7.271  0.7908 -0.2069  0.3748
  355MOL0     O47826   2.146   0.124   7.247  0.1110  0.0664  1.2396
  355MOL0     C47827   2.122   0.207   7.133  0.6803  0.3821 -0.7167
  355MOL0     C47828   1.982   0.187   7.075 -0.5548  0.4524 -0.2326
  355MOL0     C47829   1.951   0.305   6.989  0.5059 -0.3106 -0.2146
  355MOL0     C47830   1.804   0.307   6.935  0.3182 -0.1518 -0.3813
  355MOL0     C47831   1.763   0.439   6.860  0.5013 -0.5281  0.0936
  355MOL0     C47832   1.621   0.444   6.816 -0.3041  0.2153  0.6527
  355MOL0     C47833   1.576   0.559   6.742 -0.0708 -0.2474 -0.7238
  355MOL0     C47834   1.583   0.694   6.820 -1.1065 -0.4190 -0.5358
  355MOL0    Cl47835   1.492   0.689   6.969 -0.2889  0.1376 -0.3546
  355MOL0     C47836   2.359   0.207   7.325  0.4266 -0.4318  0.0317
  355MOL0     C47837   2.492   0.197   7.373  0.2105  0.4769  0.8352
  355MOL0     O47838   2.547  -0.004   7.637 -0.0313  0.7231 -0.2794
  355MOL0     C47839   2.886  -0.102   7.540  0.6237  0.1360 -0.0642
  355MOL0     C47840   2.994  -0.172   7.584 -0.8878  0.3077 -0.4608
  355MOL0     N47841   3.544  -0.384   8.041  0.4962  0.0055  0.4995
  355MOL0     N47842   3.654  -0.449   8.027 -0.8886 -0.2295 -0.4161
  355MOL0     C47843   4.623  -0.245   7.362 -0.0286  0.2434 -0.1880
  355MOL0     C47844   4.750  -0.213   7.319 -0.0960  0.3817  0.1966
  355MOL0     C47845   5.155  -0.044   7.308  1.4083 -0.0538  0.0882
  355MOL0     C47846   5.264  -0.014   7.388 -0.9537 -0.0241 -0.1177
  355MOL0     C47847   5.399  -0.028   7.346  0.7179  0.5562 -0.5061
  355MOL0     C47848   5.426  -0.065   7.213 -0.5794 -0.1598 -0.4154
  355MOL0     O47849   5.561  -0.076   7.190 -0.5357  0.7125 -0.4601
  355MOL0     C47850   5.609  -0.132   7.061  0.6731  0.7909 -0.7554
  355MOL0     C47851   5.764  -0.116   7.051  0.7297 -0.0923 -0.0875
  355MOL0     C47852   5.850  -0.148   7.171  0.0762  0.3522 -0.1052
  355MOL0     C47853   5.993  -0.118   7.148 -0.4355  0.3931  0.3116
  355MOL0     C47854   6.040   0.009   7.209 -0.0021 -0.3683 -0.1310
  355MOL0     C47855   6.096   0.107   7.263  0.4221  0.5648  0.4267
  355MOL0     C47856   5.316  -0.087   7.123 -0.2195 -0.1681  0.2421
  355MOL0     C47857   5.180  -0.085   7.176 -0.4142  0.5487  0.9948
  355MOL0     H47858   4.722   0.131   7.351 -2.0276  0.4043  0.5018
  355MOL0     H47859   4.506   0.074   7.412  2.7370  1.3450 -0.5532
  355MOL0     H47860   4.341  -0.037   7.536 -0.4153 -1.4050  1.0227
  355MOL0     H47861   4.308  -0.014   7.361 -0.2761  1.0367  0.7733
  355MOL0     H47862   4.102  -0.049   7.459  1.1231  0.6899  0.8523
  355MOL0     H47863   4.140  -0.204   7.381 -0.5319 -2.5185  2.3208
  355MOL0     H47864   4.233  -0.275   7.617 -0.0774  0.0816 -0.3259
  355MOL0     H47865   4.127  -0.146   7.677 -1.0767 -3.0479  2.3488
  355MOL0     H47866   4.015  -0.336   7.473  2.3604 -2.0275  0.6616
  355MOL0     H47867   4.049  -0.388   7.629  2.0041  2.6424  4.5676
  355MOL0     H47868   3.906  -0.207   7.738 -1.0711  0.9721 -0.7761
  355MOL0     H47869   3.868  -0.141   7.594  0.1271  0.1935  1.3797
  355MOL0     H47870   3.670  -0.281   7.661  0.7033  0.0391  1.1955
  355MOL0     H47871   3.751  -0.353   7.521 -0.7989  1.4190  0.0828
  355MOL0     H47872   3.700  -0.536   7.730  2.4253 -2.7974  3.1453
  355MOL0     H47873   3.867  -0.518   7.678  0.4441  0.7651  0.4406
  355MOL0     H47874   3.917  -0.364   7.861 -0.6497  1.2407  3.6718
  355MOL0     H47875   3.864  -0.528   7.905  0.9470 -0.0168 -1.4212
  355MOL0     H47876   3.715  -0.153   7.891  0.2814  0.8935  3.3743
  355MOL0     H47877   3.372  -0.174   8.075  1.4087 -1.2149  2.8688
  355MOL0     H47878   3.511  -0.078   8.062  2.5991 -1.6837 -0.3579
  355MOL0     H47879   3.496  -0.083   7.807  1.6931  1.4101  1.4705
  355MOL0     H47880   3.354  -0.004   7.867 -0.6455 -0.7338 -3.1338
  355MOL0     H47881   3.385  -0.291   7.770 -0.1530 -0.3736  1.7467
  355MOL0     H47882   3.312  -0.161   7.683  1.1117  1.4578  1.1483
  355MOL0     H47883   3.134  -0.147   7.885 -1.7264 -0.4477 -0.2931
  355MOL0     H47884   3.211  -0.299   7.937 -1.4254 -1.2323 -0.5985
  355MOL0     H47885   2.865  -0.302   7.872  2.9094 -0.4336  0.7012
  355MOL0     H47886   2.671  -0.244   7.907  2.0604  0.2134 -0.7790
  355MOL0     H47887   2.640  -0.069   7.862  1.4678  0.0233 -0.4705
  355MOL0     H47888   2.560  -0.213   7.774  2.4090 -3.3464 -0.9414
  355MOL0     H47889   2.523  -0.134   7.300 -2.1192 -0.8577 -3.7480
  355MOL0     H47890   2.290  -0.105   7.230 -0.2182  0.7345 -1.1974
  355MOL0     H47891   2.132   0.308   7.174 -0.9835  0.8292 -1.3474
  355MOL0     H47892   2.200   0.197   7.057  0.8605  2.6308 -0.8989
  355MOL0     H47893   1.976   0.096   7.013  1.7723 -0.0581  0.2012
  355MOL0     H47894   1.918   0.171   7.162  1.9955 -1.7185  1.4123
  355MOL0     H47895   2.025   0.317   6.909 -1.2401 -0.5551 -1.9450
  355MOL0     H47896   1.958   0.397   7.048  2.0645 -0.1297 -0.6244
  355MOL0     H47897   1.792   0.216   6.875  2.4148  0.5446 -1.9771
  355MOL0     H47898   1.737   0.304   7.021  3.1030  1.0011  2.0171
  355MOL0     H47899   1.835   0.447   6.778  1.5772 -2.6204  0.7717
  355MOL0     H47900   1.781   0.514   6.937 -0.9047 -1.3917  1.3070
  355MOL0     H47901   1.596   0.352   6.762  3.1633 -0.2297 -0.4267
  355MOL0     H47902   1.557   0.439   6.904 -0.5029  1.3548  0.5978
  355MOL0     H47903   1.470   0.540   6.723 -0.7172 -0.1503  2.2285
  355MOL0     H47904   1.635   0.572   6.651  0.3278  2.4888 -0.1690
  355MOL0     H47905   1.542   0.768   6.751 -2.6264  0.2246  1.0031
  355MOL0     H47906   1.688   0.713   6.844 -1.1775 -0.4664 -0.1862
  355MOL0     H47907   2.301   0.297   7.338 -0.4461 -0.7145 -1.6826
  355MOL0     H47908   2.547   0.280   7.416  1.9520  0.0142 -0.4122
  355MOL0     H47909   2.886  -0.067   7.437  2.3684  1.2653  0.2665
  355MOL0     H47910   3.076  -0.178   7.513 -1.1640  4.0238 -1.2831
  355MOL0     H47911   4.605  -0.352   7.370  2.4121 -0.2653 -0.6474
  355MOL0     H47912   4.828  -0.287   7.301 -0.5331  0.1782 -0.9210
  355MOL0     H47913   5.256   0.022   7.489  1.5738  2.3074 -0.6438
  355MOL0     H47914   5.474   0.000   7.419  2.0274 -0.9158 -1.2215
  355MOL0     H47915   5.578  -0.237   7.070  1.2226  0.5670 -1.4562
  355MOL0     H47916   5.558  -0.080   6.979 -1.7520  1.0510  0.7992
  355MOL0     H47917   5.781  -0.012   7.021  0.3817  0.0620  0.2571
  355MOL0     H47918   5.792  -0.172   6.961  0.3296 -3.3236  1.6570
  355MOL0     H47919   5.845  -0.257   7.183  1.8594  0.4356  2.3055
  355MOL0     H47920   5.810  -0.117   7.268  0.9397 -1.0902  0.7535
  355MOL0     H47921   6.015  -0.115   7.041 -1.9316 -2.1432 -0.1423
  355MOL0     H47922   6.051  -0.200   7.190 -0.3820 -0.3496 -1.1517
  355MOL0     H47923   6.161   0.182   7.303 -0.6826  0.7697  1.9140
  355MOL0     H47924   5.336  -0.116   7.020 -0.7115 -1.0120  0.3732
  355MOL0     H47925   5.097  -0.114   7.112 -0.1116 -1.1564  1.3104
  356MOL0     O47926   2.925   5.950   5.961  0.3884  0.1817  0.4454
  356MOL0     C47927   2.954   6.008   6.068  0.5120  0.0189  0.5099
  356MOL0     O47928   2.855   6.066   6.149 -0.0458 -0.1382  0.0570
  356MOL0     C47929   2.726   6.064   6.106  0.8408  0.6587  0.7960
  356MOL0     C47930   2.633   6.039   6.209  0.4856 -0.5943 -0.1729
  356MOL0     C47931   2.497   6.008   6.174 -0.2411 -0.5423 -0.8137
  356MOL0     C47932   2.452   5.992   6.039  0.2674 -0.0949 -0.0542
  356MOL0     O47933   2.322   5.997   6.007 -0.4063  0.1117 -0.5984
  356MOL0     C47934   2.234   5.892   6.057 -0.6483  0.6176 -0.0690
  356MOL0     C47935   2.111   5.876   5.981  0.6384 -0.1945 -0.5613
  356MOL0     C47936   1.989   5.811   6.052 -0.8045  0.2564 -0.1239
  356MOL0     C47937   1.861   5.843   5.981 -0.5864 -0.4798  0.2580
  356MOL0     C47938   1.743   5.774   6.056 -0.2897  0.3762 -0.1159
  356MOL0     C47939   1.614   5.780   5.971  0.0671  0.3834 -0.0092
  356MOL0     C47940   1.492   5.749   6.055  0.4542  0.1149 -0.3009
  356MOL0     C47941   1.447   5.596   6.057 -0.9465 -0.6879 -0.5142
  356MOL0     N47942   1.328   5.587   6.148 -0.5804 -0.5218 -0.6660
  356MOL0     C47943   1.206   5.634   6.117 -0.1212  0.8528 -0.2404
  356MOL0     C47944   1.122   5.582   6.217  0.0567 -0.6247  0.2870
  356MOL0     C47945   0.977   5.603   6.218  0.0842 -0.3492  0.3284
  356MOL0     C47946   0.903   5.500   6.298 -0.2690  0.3483  0.2094
  356MOL0     C47947   0.744   5.509   6.292  0.2657  0.7086  0.4963
  356MOL0     C47948   0.692   5.603   6.400 -1.3631  0.7236 -0.8015
  356MOL0     O47949   0.559   5.625   6.407 -0.5970  0.9117  0.7196
  356MOL0     C47950   0.466   5.538   6.427 -0.7988 -0.2065 -0.4545
  356MOL0     C47951   0.483   5.422   6.501 -0.2165 -0.6473 -0.7324
  356MOL0     C47952   0.374   5.333   6.512 -0.4395  0.5903 -0.2440
  356MOL0     C47953   0.398   5.197   6.588 -0.4990 -0.0290  0.3906
  356MOL0     C47954   0.245   5.369   6.456  0.4030 -0.3824 -0.0418
  356MOL0     C47955   0.131   5.280   6.448  0.3320 -0.5405 -0.5316
  356MOL0     O47956   0.067   5.269   6.565 -0.2599 -0.9313  0.3042
  356MOL0     C47957  -0.044   5.196   6.547 -0.2174  0.1303  0.5790
  356MOL0     C47958  -0.164   5.249   6.504  0.2342 -0.2860  0.1200
  356MOL0     C47959  -0.287   5.179   6.511 -0.7525 -0.7589  0.4709
  356MOL0     C47960  -0.293   5.047   6.558 -0.0717 -0.0915 -0.3534
  356MOL0     O47961  -0.415   4.977   6.570 -0.6548 -0.7624 -0.2299
  356MOL0     C47962  -0.537   5.049   6.594  0.0314 -1.0092 -0.2898
  356MOL0     C47963  -0.664   4.962   6.616  0.5477 -0.2838  0.6189
  356MOL0     C47964  -0.780   5.059   6.661  0.1069  0.5688  0.9040
  356MOL0     C47965  -0.907   4.982   6.687 -0.0318 -0.3008 -0.3331
  356MOL0     C47966  -1.010   5.057   6.783 -0.4655  0.1477  0.8184
  356MOL0     C47967  -1.045   5.198   6.736 -0.1084 -0.0158 -0.0081
  356MOL0     C47968  -1.130   5.275   6.837  0.2768 -0.1952  0.5702
  356MOL0     C47969  -1.204   5.398   6.777  0.6339 -0.0623 -0.4219
  356MOL0    Cl47970  -1.082   5.536   6.768 -0.5296 -0.2027 -0.2784
  356MOL0     C47971  -0.169   4.988   6.603 -0.0584 -0.0237 -0.3163
  356MOL0     C47972  -0.047   5.063   6.595 -0.1960  0.0464  0.2163
  356MOL0     O47973   0.102   5.229   6.340  0.2042  0.1806 -0.6096
  356MOL0     C47974   0.235   5.496   6.383  0.0972  0.3312 -0.8343
  356MOL0     C47975   0.346   5.580   6.374  0.2969 -0.9048 -0.4303
  356MOL0     N47976   1.209   5.509   6.295 -0.4734  0.1429 -0.3465
  356MOL0     N47977   1.329   5.516   6.258  0.1328 -0.7756 -0.5522
  356MOL0     C47978   2.538   6.035   5.937 -0.5791  0.5806 -0.9992
  356MOL0     C47979   2.675   6.067   5.972 -0.2443 -0.0089  0.1123
  356MOL0     C47980   3.091   6.046   6.089 -0.1658 -0.2804  0.2110
  356MOL0     C47981   3.183   5.955   6.034 -1.0952  1.0152 -0.4072
  356MOL0     C47982   3.314   5.985   6.035 -0.3152  0.3445 -0.0553
  356MOL0     C47983   3.369   6.092   6.097 -0.2547 -0.3712 -0.1589
  356MOL0     O47984   3.503   6.122   6.094 -0.1078  0.1418 -0.9233
  356MOL0     C47985   3.559   6.138   5.963 -0.1076  0.5421  0.2174
  356MOL0     C47986   3.494   6.260   5.896 -0.5461 -0.2774 -0.5743
  356MOL0     C47987   3.494   6.391   5.983 -0.3274  0.4606  0.0082
  356MOL0     C47988   3.612   6.417   6.087  1.0218 -0.1416  0.1065
  356MOL0     C47989   3.749   6.428   6.028  0.1367 -0.3272  0.3137
  356MOL0     C47990   3.863   6.427   5.990 -0.3635 -0.9408  0.6548
  356MOL0     C47991   3.279   6.180   6.164 -0.1932 -0.4533  0.1320
  356MOL0     C47992   3.139   6.160   6.160  0.1775  0.6995  0.1556
  356MOL0     H47993   2.652   6.047   6.316  1.5614 -0.7892 -0.3318
  356MOL0     H47994   2.433   6.009   6.261  0.1583  1.4852 -0.4737
  356MOL0     H47995   2.287   5.797   6.053 -1.8567 -0.1315  1.0355
  356MOL0     H47996   2.218   5.909   6.163  0.0410 -0.3579  0.2028
  356MOL0     H47997   2.077   5.977   5.957  1.7655  0.4833  0.5512
  356MOL0     H47998   2.128   5.818   5.890 -3.1633 -1.5827 -0.5695
  356MOL0     H47999   2.013   5.704   6.054  0.5248  0.5088 -1.0539
  356MOL0     H48000   1.985   5.843   6.156  0.1682 -1.2215  0.4038
  356MOL0     H48001   1.848   5.952   5.976 -3.4670 -0.7309  0.7372
  356MOL0     H48002   1.879   5.800   5.882  2.2912  0.5113  0.2567
  356MOL0     H48003   1.768   5.668   6.069 -0.5414 -0.2148 -3.4403
  356MOL0     H48004   1.734   5.827   6.151 -1.4212  1.1939 -0.6493
  356MOL0     H48005   1.595   5.881   5.934 -1.1268 -0.0787 -0.7044
  356MOL0     H48006   1.610   5.712   5.885  2.0936  0.9293 -0.6093
  356MOL0     H48007   1.503   5.772   6.161  0.6789 -2.1466  0.2239
  356MOL0     H48008   1.409   5.804   6.011  1.1626  2.2690  0.9361
  356MOL0     H48009   1.533   5.541   6.095 -0.4991  0.6606  0.5003
  356MOL0     H48010   1.430   5.564   5.954  2.5407  0.3265 -1.5400
  356MOL0     H48011   1.175   5.697   6.034  0.2006  1.1505 -0.1351
  356MOL0     H48012   0.956   5.705   6.250  1.0735 -0.2209  0.6050
  356MOL0     H48013   0.943   5.591   6.115  0.2259  0.0812  0.2307
  356MOL0     H48014   0.919   5.499   6.406  0.9878 -2.8168  0.0937
  356MOL0     H48015   0.931   5.401   6.259  1.9921  0.9712  0.1457
  356MOL0     H48016   0.700   5.411   6.309  0.7126 -0.2348 -2.9413
  356MOL0     H48017   0.709   5.540   6.193  0.7892  1.1654  0.4507
  356MOL0     H48018   0.753   5.693   6.393 -0.8890  0.9066  3.3420
  356MOL0     H48019   0.732   5.556   6.491  1.3616 -1.0125 -2.7217
  356MOL0     H48020   0.578   5.405   6.549 -0.0473  1.7838 -0.0502
  356MOL0     H48021   0.503   5.170   6.603  0.1062  0.9673 -1.6082
  356MOL0     H48022   0.350   5.201   6.686 -0.1699  0.6910  0.5286
  356MOL0     H48023   0.356   5.112   6.533 -1.1058  1.4282 -1.4930
  356MOL0     H48024  -0.166   5.353   6.472  1.0312 -1.1449 -3.0602
  356MOL0     H48025  -0.368   5.232   6.463 -1.0788 -2.1847 -0.6402
  356MOL0     H48026  -0.517   5.103   6.686 -0.6641 -1.9307  0.4254
  356MOL0     H48027  -0.560   5.125   6.518  0.3989  0.2193  0.7910
  356MOL0     H48028  -0.682   4.910   6.521  1.8515 -0.1696  0.2781
  356MOL0     H48029  -0.635   4.897   6.699  0.5965 -0.3927  0.5187
  356MOL0     H48030  -0.801   5.137   6.587 -3.2817  1.2295  2.4017
  356MOL0     H48031  -0.748   5.105   6.755  0.8071  2.2453 -0.1055
  356MOL0     H48032  -0.967   4.962   6.598  0.0181  2.5861 -1.1178
  356MOL0     H48033  -0.870   4.890   6.731  2.4401 -0.4169 -2.4140
  356MOL0     H48034  -0.978   5.055   6.888 -1.2264  1.1521  1.0876
  356MOL0     H48035  -1.097   4.990   6.784 -0.2549 -0.2702  4.1091
  356MOL0     H48036  -0.950   5.251   6.732  0.7914 -1.5064  0.7996
  356MOL0     H48037  -1.087   5.201   6.635  0.2577 -0.4283 -0.1733
  356MOL0     H48038  -1.061   5.320   6.909  0.2965 -0.7172  0.8861
  356MOL0     H48039  -1.191   5.199   6.887  2.0395 -0.4668  2.4533
  356MOL0     H48040  -1.292   5.418   6.839 -0.9887 -1.8011 -2.0485
  356MOL0     H48041  -1.249   5.380   6.679 -0.0831  0.1703 -0.1417
  356MOL0     H48042  -0.178   4.886   6.638  1.1617 -0.2072 -0.4733
  356MOL0     H48043   0.039   5.032   6.652 -0.4078 -0.3741  0.3045
  356MOL0     H48044   0.136   5.526   6.351 -0.9926 -3.1836 -1.1502
  356MOL0     H48045   0.334   5.676   6.323  0.5768 -1.2628 -1.1938
  356MOL0     H48046   2.506   6.047   5.833  0.3019 -0.7849 -1.4413
  356MOL0     H48047   2.745   6.092   5.893 -0.0172  1.5641  0.7710
  356MOL0     H48048   3.147   5.864   5.986 -1.1139  0.7005  0.1952
  356MOL0     H48049   3.380   5.908   5.995 -1.9087 -0.1919 -1.7968
  356MOL0     H48050   3.668   6.147   5.974 -0.3681  0.4897  5.7498
  356MOL0     H48051   3.543   6.043   5.911 -1.0634  1.4308 -1.1817
  356MOL0     H48052   3.393   6.235   5.864 -0.4825 -1.9769  0.4446
  356MOL0     H48053   3.559   6.276   5.809  1.4635 -1.9249  0.5525
  356MOL0     H48054   3.396   6.400   6.030 -0.8621 -1.7219 -0.5833
  356MOL0     H48055   3.509   6.467   5.905 -0.6888 -0.5444 -1.0706
  356MOL0     H48056   3.608   6.340   6.164  2.3492  2.1672  2.6623
  356MOL0     H48057   3.585   6.503   6.148 -1.3829 -3.3073  3.9960
  356MOL0     H48058   3.959   6.421   5.942 -0.4464 -1.2490  0.5231
  356MOL0     H48059   3.323   6.268   6.211 -0.6195  1.5926 -2.9452
  356MOL0     H48060   3.072   6.223   6.219 -0.3112  1.2715 -0.9799
  357MOL0     O48061   1.954   4.937   3.116 -0.1456 -0.1861 -0.0176
  357MOL0     C48062   1.935   4.988   3.008 -0.7566 -0.4963  0.3885
  357MOL0     O48063   1.817   5.017   2.946  0.5600  0.0490  0.4796
  357MOL0     C48064   1.699   4.964   2.988 -0.3033 -0.9195 -0.0698
  357MOL0     C48065   1.588   5.025   2.935 -0.0405  0.7643 -0.1780
  357MOL0     C48066   1.457   4.963   2.957 -0.2791 -1.5711  0.6379
  357MOL0     C48067   1.434   4.852   3.034 -0.2866 -0.2017 -0.4388
  357MOL0     O48068   1.319   4.796   3.072  0.8533  0.3237  0.7635
  357MOL0     C48069   1.207   4.819   2.985 -0.3630  0.0278  0.5673
  357MOL0     C48070   1.085   4.742   3.048 -0.1480 -0.3931  0.6335
  357MOL0     C48071   1.121   4.589   3.073  0.4354  0.5997  0.4303
  357MOL0     C48072   0.992   4.506   3.097  0.4990  0.1379 -0.2191
  357MOL0     C48073   0.958   4.491   3.244 -0.4485 -0.4676 -0.5419
  357MOL0     C48074   1.047   4.388   3.315 -0.6826  0.4591  0.5575
  357MOL0     C48075   1.013   4.380   3.471 -0.4048 -0.0798  0.4291
  357MOL0     C48076   1.024   4.511   3.541 -0.1638  0.3924 -0.2358
  357MOL0     N48077   1.051   4.484   3.683  0.0782  0.3819 -0.2714
  357MOL0     C48078   1.167   4.475   3.742 -0.3853 -0.0921  0.2440
  357MOL0     C48079   1.143   4.484   3.875 -0.0768  0.5780  0.6009
  357MOL0     C48080   1.254   4.449   3.965  0.2771  0.8294  0.6952
  357MOL0     C48081   1.253   4.310   4.019 -0.0395 -0.3989  0.0903
  357MOL0     C48082   1.118   4.271   4.086 -0.4524  0.8812 -0.6365
  357MOL0     C48083   1.081   4.358   4.209  0.0988 -0.6035  0.9444
  357MOL0     O48084   0.991   4.303   4.304  0.2656 -0.2202  0.4991
  357MOL0     C48085   0.862   4.285   4.260 -0.1727 -0.0634 -0.7057
  357MOL0     C48086   0.776   4.222   4.348 -1.0551  0.3247  0.7870
  357MOL0     C48087   0.634   4.218   4.322  0.0295 -0.4695  0.2931
  357MOL0     C48088   0.547   4.168   4.432  0.6552 -0.6215 -0.2866
  357MOL0     C48089   0.580   4.276   4.202 -0.4029  0.2255  0.1226
  357MOL0     C48090   0.435   4.281   4.158 -0.7858  0.4433 -0.0085
  357MOL0     O48091   0.416   4.295   4.022  0.0033 -0.3339 -0.4032
  357MOL0     C48092   0.291   4.293   3.975  1.0403  0.8926 -0.4676
  357MOL0     C48093   0.255   4.392   3.882 -0.1666 -0.1598 -0.3287
  357MOL0     C48094   0.136   4.389   3.811 -0.6335  1.0692 -0.3395
  357MOL0     C48095   0.042   4.295   3.843 -0.1106  0.5519 -1.1577
  357MOL0     O48096  -0.080   4.309   3.788 -0.0680 -0.6429  0.4216
  357MOL0     C48097  -0.168   4.194   3.770 -0.4814 -0.6455  0.3429
  357MOL0     C48098  -0.299   4.214   3.694 -0.3396 -0.3762 -0.1672
  357MOL0     C48099  -0.292   4.317   3.573 -0.2306  0.5655 -0.0143
  357MOL0     C48100  -0.416   4.410   3.568 -0.0154 -1.0179 -0.4166
  357MOL0     C48101  -0.401   4.520   3.472 -0.6049 -0.0848  0.3135
  357MOL0     C48102  -0.469   4.655   3.505 -0.8392 -0.5273 -0.4099
  357MOL0     C48103  -0.624   4.641   3.503  0.2860 -0.0238  0.7001
  357MOL0     C48104  -0.693   4.644   3.366  0.3246  1.0534 -0.1363
  357MOL0    Cl48105  -0.870   4.683   3.375 -0.1201 -0.4526  0.1496
  357MOL0     C48106   0.067   4.206   3.949  0.3573 -0.9624 -0.4869
  357MOL0     C48107   0.188   4.211   4.018 -0.1950 -0.2295 -0.4436
  357MOL0     O48108   0.349   4.281   4.244 -0.0355 -0.0397  0.3612
  357MOL0     C48109   0.673   4.324   4.106  0.1792  0.1869 -0.7772
  357MOL0     C48110   0.803   4.336   4.141  0.2478  0.3555  0.6651
  357MOL0     N48111   1.015   4.508   3.893  0.0875  0.3296  0.4970
  357MOL0     N48112   0.954   4.503   3.782 -0.0223 -0.2278  0.6909
  357MOL0     C48113   1.547   4.806   3.100 -0.4288  0.0240 -0.5924
  357MOL0     C48114   1.679   4.857   3.084  0.3072 -0.3255 -0.0915
  357MOL0     C48115   2.058   5.018   2.932 -0.2423  0.0151 -0.7550
  357MOL0     C48116   2.186   4.995   2.990  0.0660  0.1784 -0.3814
  357MOL0     C48117   2.306   5.042   2.927 -0.0441  1.4013 -0.4836
  357MOL0     C48118   2.304   5.124   2.814  0.0569 -0.2305  0.2088
  357MOL0     O48119   2.404   5.190   2.757 -0.9313 -0.0154  0.3111
  357MOL0     C48120   2.511   5.102   2.716  0.8781 -0.8517 -0.0799
  357MOL0     C48121   2.471   5.004   2.597 -0.0576  0.5481 -0.2163
  357MOL0     C48122   2.590   4.918   2.559  0.2899  0.1248 -0.2758
  357MOL0     C48123   2.717   4.992   2.513  0.4309  1.1379 -0.3835
  357MOL0     C48124   2.683   5.071   2.394 -0.4516 -0.9520  0.6896
  357MOL0     C48125   2.645   5.126   2.287  0.1804 -0.4522 -0.2443
  357MOL0     C48126   2.184   5.135   2.751 -0.6151 -0.5210 -0.5024
  357MOL0     C48127   2.065   5.084   2.806  0.0737 -0.4645 -0.3362
  357MOL0     H48128   1.600   5.112   2.871  0.3216  0.3773 -0.6440
  357MOL0     H48129   1.369   5.009   2.912  0.6035  0.0237  0.4754
  357MOL0     H48130   1.183   4.924   2.968 -0.6965 -0.2090 -0.5544
  357MOL0     H48131   1.238   4.783   2.886 -1.2987  2.2786 -0.6140
  357MOL0     H48132   1.065   4.780   3.149 -2.6703  0.6310 -0.1548
  357MOL0     H48133   1.001   4.751   2.978  1.9025 -1.3999 -2.1122
  357MOL0     H48134   1.173   4.540   2.990  0.3297 -1.4608  1.5180
  357MOL0     H48135   1.186   4.594   3.161 -0.0785  5.3237  0.8182
  357MOL0     H48136   0.907   4.556   3.049  0.6292  0.0647 -0.5236
  357MOL0     H48137   0.993   4.405   3.055  1.2973 -0.5970  1.4431
  357MOL0     H48138   0.955   4.592   3.286 -2.6112  0.2788 -2.2915
  357MOL0     H48139   0.853   4.460   3.234 -1.2150  0.4883  2.9143
  357MOL0     H48140   1.052   4.290   3.265  2.3288  0.0007  1.5258
  357MOL0     H48141   1.154   4.413   3.310  0.3631 -3.2155  1.1884
  357MOL0     H48142   0.916   4.333   3.492 -1.1576  2.6427  3.9867
  357MOL0     H48143   1.096   4.318   3.506  0.8999  0.4052 -1.6631
  357MOL0     H48144   0.925   4.556   3.528 -1.4197 -2.2594 -0.4623
  357MOL0     H48145   1.110   4.569   3.506  0.1692  2.0622  2.9995
  357MOL0     H48146   1.262   4.453   3.694 -0.2846  2.4297 -0.8307
  357MOL0     H48147   1.343   4.475   3.907  0.4058  0.8566  0.9028
  357MOL0     H48148   1.251   4.514   4.053  1.1309 -1.2457  2.3510
  357MOL0     H48149   1.336   4.298   4.090 -1.4584 -3.5211  1.4059
  357MOL0     H48150   1.259   4.247   3.931 -2.4654 -1.2404  0.4627
  357MOL0     H48151   1.131   4.166   4.114  0.2017  0.9597 -0.6240
  357MOL0     H48152   1.035   4.275   4.016 -0.4298 -0.9329 -0.7988
  357MOL0     H48153   1.038   4.453   4.175  0.3946 -0.5879  0.6114
  357MOL0     H48154   1.174   4.391   4.256 -1.0379  3.0542  0.9383
  357MOL0     H48155   0.813   4.187   4.444 -0.3308 -0.6830  0.1505
  357MOL0     H48156   0.500   4.258   4.475  0.1228 -0.5454 -0.9991
  357MOL0     H48157   0.467   4.101   4.399  0.3427 -0.7928  0.7877
  357MOL0     H48158   0.609   4.108   4.498  1.5875  0.3120 -0.2950
  357MOL0     H48159   0.338   4.459   3.862 -1.1835  0.9275 -1.0488
  357MOL0     H48160   0.105   4.451   3.728  1.3648 -1.5861 -3.3027
  357MOL0     H48161  -0.114   4.125   3.705 -1.0024  0.2579 -1.0911
  357MOL0     H48162  -0.183   4.151   3.869  0.2441 -3.5314 -0.7119
  357MOL0     H48163  -0.357   4.125   3.666 -0.8469 -1.2199  3.2210
  357MOL0     H48164  -0.358   4.265   3.770 -1.0560 -0.3013 -0.7549
  357MOL0     H48165  -0.286   4.265   3.477 -0.4324 -0.3554  0.4642
  357MOL0     H48166  -0.207   4.383   3.594  0.4957 -0.8747  1.7653
  357MOL0     H48167  -0.493   4.345   3.525 -1.7196 -0.1890  1.2091
  357MOL0     H48168  -0.453   4.444   3.666 -0.1003 -2.7440  0.1917
  357MOL0     H48169  -0.436   4.486   3.373  0.7046 -1.4144  0.2848
  357MOL0     H48170  -0.295   4.545   3.469 -1.0745  2.2066  0.4921
  357MOL0     H48171  -0.435   4.700   3.599 -0.7820 -1.1393 -0.1331
  357MOL0     H48172  -0.447   4.731   3.430 -1.0679  2.5612  2.4212
  357MOL0     H48173  -0.651   4.729   3.561 -0.4959 -1.4983  2.7068
  357MOL0     H48174  -0.663   4.568   3.575  0.6790  1.1328  2.1310
  357MOL0     H48175  -0.679   4.544   3.322 -0.2313 -0.3391  2.6568
  357MOL0     H48176  -0.648   4.722   3.303  0.9210  0.0240 -1.0365
  357MOL0     H48177  -0.006   4.133   3.980 -3.0547  2.4988  0.3935
  357MOL0     H48178   0.207   4.129   4.087 -1.2879 -0.1992 -0.0979
  357MOL0     H48179   0.642   4.361   4.009 -0.1403  0.3181 -0.6280
  357MOL0     H48180   0.858   4.390   4.064  0.5582  0.1064  0.7079
  357MOL0     H48181   1.534   4.729   3.176 -0.5366  1.4205  0.8507
  357MOL0     H48182   1.757   4.810   3.143  2.1094 -0.4765 -2.4616
  357MOL0     H48183   2.197   4.945   3.086  4.5443  0.0544 -0.7299
  357MOL0     H48184   2.405   5.041   2.972 -0.5012  0.5814  0.5295
  357MOL0     H48185   2.597   5.166   2.696 -0.5437  1.4823  0.8081
  357MOL0     H48186   2.539   5.042   2.803 -1.1251 -0.8740  0.6044
  357MOL0     H48187   2.452   5.069   2.511 -0.4497 -0.7861 -1.1689
  357MOL0     H48188   2.382   4.943   2.614 -0.6170  1.6851  1.2482
  357MOL0     H48189   2.561   4.849   2.479 -4.2959 -0.7500  1.8045
  357MOL0     H48190   2.609   4.860   2.650 -2.4874  1.2312  1.1357
  357MOL0     H48191   2.795   4.921   2.484 -0.0271 -0.2010  1.4886
  357MOL0     H48192   2.766   5.051   2.592  1.6174 -0.3813  0.0663
  357MOL0     H48193   2.621   5.161   2.189 -0.8726 -1.9750 -0.5747
  357MOL0     H48194   2.174   5.184   2.655 -0.4715  1.1818  0.3169
  357MOL0     H48195   1.970   5.094   2.754 -0.7433  1.0949  1.3277
  358MOL0     O48196   1.214  11.180   7.015 -0.1752  0.6080 -0.4560
  358MOL0     C48197   1.213  11.267   7.104  0.1677 -0.5390  0.3699
  358MOL0     O48198   1.101  11.341   7.143  0.0624  0.1999 -0.6252
  358MOL0     C48199   0.974  11.322   7.089 -0.5898  0.4513  0.1493
  358MOL0     C48200   0.889  11.427   7.095  0.8146 -0.9920 -0.0670
  358MOL0     C48201   0.757  11.416   7.054  0.3122 -0.3199 -0.0772
  358MOL0     C48202   0.699  11.294   7.009  0.1386 -0.4906 -0.3237
  358MOL0     O48203   0.574  11.280   6.951 -0.7204 -0.1317  0.2728
  358MOL0     C48204   0.477  11.391   6.954 -0.1770  1.0213  0.2284
  358MOL0     C48205   0.375  11.379   6.832 -0.4502 -0.3321 -0.2094
  358MOL0     C48206   0.467  11.380   6.702  0.3802 -0.0495 -0.4604
  358MOL0     C48207   0.378  11.368   6.564 -0.0978 -1.2034 -0.3619
  358MOL0     C48208   0.468  11.355   6.445  0.6606 -0.0874 -0.0541
  358MOL0     C48209   0.549  11.219   6.440  0.0188  0.1345  0.8044
  358MOL0     C48210   0.558  11.177   6.292 -0.8559  0.2419 -0.0231
  358MOL0     C48211   0.424  11.151   6.213  0.1601 -0.1135  0.6014
  358MOL0     N48212   0.308  11.110   6.300 -0.4369 -0.2226  1.2220
  358MOL0     C48213   0.284  10.980   6.343 -0.1416 -0.1288 -0.4104
  358MOL0     C48214   0.150  10.982   6.387  0.0705  0.3925  0.5708
  358MOL0     C48215   0.064  10.867   6.415  1.2940  0.8170 -1.4804
  358MOL0     C48216   0.059  10.744   6.321 -0.0887 -0.2599 -0.2019
  358MOL0     C48217  -0.048  10.644   6.352  0.2685  0.4761 -0.1366
  358MOL0     C48218  -0.189  10.693   6.318  0.1616  0.3519  0.3386
  358MOL0     O48219  -0.261  10.758   6.429 -0.4285  0.0861 -0.4812
  358MOL0     C48220  -0.390  10.786   6.421 -0.3234 -0.8077 -0.2760
  358MOL0     C48221  -0.442  10.846   6.533  0.3272  0.1096  0.9273
  358MOL0     C48222  -0.582  10.874   6.539  0.1117  0.0952 -0.7115
  358MOL0     C48223  -0.639  10.910   6.676  0.3884  0.3272  1.7046
  358MOL0     C48224  -0.670  10.835   6.438 -0.4409 -0.0933  0.0110
  358MOL0     C48225  -0.821  10.849   6.443  0.0273  0.5944  0.1559
  358MOL0     O48226  -0.888  10.884   6.563  0.1899 -0.9763 -0.2205
  358MOL0     C48227  -1.026  10.913   6.575 -0.5177  0.2469  0.9220
  358MOL0     C48228  -1.075  10.893   6.701  0.5670  1.6073  0.4599
  358MOL0     C48229  -1.217  10.904   6.723 -0.3388  0.0125  0.6984
  358MOL0     C48230  -1.303  10.954   6.627  0.1165 -1.0471 -0.2114
  358MOL0     O48231  -1.444  10.958   6.633  0.2954  0.1802  0.1080
  358MOL0     C48232  -1.510  10.885   6.740  0.2408 -0.8923 -0.0204
  358MOL0     C48233  -1.660  10.924   6.752  0.1964  0.0378  0.6513
  358MOL0     C48234  -1.695  11.058   6.835 -0.2450 -0.2083 -0.5236
  358MOL0     C48235  -1.845  11.070   6.882  0.0871  0.1032  0.5571
  358MOL0     C48236  -1.951  11.068   6.776  0.3396  0.3022  0.6792
  358MOL0     C48237  -2.094  11.107   6.824 -1.3231 -0.6676 -0.0019
  358MOL0     C48238  -2.173  10.979   6.830  0.3424  0.0734 -0.2704
  358MOL0     C48239  -2.319  10.991   6.872  0.4200  0.5851  0.2805
  358MOL0    Cl48240  -2.318  11.050   7.038 -0.0296 -0.1722 -0.1887
  358MOL0     C48241  -1.246  10.972   6.496 -0.5133 -0.0762 -0.8444
  358MOL0     C48242  -1.110  10.955   6.469 -0.0328 -1.1995  0.0681
  358MOL0     O48243  -0.881  10.821   6.335  0.2303  0.4177 -0.4185
  358MOL0     C48244  -0.608  10.779   6.331 -0.8907 -0.6174 -0.0283
  358MOL0     C48245  -0.473  10.759   6.318  0.5033  0.1101  0.8656
  358MOL0     N48246   0.109  11.118   6.377 -0.1472 -0.3021 -0.0749
  358MOL0     N48247   0.197  11.187   6.310  0.5604 -0.8875 -0.2185
  358MOL0     C48248   0.788  11.184   7.011 -0.3061  0.4769 -0.8861
  358MOL0     C48249   0.923  11.196   7.054  0.6492  0.6328  0.4277
  358MOL0     C48250   1.343  11.300   7.159  0.0181  0.4665  0.0909
  358MOL0     C48251   1.413  11.204   7.237 -0.6253 -0.3481  0.6543
  358MOL0     C48252   1.533  11.232   7.295 -0.5119  0.3180  0.1843
  358MOL0     C48253   1.595  11.353   7.278  0.8287  0.3953  0.0987
  358MOL0     O48254   1.711  11.394   7.341  0.7686 -0.7820  0.0729
  358MOL0     C48255   1.778  11.305   7.432 -0.2603  0.4891 -0.1720
  358MOL0     C48256   1.874  11.219   7.360 -0.4598 -0.2774 -0.5618
  358MOL0     C48257   1.970  11.143   7.451  0.1621 -0.5314  0.1291
  358MOL0     C48258   2.038  11.038   7.375 -0.0658  0.8754  0.4994
  358MOL0     C48259   1.952  10.923   7.346 -0.2833 -0.0580 -0.4142
  358MOL0     C48260   1.886  10.828   7.325  0.1083  0.3382 -0.2034
  358MOL0     C48261   1.537  11.453   7.192  0.8951  0.4223 -0.4847
  358MOL0     C48262   1.405  11.428   7.130  0.3117 -0.0647  0.2770
  358MOL0     H48263   0.915  11.527   7.130 -2.0265 -0.5302  0.9912
  358MOL0     H48264   0.699  11.505   7.076  0.3467 -0.0501 -1.0422
  358MOL0     H48265   0.415  11.390   7.044 -0.6632  1.2859 -0.0931
  358MOL0     H48266   0.519  11.491   6.955 -1.0090  1.3826  0.1649
  358MOL0     H48267   0.320  11.285   6.837  0.1978 -0.6893  0.4293
  358MOL0     H48268   0.312  11.468   6.826  0.5464  0.2786 -2.8211
  358MOL0     H48269   0.522  11.474   6.707 -1.0261  0.8592 -1.5340
  358MOL0     H48270   0.531  11.291   6.701  1.4385  0.6717  0.4703
  358MOL0     H48271   0.321  11.275   6.574 -2.2025 -0.2282 -2.3505
  358MOL0     H48272   0.314  11.456   6.555  0.8827 -0.4637 -0.2790
  358MOL0     H48273   0.403  11.350   6.357 -0.6176 -2.9804  0.9293
  358MOL0     H48274   0.535  11.441   6.439  1.2220 -0.5866 -4.6748
  358MOL0     H48275   0.650  11.226   6.482  1.1123 -0.0234 -1.6263
  358MOL0     H48276   0.495  11.149   6.504  0.1245  0.6668  1.4755
  358MOL0     H48277   0.629  11.238   6.235  0.1694 -2.4243 -1.7664
  358MOL0     H48278   0.610  11.081   6.287  3.0310  2.1112  0.9937
  358MOL0     H48279   0.430  11.081   6.130 -1.3699  1.9849 -1.4162
  358MOL0     H48280   0.395  11.243   6.162  0.9822  1.1296  2.2478
  358MOL0     H48281   0.335  10.886   6.325 -2.3667 -1.7286  1.1597
  358MOL0     H48282   0.090  10.837   6.517 -0.7725 -1.5163 -1.5636
  358MOL0     H48283  -0.034  10.915   6.421  0.7315 -0.5197  1.9163
  358MOL0     H48284   0.159  10.700   6.325  1.4721  2.9891 -0.2556
  358MOL0     H48285   0.041  10.785   6.222 -0.2735 -2.0837 -0.9637
  358MOL0     H48286  -0.051  10.607   6.455 -0.6750  3.4697  1.0280
  358MOL0     H48287  -0.027  10.557   6.289  1.5059  0.9469 -0.3897
  358MOL0     H48288  -0.240  10.597   6.312  2.5104 -1.0162  1.0439
  358MOL0     H48289  -0.197  10.750   6.225 -0.1752 -0.0463  0.1204
  358MOL0     H48290  -0.372  10.866   6.614  1.0775 -1.5422  0.7239
  358MOL0     H48291  -0.700  10.828   6.715 -0.1011 -1.0179 -1.5661
  358MOL0     H48292  -0.559  10.916   6.749  2.8902 -0.2156 -0.8058
  358MOL0     H48293  -0.699  11.002   6.672 -0.1819 -0.0452 -2.1689
  358MOL0     H48294  -1.005  10.858   6.777 -0.1256  0.5056  0.6046
  358MOL0     H48295  -1.260  10.878   6.819  0.9896 -0.6838  1.1367
  358MOL0     H48296  -1.504  10.776   6.740  1.8835 -0.8275 -0.3212
  358MOL0     H48297  -1.472  10.926   6.835 -3.3664  1.2380  0.7082
  358MOL0     H48298  -1.707  10.939   6.654 -0.9036 -0.1949  1.1249
  358MOL0     H48299  -1.708  10.842   6.806  2.2908  0.1540  2.8461
  358MOL0     H48300  -1.680  11.146   6.773 -2.0858  1.7067  1.5578
  358MOL0     H48301  -1.619  11.059   6.913  0.3989 -2.6820 -1.0154
  358MOL0     H48302  -1.875  10.991   6.951 -0.4782  0.5664  0.8559
  358MOL0     H48303  -1.840  11.167   6.933 -0.0981 -1.2231  3.2894
  358MOL0     H48304  -1.950  10.972   6.725 -1.4996  0.9153 -0.6171
  358MOL0     H48305  -1.919  11.140   6.700  0.5595  3.3570  3.4405
  358MOL0     H48306  -2.082  11.164   6.917 -1.2789 -0.2851 -0.2400
  358MOL0     H48307  -2.135  11.177   6.752  0.2460  0.4764  0.1653
  358MOL0     H48308  -2.122  10.910   6.897 -0.2762 -2.9866 -2.7262
  358MOL0     H48309  -2.173  10.919   6.739 -1.2846 -2.2256  1.1517
  358MOL0     H48310  -2.367  10.893   6.871  0.5183  0.4958  1.7963
  358MOL0     H48311  -2.381  11.052   6.805 -0.4511 -1.3332 -0.7497
  358MOL0     H48312  -1.318  11.000   6.420 -1.3335  0.3241  0.0548
  358MOL0     H48313  -1.068  10.987   6.374  0.0943  2.1943  1.1265
  358MOL0     H48314  -0.658  10.749   6.239  1.1108  2.7944 -2.4297
  358MOL0     H48315  -0.411  10.733   6.232  1.2827 -1.3225  1.8205
  358MOL0     H48316   0.751  11.095   6.961 -2.6099  1.4588 -1.0543
  358MOL0     H48317   0.985  11.108   7.064 -1.4910 -0.9528  0.4662
  358MOL0     H48318   1.360  11.114   7.266  0.3413 -1.1340  0.0239
  358MOL0     H48319   1.567  11.156   7.364 -0.6101 -1.3097 -1.4622
  358MOL0     H48320   1.838  11.365   7.502  0.5912  0.7671 -1.1193
  358MOL0     H48321   1.707  11.246   7.490 -1.3596 -0.0117 -1.9761
  358MOL0     H48322   1.939  11.282   7.298  2.1942 -1.0751  1.2008
  358MOL0     H48323   1.810  11.156   7.298  0.3276 -0.1308 -1.5463
  358MOL0     H48324   1.920  11.107   7.540 -1.5503  2.9030  0.7283
  358MOL0     H48325   2.046  11.213   7.487  0.5751 -2.2116  2.7382
  358MOL0     H48326   2.117  11.001   7.441  0.3914 -0.9050 -0.9724
  358MOL0     H48327   2.104  11.073   7.295  0.4969 -0.8450  0.1647
  358MOL0     H48328   1.829  10.739   7.307  0.3648 -0.2201  1.5845
  358MOL0     H48329   1.594  11.545   7.190  0.8924  0.4209 -2.0775
  358MOL0     H48330   1.351  11.493   7.062  1.9697 -2.8225 -4.1031
  359MOL0     O48331   7.404   6.428   0.343  0.4170 -0.4153 -0.4778
  359MOL0     C48332   7.415   6.546   0.305 -0.0069  0.6362  0.1930
  359MOL0     O48333   7.315   6.634   0.295 -0.1615 -0.7213 -0.3067
  359MOL0     C48334   7.180   6.594   0.316 -0.7690 -0.5476  0.7613
  359MOL0     C48335   7.120   6.483   0.268  0.6059  0.1437  0.6200
  359MOL0     C48336   6.987   6.446   0.292 -0.1630 -0.7078 -0.1584
  359MOL0     C48337   6.911   6.531   0.381 -0.4564  0.6097 -0.7821
  359MOL0     O48338   6.789   6.470   0.407  0.2692 -0.4189  0.1227
  359MOL0     C48339   6.709   6.525   0.517 -1.3114 -0.6118 -0.2340
  359MOL0     C48340   6.594   6.424   0.551 -0.4388  0.1972  0.1862
  359MOL0     C48341   6.504   6.473   0.661 -0.5373 -0.2410 -0.0090
  359MOL0     C48342   6.396   6.368   0.699 -0.5832 -0.1898 -0.0675
  359MOL0     C48343   6.300   6.356   0.578  0.0081  0.5047  0.4333
  359MOL0     C48344   6.181   6.257   0.620 -0.4411 -0.3538 -0.0235
  359MOL0     C48345   6.045   6.304   0.551  0.9128 -0.0437  0.2004
  359MOL0     C48346   5.942   6.189   0.540 -0.1202  0.6512  0.1382
  359MOL0     N48347   5.904   6.137   0.673 -0.0390  0.0846 -0.2815
  359MOL0     C48348   5.840   6.197   0.776 -1.0665 -0.3710 -0.0891
  359MOL0     C48349   5.857   6.124   0.880 -0.2366  0.5025 -1.2893
  359MOL0     C48350   5.795   6.156   1.020  0.2445  0.7346 -0.1217
  359MOL0     C48351   5.640   6.149   0.996  0.3683  0.3768 -0.0643
  359MOL0     C48352   5.589   6.008   0.971  0.9892 -0.6544 -0.0410
  359MOL0     C48353   5.630   5.912   1.076 -0.2527  1.1510 -0.7944
  359MOL0     O48354   5.611   5.962   1.207 -0.5912  0.5010 -0.5093
  359MOL0     C48355   5.480   5.981   1.252 -0.6074 -0.3349  0.4592
  359MOL0     C48356   5.470   6.009   1.390  0.0981  0.7821 -0.3612
  359MOL0     C48357   5.349   6.013   1.465  0.5217 -0.7713  0.7543
  359MOL0     C48358   5.354   6.047   1.616  0.0995 -0.7596  0.5264
  359MOL0     C48359   5.234   5.980   1.391  0.0993  0.4275  1.2017
  359MOL0     C48360   5.097   5.970   1.439  1.6933  0.3502  0.1124
  359MOL0     O48361   5.021   5.859   1.406  0.0384 -0.6720 -0.7170
  359MOL0     C48362   4.894   5.840   1.463  0.0444  0.5203  0.6167
  359MOL0     C48363   4.783   5.840   1.385 -0.4286  1.0220 -0.0991
  359MOL0     C48364   4.656   5.824   1.431 -0.6184  0.7628  0.1790
  359MOL0     C48365   4.631   5.815   1.568  0.1774 -0.3144 -0.1176
  359MOL0     O48366   4.503   5.809   1.617  0.2142 -0.2724 -0.5196
  359MOL0     C48367   4.428   5.707   1.551 -0.1663  0.4872  0.6601
  359MOL0     C48368   4.323   5.663   1.647 -0.3474  0.0442 -0.1222
  359MOL0     C48369   4.220   5.551   1.589  0.4632  0.3959 -0.3859
  359MOL0     C48370   4.141   5.574   1.458  0.0885 -0.0350  0.1544
  359MOL0     C48371   4.024   5.482   1.426 -0.7476 -0.3786 -0.8417
  359MOL0     C48372   3.979   5.504   1.279  0.2421  0.3795 -0.3335
  359MOL0     C48373   3.884   5.400   1.235 -0.2380  0.5677 -0.0373
  359MOL0     C48374   3.746   5.422   1.289  0.5137  0.8003  0.2626
  359MOL0    Cl48375   3.676   5.582   1.224 -0.3237 -0.6931 -0.0931
  359MOL0     C48376   4.735   5.837   1.659  0.3240 -0.4793 -0.3011
  359MOL0     C48377   4.869   5.855   1.607 -0.2689  0.4590  1.5668
  359MOL0     O48378   5.056   6.065   1.504 -0.0710  0.0820 -0.2623
  359MOL0     C48379   5.248   5.931   1.255  1.1568 -0.2812 -0.5592
  359MOL0     C48380   5.359   5.941   1.184 -0.0826  0.9077  0.0452
  359MOL0     N48381   5.932   6.012   0.849 -0.4479  0.2776 -0.2462
  359MOL0     N48382   5.962   6.017   0.725 -0.0147  0.5424  0.8135
  359MOL0     C48383   6.961   6.650   0.421  0.5933  0.1881 -0.5110
  359MOL0     C48384   7.100   6.680   0.391 -0.6385  0.7003 -0.2122
  359MOL0     C48385   7.544   6.593   0.254  0.6426  0.1168 -0.1340
  359MOL0     C48386   7.540   6.693   0.161 -0.0150 -0.0716 -0.3837
  359MOL0     C48387   7.661   6.738   0.108 -0.1403 -0.3556  0.9518
  359MOL0     C48388   7.782   6.677   0.138 -0.3411  0.8718  0.6191
  359MOL0     O48389   7.901   6.715   0.090  0.1660  0.5982 -0.1913
  359MOL0     C48390   7.902   6.815  -0.015  0.1647  0.1779 -0.1007
  359MOL0     C48391   8.048   6.846  -0.040 -0.6127  0.3712 -0.0533
  359MOL0     C48392   8.103   6.918   0.081  0.1077 -0.3118 -0.1848
  359MOL0     C48393   8.251   6.893   0.107 -0.1249 -0.9820  0.4269
  359MOL0     C48394   8.346   6.963   0.010 -0.5508 -0.6404  0.4295
  359MOL0     C48395   8.415   7.015  -0.081 -1.3703  0.3417 -0.1410
  359MOL0     C48396   7.785   6.575   0.233  0.9691  0.1919 -0.9419
  359MOL0     C48397   7.667   6.526   0.286  0.3832 -0.2465 -0.1403
  359MOL0     H48398   7.179   6.418   0.204 -1.5914 -1.3997  0.0402
  359MOL0     H48399   6.943   6.351   0.264  0.9967 -0.8844 -1.4962
  359MOL0     H48400   6.768   6.535   0.608 -2.3943  3.3032  0.1999
  359MOL0     H48401   6.665   6.622   0.494  1.9576  1.8598  2.8119
  359MOL0     H48402   6.542   6.405   0.457  0.2070  0.2991 -0.1968
  359MOL0     H48403   6.634   6.330   0.589 -0.1139  0.1612 -0.2373
  359MOL0     H48404   6.569   6.486   0.748 -1.8292  0.6291  0.8602
  359MOL0     H48405   6.456   6.568   0.635 -0.6878 -0.2888  0.0927
  359MOL0     H48406   6.445   6.274   0.728  1.8175  1.2311  0.7605
  359MOL0     H48407   6.344   6.396   0.791 -0.5827 -0.0897 -0.0979
  359MOL0     H48408   6.255   6.452   0.551  0.4237  0.1449 -1.7497
  359MOL0     H48409   6.358   6.330   0.489 -1.3012 -3.3577  0.5396
  359MOL0     H48410   6.206   6.156   0.586  1.0824  0.4285 -1.4049
  359MOL0     H48411   6.164   6.267   0.728  0.5565  1.0280  0.0315
  359MOL0     H48412   5.998   6.386   0.606  2.5046  1.4307 -0.5472
  359MOL0     H48413   6.065   6.348   0.453 -1.7273  1.3661  0.2109
  359MOL0     H48414   5.990   6.113   0.477 -0.2662  1.4731 -1.0096
  359MOL0     H48415   5.858   6.240   0.491  1.0520  2.5568  0.0192
  359MOL0     H48416   5.791   6.294   0.773  0.6906  0.5419 -0.9195
  359MOL0     H48417   5.820   6.091   1.104 -2.2354 -0.5027 -0.2586
  359MOL0     H48418   5.833   6.258   1.034  1.2985  0.1809  1.2695
  359MOL0     H48419   5.610   6.195   0.902  1.1321 -2.7678 -1.9970
  359MOL0     H48420   5.602   6.194   1.089 -0.4353 -0.8634  0.2367
  359MOL0     H48421   5.623   5.964   0.876  1.3345  1.3360 -0.8854
  359MOL0     H48422   5.484   6.023   0.945  0.7644 -1.4002  0.3923
  359MOL0     H48423   5.734   5.883   1.064 -0.1808  0.7311  0.6515
  359MOL0     H48424   5.576   5.817   1.073  0.3867  0.5584  2.3856
  359MOL0     H48425   5.553   6.038   1.453 -0.8871 -0.1131  1.4487
  359MOL0     H48426   5.449   6.097   1.636  0.2514 -0.0931 -1.6520
  359MOL0     H48427   5.284   6.121   1.657 -0.1365 -0.7070  0.0354
  359MOL0     H48428   5.344   5.955   1.675  1.6899 -0.5100  1.2271
  359MOL0     H48429   4.799   5.840   1.277  2.3961  1.4303  0.2423
  359MOL0     H48430   4.577   5.822   1.357  0.9889  0.6885 -1.6344
  359MOL0     H48431   4.375   5.749   1.465  1.1070  1.6463  0.3988
  359MOL0     H48432   4.489   5.622   1.519 -1.2314 -0.0953  0.1188
  359MOL0     H48433   4.374   5.634   1.739 -0.8872  3.4599  1.4030
  359MOL0     H48434   4.263   5.752   1.665  1.1413  0.9541  0.4651
  359MOL0     H48435   4.142   5.536   1.665 -1.0738 -0.7367 -2.0977
  359MOL0     H48436   4.275   5.457   1.574  3.3799  1.6553  1.5690
  359MOL0     H48437   4.107   5.678   1.460 -1.5950 -0.4001 -3.0044
  359MOL0     H48438   4.213   5.558   1.378  1.6829 -0.0400  1.5382
  359MOL0     H48439   3.935   5.491   1.489 -0.9316 -2.0391 -0.8239
  359MOL0     H48440   4.065   5.383   1.447 -0.3737  0.0186  0.3542
  359MOL0     H48441   3.942   5.607   1.272  0.1271  0.2299 -3.0111
  359MOL0     H48442   4.076   5.496   1.231  1.0210  1.5021  0.9759
  359MOL0     H48443   3.918   5.305   1.277 -0.5968 -0.1056 -1.2162
  359MOL0     H48444   3.877   5.399   1.125  2.7801  1.6968 -0.3376
  359MOL0     H48445   3.750   5.421   1.399  0.6436  3.6765  0.3470
  359MOL0     H48446   3.684   5.335   1.263  0.4773  0.4760  1.3506
  359MOL0     H48447   4.714   5.864   1.762  0.7950  2.2992 -0.8424
  359MOL0     H48448   4.947   5.868   1.682 -1.1612 -4.3431  3.7320
  359MOL0     H48449   5.159   5.899   1.201  0.8723  1.3861 -1.1434
  359MOL0     H48450   5.365   5.897   1.085  0.1033 -0.5172  0.6495
  359MOL0     H48451   6.902   6.716   0.483 -0.7999 -2.2366  0.9059
  359MOL0     H48452   7.144   6.774   0.423  0.0946  0.2806  0.0431
  359MOL0     H48453   7.447   6.731   0.119 -0.2069 -0.3957 -0.2556
  359MOL0     H48454   7.658   6.812   0.029  2.0526 -0.6058  0.5723
  359MOL0     H48455   7.854   6.772  -0.103 -2.0667  3.0315 -0.4317
  359MOL0     H48456   7.854   6.912   0.004 -2.1721 -1.1641  1.2324
  359MOL0     H48457   8.055   6.912  -0.127  1.3296 -1.3032 -1.2737
  359MOL0     H48458   8.083   6.743  -0.056 -2.9357 -0.5614  0.5174
  359MOL0     H48459   8.043   6.890   0.168 -1.1010  3.0445  0.1895
  359MOL0     H48460   8.088   7.025   0.071 -0.8022 -0.1741  2.0342
  359MOL0     H48461   8.265   6.786   0.087 -1.3866 -1.6061  2.5671
  359MOL0     H48462   8.271   6.924   0.210  0.1936 -1.2516  0.4499
  359MOL0     H48463   8.480   7.055  -0.157 -1.4673  0.2175 -0.2904
  359MOL0     H48464   7.876   6.561   0.291 -0.2217  0.4619  1.0906
  359MOL0     H48465   7.657   6.448   0.361 -3.3050  0.4634  0.2869
  360MOL0     O48466   7.936   8.295   0.128  0.7422 -1.0094 -0.1671
  360MOL0     C48467   7.966   8.311   0.005  0.7828 -0.8520 -0.2377
  360MOL0     O48468   7.873   8.293  -0.099 -0.2991  0.3392 -1.1551
  360MOL0     C48469   7.742   8.256  -0.065 -0.6745  0.1751 -0.9867
  360MOL0     C48470   7.715   8.140   0.013  0.2244  0.7114 -0.0876
  360MOL0     C48471   7.586   8.112   0.058 -0.3858 -0.1908 -0.1193
  360MOL0     C48472   7.483   8.195   0.018  0.0180  0.2025  0.3490
  360MOL0     O48473   7.353   8.156   0.040 -0.0512 -0.3958  0.1261
  360MOL0     C48474   7.310   8.032  -0.007 -0.2359  0.0930  0.0369
  360MOL0     C48475   7.158   8.044  -0.019  0.9693 -0.8119 -0.5022
  360MOL0     C48476   7.103   7.959  -0.132  0.2903  1.2131  0.6266
  360MOL0     C48477   6.970   7.907  -0.105  0.3418 -0.2051 -0.6621
  360MOL0     C48478   6.925   7.816  -0.217 -0.3262  0.8934 -0.2672
  360MOL0     C48479   6.798   7.732  -0.180 -0.2108  0.0306  0.0561
  360MOL0     C48480   6.682   7.831  -0.194  0.5484  0.3898 -0.2179
  360MOL0     C48481   6.554   7.753  -0.172 -0.1232  0.7255 -0.1672
  360MOL0     N48482   6.441   7.837  -0.209  0.3754 -0.1281 -0.0411
  360MOL0     C48483   6.405   7.907  -0.330 -0.6864 -0.4914 -0.6871
  360MOL0     C48484   6.295   7.974  -0.302  0.3603 -0.5357  0.0168
  360MOL0     C48485   6.220   8.053  -0.407  0.1232  0.0245  0.4585
  360MOL0     C48486   6.081   7.999  -0.439  0.6454 -0.8219  0.7679
  360MOL0     C48487   6.022   8.099  -0.545 -0.3848 -0.0615 -0.4529
  360MOL0     C48488   5.895   8.043  -0.623 -0.4930  0.1494 -0.2491
  360MOL0     O48489   5.857   8.143  -0.719 -0.0497 -0.4284  0.1608
  360MOL0     C48490   5.731   8.144  -0.776 -0.0084  0.4281 -0.3973
  360MOL0     C48491   5.697   8.262  -0.839 -0.1118 -0.0078 -0.2797
  360MOL0     C48492   5.572   8.282  -0.903 -0.3121 -0.1122 -0.6399
  360MOL0     C48493   5.545   8.415  -0.966  0.0947 -0.0478 -0.2388
  360MOL0     C48494   5.478   8.184  -0.900  0.3290  0.6308 -0.3651
  360MOL0     C48495   5.344   8.195  -0.954  0.4506 -0.0669  0.0572
  360MOL0     O48496   5.330   8.243  -1.080  0.1426 -0.2318 -1.0335
  360MOL0     C48497   5.217   8.214  -1.152  0.4508 -0.7828  0.3194
  360MOL0     C48498   5.178   8.318  -1.241  0.0719  0.4758 -0.2607
  360MOL0     C48499   5.081   8.300  -1.341  0.3821  0.3675  0.7224
  360MOL0     C48500   5.013   8.183  -1.346 -0.2986 -0.2584  0.4357
  360MOL0     O48501   4.904   8.156  -1.424 -0.0544  0.4132 -0.1415
  360MOL0     C48502   4.864   8.268  -1.502  0.6796 -0.2619  0.0178
  360MOL0     C48503   4.739   8.226  -1.579 -0.8560 -0.1053  0.0118
  360MOL0     C48504   4.671   8.343  -1.642 -0.7005  0.4230 -0.2643
  360MOL0     C48505   4.603   8.295  -1.772  0.0082 -0.0732  0.2135
  360MOL0     C48506   4.565   8.413  -1.855  0.5849  0.0627  0.3659
  360MOL0     C48507   4.501   8.376  -1.991  0.4267  0.5828  0.6148
  360MOL0     C48508   4.457   8.506  -2.066  0.4079  0.9265  0.1998
  360MOL0     C48509   4.354   8.488  -2.175  0.4158  0.0838  0.6580
  360MOL0    Cl48510   4.186   8.488  -2.110  0.1647 -0.0542  0.0861
  360MOL0     C48511   5.055   8.085  -1.264  0.1178 -0.0233 -0.6342
  360MOL0     C48512   5.157   8.097  -1.163 -0.0510 -0.4195  0.9671
  360MOL0     O48513   5.255   8.135  -0.890 -0.0640  0.5352  0.6914
  360MOL0     C48514   5.515   8.065  -0.831 -0.2062  0.3245  0.4485
  360MOL0     C48515   5.635   8.046  -0.761 -0.0156 -0.1818 -0.0839
  360MOL0     N48516   6.267   7.965  -0.164 -0.2012  0.3094  0.1204
  360MOL0     N48517   6.364   7.891  -0.113 -0.3208  0.1456 -0.1354
  360MOL0     C48518   7.501   8.304  -0.061 -0.6939 -0.8071 -0.1511
  360MOL0     C48519   7.635   8.347  -0.099  0.3112  0.5204 -0.6828
  360MOL0     C48520   8.097   8.367  -0.042 -0.1875 -0.0227 -0.0968
  360MOL0     C48521   8.125   8.378  -0.180 -0.5334  0.4755 -0.5029
  360MOL0     C48522   8.248   8.425  -0.230 -0.6260 -0.2514 -0.3545
  360MOL0     C48523   8.352   8.463  -0.145 -0.4354  0.9655 -0.2422
  360MOL0     O48524   8.473   8.514  -0.175 -0.6880  0.0692 -0.3268
  360MOL0     C48525   8.503   8.561  -0.309  0.9080  0.2198 -1.2180
  360MOL0     C48526   8.656   8.576  -0.317  0.2020 -0.3072  0.1364
  360MOL0     C48527   8.746   8.463  -0.255 -0.0915 -0.1931  0.2322
  360MOL0     C48528   8.770   8.354  -0.354  0.0391  0.3658 -0.4163
  360MOL0     C48529   8.653   8.256  -0.381 -0.8313 -0.5995 -0.2659
  360MOL0     C48530   8.563   8.173  -0.398 -0.2699  0.4929  0.1707
  360MOL0     C48531   8.327   8.456  -0.009 -0.0555  0.1224 -0.2894
  360MOL0     C48532   8.206   8.417   0.043  1.1989 -0.5061 -0.8841
  360MOL0     H48533   7.795   8.071   0.037  1.2223  1.9300  0.2298
  360MOL0     H48534   7.574   8.022   0.117 -2.0930 -0.1204 -0.3266
  360MOL0     H48535   7.357   8.006  -0.102  1.2230 -0.7315  0.9570
  360MOL0     H48536   7.328   7.945   0.056 -0.9264 -0.4032 -0.4406
  360MOL0     H48537   7.117   8.018   0.079  1.2750 -1.4067 -0.5262
  360MOL0     H48538   7.142   8.149  -0.043  2.2730 -1.4158 -4.9262
  360MOL0     H48539   7.097   8.021  -0.222  0.0383 -0.7172 -0.7479
  360MOL0     H48540   7.169   7.876  -0.159 -2.0236 -1.0946  1.6145
  360MOL0     H48541   6.978   7.847  -0.014 -0.5077 -0.8794 -1.0212
  360MOL0     H48542   6.897   7.987  -0.089  1.2611  0.5059  0.1470
  360MOL0     H48543   6.912   7.874  -0.309 -0.8058 -0.5555 -1.1453
  360MOL0     H48544   7.004   7.744  -0.241 -1.5632 -1.2277  1.6201
  360MOL0     H48545   6.776   7.656  -0.255 -2.7887  1.2797 -0.5660
  360MOL0     H48546   6.802   7.698  -0.076  1.1174 -1.2964 -0.3943
  360MOL0     H48547   6.695   7.912  -0.122 -1.9783  0.7070 -0.0433
  360MOL0     H48548   6.673   7.881  -0.290  0.3963  0.8643  0.0429
  360MOL0     H48549   6.536   7.724  -0.069 -1.0705  0.7455 -0.3177
  360MOL0     H48550   6.565   7.661  -0.231 -2.4217  0.3441 -0.0689
  360MOL0     H48551   6.456   7.899  -0.425  1.2764 -0.0988  0.2916
  360MOL0     H48552   6.209   8.159  -0.378  1.4255 -0.2418  2.0759
  360MOL0     H48553   6.280   8.058  -0.498  0.4983 -0.7589  0.6614
  360MOL0     H48554   6.033   8.000  -0.341 -0.4022  0.2086  0.2642
  360MOL0     H48555   6.095   7.898  -0.478  0.8118 -0.4424 -0.1864
  360MOL0     H48556   6.097   8.105  -0.625  0.7587 -1.5738  0.4580
  360MOL0     H48557   6.008   8.205  -0.523 -1.1376 -0.1199 -0.5941
  360MOL0     H48558   5.808   8.017  -0.562  0.1483  1.7435  1.4371
  360MOL0     H48559   5.920   7.949  -0.673 -0.3951  0.2277 -0.3468
  360MOL0     H48560   5.770   8.341  -0.852 -1.6311  1.0814 -3.1882
  360MOL0     H48561   5.619   8.483  -0.923  0.8321 -1.5689  0.9978
  360MOL0     H48562   5.572   8.410  -1.072 -0.4785 -0.5672 -0.3706
  360MOL0     H48563   5.445   8.457  -0.950  0.6670  2.3807 -2.4117
  360MOL0     H48564   5.242   8.404  -1.231  2.0208 -1.0002  0.6991
  360MOL0     H48565   5.051   8.374  -1.414 -0.9148 -2.1617 -1.4822
  360MOL0     H48566   4.831   8.351  -1.439 -0.8905 -0.1211 -0.9486
  360MOL0     H48567   4.939   8.309  -1.570  1.3820 -1.3484  0.1132
  360MOL0     H48568   4.769   8.144  -1.644  0.2429  0.4819 -0.2395
  360MOL0     H48569   4.666   8.184  -1.509 -0.4505 -0.6912  0.0907
  360MOL0     H48570   4.750   8.413  -1.672 -0.1894  0.2287  0.5875
  360MOL0     H48571   4.599   8.379  -1.568 -0.0155 -1.0106  1.1589
  360MOL0     H48572   4.677   8.236  -1.828 -1.3612  0.9496 -2.9530
  360MOL0     H48573   4.514   8.233  -1.757  0.1663 -0.6831 -1.1623
  360MOL0     H48574   4.653   8.477  -1.868 -0.9550  1.9178 -1.7209
  360MOL0     H48575   4.500   8.476  -1.793  0.8971 -0.5522  1.3387
  360MOL0     H48576   4.564   8.319  -2.060 -0.9160 -0.5433  0.2460
  360MOL0     H48577   4.407   8.324  -1.967  0.1441  0.3299 -0.9275
  360MOL0     H48578   4.549   8.541  -2.114  0.0270  1.3320 -0.2462
  360MOL0     H48579   4.424   8.578  -1.992  1.3010  0.7682  0.7776
  360MOL0     H48580   4.378   8.401  -2.236 -0.1910 -1.2703  2.2652
  360MOL0     H48581   4.356   8.578  -2.237 -1.7240  0.1119  0.5653
  360MOL0     H48582   5.016   7.986  -1.283  0.9882  0.0387 -3.0829
  360MOL0     H48583   5.188   8.022  -1.092  1.4290 -1.6566 -0.8981
  360MOL0     H48584   5.444   7.983  -0.846  0.4260 -0.0927 -0.3682
  360MOL0     H48585   5.671   7.959  -0.708  1.6085  1.1461  1.0818
  360MOL0     H48586   7.416   8.367  -0.084  0.3708  0.6141 -0.3641
  360MOL0     H48587   7.653   8.441  -0.151 -0.6336 -0.6602 -3.3144
  360MOL0     H48588   8.050   8.352  -0.254 -0.9047 -0.3731  0.1573
  360MOL0     H48589   8.267   8.421  -0.337 -0.6054 -0.7194 -0.3350
  360MOL0     H48590   8.476   8.487  -0.385 -1.4542  0.3750 -0.6007
  360MOL0     H48591   8.454   8.657  -0.329  0.9859  0.5715  0.1581
  360MOL0     H48592   8.683   8.667  -0.263  1.2963 -0.7937  0.4493
  360MOL0     H48593   8.680   8.590  -0.423 -0.0079 -0.5943  0.0505
  360MOL0     H48594   8.699   8.408  -0.173  1.8500 -3.0435 -0.4161
  360MOL0     H48595   8.840   8.502  -0.215  0.2437  0.3682 -1.0477
  360MOL0     H48596   8.846   8.287  -0.311 -1.7681 -0.6728  1.3415
  360MOL0     H48597   8.815   8.384  -0.449  2.3102 -3.0438 -0.6169
  360MOL0     H48598   8.496   8.092  -0.417  0.2831  0.3719 -1.4061
  360MOL0     H48599   8.409   8.485   0.056 -0.4168  0.9348 -0.1844
  360MOL0     H48600   8.194   8.416   0.151  0.9755 -2.7268 -0.8958
  361MOL0     O48601  10.096   0.165   3.158  0.0640  0.0792  0.0187
  361MOL0     C48602  10.141   0.280   3.176 -1.1248  0.3905  0.8540
  361MOL0     O48603  10.077   0.400   3.159  0.3396  0.1412  0.4972
  361MOL0     C48604   9.946   0.386   3.118  0.2267 -0.1161 -0.3166
  361MOL0     C48605   9.912   0.310   3.000  0.0587 -1.1104  0.4008
  361MOL0     C48606   9.775   0.314   2.971  0.0968  0.4516  0.3332
  361MOL0     C48607   9.675   0.382   3.045 -0.8029  0.4414  0.8024
  361MOL0     O48608   9.542   0.375   3.012 -0.1128 -0.4357 -0.1496
  361MOL0     C48609   9.491   0.487   2.930  0.6845 -0.5128  0.1180
  361MOL0     C48610   9.455   0.450   2.783  0.0493  0.3608  0.1289
  361MOL0     C48611   9.411   0.568   2.696 -0.2787 -0.5168  0.4331
  361MOL0     C48612   9.261   0.597   2.694 -0.2548  0.8348  0.1262
  361MOL0     C48613   9.227   0.719   2.622  0.3781 -0.1151 -0.1180
  361MOL0     C48614   9.071   0.740   2.632 -0.4830 -0.3436 -0.1321
  361MOL0     C48615   9.025   0.809   2.499  0.1748 -0.3597  0.4555
  361MOL0     C48616   8.870   0.823   2.491 -0.0308  0.2520  0.0449
  361MOL0     N48617   8.821   0.874   2.616 -0.8499  0.3402 -0.0002
  361MOL0     C48618   8.852   0.998   2.655 -0.7534  0.2465 -0.4640
  361MOL0     C48619   8.799   1.020   2.767 -0.4654  0.2155 -0.2996
  361MOL0     C48620   8.787   1.156   2.840 -0.6390  0.6603 -0.3674
  361MOL0     C48621   8.658   1.224   2.812 -0.1705  0.5830 -0.0388
  361MOL0     C48622   8.538   1.132   2.838 -0.1323  0.0851 -0.1233
  361MOL0     C48623   8.400   1.208   2.833  0.8854  0.2780 -0.0326
  361MOL0     O48624   8.356   1.229   2.974 -0.2777  0.3141 -0.5513
  361MOL0     C48625   8.226   1.214   3.021  0.2077 -0.2221  0.1511
  361MOL0     C48626   8.201   1.201   3.158 -0.1713  0.0976  0.1246
  361MOL0     C48627   8.069   1.196   3.203 -0.9768 -0.1673 -0.5905
  361MOL0     C48628   8.056   1.195   3.356  0.3222  0.0567  0.3282
  361MOL0     C48629   7.958   1.204   3.116  0.4562  0.0825 -0.7121
  361MOL0     C48630   7.815   1.186   3.160 -0.0005 -0.4785  0.3211
  361MOL0     O48631   7.730   1.145   3.050 -0.5676  0.0577  0.2007
  361MOL0     C48632   7.595   1.147   3.071 -0.7612  1.1841 -0.0663
  361MOL0     C48633   7.523   1.042   3.034  0.2295  0.3522 -0.5507
  361MOL0     C48634   7.386   1.044   3.053  0.3120  0.8664 -0.2202
  361MOL0     C48635   7.318   1.150   3.114  0.0891  0.0062  0.5763
  361MOL0     O48636   7.181   1.152   3.121  0.6440 -0.1966 -0.8171
  361MOL0     C48637   7.110   1.165   2.997 -1.0378 -0.6038 -0.4958
  361MOL0     C48638   6.970   1.231   3.005 -0.2957  0.1614 -0.1337
  361MOL0     C48639   6.862   1.150   3.070  0.3278  1.0142 -0.2837
  361MOL0     C48640   6.734   1.149   2.974 -0.1229  0.0337 -0.4693
  361MOL0     C48641   6.611   1.122   3.055 -0.2830  0.4675 -0.9086
  361MOL0     C48642   6.497   1.110   2.957  0.4779 -0.7407  0.1729
  361MOL0     C48643   6.360   1.074   3.024  0.5973  0.0836 -0.4061
  361MOL0     C48644   6.336   1.149   3.152  1.1401 -0.4430  0.1770
  361MOL0    Cl48645   6.175   1.107   3.231 -0.1548 -0.1053  0.1867
  361MOL0     C48646   7.394   1.258   3.151  0.3011 -0.7251  0.2718
  361MOL0     C48647   7.531   1.260   3.124  0.4449  0.1043  0.2027
  361MOL0     O48648   7.778   1.195   3.280  0.2143 -0.7564 -0.1940
  361MOL0     C48649   7.986   1.224   2.985 -0.0291  0.0469  0.1607
  361MOL0     C48650   8.117   1.226   2.937 -0.3873 -0.4605  0.3744
  361MOL0     N48651   8.754   0.900   2.815  0.3820  0.5285  0.3508
  361MOL0     N48652   8.759   0.812   2.721  0.1434  0.3045  0.0734
  361MOL0     C48653   9.719   0.455   3.150 -0.2909 -0.3088  0.1417
  361MOL0     C48654   9.854   0.461   3.188 -0.1548  0.4143  0.7418
  361MOL0     C48655  10.284   0.298   3.214 -0.3899  0.6351 -0.2480
  361MOL0     C48656  10.371   0.192   3.240  0.3059 -0.4285 -0.0716
  361MOL0     C48657  10.505   0.215   3.277  0.5317  0.9095 -0.1515
  361MOL0     C48658  10.550   0.340   3.297  0.4467 -0.5864  0.4550
  361MOL0     O48659  10.678   0.350   3.354  0.2701  0.2014 -0.6038
  361MOL0     C48660  10.738   0.478   3.389  0.9652  0.1956 -0.5343
  361MOL0     C48661  10.869   0.465   3.466  0.6027  0.2026 -0.7958
  361MOL0     C48662  10.888   0.587   3.548  0.2474 -0.5916  0.6776
  361MOL0     C48663  11.021   0.562   3.613  0.1927 -0.0540  0.8568
  361MOL0     C48664  11.059   0.676   3.703 -0.3885 -0.5383  0.1535
  361MOL0     C48665  11.064   0.778   3.770  0.2700  0.0077  0.4439
  361MOL0     C48666  10.459   0.448   3.271 -0.1698  1.0837  0.5744
  361MOL0     C48667  10.323   0.425   3.239 -0.7691 -0.4066 -0.8059
  361MOL0     H48668   9.978   0.250   2.938 -1.7806 -2.4152 -0.3727
  361MOL0     H48669   9.726   0.259   2.891 -3.0647  4.6030 -0.9289
  361MOL0     H48670   9.402   0.530   2.977 -0.1128  1.7411 -3.0775
  361MOL0     H48671   9.564   0.567   2.938 -2.3957  2.3228  3.3607
  361MOL0     H48672   9.541   0.396   2.741  1.7996  2.8737  0.2254
  361MOL0     H48673   9.372   0.380   2.774 -0.2644  0.7649 -0.1806
  361MOL0     H48674   9.456   0.662   2.727 -0.5654 -0.0068 -0.6658
  361MOL0     H48675   9.445   0.551   2.594  1.5230  0.7431  0.7825
  361MOL0     H48676   9.217   0.513   2.639  0.9540 -0.3736  0.9449
  361MOL0     H48677   9.233   0.598   2.800 -1.1626  3.7341 -0.0737
  361MOL0     H48678   9.280   0.800   2.673 -2.0406  1.4141  0.1038
  361MOL0     H48679   9.252   0.715   2.516 -0.8752 -0.9117 -0.3993
  361MOL0     H48680   9.027   0.640   2.642  0.8485 -1.1487 -1.7472
  361MOL0     H48681   9.050   0.804   2.718  2.4161  1.9081 -0.9445
  361MOL0     H48682   9.068   0.910   2.495  0.4497 -0.4546  0.9195
  361MOL0     H48683   9.058   0.740   2.421  1.2258 -0.7650  1.2289
  361MOL0     H48684   8.827   0.726   2.466  1.1338 -0.1954 -0.2607
  361MOL0     H48685   8.849   0.891   2.408  0.9021  1.8999  1.0855
  361MOL0     H48686   8.903   1.068   2.589 -1.1297 -0.1753 -1.2242
  361MOL0     H48687   8.808   1.158   2.947  2.4427  0.9452 -0.8753
  361MOL0     H48688   8.863   1.224   2.800 -1.5566  0.9881 -1.6337
  361MOL0     H48689   8.646   1.259   2.709 -1.7345  0.2540  0.0048
  361MOL0     H48690   8.650   1.316   2.871 -1.1760  1.1544 -1.0155
  361MOL0     H48691   8.552   1.066   2.925  2.4325 -0.2545 -0.7228
  361MOL0     H48692   8.531   1.055   2.760  0.7636  0.7162 -0.8456
  361MOL0     H48693   8.324   1.146   2.784 -1.9060  1.7197  2.2057
  361MOL0     H48694   8.398   1.306   2.785 -2.3532  0.5434  0.4833
  361MOL0     H48695   8.290   1.199   3.220  0.6448  0.6160 -1.0040
  361MOL0     H48696   8.008   1.286   3.393  3.6092  1.5550  1.2014
  361MOL0     H48697   7.998   1.108   3.389 -0.9210  1.1041  1.0329
  361MOL0     H48698   8.151   1.188   3.409  1.7280  4.7355 -1.0366
  361MOL0     H48699   7.564   0.956   2.982  1.5824  0.1985  0.7124
  361MOL0     H48700   7.335   0.958   3.011 -1.0318  1.9852 -0.9475
  361MOL0     H48701   7.167   1.231   2.931 -0.8707  0.0519  0.2903
  361MOL0     H48702   7.108   1.063   2.958  0.9498 -0.4742 -1.0503
  361MOL0     H48703   6.974   1.330   3.052  0.0081  0.5802 -1.0279
  361MOL0     H48704   6.946   1.262   2.903  2.3679  1.8444 -0.3503
  361MOL0     H48705   6.836   1.187   3.169 -1.2700 -0.5285 -0.0659
  361MOL0     H48706   6.898   1.048   3.085 -0.7964  0.5494 -0.6101
  361MOL0     H48707   6.731   1.231   2.902 -1.4000 -0.4187 -0.9525
  361MOL0     H48708   6.753   1.056   2.919 -1.0392 -1.0961  1.0641
  361MOL0     H48709   6.594   1.207   3.122 -0.2408  1.4929 -2.1607
  361MOL0     H48710   6.625   1.036   3.122 -0.5268  0.8994 -0.2934
  361MOL0     H48711   6.493   1.208   2.909  3.4386  0.0044  1.2219
  361MOL0     H48712   6.520   1.040   2.876 -0.3469 -0.5641 -0.2196
  361MOL0     H48713   6.363   0.969   3.052  1.9908  0.1915 -0.0476
  361MOL0     H48714   6.286   1.103   2.950  1.5965  0.8556 -1.1403
  361MOL0     H48715   6.339   1.257   3.135 -1.5299 -0.5778 -1.8856
  361MOL0     H48716   6.417   1.121   3.220  1.8748 -0.1097 -0.5436
  361MOL0     H48717   7.331   1.342   3.181 -0.2194 -0.7910 -0.6007
  361MOL0     H48718   7.590   1.350   3.138 -0.6003  0.6890  0.9069
  361MOL0     H48719   7.903   1.236   2.916  1.2121  0.1741 -1.3825
  361MOL0     H48720   8.138   1.244   2.832  0.1792 -1.0784  0.3717
  361MOL0     H48721   9.648   0.501   3.218  0.6083 -1.1635  1.7033
  361MOL0     H48722   9.889   0.505   3.281  0.1275 -0.9255  1.2953
  361MOL0     H48723  10.342   0.088   3.233 -0.9497 -0.2823  2.2057
  361MOL0     H48724  10.571   0.133   3.301 -0.1603  0.4657  0.2539
  361MOL0     H48725  10.754   0.533   3.296  0.2669 -1.4423 -1.6590
  361MOL0     H48726  10.661   0.533   3.444 -0.3897  0.7211 -2.8313
  361MOL0     H48727  10.939   0.435   3.387 -2.0851 -3.7599 -1.9472
  361MOL0     H48728  10.861   0.385   3.539  0.9229  1.5344  0.7524
  361MOL0     H48729  10.799   0.606   3.609 -0.3249  1.2060 -0.6150
  361MOL0     H48730  10.895   0.677   3.486  0.7926  2.1561  4.3189
  361MOL0     H48731  11.102   0.556   3.540 -1.3656 -2.4413 -0.8082
  361MOL0     H48732  11.027   0.471   3.673 -0.6521  0.2865  1.4767
  361MOL0     H48733  11.091   0.870   3.816  1.6620 -1.5378  2.8819
  361MOL0     H48734  10.495   0.550   3.275 -1.9472  1.8735 -1.6007
  361MOL0     H48735  10.261   0.514   3.230  0.8892  0.7176 -1.9145
  362MOL0     O48736   7.910   2.579   3.540  0.4089  0.2615 -0.0354
  362MOL0     C48737   7.931   2.626   3.654 -0.9103 -0.6860  0.5538
  362MOL0     O48738   7.840   2.659   3.751  0.0378 -0.0225 -0.2790
  362MOL0     C48739   7.709   2.624   3.755 -0.4133  0.2757  0.4816
  362MOL0     C48740   7.656   2.594   3.880 -0.4013 -0.2802  0.1775
  362MOL0     C48741   7.522   2.555   3.899 -0.2829 -0.6993  0.4000
  362MOL0     C48742   7.432   2.549   3.793 -0.0624  0.0635  0.6732
  362MOL0     O48743   7.298   2.541   3.823  0.2213  0.4687 -0.2905
  362MOL0     C48744   7.205   2.507   3.717 -0.6822  0.1436 -0.8125
  362MOL0     C48745   7.079   2.478   3.781  0.2992 -0.1412 -0.0459
  362MOL0     C48746   7.077   2.361   3.870  0.3193 -0.7742  0.3640
  362MOL0     C48747   6.927   2.322   3.917  0.1990 -0.2753 -0.3202
  362MOL0     C48748   6.858   2.438   4.000  0.5300 -0.0518  0.4562
  362MOL0     C48749   6.725   2.382   4.044 -0.0454 -0.6215  0.4148
  362MOL0     C48750   6.617   2.405   3.925  0.4594  0.2483  0.1021
  362MOL0     C48751   6.490   2.352   3.983  0.1024  0.1747  0.5068
  362MOL0     N48752   6.383   2.357   3.883  0.5867  0.1978 -0.0914
  362MOL0     C48753   6.394   2.308   3.756 -0.2669  0.0266 -0.7938
  362MOL0     C48754   6.276   2.339   3.708  0.7645 -0.2841  0.0718
  362MOL0     C48755   6.251   2.328   3.561  0.1650  0.1359 -0.4698
  362MOL0     C48756   6.296   2.447   3.484  0.3862  1.0634 -0.9396
  362MOL0     C48757   6.249   2.438   3.339  0.2372  0.1765 -0.1172
  362MOL0     C48758   6.102   2.405   3.331 -0.4227 -0.5496  0.0953
  362MOL0     O48759   6.056   2.405   3.192  0.0132  0.6267 -0.2149
  362MOL0     C48760   5.924   2.425   3.161 -0.2213  0.3434  0.3244
  362MOL0     C48761   5.879   2.516   3.072 -0.5217  0.2263 -0.1413
  362MOL0     C48762   5.746   2.535   3.036 -0.2156 -1.4803 -0.1210
  362MOL0     C48763   5.724   2.632   2.924 -0.4693 -0.1312 -0.0753
  362MOL0     C48764   5.648   2.453   3.095  0.5435 -0.3145  0.1672
  362MOL0     C48765   5.499   2.459   3.071  0.2455 -0.2467  0.3192
  362MOL0     O48766   5.415   2.364   3.136  0.7862 -0.2571 -0.5494
  362MOL0     C48767   5.281   2.384   3.120 -0.2106  0.4435  0.0174
  362MOL0     C48768   5.199   2.370   3.238 -0.1775  0.3092 -0.4786
  362MOL0     C48769   5.058   2.395   3.228  0.2359 -1.0160  0.9481
  362MOL0     C48770   4.995   2.424   3.106  1.0454 -0.3384  0.0503
  362MOL0     O48771   4.855   2.444   3.085 -0.4564 -0.2532 -0.8033
  362MOL0     C48772   4.761   2.419   3.196  0.2255  0.3978 -0.4966
  362MOL0     C48773   4.627   2.503   3.195  0.7061  0.1599 -0.0048
  362MOL0     C48774   4.549   2.487   3.061 -0.1617  0.9227 -0.1051
  362MOL0     C48775   4.399   2.443   3.086 -0.2217  0.4600 -0.1941
  362MOL0     C48776   4.338   2.392   2.960  0.1278  0.3933 -0.2036
  362MOL0     C48777   4.195   2.333   2.985 -0.1121 -0.3078  0.5327
  362MOL0     C48778   4.129   2.317   2.855  0.4399 -0.1533  0.3986
  362MOL0     C48779   3.971   2.305   2.857 -0.1870  0.2677 -0.3750
  362MOL0    Cl48780   3.899   2.174   2.958 -0.6141 -0.5721  0.1679
  362MOL0     C48781   5.073   2.433   2.991 -0.2484  0.4390 -0.0190
  362MOL0     C48782   5.211   2.403   2.999 -0.7589 -0.6168  0.7184
  362MOL0     O48783   5.454   2.550   2.995  0.4653 -0.2645  0.2843
  362MOL0     C48784   5.686   2.359   3.188  0.2956  0.1445 -0.3732
  362MOL0     C48785   5.824   2.347   3.222  0.6060 -0.4661  0.5114
  362MOL0     N48786   6.190   2.407   3.789  0.4141 -0.1266 -0.4219
  362MOL0     N48787   6.254   2.405   3.900  0.1206 -0.0014 -0.8912
  362MOL0     C48788   7.489   2.569   3.666 -0.6336  0.3852 -0.1103
  362MOL0     C48789   7.622   2.600   3.648  0.0189  1.0780 -0.3979
  362MOL0     C48790   8.081   2.651   3.684  0.7654  0.2136 -0.1626
  362MOL0     C48791   8.125   2.783   3.704  0.1498  0.5035  0.1793
  362MOL0     C48792   8.259   2.809   3.715  0.5765  0.4658  0.3101
  362MOL0     C48793   8.354   2.698   3.718  0.7276  0.8112  1.0115
  362MOL0     O48794   8.488   2.724   3.745 -0.3520 -0.3273 -0.5780
  362MOL0     C48795   8.582   2.619   3.734 -0.0971  0.0009  0.1470
  362MOL0     C48796   8.714   2.663   3.794  0.0744 -0.5144 -0.6914
  362MOL0     C48797   8.712   2.698   3.941 -0.1534 -1.0534  0.2860
  362MOL0     C48798   8.843   2.760   3.969 -0.2250  0.1214  0.6376
  362MOL0     C48799   8.848   2.900   3.918 -0.3105  0.5444  0.5584
  362MOL0     C48800   8.860   3.014   3.893  0.8468 -0.2328 -0.0172
  362MOL0     C48801   8.305   2.567   3.693 -0.1669 -0.0474 -0.4461
  362MOL0     C48802   8.171   2.539   3.683  0.1728  0.1547  0.4951
  362MOL0     H48803   7.729   2.601   3.960  0.0598 -1.7070 -0.0806
  362MOL0     H48804   7.486   2.537   4.000  1.6403  0.0907  1.2765
  362MOL0     H48805   7.194   2.584   3.640  0.7688  2.1278  0.8180
  362MOL0     H48806   7.242   2.414   3.672 -1.5203 -1.3178  1.3762
  362MOL0     H48807   7.050   2.564   3.842 -0.9155 -0.7342  0.2458
  362MOL0     H48808   7.001   2.458   3.707 -1.0766  0.7448  1.1086
  362MOL0     H48809   7.113   2.273   3.817 -1.2049 -0.8153 -0.6908
  362MOL0     H48810   7.133   2.375   3.963 -0.0380  1.6517  0.3033
  362MOL0     H48811   6.866   2.303   3.828  1.3238  0.7618 -1.3614
  362MOL0     H48812   6.932   2.233   3.980  2.2498 -0.3912 -0.5872
  362MOL0     H48813   6.922   2.450   4.088 -0.9353  2.1654  1.3152
  362MOL0     H48814   6.849   2.524   3.932  0.1378 -0.8824 -0.5737
  362MOL0     H48815   6.728   2.278   4.078 -0.0255 -1.2913 -1.4927
  362MOL0     H48816   6.695   2.446   4.127  1.0333 -3.4782  3.2403
  362MOL0     H48817   6.607   2.512   3.906  2.0370  0.1072 -1.8711
  362MOL0     H48818   6.637   2.361   3.827  1.2615  0.7901  0.0090
  362MOL0     H48819   6.456   2.420   4.062  0.6914  0.2461  0.6971
  362MOL0     H48820   6.503   2.256   4.036 -2.6616  1.1843  3.3703
  362MOL0     H48821   6.478   2.257   3.711 -1.6238 -1.8228 -1.3333
  362MOL0     H48822   6.302   2.238   3.524  1.4499  1.4111 -1.9371
  362MOL0     H48823   6.142   2.313   3.560  0.4199 -2.0756  0.4654
  362MOL0     H48824   6.404   2.465   3.480  0.6167 -0.1818 -0.7997
  362MOL0     H48825   6.243   2.535   3.521 -1.0137 -0.1588  0.1489
  362MOL0     H48826   6.299   2.359   3.284 -0.3102 -0.4041  0.2063
  362MOL0     H48827   6.262   2.537   3.294  1.0322  1.0709  1.9481
  362MOL0     H48828   6.045   2.484   3.379  1.8607  0.8179  0.6876
  362MOL0     H48829   6.069   2.305   3.361 -1.5571 -0.0589  0.5482
  362MOL0     H48830   5.960   2.570   3.024  0.3062 -2.6446 -2.2840
  362MOL0     H48831   5.686   2.579   2.836 -0.9286 -0.4364  0.2979
  362MOL0     H48832   5.644   2.698   2.958 -0.1714 -1.2793  3.3397
  362MOL0     H48833   5.814   2.688   2.899 -0.5200  1.0271  2.0711
  362MOL0     H48834   5.245   2.342   3.332 -2.3109 -0.6561  0.3238
  362MOL0     H48835   4.998   2.375   3.316  0.9728  1.0139  1.9771
  362MOL0     H48836   4.753   2.310   3.190  1.6586  0.3148 -1.1962
  362MOL0     H48837   4.812   2.434   3.292  0.4677 -3.4343  0.1528
  362MOL0     H48838   4.573   2.463   3.282  2.7062 -1.2271  0.6761
  362MOL0     H48839   4.645   2.609   3.213  1.0297  0.6951 -3.0391
  362MOL0     H48840   4.604   2.416   3.000 -0.5826 -1.1342  1.7892
  362MOL0     H48841   4.555   2.583   3.009  2.6903  0.2172 -1.2045
  362MOL0     H48842   4.394   2.363   3.160  0.9654 -1.3280 -1.9308
  362MOL0     H48843   4.342   2.530   3.121  1.6420  0.5361  3.0498
  362MOL0     H48844   4.401   2.311   2.922 -1.5921 -0.3721 -1.5454
  362MOL0     H48845   4.351   2.469   2.882  0.5476  1.3407  0.7720
  362MOL0     H48846   4.215   2.235   3.030  1.9605 -1.1999 -2.0764
  362MOL0     H48847   4.141   2.404   3.048 -0.5574  0.5368 -0.7552
  362MOL0     H48848   4.173   2.224   2.818  1.9811 -0.6919  3.2932
  362MOL0     H48849   4.154   2.392   2.780  0.2495 -0.2770  0.2094
  362MOL0     H48850   3.939   2.285   2.754  0.5505  0.1070 -0.5752
  362MOL0     H48851   3.929   2.401   2.889 -0.4271 -0.4280  1.4948
  362MOL0     H48852   5.032   2.464   2.895 -0.6122  1.9011  0.5834
  362MOL0     H48853   5.261   2.411   2.903 -0.4644  0.9390  0.9633
  362MOL0     H48854   5.617   2.293   3.240  1.6146 -1.0822 -0.1302
  362MOL0     H48855   5.851   2.264   3.286  2.7392  1.2407  1.9756
  362MOL0     H48856   7.429   2.560   3.576  1.1418 -0.5967 -1.2488
  362MOL0     H48857   7.666   2.607   3.549 -0.7616 -3.7803 -1.3676
  362MOL0     H48858   8.053   2.862   3.683 -0.7854 -0.9508 -2.5113
  362MOL0     H48859   8.279   2.913   3.738 -0.1420  0.3451  1.5665
  362MOL0     H48860   8.561   2.535   3.801  0.6865  2.5653  3.9227
  362MOL0     H48861   8.591   2.594   3.628  1.5222  0.7882  0.0789
  362MOL0     H48862   8.738   2.747   3.729 -2.8208 -0.5305 -1.9049
  362MOL0     H48863   8.793   2.589   3.773  1.4475  0.7485 -0.2032
  362MOL0     H48864   8.696   2.603   3.992  2.7629 -0.8294  1.8231
  362MOL0     H48865   8.633   2.771   3.960 -1.0120 -2.3019  1.7420
  362MOL0     H48866   8.919   2.700   3.918 -2.0124  0.0934 -2.2022
  362MOL0     H48867   8.862   2.773   4.076  1.6405 -0.4644  0.4213
  362MOL0     H48868   8.888   3.115   3.871  0.8007  0.0641  1.1842
  362MOL0     H48869   8.367   2.479   3.684  1.3783  0.9288  0.3202
  362MOL0     H48870   8.131   2.444   3.648 -0.1676  0.5377 -0.1657
  363MOL0     O48871   8.754  11.011   4.601 -0.1040  0.0739 -0.4683
  363MOL0     C48872   8.860  11.003   4.656  0.6257 -0.2261  0.4363
  363MOL0     O48873   8.888  10.936   4.778  0.2529  0.3745 -0.1763
  363MOL0     C48874   8.796  10.837   4.823 -0.3434  0.5432 -1.0878
  363MOL0     C48875   8.851  10.718   4.855 -0.1791  0.0299 -0.2355
  363MOL0     C48876   8.768  10.605   4.879 -0.6457 -0.0591  0.7313
  363MOL0     C48877   8.630  10.624   4.901  0.5554  0.1396 -0.3282
  363MOL0     O48878   8.549  10.517   4.928  0.3606  0.3915 -0.0441
  363MOL0     C48879   8.409  10.532   4.910 -0.2079 -0.2025 -0.7643
  363MOL0     C48880   8.367  10.382   4.894  0.2570  0.4337 -0.3042
  363MOL0     C48881   8.215  10.371   4.882  0.2855 -0.0120 -0.1453
  363MOL0     C48882   8.166  10.231   4.910 -0.9671 -0.0851  0.3606
  363MOL0     C48883   8.020  10.213   4.878 -0.3020  0.8918  0.1378
  363MOL0     C48884   7.926  10.282   4.973 -0.1586 -0.5041 -0.3776
  363MOL0     C48885   7.785  10.258   4.917 -0.0951 -0.6204 -0.6461
  363MOL0     C48886   7.721  10.124   4.963  0.3812 -0.4445  0.6420
  363MOL0     N48887   7.592  10.111   4.898 -0.4402  0.1880  0.2068
  363MOL0     C48888   7.566  10.065   4.764  0.1798  0.5468  0.0917
  363MOL0     C48889   7.432  10.066   4.760 -0.8880 -0.0116 -0.0960
  363MOL0     C48890   7.344  10.021   4.644 -0.5752  0.1017 -0.5125
  363MOL0     C48891   7.197  10.015   4.680 -1.2729 -0.3985 -0.2109
  363MOL0     C48892   7.126   9.967   4.559  0.1811  0.7707  0.4655
  363MOL0     C48893   6.976  10.001   4.579 -0.3471  0.0418 -0.3742
  363MOL0     O48894   6.953  10.143   4.565 -0.2218  0.1835 -0.8261
  363MOL0     C48895   6.819  10.153   4.551 -0.4913 -0.4119  0.3264
  363MOL0     C48896   6.728  10.133   4.657  0.5437  0.1689 -0.6327
  363MOL0     C48897   6.586  10.137   4.636 -0.4386 -0.1543  0.3880
  363MOL0     C48898   6.503  10.146   4.760 -0.3842  0.5259  0.1964
  363MOL0     C48899   6.533  10.155   4.504 -0.1143 -0.7026 -0.3428
  363MOL0     C48900   6.388  10.149   4.481 -0.0739 -0.1280  0.7744
  363MOL0     O48901   6.354  10.228   4.378  0.6172  0.2643  0.2837
  363MOL0     C48902   6.224  10.235   4.347 -0.2012  1.1152  0.2292
  363MOL0     C48903   6.141  10.341   4.391 -0.5879  0.1587 -0.2425
  363MOL0     C48904   6.002  10.347   4.359 -0.6708  1.1162 -0.1477
  363MOL0     C48905   5.944  10.238   4.287 -0.4283 -0.8214 -0.4202
  363MOL0     O48906   5.813  10.236   4.244 -0.1917  0.2543  0.4400
  363MOL0     C48907   5.724  10.329   4.302 -0.0639 -0.7320 -0.1837
  363MOL0     C48908   5.576  10.291   4.266  0.0653  0.3119  0.1973
  363MOL0     C48909   5.471  10.390   4.320 -0.0316  0.1113 -0.4759
  363MOL0     C48910   5.334  10.332   4.270  0.7751 -0.6524  0.3209
  363MOL0     C48911   5.219  10.434   4.283  0.5065  0.0180 -0.1765
  363MOL0     C48912   5.204  10.536   4.169  0.0771  0.5673 -0.4877
  363MOL0     C48913   5.075  10.624   4.176  0.0881 -0.3366 -0.0271
  363MOL0     C48914   5.053  10.716   4.295 -0.5845  0.4789 -0.0817
  363MOL0    Cl48915   4.899  10.810   4.289 -0.0537  0.1423  0.3030
  363MOL0     C48916   6.020  10.142   4.247 -0.7312  0.6205  0.8955
  363MOL0     C48917   6.160  10.134   4.274 -0.4119  0.2077  0.6419
  363MOL0     O48918   6.314  10.076   4.544 -0.2566 -0.2175 -0.1644
  363MOL0     C48919   6.628  10.161   4.402  0.4729  0.6078  0.3532
  363MOL0     C48920   6.766  10.162   4.421  0.1734 -0.5290 -0.5529
  363MOL0     N48921   7.385  10.117   4.881  0.3672  1.2273 -0.5373
  363MOL0     N48922   7.484  10.148   4.961  0.8778 -0.6147  0.2340
  363MOL0     C48923   8.578  10.752   4.890 -0.3917  0.0020 -0.8888
  363MOL0     C48924   8.664  10.863   4.860 -0.2134 -0.1590  0.1357
  363MOL0     C48925   8.971  11.061   4.577  0.3980 -0.6170 -0.3448
  363MOL0     C48926   8.954  11.146   4.465 -0.2294  1.0466 -0.3833
  363MOL0     C48927   9.061  11.170   4.381  0.0202 -0.9645  0.3270
  363MOL0     C48928   9.185  11.111   4.401  0.2128 -0.1521  0.6589
  363MOL0     O48929   9.288  11.116   4.305 -0.6830  0.4995  0.2510
  363MOL0     C48930   9.270  11.166   4.172 -0.6818 -0.4617  0.5070
  363MOL0     C48931   9.282  11.317   4.178  0.0515  0.2709  0.0521
  363MOL0     C48932   9.211  11.369   4.051 -0.1703  0.3109  0.7746
  363MOL0     C48933   9.216  11.523   4.038  0.0615 -0.0406  0.3334
  363MOL0     C48934   9.352  11.571   4.008 -0.4162  0.0685 -0.6772
  363MOL0     C48935   9.464  11.616   3.992  0.1420 -0.3443  0.2700
  363MOL0     C48936   9.204  11.037   4.520  0.0271  0.3751 -0.3609
  363MOL0     C48937   9.096  11.007   4.605 -0.0553 -0.1446 -0.2574
  363MOL0     H48938   8.959  10.717   4.865 -0.2477 -0.2442  0.5497
  363MOL0     H48939   8.823  10.514   4.901 -0.0721  0.3976  1.2104
  363MOL0     H48940   8.360  10.581   4.994  0.1046  0.9240 -1.2157
  363MOL0     H48941   8.391  10.585   4.816 -1.0335  0.1794 -0.4018
  363MOL0     H48942   8.421  10.334   4.811 -2.4397 -3.7398  0.0320
  363MOL0     H48943   8.403  10.337   4.987  1.4415  0.5891 -0.6689
  363MOL0     H48944   8.176  10.440   4.958  0.8429  1.9879 -1.6168
  363MOL0     H48945   8.178  10.404   4.785 -1.2296 -0.0956  0.3772
  363MOL0     H48946   8.231  10.168   4.850 -1.9271 -1.3311  0.5796
  363MOL0     H48947   8.186  10.201   5.014 -1.7290 -1.9911  0.0039
  363MOL0     H48948   8.004  10.255   4.778 -4.4066  0.3963  0.4135
  363MOL0     H48949   7.998  10.106   4.870  1.3659  0.1660  3.4123
  363MOL0     H48950   7.936  10.238   5.073  0.5934 -0.1888 -0.3036
  363MOL0     H48951   7.936  10.391   4.980 -0.1467 -0.5537  0.5200
  363MOL0     H48952   7.715  10.337   4.947 -0.4002 -1.7772  1.9358
  363MOL0     H48953   7.791  10.257   4.807  2.5236  0.4288 -0.5918
  363MOL0     H48954   7.707  10.140   5.071 -1.0841 -0.8995  0.5326
  363MOL0     H48955   7.795  10.044   4.952 -0.0003 -1.0985  2.3873
  363MOL0     H48956   7.637  10.023   4.692 -0.7014  2.4550 -2.0286
  363MOL0     H48957   7.342  10.094   4.563 -0.3184 -0.6965 -1.2674
  363MOL0     H48958   7.379   9.924   4.606  2.4053  0.8578  0.0335
  363MOL0     H48959   7.158  10.112   4.715  0.8608 -0.4419  2.6989
  363MOL0     H48960   7.189   9.943   4.762 -0.0490  1.6428  1.8431
  363MOL0     H48961   7.133   9.858   4.551 -0.6546  0.7583 -0.2106
  363MOL0     H48962   7.152  10.021   4.468 -6.4462 -1.0120 -3.1900
  363MOL0     H48963   6.942   9.961   4.675 -1.0641  3.9831  1.2018
  363MOL0     H48964   6.930   9.942   4.499  1.4360 -2.6876  0.4691
  363MOL0     H48965   6.763  10.126   4.759 -0.9293 -1.8758 -0.2066
  363MOL0     H48966   6.437  10.234   4.767  0.2021  1.1287 -1.3628
  363MOL0     H48967   6.440  10.058   4.772  0.3019  0.1223  0.9401
  363MOL0     H48968   6.561  10.143   4.853  0.2635  0.7880 -0.1974
  363MOL0     H48969   6.192  10.423   4.439 -0.8355  0.1148  0.1047
  363MOL0     H48970   5.938  10.428   4.392  1.3694  2.0689  1.7756
  363MOL0     H48971   5.746  10.331   4.409  1.6048 -0.2926 -0.5108
  363MOL0     H48972   5.733  10.432   4.268 -0.4968 -1.0771 -1.4172
  363MOL0     H48973   5.550  10.282   4.160  0.7446 -0.8691  0.1145
  363MOL0     H48974   5.552  10.192   4.306  1.4585  0.0489  0.4517
  363MOL0     H48975   5.500  10.490   4.286  1.7264  0.3419  1.5101
  363MOL0     H48976   5.476  10.389   4.429  2.8288 -0.6995 -0.5389
  363MOL0     H48977   5.343  10.307   4.164 -0.0479 -0.5230  0.2144
  363MOL0     H48978   5.320  10.239   4.326 -1.4064 -0.3620  0.3472
  363MOL0     H48979   5.211  10.475   4.384  1.2615 -2.5722  1.0316
  363MOL0     H48980   5.127  10.375   4.273 -0.7160  1.6715  0.8236
  363MOL0     H48981   5.295  10.596   4.165  1.0848 -0.8198  0.5946
  363MOL0     H48982   5.198  10.486   4.072 -0.3621 -1.0017  0.3137
  363MOL0     H48983   4.992  10.555   4.159  1.0659 -0.8438 -3.4260
  363MOL0     H48984   5.079  10.686   4.086  2.0099  0.0169  0.2531
  363MOL0     H48985   5.134  10.790   4.301  1.9892 -2.2693  1.0294
  363MOL0     H48986   5.064  10.669   4.393 -2.6691  1.9612  0.9277
  363MOL0     H48987   5.974  10.062   4.190  2.0257  0.1856 -0.9517
  363MOL0     H48988   6.214  10.045   4.240 -2.1891 -1.1553  1.2669
  363MOL0     H48989   6.583  10.164   4.303 -0.5775 -2.0022  0.6552
  363MOL0     H48990   6.838  10.172   4.341 -0.3167 -0.2503 -0.9586
  363MOL0     H48991   8.472  10.767   4.907 -0.7802 -0.0231 -2.9793
  363MOL0     H48992   8.619  10.957   4.829  0.3095  0.8014  2.1018
  363MOL0     H48993   8.853  11.177   4.439 -0.7735 -0.9306 -0.7408
  363MOL0     H48994   9.042  11.227   4.291  0.4629 -1.3480 -0.0104
  363MOL0     H48995   9.354  11.134   4.110  0.4963 -2.3950  2.9508
  363MOL0     H48996   9.173  11.134   4.133 -2.1024  0.1385  3.2893
  363MOL0     H48997   9.384  11.356   4.174 -0.5621  1.9240 -2.9146
  363MOL0     H48998   9.223  11.355   4.262 -0.3412  4.1414 -1.7703
  363MOL0     H48999   9.109  11.332   4.057 -0.2557  0.7536  2.6777
  363MOL0     H49000   9.252  11.326   3.959 -2.0563 -1.3016  0.6237
  363MOL0     H49001   9.182  11.575   4.128 -0.7080  0.2424 -0.1119
  363MOL0     H49002   9.148  11.550   3.956 -1.9580  2.4237  2.6611
  363MOL0     H49003   9.563  11.653   3.979  0.7759 -0.8426  3.0327
  363MOL0     H49004   9.296  10.985   4.541 -0.7825 -1.3347 -0.8985
  363MOL0     H49005   9.126  10.955   4.696  0.0393  1.7579  0.8459
  364MOL0     O49006   7.578   7.289   4.584 -0.8698  0.1380 -0.1523
  364MOL0     C49007   7.659   7.366   4.644  0.7112 -0.5651  0.3733
  364MOL0     O49008   7.634   7.423   4.758 -0.0983 -0.4295 -0.3026
  364MOL0     C49009   7.508   7.405   4.822  0.2140 -0.1763 -0.4712
  364MOL0     C49010   7.453   7.521   4.883  0.3574 -0.6833  0.3226
  364MOL0     C49011   7.332   7.524   4.947 -0.1695 -0.1504  0.2770
  364MOL0     C49012   7.264   7.408   4.965  1.1503 -0.5459 -0.0119
  364MOL0     O49013   7.150   7.398   5.042  0.5016  0.2371 -0.1871
  364MOL0     C49014   7.076   7.521   5.079 -0.0486  0.0146 -0.2897
  364MOL0     C49015   6.942   7.484   5.148 -0.0734 -0.2112 -0.7170
  364MOL0     C49016   6.819   7.487   5.054 -0.1655 -0.0615 -0.4550
  364MOL0     C49017   6.698   7.426   5.116  1.0487 -0.2810  0.5591
  364MOL0     C49018   6.640   7.522   5.234  0.2643  0.0621  0.7916
  364MOL0     C49019   6.551   7.636   5.168 -0.0573 -0.2743 -0.1199
  364MOL0     C49020   6.471   7.708   5.278  0.1563 -1.1302 -0.0446
  364MOL0     C49021   6.578   7.795   5.350  0.5850 -0.4342 -0.0754
  364MOL0     N49022   6.517   7.911   5.411  0.4085  0.4358 -0.1526
  364MOL0     C49023   6.593   8.011   5.465  0.8164  0.4422 -0.9120
  364MOL0     C49024   6.497   8.113   5.476  0.8035 -0.1898 -0.1606
  364MOL0     C49025   6.522   8.254   5.528  0.1042 -0.3252 -0.4813
  364MOL0     C49026   6.572   8.245   5.673 -0.0169 -0.4045  0.3107
  364MOL0     C49027   6.577   8.387   5.730 -0.1252  0.2862 -0.0704
  364MOL0     C49028   6.446   8.438   5.778  0.9374 -1.2928  0.4390
  364MOL0     O49029   6.384   8.351   5.875  0.3058 -0.6286 -0.6459
  364MOL0     C49030   6.268   8.399   5.938  0.5751 -0.1522  0.2569
  364MOL0     C49031   6.189   8.309   6.007 -0.2535  0.5693 -0.1838
  364MOL0     C49032   6.059   8.337   6.070  0.0387  0.1691  1.7335
  364MOL0     C49033   5.997   8.230   6.158  0.0374  0.0254 -0.3944
  364MOL0     C49034   6.016   8.468   6.069 -0.3177  0.1178 -0.3736
  364MOL0     C49035   5.900   8.511   6.157  0.0691 -0.0995  0.2363
  364MOL0     O49036   5.897   8.652   6.157  0.0240  0.5235 -0.0383
  364MOL0     C49037   5.787   8.703   6.208  0.1570  0.5427 -0.2317
  364MOL0     C49038   5.789   8.740   6.338 -0.6915 -0.6512 -0.0818
  364MOL0     C49039   5.669   8.792   6.399  0.8642 -0.1622  0.1873
  364MOL0     C49040   5.549   8.781   6.328  0.0001 -0.5299  0.2079
  364MOL0     O49041   5.417   8.790   6.380 -0.2985 -0.5668  0.7156
  364MOL0     C49042   5.408   8.858   6.504  0.2068  0.6532  0.0314
  364MOL0     C49043   5.266   8.888   6.541  0.7973 -0.5004  0.0350
  364MOL0     C49044   5.196   8.974   6.434  0.4766 -0.1363  0.4186
  364MOL0     C49045   5.047   9.000   6.438  0.9451 -0.3838  0.0299
  364MOL0     C49046   4.985   8.885   6.358  0.1746 -0.2115  0.2472
  364MOL0     C49047   4.831   8.871   6.365  0.5639  0.1060 -0.5285
  364MOL0     C49048   4.750   8.992   6.328 -0.0095 -0.2239 -0.5976
  364MOL0     C49049   4.715   8.997   6.177  0.1878  0.4125 -0.1984
  364MOL0    Cl49050   4.865   9.029   6.081 -0.1088 -0.3995  0.2528
  364MOL0     C49051   5.556   8.753   6.191  0.1663  0.5045 -0.7227
  364MOL0     C49052   5.679   8.709   6.126  0.5260 -0.2771  0.7060
  364MOL0     O49053   5.828   8.439   6.218  0.1368  0.0066 -0.3595
  364MOL0     C49054   6.098   8.563   5.997  0.3633  0.9249  0.5267
  364MOL0     C49055   6.212   8.527   5.921  0.2120  0.1978 -0.5923
  364MOL0     N49056   6.379   8.082   5.414 -0.0084 -0.2894 -0.3216
  364MOL0     N49057   6.400   7.959   5.376 -0.4679 -0.3477  0.4595
  364MOL0     C49058   7.310   7.293   4.906 -0.3304  0.0208 -0.6203
  364MOL0     C49059   7.430   7.291   4.833 -0.7033  0.2704 -0.1992
  364MOL0     C49060   7.795   7.371   4.589  1.2439 -1.2579 -0.0731
  364MOL0     C49061   7.895   7.442   4.656 -1.2662  0.1027 -0.2445
  364MOL0     C49062   8.020   7.455   4.601 -0.1180 -0.4784 -0.2440
  364MOL0     C49063   8.044   7.406   4.468  0.3573  1.1678 -0.5707
  364MOL0     O49064   8.170   7.425   4.430 -0.3693  0.1900  0.0212
  364MOL0     C49065   8.218   7.327   4.329 -0.1639 -0.1018  1.0595
  364MOL0     C49066   8.377   7.314   4.319  0.6350  0.0309  0.0691
  364MOL0     C49067   8.422   7.221   4.210 -0.0222 -0.4183 -0.3179
  364MOL0     C49068   8.563   7.173   4.246 -0.5498  0.2471  0.2669
  364MOL0     C49069   8.651   7.294   4.233  0.3413  1.0459  0.1020
  364MOL0     C49070   8.730   7.384   4.230  0.5980 -1.0871  1.4820
  364MOL0     C49071   7.945   7.335   4.400  0.8218 -0.7275  0.5221
  364MOL0     C49072   7.821   7.311   4.467  0.4967 -0.1602  0.4019
  364MOL0     H49073   7.505   7.617   4.884  0.2122 -0.6072  1.2270
  364MOL0     H49074   7.296   7.616   4.991 -1.3854 -0.6572  0.3747
  364MOL0     H49075   7.132   7.576   5.155 -1.0292  1.4543 -0.5679
  364MOL0     H49076   7.061   7.592   4.996 -1.7592 -0.0763 -0.0890
  364MOL0     H49077   6.953   7.390   5.203  3.0617  1.1710  1.2670
  364MOL0     H49078   6.920   7.561   5.221  1.1875  1.4707 -2.0270
  364MOL0     H49079   6.797   7.589   5.022 -2.1616  0.0202  0.9753
  364MOL0     H49080   6.837   7.420   4.969  1.5095 -1.4287  0.8889
  364MOL0     H49081   6.620   7.405   5.042  0.0311  2.4065  0.7802
  364MOL0     H49082   6.715   7.330   5.166  3.7017 -0.4497 -0.4810
  364MOL0     H49083   6.584   7.459   5.303 -0.3075 -0.1523  0.1417
  364MOL0     H49084   6.720   7.571   5.290  0.0435  0.5527  0.6807
  364MOL0     H49085   6.608   7.700   5.100 -1.3540 -1.3530 -2.3680
  364MOL0     H49086   6.478   7.598   5.095 -0.9671 -0.1660  0.7196
  364MOL0     H49087   6.400   7.770   5.222  1.8903  0.1930 -0.8953
  364MOL0     H49088   6.418   7.637   5.342 -0.3432 -1.5223 -0.8764
  364MOL0     H49089   6.658   7.837   5.289  0.1490  1.0194  0.3137
  364MOL0     H49090   6.616   7.723   5.424  1.1979 -0.3743 -0.3293
  364MOL0     H49091   6.692   7.999   5.508  1.3776  0.2178 -2.2228
  364MOL0     H49092   6.591   8.302   5.459  0.1678 -1.0058 -0.8978
  364MOL0     H49093   6.428   8.311   5.530 -1.4467 -2.5735 -3.0480
  364MOL0     H49094   6.670   8.197   5.668 -0.2039 -0.6909 -1.0578
  364MOL0     H49095   6.521   8.181   5.745  0.5148 -1.5256 -0.2844
  364MOL0     H49096   6.617   8.457   5.657  0.3443  0.5441  0.4263
  364MOL0     H49097   6.635   8.383   5.823  0.2239  1.3364 -0.2388
  364MOL0     H49098   6.378   8.457   5.695  0.0360  0.0643  1.4484
  364MOL0     H49099   6.458   8.539   5.818 -2.9746 -1.3281  2.1099
  364MOL0     H49100   6.220   8.205   6.015 -3.6669 -0.4167  3.0009
  364MOL0     H49101   6.048   8.135   6.140 -2.6454 -1.6112  0.1880
  364MOL0     H49102   6.013   8.267   6.259  0.2301 -0.5001 -0.2283
  364MOL0     H49103   5.894   8.207   6.129 -0.1603 -0.9944  1.0419
  364MOL0     H49104   5.874   8.740   6.404  0.8339 -1.5701 -1.9473
  364MOL0     H49105   5.671   8.807   6.507 -2.5453  3.9407 -0.0466
  364MOL0     H49106   5.449   8.794   6.582 -0.4710 -0.8762 -0.8131
  364MOL0     H49107   5.464   8.951   6.506 -1.5897  1.7887  2.1691
  364MOL0     H49108   5.206   8.797   6.538 -0.3565  0.0521  2.7957
  364MOL0     H49109   5.256   8.928   6.643  2.8086 -1.1459  0.5263
  364MOL0     H49110   5.213   8.928   6.336  0.2904 -1.0312  0.8041
  364MOL0     H49111   5.231   9.078   6.438  1.0641 -0.3002 -0.2898
  364MOL0     H49112   5.015   8.994   6.542 -0.1770 -0.2252 -0.2874
  364MOL0     H49113   5.029   9.095   6.388  1.5764 -0.3513 -0.1451
  364MOL0     H49114   5.031   8.790   6.386 -1.1593 -2.4082 -4.0614
  364MOL0     H49115   5.017   8.896   6.254 -3.4887 -0.1639 -1.0413
  364MOL0     H49116   4.789   8.791   6.303 -1.7158  0.1146  0.8775
  364MOL0     H49117   4.805   8.836   6.466  0.2777  0.2922 -0.5399
  364MOL0     H49118   4.790   9.087   6.364 -0.3320 -1.1410  2.4494
  364MOL0     H49119   4.660   8.984   6.390  0.5105  1.1385  0.3676
  364MOL0     H49120   4.648   9.081   6.157 -0.6794 -0.2861 -0.2503
  364MOL0     H49121   4.657   8.908   6.152 -0.4913  0.9058 -0.4053
  364MOL0     H49122   5.471   8.751   6.124 -0.7857 -0.8487  0.4676
  364MOL0     H49123   5.683   8.691   6.019 -2.2345  0.1097  0.4690
  364MOL0     H49124   6.079   8.670   5.995 -3.5629  0.3886  1.2100
  364MOL0     H49125   6.263   8.603   5.863 -0.7421 -0.5561 -2.5185
  364MOL0     H49126   7.252   7.201   4.916  1.6047 -1.4217 -2.0282
  364MOL0     H49127   7.474   7.207   4.779  1.4154  1.5780 -0.6332
  364MOL0     H49128   7.884   7.492   4.752 -0.0805 -0.7356  0.3541
  364MOL0     H49129   8.087   7.518   4.658 -0.2491  1.7846 -2.4129
  364MOL0     H49130   8.182   7.228   4.359  0.3577 -0.0206  1.9771
  364MOL0     H49131   8.180   7.358   4.231 -3.3730  1.1573  2.5420
  364MOL0     H49132   8.401   7.267   4.415  0.8764 -0.0447 -0.0296
  364MOL0     H49133   8.431   7.409   4.311 -0.1270  0.3160 -2.7623
  364MOL0     H49134   8.426   7.277   4.116  0.4703  0.1095  0.0161
  364MOL0     H49135   8.369   7.126   4.199  1.7008 -1.2316 -2.3108
  364MOL0     H49136   8.594   7.098   4.173  0.2596  0.5522  0.2856
  364MOL0     H49137   8.568   7.140   4.350 -0.7856  1.1875  0.5861
  364MOL0     H49138   8.787   7.474   4.221 -1.9564  0.6070  0.9875
  364MOL0     H49139   7.962   7.289   4.303 -0.3456 -0.1632  0.0323
  364MOL0     H49140   7.753   7.249   4.410  1.6467 -0.3298 -0.8174
  365MOL0     O49141   6.917  10.463   2.540  0.1855  0.1305 -0.2308
  365MOL0     C49142   6.972  10.411   2.637 -1.0243  0.5935 -0.3008
  365MOL0     O49143   6.914  10.323   2.732 -0.6497 -0.1033 -0.3292
  365MOL0     C49144   6.787  10.326   2.761  1.0034  0.5415  0.3456
  365MOL0     C49145   6.736  10.219   2.828 -0.1968 -0.9787 -0.3486
  365MOL0     C49146   6.610  10.218   2.876  0.1123  0.1586 -0.0202
  365MOL0     C49147   6.524  10.323   2.848 -0.0721 -0.4733 -0.9120
  365MOL0     O49148   6.399  10.335   2.902  0.2432  0.8282 -0.6143
  365MOL0     C49149   6.340  10.212   2.952  0.2935 -0.2386  0.5142
  365MOL0     C49150   6.193  10.252   2.993 -0.1095 -0.8218 -0.3185
  365MOL0     C49151   6.102  10.298   2.879  0.5155  0.2995  0.5502
  365MOL0     C49152   5.960  10.328   2.933 -0.3896 -0.0222  0.1250
  365MOL0     C49153   5.868  10.207   2.971 -0.9183  0.2270  0.4579
  365MOL0     C49154   5.737  10.265   3.031 -0.1763  0.3064 -0.0811
  365MOL0     C49155   5.636  10.156   3.044 -0.1510  0.2369 -0.4298
  365MOL0     C49156   5.504  10.220   3.076  0.5984 -0.3629 -0.1467
  365MOL0     N49157   5.390  10.130   3.064 -0.5490  0.4268 -0.2991
  365MOL0     C49158   5.313  10.095   3.172 -0.5678 -0.6121 -0.3287
  365MOL0     C49159   5.226  10.005   3.126  0.0849  0.1984 -0.4570
  365MOL0     C49160   5.101   9.949   3.192 -0.3236 -0.0193  0.4115
  365MOL0     C49161   4.978   9.934   3.111  0.6863 -0.4646 -0.3009
  365MOL0     C49162   4.934  10.073   3.069 -0.6463 -0.0944  0.3159
  365MOL0     C49163   4.786  10.070   3.015 -1.1086  0.2679  0.3811
  365MOL0     O49164   4.686  10.045   3.114 -0.0894 -0.9619  0.2266
  365MOL0     C49165   4.564  10.032   3.055  0.8244  0.1240  0.1021
  365MOL0     C49166   4.457  10.004   3.144  0.2823 -1.4462 -0.1712
  365MOL0     C49167   4.323  10.020   3.103  0.2894  0.7962 -0.5840
  365MOL0     C49168   4.220  10.008   3.215 -0.1603 -0.2953 -1.1350
  365MOL0     C49169   4.290  10.027   2.969  0.4282  0.1986  0.2020
  365MOL0     C49170   4.150  10.019   2.912 -0.4279 -0.4394  0.9137
  365MOL0     O49171   4.046  10.013   2.997 -0.1816 -0.0073 -0.0094
  365MOL0     C49172   3.923   9.974   2.960  0.3391  0.1635 -0.6158
  365MOL0     C49173   3.911   9.852   2.894  0.6768 -0.0115 -0.4240
  365MOL0     C49174   3.782   9.823   2.850 -0.2800  0.2292  0.1320
  365MOL0     C49175   3.662   9.897   2.885 -0.0733 -0.0961  2.4488
  365MOL0     O49176   3.537   9.846   2.857 -0.7438  0.0195 -0.0713
  365MOL0     C49177   3.434   9.949   2.842  0.7206 -0.0050  0.0063
  365MOL0     C49178   3.308   9.875   2.806 -0.6589  0.9583 -0.5810
  365MOL0     C49179   3.193   9.963   2.775  0.3805  0.7178 -0.1792
  365MOL0     C49180   3.051   9.898   2.791 -0.3693 -0.5094  0.1687
  365MOL0     C49181   2.938  10.000   2.793 -0.2087 -0.7871 -0.1747
  365MOL0     C49182   2.802   9.943   2.767  0.9917 -1.2909  0.0417
  365MOL0     C49183   2.704  10.063   2.786 -0.4729 -0.3702 -0.5250
  365MOL0     C49184   2.563  10.025   2.760  0.0301 -0.0180  0.0159
  365MOL0    Cl49185   2.541  10.034   2.587 -0.1037  0.0294  0.0086
  365MOL0     C49186   3.683  10.020   2.956 -0.2194  0.4639 -0.2039
  365MOL0     C49187   3.812  10.060   2.981 -0.1188  0.4015 -0.8873
  365MOL0     O49188   4.140  10.016   2.788  0.2934 -0.5342 -0.6920
  365MOL0     C49189   4.402  10.030   2.878  0.7561 -0.7685  0.3541
  365MOL0     C49190   4.534  10.031   2.917 -0.2794 -1.3475 -0.5918
  365MOL0     N49191   5.255   9.986   2.992 -0.2421  0.1354 -0.0837
  365MOL0     N49192   5.348  10.061   2.955  0.0697  0.1539 -0.0279
  365MOL0     C49193   6.574  10.432   2.774 -0.0351  0.4125  0.3318
  365MOL0     C49194   6.705  10.435   2.729 -0.5309  0.2497 -0.1721
  365MOL0     C49195   7.121  10.435   2.660 -0.6025  0.8886  0.2939
  365MOL0     C49196   7.197  10.503   2.562  0.5842 -0.2191  0.2301
  365MOL0     C49197   7.333  10.497   2.562  0.3103  0.7354  0.7452
  365MOL0     C49198   7.400  10.424   2.663  0.6468 -0.3124  0.4500
  365MOL0     O49199   7.540  10.413   2.655  0.6406 -0.3013 -0.3833
  365MOL0     C49200   7.623  10.325   2.742 -0.2771 -0.0217  0.1099
  365MOL0     C49201   7.592  10.176   2.723  0.1244 -1.0789  0.8847
  365MOL0     C49202   7.672  10.107   2.607  0.3024 -0.0880 -0.1514
  365MOL0     C49203   7.650  10.186   2.474 -0.1997 -0.2956  0.4495
  365MOL0     C49204   7.750  10.144   2.378 -0.0897  0.9396  0.3297
  365MOL0     C49205   7.842  10.106   2.306 -0.2654 -0.6002 -0.2069
  365MOL0     C49206   7.327  10.372   2.772  0.8412  0.2455  0.2120
  365MOL0     C49207   7.187  10.373   2.765 -0.4269  0.0616 -0.1567
  365MOL0     H49208   6.815  10.145   2.839  3.5995  2.8972  1.9331
  365MOL0     H49209   6.595  10.136   2.946  3.1962 -0.0697  0.5027
  365MOL0     H49210   6.316  10.139   2.873  0.1280  2.0561 -1.6793
  365MOL0     H49211   6.392  10.184   3.044  1.5523 -1.4622 -0.5315
  365MOL0     H49212   6.138  10.176   3.050 -1.8677  2.2364  2.3919
  365MOL0     H49213   6.201  10.332   3.067  0.4762 -1.0394 -0.1410
  365MOL0     H49214   6.138  10.396   2.846 -1.0103  1.2598  1.5801
  365MOL0     H49215   6.098  10.233   2.791  0.0150  2.6826 -1.3211
  365MOL0     H49216   5.967  10.393   3.021 -1.7342  0.1275  0.1299
  365MOL0     H49217   5.906  10.386   2.857 -1.0838 -1.3467 -0.4225
  365MOL0     H49218   5.848  10.152   2.878  0.1498  2.2301 -1.0390
  365MOL0     H49219   5.919  10.142   3.043 -1.2001  1.7441  2.0788
  365MOL0     H49220   5.747  10.310   3.130 -1.2275  1.9963 -0.6869
  365MOL0     H49221   5.714  10.350   2.966  4.0387  1.4364 -0.3718
  365MOL0     H49222   5.633  10.108   2.946 -0.1123  0.3727 -0.4980
  365MOL0     H49223   5.665  10.083   3.121 -0.7217 -0.3335 -0.7453
  365MOL0     H49224   5.492  10.305   3.007  1.4496 -0.3758 -0.3278
  365MOL0     H49225   5.503  10.256   3.179  0.6084 -3.4978  1.0556
  365MOL0     H49226   5.306  10.156   3.262 -1.2282 -0.5259 -0.4335
  365MOL0     H49227   5.130   9.852   3.235  0.1784 -0.4917 -0.9127
  365MOL0     H49228   5.090  10.011   3.281 -0.7233 -2.2745  2.0384
  365MOL0     H49229   4.901   9.881   3.168 -0.7444  3.2253  1.5448
  365MOL0     H49230   4.988   9.872   3.021  0.0111  0.0154 -0.7154
  365MOL0     H49231   4.992  10.104   2.982 -1.0360  0.5773  0.2830
  365MOL0     H49232   4.943  10.141   3.155 -1.1282 -1.6671  1.6641
  365MOL0     H49233   4.795   9.991   2.940 -0.0716  2.1364 -1.5662
  365MOL0     H49234   4.768  10.162   2.960  1.2392  1.3632  1.2911
  365MOL0     H49235   4.486   9.992   3.248  2.1210  1.1519 -0.2866
  365MOL0     H49236   4.164  10.100   3.196 -0.8130 -0.7651 -1.5340
  365MOL0     H49237   4.151   9.924   3.204  0.3526 -0.7798 -0.7518
  365MOL0     H49238   4.281  10.018   3.305 -0.5901 -1.0219 -0.7576
  365MOL0     H49239   3.989   9.786   2.860  0.3749 -1.2165  1.1104
  365MOL0     H49240   3.771   9.726   2.802  1.4995  1.2839 -2.6700
  365MOL0     H49241   3.412   9.996   2.938  4.4817 -0.6731  1.3463
  365MOL0     H49242   3.457  10.009   2.753 -0.3560  1.4796  0.6877
  365MOL0     H49243   3.332   9.811   2.720 -1.4187  1.4319 -1.1582
  365MOL0     H49244   3.279   9.815   2.893 -0.2647  0.4935 -0.7630
  365MOL0     H49245   3.204  10.001   2.673 -3.0045  3.4538  0.2816
  365MOL0     H49246   3.184  10.049   2.842 -1.7705  1.2785 -1.1002
  365MOL0     H49247   3.024   9.819   2.721 -3.4770  0.3220  0.2923
  365MOL0     H49248   3.051   9.842   2.885  2.0911 -0.6355  0.1674
  365MOL0     H49249   2.955  10.063   2.705 -2.4383 -4.0962 -3.2277
  365MOL0     H49250   2.940  10.052   2.889 -0.2429 -0.1697 -0.4978
  365MOL0     H49251   2.797   9.913   2.661  1.3000 -0.5009 -0.2008
  365MOL0     H49252   2.778   9.855   2.827  0.0395 -3.1304 -2.8045
  365MOL0     H49253   2.729  10.146   2.718  1.0844 -0.1921  0.2125
  365MOL0     H49254   2.708  10.102   2.888  4.1196  0.9210 -0.9913
  365MOL0     H49255   2.498  10.105   2.796  2.4273  1.8490  0.4802
  365MOL0     H49256   2.523   9.935   2.808 -0.9899  1.0131  1.1684
  365MOL0     H49257   3.598  10.081   2.987  0.0121 -0.2992  2.1088
  365MOL0     H49258   3.830  10.153   3.035 -1.1968  0.0448  0.1182
  365MOL0     H49259   4.380  10.029   2.772 -0.4975  1.4915  0.5313
  365MOL0     H49260   4.612  10.032   2.842  0.6210  0.7169  0.3088
  365MOL0     H49261   6.511  10.518   2.757  1.9357  2.1011  1.2278
  365MOL0     H49262   6.744  10.519   2.672  0.3869  0.2919  0.4853
  365MOL0     H49263   7.140  10.558   2.488  0.7524 -0.4117 -0.0418
  365MOL0     H49264   7.387  10.530   2.473 -0.1211 -2.0525 -0.6371
  365MOL0     H49265   7.730  10.343   2.728 -0.3032 -0.6874 -1.1492
  365MOL0     H49266   7.609  10.350   2.848 -1.1387  0.9946 -0.2313
  365MOL0     H49267   7.483  10.169   2.710 -0.4184  3.3757  1.3922
  365MOL0     H49268   7.626  10.121   2.811  3.2379 -1.9858 -0.7354
  365MOL0     H49269   7.646  10.003   2.588 -0.1409  0.1466 -0.8454
  365MOL0     H49270   7.779  10.115   2.630  0.4032  1.5488 -1.0504
  365MOL0     H49271   7.665  10.292   2.497 -1.3112 -0.2379  0.9776
  365MOL0     H49272   7.550  10.168   2.434  0.6765 -0.8180 -1.6432
  365MOL0     H49273   7.925  10.072   2.248 -0.2918 -0.8351 -0.1075
  365MOL0     H49274   7.373  10.327   2.859  1.3518  1.8303  0.7903
  365MOL0     H49275   7.129  10.333   2.847  0.2934 -1.7670 -0.4834
  366MOL0     O49276   3.638   2.987   1.856 -0.3863 -0.8075  0.3920
  366MOL0     C49277   3.662   2.896   1.785 -0.1332  0.2753 -0.0854
  366MOL0     O49278   3.571   2.822   1.710  0.9130 -0.2967  0.1327
  366MOL0     C49279   3.439   2.841   1.724  0.0701  0.9204  0.1835
  366MOL0     C49280   3.358   2.771   1.635 -0.1838  0.0579  0.1874
  366MOL0     C49281   3.219   2.765   1.641 -0.2741 -0.0794 -0.1807
  366MOL0     C49282   3.150   2.850   1.724 -0.5427 -0.0068  0.0721
  366MOL0     O49283   3.012   2.862   1.725  1.2484 -0.4930 -0.4104
  366MOL0     C49284   2.935   2.796   1.613  0.1060 -0.2144  0.3073
  366MOL0     C49285   2.791   2.784   1.655  0.6056 -0.8404  0.0801
  366MOL0     C49286   2.765   2.654   1.728 -0.4706  0.1865  0.0575
  366MOL0     C49287   2.618   2.657   1.783  0.0671  0.5407  0.2455
  366MOL0     C49288   2.593   2.530   1.859  0.7094 -0.9436 -0.1668
  366MOL0     C49289   2.464   2.529   1.954 -0.4019 -0.4011  0.1417
  366MOL0     C49290   2.330   2.568   1.878 -0.0616 -0.3738 -0.3265
  366MOL0     C49291   2.272   2.462   1.784  0.0342 -0.3174 -0.6947
  366MOL0     N49292   2.136   2.504   1.751  0.1597 -0.6989  0.1042
  366MOL0     C49293   2.090   2.595   1.665  0.0314 -0.0387 -0.0814
  366MOL0     C49294   1.958   2.589   1.662 -0.0793 -1.0390  0.7194
  366MOL0     C49295   1.856   2.661   1.574  0.1903  0.0473 -0.5542
  366MOL0     C49296   1.903   2.627   1.427  0.4400  0.2109 -0.3822
  366MOL0     C49297   1.828   2.710   1.321 -0.0946 -0.4440  0.3078
  366MOL0     C49298   1.907   2.694   1.193  0.1234 -0.5020 -0.9340
  366MOL0     O49299   1.831   2.780   1.106  0.0275 -0.3468  0.5268
  366MOL0     C49300   1.901   2.837   1.002 -0.6293 -0.6919  0.8734
  366MOL0     C49301   1.847   2.949   0.934  0.8851  0.3379  0.2819
  366MOL0     C49302   1.903   3.009   0.818 -0.8285 -0.2607  0.3263
  366MOL0     C49303   1.840   3.139   0.755 -0.0948  0.2547  0.0719
  366MOL0     C49304   2.020   2.950   0.769 -0.3363  0.2512  0.4384
  366MOL0     C49305   2.089   3.001   0.644  0.2433  0.2178  0.1212
  366MOL0     O49306   2.018   3.040   0.531  0.5974  0.5871 -1.2679
  366MOL0     C49307   2.090   3.080   0.419 -0.1965 -0.8967 -0.2869
  366MOL0     C49308   2.130   2.972   0.337  0.2170 -0.9349 -0.6995
  366MOL0     C49309   2.191   3.006   0.210  0.6905  0.7046  0.0481
  366MOL0     C49310   2.208   3.142   0.178 -0.3494  0.4844 -0.7393
  366MOL0     O49311   2.243   3.176   0.054 -0.0914  0.0373  0.7233
  366MOL0     C49312   2.375   3.155   0.023 -0.7486 -0.5396  0.1222
  366MOL0     C49313   2.393   3.210  -0.127 -0.4284 -0.2446 -0.0889
  366MOL0     C49314   2.341   3.114  -0.226  0.1443 -0.4649 -0.1053
  366MOL0     C49315   2.196   3.136  -0.265 -0.1128 -0.4004  0.1788
  366MOL0     C49316   2.157   3.029  -0.369 -0.1834 -0.1870 -0.3595
  366MOL0     C49317   2.153   2.883  -0.321 -0.8138 -0.2510  0.3595
  366MOL0     C49318   2.087   2.866  -0.176 -0.2679  0.7507 -0.4636
  366MOL0     C49319   2.085   2.726  -0.128 -0.4275  0.0216 -0.1131
  366MOL0    Cl49320   2.039   2.714   0.045 -0.1125 -0.2179 -0.0620
  366MOL0     C49321   2.173   3.248   0.270  0.1960  0.3747  0.0815
  366MOL0     C49322   2.116   3.214   0.387  0.0539 -0.3115 -0.1966
  366MOL0     O49323   2.209   2.997   0.650 -0.0880  0.4007  0.5516
  366MOL0     C49324   2.091   2.849   0.841  0.4582  0.4053 -1.1103
  366MOL0     C49325   2.029   2.791   0.954  0.2084 -0.6498 -0.0242
  366MOL0     N49326   1.923   2.481   1.745  0.0407  0.8702 -0.2645
  366MOL0     N49327   2.027   2.441   1.802 -0.5549 -0.1293  0.8818
  366MOL0     C49328   3.224   2.914   1.823  0.3096 -0.0431  0.3613
  366MOL0     C49329   3.365   2.911   1.825  0.3180  0.5881 -0.1716
  366MOL0     C49330   3.803   2.856   1.776 -0.0619 -0.9438 -0.5152
  366MOL0     C49331   3.838   2.751   1.686 -0.2554  0.3829  0.3028
  366MOL0     C49332   3.975   2.717   1.669  0.2850 -0.5086  0.0018
  366MOL0     C49333   4.076   2.789   1.734  0.4276 -0.5532 -0.6397
  366MOL0     O49334   4.202   2.749   1.692  0.8213  0.0069  0.1901
  366MOL0     C49335   4.304   2.780   1.789 -0.1641  0.2988 -0.5711
  366MOL0     C49336   4.417   2.680   1.767 -0.5478 -0.3611 -0.2964
  366MOL0     C49337   4.383   2.534   1.790 -0.1044 -0.2081 -0.2933
  366MOL0     C49338   4.469   2.441   1.711  0.9995  0.0603 -0.4029
  366MOL0     C49339   4.442   2.297   1.739  0.0479  0.9915  0.0124
  366MOL0     C49340   4.422   2.179   1.756 -0.0309 -0.3801 -0.9155
  366MOL0     C49341   4.045   2.887   1.823  0.2674 -0.0027 -0.5935
  366MOL0     C49342   3.908   2.929   1.840  0.3186  1.4374 -0.2299
  366MOL0     H49343   3.417   2.723   1.559  1.3904  1.7472  0.2631
  366MOL0     H49344   3.171   2.701   1.568 -1.1791  0.2971  0.0685
  366MOL0     H49345   2.942   2.852   1.519 -1.7707  1.5370  1.1244
  366MOL0     H49346   2.974   2.696   1.592 -1.0250 -0.9668  1.5977
  366MOL0     H49347   2.750   2.866   1.713  0.5346 -2.0967  1.9115
  366MOL0     H49348   2.738   2.782   1.560  1.2625 -0.5536 -0.2984
  366MOL0     H49349   2.773   2.576   1.651 -0.0160 -1.2336  1.4685
  366MOL0     H49350   2.833   2.637   1.813 -1.4631  2.3634  1.3538
  366MOL0     H49351   2.628   2.747   1.845 -0.0932  1.2952 -0.7821
  366MOL0     H49352   2.539   2.684   1.712  1.1047 -0.0820 -1.1928
  366MOL0     H49353   2.586   2.446   1.790 -2.7840 -2.7923  2.1875
  366MOL0     H49354   2.688   2.506   1.907  0.8272  0.2985  0.2538
  366MOL0     H49355   2.453   2.441   2.018  3.1092  1.3196  3.5273
  366MOL0     H49356   2.468   2.608   2.029 -1.2131 -0.5501  0.3469
  366MOL0     H49357   2.250   2.561   1.952 -0.2846  0.9537 -0.4102
  366MOL0     H49358   2.345   2.660   1.821  0.6197 -0.0180  0.3905
  366MOL0     H49359   2.283   2.370   1.841  0.0811  0.9526  1.4621
  366MOL0     H49360   2.326   2.454   1.689 -0.6970 -1.7375 -1.0018
  366MOL0     H49361   2.152   2.669   1.615  0.5323 -0.3352  0.0928
  366MOL0     H49362   1.758   2.623   1.604  1.1978 -1.5363  1.0123
  366MOL0     H49363   1.846   2.768   1.590  1.6733  0.2404 -0.7971
  366MOL0     H49364   1.883   2.520   1.418  1.0389 -0.0748  1.4045
  366MOL0     H49365   2.010   2.648   1.423  0.6454 -0.0862  1.9775
  366MOL0     H49366   1.830   2.815   1.352  1.8735 -0.5449  0.6139
  366MOL0     H49367   1.721   2.691   1.303 -0.4516  0.0443  1.7897
  366MOL0     H49368   1.898   2.589   1.166 -3.0072 -1.1010  1.7792
  366MOL0     H49369   2.009   2.729   1.211 -0.0899 -0.8316  1.1365
  366MOL0     H49370   1.755   2.986   0.979 -0.5807  0.9907 -2.9467
  366MOL0     H49371   1.749   3.161   0.811  0.6825 -1.2716  2.0903
  366MOL0     H49372   1.908   3.224   0.767 -1.6334  1.6407 -0.6785
  366MOL0     H49373   1.813   3.127   0.650  1.3521 -0.4071 -0.2449
  366MOL0     H49374   2.109   2.874   0.378 -0.2678  0.0088  1.4623
  366MOL0     H49375   2.222   2.930   0.139  2.3513  1.6872 -0.3440
  366MOL0     H49376   2.438   3.208   0.095 -0.1367 -1.1773  0.0634
  366MOL0     H49377   2.411   3.052   0.022  0.4035 -0.1625  0.1646
  366MOL0     H49378   2.339   3.304  -0.137  0.4741  0.3196  0.1513
  366MOL0     H49379   2.500   3.221  -0.147 -0.7748  2.7476 -0.7497
  366MOL0     H49380   2.351   3.013  -0.187 -2.6430 -0.1341  1.7335
  366MOL0     H49381   2.396   3.126  -0.319  0.3060  3.9170  0.3173
  366MOL0     H49382   2.131   3.128  -0.177 -0.8803 -2.2583 -0.5122
  366MOL0     H49383   2.189   3.240  -0.298 -0.8533 -0.8056 -1.0038
  366MOL0     H49384   2.225   3.033  -0.454 -0.9150 -3.4495 -1.2326
  366MOL0     H49385   2.056   3.062  -0.396  0.7115  3.0205 -0.2271
  366MOL0     H49386   2.094   2.827  -0.394 -0.9417 -0.9716  1.0013
  366MOL0     H49387   2.249   2.831  -0.312 -0.6479  0.2711  2.1595
  366MOL0     H49388   1.988   2.913  -0.177 -0.0811  1.2500  1.1673
  366MOL0     H49389   2.143   2.919  -0.099  0.8950 -0.9812 -0.0738
  366MOL0     H49390   2.185   2.682  -0.125 -2.0483 -4.0190  0.3299
  366MOL0     H49391   2.021   2.677  -0.202 -0.1070  1.8356 -1.6807
  366MOL0     H49392   2.175   3.353   0.243 -2.7318  0.3297 -0.5656
  366MOL0     H49393   2.098   3.292   0.460  3.4926 -1.2003  1.8173
  366MOL0     H49394   2.188   2.815   0.805  0.5617 -2.5723  1.5830
  366MOL0     H49395   2.076   2.698   0.984 -2.4766 -1.6295  1.4871
  366MOL0     H49396   3.172   2.964   1.904  0.9436 -1.1423  1.4846
  366MOL0     H49397   3.420   2.949   1.910  1.9789  1.0979 -1.4123
  366MOL0     H49398   3.769   2.690   1.628  2.8290 -1.4441 -1.7255
  366MOL0     H49399   4.006   2.640   1.599 -1.9038 -1.4291 -0.0415
  366MOL0     H49400   4.342   2.882   1.774  0.4042 -0.2397 -3.3743
  366MOL0     H49401   4.279   2.778   1.895  1.0780  0.0720 -0.2626
  366MOL0     H49402   4.504   2.707   1.828 -1.3528 -0.2037  0.8206
  366MOL0     H49403   4.444   2.689   1.662  2.1988 -2.2794  0.1507
  366MOL0     H49404   4.281   2.506   1.765 -0.1244 -1.7234  1.2966
  366MOL0     H49405   4.392   2.516   1.897  3.4821 -1.4582 -0.6546
  366MOL0     H49406   4.567   2.473   1.747  0.8820 -0.7062  0.6685
  366MOL0     H49407   4.466   2.463   1.604  2.0981 -2.3162 -0.9989
  366MOL0     H49408   4.410   2.075   1.780  2.0706 -0.7090 -1.0966
  366MOL0     H49409   4.122   2.949   1.869 -0.6421  0.7902 -0.1127
  366MOL0     H49410   3.891   3.011   1.909  3.5799  2.2050 -0.1613
  367MOL0     O49411   4.101   8.875  10.619 -0.2322  0.1619  0.3480
  367MOL0     C49412   4.152   8.818  10.712  0.6646  0.1688  1.1508
  367MOL0     O49413   4.091   8.731  10.791 -0.1736  0.2625 -0.5898
  367MOL0     C49414   3.954   8.694  10.772 -0.8678  0.1401  0.0558
  367MOL0     C49415   3.937   8.598  10.675  0.9556  0.6495 -0.4120
  367MOL0     C49416   3.798   8.565  10.646  0.5045 -0.3764  0.6829
  367MOL0     C49417   3.694   8.600  10.726  0.1764 -0.1369 -0.4954
  367MOL0     O49418   3.565   8.548  10.702 -0.2745 -0.1837 -0.8398
  367MOL0     C49419   3.455   8.625  10.755 -0.1061  0.4980 -0.0027
  367MOL0     C49420   3.336   8.564  10.680  0.1589  0.6334  0.6696
  367MOL0     C49421   3.331   8.593  10.530 -0.7067  0.6218 -0.0255
  367MOL0     C49422   3.218   8.520  10.473  0.2512  0.0584 -0.5112
  367MOL0     C49423   3.080   8.586  10.498 -0.0283 -0.1480 -0.3034
  367MOL0     C49424   2.960   8.498  10.441  0.6252 -0.4916  0.7121
  367MOL0     C49425   2.829   8.571  10.465 -0.3513 -0.5764 -0.0427
  367MOL0     C49426   2.805   8.689  10.381  0.5838  0.0493 -0.1823
  367MOL0     N49427   2.661   8.734  10.395 -0.0664  0.2232 -0.4449
  367MOL0     C49428   2.621   8.805  10.510 -0.9044  0.7173 -0.1809
  367MOL0     C49429   2.497   8.842  10.478  1.5448 -0.9971 -0.5337
  367MOL0     C49430   2.403   8.915  10.583 -0.9374  0.9173  0.1857
  367MOL0     C49431   2.353   9.053  10.528 -0.0326 -0.7741 -0.3406
  367MOL0     C49432   2.319   9.063  10.377 -0.9403 -0.1950 -0.5414
  367MOL0     C49433   2.298   9.205  10.331  0.1211 -0.5544  0.4162
  367MOL0     O49434   2.198   9.276  10.413  0.0324 -0.6485  0.3399
  367MOL0     C49435   2.063   9.240  10.416 -0.1879 -0.0266 -0.3960
  367MOL0     C49436   2.002   9.154  10.323 -0.4818  0.2891 -0.6008
  367MOL0     C49437   1.867   9.125  10.338  0.0477 -0.1376 -0.8702
  367MOL0     C49438   1.802   9.025  10.241  0.4006 -0.0299 -0.3336
  367MOL0     C49439   1.786   9.185  10.436 -0.1129  0.6779 -0.2536
  367MOL0     C49440   1.632   9.166  10.449 -0.7979 -0.1970 -0.0320
  367MOL0     O49441   1.571   9.272  10.519 -0.0887 -0.3155  0.3656
  367MOL0     C49442   1.431   9.273  10.528 -0.2590  0.5329  0.2109
  367MOL0     C49443   1.366   9.186  10.612 -0.2782 -0.5236  0.3176
  367MOL0     C49444   1.226   9.177  10.596  0.1820 -0.0591 -0.1290
  367MOL0     C49445   1.155   9.260  10.516  0.1932  1.2975 -0.3032
  367MOL0     O49446   1.019   9.241  10.503  0.2531 -0.3418 -0.1401
  367MOL0     C49447   0.944   9.303  10.602 -0.7023 -0.4440  0.0799
  367MOL0     C49448   0.807   9.249  10.604 -0.0073 -0.4728 -0.3837
  367MOL0     C49449   0.698   9.359  10.631  0.1843  0.0544 -0.4399
  367MOL0     C49450   0.556   9.289  10.617 -0.1471 -0.2871 -0.2548
  367MOL0     C49451   0.441   9.388  10.597 -0.3725 -0.8812  0.5471
  367MOL0     C49452   0.299   9.344  10.616  0.5234 -0.4921  1.0028
  367MOL0     C49453   0.180   9.410  10.539  0.3631  0.8560  0.1662
  367MOL0     C49454   0.052   9.340  10.599 -0.5780 -0.1964  0.0519
  367MOL0    Cl49455  -0.001   9.447  10.731  0.0485  0.0736  0.2899
  367MOL0     C49456   1.220   9.349  10.433 -0.4788  0.5187 -0.2741
  367MOL0     C49457   1.359   9.356  10.441 -0.3737  0.4314  0.1884
  367MOL0     O49458   1.572   9.072  10.399 -0.4874 -0.2902  0.1622
  367MOL0     C49459   1.846   9.280  10.526 -0.1569  0.6003  0.3737
  367MOL0     C49460   1.984   9.312  10.503 -0.1507  0.2195 -0.0224
  367MOL0     N49461   2.467   8.783  10.361 -0.1782  0.4350  0.1448
  367MOL0     N49462   2.562   8.711  10.315  0.2882 -0.0849  0.0621
  367MOL0     C49463   3.724   8.676  10.841 -0.2554  0.1707 -0.6481
  367MOL0     C49464   3.855   8.730  10.861 -0.3402 -0.1681  0.3175
  367MOL0     C49465   4.300   8.842  10.732 -0.6594 -0.8422  0.5070
  367MOL0     C49466   4.380   8.915  10.644 -0.1658 -0.1617  0.4980
  367MOL0     C49467   4.514   8.931  10.673 -0.2763 -0.4106  0.5502
  367MOL0     C49468   4.575   8.869  10.780  0.5559  1.0127  0.4480
  367MOL0     O49469   4.707   8.894  10.794 -0.7305 -0.2297 -0.1980
  367MOL0     C49470   4.787   8.873  10.906 -0.0863  0.0074  0.1407
  367MOL0     C49471   4.922   8.948  10.890  0.1323  0.4401 -0.1649
  367MOL0     C49472   5.019   8.851  10.819  1.2712  0.8893 -0.4899
  367MOL0     C49473   5.141   8.932  10.789  0.2859 -0.9844 -0.1918
  367MOL0     C49474   5.255   8.857  10.734 -1.5018 -0.6179  1.2412
  367MOL0     C49475   5.361   8.802  10.689 -0.1951 -0.6972  0.1020
  367MOL0     C49476   4.497   8.800  10.862  0.0536  0.0002 -0.6924
  367MOL0     C49477   4.363   8.794  10.846  0.1148 -0.2489 -0.0253
  367MOL0     H49478   4.018   8.560  10.614 -1.1142 -1.7561 -1.8482
  367MOL0     H49479   3.782   8.507  10.556  0.8147  0.9756 -0.2719
  367MOL0     H49480   3.443   8.606  10.862  0.4824  1.4640  0.2456
  367MOL0     H49481   3.479   8.728  10.725  1.6959 -0.1069 -0.8476
  367MOL0     H49482   3.335   8.457  10.704 -1.5565  0.6451  0.7470
  367MOL0     H49483   3.241   8.603  10.718 -2.4928 -0.8664 -3.6826
  367MOL0     H49484   3.327   8.701  10.512  1.8855  0.8900  0.6130
  367MOL0     H49485   3.424   8.562  10.481  0.0719  3.7547 -0.7799
  367MOL0     H49486   3.239   8.518  10.366  0.5301 -2.9150 -0.4962
  367MOL0     H49487   3.225   8.417  10.511  2.5514  1.3771  3.2589
  367MOL0     H49488   3.073   8.580  10.607 -2.1091 -1.3790 -0.4578
  367MOL0     H49489   3.082   8.691  10.467 -1.3467 -1.1571 -4.4448
  367MOL0     H49490   2.964   8.491  10.332  2.5727 -1.1922  0.7956
  367MOL0     H49491   2.961   8.393  10.473 -1.3398 -0.9808 -0.6098
  367MOL0     H49492   2.748   8.501  10.443  1.2177 -1.7159 -2.6325
  367MOL0     H49493   2.831   8.601  10.570  0.8252  0.9556 -0.4602
  367MOL0     H49494   2.817   8.652  10.279  0.6914 -0.5491  0.0446
  367MOL0     H49495   2.866   8.776  10.407  1.2680  0.0963 -1.7764
  367MOL0     H49496   2.676   8.828  10.601 -1.8409 -1.0901  0.8996
  367MOL0     H49497   2.317   8.849  10.594 -1.9432  1.3826 -3.5181
  367MOL0     H49498   2.463   8.938  10.672 -0.7256  1.3171 -0.0596
  367MOL0     H49499   2.431   9.126  10.553 -0.3413  0.0538 -1.6471
  367MOL0     H49500   2.262   9.077  10.584  0.2701 -0.7874  0.1580
  367MOL0     H49501   2.227   9.006  10.358 -2.7008  1.7648  1.5214
  367MOL0     H49502   2.396   9.019  10.313 -0.3612 -0.1805  0.1299
  367MOL0     H49503   2.266   9.201  10.227 -0.9956 -1.8644  0.7795
  367MOL0     H49504   2.394   9.257  10.339 -1.0526  1.5239  1.7189
  367MOL0     H49505   2.049   9.099  10.242 -0.1115  0.7939 -0.7351
  367MOL0     H49506   1.875   8.974  10.178  1.7634 -0.0520  1.1810
  367MOL0     H49507   1.770   8.946  10.309 -0.6704  1.1375  0.5634
  367MOL0     H49508   1.711   9.070  10.202  0.6004  3.8522  3.0092
  367MOL0     H49509   1.442   9.130  10.667 -0.3310  0.1693  1.1125
  367MOL0     H49510   1.179   9.091  10.642 -0.9962 -0.2511 -1.5955
  367MOL0     H49511   0.997   9.279  10.694 -0.5798  0.8332  0.3665
  367MOL0     H49512   0.942   9.412  10.612  0.4063 -0.4319  0.2204
  367MOL0     H49513   0.797   9.198  10.508  2.0068  1.8536 -1.9426
  367MOL0     H49514   0.798   9.175  10.684  0.6847  2.0451  2.1802
  367MOL0     H49515   0.700   9.445  10.563  0.4804  1.4356  1.2364
  367MOL0     H49516   0.707   9.413  10.726 -0.9036  1.7291 -1.2321
  367MOL0     H49517   0.557   9.226  10.528  0.6449  0.4944 -0.8172
  367MOL0     H49518   0.533   9.228  10.705  0.1490  1.5075  1.1327
  367MOL0     H49519   0.453   9.409  10.491  0.2516 -1.0600  0.5797
  367MOL0     H49520   0.459   9.474  10.663 -1.4594  1.2882 -1.8250
  367MOL0     H49521   0.297   9.242  10.576 -1.1365  0.4129 -1.4088
  367MOL0     H49522   0.273   9.341  10.723 -2.1659 -0.4241  0.4296
  367MOL0     H49523   0.192   9.381  10.434  3.2070  0.5940  0.5071
  367MOL0     H49524   0.178   9.519  10.544  0.8211  0.9749 -1.5371
  367MOL0     H49525   0.067   9.236  10.630  2.0832  0.3056  0.6558
  367MOL0     H49526  -0.026   9.347  10.522 -0.0820  0.1257 -0.4257
  367MOL0     H49527   1.156   9.403  10.363 -0.8768  1.3458  0.7061
  367MOL0     H49528   1.420   9.416  10.374  0.2210  0.0437  0.3696
  367MOL0     H49529   1.789   9.342  10.594  1.0057  1.3243  0.7350
  367MOL0     H49530   2.028   9.389  10.566  1.1198 -1.8747  1.7987
  367MOL0     H49531   3.657   8.702  10.922 -0.7009 -0.4960 -0.7953
  367MOL0     H49532   3.881   8.800  10.941  0.1194 -0.8638  0.7948
  367MOL0     H49533   4.331   8.949  10.553  2.6250  0.0737 -1.0153
  367MOL0     H49534   4.574   8.988  10.603 -0.2655 -0.5134  0.4762
  367MOL0     H49535   4.743   8.930  10.988  0.6742  2.2251 -0.9182
  367MOL0     H49536   4.799   8.766  10.926 -1.0763  0.1507  1.6280
  367MOL0     H49537   4.961   8.982  10.986 -1.8358  0.5598  0.6319
  367MOL0     H49538   4.913   9.046  10.842 -0.9100 -0.9141 -3.0058
  367MOL0     H49539   4.975   8.816  10.725 -1.7470  1.1548  0.6942
  367MOL0     H49540   5.037   8.761  10.879 -0.9469  2.8273  3.5537
  367MOL0     H49541   5.174   8.976  10.884 -2.6669 -2.1099  1.5102
  367MOL0     H49542   5.112   9.009  10.717  0.3398 -1.5818 -0.8572
  367MOL0     H49543   5.458   8.775  10.652 -0.9287 -2.4247 -0.6719
  367MOL0     H49544   4.537   8.745  10.947  0.5806 -2.3049 -2.3217
  367MOL0     H49545   4.307   8.745  10.925  2.5662  0.0740  2.0461
  368MOL0     O49546   8.336   6.167  10.178  0.1397  0.3243  0.1487
  368MOL0     C49547   8.335   6.048  10.228 -0.8393 -0.9958  0.1481
  368MOL0     O49548   8.233   5.961  10.241 -0.6144  0.0872  0.6775
  368MOL0     C49549   8.105   6.005  10.238  0.7494 -0.1123  0.1286
  368MOL0     C49550   8.049   6.062  10.125  0.5743 -0.5557 -0.1163
  368MOL0     C49551   7.907   6.083  10.116  0.5682 -0.5442 -0.1212
  368MOL0     C49552   7.822   6.045  10.221 -0.1985  0.3012  0.7002
  368MOL0     O49553   7.685   6.036  10.209  0.1431 -0.1018 -1.0490
  368MOL0     C49554   7.628   6.058  10.079  0.0158 -0.0599  0.0988
  368MOL0     C49555   7.483   6.030  10.088 -0.6739  0.8203 -0.2189
  368MOL0     C49556   7.413   6.168  10.073  0.5574  0.8198  0.4077
  368MOL0     C49557   7.408   6.212   9.916  0.5676  0.0875  0.8033
  368MOL0     C49558   7.286   6.288   9.862  0.5411 -0.1481  0.1736
  368MOL0     C49559   7.206   6.190   9.777 -0.4055  0.2244 -0.8828
  368MOL0     C49560   7.079   6.259   9.729 -0.2856 -0.8615 -0.7846
  368MOL0     C49561   7.003   6.171   9.632 -0.0690 -0.2371 -0.2730
  368MOL0     N49562   6.878   6.242   9.601 -0.3617 -0.6562 -0.2927
  368MOL0     C49563   6.783   6.298   9.685  0.0711 -0.6289  0.2334
  368MOL0     C49564   6.685   6.349   9.606  0.5600 -0.7518 -0.3968
  368MOL0     C49565   6.555   6.423   9.648  0.0691  0.0125 -0.3400
  368MOL0     C49566   6.545   6.551   9.567 -0.2864 -0.3796 -0.7574
  368MOL0     C49567   6.440   6.643   9.617 -0.5216  0.0324  0.2705
  368MOL0     C49568   6.298   6.593   9.590 -0.1975 -0.5969  0.1671
  368MOL0     O49569   6.217   6.714   9.608  0.1485 -0.2619 -0.4508
  368MOL0     C49570   6.095   6.719   9.544 -0.1823 -0.1276 -0.8344
  368MOL0     C49571   6.026   6.839   9.550 -1.2484  0.0756  0.1987
  368MOL0     C49572   5.890   6.846   9.504 -0.0887 -0.2039 -0.2183
  368MOL0     C49573   5.845   6.984   9.501  0.0682 -0.2313 -0.3523
  368MOL0     C49574   5.828   6.737   9.450  0.2997  0.1821  1.5580
  368MOL0     C49575   5.681   6.734   9.416  0.0862  0.3991  1.0900
  368MOL0     O49576   5.611   6.846   9.420  0.2610 -0.2058  0.4304
  368MOL0     C49577   5.471   6.853   9.439 -0.9987  0.9624  0.0556
  368MOL0     C49578   5.395   6.766   9.516 -0.4917 -0.0537  0.4301
  368MOL0     C49579   5.260   6.767   9.507 -0.1664 -0.0160  0.2453
  368MOL0     C49580   5.191   6.853   9.428  0.6105 -0.4684 -0.4716
  368MOL0     O49581   5.056   6.845   9.431 -0.1621  0.0129  0.2818
  368MOL0     C49582   4.974   6.895   9.324  0.2248  0.1077 -0.6142
  368MOL0     C49583   4.962   6.798   9.213 -0.0447  0.2134  0.9871
  368MOL0     C49584   4.866   6.850   9.099 -0.4796  0.2926 -0.3776
  368MOL0     C49585   4.720   6.820   9.136 -0.4771  0.1330 -0.9187
  368MOL0     C49586   4.627   6.844   9.015  0.0135 -0.1862 -0.8412
  368MOL0     C49587   4.608   6.995   8.969  0.3306 -0.9479 -0.6882
  368MOL0     C49588   4.500   7.003   8.863  0.1824  0.3539  0.2333
  368MOL0     C49589   4.363   6.963   8.920  0.5031 -1.0662 -0.1554
  368MOL0    Cl49590   4.274   6.860   8.797 -0.0934  0.1062 -0.0577
  368MOL0     C49591   5.261   6.945   9.353  0.3600  0.6794  0.0969
  368MOL0     C49592   5.399   6.944   9.362 -0.3662  0.3169 -0.4025
  368MOL0     O49593   5.638   6.626   9.377  0.5626 -0.0980 -0.3174
  368MOL0     C49594   5.903   6.609   9.447 -0.3439 -0.0107 -0.5794
  368MOL0     C49595   6.029   6.604   9.499 -0.8293  0.0483  0.3025
  368MOL0     N49596   6.711   6.316   9.473  0.0167  0.2964  0.6514
  368MOL0     N49597   6.823   6.243   9.477 -0.3754 -0.1837  0.6772
  368MOL0     C49598   7.877   5.992  10.340  0.6008  0.6380  0.0925
  368MOL0     C49599   8.021   5.967  10.349 -0.0729  0.1167 -0.2019
  368MOL0     C49600   8.470   6.017  10.278  0.1020 -1.8078 -0.1816
  368MOL0     C49601   8.592   6.060  10.220 -0.3416  0.2043 -0.0591
  368MOL0     C49602   8.719   6.013  10.271 -0.3150 -0.7118 -0.6583
  368MOL0     C49603   8.721   5.914  10.367  0.1677 -0.0948  0.1606
  368MOL0     O49604   8.827   5.853  10.423 -0.5821  0.7702 -0.1774
  368MOL0     C49605   8.920   5.930  10.503 -0.2035  0.2050  0.7452
  368MOL0     C49606   8.925   5.882  10.648 -0.4437  0.4027 -0.6376
  368MOL0     C49607   8.872   5.981  10.757 -0.4160  0.0241 -0.2277
  368MOL0     C49608   8.718   5.994  10.766 -0.1398  0.5558 -0.0754
  368MOL0     C49609   8.650   5.866  10.785 -0.3833 -0.1939 -0.3717
  368MOL0     C49610   8.598   5.757  10.801  1.1392  0.0230  0.1305
  368MOL0     C49611   8.601   5.873  10.416 -0.5256  0.2100 -0.1000
  368MOL0     C49612   8.475   5.927  10.380  0.2765 -0.0031  0.5172
  368MOL0     H49613   8.105   6.079  10.034  0.4329 -0.7861 -0.2468
  368MOL0     H49614   7.867   6.128  10.026  1.8766 -0.1745 -0.5362
  368MOL0     H49615   7.652   6.156  10.038 -1.4861  0.6186  0.7961
  368MOL0     H49616   7.663   5.989  10.000 -0.8947  1.6962 -1.9484
  368MOL0     H49617   7.437   5.961  10.017 -3.0910 -2.6936  4.2310
  368MOL0     H49618   7.467   5.989  10.189 -0.3974 -1.1123 -0.9230
  368MOL0     H49619   7.310   6.161  10.109 -0.0993 -1.4792 -1.6127
  368MOL0     H49620   7.456   6.250  10.131  3.6151  1.6354 -2.6393
  368MOL0     H49621   7.492   6.279   9.896  1.7908 -1.0092  2.0453
  368MOL0     H49622   7.426   6.127   9.850  1.2117 -1.2619  2.6214
  368MOL0     H49623   7.235   6.318   9.953 -1.7892 -1.5301 -0.5924
  368MOL0     H49624   7.319   6.368   9.794  0.1356 -1.2423 -1.3704
  368MOL0     H49625   7.264   6.144   9.696 -2.9830 -1.1894 -2.0341
  368MOL0     H49626   7.166   6.106   9.834 -1.7642  1.8734  0.7401
  368MOL0     H49627   7.021   6.285   9.818  1.8380 -1.2595  0.7895
  368MOL0     H49628   7.112   6.354   9.686  1.2582 -0.3186  1.4446
  368MOL0     H49629   6.975   6.075   9.677 -1.7198 -0.0792 -0.8840
  368MOL0     H49630   7.060   6.143   9.543 -0.3707 -1.1218 -0.2026
  368MOL0     H49631   6.774   6.306   9.793  0.2579  1.2253  0.1349
  368MOL0     H49632   6.470   6.360   9.620 -0.4213  0.3515  0.3513
  368MOL0     H49633   6.552   6.445   9.755  2.8566 -1.3568  0.1300
  368MOL0     H49634   6.541   6.530   9.460  2.2981  0.4144 -1.0877
  368MOL0     H49635   6.638   6.606   9.586  0.3633 -1.3233 -1.1228
  368MOL0     H49636   6.451   6.741   9.569 -2.0347 -0.0369 -0.2973
  368MOL0     H49637   6.459   6.661   9.723 -1.1260 -1.7448  0.7037
  368MOL0     H49638   6.272   6.518   9.666  1.4140 -2.7895 -1.3346
  368MOL0     H49639   6.281   6.549   9.492  1.1352  2.8683 -1.8058
  368MOL0     H49640   6.065   6.927   9.599 -0.3388 -0.4638  0.4775
  368MOL0     H49641   5.781   7.015   9.418  0.3995  0.9725 -0.1803
  368MOL0     H49642   5.804   7.009   9.600  0.7085 -2.8582  0.6676
  368MOL0     H49643   5.927   7.054   9.486 -0.1213 -0.5462 -3.3233
  368MOL0     H49644   5.441   6.696   9.584 -1.2822 -1.2254 -0.2084
  368MOL0     H49645   5.204   6.691   9.560  1.0413 -1.5184 -0.5431
  368MOL0     H49646   4.871   6.913   9.356  1.0306 -0.8053  2.9636
  368MOL0     H49647   5.024   6.984   9.284  1.4027 -0.7918 -1.2316
  368MOL0     H49648   5.057   6.780   9.163  0.3823 -0.8570  2.1332
  368MOL0     H49649   4.917   6.704   9.248  2.3212 -0.7886  1.5301
  368MOL0     H49650   4.893   6.796   9.008 -1.4499 -3.7950  1.5405
  368MOL0     H49651   4.869   6.959   9.087 -2.7649  0.1326 -3.8125
  368MOL0     H49652   4.710   6.712   9.153 -0.5500  0.2293 -0.3107
  368MOL0     H49653   4.688   6.872   9.227  0.7553  0.5996 -0.7363
  368MOL0     H49654   4.530   6.799   9.034 -0.1593  0.3900 -0.3370
  368MOL0     H49655   4.662   6.795   8.923  0.7070  0.4103 -0.9066
  368MOL0     H49656   4.569   7.066   9.042 -0.2300  1.4382 -3.1089
  368MOL0     H49657   4.705   7.027   8.928 -0.8836 -0.0873 -3.1129
  368MOL0     H49658   4.532   6.944   8.776 -3.7517 -0.0531 -1.1541
  368MOL0     H49659   4.492   7.103   8.820  0.9864  0.2145 -0.2661
  368MOL0     H49660   4.307   7.056   8.933  1.8205 -0.1787 -0.6583
  368MOL0     H49661   4.363   6.910   9.016  2.3751  0.3491  0.6997
  368MOL0     H49662   5.221   7.020   9.285  2.2299  3.6122  2.0418
  368MOL0     H49663   5.456   7.020   9.309 -1.4250  3.1662  2.2364
  368MOL0     H49664   5.857   6.521   9.401 -2.3662 -0.0488  1.3404
  368MOL0     H49665   6.079   6.508   9.506  1.5560  1.1992  0.0558
  368MOL0     H49666   7.819   5.950  10.422  2.4276 -0.2609  1.0115
  368MOL0     H49667   8.067   5.904  10.424  0.1128 -2.3786 -2.2795
  368MOL0     H49668   8.596   6.130  10.137 -0.6931  1.3247  0.8574
  368MOL0     H49669   8.808   6.051  10.223  1.0406 -2.0878  0.6400
  368MOL0     H49670   9.018   5.927  10.454 -0.5798 -1.3256  0.0140
  368MOL0     H49671   8.885   6.033  10.498  0.1507  0.3133  0.4481
  368MOL0     H49672   9.031   5.872  10.670 -0.2533  0.3179 -1.5393
  368MOL0     H49673   8.884   5.782  10.659  1.6911 -0.1908  3.3842
  368MOL0     H49674   8.924   6.076  10.740 -3.0134  1.6883  0.6396
  368MOL0     H49675   8.909   5.934  10.848 -2.2332  0.5074  0.8121
  368MOL0     H49676   8.682   6.029  10.669  1.9199  1.1779 -0.6801
  368MOL0     H49677   8.693   6.070  10.840  4.7090  2.4860 -0.0417
  368MOL0     H49678   8.547   5.664  10.788 -2.5801  1.9391 -0.6786
  368MOL0     H49679   8.595   5.811  10.505 -0.5022 -0.7020 -0.7117
  368MOL0     H49680   8.379   5.905  10.427  0.5286 -0.1200  0.9856
  369MOL0     O49681   8.198   7.516   4.882 -0.2479 -0.9459  0.2767
  369MOL0     C49682   8.307   7.507   4.934 -0.5590 -0.1798  0.5401
  369MOL0     O49683   8.333   7.544   5.062 -0.4098 -0.2866 -0.2144
  369MOL0     C49684   8.210   7.569   5.133 -0.6193  0.0051  0.4441
  369MOL0     C49685   8.180   7.689   5.187 -0.2470 -0.2543 -0.5047
  369MOL0     C49686   8.073   7.707   5.273  0.5542  0.1946 -0.5002
  369MOL0     C49687   7.989   7.594   5.304 -0.1850 -0.3181 -0.1137
  369MOL0     O49688   7.877   7.632   5.375 -0.7987 -0.0200 -0.4062
  369MOL0     C49689   7.790   7.525   5.415 -0.7295  0.1690 -0.1265
  369MOL0     C49690   7.661   7.581   5.487 -0.1540 -0.2120  0.0598
  369MOL0     C49691   7.561   7.641   5.383 -0.3079 -0.0714  0.0192
  369MOL0     C49692   7.431   7.700   5.453 -0.1654  0.0080 -0.3751
  369MOL0     C49693   7.343   7.745   5.339  0.1549 -0.1987 -0.4895
  369MOL0     C49694   7.215   7.792   5.401  0.7245 -0.2523  1.0304
  369MOL0     C49695   7.108   7.855   5.298  0.6366  0.0539 -0.6835
  369MOL0     C49696   6.968   7.870   5.354 -0.0197 -0.5762 -0.2397
  369MOL0     N49697   6.966   7.972   5.460  0.8815 -0.3130  0.2995
  369MOL0     C49698   7.011   7.950   5.586  0.8180  0.4488  0.3119
  369MOL0     C49699   6.998   8.070   5.648 -0.6819  0.8075 -0.2121
  369MOL0     C49700   7.041   8.096   5.796 -0.0912 -0.4863 -0.0890
  369MOL0     C49701   7.084   8.249   5.817  1.1664  0.0363  0.4753
  369MOL0     C49702   6.961   8.341   5.813  0.1563 -0.1795 -0.5566
  369MOL0     C49703   6.987   8.466   5.893  1.2119 -0.4256 -1.0569
  369MOL0     O49704   6.879   8.559   5.872  0.0362 -0.3913  0.5078
  369MOL0     C49705   6.768   8.575   5.948  0.6111 -0.4621  0.0999
  369MOL0     C49706   6.691   8.686   5.919 -0.8046 -0.5932 -0.2173
  369MOL0     C49707   6.577   8.719   5.986 -0.0396  0.1538  0.5133
  369MOL0     C49708   6.497   8.832   5.937  0.6441 -0.4644  0.1892
  369MOL0     C49709   6.539   8.647   6.102 -0.3072  0.2943 -0.3379
  369MOL0     C49710   6.435   8.670   6.201  0.4821  0.4013  0.0945
  369MOL0     O49711   6.446   8.622   6.325 -0.2995  1.0176  0.0934
  369MOL0     C49712   6.336   8.611   6.408 -0.1110  0.4040 -0.3292
  369MOL0     C49713   6.220   8.539   6.369 -0.5446 -0.6632  0.2007
  369MOL0     C49714   6.115   8.518   6.456  0.6229  1.4669 -0.2788
  369MOL0     C49715   6.133   8.566   6.592 -0.2882 -1.2890  0.1573
  369MOL0     O49716   6.037   8.544   6.685  0.2394  0.3706  0.6740
  369MOL0     C49717   5.940   8.651   6.689  0.0134 -0.3776 -1.1678
  369MOL0     C49718   5.865   8.640   6.815  0.0761 -0.1374  0.0164
  369MOL0     C49719   5.783   8.768   6.849  0.1895  0.5624 -0.0051
  369MOL0     C49720   5.686   8.762   6.976 -0.9618  0.0652  0.2554
  369MOL0     C49721   5.578   8.647   6.962 -0.5867 -0.2087 -0.3626
  369MOL0     C49722   5.503   8.659   6.832 -0.0549  0.1564  0.4793
  369MOL0     C49723   5.383   8.569   6.822  0.4632 -0.2936 -0.9661
  369MOL0     C49724   5.281   8.594   6.721  0.7838  0.7315 -0.3237
  369MOL0    Cl49725   5.127   8.506   6.761  0.3205 -0.1408 -0.5998
  369MOL0     C49726   6.244   8.639   6.630  0.2889 -0.6749 -0.8232
  369MOL0     C49727   6.342   8.669   6.540  0.0803 -0.3283 -0.2758
  369MOL0     O49728   6.341   8.736   6.163  0.0850  0.4671  0.7249
  369MOL0     C49729   6.627   8.540   6.135 -0.3150 -0.1422 -0.2357
  369MOL0     C49730   6.744   8.511   6.066 -1.2833 -0.7982  0.1875
  369MOL0     N49731   6.947   8.165   5.554 -0.2984  0.1400  1.0589
  369MOL0     N49732   6.923   8.104   5.447 -0.1902  0.8419 -0.2044
  369MOL0     C49733   8.027   7.469   5.256  0.2806 -0.3861  0.0947
  369MOL0     C49734   8.141   7.455   5.173 -0.9936  0.7567 -0.6292
  369MOL0     C49735   8.428   7.463   4.857 -0.0496  0.7369  0.0717
  369MOL0     C49736   8.562   7.475   4.900  0.1470  0.1114  0.2505
  369MOL0     C49737   8.668   7.435   4.820 -0.8720 -0.7871  0.1646
  369MOL0     C49738   8.643   7.349   4.710 -0.1773 -1.2142 -0.5586
  369MOL0     O49739   8.744   7.274   4.648  0.2424 -0.3157  0.5864
  369MOL0     C49740   8.882   7.280   4.687  0.5957 -0.0247  0.1045
  369MOL0     C49741   8.966   7.188   4.598 -0.0168  0.5213 -0.2290
  369MOL0     C49742   8.979   7.244   4.451 -0.2296 -0.2557 -0.1763
  369MOL0     C49743   8.956   7.128   4.347 -0.3594  0.8615 -0.0799
  369MOL0     C49744   9.039   7.007   4.383  0.1622  0.4603 -0.0440
  369MOL0     C49745   9.093   6.905   4.411  0.2804 -0.0577 -0.0087
  369MOL0     C49746   8.507   7.326   4.678 -0.9931  0.3365  0.3534
  369MOL0     C49747   8.405   7.398   4.737  0.1657  1.0357  0.3231
  369MOL0     H49748   8.245   7.764   5.145 -1.1212  0.2680 -0.9708
  369MOL0     H49749   8.044   7.801   5.318 -1.2597 -0.9577  0.8685
  369MOL0     H49750   7.771   7.454   5.334 -0.8232 -1.6650  1.4287
  369MOL0     H49751   7.837   7.457   5.487 -0.2231  0.7276  0.0749
  369MOL0     H49752   7.612   7.493   5.530 -1.6105  0.0180 -1.0485
  369MOL0     H49753   7.688   7.657   5.560  2.4416  1.8040 -2.7465
  369MOL0     H49754   7.613   7.726   5.340  1.5719  0.3350  2.8218
  369MOL0     H49755   7.536   7.576   5.298 -1.3338  0.8050 -0.3733
  369MOL0     H49756   7.385   7.623   5.516 -0.6811  1.6384  1.3337
  369MOL0     H49757   7.462   7.786   5.513  0.8618 -0.8837  0.4077
  369MOL0     H49758   7.390   7.830   5.288  0.1985 -0.7803 -1.4343
  369MOL0     H49759   7.326   7.667   5.264 -2.3118  0.8819 -1.1724
  369MOL0     H49760   7.167   7.708   5.452  1.3497 -1.0533  0.3413
  369MOL0     H49761   7.235   7.869   5.475 -1.3487  1.2193  0.1599
  369MOL0     H49762   7.159   7.947   5.268  2.9345 -1.2191 -0.8682
  369MOL0     H49763   7.112   7.792   5.208  0.5652  1.7788 -1.9478
  369MOL0     H49764   6.922   7.779   5.394 -0.4454 -0.1120  0.3529
  369MOL0     H49765   6.913   7.898   5.263  1.0153  0.5395 -0.5376
  369MOL0     H49766   7.036   7.855   5.631  2.6315  0.3186 -0.8815
  369MOL0     H49767   6.966   8.071   5.871 -0.0151  2.0163  0.8848
  369MOL0     H49768   7.129   8.034   5.815  0.8641  1.2147  1.3339
  369MOL0     H49769   7.150   8.284   5.738 -0.0107  2.1287  0.3543
  369MOL0     H49770   7.125   8.251   5.919 -2.1201 -2.3739  2.0539
  369MOL0     H49771   6.871   8.301   5.860 -0.6417  1.1719 -0.8914
  369MOL0     H49772   6.928   8.364   5.712 -1.5356 -0.1354 -0.0298
  369MOL0     H49773   7.081   8.512   5.860  0.6253  0.2507 -1.8233
  369MOL0     H49774   6.992   8.444   6.000 -1.4042  1.2172 -0.5141
  369MOL0     H49775   6.722   8.736   5.828 -0.8600 -1.1880 -0.5591
  369MOL0     H49776   6.556   8.888   5.864  3.9064  0.2441  3.0714
  369MOL0     H49777   6.405   8.801   5.887  1.5528 -1.1370 -1.1287
  369MOL0     H49778   6.459   8.904   6.011  1.0748 -0.1544  0.1145
  369MOL0     H49779   6.222   8.507   6.265  2.4846  0.8011 -0.3197
  369MOL0     H49780   6.029   8.456   6.430  1.8146 -0.6693  0.6034
  369MOL0     H49781   6.001   8.742   6.686  3.5720 -2.2938  2.8932
  369MOL0     H49782   5.858   8.642   6.617 -1.1609 -1.1108  0.2120
  369MOL0     H49783   5.802   8.550   6.814  0.2105 -0.2342 -0.6384
  369MOL0     H49784   5.937   8.629   6.896 -0.9677 -0.8580  0.8725
  369MOL0     H49785   5.733   8.791   6.755  1.4276 -0.1068 -0.8651
  369MOL0     H49786   5.854   8.850   6.860 -1.1599  1.6684  0.8363
  369MOL0     H49787   5.743   8.755   7.068  1.3098  0.4206 -1.0557
  369MOL0     H49788   5.632   8.857   6.979 -1.0153  0.0891 -0.8128
  369MOL0     H49789   5.505   8.675   7.038 -1.4895  2.6506 -2.1361
  369MOL0     H49790   5.630   8.551   6.973 -1.4030 -0.7775 -1.3166
  369MOL0     H49791   5.474   8.764   6.825 -1.8860 -0.2546  1.4611
  369MOL0     H49792   5.568   8.638   6.746 -1.1387 -0.6544 -0.1741
  369MOL0     H49793   5.338   8.576   6.922 -1.6374  0.2432 -1.8992
  369MOL0     H49794   5.410   8.464   6.809 -1.5380 -1.1068  0.8880
  369MOL0     H49795   5.325   8.561   6.626  1.7910 -1.5196  0.8666
  369MOL0     H49796   5.250   8.699   6.726 -1.1281  0.1386  1.4437
  369MOL0     H49797   6.238   8.671   6.734 -1.3748 -1.4091 -0.6587
  369MOL0     H49798   6.426   8.726   6.579 -0.9183 -0.6062  2.4826
  369MOL0     H49799   6.594   8.474   6.214 -0.9048  0.8479  0.3814
  369MOL0     H49800   6.805   8.427   6.098 -0.5775 -1.5226 -2.7102
  369MOL0     H49801   7.971   7.382   5.287  0.3390  0.0765  1.5622
  369MOL0     H49802   8.182   7.357   5.148 -0.9593 -0.1031  2.3300
  369MOL0     H49803   8.577   7.524   4.996 -0.5603  0.9935 -0.0802
  369MOL0     H49804   8.769   7.448   4.857 -1.1691 -1.1071  1.1164
  369MOL0     H49805   8.922   7.382   4.678  0.1198  0.0936 -0.7807
  369MOL0     H49806   8.901   7.254   4.791  0.6133  0.9137  0.3465
  369MOL0     H49807   8.921   7.088   4.597  0.2506  0.4050 -0.5721
  369MOL0     H49808   9.064   7.183   4.644 -0.6981  0.3523  1.2530
  369MOL0     H49809   9.087   7.253   4.432  0.3689  0.1228  2.8960
  369MOL0     H49810   8.925   7.337   4.433 -2.1021 -0.3780  3.7771
  369MOL0     H49811   8.981   7.169   4.249  1.6074  3.1310  1.2649
  369MOL0     H49812   8.850   7.102   4.354  0.2598 -1.5453  1.8083
  369MOL0     H49813   9.149   6.815   4.428 -1.2003 -1.1572 -0.7022
  369MOL0     H49814   8.483   7.262   4.594 -2.3455 -1.2274  1.8434
  369MOL0     H49815   8.303   7.390   4.699 -0.0396 -0.8375  1.1381
  370MOL0     O49816   3.212   3.798   7.820  0.2940  0.8846  0.2882
  370MOL0     C49817   3.264   3.886   7.891 -0.7112  0.1565  0.2236
  370MOL0     O49818   3.200   3.968   7.974  0.1036 -0.5818 -0.7667
  370MOL0     C49819   3.062   3.967   7.967 -0.1674 -0.5169 -0.2810
  370MOL0     C49820   2.999   4.084   7.936 -0.4667 -0.8089  0.3004
  370MOL0     C49821   2.864   4.093   7.919  0.5545  0.3171  0.7740
  370MOL0     C49822   2.790   3.986   7.926  0.0434 -0.2042 -0.5486
  370MOL0     O49823   2.654   4.014   7.927 -0.8475  0.1493  0.1449
  370MOL0     C49824   2.568   3.899   7.941 -0.2845  0.4422  0.1927
  370MOL0     C49825   2.431   3.963   7.945  0.6243 -0.2767 -1.5924
  370MOL0     C49826   2.324   3.850   7.967 -0.1441  1.0437 -0.5635
  370MOL0     C49827   2.183   3.908   7.979 -0.3146  0.0618  0.7952
  370MOL0     C49828   2.072   3.802   7.998 -0.1370  0.0166  0.0407
  370MOL0     C49829   1.929   3.872   7.989  0.1276  0.4812  0.0977
  370MOL0     C49830   1.821   3.761   8.019  0.0010 -0.3933  0.4902
  370MOL0     C49831   1.693   3.823   8.086 -0.0157 -0.2045  0.3045
  370MOL0     N49832   1.586   3.719   8.093 -0.5686  0.5786 -0.3224
  370MOL0     C49833   1.595   3.593   8.152  0.4448  0.5187  0.1735
  370MOL0     C49834   1.467   3.547   8.144  0.4216 -0.2538 -1.1074
  370MOL0     C49835   1.439   3.412   8.207 -1.6968 -0.1424  0.2531
  370MOL0     C49836   1.487   3.293   8.110 -0.6448  0.4370 -0.4340
  370MOL0     C49837   1.397   3.168   8.102 -0.3838 -0.3126 -0.3009
  370MOL0     C49838   1.287   3.182   8.005  1.1038 -0.1640  0.8945
  370MOL0     O49839   1.212   3.052   8.003  0.1244 -0.1883 -0.0588
  370MOL0     C49840   1.074   3.064   7.991  0.3535  0.0321 -0.8992
  370MOL0     C49841   1.002   2.998   8.091  0.5966  0.0045 -0.2679
  370MOL0     C49842   0.861   2.993   8.094  0.2085  0.0516 -0.2622
  370MOL0     C49843   0.788   2.918   8.204 -0.2045 -0.2940 -0.7845
  370MOL0     C49844   0.791   3.068   7.995  0.6291 -0.4640  0.0297
  370MOL0     C49845   0.648   3.080   7.985  0.1602 -0.1213  0.2628
  370MOL0     O49846   0.605   3.171   7.891 -0.0565 -0.2993 -0.3116
  370MOL0     C49847   0.471   3.160   7.856 -0.0696  0.6462 -0.0036
  370MOL0     C49848   0.371   3.237   7.917  0.0649  0.2153  0.4873
  370MOL0     C49849   0.236   3.243   7.876 -0.1764  0.1236 -0.5656
  370MOL0     C49850   0.204   3.175   7.764  0.0087 -0.5151  0.0919
  370MOL0     O49851   0.080   3.203   7.719  0.5057 -0.1218 -0.5375
  370MOL0     C49852   0.040   3.137   7.601 -0.4280 -0.1288  0.5897
  370MOL0     C49853  -0.110   3.179   7.578  0.7409  0.0687  0.2551
  370MOL0     C49854  -0.161   3.133   7.443 -0.1413  0.1239 -0.5993
  370MOL0     C49855  -0.302   3.181   7.426 -0.4017  0.0228 -0.5460
  370MOL0     C49856  -0.392   3.077   7.347 -0.0608  0.0574 -1.1403
  370MOL0     C49857  -0.529   3.139   7.351 -0.1259  0.9174 -0.6770
  370MOL0     C49858  -0.637   3.043   7.298 -0.3496  0.8181  1.0066
  370MOL0     C49859  -0.764   3.117   7.262 -0.5193  0.5217  0.0374
  370MOL0    Cl49860  -0.844   3.156   7.423 -0.3111 -0.0002  0.0601
  370MOL0     C49861   0.300   3.095   7.695 -0.1563 -0.9262 -0.8676
  370MOL0     C49862   0.430   3.089   7.740  0.3066  0.0406 -0.3708
  370MOL0     O49863   0.572   3.018   8.054  0.1031 -0.1349  0.6511
  370MOL0     C49864   0.863   3.136   7.898 -0.0502  0.1647 -0.2524
  370MOL0     C49865   1.002   3.130   7.890 -0.9744 -0.3231  0.3447
  370MOL0     N49866   1.388   3.645   8.099  0.1770 -0.5696 -0.4039
  370MOL0     N49867   1.458   3.750   8.075  0.6725 -0.4288  0.9867
  370MOL0     C49868   2.851   3.861   7.971 -0.4635  0.2234  0.8811
  370MOL0     C49869   2.989   3.851   7.990  0.2306 -0.0945 -0.7240
  370MOL0     C49870   3.406   3.899   7.874  0.0354  0.0863 -0.9588
  370MOL0     C49871   3.474   3.997   7.942  0.3851  0.2890  0.4470
  370MOL0     C49872   3.616   4.002   7.943 -0.0361  0.3417  0.7712
  370MOL0     C49873   3.688   3.907   7.873 -0.7247  0.5298 -0.1792
  370MOL0     O49874   3.829   3.919   7.876  0.5205  0.2969 -0.3421
  370MOL0     C49875   3.907   3.812   7.816 -0.0180  0.1239 -0.2569
  370MOL0     C49876   4.057   3.843   7.812  0.0382  0.0612  0.2240
  370MOL0     C49877   4.122   3.831   7.946 -0.5503 -0.2554 -0.2500
  370MOL0     C49878   4.271   3.853   7.929 -0.4168  0.7469  0.0127
  370MOL0     C49879   4.306   3.990   7.965  0.5220  0.0675  0.6369
  370MOL0     C49880   4.354   4.103   7.972 -0.2341  0.7045 -0.5317
  370MOL0     C49881   3.620   3.813   7.802 -0.3212  0.0800  0.4790
  370MOL0     C49882   3.474   3.803   7.811 -0.3694  0.0514 -0.4562
  370MOL0     H49883   3.059   4.170   7.909  1.4295 -1.6349  1.7373
  370MOL0     H49884   2.813   4.186   7.895  2.3120  1.7508  2.2940
  370MOL0     H49885   2.589   3.828   7.861  2.9581  0.4743  0.8851
  370MOL0     H49886   2.586   3.832   8.027 -1.5529 -0.7206 -0.4014
  370MOL0     H49887   2.427   4.034   8.027 -0.2267 -0.1269 -1.7491
  370MOL0     H49888   2.397   4.020   7.857 -0.0932 -0.6284 -1.5547
  370MOL0     H49889   2.331   3.783   7.880 -0.9787  1.2174 -0.7817
  370MOL0     H49890   2.352   3.785   8.050 -2.7888 -2.4252 -2.1040
  370MOL0     H49891   2.176   3.967   8.071 -1.4513  0.7924  0.2679
  370MOL0     H49892   2.159   3.969   7.892  1.2080 -0.2476  0.1382
  370MOL0     H49893   2.068   3.721   7.924 -0.2985  2.2898 -2.6110
  370MOL0     H49894   2.087   3.760   8.098  0.5511  4.5648  2.0960
  370MOL0     H49895   1.915   3.953   8.062 -0.5553  2.0208 -1.6671
  370MOL0     H49896   1.906   3.922   7.895  0.0032  1.5724  0.6918
  370MOL0     H49897   1.790   3.709   7.928  0.7678 -1.9248  1.0632
  370MOL0     H49898   1.860   3.690   8.092  0.5195 -0.4131  0.1940
  370MOL0     H49899   1.667   3.909   8.023  2.1746 -0.5956 -1.2694
  370MOL0     H49900   1.724   3.863   8.183 -0.4685  0.0747  0.3348
  370MOL0     H49901   1.682   3.541   8.193 -1.3102 -3.3368 -0.5196
  370MOL0     H49902   1.497   3.404   8.299 -0.8773 -5.0660 -0.3843
  370MOL0     H49903   1.332   3.411   8.228 -2.4067  2.3777 -2.5163
  370MOL0     H49904   1.582   3.264   8.156 -0.2719  2.1043 -0.0805
  370MOL0     H49905   1.513   3.334   8.012 -0.3173  1.6359  0.1460
  370MOL0     H49906   1.346   3.148   8.198  0.1031 -1.1525 -0.2067
  370MOL0     H49907   1.452   3.080   8.067  0.6866  0.6409 -1.0389
  370MOL0     H49908   1.324   3.195   7.903 -0.3700  3.7283  0.6848
  370MOL0     H49909   1.226   3.268   8.036 -1.4617 -1.4817 -0.1414
  370MOL0     H49910   1.045   2.926   8.160 -0.0219 -1.1211 -1.0091
  370MOL0     H49911   0.734   2.836   8.156 -0.1345  0.0060 -1.3950
  370MOL0     H49912   0.851   2.878   8.284 -1.7593 -1.0763  0.0981
  370MOL0     H49913   0.723   2.981   8.265  1.6030 -1.0287  2.0864
  370MOL0     H49914   0.402   3.302   7.999  0.5941 -2.6396  2.7234
  370MOL0     H49915   0.165   3.300   7.935  1.0800 -0.0896  1.2083
  370MOL0     H49916   0.110   3.161   7.521  0.7210  0.4171  1.7271
  370MOL0     H49917   0.044   3.029   7.616 -2.6569 -0.5502 -1.2079
  370MOL0     H49918  -0.171   3.124   7.649  1.0516 -0.2556  0.2727
  370MOL0     H49919  -0.125   3.288   7.585 -0.9250 -0.0657 -0.6940
  370MOL0     H49920  -0.170   3.025   7.459  0.5135  0.4682  2.9954
  370MOL0     H49921  -0.091   3.164   7.364  0.3239  0.7838  0.0553
  370MOL0     H49922  -0.353   3.176   7.523  1.6886 -0.0775  0.5946
  370MOL0     H49923  -0.302   3.286   7.394 -2.1182  0.3820  0.4722
  370MOL0     H49924  -0.377   2.981   7.397  1.5865  1.5406  1.4533
  370MOL0     H49925  -0.363   3.057   7.243  0.5870 -0.5896 -0.8369
  370MOL0     H49926  -0.556   3.165   7.454 -0.8975 -0.9129 -0.3808
  370MOL0     H49927  -0.523   3.231   7.292  1.4231  0.4700 -1.2522
  370MOL0     H49928  -0.658   2.956   7.361 -0.7666  1.2961  1.5409
  370MOL0     H49929  -0.580   3.011   7.211  1.5205  2.2575  1.6224
  370MOL0     H49930  -0.837   3.057   7.207 -0.1468 -0.1103  0.2103
  370MOL0     H49931  -0.739   3.207   7.205  0.0703  0.7061  0.5793
  370MOL0     H49932   0.273   3.045   7.602 -1.5448  0.1064 -1.0405
  370MOL0     H49933   0.500   3.032   7.679 -2.4680 -2.0155 -1.8751
  370MOL0     H49934   0.817   3.192   7.817  0.0824  1.0874  0.2968
  370MOL0     H49935   1.062   3.183   7.817 -0.0425 -0.6530  0.8454
  370MOL0     H49936   2.791   3.771   7.987 -1.2149  0.8006  1.3825
  370MOL0     H49937   3.032   3.755   8.017  1.1021  1.0793  2.5283
  370MOL0     H49938   3.425   4.073   8.002  1.1121  0.3744  0.9513
  370MOL0     H49939   3.669   4.084   7.992  0.2202  0.1716  0.7806
  370MOL0     H49940   3.894   3.731   7.887  1.0796  3.7212  4.5953
  370MOL0     H49941   3.869   3.788   7.716  0.6796  1.1736 -0.7985
  370MOL0     H49942   4.066   3.948   7.783  0.5832 -0.2940 -0.9758
  370MOL0     H49943   4.115   3.786   7.738  3.2631  0.6133  2.1028
  370MOL0     H49944   4.117   3.731   7.991  3.5754 -0.6358 -0.2464
  370MOL0     H49945   4.081   3.898   8.022 -1.8024 -0.8161 -0.4015
  370MOL0     H49946   4.305   3.830   7.828 -0.5507 -1.3470  0.4135
  370MOL0     H49947   4.320   3.792   8.005 -1.0858  0.1107 -0.0556
  370MOL0     H49948   4.394   4.198   8.001  1.2897 -0.0016 -0.2156
  370MOL0     H49949   3.669   3.742   7.736  1.1180  0.8924  0.6304
  370MOL0     H49950   3.422   3.728   7.753  1.3924 -1.6571  0.0668
  371MOL0     O49951   8.202  10.706  10.847  0.4643 -0.8685 -0.3319
  371MOL0     C49952   8.215  10.714  10.727  0.7109  0.5168  0.4011
  371MOL0     O49953   8.118  10.680  10.634 -0.3076  0.1224  0.2150
  371MOL0     C49954   8.001  10.618  10.674 -0.3284 -0.6962  0.9594
  371MOL0     C49955   7.951  10.533  10.571  0.6203 -0.2053  0.3524
  371MOL0     C49956   7.831  10.455  10.582 -0.2364  0.2329 -1.4678
  371MOL0     C49957   7.752  10.467  10.696 -0.3125 -0.7342 -0.6806
  371MOL0     O49958   7.624  10.414  10.704  0.0762  0.6193 -0.2284
  371MOL0     C49959   7.605  10.293  10.636 -0.3127  0.4566  0.4247
  371MOL0     C49960   7.480  10.225  10.694 -0.2301 -0.5854 -0.5092
  371MOL0     C49961   7.359  10.318  10.681 -0.0821 -1.1438  0.0130
  371MOL0     C49962   7.227  10.241  10.717  0.0852  0.6888 -0.9762
  371MOL0     C49963   7.099  10.328  10.707  0.1995  0.0307  1.0418
  371MOL0     C49964   6.973  10.268  10.760  0.6476  0.8025  0.3905
  371MOL0     C49965   6.854  10.362  10.750 -0.1771  0.3450  0.1874
  371MOL0     C49966   6.817  10.393  10.601  0.4397  0.1828  0.5243
  371MOL0     N49967   6.707  10.483  10.580  0.0979  0.6298 -0.5423
  371MOL0     C49968   6.570  10.451  10.556 -0.6464  0.0994 -0.6646
  371MOL0     C49969   6.505  10.565  10.531  0.6921  0.7329  0.2769
  371MOL0     C49970   6.355  10.557  10.531 -0.5306 -1.0984 -0.5618
  371MOL0     C49971   6.281  10.542  10.402 -0.7035 -0.2993  0.5304
  371MOL0     C49972   6.143  10.483  10.412 -0.7302  0.5762 -0.1343
  371MOL0     C49973   6.050  10.577  10.482 -0.1819 -0.6734  0.5229
  371MOL0     O49974   5.910  10.550  10.461 -0.4392  0.0261 -0.1430
  371MOL0     C49975   5.826  10.660  10.447 -0.7116  0.2362 -0.1678
  371MOL0     C49976   5.848  10.788  10.500  0.1179 -0.0576 -0.3692
  371MOL0     C49977   5.761  10.894  10.493  0.6240 -0.7148  0.5059
  371MOL0     C49978   5.812  11.027  10.544  0.1231 -0.6927 -0.5252
  371MOL0     C49979   5.634  10.883  10.429 -0.1432 -0.2541  0.9191
  371MOL0     C49980   5.533  10.994  10.420 -0.5904  0.4612  0.8565
  371MOL0     O49981   5.432  10.960  10.338 -0.4397  0.3828 -0.3629
  371MOL0     C49982   5.340  11.063  10.309  0.2840  0.2371 -0.5330
  371MOL0     C49983   5.367  11.163  10.206  0.3984  0.0068 -0.1198
  371MOL0     C49984   5.268  11.253  10.164  0.4847 -0.1363 -0.2884
  371MOL0     C49985   5.162  11.275  10.249 -0.2090  0.0934 -0.8971
  371MOL0     O49986   5.093  11.395  10.231  0.1703  0.5138  1.2812
  371MOL0     C49987   5.022  11.439  10.356 -0.2101 -0.3588  0.0811
  371MOL0     C49988   4.947  11.575  10.329 -0.2209 -0.2204 -0.3530
  371MOL0     C49989   4.910  11.642  10.461 -0.4294 -0.5495  0.2579
  371MOL0     C49990   4.859  11.785  10.443  0.1769 -0.5548 -0.1718
  371MOL0     C49991   4.818  11.852  10.573  0.6100 -0.0592  1.3135
  371MOL0     C49992   4.742  11.988  10.545  0.5169  0.5182  0.1678
  371MOL0     C49993   4.838  12.108  10.541 -0.8240  0.3109  0.6438
  371MOL0     C49994   4.746  12.228  10.514 -0.8873  0.4713  0.1328
  371MOL0    Cl49995   4.842  12.374  10.482  0.2759 -0.0263  0.0235
  371MOL0     C49996   5.133  11.180  10.353 -0.8272  1.1302  0.3443
  371MOL0     C49997   5.219  11.074  10.381  0.6144 -0.0243 -0.1740
  371MOL0     O49998   5.554  11.100  10.481  0.6964 -0.1455 -0.7036
  371MOL0     C49999   5.613  10.752  10.373 -0.2362  0.0716 -0.4208
  371MOL0     C50000   5.700  10.647  10.382 -0.3599 -0.1344  0.7199
  371MOL0     N50001   6.597  10.668  10.549  0.0462  0.4832 -0.1464
  371MOL0     N50002   6.715  10.623  10.578  0.1900  0.2056 -0.1357
  371MOL0     C50003   7.796  10.556  10.795 -0.9495 -0.2704 -0.9779
  371MOL0     C50004   7.913  10.630  10.785 -1.0347 -0.4852 -0.0666
  371MOL0     C50005   8.348  10.760  10.675  0.2694  0.4014 -0.2367
  371MOL0     C50006   8.452  10.803  10.769  1.3424 -0.2473 -0.1002
  371MOL0     C50007   8.574  10.838  10.718 -0.4469  0.1320  0.3249
  371MOL0     C50008   8.611  10.819  10.585 -1.0962 -0.4380 -0.4873
  371MOL0     O50009   8.742  10.866  10.553  0.0015  0.4976 -0.0115
  371MOL0     C50010   8.780  10.876  10.420 -0.2060  0.2095  0.9841
  371MOL0     C50011   8.931  10.932  10.429 -1.0040  0.0507  0.9814
  371MOL0     C50012   9.022  10.823  10.488  0.2994 -0.3555 -0.1303
  371MOL0     C50013   9.175  10.833  10.484  0.1161  0.6174  0.7690
  371MOL0     C50014   9.220  10.841  10.348 -0.3917  0.7301 -0.2154
  371MOL0     C50015   9.251  10.817  10.236 -1.1010  0.6319 -0.7704
  371MOL0     C50016   8.518  10.775  10.494 -0.1338 -0.1569 -0.7989
  371MOL0     C50017   8.385  10.746  10.545 -0.0757  0.5299 -0.5742
  371MOL0     H50018   8.003  10.548  10.477 -1.1620  1.2887 -0.4573
  371MOL0     H50019   7.810  10.406  10.487  1.6200 -1.5909 -1.0237
  371MOL0     H50020   7.583  10.307  10.530  0.7802  0.5061  0.1914
  371MOL0     H50021   7.691  10.225  10.641 -1.6856 -1.3913  0.0220
  371MOL0     H50022   7.456  10.128  10.649  2.0507 -0.0793 -3.0521
  371MOL0     H50023   7.504  10.203  10.799 -3.1717  3.0180  1.1815
  371MOL0     H50024   7.360  10.404  10.749  1.6183 -0.2293 -1.0825
  371MOL0     H50025   7.341  10.339  10.575  0.1471  0.5707  0.2720
  371MOL0     H50026   7.226  10.148  10.659  2.2899 -1.8539  2.6581
  371MOL0     H50027   7.239  10.200  10.818 -0.5765  3.2848  0.2283
  371MOL0     H50028   7.128  10.421  10.755  0.9773  1.0085 -1.1604
  371MOL0     H50029   7.087  10.343  10.599 -3.3038 -0.1613  1.2798
  371MOL0     H50030   6.952  10.173  10.710  1.7678 -0.7966  2.7570
  371MOL0     H50031   6.985  10.241  10.866  0.2892 -2.0537 -0.2064
  371MOL0     H50032   6.766  10.313  10.792 -1.0352 -0.1377 -2.0402
  371MOL0     H50033   6.879  10.449  10.812  1.6200  0.2588 -0.3562
  371MOL0     H50034   6.796  10.305  10.540 -1.0481  0.7694  0.1456
  371MOL0     H50035   6.901  10.434  10.544 -0.1486  1.4967  0.5766
  371MOL0     H50036   6.527  10.353  10.571 -1.0510  0.7605  4.3588
  371MOL0     H50037   6.321  10.469  10.587 -2.1785  1.1226  2.1713
  371MOL0     H50038   6.325  10.644  10.589  2.8074 -1.3271  1.7584
  371MOL0     H50039   6.330  10.469  10.337 -0.2950  0.9021 -0.5536
  371MOL0     H50040   6.280  10.636  10.346  0.6285  0.4246  1.6693
  371MOL0     H50041   6.144  10.386  10.464  0.5480  0.5052 -0.2590
  371MOL0     H50042   6.099  10.471  10.312 -3.3302  2.6360  0.6610
  371MOL0     H50043   6.067  10.680  10.447  0.8116 -0.9403  0.1993
  371MOL0     H50044   6.072  10.573  10.589 -1.1100 -0.4467  0.7314
  371MOL0     H50045   5.942  10.808  10.551 -0.0391 -1.9030  0.7142
  371MOL0     H50046   5.760  11.055  10.636  0.1205 -1.6519 -0.2196
  371MOL0     H50047   5.916  11.028  10.579  0.8592  2.2057 -2.4195
  371MOL0     H50048   5.798  11.101  10.465 -2.0172 -1.8400 -1.3080
  371MOL0     H50049   5.459  11.148  10.151 -0.1090 -1.0875 -0.7014
  371MOL0     H50050   5.286  11.309  10.073  1.9648  0.5053  0.3741
  371MOL0     H50051   4.949  11.361  10.377 -1.1408  0.5402  0.2235
  371MOL0     H50052   5.096  11.449  10.437 -0.5703 -1.9765  0.6394
  371MOL0     H50053   5.022  11.635  10.278  1.4434 -1.1522  0.9073
  371MOL0     H50054   4.859  11.554  10.267  1.0656 -2.2286 -1.6256
  371MOL0     H50055   4.995  11.642  10.530 -1.9492  0.3018  2.2315
  371MOL0     H50056   4.837  11.583  10.517  1.4922 -2.6026  0.7591
  371MOL0     H50057   4.932  11.847  10.391  1.3311 -1.1734  0.6634
  371MOL0     H50058   4.772  11.778  10.376 -1.2341 -0.1866  1.5505
  371MOL0     H50059   4.905  11.869  10.636  0.9231  0.8581  0.6545
  371MOL0     H50060   4.744  11.788  10.622 -1.0489  0.2703 -0.5860
  371MOL0     H50061   4.683  11.987  10.453  0.0578  0.4372  0.4614
  371MOL0     H50062   4.666  12.002  10.622 -1.7856 -2.3759 -1.3957
  371MOL0     H50063   4.911  12.096  10.461 -0.4630  0.1622  0.9926
  371MOL0     H50064   4.899  12.123  10.630 -0.7180 -3.0124  1.2452
  371MOL0     H50065   4.689  12.254  10.604 -0.0550 -1.7344  1.3775
  371MOL0     H50066   4.672  12.204  10.437 -0.6269  2.8074 -0.9409
  371MOL0     H50067   5.053  11.191  10.426  0.8279  0.0091  2.4433
  371MOL0     H50068   5.214  11.006  10.466  2.8791 -1.4746 -1.1107
  371MOL0     H50069   5.517  10.739  10.323 -0.9509 -1.2479  1.1938
  371MOL0     H50070   5.681  10.551  10.336  0.8758  1.4124 -3.4811
  371MOL0     H50071   7.740  10.566  10.888  1.8387 -3.3081  1.2355
  371MOL0     H50072   7.945  10.683  10.874  1.8792 -0.1591 -1.1780
  371MOL0     H50073   8.439  10.810  10.877  0.9008 -0.0964 -0.1580
  371MOL0     H50074   8.654  10.868  10.785  1.2440 -3.0941 -0.0392
  371MOL0     H50075   8.774  10.782  10.365  1.4115  0.5607  0.1447
  371MOL0     H50076   8.720  10.948  10.364 -3.3791 -2.9971 -0.1369
  371MOL0     H50077   8.925  11.016  10.498  0.4088  3.1323 -2.3167
  371MOL0     H50078   8.978  10.961  10.334  0.4781 -2.1545  0.9823
  371MOL0     H50079   8.991  10.731  10.438  0.9198 -0.3335 -0.5590
  371MOL0     H50080   9.000  10.819  10.595  2.3139  1.0099  0.3865
  371MOL0     H50081   9.226  10.749  10.532 -0.3230 -0.5545 -0.7164
  371MOL0     H50082   9.210  10.926  10.530 -0.0133  2.0080 -1.7643
  371MOL0     H50083   9.285  10.799  10.136 -0.3689  3.4728 -1.1323
  371MOL0     H50084   8.551  10.759  10.392  0.6270 -0.9159 -0.4474
  371MOL0     H50085   8.317  10.704  10.472  1.1904 -0.8835 -0.9993
  372MOL0     O50086   7.085   6.862  10.240  0.0211  0.1280 -0.0811
  372MOL0     C50087   7.088   6.975  10.189 -0.1685 -0.6921  0.0612
  372MOL0     O50088   6.978   7.058  10.169  0.7789  0.1975  0.2443
  372MOL0     C50089   6.857   7.019  10.223  0.7759 -0.2479 -0.3687
  372MOL0     C50090   6.736   7.027  10.137 -0.3404 -0.2302  0.1838
  372MOL0     C50091   6.608   6.995  10.198 -1.1339  0.2757  1.3216
  372MOL0     C50092   6.604   6.954  10.339  0.2932  0.2734  0.3468
  372MOL0     O50093   6.492   6.922  10.400 -0.5650 -0.0091 -0.9489
  372MOL0     C50094   6.371   6.935  10.318  0.5554  0.5577 -0.3689
  372MOL0     C50095   6.251   6.903  10.415 -0.4706  0.1769  0.5292
  372MOL0     C50096   6.120   6.902  10.334  0.3594  0.7143  0.0138
  372MOL0     C50097   5.997   6.863  10.428 -0.2564  0.3683 -0.5033
  372MOL0     C50098   5.862   6.910  10.358  0.5255  0.1593 -0.0020
  372MOL0     C50099   5.737   6.899  10.456  0.5914 -0.2069  0.6160
  372MOL0     C50100   5.700   6.754  10.518 -0.2914  0.4307 -0.5573
  372MOL0     C50101   5.618   6.655  10.423  0.6266 -0.3663  0.7033
  372MOL0     N50102   5.492   6.718  10.385  0.9004 -0.5323  0.6906
  372MOL0     C50103   5.414   6.672  10.282  0.1253 -0.4795 -0.4978
  372MOL0     C50104   5.293   6.725  10.314  0.0251  1.1285  0.1613
  372MOL0     C50105   5.166   6.707  10.238  0.3931 -0.6727 -0.0818
  372MOL0     C50106   5.078   6.592  10.297 -0.3703  0.7791 -0.4580
  372MOL0     C50107   5.028   6.617  10.442 -0.5102 -0.0456 -0.3542
  372MOL0     C50108   4.945   6.744  10.450  0.2280 -0.8825  0.0290
  372MOL0     O50109   4.816   6.726  10.374 -0.1562  0.2063  0.0301
  372MOL0     C50110   4.722   6.823  10.383  0.2126 -0.7137 -0.7097
  372MOL0     C50111   4.716   6.927  10.483  0.0060 -0.0030  0.7179
  372MOL0     C50112   4.601   6.998  10.506 -0.2676 -0.5812 -0.4442
  372MOL0     C50113   4.609   7.106  10.607 -0.4681  0.9122  0.1113
  372MOL0     C50114   4.486   6.983  10.420 -0.9792  0.5761  0.5853
  372MOL0     C50115   4.367   7.067  10.427  0.9638 -0.0106  0.0933
  372MOL0     O50116   4.324   7.115  10.309  0.4098 -0.0455 -0.1824
  372MOL0     C50117   4.220   7.204  10.317 -0.5769 -0.0311  0.1579
  372MOL0     C50118   4.090   7.169  10.370 -0.1448 -0.0297  0.2356
  372MOL0     C50119   3.978   7.247  10.353 -0.4762  0.6537  0.6044
  372MOL0     C50120   3.994   7.353  10.267 -0.7937 -0.4053  0.3709
  372MOL0     O50121   3.874   7.409  10.223  0.7688  0.0944 -0.0218
  372MOL0     C50122   3.868   7.520  10.120 -0.2703  0.1221 -0.1066
  372MOL0     C50123   3.727   7.555  10.094  0.3110 -0.2714  0.0762
  372MOL0     C50124   3.709   7.667   9.994  0.2245 -0.5755 -0.1054
  372MOL0     C50125   3.562   7.668   9.948 -0.4339 -0.1332 -0.1169
  372MOL0     C50126   3.465   7.752  10.033 -0.7080  1.1148  0.7474
  372MOL0     C50127   3.327   7.743   9.970 -0.6808  0.2495  0.3140
  372MOL0     C50128   3.222   7.830  10.053  0.2949 -0.2234  0.7778
  372MOL0     C50129   3.096   7.819   9.983  0.4795  0.3360  0.5184
  372MOL0    Cl50130   3.095   7.893   9.831 -0.1257 -0.0110  0.5168
  372MOL0     C50131   4.119   7.396  10.216  0.1546  0.3116  0.1411
  372MOL0     C50132   4.234   7.320  10.252  0.9637 -1.1072 -0.8692
  372MOL0     O50133   4.318   7.090  10.537 -0.3396  0.3653 -0.4220
  372MOL0     C50134   4.491   6.889  10.316  0.2519 -0.3016  0.5592
  372MOL0     C50135   4.609   6.813  10.295  0.3249  0.6771  0.3331
  372MOL0     N50136   5.305   6.802  10.426  0.3249  0.0219 -0.3469
  372MOL0     N50137   5.421   6.795  10.470  0.0705 -0.4810 -0.2131
  372MOL0     C50138   6.725   6.953  10.410 -0.4530 -0.8668 -0.3643
  372MOL0     C50139   6.846   6.983  10.357  0.3120 -0.1143  0.2875
  372MOL0     C50140   7.217   7.029  10.145 -0.6333  0.2491  0.0530
  372MOL0     C50141   7.342   6.983  10.197 -0.0323 -0.0424  0.1319
  372MOL0     C50142   7.471   7.018  10.140  0.6642 -0.6521 -0.1652
  372MOL0     C50143   7.473   7.104  10.027  0.9288 -0.2144 -0.4427
  372MOL0     O50144   7.597   7.139   9.978  0.7378  0.8978  0.1696
  372MOL0     C50145   7.615   7.251   9.887  0.0052  0.1494  0.2066
  372MOL0     C50146   7.755   7.312   9.911  0.3442 -0.2394  0.2781
  372MOL0     C50147   7.873   7.208   9.906 -0.1449  0.0728  0.2783
  372MOL0     C50148   8.020   7.267   9.906 -0.1314  0.2150 -0.0294
  372MOL0     C50149   8.068   7.305   9.776 -0.9451 -0.0185  0.5004
  372MOL0     C50150   8.116   7.355   9.675  1.2120 -0.1224 -0.0719
  372MOL0     C50151   7.353   7.160   9.986  0.1003  0.2833 -0.1013
  372MOL0     C50152   7.230   7.129  10.043  0.2205 -0.1773  0.0961
  372MOL0     H50153   6.739   7.055  10.032 -0.4031 -0.6083  0.0796
  372MOL0     H50154   6.523   6.992  10.130 -0.0281 -1.0402 -0.0730
  372MOL0     H50155   6.361   7.032  10.270  0.6061 -0.6261 -2.9440
  372MOL0     H50156   6.369   6.852  10.246  0.7247 -0.6357  0.9562
  372MOL0     H50157   6.273   6.802  10.450  2.6113  0.0128 -1.4493
  372MOL0     H50158   6.248   6.969  10.503  0.2888  0.0693  0.6406
  372MOL0     H50159   6.095   6.991  10.275 -1.2038 -0.4966 -1.2624
  372MOL0     H50160   6.133   6.819  10.264 -1.3626  0.5102 -0.1118
  372MOL0     H50161   6.002   6.756  10.451  2.8440  0.4745 -0.1530
  372MOL0     H50162   6.002   6.918  10.522 -1.2229  2.6449 -1.7057
  372MOL0     H50163   5.869   7.015  10.330 -0.2393  0.4357  0.7920
  372MOL0     H50164   5.854   6.857  10.262 -0.3371  1.1755 -0.5096
  372MOL0     H50165   5.759   6.956  10.547  1.8789 -0.8127  0.7142
  372MOL0     H50166   5.647   6.937  10.407  2.9203  2.3991 -1.9916
  372MOL0     H50167   5.798   6.714  10.548  0.3410  2.2577 -0.0907
  372MOL0     H50168   5.645   6.774  10.610  0.7317  0.5849  0.0371
  372MOL0     H50169   5.597   6.559  10.470 -2.3939 -0.5553 -0.7845
  372MOL0     H50170   5.670   6.635  10.329  0.8082 -3.1626  1.3286
  372MOL0     H50171   5.435   6.607  10.197 -2.3954 -0.4955 -1.2033
  372MOL0     H50172   5.106   6.798  10.243 -3.3265 -2.9620  0.5216
  372MOL0     H50173   5.189   6.682  10.134 -1.5609  0.1755 -0.7584
  372MOL0     H50174   5.140   6.502  10.294  1.3596  1.9017  0.1804
  372MOL0     H50175   4.993   6.582  10.229 -1.9284 -2.1856  1.7282
  372MOL0     H50176   5.118   6.625  10.504 -1.5563  0.1695  1.1744
  372MOL0     H50177   4.971   6.531  10.476  0.4022 -0.3544  0.4310
  372MOL0     H50178   4.994   6.840  10.427 -3.8862  1.2578 -0.7658
  372MOL0     H50179   4.920   6.751  10.556  1.6000 -2.0214  0.4631
  372MOL0     H50180   4.803   6.949  10.543 -0.7793  1.3404  1.4185
  372MOL0     H50181   4.710   7.107  10.650 -0.0462 -0.5794 -0.7979
  372MOL0     H50182   4.565   7.199  10.570 -0.3064  0.5900 -0.9091
  372MOL0     H50183   4.554   7.079  10.698  0.6677  0.1592  0.6026
  372MOL0     H50184   4.091   7.070  10.416  1.1503 -0.3388 -0.3924
  372MOL0     H50185   3.881   7.210  10.382 -0.3206 -3.4704 -2.9982
  372MOL0     H50186   3.920   7.611  10.150 -0.5636  0.5235 -0.7883
  372MOL0     H50187   3.912   7.483  10.027 -1.3539  1.9980 -1.4387
  372MOL0     H50188   3.683   7.466  10.050  0.9524 -0.7089  0.3076
  372MOL0     H50189   3.671   7.587  10.182 -2.1346 -0.2074 -1.4078
  372MOL0     H50190   3.755   7.646   9.897 -3.4087  0.3531 -2.2238
  372MOL0     H50191   3.741   7.758  10.046 -2.0659 -0.0544  0.5207
  372MOL0     H50192   3.551   7.691   9.841 -0.6159  3.3099  0.5125
  372MOL0     H50193   3.514   7.571   9.962 -2.7702  1.2785  2.6921
  372MOL0     H50194   3.497   7.856  10.036  1.2380  0.5944 -0.6444
  372MOL0     H50195   3.473   7.705  10.132  1.4998  0.1825  0.1727
  372MOL0     H50196   3.330   7.760   9.862  2.7180 -1.9588 -0.0977
  372MOL0     H50197   3.280   7.644   9.979 -3.8128  1.5370 -0.4342
  372MOL0     H50198   3.252   7.935  10.058  1.2368 -0.5201  1.5943
  372MOL0     H50199   3.204   7.798  10.156  0.6066 -1.5542  0.4443
  372MOL0     H50200   3.019   7.861  10.049  1.5749  0.1005  1.9931
  372MOL0     H50201   3.073   7.714   9.965  0.9597  0.4180 -0.6835
  372MOL0     H50202   4.130   7.481  10.149 -0.9257  0.6279  0.3492
  372MOL0     H50203   4.330   7.337  10.204  0.8622 -0.6722 -0.9166
  372MOL0     H50204   4.411   6.859  10.249  0.9413 -0.7683 -0.0781
  372MOL0     H50205   4.591   6.728  10.231 -0.3626  2.9784 -2.7561
  372MOL0     H50206   6.722   6.927  10.516 -1.7604  1.9199  0.3762
  372MOL0     H50207   6.924   6.976  10.432 -1.0488 -3.7399  1.5702
  372MOL0     H50208   7.337   6.906  10.273 -1.3422  0.5104  0.6402
  372MOL0     H50209   7.562   6.988  10.190  0.1790  0.1428  1.2745
  372MOL0     H50210   7.625   7.229   9.781  2.3400  4.3417 -0.6697
  372MOL0     H50211   7.552   7.339   9.904  0.2857  0.3152  0.3969
  372MOL0     H50212   7.760   7.360  10.009 -0.8757 -1.2513  0.8581
  372MOL0     H50213   7.771   7.394   9.840 -1.5543 -0.6130 -0.6593
  372MOL0     H50214   7.868   7.153   9.811  2.3187 -0.6159  0.4720
  372MOL0     H50215   7.872   7.146   9.996  1.8429 -0.4369  0.0035
  372MOL0     H50216   8.080   7.193   9.960 -0.9511  1.8915  3.4355
  372MOL0     H50217   8.031   7.359   9.964 -0.2420  0.6756 -0.7347
  372MOL0     H50218   8.153   7.411   9.592 -1.7202  1.9558 -0.1437
  372MOL0     H50219   7.356   7.239   9.911  1.2884  2.4008  2.0083
  372MOL0     H50220   7.149   7.182   9.994  0.4396 -0.3159 -0.4345
  373MOL0     O50221   4.051   4.227   1.554  0.3415 -0.7856 -0.6865
  373MOL0     C50222   4.080   4.331   1.607  0.9589 -0.3607  0.4667
  373MOL0     O50223   3.995   4.444   1.623 -0.3640  0.3771 -0.3342
  373MOL0     C50224   3.869   4.448   1.567  0.2675  0.7767 -0.7088
  373MOL0     C50225   3.814   4.574   1.561 -0.0894 -0.2831  0.7268
  373MOL0     C50226   3.687   4.595   1.511 -0.1244 -0.5537  0.5556
  373MOL0     C50227   3.603   4.490   1.474  0.6604  0.4294 -0.0982
  373MOL0     O50228   3.476   4.527   1.431  0.3640 -0.0857  0.2573
  373MOL0     C50229   3.371   4.423   1.435 -0.2287 -0.4303 -0.3753
  373MOL0     C50230   3.233   4.494   1.415  0.2536 -0.7379 -0.7296
  373MOL0     C50231   3.108   4.408   1.420 -0.2445 -0.5802 -0.9882
  373MOL0     C50232   2.992   4.511   1.416 -0.1783  0.0747  0.0945
  373MOL0     C50233   2.852   4.455   1.407  0.0770  0.4367  0.3687
  373MOL0     C50234   2.811   4.414   1.270 -0.3993  0.1228 -0.3512
  373MOL0     C50235   2.668   4.377   1.285  0.4835 -0.5855  0.8690
  373MOL0     C50236   2.570   4.499   1.273 -0.2344  0.2476  0.3206
  373MOL0     N50237   2.425   4.470   1.242 -0.1492  0.0454 -0.2868
  373MOL0     C50238   2.390   4.386   1.141  0.1655 -0.2740  0.3969
  373MOL0     C50239   2.261   4.379   1.156  0.4214  0.7916 -0.3867
  373MOL0     C50240   2.169   4.274   1.098 -0.3838  0.1782 -0.0227
  373MOL0     C50241   2.028   4.304   1.054 -0.0464  0.3308 -0.3312
  373MOL0     C50242   1.931   4.192   1.023  0.1961  0.4801 -0.4352
  373MOL0     C50243   1.778   4.233   1.013 -0.1693  0.0977 -0.0231
  373MOL0     O50244   1.747   4.280   1.150 -0.5369  0.0421  1.0581
  373MOL0     C50245   1.625   4.331   1.174  0.1812 -0.6049 -0.3045
  373MOL0     C50246   1.506   4.301   1.105 -0.5274  0.5816  0.6096
  373MOL0     C50247   1.395   4.371   1.120  0.2236  0.0670 -0.5213
  373MOL0     C50248   1.264   4.318   1.063  0.1337 -0.8616 -0.1356
  373MOL0     C50249   1.396   4.482   1.204  0.5003 -0.1599  0.0840
  373MOL0     C50250   1.278   4.573   1.230  0.7428  0.0006 -0.0833
  373MOL0     O50251   1.194   4.590   1.135  0.3476 -0.0071  0.4137
  373MOL0     C50252   1.082   4.671   1.146 -0.3878 -0.1709  0.6672
  373MOL0     C50253   0.967   4.621   1.210  0.6303 -0.4813  0.0935
  373MOL0     C50254   0.855   4.708   1.228 -0.2570  0.1851 -0.2255
  373MOL0     C50255   0.861   4.847   1.197  0.3115 -0.4461 -0.3759
  373MOL0     O50256   0.761   4.938   1.196 -0.5768 -0.1639  1.0379
  373MOL0     C50257   0.632   4.899   1.235 -0.1718 -0.4192 -0.1367
  373MOL0     C50258   0.553   4.851   1.115  0.1837 -0.1346 -0.0279
  373MOL0     C50259   0.412   4.791   1.153  0.0649  0.7821  0.5319
  373MOL0     C50260   0.310   4.874   1.228 -0.1808 -0.2002  0.2739
  373MOL0     C50261   0.188   4.792   1.265 -0.6404 -0.3663 -0.0564
  373MOL0     C50262   0.089   4.757   1.150  0.6638 -0.1051 -0.4115
  373MOL0     C50263  -0.004   4.868   1.116  0.1488  0.0947 -0.1835
  373MOL0     C50264  -0.139   4.830   1.039  0.4657 -0.5027 -0.3523
  373MOL0    Cl50265  -0.214   4.689   1.125  0.3433 -0.3781 -0.0817
  373MOL0     C50266   0.978   4.893   1.137 -0.5041  0.1333 -0.1081
  373MOL0     C50267   1.083   4.808   1.111 -0.6681 -0.0261  0.2585
  373MOL0     O50268   1.260   4.620   1.341  0.3518  0.3025  0.0240
  373MOL0     C50269   1.506   4.510   1.280  0.6087 -0.3243  0.6055
  373MOL0     C50270   1.622   4.436   1.261  0.2465 -0.7217 -0.5290
  373MOL0     N50271   2.213   4.464   1.257 -0.6478  1.0835  0.6024
  373MOL0     N50272   2.319   4.522   1.309 -0.8263  0.3243  0.0346
  373MOL0     C50273   3.651   4.364   1.488  1.3556  0.7011 -0.3472
  373MOL0     C50274   3.788   4.345   1.530  0.2449  0.1872  0.5124
  373MOL0     C50275   4.218   4.346   1.654 -0.0609  0.1395  1.1456
  373MOL0     C50276   4.270   4.466   1.708 -0.2399  0.2038 -0.4558
  373MOL0     C50277   4.395   4.475   1.768 -1.1501  0.4663  0.3369
  373MOL0     C50278   4.482   4.362   1.775  0.1439  0.1227  0.3077
  373MOL0     O50279   4.610   4.373   1.818 -0.0083  0.1182 -0.5946
  373MOL0     C50280   4.681   4.496   1.818  0.2082 -0.1837 -0.1599
  373MOL0     C50281   4.829   4.488   1.818  0.2728 -0.1654  0.1075
  373MOL0     C50282   4.899   4.616   1.772 -0.1331 -0.9072  0.3044
  373MOL0     C50283   5.054   4.607   1.788  0.4500 -0.1297  0.5022
  373MOL0     C50284   5.115   4.537   1.673  0.8154 -0.4176 -0.1389
  373MOL0     C50285   5.162   4.460   1.587 -0.1897  0.0531  0.4705
  373MOL0     C50286   4.428   4.241   1.724 -0.1236 -1.2337 -0.4947
  373MOL0     C50287   4.297   4.233   1.668  0.6910 -0.0179 -0.0223
  373MOL0     H50288   3.877   4.660   1.581  1.1645 -1.2991  1.3593
  373MOL0     H50289   3.670   4.701   1.499  2.3809 -0.1825 -0.3316
  373MOL0     H50290   3.389   4.355   1.351 -0.8610  1.2734 -1.9492
  373MOL0     H50291   3.376   4.378   1.535  2.8886  0.1104 -0.1689
  373MOL0     H50292   3.225   4.568   1.494  1.8049 -4.3989  3.2890
  373MOL0     H50293   3.240   4.541   1.316  3.3662  0.4589 -0.0690
  373MOL0     H50294   3.100   4.334   1.340 -1.0188 -1.6674  0.0699
  373MOL0     H50295   3.105   4.346   1.510  2.5085  0.5970  0.0169
  373MOL0     H50296   2.993   4.572   1.507  1.1084  0.5842 -0.2409
  373MOL0     H50297   3.013   4.578   1.333  0.3291  0.5587  0.5999
  373MOL0     H50298   2.835   4.367   1.470 -1.9686  1.4521  1.3375
  373MOL0     H50299   2.783   4.532   1.441  2.2262  1.9962  1.4347
  373MOL0     H50300   2.833   4.490   1.194 -0.6180  0.7417  0.1939
  373MOL0     H50301   2.865   4.325   1.237 -2.7634 -1.6874  0.3819
  373MOL0     H50302   2.642   4.323   1.193 -1.2577  1.7447 -0.1080
  373MOL0     H50303   2.643   4.322   1.376  1.2661  0.0032  1.4517
  373MOL0     H50304   2.604   4.562   1.190 -0.1069 -0.3946 -0.1146
  373MOL0     H50305   2.571   4.560   1.364  0.5845  1.3132 -0.3654
  373MOL0     H50306   2.449   4.325   1.074 -0.2976  1.6482 -1.8660
  373MOL0     H50307   2.229   4.227   1.019 -0.4116  2.1035 -1.2646
  373MOL0     H50308   2.155   4.215   1.189  2.6027  1.8657  1.6662
  373MOL0     H50309   2.030   4.371   0.967  0.3217 -1.4118 -1.7103
  373MOL0     H50310   1.984   4.357   1.139  1.3411  0.0927  0.5756
  373MOL0     H50311   1.945   4.117   1.102  0.7654  0.1868 -0.8022
  373MOL0     H50312   1.966   4.150   0.929  0.5358  1.1440 -0.6121
  373MOL0     H50313   1.724   4.143   0.983 -3.0566  1.2444  1.3278
  373MOL0     H50314   1.749   4.307   0.938  1.1022 -2.2566 -3.0428
  373MOL0     H50315   1.488   4.227   1.027 -0.6131  2.3861 -1.1520
  373MOL0     H50316   1.247   4.374   0.971  1.0615  0.6379  0.5798
  373MOL0     H50317   1.264   4.215   1.024  0.7446 -1.0897  0.4473
  373MOL0     H50318   1.179   4.329   1.131  0.1581 -0.7337 -0.1261
  373MOL0     H50319   0.947   4.519   1.240 -2.5042 -0.2645 -0.8454
  373MOL0     H50320   0.762   4.656   1.251  1.3161 -1.7619  2.2549
  373MOL0     H50321   0.631   4.820   1.310 -1.6872 -0.0428  0.2673
  373MOL0     H50322   0.584   4.984   1.284  2.9028  0.7462  1.1245
  373MOL0     H50323   0.537   4.925   1.036  0.5480 -1.5659 -1.5119
  373MOL0     H50324   0.604   4.762   1.076 -3.9718 -2.4194 -0.8758
  373MOL0     H50325   0.438   4.700   1.206  0.4883 -0.9595 -2.4343
  373MOL0     H50326   0.366   4.748   1.063  0.0125 -0.9208  1.3444
  373MOL0     H50327   0.359   4.913   1.318  0.9796  1.6756 -1.0812
  373MOL0     H50328   0.279   4.954   1.160  1.5853 -1.4458 -2.1686
  373MOL0     H50329   0.151   4.848   1.351  0.9006  0.8277 -0.1242
  373MOL0     H50330   0.220   4.696   1.307 -0.8979 -0.1665  0.6103
  373MOL0     H50331   0.145   4.733   1.059 -1.2122  0.4987 -1.7698
  373MOL0     H50332   0.029   4.670   1.179 -1.3789  0.2232 -3.2800
  373MOL0     H50333   0.049   4.942   1.056  1.4147  0.5620  1.4570
  373MOL0     H50334  -0.037   4.919   1.207  0.2520  1.6106 -0.9679
  373MOL0     H50335  -0.111   4.801   0.937 -0.8958 -1.8444 -0.3899
  373MOL0     H50336  -0.208   4.914   1.041 -0.0487 -0.9267  0.0988
  373MOL0     H50337   0.970   4.992   1.093  0.4631 -0.3485 -1.4429
  373MOL0     H50338   1.167   4.841   1.050 -0.8208 -0.7008 -0.3297
  373MOL0     H50339   1.505   4.594   1.349  0.0969 -0.8220  1.2147
  373MOL0     H50340   1.710   4.463   1.319  0.4220  2.6358 -2.1096
  373MOL0     H50341   3.582   4.281   1.469  1.9230  0.3843 -1.0732
  373MOL0     H50342   3.829   4.244   1.535  1.5464  0.5920 -1.1500
  373MOL0     H50343   4.211   4.557   1.703  1.2637  1.1841 -0.7798
  373MOL0     H50344   4.422   4.565   1.822 -3.0722 -0.4370  2.9579
  373MOL0     H50345   4.663   4.552   1.726 -0.1219  1.0859  0.6648
  373MOL0     H50346   4.646   4.557   1.901 -1.8458  0.2332 -1.2574
  373MOL0     H50347   4.853   4.402   1.755 -1.4929 -0.4209 -0.2646
  373MOL0     H50348   4.869   4.475   1.919  0.6604 -1.6591 -0.2188
  373MOL0     H50349   4.863   4.691   1.844  1.0632 -0.7144  0.7215
  373MOL0     H50350   4.877   4.649   1.670 -0.8079  0.5002  0.8724
  373MOL0     H50351   5.088   4.558   1.880 -0.3222  2.1305  2.0800
  373MOL0     H50352   5.096   4.708   1.796  0.0769  0.0135  0.6570
  373MOL0     H50353   5.187   4.397   1.504 -3.9356 -1.9661  0.6369
  373MOL0     H50354   4.495   4.156   1.729 -1.5852 -2.4505 -0.9344
  373MOL0     H50355   4.262   4.138   1.628 -1.1857  0.4792  0.3442
  374MOL0     O50356  11.061   1.116  10.808  0.3361 -0.0823  0.0172
  374MOL0     C50357  11.064   1.192  10.902 -0.5228 -0.2214 -0.3885
  374MOL0     O50358  10.949   1.260  10.949  0.1827 -0.2768  0.0516
  374MOL0     C50359  10.834   1.236  10.878 -0.0173  0.6510 -0.3032
  374MOL0     C50360  10.720   1.181  10.939 -1.1059  0.0397 -0.0562
  374MOL0     C50361  10.597   1.180  10.879  0.0059  0.0035  0.0465
  374MOL0     C50362  10.583   1.228  10.748 -1.0636  0.5835 -0.6612
  374MOL0     O50363  10.470   1.234  10.676  0.4817 -0.1130  0.2383
  374MOL0     C50364  10.408   1.106  10.666  0.0199 -0.0821 -0.1604
  374MOL0     C50365  10.276   1.105  10.595 -0.5064 -0.0616  0.6067
  374MOL0     C50366  10.168   1.172  10.679  0.1436 -0.0648 -0.1900
  374MOL0     C50367  10.057   1.207  10.582 -0.6348  0.4891 -0.8143
  374MOL0     C50368   9.934   1.264  10.659 -1.0569  0.4726 -0.1719
  374MOL0     C50369   9.948   1.412  10.716  0.1267  0.1821 -0.1513
  374MOL0     C50370   9.815   1.470  10.756  0.5921 -0.9033 -0.1278
  374MOL0     C50371   9.745   1.386  10.864  0.6908  0.1377  1.0223
  374MOL0     N50372   9.627   1.468  10.916 -0.1962 -0.0966  0.2497
  374MOL0     C50373   9.498   1.471  10.864 -0.4008 -0.1454  0.1007
  374MOL0     C50374   9.436   1.574  10.937  0.3364  0.7111 -0.2498
  374MOL0     C50375   9.325   1.654  10.894  0.2211  0.9496 -0.1696
  374MOL0     C50376   9.193   1.571  10.889 -0.0698 -0.3476  0.0417
  374MOL0     C50377   9.149   1.539  11.036  1.0517 -0.1498 -0.5044
  374MOL0     C50378   9.038   1.437  11.046  0.2331 -0.1381 -0.2074
  374MOL0     O50379   8.916   1.494  11.008  0.3405 -0.0093 -0.2760
  374MOL0     C50380   8.824   1.552  11.091 -0.0563 -0.4973  0.7180
  374MOL0     C50381   8.702   1.596  11.033  1.1939  0.1388 -0.3328
  374MOL0     C50382   8.602   1.661  11.109  1.9347 -0.8851  0.5432
  374MOL0     C50383   8.478   1.705  11.033  1.0152 -1.1299  0.4431
  374MOL0     C50384   8.620   1.664  11.247  1.0001 -0.0805 -0.4490
  374MOL0     C50385   8.526   1.721  11.353 -0.1194  0.2587 -0.2689
  374MOL0     O50386   8.539   1.690  11.489  0.0687  0.1672 -0.3433
  374MOL0     C50387   8.452   1.748  11.583  0.5149  0.2260  0.3394
  374MOL0     C50388   8.411   1.668  11.684 -0.3605  0.7426  0.1591
  374MOL0     C50389   8.329   1.712  11.784 -0.4267 -0.2982  0.2986
  374MOL0     C50390   8.285   1.845  11.790  0.1247  0.1489 -0.3153
  374MOL0     O50391   8.202   1.893  11.891  0.3692 -0.0681  0.5863
  374MOL0     C50392   8.147   1.792  11.989 -0.2309 -0.1120  0.5588
  374MOL0     C50393   8.042   1.860  12.081  0.9401 -0.8195 -0.0032
  374MOL0     C50394   7.910   1.865  12.011  1.4246 -0.0879  0.0550
  374MOL0     C50395   7.792   1.878  12.108  0.7367 -1.1998 -0.1536
  374MOL0     C50396   7.779   2.032  12.161  0.0871  1.0881 -0.5222
  374MOL0     C50397   7.648   2.062  12.230  0.3868  0.0226  0.6463
  374MOL0     C50398   7.518   2.062  12.135 -0.1035 -0.2069  0.4094
  374MOL0     C50399   7.524   2.175  12.029  0.1979  0.5042  0.1779
  374MOL0    Cl50400   7.399   2.306  12.053  0.0284 -0.1545  0.5849
  374MOL0     C50401   8.338   1.939  11.691  0.3810 -0.0180  0.4111
  374MOL0     C50402   8.425   1.885  11.583 -0.0479 -0.4678  0.3954
  374MOL0     O50403   8.448   1.803  11.310 -0.1834 -0.1988  0.1320
  374MOL0     C50404   8.733   1.607  11.305 -0.4442  0.5349  0.3230
  374MOL0     C50405   8.835   1.549  11.225  0.4977  0.2591 -0.2676
  374MOL0     N50406   9.522   1.612  11.039 -0.2472 -0.6043 -0.3706
  374MOL0     N50407   9.638   1.558  11.020  0.8709  0.1645 -0.0238
  374MOL0     C50408  10.704   1.286  10.693  0.7660  0.5448  0.5633
  374MOL0     C50409  10.828   1.287  10.751  1.2221 -0.2811  0.9669
  374MOL0     C50410  11.191   1.212  10.978  0.3081 -0.1289 -0.0662
  374MOL0     C50411  11.293   1.116  10.972 -0.2459  0.7704  0.8836
  374MOL0     C50412  11.414   1.139  11.043  0.6085 -0.0928  0.4656
  374MOL0     C50413  11.440   1.254  11.117  0.2324 -0.2881  0.5781
  374MOL0     O50414  11.556   1.271  11.186 -0.4991  0.5522  0.1841
  374MOL0     C50415  11.549   1.332  11.317 -0.9426 -0.4152  0.6135
  374MOL0     C50416  11.665   1.282  11.403  0.1673 -0.7600 -0.1408
  374MOL0     C50417  11.799   1.311  11.346 -0.5558 -0.1333 -0.3609
  374MOL0     C50418  11.915   1.278  11.438 -0.8715 -0.9654  0.1529
  374MOL0     C50419  12.052   1.306  11.381 -0.0052 -0.2624  0.5145
  374MOL0     C50420  12.158   1.334  11.332  0.6544  1.1181 -1.0502
  374MOL0     C50421  11.342   1.358  11.102 -0.1718  0.3800  0.4445
  374MOL0     C50422  11.215   1.329  11.041 -0.2526 -0.0034  0.7053
  374MOL0     H50423  10.732   1.135  11.037  2.1966  0.5802 -0.1148
  374MOL0     H50424  10.507   1.149  10.932  1.3554 -0.7159  2.0192
  374MOL0     H50425  10.459   1.035  10.601  1.8812  1.4709 -0.4675
  374MOL0     H50426  10.393   1.059  10.764  0.1576 -0.6294 -0.3994
  374MOL0     H50427  10.283   1.166  10.505 -0.4998  0.9621  1.2761
  374MOL0     H50428  10.240   1.007  10.563 -3.1963  1.4329 -1.2824
  374MOL0     H50429  10.136   1.116  10.767  0.0628 -0.0002 -0.1772
  374MOL0     H50430  10.211   1.266  10.717  0.1964 -0.4866  0.8193
  374MOL0     H50431  10.103   1.280  10.515  2.0558  0.0023  0.3552
  374MOL0     H50432  10.023   1.118  10.529 -0.2493  1.2349 -2.3728
  374MOL0     H50433   9.849   1.246  10.594 -0.4523 -1.0405 -0.5933
  374MOL0     H50434   9.930   1.206  10.752 -0.1193 -0.4547 -0.6837
  374MOL0     H50435   9.995   1.396  10.813 -0.2733 -1.3296 -0.1859
  374MOL0     H50436  10.009   1.471  10.647  4.5403 -4.2515 -0.6708
  374MOL0     H50437   9.833   1.572  10.789  1.4759 -0.3382 -2.1599
  374MOL0     H50438   9.757   1.477  10.663  0.7414  0.7542 -0.1251
  374MOL0     H50439   9.816   1.382  10.947  2.0969  1.7898 -0.0433
  374MOL0     H50440   9.718   1.285  10.832  2.1375  0.2480 -0.6793
  374MOL0     H50441   9.468   1.421  10.773 -0.1982  1.5651 -0.9614
  374MOL0     H50442   9.318   1.743  10.957  0.6572  3.2079 -3.0883
  374MOL0     H50443   9.355   1.679  10.792  1.2587 -2.5883 -0.8782
  374MOL0     H50444   9.216   1.480  10.832  2.8172 -0.3958  1.1260
  374MOL0     H50445   9.114   1.619  10.831 -0.2859 -0.1562  0.4916
  374MOL0     H50446   9.127   1.631  11.091  0.4649 -1.4876  1.6477
  374MOL0     H50447   9.222   1.477  11.089 -1.2998 -1.9094  0.9164
  374MOL0     H50448   9.036   1.396  11.147  1.4137  0.6921  0.1818
  374MOL0     H50449   9.059   1.351  10.982  0.0922 -0.4367  0.1477
  374MOL0     H50450   8.691   1.591  10.925 -0.4798 -2.8625 -0.1296
  374MOL0     H50451   8.460   1.652  10.939 -2.0332 -1.1060  0.9052
  374MOL0     H50452   8.387   1.677  11.085 -0.2575 -1.7324 -1.9676
  374MOL0     H50453   8.484   1.813  11.020 -2.5093 -0.7436  1.0070
  374MOL0     H50454   8.465   1.575  11.697  0.2978  1.4414  3.0651
  374MOL0     H50455   8.303   1.651  11.869  0.4176  0.8128  1.3896
  374MOL0     H50456   8.103   1.706  11.939 -0.1260 -0.0439  0.3492
  374MOL0     H50457   8.235   1.766  12.049  1.3043 -0.4554 -1.7305
  374MOL0     H50458   8.035   1.793  12.168  1.4121 -0.2260  0.5062
  374MOL0     H50459   8.066   1.956  12.127  1.9426  0.2371 -2.5423
  374MOL0     H50460   7.897   1.779  11.946 -2.8901 -0.2692  0.8662
  374MOL0     H50461   7.917   1.952  11.946  0.7245  1.9923  2.5598
  374MOL0     H50462   7.697   1.854  12.059 -0.7994  0.4951  1.8006
  374MOL0     H50463   7.806   1.813  12.195  1.9462  1.8049  2.0501
  374MOL0     H50464   7.789   2.102  12.077 -1.2311  0.0678 -1.5834
  374MOL0     H50465   7.860   2.044  12.234  0.4650 -2.1115 -0.2602
  374MOL0     H50466   7.623   1.991  12.310 -1.4842  1.7824  1.7191
  374MOL0     H50467   7.656   2.161  12.275 -2.0696  0.2112  0.7962
  374MOL0     H50468   7.432   2.087  12.198 -0.9662  1.1288 -1.2242
  374MOL0     H50469   7.502   1.968  12.082 -0.4862 -0.1739  0.4650
  374MOL0     H50470   7.525   2.129  11.930 -1.8622  0.0091  0.3460
  374MOL0     H50471   7.618   2.230  12.039  0.7404 -0.5287  0.9050
  374MOL0     H50472   8.322   2.047  11.689  0.4110  0.1272 -4.3982
  374MOL0     H50473   8.451   1.958  11.507 -0.1940  2.3073  2.8774
  374MOL0     H50474   8.753   1.614  11.411 -2.4527  1.3910  0.6893
  374MOL0     H50475   8.921   1.504  11.274  2.6796  1.5967 -2.6300
  374MOL0     H50476  10.688   1.331  10.595 -0.0806 -0.7939  0.0566
  374MOL0     H50477  10.917   1.332  10.709 -1.5621  3.9408 -1.0927
  374MOL0     H50478  11.268   1.019  10.929  0.9998  0.4427  0.8431
  374MOL0     H50479  11.481   1.054  11.055  2.0685  0.9211 -0.2009
  374MOL0     H50480  11.570   1.437  11.297  0.5079 -0.3743  2.1069
  374MOL0     H50481  11.455   1.321  11.372 -0.0195 -1.7808  2.0163
  374MOL0     H50482  11.649   1.175  11.423  2.3304 -0.6340  3.0259
  374MOL0     H50483  11.663   1.341  11.496 -1.9098  0.5898 -0.9804
  374MOL0     H50484  11.810   1.417  11.322  0.5182 -0.1722 -0.0767
  374MOL0     H50485  11.819   1.254  11.254  0.1437 -2.0914  0.9504
  374MOL0     H50486  11.912   1.171  11.461 -0.6853 -1.3622 -1.5497
  374MOL0     H50487  11.899   1.328  11.534  0.3493 -1.6864  0.7602
  374MOL0     H50488  12.257   1.347  11.292  0.1794  1.9146 -2.0228
  374MOL0     H50489  11.360   1.453  11.151 -0.5008 -0.2184  1.7922
  374MOL0     H50490  11.137   1.404  11.052 -0.2074  0.1924 -0.2035
  375MOL0     O50491   8.528  10.063   7.480  0.7721 -0.0183  0.7005
  375MOL0     C50492   8.571  10.143   7.399 -0.2772 -0.3980  0.3689
  375MOL0     O50493   8.501  10.255   7.363  0.4749  0.0357  0.0177
  375MOL0     C50494   8.370  10.276   7.401  0.1702  0.1535  0.1154
  375MOL0     C50495   8.270  10.179   7.391  0.5075  0.1787 -0.0840
  375MOL0     C50496   8.140  10.202   7.432  0.0526  0.6769 -0.3532
  375MOL0     C50497   8.105  10.330   7.471  0.2441  0.6901 -1.1408
  375MOL0     O50498   7.974  10.338   7.508 -0.6373 -0.9637 -0.3939
  375MOL0     C50499   7.923  10.480   7.526 -0.0515  1.0344 -0.3535
  375MOL0     C50500   7.769  10.466   7.556 -0.7616  0.0384 -0.3081
  375MOL0     C50501   7.738  10.392   7.691  0.4235 -0.5298  0.1920
  375MOL0     C50502   7.595  10.427   7.731  0.2931 -0.3502 -0.2402
  375MOL0     C50503   7.553  10.337   7.856 -0.1988  0.5573  0.0528
  375MOL0     C50504   7.435  10.390   7.924 -0.0914 -0.3305  0.1633
  375MOL0     C50505   7.392  10.283   8.029  0.5173 -0.1858 -0.9311
  375MOL0     C50506   7.303  10.352   8.131  0.1229  0.6116 -0.4549
  375MOL0     N50507   7.158  10.333   8.098 -0.0183 -0.3122 -0.0093
  375MOL0     C50508   7.087  10.401   8.002 -0.0867  0.2554  0.3658
  375MOL0     C50509   6.963  10.347   8.020  0.5875  0.3442  0.2734
  375MOL0     C50510   6.839  10.407   7.946 -0.2983  0.5010 -0.9055
  375MOL0     C50511   6.791  10.537   8.001 -0.5566 -0.1485 -0.0136
  375MOL0     C50512   6.720  10.616   7.898 -0.0509  0.1655  0.2096
  375MOL0     C50513   6.671  10.752   7.952  0.0226  0.6591 -0.0286
  375MOL0     O50514   6.560  10.714   8.038 -1.2371  0.4324 -0.0930
  375MOL0     C50515   6.464  10.801   8.064 -0.5589 -0.0346  1.1256
  375MOL0     C50516   6.472  10.937   8.060  0.2285  0.3338 -0.0949
  375MOL0     C50517   6.372  11.028   8.098 -0.4374  0.7666 -0.4899
  375MOL0     C50518   6.388  11.180   8.085 -0.9996  0.0986 -0.1485
  375MOL0     C50519   6.251  10.971   8.133 -0.6457 -0.6040 -0.6914
  375MOL0     C50520   6.128  11.048   8.160  0.6695  0.5508 -0.5849
  375MOL0     O50521   6.015  10.979   8.126 -0.1158  0.0828 -0.4651
  375MOL0     C50522   5.892  11.030   8.170  0.0443  0.0887 -0.1095
  375MOL0     C50523   5.804  10.963   8.258 -0.4275 -0.0920  0.1609
  375MOL0     C50524   5.674  11.003   8.273 -0.6620  0.1853  0.1458
  375MOL0     C50525   5.628  11.127   8.232 -0.1526 -0.4318  0.1151
  375MOL0     O50526   5.504  11.193   8.265 -0.3627 -0.1834  0.4031
  375MOL0     C50527   5.412  11.122   8.351 -1.0481  0.1865  0.8609
  375MOL0     C50528   5.309  11.215   8.408  0.0638  1.4614 -0.2177
  375MOL0     C50529   5.200  11.128   8.488  0.0166 -0.7141  0.4675
  375MOL0     C50530   5.063  11.192   8.451 -0.1041 -0.0032  0.9665
  375MOL0     C50531   4.948  11.128   8.527 -0.7675 -0.8764 -0.2158
  375MOL0     C50532   4.899  11.005   8.457  0.5920  0.0772  0.7137
  375MOL0     C50533   4.793  10.940   8.552 -0.0991 -1.0916 -0.1824
  375MOL0     C50534   4.736  10.818   8.475 -0.5303  0.6943  1.0781
  375MOL0    Cl50535   4.642  10.877   8.336  0.1069 -0.0749  0.4038
  375MOL0     C50536   5.718  11.201   8.151  0.7026  0.6043 -0.1666
  375MOL0     C50537   5.845  11.148   8.124 -1.1158  0.0536 -0.0007
  375MOL0     O50538   6.133  11.155   8.214  0.4534  0.1487  0.2141
  375MOL0     C50539   6.236  10.831   8.134  0.2515 -0.9051 -0.5907
  375MOL0     C50540   6.342  10.750   8.089 -0.3557  0.2404  0.0134
  375MOL0     N50541   6.959  10.256   8.116  0.5338  0.1184 -0.6474
  375MOL0     N50542   7.076  10.244   8.164 -0.2188 -0.4739 -0.2139
  375MOL0     C50543   8.203  10.428   7.485 -0.8055 -0.4453  0.9707
  375MOL0     C50544   8.341  10.406   7.449 -0.1807  0.7365 -0.9458
  375MOL0     C50545   8.712  10.138   7.355 -0.2438  0.7413 -0.4367
  375MOL0     C50546   8.784  10.252   7.300  0.5787 -0.4491 -0.2578
  375MOL0     C50547   8.915  10.234   7.263  0.0141  0.8093  0.2383
  375MOL0     C50548   8.989  10.111   7.270  0.1522 -0.4497 -0.2230
  375MOL0     O50549   9.121  10.114   7.232 -0.3844 -0.7103  0.6299
  375MOL0     C50550   9.195  10.000   7.245  0.2112  0.8784  0.7418
  375MOL0     C50551   9.341  10.028   7.220  0.4761 -0.3901  0.5796
  375MOL0     C50552   9.361  10.071   7.071  0.3749 -0.8171 -0.1767
  375MOL0     C50553   9.511  10.107   7.038 -1.5509  0.2382 -0.0902
  375MOL0     C50554   9.578  10.200   7.136  0.1025 -0.1310 -0.1649
  375MOL0     C50555   9.611  10.270   7.230 -0.4308 -0.1357 -0.3147
  375MOL0     C50556   8.919   9.999   7.324  0.1954 -0.3489 -0.5416
  375MOL0     C50557   8.781  10.013   7.367 -0.2397  0.2663  0.3540
  375MOL0     H50558   8.294  10.087   7.339 -0.8053  0.5738 -1.4519
  375MOL0     H50559   8.062  10.127   7.431 -0.1252  0.7377 -3.5878
  375MOL0     H50560   7.974  10.528   7.610  0.3151 -2.1360  1.4087
  375MOL0     H50561   7.934  10.533   7.431 -0.3299  1.7641  0.0153
  375MOL0     H50562   7.721  10.564   7.563 -2.6416 -0.7868 -1.1560
  375MOL0     H50563   7.721  10.413   7.474  0.8222 -1.5149 -0.2960
  375MOL0     H50564   7.738  10.283   7.687  0.4618 -0.4887 -1.6351
  375MOL0     H50565   7.815  10.422   7.763 -0.7256 -2.2965  2.2725
  375MOL0     H50566   7.593  10.533   7.757 -1.2466 -0.8219  1.8296
  375MOL0     H50567   7.520  10.399   7.657 -1.7475 -0.1766  1.6637
  375MOL0     H50568   7.531  10.235   7.823 -2.7475  1.0732 -0.0767
  375MOL0     H50569   7.629  10.328   7.934  1.2482  0.4572 -1.3327
  375MOL0     H50570   7.457  10.488   7.967  0.2741  0.2268 -1.2373
  375MOL0     H50571   7.356  10.386   7.848 -0.7226  2.9285  0.5197
  375MOL0     H50572   7.347  10.189   7.996  0.7212 -0.0365 -1.6386
  375MOL0     H50573   7.488  10.252   8.073  0.2581 -0.9169 -0.8591
  375MOL0     H50574   7.333  10.456   8.149  3.1752  0.1651 -2.3015
  375MOL0     H50575   7.306  10.295   8.224 -0.9947 -2.8656 -2.3780
  375MOL0     H50576   7.106  10.474   7.924 -1.6367  1.6824  1.2474
  375MOL0     H50577   6.867  10.404   7.840  4.1818  1.4569  0.0446
  375MOL0     H50578   6.754  10.340   7.960  2.7235 -3.4247  0.2702
  375MOL0     H50579   6.874  10.600   8.037  1.4615 -2.2772 -0.7045
  375MOL0     H50580   6.725  10.512   8.084  1.9506  0.4323  2.3119
  375MOL0     H50581   6.629  10.569   7.859  0.6717 -0.2325 -1.0415
  375MOL0     H50582   6.792  10.633   7.818  0.8400 -0.9796  0.7512
  375MOL0     H50583   6.634  10.813   7.869 -1.6677  1.2204  1.0900
  375MOL0     H50584   6.756  10.796   8.004  0.0963 -1.2785  1.6392
  375MOL0     H50585   6.572  10.977   8.047  0.2824  0.1630 -0.1981
  375MOL0     H50586   6.411  11.229   8.180 -0.4053  2.7272 -1.5518
  375MOL0     H50587   6.463  11.208   8.011 -3.4420 -0.0227 -2.8536
  375MOL0     H50588   6.302  11.233   8.042  0.2842  0.5537 -2.3112
  375MOL0     H50589   5.844  10.876   8.310 -0.4410  0.6255  1.3906
  375MOL0     H50590   5.595  10.955   8.329 -2.4311  0.5549 -1.8942
  375MOL0     H50591   5.366  11.039   8.297  1.4693 -2.5833  2.7058
  375MOL0     H50592   5.462  11.087   8.441 -0.1018 -2.7159 -0.6846
  375MOL0     H50593   5.370  11.276   8.477  1.0443 -1.3347  1.5447
  375MOL0     H50594   5.263  11.281   8.334  0.3199  0.4653 -1.2857
  375MOL0     H50595   5.210  11.112   8.596 -2.2969 -0.5810  0.7555
  375MOL0     H50596   5.194  11.023   8.456  1.0964 -0.5130 -0.4686
  375MOL0     H50597   5.050  11.300   8.462 -2.1745 -0.1530  0.4124
  375MOL0     H50598   5.059  11.189   8.341 -1.7695  3.2590  0.7990
  375MOL0     H50599   4.866  11.200   8.532 -0.0120  0.1325 -1.5085
  375MOL0     H50600   4.988  11.113   8.627  2.0750  2.2142 -0.7241
  375MOL0     H50601   4.847  11.045   8.369  0.3458  2.1689  1.7384
  375MOL0     H50602   4.973  10.927   8.437 -1.1487 -1.9677  1.8275
  375MOL0     H50603   4.707  11.007   8.562 -1.4424 -2.9028  1.0991
  375MOL0     H50604   4.827  10.929   8.655 -0.3034  0.2040  0.0405
  375MOL0     H50605   4.671  10.758   8.540  1.4272  0.1481  2.6367
  375MOL0     H50606   4.819  10.757   8.439 -0.8404  1.3794 -0.9120
  375MOL0     H50607   5.694  11.294   8.101 -3.8859  0.1674  0.8212
  375MOL0     H50608   5.911  11.213   8.068 -1.5919  1.3047  0.8570
  375MOL0     H50609   6.148  10.782   8.174  0.9769 -0.5774  1.5650
  375MOL0     H50610   6.318  10.645   8.079 -3.3118  0.7394  0.9505
  375MOL0     H50611   8.186  10.530   7.520  1.3929  0.5946 -0.6939
  375MOL0     H50612   8.420  10.480   7.454 -0.1294  0.6540 -0.4310
  375MOL0     H50613   8.719  10.336   7.277 -0.3476 -1.5085 -1.6498
  375MOL0     H50614   8.971  10.317   7.222 -2.3879  1.4820 -2.0127
  375MOL0     H50615   9.184   9.963   7.348  0.7620 -2.3043 -0.2383
  375MOL0     H50616   9.155   9.934   7.168 -0.7369  1.6754  0.5292
  375MOL0     H50617   9.398   9.935   7.229 -0.9894 -1.3531  0.2340
  375MOL0     H50618   9.376  10.104   7.291 -0.0825 -1.3562  1.9172
  375MOL0     H50619   9.299  10.152   7.033 -1.1514 -1.9742 -0.2424
  375MOL0     H50620   9.342   9.985   7.006  2.3441 -1.1553 -0.3662
  375MOL0     H50621   9.521  10.142   6.935 -1.5840  0.9382  0.1449
  375MOL0     H50622   9.574  10.018   7.045 -0.4326  1.0685  0.4934
  375MOL0     H50623   9.634  10.340   7.309  0.8679 -2.1419  1.1632
  375MOL0     H50624   8.965   9.903   7.344 -1.0895 -1.3118 -1.9948
  375MOL0     H50625   8.727   9.928   7.407  0.7872 -0.6555 -0.1708
  376MOL0     O50626   1.790   8.075   4.151  0.3578 -0.4610 -0.7115
  376MOL0     C50627   1.810   7.986   4.233  0.0126 -0.0220 -0.1529
  376MOL0     O50628   1.721   7.941   4.329  0.0913  0.5115  0.4503
  376MOL0     C50629   1.603   8.013   4.356 -0.3631 -0.0151  0.0036
  376MOL0     C50630   1.579   8.059   4.488 -0.4721 -0.1916  0.8739
  376MOL0     C50631   1.457   8.129   4.528 -0.3894  0.1406  0.8768
  376MOL0     C50632   1.365   8.160   4.423  0.7529  0.7061  0.1879
  376MOL0     O50633   1.258   8.237   4.456 -0.7774  0.5153 -0.4975
  376MOL0     C50634   1.132   8.213   4.379 -0.2490 -0.5035 -0.4999
  376MOL0     C50635   1.016   8.285   4.456  0.2666  0.7706  0.3517
  376MOL0     C50636   0.886   8.250   4.378 -0.3254  0.2962  0.0527
  376MOL0     C50637   0.762   8.337   4.430  0.0919  0.0470  0.3777
  376MOL0     C50638   0.636   8.259   4.411 -0.2503 -0.2252 -0.6280
  376MOL0     C50639   0.508   8.336   4.442 -0.6921 -0.3304  0.2473
  376MOL0     C50640   0.374   8.269   4.405 -0.2760  0.0438 -0.3034
  376MOL0     C50641   0.247   8.355   4.448 -0.0837 -0.4930 -0.2092
  376MOL0     N50642   0.131   8.269   4.425 -0.1705  0.5352 -0.9964
  376MOL0     C50643   0.101   8.163   4.513  0.2437 -0.3880  0.4124
  376MOL0     C50644  -0.007   8.105   4.446  0.0091  1.3342  0.7812
  376MOL0     C50645  -0.067   7.970   4.493 -0.7615  0.2130  0.4670
  376MOL0     C50646  -0.191   8.000   4.580  1.0690  0.7501 -0.1528
  376MOL0     C50647  -0.267   7.870   4.614  1.1135  0.4614  0.4302
  376MOL0     C50648  -0.400   7.901   4.681  0.2561  0.0297 -0.1865
  376MOL0     O50649  -0.480   7.783   4.663  0.4625  0.3531 -0.0635
  376MOL0     C50650  -0.618   7.794   4.689  0.8835  0.1700 -0.9362
  376MOL0     C50651  -0.687   7.679   4.647  0.0059 -0.8955 -1.4642
  376MOL0     C50652  -0.828   7.673   4.667 -0.5928 -0.3636 -0.4205
  376MOL0     C50653  -0.898   7.545   4.614 -0.3248  0.2652  0.0800
  376MOL0     C50654  -0.900   7.784   4.729  0.4374 -0.6065 -0.9073
  376MOL0     C50655  -1.048   7.785   4.745  0.2835 -0.0042  0.6678
  376MOL0     O50656  -1.096   7.887   4.822 -0.2580  0.0435  0.0044
  376MOL0     C50657  -1.228   7.868   4.850 -0.0996  0.1475  0.1871
  376MOL0     C50658  -1.269   7.759   4.934  0.1511  0.1822 -1.1905
  376MOL0     C50659  -1.405   7.741   4.973 -0.3260 -0.0447 -0.4220
  376MOL0     C50660  -1.506   7.838   4.930 -0.3432 -0.0000  0.7218
  376MOL0     O50661  -1.639   7.831   4.960 -0.0440 -0.2724  0.2809
  376MOL0     C50662  -1.686   7.691   4.971 -0.1727 -0.6278  0.4794
  376MOL0     C50663  -1.835   7.692   4.999 -0.5888 -0.8051  0.3412
  376MOL0     C50664  -1.871   7.735   5.143 -0.2110  0.1613 -0.7645
  376MOL0     C50665  -2.024   7.725   5.166 -0.3514 -0.1939 -0.4586
  376MOL0     C50666  -2.063   7.757   5.308  0.2418  0.2197  0.5467
  376MOL0     C50667  -2.214   7.731   5.332  0.8323 -0.2404 -0.6276
  376MOL0     C50668  -2.264   7.801   5.461 -0.3157  0.3041 -1.4800
  376MOL0     C50669  -2.417   7.796   5.477 -0.1630 -0.5559  0.2955
  376MOL0    Cl50670  -2.461   7.903   5.613  0.6678 -0.2517 -0.0028
  376MOL0     C50671  -1.460   7.941   4.844  0.0114 -0.8557 -0.3773
  376MOL0     C50672  -1.324   7.959   4.805  0.5457  0.7208  0.2067
  376MOL0     O50673  -1.119   7.701   4.687  0.4227 -0.0721 -0.3024
  376MOL0     C50674  -0.836   7.906   4.745 -0.1713 -0.4315  0.3412
  376MOL0     C50675  -0.696   7.902   4.724  0.1077  0.1976 -0.6810
  376MOL0     N50676  -0.035   8.171   4.321 -0.0995 -0.1777 -0.0966
  376MOL0     N50677   0.050   8.270   4.313 -0.0783 -0.5083  0.3350
  376MOL0     C50678   1.388   8.103   4.293 -0.5688  0.2938  0.6324
  376MOL0     C50679   1.504   8.034   4.258  0.4917  0.7975  0.2098
  376MOL0     C50680   1.950   7.933   4.227 -0.0313  0.4895 -0.1223
  376MOL0     C50681   1.996   7.861   4.341  0.2374  0.5728  0.4040
  376MOL0     C50682   2.127   7.814   4.343  0.4665  0.2292 -0.5813
  376MOL0     C50683   2.220   7.829   4.236  0.4054  0.6931  0.4844
  376MOL0     O50684   2.351   7.785   4.237 -0.4388  0.6897  0.0004
  376MOL0     C50685   2.372   7.656   4.301  0.8283  0.1917 -0.4907
  376MOL0     C50686   2.487   7.676   4.404  0.5509 -0.5900 -0.8045
  376MOL0     C50687   2.525   7.542   4.462 -0.7987 -0.6950  0.4241
  376MOL0     C50688   2.671   7.555   4.506  0.3593 -0.9626 -0.2317
  376MOL0     C50689   2.760   7.534   4.388 -0.5841 -0.5786 -0.4099
  376MOL0     C50690   2.835   7.527   4.292  0.1414  0.7550  0.3693
  376MOL0     C50691   2.176   7.909   4.133  0.0383 -0.6971 -0.0640
  376MOL0     C50692   2.046   7.962   4.124  0.0678 -0.3600 -0.0205
  376MOL0     H50693   1.653   8.029   4.563 -0.0559  0.1246  0.5947
  376MOL0     H50694   1.434   8.163   4.628  0.8894  3.5401  0.1630
  376MOL0     H50695   1.150   8.267   4.285  0.4769 -2.0658 -1.2825
  376MOL0     H50696   1.121   8.107   4.355  3.7274 -1.3621  0.7926
  376MOL0     H50697   1.016   8.256   4.561 -1.2649 -3.2956 -0.5815
  376MOL0     H50698   1.026   8.394   4.455 -1.0647  0.9081  1.0496
  376MOL0     H50699   0.897   8.274   4.272  0.5507 -1.6225 -0.3417
  376MOL0     H50700   0.862   8.144   4.383 -0.0026  0.2012 -0.3662
  376MOL0     H50701   0.785   8.360   4.535  1.5305  1.4336 -0.1866
  376MOL0     H50702   0.754   8.429   4.371 -0.3557 -1.8715 -2.7718
  376MOL0     H50703   0.634   8.221   4.309  1.9854 -1.9994 -0.0979
  376MOL0     H50704   0.637   8.165   4.467  0.6788 -0.7336 -1.4534
  376MOL0     H50705   0.501   8.361   4.548 -0.0356  0.3859  0.1346
  376MOL0     H50706   0.512   8.433   4.390 -1.9282 -0.4569 -0.1287
  376MOL0     H50707   0.372   8.253   4.297  0.6376 -3.1379  0.0654
  376MOL0     H50708   0.372   8.169   4.448  2.5921  0.4130  0.8709
  376MOL0     H50709   0.253   8.449   4.392  2.1053 -0.5014 -0.0778
  376MOL0     H50710   0.264   8.376   4.554  1.1547  1.3651 -0.7309
  376MOL0     H50711   0.148   8.141   4.608 -0.2875 -1.0355  0.5337
  376MOL0     H50712  -0.093   7.912   4.404 -1.0965  1.2811 -0.1425
  376MOL0     H50713   0.010   7.915   4.549 -2.5104 -2.3136  0.5729
  376MOL0     H50714  -0.258   8.055   4.514 -0.1024 -1.3531 -0.8226
  376MOL0     H50715  -0.169   8.075   4.656  2.1359  1.6601 -1.3255
  376MOL0     H50716  -0.211   7.802   4.678  2.8320  0.8136 -0.6198
  376MOL0     H50717  -0.282   7.820   4.518  4.0353  1.3993 -0.6538
  376MOL0     H50718  -0.442   7.991   4.634 -0.2072  0.1192  0.3964
  376MOL0     H50719  -0.382   7.914   4.788  3.0350  0.0293 -0.5833
  376MOL0     H50720  -0.636   7.596   4.600 -1.3612 -0.3838 -4.0371
  376MOL0     H50721  -0.970   7.503   4.686 -1.2994 -2.9236 -2.4981
  376MOL0     H50722  -0.956   7.567   4.525 -0.6811  0.7036  0.4158
  376MOL0     H50723  -0.829   7.465   4.584 -1.9088 -1.7061  1.3771
  376MOL0     H50724  -1.199   7.687   4.974  0.7780  0.9659 -0.8329
  376MOL0     H50725  -1.430   7.650   5.026 -1.1463  0.5151  0.1866
  376MOL0     H50726  -1.664   7.637   4.878  0.1177  0.3198 -0.0191
  376MOL0     H50727  -1.633   7.641   5.053  0.1053  2.1089  2.1057
  376MOL0     H50728  -1.886   7.759   4.930  1.3680  0.6445  0.1955
  376MOL0     H50729  -1.867   7.590   4.974 -0.2957 -0.6456 -0.7378
  376MOL0     H50730  -1.831   7.836   5.155 -0.6915  0.0685  2.4433
  376MOL0     H50731  -1.830   7.671   5.221 -2.6661  1.6720  2.0047
  376MOL0     H50732  -2.063   7.798   5.094  2.5597  2.1376  0.0954
  376MOL0     H50733  -2.052   7.625   5.134 -1.0563  0.4863 -2.1192
  376MOL0     H50734  -2.043   7.863   5.326  1.9627 -0.3353  2.2672
  376MOL0     H50735  -2.012   7.704   5.389  1.7315  1.6466  0.6069
  376MOL0     H50736  -2.278   7.760   5.248 -1.0870 -2.6221 -0.0979
  376MOL0     H50737  -2.238   7.625   5.342 -1.5952  0.4712  2.5354
  376MOL0     H50738  -2.228   7.903   5.449 -3.2035  1.4701 -1.1334
  376MOL0     H50739  -2.215   7.756   5.548 -3.6309  0.8209  0.8493
  376MOL0     H50740  -2.442   7.692   5.498 -2.6250 -0.3339 -1.1327
  376MOL0     H50741  -2.464   7.828   5.383 -0.3024  2.0599  1.1557
  376MOL0     H50742  -1.530   8.009   4.797 -1.5686 -2.9587 -1.2638
  376MOL0     H50743  -1.300   8.035   4.731 -2.0263  0.7590 -0.6849
  376MOL0     H50744  -0.883   8.003   4.752 -1.2041 -0.7452 -1.4823
  376MOL0     H50745  -0.640   7.992   4.749  0.6583 -0.2994 -0.0990
  376MOL0     H50746   1.326   8.135   4.210 -2.1492 -1.7277  0.9458
  376MOL0     H50747   1.519   8.004   4.155 -0.5685  1.4382 -0.1553
  376MOL0     H50748   1.928   7.840   4.423 -0.3825  0.5163 -0.1139
  376MOL0     H50749   2.168   7.755   4.424  2.0678 -0.9347 -2.1615
  376MOL0     H50750   2.284   7.619   4.352  0.2836  0.9825 -0.8349
  376MOL0     H50751   2.410   7.582   4.229  2.8047 -0.6208  1.2703
  376MOL0     H50752   2.452   7.738   4.487  3.1378 -0.1660  0.0711
  376MOL0     H50753   2.571   7.716   4.347  2.2028 -1.3975  0.9153
  376MOL0     H50754   2.519   7.466   4.384  1.2995  0.5046 -0.9968
  376MOL0     H50755   2.459   7.514   4.545  0.8462 -0.1281  1.9756
  376MOL0     H50756   2.700   7.487   4.586 -0.5053 -1.8087 -0.6143
  376MOL0     H50757   2.689   7.651   4.555 -0.9346 -2.7528  4.2059
  376MOL0     H50758   2.911   7.534   4.216 -1.1502  2.3671 -0.8448
  376MOL0     H50759   2.244   7.934   4.051  0.1702  2.6907  0.9198
  376MOL0     H50760   2.009   8.036   4.054 -0.8610  1.3171  2.1172
  377MOL0     O50761   6.533   1.395   7.649  0.9050  0.6416  0.6485
  377MOL0     C50762   6.588   1.358   7.539  1.0580  0.3444 -0.2955
  377MOL0     O50763   6.529   1.302   7.432  0.1783 -0.4973 -0.0507
  377MOL0     C50764   6.393   1.289   7.442 -0.1668 -0.3221 -0.7533
  377MOL0     C50765   6.314   1.405   7.423 -0.0046  0.3925  1.0567
  377MOL0     C50766   6.175   1.399   7.412  0.6095 -0.6003 -0.4209
  377MOL0     C50767   6.108   1.274   7.431  0.9720 -0.4922  0.5210
  377MOL0     O50768   5.973   1.265   7.395 -0.0354 -0.2903 -0.4664
  377MOL0     C50769   5.885   1.207   7.494 -0.1954 -0.1625  0.4480
  377MOL0     C50770   5.744   1.247   7.483 -0.2264  0.1983  0.0859
  377MOL0     C50771   5.651   1.167   7.581 -0.1612  0.3510  0.5876
  377MOL0     C50772   5.510   1.212   7.545 -0.9020  0.6010 -0.1135
  377MOL0     C50773   5.397   1.141   7.615  0.4633 -0.1813 -0.2548
  377MOL0     C50774   5.256   1.198   7.586  0.4673 -0.1445  0.3651
  377MOL0     C50775   5.163   1.165   7.698  0.3451  0.0122  0.0863
  377MOL0     C50776   5.028   1.234   7.697  0.4731 -1.0197 -0.3028
  377MOL0     N50777   4.936   1.169   7.795 -0.4853  0.4793 -0.6345
  377MOL0     C50778   4.910   1.033   7.807 -0.4888 -0.1575  0.2619
  377MOL0     C50779   4.833   1.022   7.916 -0.8254  0.1259  0.5820
  377MOL0     C50780   4.785   0.891   7.972 -0.5760  0.1802  0.0491
  377MOL0     C50781   4.674   0.827   7.886  0.3688 -0.2572  0.8906
  377MOL0     C50782   4.613   0.710   7.966 -0.0290  0.5865 -0.7394
  377MOL0     C50783   4.480   0.663   7.912  0.2527 -0.0915 -0.8247
  377MOL0     O50784   4.501   0.605   7.783  0.1397 -0.1411 -0.5394
  377MOL0     C50785   4.394   0.569   7.701 -0.2416  0.4485  0.3991
  377MOL0     C50786   4.258   0.590   7.734 -0.1274  0.1328 -0.7994
  377MOL0     C50787   4.161   0.546   7.653 -0.4085 -0.2635 -0.9915
  377MOL0     C50788   4.018   0.559   7.705 -0.5814 -0.0008  0.8613
  377MOL0     C50789   4.191   0.475   7.528  0.0859  0.0858 -0.6504
  377MOL0     C50790   4.101   0.434   7.419 -0.1287  0.0051 -0.0767
  377MOL0     O50791   4.140   0.334   7.344 -0.0680  0.1341  0.5175
  377MOL0     C50792   4.052   0.292   7.246  0.5543  0.1291 -0.4151
  377MOL0     C50793   4.070   0.351   7.118  0.1923  0.0767 -1.2274
  377MOL0     C50794   3.980   0.301   7.019  0.7961 -0.3061  0.4393
  377MOL0     C50795   3.864   0.219   7.049  0.1957  0.8884  0.2139
  377MOL0     O50796   3.782   0.177   6.946  0.0852 -0.4371  0.6501
  377MOL0     C50797   3.719   0.048   6.962  0.0063  0.5469 -0.3361
  377MOL0     C50798   3.680   0.013   6.818 -0.0434  0.0484  0.0290
  377MOL0     C50799   3.803  -0.000   6.721  0.4259 -0.3569 -0.1075
  377MOL0     C50800   3.903  -0.089   6.796 -0.0553  0.7288 -0.1775
  377MOL0     C50801   4.002  -0.142   6.701 -1.0324 -0.2579  0.6409
  377MOL0     C50802   4.129  -0.193   6.770 -0.7674  0.8163  0.6701
  377MOL0     C50803   4.235  -0.222   6.670 -0.0079  0.2953 -0.1693
  377MOL0     C50804   4.348  -0.301   6.723 -0.5091 -0.6658 -0.2869
  377MOL0    Cl50805   4.453  -0.356   6.590  0.1794  0.0509  0.5542
  377MOL0     C50806   3.847   0.176   7.186  0.0803 -0.3105  0.2120
  377MOL0     C50807   3.946   0.211   7.280  0.6077  0.3938 -0.5402
  377MOL0     O50808   4.002   0.508   7.394 -0.1902  0.1002  1.1008
  377MOL0     C50809   4.330   0.459   7.503 -0.5761  0.1623 -0.1083
  377MOL0     C50810   4.428   0.506   7.587 -0.2314  0.6315  0.4618
  377MOL0     N50811   4.816   1.149   7.972  0.0651 -0.1946 -0.6360
  377MOL0     N50812   4.881   1.238   7.902  0.4527  0.1810 -0.2454
  377MOL0     C50813   6.180   1.155   7.445  0.4032  0.0722  0.2123
  377MOL0     C50814   6.319   1.164   7.449 -0.0391  0.3468 -0.2826
  377MOL0     C50815   6.734   1.379   7.534  0.0304  0.0671 -0.6461
  377MOL0     C50816   6.806   1.481   7.598  0.3020  1.1739 -0.3445
  377MOL0     C50817   6.942   1.488   7.607  0.3789 -0.1649  0.2362
  377MOL0     C50818   7.019   1.400   7.530 -0.6882 -0.1313 -0.7833
  377MOL0     O50819   7.160   1.402   7.519  0.3883 -0.0900  0.1012
  377MOL0     C50820   7.231   1.469   7.624  0.7302 -0.1426 -0.5839
  377MOL0     C50821   7.368   1.401   7.641  0.3145  0.5329 -0.0874
  377MOL0     C50822   7.357   1.264   7.708  0.3742 -0.1579  0.1029
  377MOL0     C50823   7.492   1.202   7.715 -0.4870  0.1090  0.5798
  377MOL0     C50824   7.493   1.055   7.722  0.5702 -0.6371 -0.9191
  377MOL0     C50825   7.475   0.936   7.727 -0.3022  0.2399 -0.0662
  377MOL0     C50826   6.954   1.299   7.458  1.2293  0.1088 -0.5368
  377MOL0     C50827   6.816   1.285   7.464  0.8094 -0.0711 -0.3870
  377MOL0     H50828   6.366   1.500   7.416 -0.1681  0.3466 -1.8192
  377MOL0     H50829   6.118   1.490   7.393  0.6202 -0.5068 -0.0136
  377MOL0     H50830   5.888   1.100   7.470 -1.5352  0.3828 -2.6894
  377MOL0     H50831   5.924   1.240   7.591  0.9209  0.1133 -0.0745
  377MOL0     H50832   5.743   1.355   7.497  2.0708  0.3876 -0.8201
  377MOL0     H50833   5.712   1.229   7.380 -2.6538  0.1212  0.7958
  377MOL0     H50834   5.660   1.059   7.569 -0.5226  0.4293 -0.5519
  377MOL0     H50835   5.659   1.198   7.685 -1.2790 -0.0917  0.8238
  377MOL0     H50836   5.506   1.319   7.568 -3.1085  0.8076 -1.1579
  377MOL0     H50837   5.503   1.178   7.442  0.9523 -3.0213  0.7964
  377MOL0     H50838   5.394   1.034   7.596 -0.1725 -0.3375  0.6515
  377MOL0     H50839   5.430   1.163   7.717  1.1465  1.5945 -0.8152
  377MOL0     H50840   5.265   1.306   7.571  0.4285 -0.0513  0.9775
  377MOL0     H50841   5.224   1.136   7.502  3.2831 -0.7773 -0.3517
  377MOL0     H50842   5.149   1.057   7.681  0.9706 -0.0171 -0.2709
  377MOL0     H50843   5.217   1.175   7.792  2.1322 -2.9733 -0.4752
  377MOL0     H50844   4.979   1.224   7.600  1.8038  1.2852 -1.3005
  377MOL0     H50845   5.050   1.340   7.715 -1.1574 -0.4090 -1.6205
  377MOL0     H50846   4.946   0.955   7.741 -0.2869  2.0807 -2.4458
  377MOL0     H50847   4.873   0.826   7.978 -0.4686  0.3105 -0.1147
  377MOL0     H50848   4.757   0.905   8.077 -2.3668  0.5918 -0.4484
  377MOL0     H50849   4.718   0.780   7.798 -1.0130 -1.3509  0.7615
  377MOL0     H50850   4.603   0.902   7.852  1.1180 -0.3400 -0.9370
  377MOL0     H50851   4.604   0.740   8.071  0.1806  0.0368 -0.5645
  377MOL0     H50852   4.682   0.625   7.960  0.3345  0.5870  2.1031
  377MOL0     H50853   4.415   0.751   7.908  1.0379  0.6299  1.0733
  377MOL0     H50854   4.428   0.595   7.980  0.1145  0.4118 -0.4224
  377MOL0     H50855   4.223   0.647   7.820 -0.2805 -0.5626 -0.3965
  377MOL0     H50856   3.994   0.454   7.725  0.9950 -0.9292 -1.5257
  377MOL0     H50857   4.000   0.621   7.793 -0.0226  0.0227  0.9628
  377MOL0     H50858   3.956   0.598   7.624 -1.7000 -1.5519  0.9251
  377MOL0     H50859   4.160   0.405   7.091  0.0898  1.1529  0.4487
  377MOL0     H50860   3.981   0.324   6.913  1.2810 -1.0043  0.2829
  377MOL0     H50861   3.777  -0.026   7.017  0.2139  0.1300 -1.1067
  377MOL0     H50862   3.632   0.057   7.028  1.0438  2.0729  0.9245
  377MOL0     H50863   3.625  -0.081   6.812  2.0072 -1.1277 -1.0165
  377MOL0     H50864   3.616   0.094   6.781  0.6397  0.8208  0.5013
  377MOL0     H50865   3.851   0.097   6.710  0.9658 -0.5409  0.5480
  377MOL0     H50866   3.779  -0.045   6.624  2.7957 -0.8687 -0.5061
  377MOL0     H50867   3.962  -0.030   6.867  0.1286  0.9264 -0.4935
  377MOL0     H50868   3.852  -0.170   6.848  1.6106 -1.1054 -1.2433
  377MOL0     H50869   4.024  -0.070   6.622 -0.1221  0.1847  1.2735
  377MOL0     H50870   3.957  -0.226   6.648 -0.5359  1.2034 -2.3426
  377MOL0     H50871   4.153  -0.114   6.842 -2.1407  4.4748 -2.5391
  377MOL0     H50872   4.105  -0.285   6.825 -2.1644 -0.5090 -1.9467
  377MOL0     H50873   4.271  -0.129   6.625 -0.0373  0.3249 -0.1321
  377MOL0     H50874   4.183  -0.284   6.598  1.8669 -2.7570  0.9084
  377MOL0     H50875   4.326  -0.392   6.780  1.5765  1.1059  3.8061
  377MOL0     H50876   4.401  -0.227   6.785 -0.1200 -0.4265 -0.8991
  377MOL0     H50877   3.755   0.122   7.207 -0.5895  0.4270 -0.7332
  377MOL0     H50878   3.933   0.170   7.379 -1.3186  1.8333 -0.1526
  377MOL0     H50879   4.365   0.415   7.410  1.8676  2.2375 -0.3028
  377MOL0     H50880   4.531   0.499   7.554 -1.3086 -0.7447 -3.1514
  377MOL0     H50881   6.132   1.058   7.457 -0.4888  0.7834  3.5457
  377MOL0     H50882   6.366   1.069   7.469 -2.1992 -0.3684  1.9014
  377MOL0     H50883   6.759   1.554   7.663 -2.4183 -1.7002  1.1926
  377MOL0     H50884   6.984   1.577   7.653 -1.9256  0.9548  0.3237
  377MOL0     H50885   7.248   1.573   7.595  3.2006 -0.2651  0.1752
  377MOL0     H50886   7.179   1.470   7.720  1.6803  2.0873 -0.0339
  377MOL0     H50887   7.437   1.458   7.704  2.2525  0.4955 -2.0577
  377MOL0     H50888   7.423   1.396   7.547  1.9421  3.2462  0.5946
  377MOL0     H50889   7.291   1.205   7.643  2.0715 -5.0023  2.3120
  377MOL0     H50890   7.297   1.270   7.799 -4.3264  1.1420 -2.6975
  377MOL0     H50891   7.540   1.240   7.806  1.6267 -1.0661  0.0067
  377MOL0     H50892   7.554   1.229   7.629 -0.4353  0.9849  0.8717
  377MOL0     H50893   7.459   0.831   7.738  2.5395 -0.3969 -1.0710
  377MOL0     H50894   7.011   1.225   7.403  0.0115 -1.4835  0.2530
  377MOL0     H50895   6.778   1.195   7.418  2.8709 -0.7677 -0.8267
  378MOL0     O50896   7.561   1.848   9.428 -0.2955  0.2647  0.2219
  378MOL0     C50897   7.667   1.893   9.466 -0.2294 -0.6215 -0.2537
  378MOL0     O50898   7.705   2.037   9.459 -0.4943  1.1637  0.3533
  378MOL0     C50899   7.632   2.135   9.399  0.2118  0.4694  0.4110
  378MOL0     C50900   7.542   2.111   9.295  0.9725  0.2137 -0.5248
  378MOL0     C50901   7.492   2.218   9.220  0.6172  0.6492 -0.3963
  378MOL0     C50902   7.516   2.351   9.251  0.2495  0.8662 -0.5119
  378MOL0     O50903   7.448   2.452   9.193  1.0979  0.4319 -0.4161
  378MOL0     C50904   7.306   2.438   9.178 -0.2454  0.0898 -1.0346
  378MOL0     C50905   7.255   2.530   9.068  0.0122 -0.6792 -0.1135
  378MOL0     C50906   7.104   2.527   9.041  0.4949 -0.4978 -0.3810
  378MOL0     C50907   7.054   2.644   8.943 -0.3750  0.3551 -0.4041
  378MOL0     C50908   6.906   2.628   8.924  0.7366  0.4706  0.8101
  378MOL0     C50909   6.856   2.739   8.823 -0.2472  0.8510  0.3948
  378MOL0     C50910   6.718   2.698   8.767 -0.0484  0.4772  0.3573
  378MOL0     C50911   6.605   2.722   8.867  0.3478 -0.1559  0.2508
  378MOL0     N50912   6.469   2.709   8.806 -0.3268 -0.1276 -0.4804
  378MOL0     C50913   6.356   2.666   8.873 -0.1338  0.2347 -0.4215
  378MOL0     C50914   6.277   2.610   8.782 -0.3070  0.5057  0.1444
  378MOL0     C50915   6.141   2.558   8.823 -0.9157  0.5268 -0.2297
  378MOL0     C50916   6.039   2.652   8.774  0.8361 -0.7696  0.7890
  378MOL0     C50917   5.904   2.596   8.801 -0.5040  0.3312 -0.2467
  378MOL0     C50918   5.790   2.691   8.767 -0.0850 -0.1148  0.2451
  378MOL0     O50919   5.667   2.624   8.809 -0.0691 -0.8399  0.3601
  378MOL0     C50920   5.547   2.689   8.795 -0.2955 -0.6110  0.5402
  378MOL0     C50921   5.523   2.799   8.709  0.5441  0.5144 -0.2569
  378MOL0     C50922   5.393   2.859   8.698 -0.5362 -0.1475 -0.7438
  378MOL0     C50923   5.385   2.984   8.607 -0.5952  0.2034  0.6455
  378MOL0     C50924   5.284   2.791   8.765 -0.9795  0.2024 -0.4179
  378MOL0     C50925   5.144   2.831   8.751 -0.6723  0.4467  0.4291
  378MOL0     O50926   5.068   2.800   8.855  0.0912  0.2875  0.0736
  378MOL0     C50927   4.934   2.823   8.848 -0.4270  0.0727  0.1468
  378MOL0     C50928   4.868   2.934   8.799  0.9888  0.0783  0.0255
  378MOL0     C50929   4.730   2.943   8.800  1.0828 -0.2981 -0.1280
  378MOL0     C50930   4.653   2.842   8.847 -0.0762 -0.0008  0.4259
  378MOL0     O50931   4.520   2.866   8.841 -0.0859 -0.2567  0.0755
  378MOL0     C50932   4.431   2.762   8.897 -0.2878 -0.4339 -0.0105
  378MOL0     C50933   4.278   2.798   8.879 -0.4885  0.4624 -0.2329
  378MOL0     C50934   4.196   2.691   8.947  0.2690  0.6959 -1.1265
  378MOL0     C50935   4.050   2.701   8.922  0.4571  0.2579  0.1935
  378MOL0     C50936   3.966   2.590   8.984 -0.1051  0.2935 -0.6613
  378MOL0     C50937   3.830   2.606   8.942  0.9374 -0.2177 -0.0125
  378MOL0     C50938   3.759   2.737   8.976 -0.0002 -0.0755  0.3220
  378MOL0     C50939   3.612   2.726   8.962  0.7101 -0.0602  0.8039
  378MOL0    Cl50940   3.538   2.651   9.107  0.3027 -0.8530 -0.1131
  378MOL0     C50941   4.715   2.733   8.897 -0.3704 -0.4125 -0.4513
  378MOL0     C50942   4.854   2.714   8.888 -0.1921 -0.4135  0.9593
  378MOL0     O50943   5.107   2.876   8.642  0.4256 -0.0021  0.0872
  378MOL0     C50944   5.313   2.686   8.857 -0.4597  1.1990  0.0354
  378MOL0     C50945   5.444   2.639   8.864  0.2159 -0.2194 -0.2482
  378MOL0     N50946   6.325   2.639   8.660 -0.4552  0.2471 -0.9856
  378MOL0     N50947   6.441   2.690   8.674 -0.1552 -0.2605  0.3522
  378MOL0     C50948   7.611   2.371   9.354  0.0843  0.4565 -0.1380
  378MOL0     C50949   7.668   2.269   9.422 -0.3110  0.3834 -0.0842
  378MOL0     C50950   7.763   1.802   9.529 -0.2184  0.2756  0.0751
  378MOL0     C50951   7.716   1.673   9.575 -0.9531 -0.5221 -0.0984
  378MOL0     C50952   7.822   1.583   9.614 -0.3216  0.1255  0.7647
  378MOL0     C50953   7.961   1.623   9.627  0.2126 -0.4961  0.3109
  378MOL0     O50954   8.046   1.529   9.679 -0.2660 -0.4559 -0.1361
  378MOL0     C50955   8.176   1.572   9.728  0.8893 -1.0155  0.7736
  378MOL0     C50956   8.242   1.476   9.818  0.2311  0.2413  0.2547
  378MOL0     C50957   8.274   1.348   9.749 -0.3161  0.9541  0.2660
  378MOL0     C50958   8.358   1.354   9.623 -0.0192 -0.0600 -0.4493
  378MOL0     C50959   8.498   1.375   9.651 -0.0647  0.3812  0.0145
  378MOL0     C50960   8.615   1.391   9.667 -0.2394 -0.5208  0.5491
  378MOL0     C50961   7.996   1.759   9.603 -0.6156 -0.0323  0.4575
  378MOL0     C50962   7.897   1.846   9.559  0.4647  0.0436  0.7270
  378MOL0     H50963   7.515   2.009   9.272  2.0776  0.0845 -1.3302
  378MOL0     H50964   7.411   2.187   9.155 -0.3591 -1.8526  1.8333
  378MOL0     H50965   7.265   2.337   9.168  1.5958 -0.5348 -3.1084
  378MOL0     H50966   7.258   2.467   9.271  0.2687 -3.0824  0.3555
  378MOL0     H50967   7.283   2.631   9.099  1.9909 -1.1393 -0.2227
  378MOL0     H50968   7.312   2.511   8.977  2.1026  0.2594  0.9302
  378MOL0     H50969   7.078   2.435   8.987 -1.1177  0.7329 -1.7927
  378MOL0     H50970   7.046   2.541   9.133  0.6507 -0.9660 -0.2057
  378MOL0     H50971   7.073   2.742   8.988  1.0799  0.3391 -0.9228
  378MOL0     H50972   7.105   2.631   8.847  1.7580  0.0075  0.7049
  378MOL0     H50973   6.877   2.528   8.891 -1.8954  2.1916 -2.8167
  378MOL0     H50974   6.864   2.648   9.022  2.4213  4.0528  0.9784
  378MOL0     H50975   6.865   2.839   8.866  0.9228  1.8100 -1.9165
  378MOL0     H50976   6.929   2.741   8.742  1.0266  0.5310  1.5058
  378MOL0     H50977   6.687   2.765   8.686 -1.6505  1.0029  1.3687
  378MOL0     H50978   6.713   2.595   8.731 -0.8392  0.3118  0.9266
  378MOL0     H50979   6.618   2.815   8.924  3.2854 -0.3384  0.0390
  378MOL0     H50980   6.614   2.650   8.948 -2.0437 -1.2049 -0.3232
  378MOL0     H50981   6.342   2.656   8.980 -0.6469 -0.4985 -0.5550
  378MOL0     H50982   6.131   2.454   8.789  1.3340 -0.9967  3.1804
  378MOL0     H50983   6.149   2.553   8.932 -2.7496  1.2340 -0.0195
  378MOL0     H50984   6.047   2.656   8.665  0.9917 -0.0412  0.8191
  378MOL0     H50985   6.060   2.751   8.816  1.4735 -0.6568  0.2316
  378MOL0     H50986   5.897   2.578   8.908  0.4382 -0.0553 -0.2433
  378MOL0     H50987   5.889   2.504   8.743 -0.7141  1.1946 -1.6006
  378MOL0     H50988   5.784   2.712   8.660  2.9151  1.7184  0.2954
  378MOL0     H50989   5.808   2.789   8.813  0.3335  0.6495 -1.4693
  378MOL0     H50990   5.609   2.845   8.661  0.6331 -0.7065 -1.3136
  378MOL0     H50991   5.481   3.001   8.557 -1.0763 -1.1033 -0.8045
  378MOL0     H50992   5.325   2.956   8.520  1.6855 -2.5683 -0.2046
  378MOL0     H50993   5.341   3.070   8.659 -2.6995 -1.4394  1.7220
  378MOL0     H50994   4.943   3.005   8.769  2.7709 -1.9062 -0.4547
  378MOL0     H50995   4.679   3.031   8.761  0.5798 -1.2668 -1.7548
  378MOL0     H50996   4.450   2.671   8.839 -0.6368  0.8487 -2.2633
  378MOL0     H50997   4.452   2.751   9.004  2.9996 -2.6352 -0.7239
  378MOL0     H50998   4.262   2.890   8.936 -1.3252 -2.8858  5.7709
  378MOL0     H50999   4.264   2.804   8.771  1.6641  0.3433 -0.5606
  378MOL0     H51000   4.212   2.699   9.055 -0.0710  1.5808 -1.1338
  378MOL0     H51001   4.238   2.596   8.913  1.8746  0.7162  0.6178
  378MOL0     H51002   4.016   2.799   8.957  0.1786 -0.1282  1.0079
  378MOL0     H51003   4.027   2.693   8.815  1.1247 -2.7292  0.2096
  378MOL0     H51004   3.969   2.606   9.092  1.4518 -2.6531 -0.1727
  378MOL0     H51005   4.003   2.490   8.962  2.7120  0.9913  0.4063
  378MOL0     H51006   3.829   2.593   8.833  0.5172  1.3188 -0.2022
  378MOL0     H51007   3.773   2.521   8.981 -0.1471  0.5224  0.0578
  378MOL0     H51008   3.788   2.814   8.903  0.1776 -0.1479  0.3159
  378MOL0     H51009   3.790   2.766   9.076  2.9548  0.7748 -0.7261
  378MOL0     H51010   3.580   2.677   8.869  2.7606  0.6165 -0.3190
  378MOL0     H51011   3.579   2.829   8.950 -0.5761 -0.4253  1.0639
  378MOL0     H51012   4.663   2.650   8.945  0.9143 -1.0977 -0.2145
  378MOL0     H51013   4.913   2.625   8.905 -1.2695 -2.1777 -3.2754
  378MOL0     H51014   5.238   2.641   8.921  0.5598  0.3064  0.6442
  378MOL0     H51015   5.460   2.564   8.941  3.9189  2.0375  1.4534
  378MOL0     H51016   7.644   2.468   9.392 -1.0607  1.0692 -0.6552
  378MOL0     H51017   7.740   2.293   9.500  0.3046 -4.0182  0.9968
  378MOL0     H51018   7.611   1.645   9.580 -1.3339  0.1239 -2.7911
  378MOL0     H51019   7.792   1.481   9.636  1.2765 -0.3366  0.9406
  378MOL0     H51020   8.229   1.597   9.636 -1.5049  0.4314 -0.3117
  378MOL0     H51021   8.171   1.661   9.791  2.9325 -1.0062  0.9763
  378MOL0     H51022   8.183   1.459   9.908  0.6865  1.5911  0.8257
  378MOL0     H51023   8.333   1.527   9.851  1.4229 -2.4763  1.5282
  378MOL0     H51024   8.181   1.294   9.726  1.1813 -2.2381  1.2305
  378MOL0     H51025   8.325   1.288   9.825 -1.9436 -0.6987  0.1438
  378MOL0     H51026   8.320   1.430   9.555 -1.0253  0.8346  1.0526
  378MOL0     H51027   8.347   1.258   9.572  2.9907  0.2532 -1.9317
  378MOL0     H51028   8.720   1.410   9.681 -0.3865  2.4324 -1.4258
  378MOL0     H51029   8.101   1.781   9.625 -0.6733 -2.0643  3.3750
  378MOL0     H51030   7.922   1.951   9.551 -0.2447  0.2176  0.7260
  379MOL0     O51031   0.979   7.498   7.236  0.8258 -0.4013 -0.0829
  379MOL0     C51032   1.000   7.513   7.355  0.0043 -0.8471 -0.4115
  379MOL0     O51033   0.902   7.512   7.460 -0.5371 -0.2279 -0.2202
  379MOL0     C51034   0.766   7.492   7.431 -0.0211 -0.3659  0.1705
  379MOL0     C51035   0.659   7.557   7.500  0.2526  0.0226  0.6909
  379MOL0     C51036   0.523   7.530   7.476 -0.1539 -0.0947 -1.1845
  379MOL0     C51037   0.488   7.447   7.370 -0.4864 -0.0920  0.8601
  379MOL0     O51038   0.350   7.421   7.345 -0.1750  0.5504  0.5385
  379MOL0     C51039   0.321   7.377   7.206 -0.3197  0.9905 -0.5165
  379MOL0     C51040   0.170   7.351   7.189  0.2162  0.0314 -0.2107
  379MOL0     C51041   0.073   7.472   7.197  0.7685 -0.3035 -0.0485
  379MOL0     C51042  -0.078   7.418   7.193  0.2153  0.2115  0.0093
  379MOL0     C51043  -0.116   7.357   7.057 -0.0219 -0.5050 -0.6369
  379MOL0     C51044  -0.269   7.304   7.048  0.5253  0.2135 -0.3867
  379MOL0     C51045  -0.317   7.208   7.164 -0.6723 -0.5215 -0.2673
  379MOL0     C51046  -0.465   7.179   7.147  0.3918  0.1293  0.1960
  379MOL0     N51047  -0.521   7.104   7.257  0.2342 -0.9461 -0.5996
  379MOL0     C51048  -0.493   6.979   7.311 -0.0012 -0.2185  0.6923
  379MOL0     C51049  -0.581   6.969   7.414 -0.2984 -0.3181  0.0266
  379MOL0     C51050  -0.593   6.831   7.487 -0.0174  0.0841  0.7764
  379MOL0     C51051  -0.736   6.762   7.461 -1.1611 -0.1745  1.0485
  379MOL0     C51052  -0.753   6.644   7.555  0.8841  0.3093  0.1493
  379MOL0     C51053  -0.883   6.582   7.508 -0.4649  0.1853 -0.3535
  379MOL0     O51054  -0.901   6.449   7.563 -0.2109  0.2982  0.4621
  379MOL0     C51055  -1.014   6.385   7.542  0.5343  0.1704 -0.3039
  379MOL0     C51056  -1.043   6.279   7.629 -0.5144 -0.2092 -0.3532
  379MOL0     C51057  -1.155   6.197   7.606  0.2521  1.2216 -0.5885
  379MOL0     C51058  -1.163   6.085   7.706 -0.9824  0.3421 -0.0055
  379MOL0     C51059  -1.238   6.215   7.494  0.0960 -0.2166 -0.2466
  379MOL0     C51060  -1.349   6.126   7.446  0.8251 -1.1621 -0.1774
  379MOL0     O51061  -1.398   6.020   7.512 -0.1382  0.4583  0.3670
  379MOL0     C51062  -1.495   5.940   7.459 -0.3717  0.2424  0.1005
  379MOL0     C51063  -1.488   5.868   7.333  1.2852 -0.7693 -0.0808
  379MOL0     C51064  -1.607   5.802   7.294  0.0597  1.0487 -0.9992
  379MOL0     C51065  -1.725   5.808   7.361 -0.4165  0.3699 -0.3942
  379MOL0     O51066  -1.852   5.750   7.321 -0.1528  0.4745  0.0876
  379MOL0     C51067  -1.855   5.683   7.188  0.5662 -0.0083  0.5546
  379MOL0     C51068  -1.999   5.626   7.163  1.0175  0.1399 -0.3584
  379MOL0     C51069  -2.105   5.746   7.143  0.6671 -0.2189 -0.2037
  379MOL0     C51070  -2.251   5.710   7.096 -0.5763 -0.0723 -0.5833
  379MOL0     C51071  -2.318   5.836   7.054 -0.4212  0.4027 -0.6106
  379MOL0     C51072  -2.469   5.819   7.016 -0.1960  0.4943 -0.2133
  379MOL0     C51073  -2.524   5.946   6.960 -0.1827 -0.0164 -0.0626
  379MOL0     C51074  -2.670   5.921   6.925 -0.2364  0.5560  0.5522
  379MOL0    Cl51075  -2.671   5.853   6.762 -0.2154  0.3032 -0.0086
  379MOL0     C51076  -1.728   5.866   7.489 -0.2169 -0.3754  0.8954
  379MOL0     C51077  -1.610   5.934   7.535 -0.0035 -0.6567  0.5591
  379MOL0     O51078  -1.406   6.166   7.346 -0.9944 -0.0832  0.2454
  379MOL0     C51079  -1.219   6.341   7.428  0.5155  0.2292  0.1816
  379MOL0     C51080  -1.108   6.416   7.444  0.5342 -0.5736  0.7670
  379MOL0     N51081  -0.661   7.079   7.417  0.0862  0.1786  0.2261
  379MOL0     N51082  -0.629   7.161   7.321  0.2456 -0.3450 -0.1924
  379MOL0     C51083   0.593   7.382   7.296  0.0157  0.6491  0.0423
  379MOL0     C51084   0.737   7.399   7.321  0.7842  1.2219 -0.1900
  379MOL0     C51085   1.143   7.553   7.387 -0.7383 -1.0673 -0.1491
  379MOL0     C51086   1.178   7.591   7.518  0.5676  0.2317  0.4023
  379MOL0     C51087   1.311   7.628   7.548 -0.2938  0.6492  0.6885
  379MOL0     C51088   1.407   7.648   7.440  0.3669  0.9241  0.0314
  379MOL0     O51089   1.538   7.679   7.446  0.3509  0.0557  1.1092
  379MOL0     C51090   1.601   7.705   7.563  0.0568 -0.2876  0.8720
  379MOL0     C51091   1.728   7.794   7.548  0.5538  0.4042  0.5279
  379MOL0     C51092   1.849   7.699   7.507  0.1452  0.8400 -0.4559
  379MOL0     C51093   1.842   7.668   7.355 -0.4840 -0.5837  0.2631
  379MOL0     C51094   1.962   7.589   7.322  0.6535 -0.0340 -0.0184
  379MOL0     C51095   2.061   7.517   7.294 -0.4149 -0.5154 -0.3128
  379MOL0     C51096   1.375   7.605   7.319  0.3378  0.0133  0.0164
  379MOL0     C51097   1.249   7.552   7.295 -0.4058  0.2436 -0.1401
  379MOL0     H51098   0.685   7.625   7.581  0.9587 -0.5243  0.9358
  379MOL0     H51099   0.446   7.579   7.534  0.0048 -1.7007  0.4771
  379MOL0     H51100   0.355   7.444   7.127  0.9603  0.1886 -0.6874
  379MOL0     H51101   0.359   7.276   7.186 -1.3849  0.0454  1.8380
  379MOL0     H51102   0.159   7.309   7.089  3.3699  1.6642 -1.4085
  379MOL0     H51103   0.143   7.272   7.259  2.8550  0.7047  1.7232
  379MOL0     H51104   0.081   7.541   7.281  2.6149  1.1260 -1.2991
  379MOL0     H51105   0.077   7.532   7.106 -2.3519  0.0125 -0.0867
  379MOL0     H51106  -0.100   7.334   7.259 -1.1068 -0.8358 -1.6753
  379MOL0     H51107  -0.155   7.491   7.220 -0.9492 -1.5635  1.7080
  379MOL0     H51108  -0.096   7.435   6.984  5.9470  0.5790  1.5134
  379MOL0     H51109  -0.054   7.270   7.033  0.0438 -0.1482 -1.8023
  379MOL0     H51110  -0.337   7.389   7.050 -1.5752 -1.4064 -0.2640
  379MOL0     H51111  -0.283   7.251   6.953 -1.2687  0.2163 -0.1502
  379MOL0     H51112  -0.263   7.114   7.157  1.5603  0.5752  1.0390
  379MOL0     H51113  -0.303   7.260   7.260 -0.6273  2.5653 -1.7963
  379MOL0     H51114  -0.474   7.116   7.058  0.5146  0.1647  0.1586
  379MOL0     H51115  -0.526   7.269   7.143 -1.0178 -0.7651  0.9643
  379MOL0     H51116  -0.427   6.903   7.272  0.5162  1.1587 -1.2823
  379MOL0     H51117  -0.516   6.770   7.439 -0.8939  0.3984 -1.1276
  379MOL0     H51118  -0.569   6.838   7.593  1.7631 -1.3714  0.5161
  379MOL0     H51119  -0.724   6.720   7.361  2.8043 -0.6891  1.5852
  379MOL0     H51120  -0.823   6.827   7.475 -1.9011 -0.9978  0.4264
  379MOL0     H51121  -0.760   6.671   7.660 -1.9740  3.7414 -0.7413
  379MOL0     H51122  -0.669   6.577   7.533  0.9910  0.8946 -1.3401
  379MOL0     H51123  -0.904   6.585   7.400 -0.6877 -0.1925 -0.3235
  379MOL0     H51124  -0.963   6.641   7.554  0.8009  3.3021 -1.8184
  379MOL0     H51125  -0.963   6.255   7.698 -1.7719 -1.8395  0.6177
  379MOL0     H51126  -1.212   6.119   7.798 -2.2102 -0.5268 -0.3184
  379MOL0     H51127  -1.224   6.004   7.665  0.2019 -0.2427 -0.6740
  379MOL0     H51128  -1.062   6.049   7.731 -0.8873  0.2230 -0.5412
  379MOL0     H51129  -1.393   5.862   7.281  2.6821 -2.5089  2.4194
  379MOL0     H51130  -1.605   5.743   7.203 -5.3482  0.2182 -0.8958
  379MOL0     H51131  -1.844   5.757   7.108  1.4827 -3.5225 -2.8738
  379MOL0     H51132  -1.780   5.605   7.174  1.2717  0.3479  2.1611
  379MOL0     H51133  -1.993   5.584   7.062  1.4387  2.3669 -1.3005
  379MOL0     H51134  -2.035   5.555   7.238 -0.9234 -0.2388 -1.5560
  379MOL0     H51135  -2.061   5.817   7.071  0.2572  1.2541  0.9568
  379MOL0     H51136  -2.114   5.799   7.238  0.9656  0.3207 -0.4731
  379MOL0     H51137  -2.257   5.640   7.012  1.2903  0.7073 -1.4187
  379MOL0     H51138  -2.308   5.667   7.180  1.7789 -2.3277 -0.0027
  379MOL0     H51139  -2.258   5.871   6.970  1.1835 -1.0255 -0.1220
  379MOL0     H51140  -2.321   5.917   7.127  0.1670  1.2520 -1.4953
  379MOL0     H51141  -2.470   5.752   6.930  2.1140 -0.9419  0.7857
  379MOL0     H51142  -2.533   5.785   7.098  1.8753 -0.0942  1.2498
  379MOL0     H51143  -2.467   5.982   6.874 -1.7561 -0.0622 -1.1789
  379MOL0     H51144  -2.515   6.022   7.039 -0.6821  2.1630 -1.9959
  379MOL0     H51145  -2.726   6.016   6.919  1.9107  2.4051  5.2608
  379MOL0     H51146  -2.724   5.857   6.996  2.7346 -1.8956  0.7932
  379MOL0     H51147  -1.815   5.874   7.554 -0.4251 -3.0448  1.0609
  379MOL0     H51148  -1.609   5.988   7.629 -0.7649  0.8812 -0.2677
  379MOL0     H51149  -1.285   6.377   7.350  0.0844 -0.1403  0.3694
  379MOL0     H51150  -1.083   6.494   7.372 -0.7859 -0.4449  0.4141
  379MOL0     H51151   0.569   7.306   7.222  0.2967 -0.4664  1.0727
  379MOL0     H51152   0.818   7.340   7.280  0.1672  0.1972  0.0160
  379MOL0     H51153   1.094   7.579   7.586 -1.5488  0.5574 -1.9675
  379MOL0     H51154   1.335   7.652   7.652  0.7924 -2.3188  1.2250
  379MOL0     H51155   1.533   7.772   7.616 -0.3245  2.4860 -2.6839
  379MOL0     H51156   1.611   7.611   7.618 -1.1054  0.1741  1.9399
  379MOL0     H51157   1.756   7.836   7.645  1.5439  0.7377  0.1095
  379MOL0     H51158   1.713   7.876   7.478  1.2827 -2.3625 -3.1674
  379MOL0     H51159   1.853   7.610   7.571 -0.2138  0.9785 -0.2368
  379MOL0     H51160   1.941   7.751   7.533 -0.8517  2.4736 -0.0595
  379MOL0     H51161   1.853   7.761   7.298  1.8823  0.0138  1.5906
  379MOL0     H51162   1.749   7.616   7.329 -0.4218 -2.2256  2.9916
  379MOL0     H51163   2.145   7.453   7.282 -1.0183 -1.6975  1.3648
  379MOL0     H51164   1.445   7.625   7.239 -0.4557  0.3530 -0.6167
  379MOL0     H51165   1.219   7.512   7.198 -0.3939  1.8668 -0.8532
  380MOL0     O51166   0.534   5.729  10.657  0.8204 -0.4806 -0.1404
  380MOL0     C51167   0.530   5.603  10.650 -0.0584  0.5604 -0.3553
  380MOL0     O51168   0.607   5.526  10.573  0.1718  0.4046  0.1108
  380MOL0     C51169   0.717   5.572  10.510  0.1143  0.1290 -0.5260
  380MOL0     C51170   0.736   5.562  10.372  0.5122  0.1920  0.4942
  380MOL0     C51171   0.856   5.609  10.317 -0.4506  0.4242  0.1713
  380MOL0     C51172   0.963   5.659  10.397 -0.0026 -0.5737 -0.4535
  380MOL0     O51173   1.085   5.710  10.354  0.0386 -0.7793 -0.2468
  380MOL0     C51174   1.119   5.678  10.217 -0.0953 -0.0092 -0.3703
  380MOL0     C51175   1.274   5.688  10.219 -0.2129  0.0071 -0.8745
  380MOL0     C51176   1.342   5.662  10.080  0.5523 -0.0583  0.6210
  380MOL0     C51177   1.484   5.697  10.095 -0.4683 -0.0786 -0.1566
  380MOL0     C51178   1.580   5.684   9.977 -0.4967  0.2105 -0.2036
  380MOL0     C51179   1.531   5.763   9.853 -0.4330 -0.0646  0.0527
  380MOL0     C51180   1.634   5.757   9.731  0.6453 -0.4901  0.5506
  380MOL0     C51181   1.585   5.827   9.602 -0.5612 -0.4813  0.3132
  380MOL0     N51182   1.484   5.753   9.523 -0.2079 -0.0958  0.2504
  380MOL0     C51183   1.509   5.658   9.420 -0.4049 -1.1947  0.1576
  380MOL0     C51184   1.392   5.609   9.382  0.0843 -0.4581 -0.3528
  380MOL0     C51185   1.363   5.517   9.274  0.2647 -0.2198 -0.6260
  380MOL0     C51186   1.330   5.582   9.140  0.0534  0.2884 -0.0317
  380MOL0     C51187   1.259   5.478   9.052  0.0247 -0.2457  0.2168
  380MOL0     C51188   1.104   5.494   9.054  0.2557  0.5553  0.4564
  380MOL0     O51189   1.038   5.381   8.990  0.3225 -0.1763  0.3477
  380MOL0     C51190   0.900   5.391   8.991  0.0356  0.5224  0.5284
  380MOL0     C51191   0.832   5.285   8.922  0.0131 -0.3314  0.0719
  380MOL0     C51192   0.691   5.272   8.917  0.4657  0.2511  0.3321
  380MOL0     C51193   0.645   5.149   8.842  0.6872  0.2056 -0.6208
  380MOL0     C51194   0.609   5.367   8.985  0.9432 -0.5453  0.1239
  380MOL0     C51195   0.462   5.365   8.985  0.0002  0.0488  0.4149
  380MOL0     O51196   0.401   5.456   9.060 -0.3199  0.1745 -0.3931
  380MOL0     C51197   0.273   5.429   9.102 -0.1822 -0.8043  0.1481
  380MOL0     C51198   0.251   5.335   9.205  0.8486 -0.1985  0.0907
  380MOL0     C51199   0.117   5.312   9.252  0.7161  0.0098 -0.1507
  380MOL0     C51200   0.007   5.365   9.191  0.3120  0.4761 -0.6300
  380MOL0     O51201  -0.122   5.321   9.211  0.3308 -0.3894  0.2844
  380MOL0     C51202  -0.150   5.203   9.286 -0.0004  0.2037 -0.4862
  380MOL0     C51203  -0.303   5.182   9.289 -0.2793  0.0350 -0.8481
  380MOL0     C51204  -0.329   5.069   9.389  0.0258 -0.1076 -0.5402
  380MOL0     C51205  -0.477   5.023   9.393  0.2001  0.5774 -0.3378
  380MOL0     C51206  -0.562   5.137   9.452  0.1620  0.1002  0.2594
  380MOL0     C51207  -0.711   5.114   9.425  0.5667 -0.9430 -0.5920
  380MOL0     C51208  -0.768   4.981   9.455  0.1255 -0.2371  1.0581
  380MOL0     C51209  -0.917   4.973   9.466 -0.2797  0.4067 -0.6738
  380MOL0    Cl51210  -0.988   5.069   9.329 -0.0595 -0.0968  0.1323
  380MOL0     C51211   0.030   5.460   9.089 -0.7761  0.2482  0.3946
  380MOL0     C51212   0.165   5.497   9.064  0.4988 -0.5124 -0.0628
  380MOL0     O51213   0.396   5.291   8.903 -0.8450 -0.0578 -1.0871
  380MOL0     C51214   0.679   5.473   9.055  0.1549  0.6514 -0.0391
  380MOL0     C51215   0.824   5.482   9.059  0.6501 -0.4695  0.2988
  380MOL0     N51216   1.296   5.681   9.453  0.2755  0.4055  0.2284
  380MOL0     N51217   1.350   5.754   9.539 -0.3172 -0.2573  0.5860
  380MOL0     C51218   0.938   5.658  10.539 -0.5119  0.2358 -0.2113
  380MOL0     C51219   0.816   5.617  10.597  0.2590  0.5988  0.1798
  380MOL0     C51220   0.402   5.536  10.705 -0.7715 -1.0776  0.2373
  380MOL0     C51221   0.379   5.395  10.703  0.1920 -0.0293  0.6294
  380MOL0     C51222   0.268   5.342  10.763  0.1511 -0.0818 -0.2999
  380MOL0     C51223   0.161   5.415  10.806 -0.2291  0.3300  0.0983
  380MOL0     O51224   0.045   5.356  10.844 -0.0954 -0.1873 -0.5066
  380MOL0     C51225   0.003   5.228  10.807 -0.3931  0.7916 -0.2554
  380MOL0     C51226  -0.155   5.213  10.823 -0.6247 -0.0865  0.7212
  380MOL0     C51227  -0.243   5.303  10.739 -0.2616  0.7319 -0.1415
  380MOL0     C51228  -0.279   5.431  10.808 -0.0403 -1.3824  0.6622
  380MOL0     C51229  -0.392   5.485  10.734  0.3917 -1.5486  0.3329
  380MOL0     C51230  -0.484   5.517  10.669 -0.4849 -0.7437 -0.3362
  380MOL0     C51231   0.177   5.552  10.803  0.6851  0.2635  0.2129
  380MOL0     C51232   0.294   5.613  10.757 -0.9029 -0.1482  0.5285
  380MOL0     H51233   0.655   5.523  10.310  1.3160  1.2841 -1.3336
  380MOL0     H51234   0.869   5.615  10.209 -1.1013 -2.2099 -0.1301
  380MOL0     H51235   1.093   5.580  10.176  0.5213 -1.3557  2.2873
  380MOL0     H51236   1.073   5.759  10.160 -0.2938  0.9796  1.1385
  380MOL0     H51237   1.306   5.788  10.252  4.6435 -1.7757  0.8503
  380MOL0     H51238   1.316   5.617  10.291 -1.4260 -0.7254 -0.8731
  380MOL0     H51239   1.336   5.556  10.053  3.1174 -0.0760 -0.1303
  380MOL0     H51240   1.296   5.705   9.990 -1.5121 -1.5765  0.8724
  380MOL0     H51241   1.500   5.798  10.134  2.1324 -1.7326  3.7715
  380MOL0     H51242   1.527   5.626  10.167 -0.9180 -1.5856 -1.3292
  380MOL0     H51243   1.680   5.720  10.003 -0.5201 -1.0931  1.9741
  380MOL0     H51244   1.584   5.577   9.955 -0.2622  0.0038  0.8068
  380MOL0     H51245   1.433   5.728   9.819  0.3943 -0.2925 -2.2510
  380MOL0     H51246   1.518   5.869   9.876 -0.4699  1.0019 -4.0653
  380MOL0     H51247   1.721   5.806   9.774 -0.2865  1.4204  0.3412
  380MOL0     H51248   1.662   5.654   9.706  2.0254 -0.5150  2.0484
  380MOL0     H51249   1.670   5.846   9.536  1.1453 -2.4912  1.7884
  380MOL0     H51250   1.533   5.911   9.648  2.0991  1.2379  0.3300
  380MOL0     H51251   1.614   5.643   9.393  0.5508  1.0411  2.1947
  380MOL0     H51252   1.445   5.448   9.252 -0.0320 -1.1554  1.0478
  380MOL0     H51253   1.274   5.460   9.304  0.6596 -1.2087 -1.2575
  380MOL0     H51254   1.427   5.612   9.099 -1.2061  1.7119 -2.1952
  380MOL0     H51255   1.278   5.678   9.140  1.3428  1.0656  2.4031
  380MOL0     H51256   1.275   5.378   9.092  2.3101 -1.3812 -3.0611
  380MOL0     H51257   1.290   5.483   8.947  1.7127 -2.1132  0.5602
  380MOL0     H51258   1.089   5.595   9.015  2.6047  1.1150  0.8342
  380MOL0     H51259   1.075   5.490   9.160  3.2184  1.7297  1.4262
  380MOL0     H51260   0.892   5.208   8.876  1.2030  2.2719 -3.1045
  380MOL0     H51261   0.549   5.113   8.882  0.2379  1.0872 -0.8638
  380MOL0     H51262   0.649   5.160   8.733 -2.5553  1.1353 -0.7673
  380MOL0     H51263   0.712   5.065   8.857 -2.0350 -2.0640 -0.3197
  380MOL0     H51264   0.325   5.274   9.256  1.2342  1.3862  1.5416
  380MOL0     H51265   0.107   5.240   9.332 -2.5511 -0.4624 -0.8257
  380MOL0     H51266  -0.101   5.122   9.232 -0.1095 -0.0146 -0.2576
  380MOL0     H51267  -0.111   5.202   9.388 -1.3699 -2.3264  0.0785
  380MOL0     H51268  -0.337   5.272   9.341 -3.3689 -2.6703  2.2539
  380MOL0     H51269  -0.357   5.160   9.197 -0.7637 -1.6540 -0.1813
  380MOL0     H51270  -0.307   5.108   9.489  0.2232 -1.1006 -0.1856
  380MOL0     H51271  -0.256   4.989   9.367  1.5739  1.3437 -0.8985
  380MOL0     H51272  -0.509   4.988   9.295 -0.2801  1.0427 -0.3492
  380MOL0     H51273  -0.487   4.938   9.461  1.8668  0.5121 -0.1345
  380MOL0     H51274  -0.526   5.230   9.406 -0.2741  1.3679  2.3719
  380MOL0     H51275  -0.538   5.144   9.558  2.3264 -1.2994 -0.0955
  380MOL0     H51276  -0.770   5.181   9.489 -1.9240 -2.7042 -0.9008
  380MOL0     H51277  -0.721   5.149   9.322  0.0467  1.1917  0.1292
  380MOL0     H51278  -0.714   4.955   9.547  2.3957  2.2899  0.5699
  380MOL0     H51279  -0.727   4.915   9.378  0.7219  3.7924 -2.4025
  380MOL0     H51280  -0.953   5.019   9.559  0.3087 -0.5263  0.0263
  380MOL0     H51281  -0.952   4.870   9.476  0.1165  0.2225 -1.1644
  380MOL0     H51282  -0.057   5.514   9.055 -1.8520  0.5763  3.3724
  380MOL0     H51283   0.192   5.582   9.001 -0.1156 -0.1684  0.1302
  380MOL0     H51284   0.625   5.557   9.096  3.4792  1.5704  2.9212
  380MOL0     H51285   0.869   5.559   9.120  1.1285  0.4459 -1.1809
  380MOL0     H51286   1.020   5.695  10.600  1.4737 -1.9293 -1.4313
  380MOL0     H51287   0.804   5.632  10.704  2.8766  0.5459  0.5352
  380MOL0     H51288   0.458   5.334  10.661  2.0585  1.3897  1.8978
  380MOL0     H51289   0.253   5.234  10.758  0.1114 -0.0226 -1.6403
  380MOL0     H51290   0.027   5.216  10.701 -0.4764 -3.0281  0.0237
  380MOL0     H51291   0.049   5.147  10.864 -0.0038  1.9448  1.1289
  380MOL0     H51292  -0.173   5.239  10.928  1.7420  1.9267  0.7110
  380MOL0     H51293  -0.178   5.107  10.806  0.0741 -0.0898 -0.3142
  380MOL0     H51294  -0.330   5.240  10.719  0.0046  0.0383  0.7766
  380MOL0     H51295  -0.194   5.324  10.644 -1.8101 -0.2986 -1.2177
  380MOL0     H51296  -0.197   5.501  10.789 -0.7929 -0.1851  1.6950
  380MOL0     H51297  -0.292   5.422  10.916  1.2151 -2.4859  0.7513
  380MOL0     H51298  -0.557   5.543  10.595 -3.4860 -2.0298  1.9743
  380MOL0     H51299   0.096   5.615  10.837 -0.1484 -1.3638  1.4216
  380MOL0     H51300   0.285   5.719  10.734  0.6729 -0.1336 -0.0798
  381MOL0     O51301   5.915   9.580   1.834  0.2699 -0.0665  0.0344
  381MOL0     C51302   5.898   9.472   1.883  0.2539 -0.5626 -0.7426
  381MOL0     O51303   5.778   9.404   1.889 -0.5866  0.5978 -0.5486
  381MOL0     C51304   5.671   9.449   1.817  0.3958 -0.1986  0.2524
  381MOL0     C51305   5.666   9.471   1.683  0.2772  1.0869  1.2125
  381MOL0     C51306   5.540   9.486   1.622  0.9839 -0.1749 -0.3083
  381MOL0     C51307   5.421   9.497   1.698  0.1595 -0.0794  0.3242
  381MOL0     O51308   5.307   9.517   1.622 -0.3341  0.1999  0.2487
  381MOL0     C51309   5.244   9.647   1.639 -1.0829  0.1903 -0.6460
  381MOL0     C51310   5.141   9.650   1.751  0.3691  0.0528 -0.0437
  381MOL0     C51311   5.007   9.718   1.711  0.3751 -0.5664  0.4139
  381MOL0     C51312   5.035   9.874   1.690  0.2136 -0.1815 -0.6053
  381MOL0     C51313   4.895   9.951   1.673 -0.4126  1.0690  0.2834
  381MOL0     C51314   4.824   9.989   1.804  0.0657  0.6474 -0.2850
  381MOL0     C51315   4.692  10.064   1.798  0.8085 -0.0693  0.1408
  381MOL0     C51316   4.585   9.981   1.732  0.3510 -0.5041  0.1372
  381MOL0     N51317   4.454  10.050   1.723 -0.8168  0.5122 -0.5460
  381MOL0     C51318   4.399  10.103   1.611  0.2551  0.5768 -0.3241
  381MOL0     C51319   4.274  10.145   1.639 -0.5114  0.0726 -0.8151
  381MOL0     C51320   4.170  10.205   1.550 -0.3447 -0.3571  0.6347
  381MOL0     C51321   4.082  10.098   1.489  0.1680 -0.0615  0.0347
  381MOL0     C51322   3.999  10.153   1.362  0.2864  1.7744 -0.3031
  381MOL0     C51323   3.875  10.245   1.400 -0.7056 -0.5886 -0.1884
  381MOL0     O51324   3.766  10.164   1.390 -0.5445  0.1245  0.0996
  381MOL0     C51325   3.637  10.216   1.406 -0.3123 -0.5551  0.3075
  381MOL0     C51326   3.605  10.354   1.432 -0.1226  1.1297  0.0338
  381MOL0     C51327   3.475  10.398   1.450  1.3217  0.4480 -0.2234
  381MOL0     C51328   3.460  10.542   1.499  0.1424 -0.4329  0.5529
  381MOL0     C51329   3.365  10.312   1.422 -0.4431  0.5583  0.1388
  381MOL0     C51330   3.219  10.344   1.452  0.4868 -0.3245 -0.4136
  381MOL0     O51331   3.128  10.303   1.360 -0.3139 -0.0147  0.1808
  381MOL0     C51332   3.003  10.356   1.368  0.3699  0.1944 -0.9002
  381MOL0     C51333   2.885  10.286   1.391 -0.3955 -0.0716 -0.4927
  381MOL0     C51334   2.759  10.349   1.400 -0.0368  0.0990  0.4447
  381MOL0     C51335   2.744  10.485   1.370 -0.0041  0.5121  0.0240
  381MOL0     O51336   2.637  10.566   1.355  0.0890  0.2639 -0.5928
  381MOL0     C51337   2.528  10.533   1.439  0.1048  0.6000 -0.1326
  381MOL0     C51338   2.433  10.455   1.358 -0.4319  0.0913  0.6690
  381MOL0     C51339   2.303  10.423   1.430  0.7599 -0.2099 -0.4624
  381MOL0     C51340   2.206  10.339   1.341 -0.1662  0.0987 -0.2514
  381MOL0     C51341   2.060  10.317   1.389  0.1142  1.0825 -0.5924
  381MOL0     C51342   2.066  10.254   1.532  0.3688 -0.5983  0.0765
  381MOL0     C51343   1.930  10.194   1.574  0.4550  0.0234  0.3958
  381MOL0     C51344   1.933  10.188   1.731  0.3803 -0.0413 -0.2617
  381MOL0    Cl51345   1.804  10.082   1.785 -0.3857  0.1726  0.0205
  381MOL0     C51346   2.861  10.557   1.341  0.2364 -0.4543 -0.6849
  381MOL0     C51347   2.985  10.496   1.340  0.8643  0.6104 -0.3434
  381MOL0     O51348   3.192  10.420   1.545  0.1787 -0.1077  0.5971
  381MOL0     C51349   3.399  10.178   1.382 -0.2142 -1.0796  0.2905
  381MOL0     C51350   3.531  10.131   1.371 -0.3708 -0.0385  0.4116
  381MOL0     N51351   4.241  10.092   1.758 -0.3773 -0.1153 -0.6997
  381MOL0     N51352   4.349  10.043   1.810  0.2100  0.8450  0.5716
  381MOL0     C51353   5.431   9.473   1.835  0.3667 -0.7241  0.3050
  381MOL0     C51354   5.556   9.461   1.894  0.2844 -0.1557 -0.5759
  381MOL0     C51355   6.018   9.417   1.953  0.6073  0.1946  0.5457
  381MOL0     C51356   6.007   9.296   2.026 -0.6084  0.9755 -0.9671
  381MOL0     C51357   6.122   9.225   2.060 -0.8250  0.5371  0.6309
  381MOL0     C51358   6.246   9.280   2.041 -0.2052  0.4523  0.1876
  381MOL0     O51359   6.375   9.237   2.068 -0.1201  0.5787 -0.6348
  381MOL0     C51360   6.393   9.114   2.141 -0.0189 -0.0146 -0.1668
  381MOL0     C51361   6.508   9.040   2.085  0.0791 -0.3384 -0.8059
  381MOL0     C51362   6.638   9.118   2.088  0.5204 -1.6079 -0.4054
  381MOL0     C51363   6.765   9.040   2.043  0.8982 -0.6964 -0.2971
  381MOL0     C51364   6.820   8.952   2.139  0.2032 -0.3534  0.3988
  381MOL0     C51365   6.850   8.879   2.226  0.2938 -0.2349  0.1090
  381MOL0     C51366   6.257   9.406   1.982  0.8736 -0.4106 -0.4388
  381MOL0     C51367   6.141   9.479   1.947  0.4954 -0.2505  0.0379
  381MOL0     H51368   5.754   9.467   1.620 -1.1689 -0.1742 -0.8715
  381MOL0     H51369   5.520   9.506   1.517  3.1938  2.3925 -0.3437
  381MOL0     H51370   5.325   9.717   1.660  2.8056 -3.5584 -1.7290
  381MOL0     H51371   5.206   9.676   1.540  1.6394  2.4146 -1.1473
  381MOL0     H51372   5.121   9.548   1.786  0.3361  0.6805  1.8319
  381MOL0     H51373   5.181   9.697   1.841 -0.8339 -0.7644  0.9605
  381MOL0     H51374   4.963   9.675   1.621  1.5376 -1.2620  0.1601
  381MOL0     H51375   4.935   9.715   1.793  0.5689  0.2153  0.6193
  381MOL0     H51376   5.093   9.912   1.775 -0.2939 -0.3888 -0.1529
  381MOL0     H51377   5.094   9.886   1.600  0.3533 -2.5784 -0.9071
  381MOL0     H51378   4.925  10.041   1.619  1.4855 -1.1730 -2.7956
  381MOL0     H51379   4.824   9.890   1.615 -0.7229  0.1559  1.5888
  381MOL0     H51380   4.811   9.892   1.854 -1.6168  1.3865  0.8045
  381MOL0     H51381   4.900  10.055   1.846  1.9999 -0.4484 -1.8838
  381MOL0     H51382   4.663  10.087   1.901  1.6310 -2.0046  0.8600
  381MOL0     H51383   4.703  10.157   1.742  1.4282 -1.2163 -1.7420
  381MOL0     H51384   4.564   9.895   1.796 -0.3031  0.9460  1.9587
  381MOL0     H51385   4.599   9.956   1.626 -2.8208  1.2098 -0.8015
  381MOL0     H51386   4.447  10.118   1.515 -2.0276  0.7055 -1.5080
  381MOL0     H51387   4.107  10.277   1.603 -1.7664  0.0344 -1.4699
  381MOL0     H51388   4.229  10.251   1.470  1.5668  0.9230  2.6752
  381MOL0     H51389   4.022  10.069   1.575 -1.0242  1.6864 -0.1306
  381MOL0     H51390   4.149  10.015   1.466  3.1638  2.2255 -0.0920
  381MOL0     H51391   3.951  10.069   1.312 -0.4380  1.7171  0.4517
  381MOL0     H51392   4.073  10.193   1.292  0.7122  0.8773 -0.3770
  381MOL0     H51393   3.879  10.330   1.331  1.5987  1.2270  1.9483
  381MOL0     H51394   3.880  10.286   1.502 -1.4961  1.2530 -0.8546
  381MOL0     H51395   3.687  10.425   1.439  1.5714 -0.5124 -1.7318
  381MOL0     H51396   3.404  10.557   1.591 -0.6554 -0.2193  0.0421
  381MOL0     H51397   3.549  10.605   1.490  0.2356 -0.8198 -2.7637
  381MOL0     H51398   3.404  10.585   1.416 -0.5587 -1.3174  0.5466
  381MOL0     H51399   2.890  10.180   1.412  0.1032  0.2932  1.5239
  381MOL0     H51400   2.671  10.296   1.434  1.7347 -2.6028  1.1073
  381MOL0     H51401   2.558  10.462   1.517  0.0457  0.9977  0.2493
  381MOL0     H51402   2.476  10.619   1.481  1.4885  0.0016  3.0449
  381MOL0     H51403   2.401  10.494   1.261 -0.2595  0.5751  0.8060
  381MOL0     H51404   2.479  10.358   1.336  1.4770  0.6867  1.7915
  381MOL0     H51405   2.253  10.511   1.472 -0.1796 -0.2352 -1.4853
  381MOL0     H51406   2.328  10.351   1.508  1.4288 -0.4725 -0.9050
  381MOL0     H51407   2.203  10.394   1.246 -1.0239  0.1083 -0.2268
  381MOL0     H51408   2.247  10.239   1.323  2.2277  1.1182 -0.8563
  381MOL0     H51409   2.012  10.248   1.319  0.1803  0.2530  0.1539
  381MOL0     H51410   2.007  10.412   1.380  0.9134  1.5664 -0.3316
  381MOL0     H51411   2.148  10.183   1.545  2.4091  1.1433 -2.1858
  381MOL0     H51412   2.085  10.341   1.596 -0.5997 -0.3103 -0.0073
  381MOL0     H51413   1.906  10.095   1.534  0.0245 -0.0790  0.8912
  381MOL0     H51414   1.854  10.270   1.551  0.4034 -0.1464 -0.0080
  381MOL0     H51415   1.905  10.286   1.770 -1.2763 -1.1031  1.3729
  381MOL0     H51416   2.031  10.161   1.774 -0.8086 -0.6422  2.2498
  381MOL0     H51417   2.849  10.656   1.299  0.4656 -0.7246 -1.4091
  381MOL0     H51418   3.070  10.543   1.292  1.0377 -0.5439 -1.2401
  381MOL0     H51419   3.316  10.111   1.362 -1.1133 -0.0673  0.5446
  381MOL0     H51420   3.553  10.034   1.327  1.5546 -0.0787  1.3709
  381MOL0     H51421   5.340   9.457   1.892 -0.8122  0.9961 -0.9714
  381MOL0     H51422   5.559   9.434   1.999 -2.1083  2.3831  0.2560
  381MOL0     H51423   5.913   9.242   2.036  0.2068 -0.0862  2.3961
  381MOL0     H51424   6.111   9.133   2.116  1.9881  0.4945  1.2691
  381MOL0     H51425   6.422   9.131   2.245 -0.0674 -0.6012 -0.0559
  381MOL0     H51426   6.303   9.053   2.128 -0.4344  1.1209 -3.5056
  381MOL0     H51427   6.486   9.003   1.984  1.3413  0.3690 -1.3624
  381MOL0     H51428   6.526   8.954   2.150 -1.5126  0.0965  0.2697
  381MOL0     H51429   6.654   9.149   2.191  1.5130  3.0165 -1.7348
  381MOL0     H51430   6.635   9.207   2.024  0.9989  0.5938  2.4626
  381MOL0     H51431   6.845   9.104   2.005 -0.4701  0.2436 -1.7683
  381MOL0     H51432   6.734   8.987   1.952 -1.1067 -0.6214  0.2905
  381MOL0     H51433   6.875   8.820   2.312 -2.3372 -2.1827 -0.3453
  381MOL0     H51434   6.353   9.455   1.989 -0.8768  3.2552  0.1614
  381MOL0     H51435   6.148   9.576   1.898  0.5646 -0.1897  0.1723
  382MOL0     O51436   0.013   7.407   6.404  0.0662 -0.2576  0.2326
  382MOL0     C51437  -0.006   7.526   6.369  0.3875 -0.0941  0.3088
  382MOL0     O51438  -0.129   7.582   6.330 -0.9483 -0.0013 -0.2149
  382MOL0     C51439  -0.229   7.493   6.321 -0.3905 -0.5430  0.2724
  382MOL0     C51440  -0.231   7.395   6.227 -0.2316  0.7057  0.1983
  382MOL0     C51441  -0.323   7.288   6.225 -0.4621 -0.7154  0.2237
  382MOL0     C51442  -0.440   7.302   6.298 -0.0833  0.2696  0.5060
  382MOL0     O51443  -0.525   7.189   6.289 -0.3382 -0.0725 -0.0734
  382MOL0     C51444  -0.609   7.143   6.397 -0.2941 -0.5698 -0.4748
  382MOL0     C51445  -0.733   7.061   6.353 -0.1014 -1.1601  0.0085
  382MOL0     C51446  -0.844   7.069   6.461 -0.3261  0.7172 -1.1904
  382MOL0     C51447  -0.955   6.965   6.427 -0.7691 -0.2487 -0.2969
  382MOL0     C51448  -1.058   6.956   6.534 -0.7296  0.0386  1.0267
  382MOL0     C51449  -1.165   6.852   6.515 -0.4003 -0.3780 -0.4798
  382MOL0     C51450  -1.118   6.705   6.547  0.3045  0.7114 -0.7860
  382MOL0     C51451  -1.244   6.612   6.572  0.2557  0.2604  0.3458
  382MOL0     N51452  -1.362   6.649   6.494  0.3783  0.8105  1.2613
  382MOL0     C51453  -1.490   6.636   6.540  0.2403 -0.2472  0.4642
  382MOL0     C51454  -1.563   6.651   6.428  0.0604 -0.2279 -0.4368
  382MOL0     C51455  -1.713   6.655   6.425  0.2762 -0.6820 -0.0705
  382MOL0     C51456  -1.763   6.515   6.385 -0.3512  0.4217 -0.1457
  382MOL0     C51457  -1.721   6.401   6.486  0.3536  0.1525  0.8469
  382MOL0     C51458  -1.759   6.414   6.630  0.5882 -0.2606  0.7945
  382MOL0     O51459  -1.896   6.379   6.641  0.3150 -0.2982  0.4837
  382MOL0     C51460  -1.978   6.473   6.710 -0.4762 -0.2394  0.0468
  382MOL0     C51461  -1.972   6.458   6.847 -0.4373 -0.4419 -0.4182
  382MOL0     C51462  -2.066   6.524   6.931 -0.3773 -0.1424  0.9145
  382MOL0     C51463  -2.048   6.506   7.086 -0.4005 -0.0284 -0.7204
  382MOL0     C51464  -2.165   6.609   6.874 -0.6425 -0.0481  0.2479
  382MOL0     C51465  -2.278   6.672   6.947 -0.1825  0.1640  0.5851
  382MOL0     O51466  -2.283   6.656   7.085 -0.5652 -0.1102  0.1084
  382MOL0     C51467  -2.367   6.728   7.163 -0.1019 -0.0950  0.3457
  382MOL0     C51468  -2.497   6.729   7.136  0.2699 -0.3322  0.3389
  382MOL0     C51469  -2.589   6.810   7.215  0.4994 -0.0775  0.1908
  382MOL0     C51470  -2.542   6.876   7.329 -0.1128 -0.5215 -0.2562
  382MOL0     O51471  -2.646   6.937   7.395 -0.5778  0.0221 -0.2952
  382MOL0     C51472  -2.613   7.014   7.507  1.4287 -0.4032 -0.4546
  382MOL0     C51473  -2.745   7.078   7.548 -0.1065  0.5296 -0.2580
  382MOL0     C51474  -2.837   6.982   7.617  0.4822 -0.9165  0.2142
  382MOL0     C51475  -2.966   7.048   7.644 -0.1952  0.2254  0.1438
  382MOL0     C51476  -3.044   6.961   7.743  0.1695 -0.8129  0.4626
  382MOL0     C51477  -3.187   7.006   7.742 -0.0508  0.1276 -0.1428
  382MOL0     C51478  -3.272   6.896   7.814 -0.1119 -0.2719  0.5135
  382MOL0     C51479  -3.421   6.949   7.809 -0.5819  0.2563 -0.3998
  382MOL0    Cl51480  -3.531   6.831   7.890  0.0405  0.2740  0.2584
  382MOL0     C51481  -2.403   6.880   7.353  0.6497 -0.1639 -0.3185
  382MOL0     C51482  -2.319   6.808   7.269 -0.3176  0.1186  0.0519
  382MOL0     O51483  -2.363   6.729   6.882  0.2722  0.2576  0.7159
  382MOL0     C51484  -2.165   6.622   6.734 -0.5111 -0.3516  0.7011
  382MOL0     C51485  -2.066   6.560   6.652 -0.2494 -0.0513  0.8940
  382MOL0     N51486  -1.480   6.664   6.320 -0.1990 -0.4290 -0.3748
  382MOL0     N51487  -1.358   6.642   6.359 -0.5376  0.5954  0.3425
  382MOL0     C51488  -0.450   7.412   6.389  1.0423 -0.7642 -0.3492
  382MOL0     C51489  -0.347   7.504   6.399 -0.9595  0.0912 -0.4700
  382MOL0     C51490   0.111   7.616   6.355  0.2602  0.1468 -0.1869
  382MOL0     C51491   0.110   7.735   6.279 -0.1951 -0.3960  0.9466
  382MOL0     C51492   0.217   7.828   6.279 -0.1073  0.2441 -0.4853
  382MOL0     C51493   0.337   7.790   6.339  0.4522  0.4497  0.7336
  382MOL0     O51494   0.449   7.868   6.329 -0.9952  0.5308  0.2857
  382MOL0     C51495   0.449   7.976   6.231  0.5537 -1.2675 -0.0024
  382MOL0     C51496   0.579   8.056   6.255 -0.5668  0.4165  0.2271
  382MOL0     C51497   0.579   8.133   6.388 -0.7981  0.0565  0.5021
  382MOL0     C51498   0.663   8.258   6.395 -0.2714  0.1806  0.6005
  382MOL0     C51499   0.805   8.226   6.410  0.5648  0.2314 -0.7079
  382MOL0     C51500   0.921   8.190   6.407 -0.4957  0.3960  0.7481
  382MOL0     C51501   0.341   7.670   6.412  0.5483  0.5914  0.2026
  382MOL0     C51502   0.235   7.583   6.417 -0.8951 -0.9407 -0.7634
  382MOL0     H51503  -0.144   7.384   6.163 -1.1294 -1.0285 -0.7947
  382MOL0     H51504  -0.308   7.197   6.166  1.2313  0.5257 -1.3649
  382MOL0     H51505  -0.548   7.092   6.471  2.3612  2.7515 -0.1271
  382MOL0     H51506  -0.648   7.236   6.440 -0.6285 -1.0159  0.2040
  382MOL0     H51507  -0.771   7.099   6.257  0.9666 -0.9796 -0.3538
  382MOL0     H51508  -0.695   6.961   6.333 -1.5714 -1.7942  0.2651
  382MOL0     H51509  -0.800   7.047   6.558 -0.3848  1.0887 -1.0775
  382MOL0     H51510  -0.896   7.165   6.463  0.3589  1.0943 -0.7574
  382MOL0     H51511  -1.008   6.985   6.334 -0.6252 -0.4299 -0.4184
  382MOL0     H51512  -0.914   6.867   6.402 -2.4728 -0.6311 -1.7636
  382MOL0     H51513  -1.012   6.943   6.632  1.1545 -1.0962  0.0669
  382MOL0     H51514  -1.085   7.061   6.531 -0.9370 -0.0289 -0.2364
  382MOL0     H51515  -1.254   6.872   6.574 -0.3089 -0.7903 -0.2005
  382MOL0     H51516  -1.197   6.864   6.411  2.5827  3.2738 -1.2035
  382MOL0     H51517  -1.060   6.658   6.468 -0.0610 -3.8961  1.3761
  382MOL0     H51518  -1.062   6.696   6.640 -2.7905 -3.9245  1.0052
  382MOL0     H51519  -1.275   6.596   6.676 -2.8491 -1.1533 -0.6570
  382MOL0     H51520  -1.224   6.507   6.547 -2.3223  0.2413 -2.2240
  382MOL0     H51521  -1.527   6.617   6.640 -0.9329 -1.6711 -0.2051
  382MOL0     H51522  -1.760   6.711   6.506 -0.1962  3.2510 -2.7823
  382MOL0     H51523  -1.750   6.721   6.346 -2.2358 -1.3141  0.4855
  382MOL0     H51524  -1.715   6.501   6.288 -0.3369  1.7047 -0.3374
  382MOL0     H51525  -1.871   6.511   6.367 -0.6405  0.1101  1.4659
  382MOL0     H51526  -1.612   6.399   6.492  0.4381  3.4671  2.6223
  382MOL0     H51527  -1.766   6.305   6.459 -1.0621  1.0104  0.0980
  382MOL0     H51528  -1.734   6.513   6.670  1.0394 -1.4972  3.7985
  382MOL0     H51529  -1.692   6.345   6.683  3.5929 -0.2461 -2.5672
  382MOL0     H51530  -1.896   6.393   6.888  1.1997  1.0388 -1.0241
  382MOL0     H51531  -2.134   6.461   7.137 -0.3474 -1.2604 -1.6544
  382MOL0     H51532  -1.959   6.451   7.115 -1.3292 -0.1938  2.0704
  382MOL0     H51533  -2.036   6.604   7.133 -0.1430  0.0707 -0.9923
  382MOL0     H51534  -2.544   6.668   7.059 -2.2795 -1.0247  2.2824
  382MOL0     H51535  -2.693   6.820   7.184  0.3601  1.3261  1.0317
  382MOL0     H51536  -2.576   6.954   7.591 -0.3192 -0.5900  0.2118
  382MOL0     H51537  -2.543   7.093   7.476  0.0880  0.7859 -0.5824
  382MOL0     H51538  -2.726   7.162   7.615 -2.8683 -0.5475  2.1157
  382MOL0     H51539  -2.799   7.116   7.461 -2.2568  1.1398  1.2496
  382MOL0     H51540  -2.795   6.949   7.713 -0.3049 -1.1727  0.4757
  382MOL0     H51541  -2.836   6.892   7.554  3.9093 -2.4103  2.1162
  382MOL0     H51542  -2.941   7.141   7.696 -1.3014  0.2842  0.5913
  382MOL0     H51543  -3.006   7.078   7.547  3.2157 -0.6161 -1.6805
  382MOL0     H51544  -2.998   6.966   7.842  1.5709 -0.1310 -0.1930
  382MOL0     H51545  -3.037   6.863   7.696 -4.8818 -0.5584 -1.3924
  382MOL0     H51546  -3.206   7.096   7.801  1.0580 -1.2426  2.4293
  382MOL0     H51547  -3.219   7.022   7.638 -0.2395 -0.7314 -0.2225
  382MOL0     H51548  -3.238   6.872   7.915 -1.2402 -3.7962  0.1800
  382MOL0     H51549  -3.256   6.801   7.762  2.7468  0.3352  0.0766
  382MOL0     H51550  -3.461   6.960   7.708 -0.1634 -2.7496 -0.9761
  382MOL0     H51551  -3.424   7.036   7.876  1.6627  0.2399 -0.2180
  382MOL0     H51552  -2.363   6.946   7.429  1.1206  0.6898 -1.2915
  382MOL0     H51553  -2.212   6.799   7.279 -0.2124  0.4648 -0.7010
  382MOL0     H51554  -2.236   6.687   6.683  0.5529 -0.1617 -0.5765
  382MOL0     H51555  -2.090   6.558   6.546 -0.6297 -1.5666  0.9860
  382MOL0     H51556  -0.535   7.437   6.452  0.8328 -1.0508 -0.5194
  382MOL0     H51557  -0.348   7.587   6.470  1.8807  1.5156 -1.9159
  382MOL0     H51558   0.015   7.760   6.233 -0.0105  1.0330  1.2970
  382MOL0     H51559   0.196   7.926   6.237  0.4279  0.1384 -1.0115
  382MOL0     H51560   0.443   7.930   6.132 -1.1188 -0.1755 -0.4510
  382MOL0     H51561   0.367   8.043   6.258  0.2767 -3.0751  4.6101
  382MOL0     H51562   0.588   8.122   6.169 -0.0549 -1.1950 -0.9992
  382MOL0     H51563   0.665   7.988   6.250 -0.4684  0.6190 -3.6761
  382MOL0     H51564   0.611   8.064   6.466  0.0288  0.2615  0.3502
  382MOL0     H51565   0.477   8.168   6.410 -0.9801  0.3256 -0.6897
  382MOL0     H51566   0.637   8.315   6.484 -0.9640 -0.7861  1.0387
  382MOL0     H51567   0.637   8.320   6.309 -1.2781 -5.2209 -3.5631
  382MOL0     H51568   1.022   8.157   6.419 -0.8762 -2.4476 -2.2915
  382MOL0     H51569   0.431   7.632   6.459 -0.4565 -3.8212 -0.9692
  382MOL0     H51570   0.245   7.488   6.469 -0.8529 -0.3743  0.2806
  383MOL0     O51571   8.951  11.019   8.293 -0.5581 -0.8758  0.7214
  383MOL0     C51572   9.035  10.930   8.282 -0.0954  0.0680  0.7966
  383MOL0     O51573   9.045  10.818   8.361 -0.6899 -0.4041 -0.5637
  383MOL0     C51574   8.982  10.815   8.486  0.4323 -0.2966 -0.4842
  383MOL0     C51575   8.911  10.697   8.516  0.2124  0.0594  0.5140
  383MOL0     C51576   8.830  10.693   8.626 -0.5201 -0.7839 -0.9810
  383MOL0     C51577   8.826  10.802   8.716 -1.0131  1.2219 -0.0467
  383MOL0     O51578   8.749  10.796   8.827  0.5488  0.9364 -0.1174
  383MOL0     C51579   8.635  10.887   8.845 -0.2798  0.3747  0.2138
  383MOL0     C51580   8.550  10.843   8.966  0.4396 -0.0063  0.0634
  383MOL0     C51581   8.614  10.888   9.092  0.4232 -0.5666  0.3167
  383MOL0     C51582   8.531  10.853   9.212 -0.5506  0.0886 -0.2077
  383MOL0     C51583   8.607  10.906   9.335  0.2866  0.6294  1.0698
  383MOL0     C51584   8.546  10.860   9.460 -0.3750 -1.0488  0.2104
  383MOL0     C51585   8.640  10.884   9.581  0.4058  0.1989  0.4364
  383MOL0     C51586   8.565  10.859   9.712  0.6974 -0.1968  0.1760
  383MOL0     N51587   8.549  10.721   9.736  0.2796  0.4814  0.1801
  383MOL0     C51588   8.448  10.662   9.805  0.3709 -0.0275 -0.1151
  383MOL0     C51589   8.469  10.522   9.800  0.3015 -0.2626 -0.1718
  383MOL0     C51590   8.385  10.416   9.871 -0.1511  0.2118  0.1102
  383MOL0     C51591   8.271  10.373   9.767 -0.4318 -0.4549  0.4054
  383MOL0     C51592   8.201  10.242   9.810  0.0103 -0.0164 -0.0227
  383MOL0     C51593   8.163  10.219   9.962  0.4769 -0.0326 -0.4812
  383MOL0     O51594   8.066  10.315   9.996  0.1704 -0.3907 -0.7437
  383MOL0     C51595   7.932  10.280   9.993 -0.1939  1.1588 -0.2706
  383MOL0     C51596   7.866  10.195   9.904 -0.3760  0.6420 -0.3132
  383MOL0     C51597   7.732  10.149   9.933  0.1475 -1.4156 -0.2908
  383MOL0     C51598   7.687  10.042   9.837  0.0439 -0.2003  0.5036
  383MOL0     C51599   7.654  10.218  10.035  0.3929  0.6796  0.9478
  383MOL0     C51600   7.511  10.185  10.069  0.2693 -0.5971  0.5153
  383MOL0     O51601   7.458  10.230  10.190 -0.2565 -0.1510 -0.0944
  383MOL0     C51602   7.335  10.179  10.228  0.3800 -0.1640  0.2867
  383MOL0     C51603   7.323  10.091  10.339 -0.0541  0.5966 -0.2367
  383MOL0     C51604   7.198  10.079  10.391 -0.3430 -0.9044 -0.7353
  383MOL0     C51605   7.085  10.140  10.342 -0.8647 -0.0676 -0.1669
  383MOL0     O51606   6.967  10.129  10.414 -0.1414  0.8268 -0.0364
  383MOL0     C51607   6.936   9.994  10.469 -0.3834  0.2778 -0.0440
  383MOL0     C51608   6.794   9.975  10.532  0.2246  0.1797  1.5905
  383MOL0     C51609   6.678   9.986  10.429  0.1929 -0.4475  0.5561
  383MOL0     C51610   6.641  10.126  10.390  0.1149 -0.6127  0.3808
  383MOL0     C51611   6.559  10.142  10.260  0.4239 -0.3126  0.6007
  383MOL0     C51612   6.408  10.120  10.250  1.0998  0.2190  0.5380
  383MOL0     C51613   6.353   9.988  10.316 -0.9310  0.1085  0.3258
  383MOL0     C51614   6.206   9.985  10.307 -0.2263 -0.2850  0.1459
  383MOL0    Cl51615   6.114  10.099  10.423  0.4040  0.2001 -0.0037
  383MOL0     C51616   7.098  10.224  10.231 -0.1163  0.5970  0.1070
  383MOL0     C51617   7.223  10.244  10.172 -0.6543 -0.0870 -0.2000
  383MOL0     O51618   7.453  10.120   9.986 -0.1770 -0.4535  0.2493
  383MOL0     C51619   7.719  10.303  10.122  0.3346  0.6530  1.0496
  383MOL0     C51620   7.851  10.338  10.090 -0.6579  0.4233 -0.3827
  383MOL0     N51621   8.581  10.503   9.723 -0.1664  0.2117  0.4832
  383MOL0     N51622   8.630  10.622   9.693 -0.2522  0.1860  0.9521
  383MOL0     C51623   8.907  10.921   8.690  0.6907 -0.0475 -0.4480
  383MOL0     C51624   8.982  10.924   8.572  0.1957 -0.7794  0.0967
  383MOL0     C51625   9.144  10.943   8.179 -0.4846 -0.2368 -1.1867
  383MOL0     C51626   9.258  10.868   8.196  0.5687 -0.7705 -0.3537
  383MOL0     C51627   9.353  10.859   8.090  0.5375  0.9108 -0.5416
  383MOL0     C51628   9.338  10.938   7.982 -0.1692 -0.0195  0.6807
  383MOL0     O51629   9.437  10.948   7.889  0.4700  0.1071  0.1984
  383MOL0     C51630   9.569  10.946   7.931  0.4932  0.3193  0.0705
  383MOL0     C51631   9.598  11.079   8.004  0.5727  0.5706 -0.5515
  383MOL0     C51632   9.747  11.116   7.997 -0.3871 -0.5754  0.2089
  383MOL0     C51633   9.838  11.022   8.077  0.1775 -0.5958  0.2861
  383MOL0     C51634   9.934  10.959   7.984 -0.8174 -0.1902 -0.2900
  383MOL0     C51635  10.004  10.908   7.896 -0.5579 -0.0122 -0.2586
  383MOL0     C51636   9.226  11.016   7.967  0.6554 -0.2094  0.3920
  383MOL0     C51637   9.124  11.013   8.062 -0.5446 -0.0137  0.6507
  383MOL0     H51638   8.910  10.612   8.449  1.7443 -0.0063  0.5446
  383MOL0     H51639   8.764  10.609   8.645  0.3549 -0.7004  4.0193
  383MOL0     H51640   8.678  10.987   8.859 -0.5633  0.0552  4.8813
  383MOL0     H51641   8.567  10.889   8.760  0.5406  0.4904 -0.4495
  383MOL0     H51642   8.449  10.881   8.953 -0.0265 -0.7809  1.2719
  383MOL0     H51643   8.528  10.737   8.958 -0.1424  0.1582 -0.5545
  383MOL0     H51644   8.709  10.835   9.102  1.7896  1.2294 -2.1088
  383MOL0     H51645   8.628  10.996   9.080  0.1847 -0.2562  2.4451
  383MOL0     H51646   8.430  10.892   9.200 -0.8459 -1.1538 -2.0748
  383MOL0     H51647   8.529  10.743   9.214  1.6358  0.0130  1.4318
  383MOL0     H51648   8.707  10.863   9.323  0.5775  1.6055 -0.2346
  383MOL0     H51649   8.626  11.013   9.327  1.3448  0.3849 -0.0177
  383MOL0     H51650   8.446  10.905   9.460  0.8671  2.0694 -2.1686
  383MOL0     H51651   8.533  10.752   9.458  0.8827 -1.2105 -0.3564
  383MOL0     H51652   8.726  10.819   9.565 -0.9395 -1.1050 -2.1170
  383MOL0     H51653   8.663  10.990   9.567 -0.3284  0.1701 -1.2861
  383MOL0     H51654   8.472  10.916   9.706  0.0775 -1.0806  1.1834
  383MOL0     H51655   8.618  10.905   9.796 -1.0391 -2.1727  2.4913
  383MOL0     H51656   8.355  10.708   9.837 -0.7318 -2.0838 -0.1974
  383MOL0     H51657   8.447  10.328   9.894 -0.2596 -0.1335 -0.8475
  383MOL0     H51658   8.350  10.456   9.966 -1.8704 -1.2085  0.1262
  383MOL0     H51659   8.314  10.367   9.667 -2.3076 -0.6682 -0.4379
  383MOL0     H51660   8.200  10.456   9.761 -0.2304  0.0492  3.4358
  383MOL0     H51661   8.263  10.153   9.794 -0.2385  0.0277 -1.3731
  383MOL0     H51662   8.109  10.224   9.755  0.6406 -1.9981 -0.5046
  383MOL0     H51663   8.255  10.230  10.020 -0.4630 -2.8903  1.8136
  383MOL0     H51664   8.125  10.119   9.986  0.0369  0.6528  1.9200
  383MOL0     H51665   7.926  10.150   9.825 -1.3655  1.8527 -1.8324
  383MOL0     H51666   7.762  10.010   9.764 -0.8144  0.9200 -0.9509
  383MOL0     H51667   7.652   9.954   9.891  3.5862 -1.5064  0.9255
  383MOL0     H51668   7.616  10.089   9.768  1.3159  2.2507  0.7421
  383MOL0     H51669   7.401  10.041  10.396 -1.8287  0.1111  1.9051
  383MOL0     H51670   7.188  10.009  10.474  0.3938  2.1815  2.1750
  383MOL0     H51671   6.964   9.915  10.399 -0.3435  2.2694 -2.4554
  383MOL0     H51672   7.009   9.982  10.549  0.6503 -1.5960 -1.2094
  383MOL0     H51673   6.791   9.871  10.568  0.7122  0.2835  1.9380
  383MOL0     H51674   6.773  10.042  10.616 -1.4703  1.8780 -0.1079
  383MOL0     H51675   6.599   9.946  10.493 -1.8583 -0.9146 -2.0998
  383MOL0     H51676   6.686   9.917  10.345 -2.3561 -2.5667  1.8961
  383MOL0     H51677   6.583  10.171  10.471 -0.7505 -2.6951  0.9673
  383MOL0     H51678   6.729  10.190  10.374 -0.7921  0.8491  1.0559
  383MOL0     H51679   6.609  10.082  10.183  0.7510 -1.8897  1.9791
  383MOL0     H51680   6.574  10.245  10.228  0.3802 -1.0415 -1.9515
  383MOL0     H51681   6.363  10.204  10.303 -0.1175  0.0358 -0.1731
  383MOL0     H51682   6.369  10.128  10.148  1.3589  2.8523  0.5646
  383MOL0     H51683   6.384   9.993  10.421  0.6665 -0.1904 -0.1095
  383MOL0     H51684   6.388   9.896  10.269 -2.5732  0.2572 -1.3044
  383MOL0     H51685   6.173   9.880  10.309  0.7164 -0.7745 -3.6002
  383MOL0     H51686   6.173  10.029  10.213 -0.6212  0.1158  0.4675
  383MOL0     H51687   7.007  10.274  10.200 -1.6696 -2.3858 -0.5490
  383MOL0     H51688   7.237  10.317  10.093  2.3395 -0.0296  0.2834
  383MOL0     H51689   7.677  10.333  10.218 -0.6398  0.4236  0.7101
  383MOL0     H51690   7.904  10.419  10.140  3.8054 -1.5130 -1.4637
  383MOL0     H51691   8.904  11.008   8.755 -0.6980  0.9189 -1.7371
  383MOL0     H51692   9.036  11.013   8.540 -1.0116 -0.2943 -0.6618
  383MOL0     H51693   9.284  10.803   8.279  1.9422 -0.0683 -0.2131
  383MOL0     H51694   9.439  10.797   8.112  2.3307  3.4927  0.2995
  383MOL0     H51695   9.592  10.859   7.993 -4.3318  0.6707  2.8886
  383MOL0     H51696   9.629  10.939   7.840 -1.2050  2.0552 -1.2522
  383MOL0     H51697   9.557  11.066   8.104 -2.9632 -3.3817 -2.2386
  383MOL0     H51698   9.538  11.159   7.960  0.3126 -0.5232 -2.2746
  383MOL0     H51699   9.758  11.215   8.042 -0.9395 -1.7003  3.0331
  383MOL0     H51700   9.775  11.120   7.891 -1.3776  0.6346 -0.0213
  383MOL0     H51701   9.779  10.946   8.129  2.1688 -1.6231  1.1374
  383MOL0     H51702   9.898  11.071   8.153  0.5763 -0.9217  0.1832
  383MOL0     H51703  10.070  10.853   7.832 -0.6543 -0.0094 -0.3600
  383MOL0     H51704   9.218  11.070   7.873  3.3970  1.0719  0.8098
  383MOL0     H51705   9.038  11.079   8.054 -1.7700 -1.5778  0.4075
  384MOL0     O51706   9.621   0.493   2.392  0.1975 -0.1433 -0.1215
  384MOL0     C51707   9.687   0.474   2.292 -0.5376  0.0959  0.2545
  384MOL0     O51708   9.639   0.458   2.162 -0.0726  0.2327 -0.1650
  384MOL0     C51709   9.506   0.464   2.121 -0.5548 -0.3402 -0.2850
  384MOL0     C51710   9.471   0.390   2.008 -0.3263 -0.0855  0.4437
  384MOL0     C51711   9.335   0.375   1.971 -0.0393  0.0637 -0.0204
  384MOL0     C51712   9.238   0.444   2.041 -0.2860 -0.5430 -0.2802
  384MOL0     O51713   9.102   0.455   2.002  0.0042  0.5554  0.0122
  384MOL0     C51714   9.060   0.428   1.863 -0.1905 -0.4232  0.1173
  384MOL0     C51715   8.928   0.494   1.849 -0.1951  0.5446  0.2047
  384MOL0     C51716   8.814   0.422   1.928  0.3418 -0.0025 -0.3091
  384MOL0     C51717   8.678   0.486   1.899 -0.4077  0.1560  0.2226
  384MOL0     C51718   8.627   0.455   1.761  0.3183  0.7320  0.2555
  384MOL0     C51719   8.474   0.462   1.739  0.0837 -0.6146 -0.1037
  384MOL0     C51720   8.441   0.448   1.589 -0.4452  0.1212  0.5215
  384MOL0     C51721   8.301   0.411   1.545 -0.5137  0.3806  0.1895
  384MOL0     N51722   8.205   0.494   1.613 -0.2066  0.1974 -0.1518
  384MOL0     C51723   8.166   0.483   1.748 -0.0591 -0.1127 -0.2701
  384MOL0     C51724   8.080   0.585   1.760  0.3557 -0.3324  0.0284
  384MOL0     C51725   7.983   0.629   1.874  0.6505  0.7107  0.3277
  384MOL0     C51726   7.995   0.525   1.989  0.0545 -1.2463 -0.0751
  384MOL0     C51727   7.900   0.558   2.112  1.0063 -0.6140  0.3066
  384MOL0     C51728   7.750   0.507   2.097  0.4638 -0.3569  0.3442
  384MOL0     O51729   7.736   0.362   2.079 -0.8769 -0.1685 -0.0636
  384MOL0     C51730   7.607   0.306   2.086 -0.8909  0.7494 -0.4909
  384MOL0     C51731   7.605   0.187   2.155  0.1406  0.2252 -0.1594
  384MOL0     C51732   7.488   0.112   2.164  0.7525  0.2919 -0.0082
  384MOL0     C51733   7.503  -0.021   2.223  0.1146  0.6058  0.4443
  384MOL0     C51734   7.367   0.160   2.099  0.7171 -0.0572 -0.3986
  384MOL0     C51735   7.231   0.089   2.086 -0.4822  0.2017 -0.3690
  384MOL0     O51736   7.116   0.171   2.068 -0.1059 -0.3587  0.5875
  384MOL0     C51737   6.997   0.104   2.059  0.3387  0.1742 -1.2128
  384MOL0     C51738   6.912   0.104   2.173 -0.1239 -0.2164 -0.2629
  384MOL0     C51739   6.787   0.031   2.180  0.0179 -1.2037 -0.7674
  384MOL0     C51740   6.750  -0.037   2.062  0.2963 -0.1888 -0.3665
  384MOL0     O51741   6.641  -0.117   2.057 -0.3655  0.2244 -0.2435
  384MOL0     C51742   6.569  -0.147   2.177  0.0327 -0.1686 -0.2259
  384MOL0     C51743   6.465  -0.243   2.148 -0.1715  0.8697 -0.4896
  384MOL0     C51744   6.354  -0.213   2.039  0.0154  0.4375 -0.4094
  384MOL0     C51745   6.255  -0.332   2.048 -0.4665  0.3277 -0.1286
  384MOL0     C51746   6.145  -0.330   1.945  0.5492 -0.4768  0.1257
  384MOL0     C51747   6.030  -0.225   1.976  0.5090  0.4661  0.2744
  384MOL0     C51748   5.905  -0.249   1.876 -0.4441 -0.0337 -0.0474
  384MOL0     C51749   5.809  -0.139   1.867 -0.7721 -0.4476 -0.1160
  384MOL0    Cl51750   5.672  -0.168   1.762  0.4819  0.7107  0.1217
  384MOL0     C51751   6.821  -0.025   1.938 -0.6664  0.3752  0.3304
  384MOL0     C51752   6.943   0.047   1.940 -0.4458  0.0585 -0.0411
  384MOL0     O51753   7.233  -0.038   2.109 -0.3242 -0.3291 -0.2747
  384MOL0     C51754   7.376   0.286   2.030 -0.7104 -0.4012 -0.2628
  384MOL0     C51755   7.494   0.355   2.021  0.4447 -0.6352  0.0173
  384MOL0     N51756   8.068   0.648   1.638  0.4881 -0.8800 -0.5523
  384MOL0     N51757   8.154   0.603   1.557  0.3520  0.5987 -0.3550
  384MOL0     C51758   9.271   0.516   2.153 -0.3146 -0.1338  0.4503
  384MOL0     C51759   9.408   0.531   2.190  0.0260  1.2985  0.1793
  384MOL0     C51760   9.834   0.477   2.322 -0.5703 -1.0527  0.2026
  384MOL0     C51761   9.892   0.537   2.438  0.8931 -0.2426 -0.7144
  384MOL0     C51762  10.032   0.533   2.465 -0.2323  1.1830  0.0728
  384MOL0     C51763  10.121   0.475   2.368 -0.6077 -0.6405 -0.1565
  384MOL0     O51764  10.261   0.478   2.373 -0.4709 -0.6870  0.4441
  384MOL0     C51765  10.319   0.548   2.491  0.3950 -0.4037 -0.0123
  384MOL0     C51766  10.477   0.543   2.495  0.0803  1.1232  0.4502
  384MOL0     C51767  10.562   0.608   2.380 -0.4255 -0.9703 -0.7622
  384MOL0     C51768  10.713   0.631   2.420 -0.0548 -0.2563  0.0646
  384MOL0     C51769  10.740   0.767   2.476 -0.0931 -0.1251  0.2631
  384MOL0     C51770  10.755   0.889   2.503  0.5202 -0.6581 -0.2197
  384MOL0     C51771  10.064   0.422   2.253 -0.1196 -0.0138 -0.7342
  384MOL0     C51772   9.927   0.421   2.230 -0.1072  0.2619 -0.2099
  384MOL0     H51773   9.547   0.346   1.943 -0.2791 -0.2035  0.5789
  384MOL0     H51774   9.310   0.319   1.882 -1.9854  1.2775 -0.2690
  384MOL0     H51775   9.123   0.476   1.787  4.1940 -2.5610  2.0133
  384MOL0     H51776   9.060   0.320   1.849  3.2776 -0.5412  0.0049
  384MOL0     H51777   8.944   0.594   1.889  3.4210 -0.2433  1.0462
  384MOL0     H51778   8.896   0.496   1.744 -1.0547 -0.9282  0.4077
  384MOL0     H51779   8.813   0.314   1.910  1.0762 -0.0794  0.0816
  384MOL0     H51780   8.843   0.424   2.034  0.7148 -0.5611 -0.3944
  384MOL0     H51781   8.611   0.449   1.977 -0.5386 -0.3037 -0.1035
  384MOL0     H51782   8.689   0.594   1.900 -0.4888  0.1675 -0.0566
  384MOL0     H51783   8.681   0.515   1.687  1.6394 -2.0521 -1.2130
  384MOL0     H51784   8.650   0.350   1.741 -1.7542  0.2068  0.4006
  384MOL0     H51785   8.435   0.380   1.801  1.9078 -1.3333  0.1581
  384MOL0     H51786   8.435   0.556   1.779  0.2266 -0.0194 -1.3062
  384MOL0     H51787   8.450   0.547   1.544  1.5876  1.4031  3.4294
  384MOL0     H51788   8.516   0.387   1.536 -0.9247  0.1642 -0.2231
  384MOL0     H51789   8.277   0.305   1.557 -0.2986 -0.0198 -2.3086
  384MOL0     H51790   8.292   0.421   1.436  0.8358 -0.4166 -0.0135
  384MOL0     H51791   8.195   0.407   1.820  1.4200 -0.1297 -0.8482
  384MOL0     H51792   8.003   0.728   1.917  1.0796  0.3222  1.0481
  384MOL0     H51793   7.881   0.616   1.836  0.5920 -1.2084  1.0417
  384MOL0     H51794   8.095   0.534   2.034 -0.2779  2.6420  0.2406
  384MOL0     H51795   7.972   0.426   1.949 -1.1074 -1.4851  1.1423
  384MOL0     H51796   7.907   0.662   2.144  2.0234  0.1572 -2.1684
  384MOL0     H51797   7.947   0.498   2.190  0.2286 -0.6760  0.7379
  384MOL0     H51798   7.701   0.562   2.017 -2.9470 -2.4734  0.7772
  384MOL0     H51799   7.695   0.542   2.185 -1.6883 -1.6211 -0.4242
  384MOL0     H51800   7.702   0.157   2.193  1.2155 -0.1412 -2.9124
  384MOL0     H51801   7.518  -0.101   2.149  1.1798  0.4393  0.8163
  384MOL0     H51802   7.597  -0.034   2.276  1.2899 -2.4646 -2.0577
  384MOL0     H51803   7.412  -0.039   2.281 -0.9084 -1.2470 -1.5492
  384MOL0     H51804   6.948   0.155   2.262  1.4562 -1.3480 -0.2330
  384MOL0     H51805   6.720   0.028   2.265 -1.4346  2.7686 -1.5473
  384MOL0     H51806   6.638  -0.191   2.248 -1.7220  1.4741  2.6901
  384MOL0     H51807   6.531  -0.055   2.223  0.4483  1.3107 -2.6579
  384MOL0     H51808   6.516  -0.334   2.114 -0.1181  0.8642 -0.3985
  384MOL0     H51809   6.419  -0.269   2.244  2.1798  0.1621  0.5377
  384MOL0     H51810   6.410  -0.209   1.945  0.3928 -0.3324 -0.2222
  384MOL0     H51811   6.304  -0.119   2.063 -0.8414 -0.2130  0.4178
  384MOL0     H51812   6.308  -0.427   2.030  2.0288  1.2158  2.0169
  384MOL0     H51813   6.229  -0.319   2.153  1.5141  1.0405  0.3151
  384MOL0     H51814   6.101  -0.430   1.933 -3.5186  0.7401  2.7166
  384MOL0     H51815   6.200  -0.305   1.854  2.0102  0.2864  1.1799
  384MOL0     H51816   5.991  -0.242   2.077  1.1844  1.0935  0.6493
  384MOL0     H51817   6.079  -0.127   1.973 -0.3961  0.9015 -2.3631
  384MOL0     H51818   5.853  -0.339   1.911 -1.4413  1.3925  2.4345
  384MOL0     H51819   5.943  -0.260   1.774  2.1847  4.0024  0.2570
  384MOL0     H51820   5.858  -0.052   1.825 -1.5095  1.1268  2.0874
  384MOL0     H51821   5.770  -0.125   1.969 -2.2051 -1.7481 -0.4478
  384MOL0     H51822   6.786  -0.062   1.842 -2.6928  1.6676  0.5034
  384MOL0     H51823   7.004   0.053   1.850  1.3531 -0.5264  1.0705
  384MOL0     H51824   7.288   0.330   1.984 -1.1343 -0.1349  0.7735
  384MOL0     H51825   7.505   0.456   1.981 -2.1674  0.1333  1.0430
  384MOL0     H51826   9.190   0.564   2.207  0.8971 -0.0966  2.3087
  384MOL0     H51827   9.445   0.593   2.270  0.8336  3.1334 -1.5240
  384MOL0     H51828   9.826   0.587   2.508 -2.9858 -1.1249 -3.3924
  384MOL0     H51829  10.072   0.569   2.559 -2.3365  1.3330  0.9759
  384MOL0     H51830  10.275   0.649   2.491  1.4733  0.0745 -0.5805
  384MOL0     H51831  10.289   0.488   2.577 -0.2307 -1.0531 -0.6651
  384MOL0     H51832  10.504   0.438   2.510  0.5181  1.0265 -0.9344
  384MOL0     H51833  10.515   0.584   2.589  1.3531 -1.1850  1.0317
  384MOL0     H51834  10.517   0.701   2.344 -0.2266 -0.4390  0.3319
  384MOL0     H51835  10.552   0.544   2.292 -0.4475  0.4782 -1.8615
  384MOL0     H51836  10.767   0.622   2.325  0.3780  2.0168  0.0366
  384MOL0     H51837  10.756   0.552   2.482  1.6367 -0.4650 -1.2723
  384MOL0     H51838  10.781   0.992   2.513  0.2797 -0.5321 -0.8113
  384MOL0     H51839  10.132   0.372   2.185 -1.4601 -0.6591 -1.6354
  384MOL0     H51840   9.892   0.388   2.133 -1.2839  0.6566  0.0622
  385MOL0     O51841   3.923   6.414   9.995 -0.2015  0.4192 -0.0600
  385MOL0     C51842   3.902   6.528  10.033 -0.5857  0.7802 -1.1549
  385MOL0     O51843   3.813   6.615   9.984 -0.2372 -0.3937  0.2289
  385MOL0     C51844   3.716   6.577   9.901 -0.4666 -0.4509  0.6760
  385MOL0     C51845   3.661   6.680   9.821 -0.1692 -0.1919  0.7947
  385MOL0     C51846   3.551   6.662   9.737 -0.1280  0.6881  0.2952
  385MOL0     C51847   3.494   6.533   9.727  0.5107  0.4674  0.1852
  385MOL0     O51848   3.384   6.496   9.658 -0.2577  0.3173 -0.2673
  385MOL0     C51849   3.279   6.595   9.631  0.5629  0.1321 -0.4364
  385MOL0     C51850   3.149   6.588   9.719  0.4698 -0.0000 -0.0583
  385MOL0     C51851   3.053   6.494   9.649 -0.4485 -0.5248  0.7558
  385MOL0     C51852   2.937   6.459   9.746 -0.0239  0.7900  0.1434
  385MOL0     C51853   2.807   6.416   9.669 -0.0545 -0.2851  0.4736
  385MOL0     C51854   2.822   6.289   9.596  0.1004 -0.6941 -0.1520
  385MOL0     C51855   2.703   6.267   9.510 -0.0220  0.4488 -0.2352
  385MOL0     C51856   2.708   6.133   9.439  0.6613 -0.5037 -0.9268
  385MOL0     N51857   2.590   6.130   9.348 -0.2835  0.3281 -0.0061
  385MOL0     C51858   2.592   6.102   9.212  0.4017  0.5589 -0.2681
  385MOL0     C51859   2.467   6.123   9.172  0.6765 -0.5318 -0.1170
  385MOL0     C51860   2.422   6.127   9.033  0.2143 -0.9482  0.1235
  385MOL0     C51861   2.312   6.235   9.006  0.0566  0.5842  0.0230
  385MOL0     C51862   2.175   6.182   8.978  0.0515  0.5264  0.0617
  385MOL0     C51863   2.119   6.113   9.100  0.3109 -0.3647  0.7305
  385MOL0     O51864   1.990   6.052   9.074  0.9311  0.1171  0.1968
  385MOL0     C51865   1.885   6.140   9.083 -0.1291  0.5998  0.2517
  385MOL0     C51866   1.850   6.215   8.972 -0.0857  0.1710 -0.4970
  385MOL0     C51867   1.755   6.323   8.987 -0.4217  0.6689 -0.1327
  385MOL0     C51868   1.729   6.410   8.866  0.2587 -0.1673 -0.5271
  385MOL0     C51869   1.691   6.336   9.112  0.4589 -0.4211 -0.3077
  385MOL0     C51870   1.578   6.425   9.140  0.6765 -0.0957  0.9409
  385MOL0     O51871   1.502   6.467   9.034  0.0875  0.1714  0.3057
  385MOL0     C51872   1.416   6.571   9.060 -0.0958 -0.7812 -0.6744
  385MOL0     C51873   1.466   6.700   9.098 -0.0593  0.0207 -0.2066
  385MOL0     C51874   1.373   6.799   9.140 -0.2718  0.0363  0.4646
  385MOL0     C51875   1.231   6.777   9.129 -0.4727  0.1429 -0.9150
  385MOL0     O51876   1.138   6.877   9.142  0.2137 -1.0212  0.1851
  385MOL0     C51877   1.169   7.000   9.073 -0.6458  0.2613  0.1373
  385MOL0     C51878   1.051   7.098   9.064  0.1037 -1.2224 -0.6542
  385MOL0     C51879   0.938   7.042   8.977 -0.0197 -0.0185  0.6832
  385MOL0     C51880   0.822   6.982   9.057  0.1077 -0.1320  0.3672
  385MOL0     C51881   0.709   6.935   8.967 -0.1239 -0.1712  0.3787
  385MOL0     C51882   0.637   7.041   8.885  0.8934  0.2280 -0.0093
  385MOL0     C51883   0.509   6.990   8.819 -0.4701 -0.2748  0.8698
  385MOL0     C51884   0.417   7.101   8.762  0.4218  0.1207 -0.4039
  385MOL0    Cl51885   0.245   7.042   8.738 -0.0149  0.0718  0.0917
  385MOL0     C51886   1.186   6.653   9.087  0.4894 -0.3756 -0.0150
  385MOL0     C51887   1.271   6.550   9.063  0.5149  0.8931  0.5351
  385MOL0     O51888   1.567   6.465   9.250  0.1969 -0.4928  0.1045
  385MOL0     C51889   1.730   6.254   9.221  0.6209 -0.4438  0.3259
  385MOL0     C51890   1.820   6.154   9.205  0.5400 -0.3317 -0.2795
  385MOL0     N51891   2.382   6.128   9.285 -0.1534 -0.3862 -0.6624
  385MOL0     N51892   2.463   6.127   9.391  0.7686  0.3662  0.0638
  385MOL0     C51893   3.545   6.432   9.803 -0.5672  0.8107 -0.1429
  385MOL0     C51894   3.654   6.450   9.888  0.8429  0.4527  0.2890
  385MOL0     C51895   3.991   6.573  10.144 -0.3275  0.6285  0.4416
  385MOL0     C51896   3.982   6.693  10.206  0.3862 -0.5133  0.5253
  385MOL0     C51897   4.080   6.731  10.300  0.3109 -0.1697  0.5218
  385MOL0     C51898   4.189   6.651  10.330 -0.6550 -0.7320 -0.8045
  385MOL0     O51899   4.291   6.695  10.420  0.0332 -1.1216 -0.3892
  385MOL0     C51900   4.331   6.591  10.518  0.3235  1.2670  0.7222
  385MOL0     C51901   4.484   6.608  10.534  0.7041  0.1347 -0.2617
  385MOL0     C51902   4.541   6.495  10.630 -0.0630 -0.6251 -0.6461
  385MOL0     C51903   4.507   6.512  10.778 -0.0474  0.0393  0.6394
  385MOL0     C51904   4.584   6.417  10.866 -0.2445  0.2878  0.1265
  385MOL0     C51905   4.644   6.324  10.925  0.4007  0.0905 -0.0300
  385MOL0     C51906   4.198   6.534  10.260  0.1225  0.8520 -0.2304
  385MOL0     C51907   4.100   6.489  10.175  0.2387 -0.5051 -0.0998
  385MOL0     H51908   3.705   6.778   9.834 -0.2369 -0.1927  1.0260
  385MOL0     H51909   3.516   6.738   9.668  1.2972 -0.4159 -1.7566
  385MOL0     H51910   3.312   6.698   9.644  1.0146 -0.0827  0.1981
  385MOL0     H51911   3.246   6.587   9.527  1.8046 -1.2877 -0.7616
  385MOL0     H51912   3.160   6.552   9.822 -1.2256 -2.7558 -0.7290
  385MOL0     H51913   3.090   6.681   9.718  1.1264  0.4290  0.2545
  385MOL0     H51914   3.009   6.542   9.561  3.2940  0.9209 -0.5660
  385MOL0     H51915   3.101   6.403   9.612 -2.9013 -0.7908 -2.1285
  385MOL0     H51916   2.981   6.384   9.813  3.4318  1.6426 -0.9244
  385MOL0     H51917   2.920   6.546   9.810 -0.2757  1.9689 -1.4778
  385MOL0     H51918   2.727   6.414   9.744  2.8958  0.9768  3.9727
  385MOL0     H51919   2.771   6.492   9.600  2.6420  0.9072  0.2804
  385MOL0     H51920   2.914   6.308   9.540 -0.7091  0.6015 -1.1133
  385MOL0     H51921   2.836   6.213   9.673 -1.4807 -1.2431 -0.3812
  385MOL0     H51922   2.616   6.254   9.575 -1.4467 -2.1134 -2.4732
  385MOL0     H51923   2.688   6.357   9.450 -1.3272  1.0712  0.9468
  385MOL0     H51924   2.708   6.053   9.514  0.0430  1.4779  1.3150
  385MOL0     H51925   2.800   6.134   9.380  1.3990  0.0317  0.1914
  385MOL0     H51926   2.678   6.081   9.148  2.6165  4.1679  1.1941
  385MOL0     H51927   2.514   6.158   8.981  0.9469 -1.4150  1.1060
  385MOL0     H51928   2.396   6.030   8.991  1.9935 -1.9058  1.0977
  385MOL0     H51929   2.345   6.273   8.909  3.1308 -0.7133  0.4558
  385MOL0     H51930   2.303   6.310   9.085 -1.9382  1.1134 -0.6472
  385MOL0     H51931   2.178   6.116   8.891  1.9846  1.2139 -0.4318
  385MOL0     H51932   2.114   6.271   8.959 -0.8037 -0.3346 -1.4710
  385MOL0     H51933   2.120   6.181   9.186  1.6413 -1.6325  1.7730
  385MOL0     H51934   2.187   6.030   9.120  0.9246 -1.2213 -3.8025
  385MOL0     H51935   1.899   6.191   8.878  0.3529  2.6145 -0.9550
  385MOL0     H51936   1.817   6.429   8.804  0.8009 -0.9303 -0.0034
  385MOL0     H51937   1.648   6.367   8.807  0.6459  0.3236 -1.4343
  385MOL0     H51938   1.706   6.512   8.898 -2.1795 -1.1559  1.1617
  385MOL0     H51939   1.570   6.731   9.102 -0.4509  1.4153 -0.4278
  385MOL0     H51940   1.414   6.896   9.166 -0.6109  0.4413 -0.4521
  385MOL0     H51941   1.257   7.048   9.117 -1.1038  0.6400  0.6501
  385MOL0     H51942   1.194   6.978   8.968 -0.2253 -0.1293  0.3163
  385MOL0     H51943   1.013   7.125   9.162  0.6413 -1.4367 -0.3770
  385MOL0     H51944   1.091   7.187   9.014 -0.9595 -1.6565 -2.3437
  385MOL0     H51945   0.969   6.983   8.891  0.8415  3.0273 -1.2106
  385MOL0     H51946   0.898   7.138   8.942 -2.1044  0.0074  2.8211
  385MOL0     H51947   0.866   6.894   9.104  3.4153  1.8894  1.3346
  385MOL0     H51948   0.785   7.044   9.140 -2.1647  2.2308 -2.2131
  385MOL0     H51949   0.631   6.896   9.034 -0.0372  4.6555  3.8828
  385MOL0     H51950   0.750   6.869   8.891  1.7547  2.1753 -0.7791
  385MOL0     H51951   0.601   7.130   8.938  1.2839  1.5826 -1.9067
  385MOL0     H51952   0.697   7.074   8.801  1.7706 -1.7158 -0.2059
  385MOL0     H51953   0.449   6.938   8.894 -0.6716 -0.1619  0.7867
  385MOL0     H51954   0.529   6.920   8.737 -2.6637  2.0258 -1.7972
  385MOL0     H51955   0.457   7.133   8.666 -0.1429  2.4557  0.0613
  385MOL0     H51956   0.407   7.188   8.828 -1.8866 -1.3065  1.3144
  385MOL0     H51957   1.079   6.638   9.085  0.6141 -1.3273  0.2797
  385MOL0     H51958   1.231   6.456   9.026  0.9431  1.2421 -0.8736
  385MOL0     H51959   1.695   6.267   9.323  0.4865 -0.5282  0.2915
  385MOL0     H51960   1.858   6.087   9.281 -1.2093  0.1808  1.0954
  385MOL0     H51961   3.497   6.335   9.805 -1.5006  1.2698  0.7171
  385MOL0     H51962   3.700   6.364   9.936  2.6616 -0.0431 -2.1422
  385MOL0     H51963   3.903   6.767  10.196 -1.9407 -2.9743 -0.3446
  385MOL0     H51964   4.076   6.832  10.340  1.8968  0.9350 -1.8689
  385MOL0     H51965   4.274   6.602  10.610 -1.1775 -0.4637  0.0645
  385MOL0     H51966   4.305   6.491  10.482 -0.3101  2.1811 -1.5282
  385MOL0     H51967   4.512   6.707  10.570  1.5635 -0.8723  2.0052
  385MOL0     H51968   4.525   6.596  10.433  3.4635  1.8487  0.5308
  385MOL0     H51969   4.648   6.489  10.611 -0.3831 -1.0122 -2.5290
  385MOL0     H51970   4.491   6.399  10.611 -4.1724  0.8010  1.6126
  385MOL0     H51971   4.401   6.494  10.795  0.4243 -2.2859  1.6019
  385MOL0     H51972   4.540   6.611  10.811  1.0787  0.1298 -0.6996
  385MOL0     H51973   4.703   6.255  10.983 -0.0772  0.5827  1.0879
  385MOL0     H51974   4.288   6.473  10.272 -1.3123 -1.2822  0.2129
  385MOL0     H51975   4.103   6.387  10.136  0.0166 -1.7426  2.8551
  386MOL0     O51976  11.255   4.478   0.201  0.3582  1.0668  0.7556
  386MOL0     C51977  11.234   4.405   0.106  0.3067 -1.1620  0.1704
  386MOL0     O51978  11.148   4.305   0.096  0.5601  0.5499 -1.0314
  386MOL0     C51979  11.039   4.307   0.184  0.6771  0.4258  0.2001
  386MOL0     C51980  10.967   4.421   0.215 -1.0828  0.0722 -0.6359
  386MOL0     C51981  10.837   4.423   0.263  0.1109  0.0065 -1.3767
  386MOL0     C51982  10.766   4.301   0.285 -0.7181 -0.1597  0.4299
  386MOL0     O51983  10.637   4.314   0.328  0.0584 -0.0401  0.1592
  386MOL0     C51984  10.571   4.199   0.374  0.8359  0.6029 -1.2297
  386MOL0     C51985  10.432   4.240   0.428  0.4266  0.1046 -0.1530
  386MOL0     C51986  10.347   4.115   0.460  0.4743 -0.7009  0.3727
  386MOL0     C51987  10.259   4.072   0.340 -0.5217  0.2196  0.8124
  386MOL0     C51988  10.134   4.159   0.323  0.1064  0.0485  0.3216
  386MOL0     C51989  10.061   4.100   0.201 -0.4302  0.1010 -0.3336
  386MOL0     C51990   9.932   4.175   0.179  0.5600 -1.1710 -0.1903
  386MOL0     C51991   9.839   4.194   0.298  0.3709 -0.1819 -0.2982
  386MOL0     N51992   9.728   4.270   0.244  0.9599  0.0550  0.4395
  386MOL0     C51993   9.716   4.401   0.231 -0.7891  0.3250  0.2794
  386MOL0     C51994   9.587   4.423   0.211 -0.8852  0.7389 -0.5910
  386MOL0     C51995   9.519   4.560   0.198 -0.0088 -0.0899  0.6689
  386MOL0     C51996   9.545   4.624   0.059 -0.0600  0.4301  0.2699
  386MOL0     C51997   9.455   4.747   0.040  0.2883 -0.1017 -0.0113
  386MOL0     C51998   9.301   4.710   0.047 -1.0822  0.2054  0.2498
  386MOL0     O51999   9.225   4.830   0.029  0.0349 -0.3101  0.1560
  386MOL0     C52000   9.092   4.807  -0.008 -0.1852 -0.0107 -0.8981
  386MOL0     C52001   9.037   4.915  -0.076 -0.1452  1.0214  0.4715
  386MOL0     C52002   8.898   4.928  -0.095  0.0344 -0.1676  0.2553
  386MOL0     C52003   8.845   5.066  -0.141 -0.3275 -0.9699  0.2635
  386MOL0     C52004   8.824   4.803  -0.079  0.5004 -0.4065  0.0056
  386MOL0     C52005   8.683   4.789  -0.128  0.3858  0.1621  0.2505
  386MOL0     O52006   8.602   4.906  -0.157  0.3383  0.2301  0.1031
  386MOL0     C52007   8.485   4.885  -0.223  1.1629 -0.0282  0.1295
  386MOL0     C52008   8.486   4.914  -0.359  0.3228  0.2208  0.4090
  386MOL0     C52009   8.371   4.884  -0.429  0.3080 -0.2485  0.0727
  386MOL0     C52010   8.260   4.833  -0.368 -0.2250  0.2434  0.0076
  386MOL0     O52011   8.138   4.808  -0.430  0.2791  0.1526 -0.3235
  386MOL0     C52012   8.116   4.860  -0.554 -0.1897 -0.4238  0.5194
  386MOL0     C52013   7.965   4.827  -0.578 -0.0951  0.3904  0.4662
  386MOL0     C52014   7.877   4.942  -0.523  0.6977  0.3901  0.3113
  386MOL0     C52015   7.729   4.898  -0.503 -0.1513  0.7164  0.7206
  386MOL0     C52016   7.657   4.958  -0.391  0.0210  0.2094 -0.1067
  386MOL0     C52017   7.527   4.873  -0.378  0.0745 -0.4272 -0.2125
  386MOL0     C52018   7.417   4.952  -0.325  0.3332 -1.3597  0.2383
  386MOL0     C52019   7.283   4.883  -0.316  0.2931  0.2012  0.0803
  386MOL0    Cl52020   7.176   4.986  -0.213  0.2052 -0.0561  0.0123
  386MOL0     C52021   8.265   4.806  -0.232  0.8462  0.2098  0.2180
  386MOL0     C52022   8.376   4.835  -0.150  0.0358  0.1242  0.5280
  386MOL0     O52023   8.637   4.672  -0.124  0.1322 -0.7999 -0.8292
  386MOL0     C52024   8.885   4.686  -0.023 -0.6029 -0.4029 -0.0695
  386MOL0     C52025   9.017   4.692   0.016  0.2787 -0.4761 -0.5205
  386MOL0     N52026   9.523   4.302   0.189 -0.8459  0.0263 -0.3192
  386MOL0     N52027   9.613   4.213   0.203 -0.0793  0.6101  0.1244
  386MOL0     C52028  10.831   4.183   0.243  0.0276 -0.8136 -0.0217
  386MOL0     C52029  10.961   4.190   0.190 -1.0570  0.1830  0.1868
  386MOL0     C52030  11.325   4.418  -0.012 -0.8893 -0.8121  0.6908
  386MOL0     C52031  11.358   4.542  -0.064 -0.1037 -0.0557 -0.5559
  386MOL0     C52032  11.439   4.550  -0.172 -0.6337  0.1602  0.2700
  386MOL0     C52033  11.500   4.437  -0.233 -1.6275  0.1657 -0.1491
  386MOL0     O52034  11.593   4.440  -0.333  0.0759 -0.3008  0.6431
  386MOL0     C52035  11.707   4.346  -0.347  0.5677 -0.6547 -1.0271
  386MOL0     C52036  11.787   4.402  -0.466  0.2507  1.0391 -0.0603
  386MOL0     C52037  11.880   4.520  -0.438 -0.5327  1.1451 -0.2485
  386MOL0     C52038  11.989   4.545  -0.550  0.6449  0.0713  0.2415
  386MOL0     C52039  12.058   4.672  -0.529  0.3095 -0.0015 -0.3810
  386MOL0     C52040  12.103   4.787  -0.500  0.3592 -0.6353 -0.4870
  386MOL0     C52041  11.462   4.305  -0.186  0.2443 -0.3332 -0.1131
  386MOL0     C52042  11.374   4.297  -0.071  0.1012  0.6554 -0.3381
  386MOL0     H52043  11.002   4.523   0.200 -1.0565  0.0076 -1.0350
  386MOL0     H52044  10.787   4.519   0.271  0.8784  0.3252  4.2645
  386MOL0     H52045  10.556   4.130   0.291  2.1525 -1.9048  0.4797
  386MOL0     H52046  10.625   4.146   0.454 -1.8563  0.0015  0.3345
  386MOL0     H52047  10.458   4.306   0.511  1.8507 -1.9342  1.1261
  386MOL0     H52048  10.378   4.295   0.351  0.0102  0.4839  0.4076
  386MOL0     H52049  10.404   4.033   0.505 -0.5505  0.1838  3.5905
  386MOL0     H52050  10.275   4.140   0.539  1.2306  2.4483  0.2108
  386MOL0     H52051  10.318   4.075   0.248  0.8362 -0.5361  1.6253
  386MOL0     H52052  10.229   3.970   0.365  1.4234 -0.1738  1.7515
  386MOL0     H52053  10.073   4.155   0.413 -0.4425 -0.1572 -0.0542
  386MOL0     H52054  10.169   4.263   0.317  0.5157 -0.1083 -0.0979
  386MOL0     H52055  10.121   4.093   0.110  0.1880  0.9481 -0.0102
  386MOL0     H52056  10.024   4.000   0.229  0.5644 -0.1134  0.2544
  386MOL0     H52057   9.969   4.267   0.133  0.2015 -0.8763  0.1028
  386MOL0     H52058   9.883   4.136   0.089  2.5810 -1.4897 -1.1981
  386MOL0     H52059   9.882   4.249   0.382 -1.3808 -2.9920  2.7103
  386MOL0     H52060   9.813   4.093   0.333 -0.6031  0.1060 -0.1604
  386MOL0     H52061   9.797   4.469   0.255 -2.0682  1.8443  0.4568
  386MOL0     H52062   9.414   4.536   0.219  0.6658 -2.6877  1.5234
  386MOL0     H52063   9.550   4.618   0.285 -1.3877 -0.3312  1.3475
  386MOL0     H52064   9.529   4.553  -0.023  1.0614 -1.6104  1.7434
  386MOL0     H52065   9.650   4.652   0.045  0.5789 -2.2390 -0.8199
  386MOL0     H52066   9.469   4.801  -0.054 -1.9929 -2.2476 -1.7209
  386MOL0     H52067   9.469   4.824   0.117  0.1349  1.1863 -1.2349
  386MOL0     H52068   9.288   4.672   0.149  0.4213  0.1207  0.4205
  386MOL0     H52069   9.295   4.627  -0.024  1.4594  0.9983 -0.9990
  386MOL0     H52070   9.096   5.004  -0.094 -0.5040  0.9820 -1.0619
  386MOL0     H52071   8.811   5.064  -0.245 -0.3763  1.5293  0.1875
  386MOL0     H52072   8.759   5.097  -0.080  1.2867  2.9721  0.8410
  386MOL0     H52073   8.923   5.142  -0.136 -1.1423  0.0808 -1.8828
  386MOL0     H52074   8.568   4.964  -0.409 -1.5197  0.7962 -2.2486
  386MOL0     H52075   8.366   4.903  -0.536  1.5129 -0.5009 -0.0397
  386MOL0     H52076   8.139   4.965  -0.575  1.2064 -0.5801  1.1705
  386MOL0     H52077   8.190   4.814  -0.620  1.4780  1.9746  0.6204
  386MOL0     H52078   7.952   4.826  -0.687 -1.2621  0.5652  0.5928
  386MOL0     H52079   7.930   4.730  -0.543 -0.3889  0.0904 -0.6126
  386MOL0     H52080   7.892   5.023  -0.596  2.9407 -1.5729 -1.5612
  386MOL0     H52081   7.913   4.966  -0.422 -0.0389 -0.1042  0.6949
  386MOL0     H52082   7.683   4.893  -0.602 -0.8385 -5.1380  0.9831
  386MOL0     H52083   7.743   4.793  -0.477 -0.5101  0.1740 -1.1793
  386MOL0     H52084   7.630   5.059  -0.422  1.2851  1.3445  2.2090
  386MOL0     H52085   7.722   4.969  -0.304  2.6293  1.9484 -2.1234
  386MOL0     H52086   7.506   4.835  -0.478 -1.1534  1.0899 -0.5586
  386MOL0     H52087   7.553   4.797  -0.303 -1.5012 -1.8173 -1.0113
  386MOL0     H52088   7.412   5.033  -0.397  0.2229 -1.5481  0.0308
  386MOL0     H52089   7.439   4.982  -0.222  4.0566 -0.3553 -0.6941
  386MOL0     H52090   7.286   4.785  -0.268 -2.3851 -0.6872 -1.3632
  386MOL0     H52091   7.240   4.856  -0.413  0.9262 -2.6964  0.5296
  386MOL0     H52092   8.180   4.764  -0.178 -0.5501  0.1202 -1.9022
  386MOL0     H52093   8.381   4.838  -0.042 -0.5847 -1.2783  0.6282
  386MOL0     H52094   8.833   4.591  -0.010 -2.0633  0.6251  2.1091
  386MOL0     H52095   9.065   4.608   0.065  0.4763  0.7825  1.5546
  386MOL0     H52096  10.777   4.091   0.261 -0.8010 -0.2841  0.2303
  386MOL0     H52097  11.011   4.104   0.147 -0.4971  0.7180 -0.2495
  386MOL0     H52098  11.319   4.633  -0.020 -0.5521  0.3703 -1.7738
  386MOL0     H52099  11.456   4.652  -0.203 -0.0270  0.3146  1.0676
  386MOL0     H52100  11.770   4.352  -0.258 -0.1542  1.4992 -0.5906
  386MOL0     H52101  11.680   4.242  -0.367  0.9005 -0.8446 -0.4878
  386MOL0     H52102  11.725   4.421  -0.555 -2.7699 -1.9059  1.2354
  386MOL0     H52103  11.846   4.319  -0.507 -0.4979  0.0654  0.7851
  386MOL0     H52104  11.928   4.498  -0.343 -0.4648  2.1433 -0.0331
  386MOL0     H52105  11.812   4.605  -0.422 -2.1503 -0.2479  0.5781
  386MOL0     H52106  11.949   4.550  -0.652  2.2432  3.2405 -0.3377
  386MOL0     H52107  12.067   4.468  -0.553  0.1304 -0.4352 -1.0286
  386MOL0     H52108  12.160   4.872  -0.466 -2.2583  0.3735  1.8118
  386MOL0     H52109  11.495   4.211  -0.229 -2.3059 -2.0461  1.4050
  386MOL0     H52110  11.332   4.206  -0.029 -0.8383  0.9633 -0.6038
  387MOL0     O52111   8.802   1.810   8.405  0.5869  0.4755  0.0422
  387MOL0     C52112   8.870   1.753   8.486 -0.2741  0.1463 -0.2780
  387MOL0     O52113   8.952   1.813   8.578 -0.6290  0.1929 -0.2688
  387MOL0     C52114   8.966   1.949   8.579  0.6251  0.2821 -0.1752
  387MOL0     C52115   8.999   2.003   8.703 -0.1369 -0.5505 -0.4814
  387MOL0     C52116   9.018   2.143   8.730 -0.0972  0.5455  0.5951
  387MOL0     C52117   9.006   2.233   8.618 -0.8793 -0.0853  0.6291
  387MOL0     O52118   9.005   2.370   8.619 -0.1480  1.1098 -0.3337
  387MOL0     C52119   9.016   2.426   8.745 -0.1424  0.0572 -0.2731
  387MOL0     C52120   9.157   2.420   8.808  0.0634 -0.3259 -0.0511
  387MOL0     C52121   9.277   2.447   8.707 -0.0436 -0.6433 -0.0379
  387MOL0     C52122   9.254   2.566   8.610 -0.3915 -0.4255  0.1798
  387MOL0     C52123   9.259   2.694   8.677  0.4402 -0.3825  0.0233
  387MOL0     C52124   9.242   2.814   8.584 -0.3218 -0.5263  1.4207
  387MOL0     C52125   9.366   2.824   8.494 -0.3181 -0.2882 -0.0463
  387MOL0     C52126   9.384   2.952   8.419  0.2556  0.8589  1.1174
  387MOL0     N52127   9.270   2.955   8.326 -0.4663  0.2655  0.5187
  387MOL0     C52128   9.163   3.046   8.331  0.3341  0.8373 -0.4920
  387MOL0     C52129   9.082   3.015   8.230 -0.4119 -0.4285 -0.2557
  387MOL0     C52130   8.949   3.077   8.199 -0.5894  0.0750 -0.4741
  387MOL0     C52131   8.828   2.984   8.200  0.4921  0.2578 -0.0078
  387MOL0     C52132   8.707   3.073   8.170  0.3749 -0.3261  0.1325
  387MOL0     C52133   8.574   2.994   8.145  0.0332 -0.4488 -0.5847
  387MOL0     O52134   8.477   3.095   8.101  0.4015  0.5797  0.4411
  387MOL0     C52135   8.361   3.042   8.049  0.3908  0.2881 -0.7754
  387MOL0     C52136   8.324   2.904   8.051  0.4450 -0.3791  0.0661
  387MOL0     C52137   8.202   2.853   8.002  0.2600 -0.6133  0.3820
  387MOL0     C52138   8.191   2.703   7.998  0.4019 -0.6927 -0.3342
  387MOL0     C52139   8.108   2.945   7.953  1.0671  0.9963 -0.8346
  387MOL0     C52140   7.970   2.899   7.912  0.1809 -0.0946  0.3790
  387MOL0     O52141   7.891   2.999   7.869 -0.0481 -0.1449 -0.1210
  387MOL0     C52142   7.763   2.979   7.833  0.4494  0.2811 -0.4963
  387MOL0     C52143   7.735   2.908   7.719  0.3448  0.2616  0.1407
  387MOL0     C52144   7.608   2.920   7.658 -0.5860  0.9564 -0.4697
  387MOL0     C52145   7.505   2.992   7.719  0.6698  1.1046  0.4220
  387MOL0     O52146   7.384   3.016   7.658 -0.6054  0.0781  0.0819
  387MOL0     C52147   7.311   2.900   7.623 -0.2919 -0.3009  0.3403
  387MOL0     C52148   7.186   2.929   7.549 -0.7490 -0.8193  1.7403
  387MOL0     C52149   7.134   2.801   7.487 -0.9758  0.1509  0.1109
  387MOL0     C52150   7.001   2.829   7.399 -0.1106  0.3998  0.2896
  387MOL0     C52151   6.945   2.697   7.331  1.0161 -1.1056  0.4424
  387MOL0     C52152   6.842   2.742   7.212 -0.1306 -0.1399 -1.0138
  387MOL0     C52153   6.803   2.622   7.124 -0.1113  0.5390  0.0696
  387MOL0     C52154   6.674   2.648   7.046  0.0065 -0.6776 -0.0224
  387MOL0    Cl52155   6.673   2.816   6.971  0.1846 -0.1989  0.0191
  387MOL0     C52156   7.529   3.058   7.838  0.4223  0.1959  0.4908
  387MOL0     C52157   7.658   3.049   7.897  0.6335  0.1414  0.2480
  387MOL0     O52158   7.945   2.774   7.899 -0.0973  0.0691 -0.2766
  387MOL0     C52159   8.143   3.079   7.945 -0.4231  0.2893 -0.3442
  387MOL0     C52160   8.261   3.121   8.000  0.4511  0.2557 -0.3936
  387MOL0     N52161   9.142   2.915   8.157  0.7999 -0.6568 -0.2513
  387MOL0     N52162   9.254   2.875   8.213 -0.1372  0.1064  0.0363
  387MOL0     C52163   8.987   2.183   8.492  1.1239 -0.0818  0.9060
  387MOL0     C52164   8.962   2.042   8.474 -0.8937 -1.0092  0.9825
  387MOL0     C52165   8.874   1.609   8.497 -1.0741 -0.0842 -0.4997
  387MOL0     C52166   8.866   1.533   8.381  0.4243  0.2579 -0.7900
  387MOL0     C52167   8.868   1.395   8.383  0.0125  0.8203  0.9079
  387MOL0     C52168   8.901   1.334   8.505  0.7132 -0.1483  0.6626
  387MOL0     O52169   8.904   1.194   8.520 -0.8749 -0.7118 -0.5899
  387MOL0     C52170   8.918   1.105   8.412 -0.4982  0.7268  0.0497
  387MOL0     C52171   9.065   1.107   8.367  0.4367 -0.6963  0.6508
  387MOL0     C52172   9.168   1.087   8.476 -0.8099  0.0683  0.2849
  387MOL0     C52173   9.182   0.944   8.542 -0.2242 -0.0714 -0.2878
  387MOL0     C52174   9.298   0.922   8.634 -0.4105  0.0725 -0.1922
  387MOL0     C52175   9.395   0.887   8.698 -0.0487 -0.5592  0.2785
  387MOL0     C52176   8.909   1.411   8.619 -0.3976  0.1407  0.7393
  387MOL0     C52177   8.900   1.545   8.620 -0.0204  0.2180  0.8284
  387MOL0     H52178   8.997   1.938   8.790 -3.2761 -1.3254 -1.0164
  387MOL0     H52179   9.037   2.169   8.834  2.8941  0.9396  0.0398
  387MOL0     H52180   8.995   2.533   8.733 -1.2199  0.1888  2.1761
  387MOL0     H52181   8.946   2.396   8.823 -0.8674  2.9918  0.3309
  387MOL0     H52182   9.155   2.496   8.887  0.5231  1.9487 -2.0914
  387MOL0     H52183   9.184   2.324   8.852 -0.1674 -0.4105 -0.0958
  387MOL0     H52184   9.368   2.457   8.767 -0.5047 -4.0180  1.4547
  387MOL0     H52185   9.285   2.357   8.645  1.2154 -0.9368  0.5265
  387MOL0     H52186   9.318   2.558   8.522  0.4484 -4.3866  0.9374
  387MOL0     H52187   9.159   2.549   8.559 -0.4393 -1.6981  0.6530
  387MOL0     H52188   9.186   2.700   8.758 -3.0696 -1.1967 -2.7846
  387MOL0     H52189   9.358   2.712   8.719  1.3594  0.3705 -2.2688
  387MOL0     H52190   9.147   2.800   8.531 -0.0793  1.0486  0.5183
  387MOL0     H52191   9.230   2.907   8.640 -4.3013  0.0322 -0.0146
  387MOL0     H52192   9.456   2.791   8.547  0.8206 -1.6415 -2.6270
  387MOL0     H52193   9.351   2.742   8.423 -0.6880 -0.3770  0.1320
  387MOL0     H52194   9.468   2.940   8.350 -0.6670  0.6975 -0.0025
  387MOL0     H52195   9.400   3.042   8.479  1.0776  1.0686  0.6014
  387MOL0     H52196   9.141   3.125   8.401  1.9046  0.7561  0.1460
  387MOL0     H52197   8.938   3.159   8.271  0.7391 -0.5732  0.5012
  387MOL0     H52198   8.951   3.136   8.107 -2.5091  0.5647 -0.2639
  387MOL0     H52199   8.819   2.936   8.298  1.0057  1.1185  0.4675
  387MOL0     H52200   8.841   2.907   8.123 -2.5709 -0.3495 -0.0291
  387MOL0     H52201   8.729   3.128   8.078  3.8856 -1.7123 -0.0134
  387MOL0     H52202   8.686   3.129   8.261 -3.4496 -0.3744 -0.5615
  387MOL0     H52203   8.548   2.928   8.228  1.1164 -2.4843 -1.7648
  387MOL0     H52204   8.587   2.921   8.064  0.6133 -1.2499  0.2150
  387MOL0     H52205   8.379   2.824   8.099 -0.1171 -0.1093  1.1887
  387MOL0     H52206   8.111   2.669   8.065  0.8864  1.0036  1.1797
  387MOL0     H52207   8.166   2.664   7.899 -0.1690 -0.5049 -0.2658
  387MOL0     H52208   8.284   2.658   8.034 -0.8496 -2.1251  1.2749
  387MOL0     H52209   7.820   2.854   7.678  1.6125  0.0557  2.8487
  387MOL0     H52210   7.584   2.871   7.564 -0.1404 -0.9266  0.3575
  387MOL0     H52211   7.378   2.840   7.561  3.2128  3.0533  0.4524
  387MOL0     H52212   7.291   2.841   7.713  1.4979 -0.1173  0.8947
  387MOL0     H52213   7.103   2.969   7.608 -2.1937 -0.6584 -0.2861
  387MOL0     H52214   7.211   3.000   7.469  0.0338 -2.1870  0.7179
  387MOL0     H52215   7.108   2.727   7.563  0.9642  0.7795  1.4889
  387MOL0     H52216   7.218   2.764   7.428 -0.4559 -0.3900  1.1551
  387MOL0     H52217   6.913   2.860   7.457 -0.4466  1.0017 -0.5198
  387MOL0     H52218   7.043   2.904   7.332  4.5289  1.0220  3.4269
  387MOL0     H52219   6.901   2.620   7.395 -0.7871 -0.7898 -0.3675
  387MOL0     H52220   7.029   2.647   7.282  2.3784 -0.8890  2.4196
  387MOL0     H52221   6.748   2.784   7.249  0.6666  0.8438 -0.0215
  387MOL0     H52222   6.904   2.813   7.157  2.5153  0.5407  2.4938
  387MOL0     H52223   6.804   2.528   7.180  3.6197 -0.1318 -0.8460
  387MOL0     H52224   6.885   2.609   7.054  0.3107  0.3090  0.5993
  387MOL0     H52225   6.593   2.624   7.115  1.1209 -2.0531  0.8638
  387MOL0     H52226   6.663   2.582   6.959  1.1526  2.4447 -2.7704
  387MOL0     H52227   7.453   3.121   7.883  0.3272 -0.5311  1.3631
  387MOL0     H52228   7.697   3.103   7.983  1.6760 -0.1856 -0.0012
  387MOL0     H52229   8.072   3.156   7.914  0.4210  0.9322 -0.7320
  387MOL0     H52230   8.287   3.226   7.989  3.6018 -0.5180 -1.4067
  387MOL0     H52231   8.971   2.246   8.405  0.2807  1.2574  1.9706
  387MOL0     H52232   8.947   2.018   8.369  1.1382 -2.2096  0.9188
  387MOL0     H52233   8.856   1.592   8.290  0.3831  2.1956  0.4227
  387MOL0     H52234   8.851   1.351   8.285 -0.8853  2.4410  0.3050
  387MOL0     H52235   8.895   1.004   8.449  0.7300  0.2837 -0.3708
  387MOL0     H52236   8.846   1.115   8.330  0.9782 -2.2710 -1.7605
  387MOL0     H52237   9.084   1.200   8.313 -2.8938 -0.7945 -0.9120
  387MOL0     H52238   9.080   1.039   8.282 -0.3362  0.3954 -0.3809
  387MOL0     H52239   9.163   1.164   8.553 -1.5643  0.7410 -0.4109
  387MOL0     H52240   9.266   1.112   8.434  0.6720 -1.7544  2.4363
  387MOL0     H52241   9.189   0.864   8.467  4.9244 -2.3526  2.1301
  387MOL0     H52242   9.090   0.927   8.598 -0.6147 -1.6938 -1.3561
  387MOL0     H52243   9.483   0.855   8.750  2.1746  3.6961 -0.4389
  387MOL0     H52244   8.928   1.371   8.718  0.4710 -2.2105 -0.2987
  387MOL0     H52245   8.921   1.599   8.711  0.1946  0.4702  0.6309
  388MOL0     O52246   4.103   5.441   7.643 -0.0138 -0.2938  0.2296
  388MOL0     C52247   4.179   5.355   7.603  0.2126  0.0965  0.6195
  388MOL0     O52248   4.149   5.217   7.591 -0.2793  0.1676 -0.1330
  388MOL0     C52249   4.030   5.177   7.645 -0.1039  0.0552 -0.0183
  388MOL0     C52250   3.916   5.207   7.565  0.2237 -0.5120  0.0027
  388MOL0     C52251   3.793   5.157   7.601  0.1838 -0.6228  0.2208
  388MOL0     C52252   3.778   5.078   7.719  0.2024 -0.3059  0.7929
  388MOL0     O52253   3.653   5.034   7.758  0.7317 -0.2128 -0.6238
  388MOL0     C52254   3.641   4.933   7.861 -0.0652 -0.7739  0.1434
  388MOL0     C52255   3.500   4.874   7.865  0.9544 -0.4977  0.6822
  388MOL0     C52256   3.389   4.976   7.869  0.2488 -0.7244 -0.2219
  388MOL0     C52257   3.252   4.919   7.870 -0.5604  0.1683  0.9945
  388MOL0     C52258   3.146   5.031   7.855 -0.1832 -0.3934  0.9585
  388MOL0     C52259   3.013   4.998   7.922 -0.3295 -0.9550  0.0914
  388MOL0     C52260   2.934   4.896   7.838  0.2325  0.2966 -0.0551
  388MOL0     C52261   2.840   4.962   7.740  0.0072  0.1309 -0.3274
  388MOL0     N52262   2.716   4.994   7.802 -0.2502 -0.4415 -0.6155
  388MOL0     C52263   2.660   5.124   7.824  0.0428  1.6856  0.2787
  388MOL0     C52264   2.545   5.090   7.881 -0.1030 -0.0564  0.3345
  388MOL0     C52265   2.436   5.187   7.920  0.6262  0.2976 -0.1116
  388MOL0     C52266   2.338   5.129   8.018  0.2735  0.1548 -0.5292
  388MOL0     C52267   2.241   5.215   8.106 -0.6565  0.1648  0.0551
  388MOL0     C52268   2.220   5.354   8.046  0.7162 -0.5283  0.4067
  388MOL0     O52269   2.185   5.364   7.908 -0.6632  0.2800 -0.2709
  388MOL0     C52270   2.055   5.336   7.878  1.0817  0.0743  0.4385
  388MOL0     C52271   2.023   5.233   7.788  0.9065 -0.2723 -0.2669
  388MOL0     C52272   1.897   5.190   7.769  0.0999 -0.6617  1.1989
  388MOL0     C52273   1.880   5.061   7.696  0.8115 -0.3774 -0.2844
  388MOL0     C52274   1.792   5.275   7.803 -0.0784 -0.0530 -0.3515
  388MOL0     C52275   1.657   5.252   7.755  0.5189  0.4754 -0.4108
  388MOL0     O52276   1.562   5.337   7.810 -0.1700  0.3312 -0.2119
  388MOL0     C52277   1.442   5.366   7.755 -0.7601 -0.1012  0.4062
  388MOL0     C52278   1.330   5.361   7.836 -0.0536 -0.1350  0.6320
  388MOL0     C52279   1.208   5.405   7.779  0.2040  0.7533  0.3994
  388MOL0     C52280   1.196   5.452   7.644  0.1364  0.0437 -0.5687
  388MOL0     O52281   1.075   5.486   7.604  1.1629  0.0739 -0.9089
  388MOL0     C52282   1.037   5.438   7.471 -0.1076 -0.4347 -0.6879
  388MOL0     C52283   0.891   5.398   7.471  0.6833 -0.8412  0.6617
  388MOL0     C52284   0.809   5.531   7.462 -0.7955 -0.2334  0.1505
  388MOL0     C52285   0.660   5.507   7.453 -0.3294  0.0711 -0.8231
  388MOL0     C52286   0.575   5.642   7.450 -0.4023  0.6987 -0.0678
  388MOL0     C52287   0.423   5.629   7.442 -0.2371 -0.1588 -0.3829
  388MOL0     C52288   0.350   5.762   7.454 -0.3920  0.1292 -0.5691
  388MOL0     C52289   0.252   5.765   7.569  0.2310 -0.1176  0.3623
  388MOL0    Cl52290   0.167   5.922   7.541 -0.0861 -0.2738  0.0108
  388MOL0     C52291   1.312   5.455   7.565  0.9635 -0.0740  0.4468
  388MOL0     C52292   1.427   5.416   7.622 -0.1173 -1.2658 -0.1243
  388MOL0     O52293   1.628   5.175   7.660  0.3007  0.1219 -0.4150
  388MOL0     C52294   1.823   5.393   7.878 -0.6093 -0.8838  0.0869
  388MOL0     C52295   1.952   5.416   7.919  0.0694  0.0349 -0.2766
  388MOL0     N52296   2.527   4.956   7.892  0.4529  0.2357  0.5979
  388MOL0     N52297   2.633   4.897   7.857 -0.2823  0.2461  0.0608
  388MOL0     C52298   3.890   5.065   7.803  0.2295 -0.6039 -0.2402
  388MOL0     C52299   4.020   5.110   7.765  0.1900  0.7012 -0.7372
  388MOL0     C52300   4.315   5.379   7.553 -0.0658 -0.4313  0.1982
  388MOL0     C52301   4.388   5.288   7.476 -0.1478  0.1147  0.0672
  388MOL0     C52302   4.501   5.326   7.416 -0.0933  0.4517  0.0460
  388MOL0     C52303   4.544   5.458   7.416  0.3219 -0.1372  0.2541
  388MOL0     O52304   4.652   5.491   7.331  1.2177  0.3620  0.2566
  388MOL0     C52305   4.707   5.620   7.343 -0.0882 -0.2772 -0.0919
  388MOL0     C52306   4.825   5.628   7.247 -0.1707  0.2282  0.5243
  388MOL0     C52307   4.944   5.531   7.285 -0.6958  1.0501 -0.1070
  388MOL0     C52308   4.944   5.401   7.205  0.2829  0.6206 -1.0441
  388MOL0     C52309   5.049   5.306   7.244  0.3193  0.2125  0.2810
  388MOL0     C52310   5.144   5.242   7.277  0.6512 -0.2873  0.4234
  388MOL0     C52311   4.478   5.547   7.492  0.2040  0.6189 -0.1121
  388MOL0     C52312   4.373   5.511   7.572  0.6537  0.1730  0.9491
  388MOL0     H52313   3.926   5.267   7.475  2.6456 -0.1252  0.4615
  388MOL0     H52314   3.701   5.170   7.546 -2.5470 -1.4420  4.1277
  388MOL0     H52315   3.703   4.845   7.839  0.1580 -0.7362  0.6014
  388MOL0     H52316   3.678   4.975   7.955  0.4358  1.0284 -0.8018
  388MOL0     H52317   3.491   4.822   7.769  0.1497  1.7775 -0.5526
  388MOL0     H52318   3.497   4.805   7.950 -0.6214 -0.0735  1.0047
  388MOL0     H52319   3.386   5.023   7.967 -1.6447  0.0259 -0.5869
  388MOL0     H52320   3.405   5.053   7.793  1.4301  0.4294  1.1556
  388MOL0     H52321   3.239   4.855   7.782 -1.6138  0.4586  0.9244
  388MOL0     H52322   3.233   4.853   7.955 -1.0402 -0.2221  0.5920
  388MOL0     H52323   3.176   5.128   7.894 -0.7154 -0.9100  2.7197
  388MOL0     H52324   3.122   5.038   7.748  1.0163  0.9100  0.7394
  388MOL0     H52325   3.037   4.963   8.023 -0.3255 -2.3778 -0.3727
  388MOL0     H52326   2.951   5.088   7.927  2.3097  0.9688  0.4103
  388MOL0     H52327   3.004   4.832   7.784 -1.8711  0.1859 -2.8714
  388MOL0     H52328   2.877   4.826   7.899 -1.9895  0.9698 -1.2728
  388MOL0     H52329   2.829   4.893   7.656  0.6957 -0.5616  0.1249
  388MOL0     H52330   2.875   5.056   7.698 -2.9177  1.2262 -0.5115
  388MOL0     H52331   2.699   5.225   7.813 -2.1144  2.5777  0.3250
  388MOL0     H52332   2.479   5.281   7.957  0.2874  0.0632  0.8936
  388MOL0     H52333   2.375   5.209   7.832  0.2794  1.1359  0.3354
  388MOL0     H52334   2.396   5.058   8.078 -0.4971  0.0629  0.1252
  388MOL0     H52335   2.268   5.061   7.968  2.0970 -3.8003  1.7931
  388MOL0     H52336   2.277   5.217   8.210 -2.0558 -0.3498  0.5687
  388MOL0     H52337   2.148   5.157   8.105  1.2456 -3.1991 -2.7085
  388MOL0     H52338   2.314   5.405   8.070 -0.4465  2.0347 -0.1819
  388MOL0     H52339   2.142   5.404   8.104  0.0766  1.6786 -2.1687
  388MOL0     H52340   2.110   5.178   7.754  0.4481 -2.3587  1.6795
  388MOL0     H52341   1.972   5.004   7.708  1.5215  1.0803  1.9397
  388MOL0     H52342   1.796   5.002   7.733  3.9032 -4.0152  1.6044
  388MOL0     H52343   1.865   5.085   7.590  2.2666  1.6913 -0.0964
  388MOL0     H52344   1.337   5.318   7.935  2.0203 -1.0345  0.1388
  388MOL0     H52345   1.119   5.403   7.841 -0.0732  1.3603  0.0397
  388MOL0     H52346   1.052   5.516   7.395  0.2502  0.3404  0.1582
  388MOL0     H52347   1.094   5.351   7.440 -1.0177 -1.2589 -0.0919
  388MOL0     H52348   0.871   5.336   7.382 -0.2606  0.8384 -0.3385
  388MOL0     H52349   0.870   5.339   7.561 -1.1941  1.8748  2.1249
  388MOL0     H52350   0.833   5.595   7.377  1.0673 -1.1109 -0.0123
  388MOL0     H52351   0.836   5.592   7.549 -0.7152 -2.0623  1.4579
  388MOL0     H52352   0.641   5.448   7.363  2.6907 -0.3184 -1.2857
  388MOL0     H52353   0.623   5.449   7.538  1.0012 -0.2245 -0.4305
  388MOL0     H52354   0.608   5.702   7.365 -1.3728 -1.6969 -2.2285
  388MOL0     H52355   0.587   5.696   7.545 -4.7525  0.2561  0.9513
  388MOL0     H52356   0.395   5.580   7.348 -1.7888 -0.9867  0.4806
  388MOL0     H52357   0.385   5.578   7.531  0.7577  2.3220  1.5850
  388MOL0     H52358   0.299   5.793   7.362 -0.6349 -3.0623 -1.6243
  388MOL0     H52359   0.425   5.839   7.471  0.2206 -0.7534  1.0459
  388MOL0     H52360   0.301   5.770   7.666 -0.4792  0.7198  0.6917
  388MOL0     H52361   0.182   5.681   7.578 -1.0773  1.1866  3.5018
  388MOL0     H52362   1.320   5.490   7.463  1.6451  0.3318  0.6296
  388MOL0     H52363   1.514   5.426   7.559  0.3207 -0.4410  0.5945
  388MOL0     H52364   1.746   5.468   7.899 -0.5054 -0.2633 -1.5726
  388MOL0     H52365   1.967   5.508   7.976 -0.3655 -0.8584  1.3659
  388MOL0     H52366   3.880   5.008   7.895 -2.1183  0.5931  0.3430
  388MOL0     H52367   4.107   5.091   7.827  0.0836  1.3735 -0.3691
  388MOL0     H52368   4.347   5.190   7.452 -0.9391  0.8629 -1.8379
  388MOL0     H52369   4.555   5.255   7.354  0.7935  2.6626 -1.8577
  388MOL0     H52370   4.640   5.701   7.310 -0.1092 -0.5155 -0.6424
  388MOL0     H52371   4.727   5.643   7.448  0.1924 -1.6485  0.1727
  388MOL0     H52372   4.863   5.730   7.257 -0.3817  0.3718 -0.1022
  388MOL0     H52373   4.792   5.606   7.146  1.8728 -0.5072 -0.0389
  388MOL0     H52374   4.946   5.510   7.392  1.9685  1.8017  0.0722
  388MOL0     H52375   5.043   5.577   7.277  0.2956 -0.2224  3.1087
  388MOL0     H52376   4.955   5.430   7.100  0.1926  0.3321 -1.1324
  388MOL0     H52377   4.852   5.343   7.217  1.4720 -1.2493 -0.4962
  388MOL0     H52378   5.224   5.189   7.323  1.8217  1.9470  1.1341
  388MOL0     H52379   4.514   5.650   7.499 -0.4449  0.8887 -0.6278
  388MOL0     H52380   4.331   5.583   7.642 -2.3547  0.3463 -0.8457
  389MOL0     O52381  11.278   2.838   2.423  0.1442 -0.7799  0.7566
  389MOL0     C52382  11.348   2.838   2.321  0.1544 -0.4507 -0.2655
  389MOL0     O52383  11.302   2.873   2.197 -0.2308  0.2431 -0.7096
  389MOL0     C52384  11.173   2.905   2.176  0.0221  0.7915  0.0625
  389MOL0     C52385  11.078   2.810   2.210  0.1285  0.6224  0.5989
  389MOL0     C52386  10.939   2.828   2.189 -0.5215 -0.2192  0.3145
  389MOL0     C52387  10.896   2.946   2.129 -0.2546 -0.4131 -0.7482
  389MOL0     O52388  10.762   2.984   2.118 -0.2955  0.0641 -0.1770
  389MOL0     C52389  10.667   2.895   2.071  0.0653  0.6166 -0.3043
  389MOL0     C52390  10.610   2.817   2.185  0.1711  0.1640  0.0813
  389MOL0     C52391  10.488   2.734   2.135 -0.4193 -0.0447 -0.2778
  389MOL0     C52392  10.374   2.824   2.071  0.9669 -1.0842  0.1586
  389MOL0     C52393  10.229   2.757   2.062  0.3438 -0.5217 -0.1093
  389MOL0     C52394  10.167   2.740   2.203 -0.5139 -0.4412  0.2677
  389MOL0     C52395  10.027   2.687   2.184 -1.1067 -0.0721  0.7923
  389MOL0     C52396   9.931   2.803   2.148  0.0727 -0.4702 -0.4596
  389MOL0     N52397   9.811   2.748   2.091 -0.2907  0.2904 -0.5933
  389MOL0     C52398   9.698   2.733   2.171  0.6301  0.1689 -0.3098
  389MOL0     C52399   9.605   2.688   2.095 -0.0576  0.4751  0.0823
  389MOL0     C52400   9.462   2.659   2.125 -0.3704  0.1413  0.0435
  389MOL0     C52401   9.388   2.764   2.211 -0.7374 -0.3266 -0.3080
  389MOL0     C52402   9.242   2.716   2.243  0.0004 -0.1534 -0.1439
  389MOL0     C52403   9.142   2.806   2.316 -0.2202 -0.6604 -0.8617
  389MOL0     O52404   9.022   2.739   2.343 -0.4291 -0.5696 -0.7427
  389MOL0     C52405   8.919   2.748   2.255  0.4044  0.3219 -0.2917
  389MOL0     C52406   8.894   2.648   2.154 -0.0253  0.4491  0.2327
  389MOL0     C52407   8.777   2.643   2.089  1.0428  0.5087  0.7991
  389MOL0     C52408   8.769   2.548   1.964  1.3209 -0.5618 -0.4251
  389MOL0     C52409   8.671   2.725   2.131  0.3498 -0.0616  0.1683
  389MOL0     C52410   8.536   2.708   2.073 -0.5782  0.7829  0.0400
  389MOL0     O52411   8.442   2.781   2.122  0.7898 -0.1114 -0.0723
  389MOL0     C52412   8.316   2.769   2.071  0.9778 -0.5367 -0.6750
  389MOL0     C52413   8.265   2.721   1.938  0.1220 -0.2491 -0.2477
  389MOL0     C52414   8.126   2.712   1.916 -0.2548  0.0577 -0.1315
  389MOL0     C52415   8.036   2.737   2.014 -0.3182 -0.7245  0.5747
  389MOL0     O52416   7.904   2.713   1.977 -0.8275 -0.1711 -0.1002
  389MOL0     C52417   7.804   2.755   2.068  0.0524  0.2006 -0.3325
  389MOL0     C52418   7.680   2.714   2.008 -0.5438 -0.5421  1.2482
  389MOL0     C52419   7.553   2.713   2.091  0.0039  0.2975 -0.4095
  389MOL0     C52420   7.539   2.852   2.165  0.2119 -0.7794  0.2295
  389MOL0     C52421   7.387   2.871   2.201 -0.0518  0.3834 -0.7423
  389MOL0     C52422   7.371   2.992   2.290  0.4966 -0.3721 -0.7012
  389MOL0     C52423   7.218   2.982   2.332  0.3043  0.2050  0.0663
  389MOL0     C52424   7.171   3.106   2.422 -0.1178 -0.3375  0.6600
  389MOL0    Cl52425   7.003   3.086   2.456 -0.0294 -0.1127 -0.2059
  389MOL0     C52426   8.080   2.798   2.136 -0.6187  0.1599 -0.1448
  389MOL0     C52427   8.220   2.813   2.160  0.4746  0.0216 -0.5133
  389MOL0     O52428   8.512   2.609   2.001  0.5184 -0.3280 -0.4858
  389MOL0     C52429   8.695   2.827   2.222 -0.8244  0.3434 -0.0910
  389MOL0     C52430   8.819   2.840   2.280  0.2050  0.5278  0.5908
  389MOL0     N52431   9.659   2.673   1.969 -0.0913 -0.4091 -0.9638
  389MOL0     N52432   9.791   2.702   1.970  1.2586 -0.0068  0.8033
  389MOL0     C52433  10.993   3.047   2.095  0.8066  0.6600  0.0140
  389MOL0     C52434  11.125   3.026   2.117 -0.2080  0.5524  0.1494
  389MOL0     C52435  11.486   2.779   2.331  0.1006 -0.8013 -0.6664
  389MOL0     C52436  11.540   2.715   2.451  0.4512  0.1114 -0.1610
  389MOL0     C52437  11.671   2.660   2.450 -0.0495  0.3292 -0.6743
  389MOL0     C52438  11.760   2.675   2.347 -0.0013 -0.4563 -0.4530
  389MOL0     O52439  11.888   2.626   2.336  0.4182 -1.1934 -0.3787
  389MOL0     C52440  11.934   2.523   2.420  0.5205 -0.4117 -0.6227
  389MOL0     C52441  12.006   2.564   2.545 -0.4922 -1.1253 -1.0132
  389MOL0     C52442  12.071   2.706   2.527  0.7888 -0.5034 -0.2126
  389MOL0     C52443  12.147   2.739   2.658 -0.3941 -0.3501 -0.1553
  389MOL0     C52444  12.271   2.661   2.674  0.4105  0.5456 -0.4793
  389MOL0     C52445  12.387   2.628   2.690 -0.6035 -0.8722  0.1583
  389MOL0     C52446  11.705   2.737   2.234  0.2636 -0.1383  0.0204
  389MOL0     C52447  11.573   2.789   2.225  0.2649  0.0890  1.2261
  389MOL0     H52448  11.119   2.711   2.223 -2.2393 -0.5750 -0.3931
  389MOL0     H52449  10.876   2.741   2.208 -1.3550  0.2279 -0.3463
  389MOL0     H52450  10.590   2.959   2.029 -0.4154  1.9088  2.3171
  389MOL0     H52451  10.708   2.821   2.001 -0.7296  0.3847 -0.5328
  389MOL0     H52452  10.671   2.748   2.244 -0.6365  0.8988  1.8514
  389MOL0     H52453  10.579   2.888   2.262 -2.0600  0.7699 -1.2510
  389MOL0     H52454  10.520   2.645   2.081 -0.3402 -1.1485  1.4887
  389MOL0     H52455  10.460   2.684   2.228  2.8183  0.6857  1.2253
  389MOL0     H52456  10.372   2.923   2.117 -0.2605 -1.3109  0.6185
  389MOL0     H52457  10.398   2.849   1.967  1.9308  2.3702  1.1030
  389MOL0     H52458  10.169   2.822   1.998  1.8084  1.6454  0.6140
  389MOL0     H52459  10.253   2.663   2.011 -1.0408  0.1508 -2.1242
  389MOL0     H52460  10.223   2.658   2.249  2.0906  0.6892 -0.7237
  389MOL0     H52461  10.181   2.828   2.267  1.9752 -2.0489  2.1339
  389MOL0     H52462  10.017   2.603   2.115 -0.5725 -0.8191  1.6017
  389MOL0     H52463   9.991   2.633   2.272 -0.9498 -2.0587 -0.3067
  389MOL0     H52464   9.974   2.867   2.070 -0.7451 -1.7616 -2.0419
  389MOL0     H52465   9.907   2.859   2.239  0.5729 -0.3040 -0.4263
  389MOL0     H52466   9.694   2.749   2.279  1.5357  0.8085 -0.3622
  389MOL0     H52467   9.408   2.637   2.032 -0.5925 -0.9054  0.4086
  389MOL0     H52468   9.457   2.559   2.169  1.8534 -0.9716 -2.0133
  389MOL0     H52469   9.386   2.858   2.156 -2.2749  0.0218  0.2931
  389MOL0     H52470   9.447   2.767   2.304  0.7228 -1.4166 -1.1517
  389MOL0     H52471   9.240   2.630   2.311 -1.0224  1.2507  1.6884
  389MOL0     H52472   9.194   2.686   2.149 -2.2801 -1.5594  1.3660
  389MOL0     H52473   9.131   2.890   2.247  2.8076  0.8915  0.3611
  389MOL0     H52474   9.184   2.846   2.409  1.1284 -1.4570 -1.0966
  389MOL0     H52475   8.975   2.576   2.153 -0.6183 -0.3830  2.7952
  389MOL0     H52476   8.728   2.600   1.877 -1.4761 -1.4542  0.2608
  389MOL0     H52477   8.873   2.521   1.941  1.8469  0.8482  0.2095
  389MOL0     H52478   8.704   2.461   1.976 -1.7967  1.2552 -2.5196
  389MOL0     H52479   8.334   2.697   1.858  1.2809 -4.7751  1.7602
  389MOL0     H52480   8.092   2.661   1.826  1.2553 -1.1840 -0.0483
  389MOL0     H52481   7.809   2.704   2.165 -2.5037 -0.9255 -0.6994
  389MOL0     H52482   7.810   2.863   2.087  2.9483  0.5351 -2.5938
  389MOL0     H52483   7.659   2.766   1.914 -0.4344 -0.0972  1.4658
  389MOL0     H52484   7.695   2.609   1.983  0.0322 -0.2698  0.4220
  389MOL0     H52485   7.551   2.630   2.163  0.4668 -0.0803 -0.8250
  389MOL0     H52486   7.469   2.699   2.022  0.7676 -0.2450 -1.2520
  389MOL0     H52487   7.601   2.861   2.255  0.3900 -0.6977  0.1000
  389MOL0     H52488   7.570   2.930   2.096 -1.0995 -1.2854 -0.9816
  389MOL0     H52489   7.346   2.790   2.261  3.4615 -0.9112  0.1493
  389MOL0     H52490   7.326   2.877   2.111  1.8445 -1.6620 -2.2845
  389MOL0     H52491   7.448   2.971   2.365  0.6458  0.3449 -0.6483
  389MOL0     H52492   7.385   3.089   2.241  1.7564 -1.7339 -3.2517
  389MOL0     H52493   7.198   2.890   2.388  0.2743 -0.5767 -1.1990
  389MOL0     H52494   7.153   2.987   2.245 -0.5976 -1.8778  0.5459
  389MOL0     H52495   7.211   3.191   2.365  1.5338 -2.2503 -1.2132
  389MOL0     H52496   7.221   3.107   2.519 -1.8314  1.4450  1.5835
  389MOL0     H52497   8.015   2.829   2.217 -0.8912  3.0985 -1.3748
  389MOL0     H52498   8.256   2.852   2.254  0.2563 -1.4173  0.1886
  389MOL0     H52499   8.621   2.902   2.247 -0.6690  1.0751 -1.6597
  389MOL0     H52500   8.847   2.923   2.344  0.1051 -0.3655  1.8265
  389MOL0     H52501  10.955   3.140   2.052  0.7864 -0.0343 -1.5393
  389MOL0     H52502  11.205   3.099   2.108  1.1101 -0.6800  1.5023
  389MOL0     H52503  11.477   2.707   2.538  1.1241  4.5782  0.9687
  389MOL0     H52504  11.710   2.625   2.546  1.8367  1.8685 -0.8295
  389MOL0     H52505  11.849   2.458   2.441 -0.9696  1.1636 -1.5167
  389MOL0     H52506  12.012   2.474   2.360  0.1416 -1.4792 -0.2531
  389MOL0     H52507  12.076   2.489   2.585 -0.6621 -0.8374 -0.1517
  389MOL0     H52508  11.928   2.569   2.621 -0.9433 -0.7679 -1.4890
  389MOL0     H52509  12.002   2.788   2.505  2.6765  0.6470 -2.2465
  389MOL0     H52510  12.138   2.705   2.440 -1.5131 -0.2265 -2.0784
  389MOL0     H52511  12.078   2.709   2.738 -1.5762 -2.5445 -1.8849
  389MOL0     H52512  12.165   2.847   2.659 -2.4225  0.0242 -0.6197
  389MOL0     H52513  12.492   2.607   2.682  0.3530  0.9517  4.8604
  389MOL0     H52514  11.773   2.752   2.150  1.2181 -0.8578  0.6461
  389MOL0     H52515  11.532   2.823   2.130 -2.1545 -0.1659  2.1183
  390MOL0     O52516   4.736   4.619   1.448  0.0862  0.4764  0.2406
  390MOL0     C52517   4.653   4.549   1.384  0.6473 -0.1455 -1.0636
  390MOL0     O52518   4.522   4.577   1.370 -0.3337  0.1304 -0.1504
  390MOL0     C52519   4.452   4.666   1.456 -0.2024 -0.0535  0.7681
  390MOL0     C52520   4.313   4.670   1.441  0.2052 -0.0003 -0.1973
  390MOL0     C52521   4.236   4.745   1.527  0.0613 -1.0120  0.2491
  390MOL0     C52522   4.283   4.823   1.632  0.0160  0.4687  0.8202
  390MOL0     O52523   4.207   4.902   1.713  0.5540  0.1263  0.2256
  390MOL0     C52524   4.069   4.877   1.738  0.2512 -0.4967  0.8250
  390MOL0     C52525   4.023   4.920   1.869 -0.6807  0.3495 -0.1354
  390MOL0     C52526   3.892   4.861   1.908  0.6899  0.0996  0.1707
  390MOL0     C52527   3.776   4.950   1.849 -0.1444 -0.1085  0.5174
  390MOL0     C52528   3.633   4.898   1.896  0.6950 -0.7735 -0.2289
  390MOL0     C52529   3.611   4.749   1.858  0.7140 -0.7748  0.0811
  390MOL0     C52530   3.490   4.684   1.932  0.0408 -0.3154 -0.5165
  390MOL0     C52531   3.345   4.725   1.888  0.3038 -0.8759 -0.2195
  390MOL0     N52532   3.252   4.628   1.927  0.6702 -0.4657 -0.6825
  390MOL0     C52533   3.228   4.501   1.874  0.0689 -0.3096  0.4011
  390MOL0     C52534   3.144   4.433   1.960 -0.5943  0.1073  0.5242
  390MOL0     C52535   3.094   4.294   1.947 -0.8283 -0.4295  0.2351
  390MOL0     C52536   2.999   4.296   1.831  0.7023 -0.6063 -0.9472
  390MOL0     C52537   2.867   4.377   1.861 -0.1944  0.7099 -0.0686
  390MOL0     C52538   2.754   4.346   1.771  0.3015  1.1329 -0.3597
  390MOL0     O52539   2.723   4.205   1.758 -0.2155 -0.5794 -0.2657
  390MOL0     C52540   2.606   4.162   1.712 -0.0601  0.7518 -0.0420
  390MOL0     C52541   2.566   4.028   1.737 -0.1777 -0.1596 -0.0383
  390MOL0     C52542   2.440   3.984   1.691 -0.0596 -0.2767  0.4623
  390MOL0     C52543   2.411   3.838   1.711 -1.2701  0.1510  0.0085
  390MOL0     C52544   2.354   4.075   1.622 -0.3816 -0.4433 -0.1446
  390MOL0     C52545   2.217   4.031   1.586  0.0457  0.4670  0.7700
  390MOL0     O52546   2.126   4.126   1.581 -0.0256 -0.4278  0.3246
  390MOL0     C52547   1.993   4.092   1.574  0.4272 -1.4893 -0.2849
  390MOL0     C52548   1.913   4.187   1.501  0.4600  0.3859 -0.5089
  390MOL0     C52549   1.778   4.159   1.482  0.6962 -0.4706  0.1379
  390MOL0     C52550   1.706   4.055   1.544  0.7528  0.2660 -1.0091
  390MOL0     O52551   1.568   4.032   1.542 -0.3721 -0.1890  0.5894
  390MOL0     C52552   1.508   4.096   1.432 -0.2376 -0.4143  0.6057
  390MOL0     C52553   1.358   4.071   1.442 -0.1831  0.1706  0.7139
  390MOL0     C52554   1.265   4.174   1.364  0.6887  0.5379  0.2447
  390MOL0     C52555   1.121   4.129   1.367  0.8887 -0.1721  0.4048
  390MOL0     C52556   1.037   4.177   1.486  0.1938 -0.3121 -0.9205
  390MOL0     C52557   1.016   4.330   1.502  0.0114  0.5561  0.1775
  390MOL0     C52558   0.957   4.351   1.636 -0.0930 -0.3697 -0.2573
  390MOL0     C52559   0.967   4.497   1.698 -0.1706  0.1279  0.4909
  390MOL0    Cl52560   1.124   4.544   1.781  0.1591 -0.2374  0.0997
  390MOL0     C52561   1.787   3.956   1.614  0.1705  0.1419 -0.6260
  390MOL0     C52562   1.923   3.979   1.631  0.3619  0.7178 -0.5660
  390MOL0     O52563   2.191   3.909   1.554  0.2049 -1.2665 -0.1561
  390MOL0     C52564   2.401   4.205   1.588  0.0845  0.3253 -0.1351
  390MOL0     C52565   2.521   4.250   1.636 -0.4412 -0.4500 -0.1004
  390MOL0     N52566   3.114   4.527   2.060  0.3389 -0.3740 -0.0148
  390MOL0     N52567   3.166   4.641   2.033  0.2881 -0.3032 -0.1313
  390MOL0     C52568   4.420   4.835   1.641  0.5709 -0.0495  0.8008
  390MOL0     C52569   4.500   4.757   1.562 -0.4541 -0.6597  0.1449
  390MOL0     C52570   4.703   4.422   1.328 -0.2491 -0.0579 -0.7179
  390MOL0     C52571   4.833   4.413   1.281 -0.1702  0.4624  0.2814
  390MOL0     C52572   4.888   4.287   1.231  0.1241 -0.4429 -0.7098
  390MOL0     C52573   4.818   4.171   1.245 -0.6175 -0.5227 -0.0839
  390MOL0     O52574   4.871   4.048   1.227  0.1707  0.1797  0.4155
  390MOL0     C52575   4.864   4.004   1.091 -0.3967 -0.1841 -1.6899
  390MOL0     C52576   4.721   3.991   1.023 -0.1434  0.4826  0.7148
  390MOL0     C52577   4.745   3.946   0.873  0.4715 -0.2821  0.2921
  390MOL0     C52578   4.617   3.917   0.809  0.9022  0.5112  0.0824
  390MOL0     C52579   4.538   4.035   0.769 -0.0220  0.2818 -0.3208
  390MOL0     C52580   4.469   4.127   0.742 -0.2085  0.2524  0.5768
  390MOL0     C52581   4.687   4.180   1.299  0.5101  1.3356 -0.2592
  390MOL0     C52582   4.625   4.302   1.341  0.4731 -0.1661 -0.5087
  390MOL0     H52583   4.256   4.612   1.369  2.2273 -0.0916 -1.8375
  390MOL0     H52584   4.129   4.726   1.525  0.0599 -0.9503 -0.4739
  390MOL0     H52585   4.000   4.930   1.671  1.2391  4.1598  3.0386
  390MOL0     H52586   4.065   4.768   1.732  1.2184 -0.5866  1.6043
  390MOL0     H52587   4.099   4.886   1.941 -1.0841  0.2863  0.2694
  390MOL0     H52588   4.019   5.029   1.877 -1.6194  0.5547 -2.7114
  390MOL0     H52589   3.898   4.757   1.873  0.2614  0.1875 -0.1816
  390MOL0     H52590   3.896   4.865   2.017  1.9449  1.7813  0.0901
  390MOL0     H52591   3.785   5.057   1.870 -1.0900 -0.0840  0.8170
  390MOL0     H52592   3.778   4.939   1.740 -1.9175  0.7844  0.3742
  390MOL0     H52593   3.632   4.902   2.005 -1.5099 -1.0824 -0.1873
  390MOL0     H52594   3.552   4.957   1.852  0.8403 -0.8921 -0.6640
  390MOL0     H52595   3.612   4.733   1.749  0.3930  2.5102 -0.4964
  390MOL0     H52596   3.684   4.679   1.899 -1.8737 -2.6894  1.7162
  390MOL0     H52597   3.496   4.576   1.921  0.5831 -0.3709  0.2019
  390MOL0     H52598   3.507   4.698   2.040 -2.6338 -3.5498  0.5020
  390MOL0     H52599   3.327   4.743   1.781  0.8992  2.2763  0.1259
  390MOL0     H52600   3.325   4.819   1.940 -0.1650 -1.9989  1.7060
  390MOL0     H52601   3.269   4.446   1.790  1.8292 -1.4980  1.9653
  390MOL0     H52602   3.184   4.234   1.935  0.4686  1.0942  1.7063
  390MOL0     H52603   3.037   4.256   2.032  0.4878 -1.6430  0.5959
  390MOL0     H52604   2.972   4.191   1.815 -0.3739 -0.4654 -0.1715
  390MOL0     H52605   3.048   4.338   1.743 -1.4911  2.1395 -0.9960
  390MOL0     H52606   2.892   4.483   1.859 -2.3172  1.3460  2.4554
  390MOL0     H52607   2.841   4.355   1.965  0.0774  0.4142 -0.0599
  390MOL0     H52608   2.758   4.398   1.674 -6.4160  2.1138 -0.5999
  390MOL0     H52609   2.668   4.392   1.820 -0.3253 -2.2678  2.0247
  390MOL0     H52610   2.642   3.970   1.788 -0.0025 -2.4113 -2.6487
  390MOL0     H52611   2.321   3.815   1.768  0.2873 -3.4244  1.3248
  390MOL0     H52612   2.406   3.779   1.620 -1.6235  0.3627 -0.1094
  390MOL0     H52613   2.487   3.798   1.779 -1.8279  1.0034  1.1933
  390MOL0     H52614   1.952   4.272   1.447  1.0902  1.5060  1.5764
  390MOL0     H52615   1.723   4.229   1.420 -1.6552 -0.7511  1.7979
  390MOL0     H52616   1.515   4.202   1.457 -0.7323 -0.0945 -0.5431
  390MOL0     H52617   1.549   4.069   1.334 -0.5685 -0.4246  0.4690
  390MOL0     H52618   1.335   3.977   1.392 -0.2884  0.9948 -0.8569
  390MOL0     H52619   1.315   4.067   1.542 -2.3121  0.1519 -0.1395
  390MOL0     H52620   1.295   4.171   1.258 -0.6803 -0.0296 -0.1442
  390MOL0     H52621   1.284   4.274   1.405 -1.2813  1.4137 -0.8100
  390MOL0     H52622   1.067   4.153   1.275 -1.3886 -0.4797  1.6013
  390MOL0     H52623   1.132   4.021   1.363  1.8007 -0.1625  1.7771
  390MOL0     H52624   1.086   4.126   1.569 -1.2427 -0.6115 -0.2175
  390MOL0     H52625   0.933   4.143   1.479 -0.5211  1.0653  1.5297
  390MOL0     H52626   1.108   4.389   1.499  0.0321  0.5192  0.0955
  390MOL0     H52627   0.955   4.359   1.416 -0.8092 -1.4495  0.0038
  390MOL0     H52628   1.016   4.295   1.710  0.9209  2.0538  0.8656
  390MOL0     H52629   0.853   4.315   1.639  0.0815 -0.8480  0.2133
  390MOL0     H52630   0.892   4.510   1.776 -1.8656  0.7776 -1.1696
  390MOL0     H52631   0.950   4.577   1.626  1.4536  1.2557  1.2944
  390MOL0     H52632   1.742   3.865   1.654 -3.0777  1.4410 -1.0140
  390MOL0     H52633   1.984   3.914   1.692  1.2393  2.1740  0.1655
  390MOL0     H52634   2.351   4.281   1.529 -0.1042 -0.2588 -0.7417
  390MOL0     H52635   2.560   4.349   1.611  1.0698 -1.0439 -0.2269
  390MOL0     H52636   4.455   4.905   1.717 -1.0338 -0.0468  1.5924
  390MOL0     H52637   4.608   4.772   1.569 -0.3044 -1.1148 -0.8737
  390MOL0     H52638   4.903   4.496   1.282  0.3373  0.1786 -2.6025
  390MOL0     H52639   4.992   4.289   1.200  0.0283  0.3079 -1.0130
  390MOL0     H52640   4.904   4.083   1.027 -0.2026  0.9394 -0.2387
  390MOL0     H52641   4.911   3.906   1.076  0.7664  0.2467 -0.9932
  390MOL0     H52642   4.672   4.088   1.035  1.8668  1.5360  0.8885
  390MOL0     H52643   4.661   3.909   1.063  1.0913 -0.4584  0.6951
  390MOL0     H52644   4.801   3.853   0.879  1.9674  0.4915 -1.0495
  390MOL0     H52645   4.796   4.020   0.810  0.1283 -0.3411 -0.0574
  390MOL0     H52646   4.553   3.853   0.871 -0.8517  0.0374 -2.1273
  390MOL0     H52647   4.640   3.858   0.720  0.5875  1.7888 -0.8800
  390MOL0     H52648   4.400   4.204   0.717 -2.1124 -0.4106  3.3810
  390MOL0     H52649   4.624   4.091   1.303  0.4359  1.4061  0.1436
  390MOL0     H52650   4.525   4.296   1.382  0.5946 -1.0299 -0.3148
  391MOL0     O52651   0.650   8.075   0.682  0.0133  0.2152  0.0518
  391MOL0     C52652   0.696   8.051   0.572 -0.3443 -0.1703  0.1172
  391MOL0     O52653   0.624   8.050   0.456 -0.9885 -0.4262 -0.0539
  391MOL0     C52654   0.497   8.006   0.444  0.3697 -1.1258  0.5684
  391MOL0     C52655   0.423   7.935   0.535 -0.0790  0.5312  0.2205
  391MOL0     C52656   0.302   7.875   0.504  0.0878  0.0941 -0.0250
  391MOL0     C52657   0.240   7.901   0.384  0.4601 -0.7993  0.0924
  391MOL0     O52658   0.108   7.847   0.357  0.2615 -0.1770  0.3504
  391MOL0     C52659   0.003   7.952   0.359  0.6377 -0.0359  0.8729
  391MOL0     C52660  -0.141   7.892   0.345 -0.0757 -0.5323  0.5296
  391MOL0     C52661  -0.167   7.826   0.205  0.0714 -0.7223  1.4680
  391MOL0     C52662  -0.306   7.765   0.184 -0.8831  0.2964 -0.5329
  391MOL0     C52663  -0.319   7.651   0.074 -0.1433  0.5732 -0.4638
  391MOL0     C52664  -0.442   7.567   0.084 -0.0520  0.2847  0.6437
  391MOL0     C52665  -0.574   7.641   0.103 -0.7644  1.0646 -0.3422
  391MOL0     C52666  -0.607   7.725  -0.021  0.2435  0.1110  0.2104
  391MOL0     N52667  -0.721   7.808  -0.006  0.2747 -0.3131 -0.4651
  391MOL0     C52668  -0.850   7.769   0.025 -0.0543 -0.5381 -0.7019
  391MOL0     C52669  -0.927   7.884   0.031 -0.7929  0.2505  0.3461
  391MOL0     C52670  -1.070   7.890   0.077  0.0031 -0.5450  0.1328
  391MOL0     C52671  -1.158   7.781   0.021 -0.6256 -0.0980  0.2181
  391MOL0     C52672  -1.297   7.795   0.072  0.1791  0.2727 -1.0844
  391MOL0     C52673  -1.398   7.683   0.041 -0.6504  0.7934 -0.0171
  391MOL0     O52674  -1.407   7.648  -0.099  0.6015 -0.2989  0.2923
  391MOL0     C52675  -1.489   7.709  -0.181  0.1757  0.3056  0.3558
  391MOL0     C52676  -1.493   7.658  -0.310 -0.0594  0.4235  0.1208
  391MOL0     C52677  -1.573   7.705  -0.413 -0.4327 -0.0748  0.2068
  391MOL0     C52678  -1.571   7.612  -0.528 -0.1807 -0.0836  0.6205
  391MOL0     C52679  -1.658   7.817  -0.379  0.0872  0.5768  0.5668
  391MOL0     C52680  -1.748   7.878  -0.476 -0.1261  0.0528 -0.1616
  391MOL0     O52681  -1.839   7.962  -0.425 -0.1097 -0.4108 -0.0856
  391MOL0     C52682  -1.934   8.026  -0.505 -0.2865  0.9090 -0.2995
  391MOL0     C52683  -1.907   8.071  -0.632 -0.1353 -0.7886  0.5979
  391MOL0     C52684  -2.016   8.127  -0.705 -0.4629  0.3258  0.2478
  391MOL0     C52685  -2.146   8.126  -0.651  0.1659  0.1162  0.1173
  391MOL0     O52686  -2.244   8.210  -0.704  0.1404  0.4284 -0.4804
  391MOL0     C52687  -2.356   8.155  -0.766  0.2842  0.5446 -0.0913
  391MOL0     C52688  -2.482   8.215  -0.709 -0.6969 -0.1446 -1.4477
  391MOL0     C52689  -2.602   8.181  -0.792 -0.2112 -0.1161  0.4955
  391MOL0     C52690  -2.740   8.249  -0.758 -0.6826  0.3883  0.7582
  391MOL0     C52691  -2.849   8.219  -0.857  0.3201 -0.4402  0.0476
  391MOL0     C52692  -2.978   8.294  -0.826 -0.1162  1.0241  0.6540
  391MOL0     C52693  -3.029   8.287  -0.678 -0.3184 -0.0327  0.6868
  391MOL0     C52694  -3.075   8.148  -0.659  0.1543  0.1248  0.0514
  391MOL0    Cl52695  -3.171   8.147  -0.514 -0.0928 -0.0725 -0.1449
  391MOL0     C52696  -2.170   8.086  -0.518  0.8931  0.4225 -0.4801
  391MOL0     C52697  -2.061   8.025  -0.448  0.4599  0.3048  0.9631
  391MOL0     O52698  -1.739   7.838  -0.595  0.4297  0.9477 -0.2434
  391MOL0     C52699  -1.653   7.873  -0.249  0.4234  0.0520  0.5282
  391MOL0     C52700  -1.570   7.819  -0.150 -1.0351 -0.8230 -0.4002
  391MOL0     N52701  -0.840   7.990   0.012  0.3921  0.0922 -0.0935
  391MOL0     N52702  -0.720   7.944  -0.009  1.0622  0.5567  0.2840
  391MOL0     C52703   0.308   7.981   0.294  0.1188 -0.3050  0.0049
  391MOL0     C52704   0.437   8.028   0.322  0.7598  0.3014  0.3281
  391MOL0     C52705   0.843   8.039   0.561  0.4761  0.5891 -0.1811
  391MOL0     C52706   0.926   8.025   0.663  0.1901  0.2006 -0.3686
  391MOL0     C52707   1.065   8.008   0.647  0.5358  0.0237 -0.7644
  391MOL0     C52708   1.120   8.019   0.514  0.2586  0.7575 -0.9257
  391MOL0     O52709   1.255   7.991   0.493 -0.5207 -1.1074 -0.0899
  391MOL0     C52710   1.333   8.099   0.449 -0.7771  0.4965 -0.2163
  391MOL0     C52711   1.331   8.209   0.553 -0.9938 -0.3099 -0.3774
  391MOL0     C52712   1.412   8.169   0.679  0.0983  1.2264  0.0792
  391MOL0     C52713   1.568   8.181   0.655 -0.4545 -0.5031 -0.2411
  391MOL0     C52714   1.645   8.134   0.768 -0.2525 -0.1630  0.2342
  391MOL0     C52715   1.713   8.105   0.868 -0.3549  0.0216  0.1047
  391MOL0     C52716   1.040   8.044   0.408  0.3600  1.1020 -0.3987
  391MOL0     C52717   0.905   8.053   0.431 -0.6114  0.2495  0.6771
  391MOL0     H52718   0.462   7.915   0.634 -1.2300  2.0484  1.0193
  391MOL0     H52719   0.261   7.809   0.580  1.2040 -0.6665 -0.0569
  391MOL0     H52720   0.022   8.002   0.455 -2.3153  2.2134  0.4381
  391MOL0     H52721   0.019   8.022   0.277  0.7340  0.9470  1.6994
  391MOL0     H52722  -0.158   7.818   0.423 -2.0367 -0.7431 -0.0428
  391MOL0     H52723  -0.211   7.976   0.356 -1.1187 -1.3615  0.3307
  391MOL0     H52724  -0.155   7.906   0.131 -3.2294 -0.0180  1.5637
  391MOL0     H52725  -0.085   7.754   0.195  2.8801  2.2971  0.7007
  391MOL0     H52726  -0.328   7.710   0.275  1.0773  2.5652  1.4441
  391MOL0     H52727  -0.382   7.843   0.177 -0.9198  0.3369  0.2184
  391MOL0     H52728  -0.315   7.698  -0.025  0.1058 -0.5549 -1.0082
  391MOL0     H52729  -0.232   7.585   0.065  1.3470  2.4812 -0.7171
  391MOL0     H52730  -0.448   7.509  -0.009 -0.4923  1.6253 -0.1940
  391MOL0     H52731  -0.423   7.505   0.173  2.0422  2.1511  1.5966
  391MOL0     H52732  -0.658   7.573   0.120  0.6593 -0.9190 -0.8989
  391MOL0     H52733  -0.568   7.688   0.202 -1.8459 -1.0573  0.7987
  391MOL0     H52734  -0.619   7.663  -0.110  0.4544  0.6782 -0.2272
  391MOL0     H52735  -0.523   7.793  -0.040  1.6859 -1.2657  1.3920
  391MOL0     H52736  -0.877   7.666   0.047  1.4644 -0.3287  2.8782
  391MOL0     H52737  -1.070   7.902   0.186 -3.9313  0.8258  0.1326
  391MOL0     H52738  -1.111   7.987   0.048  2.5092  0.2425 -0.9937
  391MOL0     H52739  -1.115   7.683   0.045  1.8145  0.8083 -0.2498
  391MOL0     H52740  -1.161   7.781  -0.088  1.1195  1.1854  0.1398
  391MOL0     H52741  -1.344   7.886   0.036 -2.2128  0.1428  1.4125
  391MOL0     H52742  -1.290   7.800   0.181  1.3204 -0.1324 -1.1178
  391MOL0     H52743  -1.493   7.723   0.078 -0.0460  1.5050  0.8058
  391MOL0     H52744  -1.366   7.594   0.097  3.4933  1.6001 -0.7848
  391MOL0     H52745  -1.427   7.574  -0.328 -2.2954 -1.3066 -0.4418
  391MOL0     H52746  -1.664   7.606  -0.587  0.8298  0.6179 -1.1251
  391MOL0     H52747  -1.494   7.643  -0.599  0.6140  2.5086  2.4477
  391MOL0     H52748  -1.548   7.512  -0.492  0.2525 -0.1786  0.0826
  391MOL0     H52749  -1.807   8.069  -0.674  0.8443  1.5080  2.5707
  391MOL0     H52750  -1.985   8.157  -0.804 -0.9104 -0.7848 -0.2477
  391MOL0     H52751  -2.348   8.186  -0.871  0.8389  1.6523  0.2636
  391MOL0     H52752  -2.356   8.047  -0.749 -1.5639  0.6240  0.6864
  391MOL0     H52753  -2.507   8.192  -0.605 -0.0146  1.0725 -0.9971
  391MOL0     H52754  -2.480   8.324  -0.716 -0.8460  0.4019  3.4876
  391MOL0     H52755  -2.621   8.074  -0.795  0.4149 -0.2500  1.1041
  391MOL0     H52756  -2.575   8.211  -0.894  2.1764  0.6359  1.2827
  391MOL0     H52757  -2.781   8.215  -0.663  1.0495 -1.4811  0.9068
  391MOL0     H52758  -2.726   8.357  -0.767 -4.2672  0.8693 -1.4779
  391MOL0     H52759  -2.867   8.112  -0.846  1.1812 -0.6924 -0.8597
  391MOL0     H52760  -2.829   8.235  -0.963 -1.0550 -0.5772 -0.2555
  391MOL0     H52761  -2.968   8.400  -0.851  0.8894  1.1869  1.6350
  391MOL0     H52762  -3.062   8.252  -0.881  0.1015 -1.5495  2.1349
  391MOL0     H52763  -3.111   8.359  -0.675  0.2029  0.6341 -0.5517
  391MOL0     H52764  -2.952   8.323  -0.610 -0.1887  1.5353 -0.2469
  391MOL0     H52765  -2.985   8.087  -0.653  1.6197  2.1815 -0.0275
  391MOL0     H52766  -3.128   8.112  -0.747  1.0967 -0.2329 -0.3799
  391MOL0     H52767  -2.273   8.098  -0.487  1.1110  1.5374 -0.1605
  391MOL0     H52768  -2.084   7.985  -0.350  0.5675 -1.6330  0.2355
  391MOL0     H52769  -1.707   7.964  -0.226  1.4076  0.2833  2.0013
  391MOL0     H52770  -1.556   7.869  -0.054 -1.1710  0.9232 -1.2586
  391MOL0     H52771   0.265   8.011   0.200  0.6324  0.8169  0.1068
  391MOL0     H52772   0.489   8.085   0.245  1.1558  0.6642  0.8593
  391MOL0     H52773   0.878   8.007   0.759  0.1351  0.1827 -0.3999
  391MOL0     H52774   1.112   7.991   0.743 -0.2122  2.3813  0.0978
  391MOL0     H52775   1.437   8.068   0.430 -0.3639  0.7967  1.3964
  391MOL0     H52776   1.305   8.139   0.351  0.2220 -0.3971 -0.8912
  391MOL0     H52777   1.234   8.256   0.569 -0.2411  1.0026  0.4660
  391MOL0     H52778   1.381   8.295   0.508 -1.8216 -0.8532 -2.4624
  391MOL0     H52779   1.390   8.067   0.712  4.2579 -0.0161 -0.3412
  391MOL0     H52780   1.384   8.245   0.753 -3.0547  2.4537 -2.1655
  391MOL0     H52781   1.585   8.289   0.647 -0.5767 -0.4733 -0.0952
  391MOL0     H52782   1.610   8.140   0.563 -0.9707 -0.5956 -0.4408
  391MOL0     H52783   1.769   8.075   0.955 -3.7425 -0.0116  2.4792
  391MOL0     H52784   1.075   8.052   0.305 -1.8750 -2.4669 -1.5965
  391MOL0     H52785   0.840   8.070   0.346 -1.0907  1.6151  1.2903
  392MOL0     O52786   6.299   5.571   9.698  0.2745 -0.2573  0.1991
  392MOL0     C52787   6.355   5.682   9.710 -0.2913  0.0610 -0.2412
  392MOL0     O52788   6.294   5.798   9.690 -0.5167  0.3916  0.2474
  392MOL0     C52789   6.155   5.797   9.684 -0.5869 -0.9076 -0.2573
  392MOL0     C52790   6.089   5.821   9.563 -0.0652  0.6397  0.4172
  392MOL0     C52791   5.948   5.830   9.561  0.0258 -0.5574  0.1746
  392MOL0     C52792   5.872   5.797   9.674 -0.1957 -0.5903  0.2815
  392MOL0     O52793   5.737   5.787   9.665 -0.1105 -0.3483 -0.0175
  392MOL0     C52794   5.701   5.655   9.627  0.1220 -0.2992 -0.1674
  392MOL0     C52795   5.553   5.654   9.601  0.3178  0.1765  0.2141
  392MOL0     C52796   5.493   5.509   9.606 -0.8040  0.2839  0.1718
  392MOL0     C52797   5.344   5.510   9.616 -0.0528  1.3579  0.2954
  392MOL0     C52798   5.301   5.367   9.650 -0.2280 -0.3275 -0.0172
  392MOL0     C52799   5.144   5.359   9.656  0.0627  0.5545  0.1069
  392MOL0     C52800   5.122   5.217   9.713  0.2491 -0.1909 -0.5665
  392MOL0     C52801   5.011   5.146   9.637  0.2418 -0.2152  0.1833
  392MOL0     N52802   4.883   5.218   9.655  0.2369 -0.0860  0.1530
  392MOL0     C52803   4.812   5.283   9.556  0.1251  0.2222 -0.6820
  392MOL0     C52804   4.703   5.329   9.627 -0.2316 -0.2862  0.4349
  392MOL0     C52805   4.601   5.429   9.574  0.1804  0.4397 -0.5371
  392MOL0     C52806   4.511   5.348   9.465  0.7696  0.0455 -0.3610
  392MOL0     C52807   4.406   5.272   9.545  0.1696  0.1046 -0.1521
  392MOL0     C52808   4.321   5.194   9.439 -0.7493  0.4868  0.2636
  392MOL0     O52809   4.227   5.277   9.379  0.1571  0.5462 -0.6439
  392MOL0     C52810   4.101   5.294   9.428  0.4021  0.9863 -0.1285
  392MOL0     C52811   4.041   5.233   9.543 -0.4715 -0.6676  0.1877
  392MOL0     C52812   3.901   5.235   9.576 -0.0512 -0.3587  0.1114
  392MOL0     C52813   3.854   5.158   9.696 -0.4146 -0.0094 -0.2871
  392MOL0     C52814   3.816   5.302   9.477  0.1115  0.2101 -0.0900
  392MOL0     C52815   3.663   5.307   9.493 -0.8930 -0.5810 -0.4744
  392MOL0     O52816   3.584   5.355   9.387  0.2997  0.1985  0.0953
  392MOL0     C52817   3.449   5.358   9.414  0.2374 -0.3643  0.9986
  392MOL0     C52818   3.363   5.475   9.400  0.2743 -0.3231  0.5865
  392MOL0     C52819   3.227   5.474   9.432 -0.3073 -0.2152 -1.1701
  392MOL0     C52820   3.164   5.350   9.456  0.0804  0.7312  0.2569
  392MOL0     O52821   3.030   5.351   9.475 -0.1199  1.0461  0.1020
  392MOL0     C52822   2.971   5.227   9.511 -1.1263 -0.2283 -0.3884
  392MOL0     C52823   2.819   5.259   9.538  0.4671 -0.3033  0.7078
  392MOL0     C52824   2.804   5.335   9.671  0.1209  0.1373 -0.2997
  392MOL0     C52825   2.676   5.416   9.667  0.4272  0.7745  0.6029
  392MOL0     C52826   2.553   5.313   9.668 -0.4311  0.3637 -0.1765
  392MOL0     C52827   2.428   5.380   9.713  0.3855  0.0193 -0.0394
  392MOL0     C52828   2.300   5.288   9.706  0.3622 -0.2573 -0.2246
  392MOL0     C52829   2.177   5.352   9.768 -0.2223 -0.1878  0.0845
  392MOL0    Cl52830   2.210   5.382   9.945  0.0559  0.1693 -0.0195
  392MOL0     C52831   3.245   5.232   9.443 -0.4099 -0.2373 -0.7621
  392MOL0     C52832   3.386   5.234   9.420 -0.3656 -0.5010  0.5371
  392MOL0     O52833   3.625   5.278   9.601 -0.7669 -0.1296 -0.3724
  392MOL0     C52834   3.879   5.379   9.380  0.7887 -0.5148 -0.0059
  392MOL0     C52835   4.013   5.358   9.349  0.7056 -0.0990  0.0255
  392MOL0     N52836   4.702   5.269   9.758  0.2362 -0.1397  0.5431
  392MOL0     N52837   4.810   5.205   9.771  0.2281  0.2991 -0.1481
  392MOL0     C52838   5.940   5.776   9.795  0.0135  0.0829 -0.1449
  392MOL0     C52839   6.077   5.773   9.797 -0.2285 -0.3805  0.3234
  392MOL0     C52840   6.499   5.688   9.737  0.6289  0.2607  1.0104
  392MOL0     C52841   6.568   5.567   9.719 -0.4036 -0.5879 -0.3873
  392MOL0     C52842   6.705   5.571   9.733 -0.7305 -1.0833 -0.0335
  392MOL0     C52843   6.777   5.680   9.772 -0.3899 -1.2244 -0.8066
  392MOL0     O52844   6.911   5.663   9.801  0.7368  0.2675  0.6439
  392MOL0     C52845   6.989   5.764   9.860  0.3086 -0.1627 -0.5187
  392MOL0     C52846   6.965   5.756  10.011  0.0215 -0.1832  0.2107
  392MOL0     C52847   7.053   5.855  10.088  0.2252 -0.5939  0.9400
  392MOL0     C52848   7.043   5.819  10.237  0.5030 -0.2673  0.5585
  392MOL0     C52849   7.135   5.897  10.321 -0.3766  0.7981  0.7173
  392MOL0     C52850   7.193   5.973  10.396 -0.2638  0.4816  0.4723
  392MOL0     C52851   6.705   5.791   9.800  0.3285  0.0682 -1.0268
  392MOL0     C52852   6.560   5.803   9.791 -0.2480 -0.8593  0.5612
  392MOL0     H52853   6.146   5.828   9.470  0.3667  2.2834  0.7684
  392MOL0     H52854   5.889   5.852   9.472  0.9413  1.1114 -0.0575
  392MOL0     H52855   5.748   5.613   9.537 -1.5027  0.6534 -1.5242
  392MOL0     H52856   5.727   5.584   9.706 -0.5749  1.6092  1.8611
  392MOL0     H52857   5.494   5.710   9.675 -0.2559  2.2675 -1.7035
  392MOL0     H52858   5.539   5.714   9.510  0.6440 -0.2137 -0.0941
  392MOL0     H52859   5.520   5.443   9.523 -1.6690 -1.0047  0.8935
  392MOL0     H52860   5.527   5.457   9.696  0.7626  0.0628 -0.5074
  392MOL0     H52861   5.298   5.576   9.690  1.1694  3.0313 -0.3640
  392MOL0     H52862   5.305   5.529   9.516 -0.3065 -1.8239 -0.3322
  392MOL0     H52863   5.324   5.291   9.574  0.5839 -1.1308  1.0058
  392MOL0     H52864   5.332   5.343   9.752 -1.7466  1.7189  1.0054
  392MOL0     H52865   5.094   5.432   9.721 -1.1291 -0.7288  0.6726
  392MOL0     H52866   5.102   5.367   9.556 -0.2301  2.1641  0.3275
  392MOL0     H52867   5.206   5.148   9.703  2.2103  2.1633 -1.4503
  392MOL0     H52868   5.107   5.220   9.822  1.2559  1.6424 -0.4361
  392MOL0     H52869   5.005   5.047   9.681  1.2664  0.0143  0.8792
  392MOL0     H52870   5.052   5.126   9.537  1.1261 -0.1133  0.5156
  392MOL0     H52871   4.863   5.305   9.463 -1.1178 -2.5619 -2.1420
  392MOL0     H52872   4.533   5.462   9.653 -1.4758 -0.4193 -1.5522
  392MOL0     H52873   4.647   5.512   9.518 -0.7715 -0.6160 -3.0539
  392MOL0     H52874   4.571   5.281   9.403  1.7188 -2.2882  2.8338
  392MOL0     H52875   4.461   5.424   9.404  1.3109 -0.5953 -1.6341
  392MOL0     H52876   4.342   5.339   9.602  2.3770  0.7752  1.6795
  392MOL0     H52877   4.444   5.194   9.612 -0.9170 -1.8353 -1.6607
  392MOL0     H52878   4.276   5.104   9.483 -3.8383  1.5888 -0.3868
  392MOL0     H52879   4.373   5.159   9.350  0.6109  1.0727  0.7970
  392MOL0     H52880   4.111   5.185   9.611  0.7843 -0.1275 -0.6928
  392MOL0     H52881   3.790   5.077   9.661 -0.9921 -0.4402  1.6350
  392MOL0     H52882   3.940   5.121   9.752 -0.1866 -1.9733 -1.8023
  392MOL0     H52883   3.796   5.219   9.765  1.0119  1.0822 -0.0036
  392MOL0     H52884   3.409   5.572   9.383  0.9378 -0.5185  1.2294
  392MOL0     H52885   3.163   5.562   9.433 -0.1447 -0.0685 -2.3108
  392MOL0     H52886   3.001   5.151   9.439  2.4089 -0.7222  1.3569
  392MOL0     H52887   3.013   5.190   9.606  1.3436 -1.2636 -1.7927
  392MOL0     H52888   2.776   5.315   9.454  0.1785 -0.4205  0.7758
  392MOL0     H52889   2.763   5.166   9.547  2.8466 -1.7004  1.9550
  392MOL0     H52890   2.888   5.404   9.682  0.4544 -0.3930  0.6165
  392MOL0     H52891   2.800   5.264   9.754 -1.9399  0.7579  0.1890
  392MOL0     H52892   2.684   5.481   9.754 -0.0825  3.1740 -1.0291
  392MOL0     H52893   2.669   5.493   9.589  1.3993 -0.0284 -0.3213
  392MOL0     H52894   2.577   5.236   9.741 -0.1640  0.6567  0.0434
  392MOL0     H52895   2.542   5.266   9.570  1.1449 -0.1875 -0.1081
  392MOL0     H52896   2.449   5.412   9.816 -2.1044  0.5198  0.3835
  392MOL0     H52897   2.417   5.474   9.658  1.4786  0.1669 -0.0350
  392MOL0     H52898   2.334   5.200   9.762  2.1285  0.8759  0.5620
  392MOL0     H52899   2.267   5.242   9.612  0.5728 -0.5958 -0.1388
  392MOL0     H52900   2.093   5.284   9.754 -0.4022  0.1886 -0.7480
  392MOL0     H52901   2.140   5.439   9.712 -0.3060  0.0379  0.4850
  392MOL0     H52902   3.204   5.131   9.444 -0.9756 -0.0167  0.9264
  392MOL0     H52903   3.450   5.147   9.415 -0.0064 -0.1880 -0.4046
  392MOL0     H52904   3.823   5.443   9.312  2.7302 -1.1090 -2.2816
  392MOL0     H52905   4.045   5.409   9.259 -0.8201  0.6401 -0.1365
  392MOL0     H52906   5.873   5.760   9.879 -1.2609 -1.2085 -1.3406
  392MOL0     H52907   6.131   5.733   9.882  0.6228 -0.0996 -0.0745
  392MOL0     H52908   6.537   5.469   9.685 -2.0182 -1.3264  2.7873
  392MOL0     H52909   6.762   5.480   9.722 -2.1474 -2.0319  0.1948
  392MOL0     H52910   7.094   5.739   9.841  0.4433  0.2142 -0.2791
  392MOL0     H52911   6.983   5.864   9.815 -0.6322 -0.7285 -1.7020
  392MOL0     H52912   6.986   5.651  10.033  1.4510  0.0411  0.0534
  392MOL0     H52913   6.859   5.768  10.033 -0.1560 -1.8716  0.3697
  392MOL0     H52914   7.016   5.955  10.063 -0.4616 -0.2735  3.0667
  392MOL0     H52915   7.155   5.846  10.049 -0.6848 -1.9409 -1.3191
  392MOL0     H52916   7.068   5.712  10.245  0.0504 -0.4535 -0.3674
  392MOL0     H52917   6.940   5.847  10.261 -0.4465 -0.6810 -2.5229
  392MOL0     H52918   7.248   6.037  10.462 -1.8870  1.6900  0.7413
  392MOL0     H52919   6.756   5.878   9.840  1.8591 -1.1016 -0.2788
  392MOL0     H52920   6.513   5.901   9.798  1.6165  0.0929  0.3661
  393MOL0     O52921   0.397   9.857   1.231  0.3559 -0.1393 -0.3478
  393MOL0     C52922   0.409   9.801   1.123 -0.5834  0.3640 -0.0339
  393MOL0     O52923   0.315   9.778   1.025 -0.0620  0.3327 -0.0774
  393MOL0     C52924   0.185   9.823   1.039  0.2137 -0.2506 -0.0328
  393MOL0     C52925   0.078   9.742   0.996  0.2514 -0.1904 -0.6673
  393MOL0     C52926  -0.055   9.796   0.991 -0.5872  0.7430 -0.1598
  393MOL0     C52927  -0.081   9.925   1.033  0.6977 -0.2270  0.5642
  393MOL0     O52928  -0.207   9.974   1.024 -0.6746 -0.4097  0.6019
  393MOL0     C52929  -0.236  10.115   1.036  0.7698  0.6210  0.8375
  393MOL0     C52930  -0.382  10.131   0.973  0.1978 -0.3108  0.4990
  393MOL0     C52931  -0.474  10.029   1.037 -0.3787 -0.6254 -0.1023
  393MOL0     C52932  -0.621  10.031   1.008 -0.1478  0.6646  0.2185
  393MOL0     C52933  -0.681  10.164   1.035  0.0537 -0.7482  0.5718
  393MOL0     C52934  -0.825  10.146   1.076 -0.1302  0.2662  0.0821
  393MOL0     C52935  -0.894  10.276   1.093  0.9579  0.7065  0.2702
  393MOL0     C52936  -1.032  10.260   1.153  0.0681  0.4552  0.1136
  393MOL0     N52937  -1.103  10.384   1.141 -0.5457  0.5382  0.3989
  393MOL0     C52938  -1.124  10.464   1.259  0.0196 -0.5667 -0.3327
  393MOL0     C52939  -1.193  10.569   1.211 -0.7708 -0.4121 -0.0176
  393MOL0     C52940  -1.248  10.686   1.291 -0.0325 -0.2069  0.2837
  393MOL0     C52941  -1.387  10.637   1.325 -0.8165 -0.0163  0.8186
  393MOL0     C52942  -1.419  10.508   1.403  0.0508 -0.6373 -0.2090
  393MOL0     C52943  -1.351  10.501   1.537 -0.8980  0.0724 -0.4234
  393MOL0     O52944  -1.355  10.627   1.599  0.6203  0.0702 -0.1382
  393MOL0     C52945  -1.466  10.669   1.665  1.1383 -0.1092  0.8092
  393MOL0     C52946  -1.458  10.805   1.699 -0.4387 -0.1783  0.6796
  393MOL0     C52947  -1.557  10.870   1.775  0.1939  0.4063 -1.2292
  393MOL0     C52948  -1.521  11.014   1.823  0.2921  0.4049  0.1468
  393MOL0     C52949  -1.675  10.798   1.809  0.4574 -0.1316  0.1624
  393MOL0     C52950  -1.794  10.856   1.879 -0.2430 -0.2984 -0.2447
  393MOL0     O52951  -1.882  10.768   1.935 -0.4242  1.4751 -0.1398
  393MOL0     C52952  -2.001  10.787   2.003  0.2102  0.0602  0.3361
  393MOL0     C52953  -2.083  10.673   2.023 -0.0022  0.3603 -0.1559
  393MOL0     C52954  -2.213  10.682   2.079 -0.7059  0.7453 -0.1119
  393MOL0     C52955  -2.254  10.809   2.121  0.6867 -0.3863 -0.5515
  393MOL0     O52956  -2.382  10.814   2.178 -0.3979  0.1413 -0.2286
  393MOL0     C52957  -2.466  10.929   2.167 -0.3971 -0.0466 -0.0867
  393MOL0     C52958  -2.609  10.895   2.198 -0.6630  0.6514  0.3847
  393MOL0     C52959  -2.710  11.000   2.170  0.1971 -0.1277  0.5338
  393MOL0     C52960  -2.858  10.945   2.157  0.2766 -0.4581 -0.2498
  393MOL0     C52961  -2.971  11.050   2.166  0.0527  0.3247 -0.4354
  393MOL0     C52962  -3.112  10.986   2.159 -0.5318  0.4604 -0.1640
  393MOL0     C52963  -3.148  10.888   2.278 -0.3705 -0.0048 -0.5209
  393MOL0     C52964  -3.294  10.894   2.316  0.2782  0.7241  0.6234
  393MOL0    Cl52965  -3.328  10.804   2.472 -0.5217  0.1565  0.0760
  393MOL0     C52966  -2.177  10.922   2.090 -0.3017  0.4203 -0.2244
  393MOL0     C52967  -2.048  10.913   2.042  0.6808  0.1412 -0.1152
  393MOL0     O52968  -1.807  10.978   1.872 -0.4027 -0.7187 -0.1299
  393MOL0     C52969  -1.684  10.661   1.771  0.7222 -0.2336 -0.5203
  393MOL0     C52970  -1.585  10.597   1.694 -0.9292 -0.4149  0.1565
  393MOL0     N52971  -1.221  10.549   1.075  0.0289 -0.7260  0.9024
  393MOL0     N52972  -1.149  10.447   1.026  0.2312 -0.3266  0.6394
  393MOL0     C52973   0.024  10.006   1.086  0.3789  0.2779  0.4666
  393MOL0     C52974   0.152   9.952   1.084  0.1460  0.5598  0.6287
  393MOL0     C52975   0.538   9.728   1.098  0.3297 -0.7587 -0.3853
  393MOL0     C52976   0.628   9.706   1.206  0.3402 -0.2594  0.3570
  393MOL0     C52977   0.758   9.656   1.178 -0.0773  0.0636  0.3675
  393MOL0     C52978   0.792   9.619   1.044 -0.8685 -0.1724 -0.0402
  393MOL0     O52979   0.911   9.569   0.995 -0.7946  0.1548  0.6238
  393MOL0     C52980   1.015   9.543   1.102  0.2982 -0.5165  0.3571
  393MOL0     C52981   1.162   9.515   1.057 -0.4787 -0.0959  0.5362
  393MOL0     C52982   1.160   9.395   0.957  1.2160  0.1787  0.0024
  393MOL0     C52983   1.295   9.356   0.884  0.5478 -0.7427 -0.3730
  393MOL0     C52984   1.410   9.386   0.971 -1.3326 -0.4336  0.1420
  393MOL0     C52985   1.502   9.407   1.051 -0.2453  0.1912 -0.4330
  393MOL0     C52986   0.697   9.633   0.950 -0.0089 -0.0629 -1.5772
  393MOL0     C52987   0.575   9.697   0.963 -0.3655 -0.6349 -0.5367
  393MOL0     H52988   0.105   9.648   0.949  0.7778 -0.1496 -0.4461
  393MOL0     H52989  -0.135   9.738   0.946 -0.9095  0.5199  0.6725
  393MOL0     H52990  -0.235  10.152   1.139  0.7529  1.6864  0.4597
  393MOL0     H52991  -0.155  10.165   0.982  0.9302 -2.4260 -2.0419
  393MOL0     H52992  -0.419  10.230   0.999 -0.2012 -0.9563  2.6779
  393MOL0     H52993  -0.381  10.108   0.866 -1.4810 -1.3552  0.6630
  393MOL0     H52994  -0.431   9.937   0.997  2.4560  0.7221 -0.4110
  393MOL0     H52995  -0.469  10.020   1.146  1.6241 -1.2941 -0.2086
  393MOL0     H52996  -0.653   9.990   0.912 -2.6820  0.7974  0.9317
  393MOL0     H52997  -0.672   9.965   1.080 -0.2858  1.6748  1.0761
  393MOL0     H52998  -0.631  10.216   1.117  2.7828 -0.6759 -1.0050
  393MOL0     H52999  -0.671  10.226   0.945  1.4265  0.3441  1.4348
  393MOL0     H53000  -0.879  10.083   1.005 -1.9670 -0.4587  2.0226
  393MOL0     H53001  -0.827  10.102   1.176  0.7843 -0.4820 -0.2098
  393MOL0     H53002  -0.838  10.336   1.165 -1.6251  1.9372  1.3788
  393MOL0     H53003  -0.896  10.321   0.993 -0.3736 -2.5364 -1.2846
  393MOL0     H53004  -1.031  10.219   1.255 -2.1991  2.8111  1.1953
  393MOL0     H53005  -1.087  10.182   1.101 -1.4167 -0.7258  3.1865
  393MOL0     H53006  -1.085  10.434   1.356  2.0005 -1.4475 -1.3322
  393MOL0     H53007  -1.195  10.694   1.387  1.0199 -0.1896 -0.2828
  393MOL0     H53008  -1.257  10.778   1.232  1.0312 -0.1802  0.1444
  393MOL0     H53009  -1.434  10.632   1.226  0.1744  2.8394  0.1107
  393MOL0     H53010  -1.432  10.719   1.382 -0.6299  0.6661  0.0002
  393MOL0     H53011  -1.380  10.423   1.346 -0.2436 -1.8600  1.3462
  393MOL0     H53012  -1.528  10.503   1.412 -0.1986  0.8850 -1.8236
  393MOL0     H53013  -1.251  10.467   1.507 -1.7578  0.2930 -4.0645
  393MOL0     H53014  -1.393  10.426   1.605 -0.9836  2.1289  1.8962
  393MOL0     H53015  -1.372  10.862   1.666 -0.4326 -1.5134 -1.8328
  393MOL0     H53016  -1.567  11.091   1.760 -1.0329 -1.5326 -1.3695
  393MOL0     H53017  -1.564  11.020   1.923  0.7853 -0.5031  0.4216
  393MOL0     H53018  -1.413  11.024   1.836  0.4650 -2.6136  1.9110
  393MOL0     H53019  -2.050  10.575   1.992  1.2098  0.0526  1.9184
  393MOL0     H53020  -2.259  10.588   2.109  1.4787  0.0586  1.3848
  393MOL0     H53021  -2.428  11.008   2.232  1.7679 -1.0482 -0.0454
  393MOL0     H53022  -2.457  10.977   2.069 -0.7521  0.0927 -0.0517
  393MOL0     H53023  -2.638  10.806   2.140 -2.0013 -0.1718  2.1988
  393MOL0     H53024  -2.620  10.863   2.302  0.0060  2.0249  0.8897
  393MOL0     H53025  -2.682  11.052   2.078  0.5777 -0.5540  0.4057
  393MOL0     H53026  -2.699  11.070   2.254 -0.6595  1.3346 -0.5429
  393MOL0     H53027  -2.869  10.891   2.063 -2.4877 -0.5851  0.0765
  393MOL0     H53028  -2.865  10.871   2.237  0.6402  0.0206  0.2340
  393MOL0     H53029  -2.952  11.129   2.092 -3.9190 -1.9521 -4.4217
  393MOL0     H53030  -2.970  11.099   2.264 -2.9650  0.2276 -0.2383
  393MOL0     H53031  -3.185  11.067   2.153 -0.4109  0.6408  0.6647
  393MOL0     H53032  -3.125  10.929   2.066 -0.0771  0.6885 -0.3689
  393MOL0     H53033  -3.092  10.931   2.361  0.4682 -0.4032 -0.8777
  393MOL0     H53034  -3.111  10.786   2.264  0.3743  0.4714 -2.2659
  393MOL0     H53035  -3.362  10.849   2.243 -0.7946  0.1685  1.9204
  393MOL0     H53036  -3.316  11.001   2.330  1.7927  1.3021 -1.0814
  393MOL0     H53037  -2.224  11.015   2.120  0.1181  0.3434  0.7038
  393MOL0     H53038  -2.005  11.012   2.025 -0.9483  0.3964 -3.7410
  393MOL0     H53039  -1.776  10.604   1.781  1.2026 -1.0168 -0.4810
  393MOL0     H53040  -1.596  10.494   1.660  1.0405 -0.4772 -0.4473
  393MOL0     H53041   0.009  10.099   1.141 -1.2059  0.6413 -0.5255
  393MOL0     H53042   0.233  10.011   1.127  1.6017 -0.3661 -0.7351
  393MOL0     H53043   0.616   9.735   1.310  2.3854 -2.2894  1.2295
  393MOL0     H53044   0.823   9.641   1.264  0.1740  0.0836  0.1826
  393MOL0     H53045   1.019   9.642   1.148  0.9618 -0.1647 -0.4621
  393MOL0     H53046   0.983   9.467   1.174  1.4292 -0.5497  0.8372
  393MOL0     H53047   1.232   9.500   1.140  0.0310 -0.5982  0.0253
  393MOL0     H53048   1.184   9.610   1.007 -1.3176 -1.3572 -2.4639
  393MOL0     H53049   1.082   9.415   0.883  0.3922 -2.8675 -0.0817
  393MOL0     H53050   1.133   9.308   1.017 -1.0732  0.7979 -0.0518
  393MOL0     H53051   1.294   9.406   0.786  0.5572 -0.4180 -0.2107
  393MOL0     H53052   1.303   9.249   0.865  0.9585 -0.7272 -0.2969
  393MOL0     H53053   1.578   9.415   1.125 -0.6272  0.4650 -0.0687
  393MOL0     H53054   0.726   9.598   0.852  0.4387 -1.7318 -0.8788
  393MOL0     H53055   0.506   9.713   0.881 -1.6590  1.2582  0.8453
  394MOL0     O53056   8.138   0.251   1.202 -0.1107  0.4909  0.2152
  394MOL0     C53057   8.064   0.150   1.217  0.2966 -0.0005 -0.3815
  394MOL0     O53058   7.927   0.151   1.226  0.1750  0.0766  0.2177
  394MOL0     C53059   7.852   0.270   1.239 -0.9974  0.3068  0.4566
  394MOL0     C53060   7.748   0.290   1.145  0.6551  0.0707 -0.8093
  394MOL0     C53061   7.665   0.403   1.152 -0.3733 -0.3267 -0.1246
  394MOL0     C53062   7.686   0.510   1.235  0.2116 -0.3278  0.3642
  394MOL0     O53063   7.628   0.635   1.211  0.8975 -0.5667  0.3161
  394MOL0     C53064   7.680   0.747   1.272 -0.4135 -0.6307  0.5580
  394MOL0     C53065   7.606   0.870   1.220  0.3695  0.5235  0.4985
  394MOL0     C53066   7.635   0.997   1.304 -0.6699 -0.5245  1.2799
  394MOL0     C53067   7.557   1.107   1.234  0.3929 -0.2072 -0.2610
  394MOL0     C53068   7.579   1.237   1.315 -0.4112 -0.3468  0.0845
  394MOL0     C53069   7.511   1.355   1.232 -0.3578 -0.4229  0.1609
  394MOL0     C53070   7.558   1.388   1.087  0.2160  0.2345  0.8491
  394MOL0     C53071   7.712   1.400   1.076 -0.1094  0.4869 -0.0012
  394MOL0     N53072   7.763   1.424   0.934  0.1903  0.6286  0.3537
  394MOL0     C53073   7.690   1.402   0.823  0.0522  0.0447  0.2254
  394MOL0     C53074   7.783   1.416   0.722  0.4200 -0.3364  0.1822
  394MOL0     C53075   7.774   1.407   0.570 -0.1914  1.1671  0.0498
  394MOL0     C53076   7.772   1.264   0.527  0.2187 -0.5280 -0.7950
  394MOL0     C53077   7.783   1.255   0.375 -0.3313 -0.2219 -0.3550
  394MOL0     C53078   7.793   1.104   0.340  0.4450  0.4390  0.1543
  394MOL0     O53079   7.686   1.025   0.389  0.3693 -0.1518 -0.4693
  394MOL0     C53080   7.558   1.024   0.329 -0.2969  0.5806 -0.2380
  394MOL0     C53081   7.468   0.943   0.387 -0.1865 -0.5870 -0.2957
  394MOL0     C53082   7.336   0.918   0.343 -0.4521  0.1360 -0.1819
  394MOL0     C53083   7.260   0.831   0.434  0.2687  1.5562  0.1149
  394MOL0     C53084   7.296   0.990   0.227 -0.4769  0.0313  0.6741
  394MOL0     C53085   7.162   0.969   0.172 -0.5076  0.6414  0.6616
  394MOL0     O53086   7.071   0.912   0.245  0.9243 -0.0868  0.2242
  394MOL0     C53087   6.939   0.928   0.202 -0.3757  0.5719  0.3373
  394MOL0     C53088   6.875   1.056   0.232  1.6635  0.0158  0.6283
  394MOL0     C53089   6.735   1.060   0.203  0.8308  0.4800 -0.3455
  394MOL0     C53090   6.660   0.947   0.158  0.2330 -0.5676 -0.0620
  394MOL0     O53091   6.538   0.945   0.099  0.3100  0.0039 -0.0941
  394MOL0     C53092   6.478   1.063   0.038 -0.3668 -0.3470  0.3106
  394MOL0     C53093   6.387   1.142   0.131  0.6385 -0.4415  0.1536
  394MOL0     C53094   6.318   1.266   0.051  0.8377  0.1053  0.4489
  394MOL0     C53095   6.208   1.229  -0.043 -0.3182 -0.0897 -0.3113
  394MOL0     C53096   6.132   1.361  -0.089  0.3826  0.0918 -0.3622
  394MOL0     C53097   6.203   1.428  -0.211 -0.5530 -0.3067 -1.1330
  394MOL0     C53098   6.224   1.344  -0.337 -0.1405 -0.2908  0.1251
  394MOL0     C53099   6.258   1.428  -0.449 -0.2077 -0.2050  0.0811
  394MOL0    Cl53100   6.122   1.516  -0.514  0.0311  0.1347 -0.1021
  394MOL0     C53101   6.737   0.827   0.135  0.2809  0.3542 -0.3649
  394MOL0     C53102   6.875   0.814   0.158 -0.9605  0.4722  0.0882
  394MOL0     O53103   7.134   1.020   0.061  0.1951 -0.2820  0.1332
  394MOL0     C53104   7.394   1.060   0.154  0.2620 -0.3004  0.4969
  394MOL0     C53105   7.524   1.069   0.199 -1.3018 -0.2044  0.1085
  394MOL0     N53106   7.901   1.453   0.778 -0.4855  0.2525  1.1148
  394MOL0     N53107   7.894   1.448   0.904 -0.7429 -0.3672 -0.5456
  394MOL0     C53108   7.788   0.488   1.329 -0.1762 -0.2492 -0.1110
  394MOL0     C53109   7.877   0.375   1.329 -0.7031 -0.0974 -0.5176
  394MOL0     C53110   8.139   0.025   1.220 -0.0386  0.4113 -0.2338
  394MOL0     C53111   8.082  -0.100   1.189  0.3737 -0.1970  0.5704
  394MOL0     C53112   8.146  -0.222   1.214 -0.1757  0.5792  0.1065
  394MOL0     C53113   8.277  -0.221   1.265  0.2460  0.2559  0.0591
  394MOL0     O53114   8.336  -0.344   1.284 -0.2548 -0.1399 -0.1043
  394MOL0     C53115   8.444  -0.344   1.386  0.8003  0.8009  0.6685
  394MOL0     C53116   8.492  -0.491   1.395  0.5903  0.4802  0.2388
  394MOL0     C53117   8.619  -0.507   1.485  0.1254  0.8861 -0.2649
  394MOL0     C53118   8.741  -0.462   1.402  0.1422  0.6428  0.1073
  394MOL0     C53119   8.758  -0.318   1.415  0.0061 -0.1210  0.2923
  394MOL0     C53120   8.789  -0.198   1.436 -0.0037  0.4304 -0.5809
  394MOL0     C53121   8.334  -0.099   1.298  0.3621  0.0265  0.2307
  394MOL0     C53122   8.270   0.018   1.271  0.4290  0.0685 -0.0656
  394MOL0     H53123   7.729   0.201   1.086  3.0208 -0.4222 -0.9124
  394MOL0     H53124   7.582   0.419   1.085  0.0043  2.1549 -0.0930
  394MOL0     H53125   7.665   0.734   1.379 -0.2938 -1.2312  0.5042
  394MOL0     H53126   7.788   0.756   1.256 -0.7536  0.9008 -1.2719
  394MOL0     H53127   7.642   0.890   1.119  1.9659 -2.0466  0.4815
  394MOL0     H53128   7.499   0.852   1.227  0.1839  1.3810  0.0046
  394MOL0     H53129   7.613   0.985   1.410  0.4092 -1.1534  1.4437
  394MOL0     H53130   7.740   1.027   1.303 -1.1750  1.5447 -1.1333
  394MOL0     H53131   7.590   1.106   1.130 -2.7112  1.3897 -1.3844
  394MOL0     H53132   7.448   1.097   1.230  0.1087  0.2695  3.1529
  394MOL0     H53133   7.523   1.229   1.409 -1.0054 -2.9164 -0.4075
  394MOL0     H53134   7.687   1.246   1.330 -0.9070  2.0137  3.1361
  394MOL0     H53135   7.405   1.327   1.231 -1.1656  2.2701 -0.8702
  394MOL0     H53136   7.526   1.448   1.289  1.3327 -1.1001  0.8917
  394MOL0     H53137   7.518   1.310   1.023 -1.1730  1.1858  0.4986
  394MOL0     H53138   7.521   1.488   1.059 -0.1232  0.1401  0.9600
  394MOL0     H53139   7.761   1.311   1.118 -1.6468 -0.7951 -0.8258
  394MOL0     H53140   7.742   1.490   1.131  2.0237  0.4180 -0.9585
  394MOL0     H53141   7.583   1.384   0.816  0.4380 -2.2491 -1.0133
  394MOL0     H53142   7.685   1.460   0.534 -2.1017 -0.8812  1.5363
  394MOL0     H53143   7.863   1.456   0.527  0.3607  0.2007  0.0730
  394MOL0     H53144   7.677   1.223   0.565 -1.5751  0.1651 -4.1823
  394MOL0     H53145   7.849   1.203   0.575 -0.5400 -1.1456 -0.3391
  394MOL0     H53146   7.871   1.303   0.331  0.9221 -2.5144 -0.4680
  394MOL0     H53147   7.688   1.292   0.336 -0.4885 -0.3324 -0.0823
  394MOL0     H53148   7.881   1.064   0.390  2.2832  0.4584 -2.8258
  394MOL0     H53149   7.820   1.093   0.235  0.2754 -1.5044  0.2832
  394MOL0     H53150   7.500   0.908   0.484 -2.3070  1.6992  1.3411
  394MOL0     H53151   7.319   0.777   0.508 -1.3807  0.6392  0.8069
  394MOL0     H53152   7.173   0.871   0.486 -0.6224 -0.8544  0.6303
  394MOL0     H53153   7.223   0.750   0.370  3.2801 -0.3819  0.6073
  394MOL0     H53154   6.930   1.145   0.261  2.3723  1.2399 -3.7300
  394MOL0     H53155   6.688   1.158   0.205  1.3691  0.7703 -1.2120
  394MOL0     H53156   6.559   1.130   0.009  1.2143 -1.5280  1.7843
  394MOL0     H53157   6.421   1.038  -0.052  0.2355  3.6748 -1.4260
  394MOL0     H53158   6.309   1.071   0.163 -0.4132  0.3739 -0.5243
  394MOL0     H53159   6.436   1.183   0.219  2.2064  0.3802 -1.0643
  394MOL0     H53160   6.390   1.323  -0.008 -1.2549 -0.6125 -3.0937
  394MOL0     H53161   6.276   1.334   0.126  0.0725 -0.3730  0.4730
  394MOL0     H53162   6.260   1.174  -0.122  4.5415 -0.4731  2.7578
  394MOL0     H53163   6.138   1.161   0.007 -0.8670 -1.0179 -2.2420
  394MOL0     H53164   6.130   1.414   0.007 -0.9165 -3.2273  1.6147
  394MOL0     H53165   6.031   1.334  -0.122 -0.2636  1.7102  0.1655
  394MOL0     H53166   6.139   1.513  -0.236 -0.0956  0.5208  0.4043
  394MOL0     H53167   6.301   1.473  -0.197 -0.1552 -0.7397 -2.3540
  394MOL0     H53168   6.134   1.287  -0.362 -0.9037  0.3866  1.2052
  394MOL0     H53169   6.309   1.278  -0.312  0.9408  1.5488  1.6016
  394MOL0     H53170   6.290   1.370  -0.536  0.4119  1.4453 -0.8224
  394MOL0     H53171   6.335   1.498  -0.414  1.3028 -0.9990 -1.4982
  394MOL0     H53172   6.689   0.742   0.089  1.9519 -1.2954  0.7682
  394MOL0     H53173   6.933   0.724   0.143 -1.2610  0.1703  0.7435
  394MOL0     H53174   7.368   1.109   0.062  1.4379 -0.6911 -0.0640
  394MOL0     H53175   7.586   1.121   0.127 -2.4845 -1.3943 -1.8683
  394MOL0     H53176   7.812   0.561   1.405 -0.5667 -1.1633  0.9235
  394MOL0     H53177   7.963   0.369   1.395 -0.7541  1.0121 -0.3239
  394MOL0     H53178   7.978  -0.106   1.158  0.9343  2.5529 -2.5035
  394MOL0     H53179   8.101  -0.318   1.191  0.8655 -0.2443  1.2943
  394MOL0     H53180   8.525  -0.282   1.344 -0.8988  1.9001 -1.1455
  394MOL0     H53181   8.411  -0.304   1.482 -0.8139 -1.1146  0.9673
  394MOL0     H53182   8.519  -0.522   1.294  2.3276  1.5451  0.3348
  394MOL0     H53183   8.419  -0.561   1.437  1.9284 -1.2688 -0.2011
  394MOL0     H53184   8.629  -0.615   1.495 -1.3697  0.7877  0.3174
  394MOL0     H53185   8.617  -0.463   1.585  1.3401  0.1108  0.1138
  394MOL0     H53186   8.734  -0.500   1.300 -0.2314  3.2978 -0.9277
  394MOL0     H53187   8.834  -0.502   1.444 -0.2152 -0.0178  0.2861
  394MOL0     H53188   8.810  -0.096   1.462 -1.2289 -0.0541  2.8318
  394MOL0     H53189   8.436  -0.095   1.335  0.6343 -1.5228 -0.2552
  394MOL0     H53190   8.321   0.110   1.300  1.4056 -0.2812 -0.6329
  395MOL0     O53191   8.446  10.847   3.521  0.2978 -0.0571  0.2114
  395MOL0     C53192   8.470  10.905   3.427 -0.9122 -1.1383  0.3235
  395MOL0     O53193   8.592  10.957   3.407 -0.5618 -0.4222  1.2203
  395MOL0     C53194   8.694  10.962   3.508 -0.1244  0.0445 -0.1292
  395MOL0     C53195   8.677  10.939   3.647  0.4695 -0.5381 -0.3755
  395MOL0     C53196   8.792  10.940   3.734  0.0903  0.4831  0.1788
  395MOL0     C53197   8.922  10.972   3.684 -0.1053 -0.0416 -0.2839
  395MOL0     O53198   9.023  10.956   3.773 -0.4549  0.2240  0.5520
  395MOL0     C53199   9.148  10.913   3.715 -1.1191  0.1338  0.4104
  395MOL0     C53200   9.236  10.869   3.834  0.0221  0.3330 -0.1468
  395MOL0     C53201   9.334  10.765   3.789  0.0409 -0.0182 -0.1830
  395MOL0     C53202   9.422  10.720   3.900 -0.3725  0.9377 -0.1819
  395MOL0     C53203   9.542  10.629   3.868 -0.1836  0.0331 -0.0806
  395MOL0     C53204   9.506  10.505   3.775  0.6217 -0.0164  0.3256
  395MOL0     C53205   9.401  10.402   3.828  0.1279  0.1590 -0.0402
  395MOL0     C53206   9.382  10.387   3.979  0.5445  0.3135  0.3130
  395MOL0     N53207   9.337  10.256   4.009  0.2769 -0.1164  0.0792
  395MOL0     C53208   9.220  10.204   3.983 -0.5764 -0.6672  0.6000
  395MOL0     C53209   9.213  10.087   4.045  0.0138  0.2544 -0.7742
  395MOL0     C53210   9.087  10.009   4.060 -0.4824 -0.3693 -0.1700
  395MOL0     C53211   8.983  10.068   4.159 -0.2710  0.0960  0.3942
  395MOL0     C53212   8.917  10.206   4.119  0.0195 -0.4294 -1.0449
  395MOL0     C53213   8.836  10.271   4.224 -0.5885 -0.1369  0.2843
  395MOL0     O53214   8.732  10.345   4.162 -0.2376 -0.2672  0.8136
  395MOL0     C53215   8.609  10.282   4.130 -0.3697  0.6565 -1.1934
  395MOL0     C53216   8.514  10.353   4.065  0.4202 -0.0726  0.1605
  395MOL0     C53217   8.384  10.313   4.029 -0.0686  0.8727 -0.6889
  395MOL0     C53218   8.296  10.414   3.966  0.1309  0.1943 -0.4725
  395MOL0     C53219   8.354  10.175   4.062 -0.3908  0.2644  0.2666
  395MOL0     C53220   8.224  10.104   4.029 -0.1955 -0.4798 -0.2693
  395MOL0     O53221   8.205   9.979   4.067 -0.1310  0.3736  0.3715
  395MOL0     C53222   8.099   9.913   4.007  0.0481  0.4062 -0.4667
  395MOL0     C53223   8.102   9.858   3.881  0.6605 -0.2988  0.2028
  395MOL0     C53224   7.986   9.799   3.824 -0.0264 -0.7914 -0.3089
  395MOL0     C53225   7.869   9.801   3.898  0.6209 -0.3867  0.1556
  395MOL0     O53226   7.755   9.736   3.859  0.8021 -0.2467 -0.4581
  395MOL0     C53227   7.729   9.728   3.718 -0.0717  0.6531  0.5758
  395MOL0     C53228   7.605   9.636   3.696 -0.2071 -0.2158 -0.0931
  395MOL0     C53229   7.475   9.721   3.738 -0.1695  0.1955  0.0003
  395MOL0     C53230   7.338   9.634   3.739 -0.4338 -0.1880 -0.0178
  395MOL0     C53231   7.220   9.729   3.780  0.7276  0.4319  0.5821
  395MOL0     C53232   7.089   9.671   3.727 -0.1760 -1.2311  0.8739
  395MOL0     C53233   6.985   9.774   3.766 -0.4173  0.6041 -0.5596
  395MOL0     C53234   6.839   9.736   3.718  0.1395  0.4716  0.1205
  395MOL0    Cl53235   6.735   9.865   3.778 -0.0308  0.0290 -0.3883
  395MOL0     C53236   7.864   9.860   4.026  0.0631 -0.6768 -0.0492
  395MOL0     C53237   7.979   9.913   4.083 -0.8796  0.6982  0.6202
  395MOL0     O53238   8.143  10.173   3.963 -0.6258  1.2157  0.9892
  395MOL0     C53239   8.454  10.092   4.117 -0.6405 -0.7114  0.3419
  395MOL0     C53240   8.575  10.149   4.163 -0.4663  0.7838 -0.1016
  395MOL0     N53241   9.341  10.057   4.097  0.2158  0.4461  0.2668
  395MOL0     N53242   9.417  10.158   4.069  0.4743 -0.7309  0.0457
  395MOL0     C53243   8.934  10.982   3.540  0.1272 -0.4389  0.1091
  395MOL0     C53244   8.817  10.987   3.455 -0.3993 -0.5937 -0.4517
  395MOL0     C53245   8.370  10.929   3.320  0.4003  0.0768 -0.4640
  395MOL0     C53246   8.245  10.875   3.326 -0.2783 -0.0396 -0.0263
  395MOL0     C53247   8.149  10.880   3.222 -0.4709  0.3873  0.3203
  395MOL0     C53248   8.182  10.973   3.114 -0.3183  0.2492  0.4400
  395MOL0     O53249   8.111  10.982   2.988 -0.1696 -0.2133 -0.0182
  395MOL0     C53250   7.973  10.933   2.982  0.3905 -0.2625  0.0018
  395MOL0     C53251   7.891  11.033   3.065 -0.2079  0.1515 -0.4062
  395MOL0     C53252   7.735  10.999   3.047 -0.0209 -0.2513  0.0164
  395MOL0     C53253   7.644  11.091   3.124 -0.1699  0.0817 -0.3808
  395MOL0     C53254   7.497  11.064   3.095  0.6346  0.0675  0.5052
  395MOL0     C53255   7.383  11.056   3.066  0.3929 -0.2846  0.4080
  395MOL0     C53256   8.309  11.029   3.109 -1.1890 -0.2951 -0.0845
  395MOL0     C53257   8.403  11.005   3.203  0.0470 -0.4271 -0.2461
  395MOL0     H53258   8.577  10.939   3.688  0.5080  0.7906 -0.2589
  395MOL0     H53259   8.801  10.915   3.840 -1.6095  1.2388  0.5448
  395MOL0     H53260   9.130  10.827   3.650 -0.4235 -0.3490  0.8386
  395MOL0     H53261   9.202  10.994   3.665 -1.7302  0.6589  0.5979
  395MOL0     H53262   9.281  10.961   3.873  0.1355  0.1032  0.2635
  395MOL0     H53263   9.164  10.824   3.903 -1.6686 -1.1575 -2.7179
  395MOL0     H53264   9.290  10.688   3.725  0.2816  0.2840 -0.7163
  395MOL0     H53265   9.401  10.807   3.714  0.5343 -1.1643 -0.4092
  395MOL0     H53266   9.455  10.807   3.958 -3.4634  2.4273 -0.4225
  395MOL0     H53267   9.368  10.661   3.974  0.6555 -2.5784 -2.0097
  395MOL0     H53268   9.610  10.693   3.810 -0.3867 -0.8462 -1.3326
  395MOL0     H53269   9.588  10.591   3.960  0.0785 -0.9486 -0.5964
  395MOL0     H53270   9.475  10.531   3.674 -0.0402  0.8841  0.7402
  395MOL0     H53271   9.597  10.444   3.772 -0.3763 -1.5788  0.6407
  395MOL0     H53272   9.297  10.421   3.799 -0.3053 -0.0258  1.3155
  395MOL0     H53273   9.426  10.303   3.789  3.0427  0.9182 -0.3345
  395MOL0     H53274   9.300  10.453   4.011  0.3346  0.5935 -0.7624
  395MOL0     H53275   9.470  10.411   4.039  0.0262 -1.8340  2.0201
  395MOL0     H53276   9.128  10.248   3.945  0.0814  0.7360  0.5833
  395MOL0     H53277   9.048  10.017   3.958  0.9984  1.0352 -0.6690
  395MOL0     H53278   9.111   9.907   4.092 -0.0645  0.7762  3.7464
  395MOL0     H53279   9.037  10.082   4.253  1.3343 -2.5552 -0.0270
  395MOL0     H53280   8.901  10.001   4.186 -1.2067  1.2286  0.4368
  395MOL0     H53281   8.858  10.192   4.028 -2.0754  0.3609  0.1189
  395MOL0     H53282   8.996  10.279   4.102  0.3005 -0.8508 -1.5864
  395MOL0     H53283   8.894  10.350   4.274 -0.4298 -0.6887  0.9789
  395MOL0     H53284   8.792  10.206   4.301 -1.5742  0.2294  0.0523
  395MOL0     H53285   8.543  10.457   4.052 -1.2935  0.5452  1.0096
  395MOL0     H53286   8.205  10.430   4.024  0.1863  3.5363 -1.1324
  395MOL0     H53287   8.345  10.511   3.960 -1.5475  1.0770 -0.3754
  395MOL0     H53288   8.276  10.374   3.866 -0.2688 -1.1424  0.1108
  395MOL0     H53289   8.198   9.848   3.830  0.4975  1.8839 -0.6610
  395MOL0     H53290   7.985   9.745   3.730 -0.2251  0.0949 -0.8262
  395MOL0     H53291   7.717   9.829   3.677 -2.7003  0.3937  0.4973
  395MOL0     H53292   7.802   9.668   3.665 -1.8532 -1.3320  0.2498
  395MOL0     H53293   7.595   9.600   3.593 -2.2524 -0.7594  0.2539
  395MOL0     H53294   7.626   9.552   3.763  1.2507 -0.2406 -0.5596
  395MOL0     H53295   7.457   9.808   3.674 -2.2653  0.0059  0.2753
  395MOL0     H53296   7.498   9.756   3.839 -2.4135  1.2520  0.1941
  395MOL0     H53297   7.323   9.596   3.637  0.2620 -1.6679  0.4045
  395MOL0     H53298   7.355   9.548   3.805  0.6115  0.3553  0.4371
  395MOL0     H53299   7.234   9.827   3.734  0.5988  0.5937  0.8931
  395MOL0     H53300   7.207   9.738   3.888  1.0490  2.6272  0.4911
  395MOL0     H53301   7.090   9.671   3.617 -1.1563  0.7459  0.8073
  395MOL0     H53302   7.065   9.571   3.762 -1.7618 -1.5098 -0.8257
  395MOL0     H53303   6.990   9.872   3.718 -2.7075  0.7514 -0.5863
  395MOL0     H53304   6.988   9.786   3.875 -0.5980 -0.3558 -0.4442
  395MOL0     H53305   6.801   9.638   3.750  0.6920 -1.5947 -4.6550
  395MOL0     H53306   6.835   9.726   3.609 -2.5428 -0.2361  0.2095
  395MOL0     H53307   7.771   9.855   4.082 -0.1035  2.3184  0.1084
  395MOL0     H53308   7.965   9.961   4.179 -1.4880  1.6279  0.0762
  395MOL0     H53309   8.447   9.984   4.130 -1.2286 -0.6741  0.3847
  395MOL0     H53310   8.643  10.073   4.200 -2.2640 -1.1023 -0.4612
  395MOL0     H53311   9.030  11.011   3.500 -1.0392  1.4445 -1.5136
  395MOL0     H53312   8.827  11.013   3.350  0.6288  0.8634 -0.0238
  395MOL0     H53313   8.220  10.818   3.415 -1.2117 -0.5074 -0.5750
  395MOL0     H53314   8.057  10.822   3.223  1.3419 -2.7877 -0.6667
  395MOL0     H53315   7.942  10.937   2.878  2.2487  0.3843 -0.5673
  395MOL0     H53316   7.969  10.826   3.005  3.3365 -0.7583 -1.3526
  395MOL0     H53317   7.908  11.138   3.040  3.4820  0.0702  1.1422
  395MOL0     H53318   7.909  11.025   3.173 -0.1672 -1.5660 -0.5183
  395MOL0     H53319   7.715  10.895   3.070 -2.5762 -0.5627 -2.8614
  395MOL0     H53320   7.708  11.005   2.941 -2.8158 -1.5646  0.5639
  395MOL0     H53321   7.682  11.192   3.106  2.2021 -0.1881  2.3537
  395MOL0     H53322   7.662  11.062   3.228 -1.4042  1.3938  0.2295
  395MOL0     H53323   7.282  11.036   3.038 -0.2976  0.5467  2.1372
  395MOL0     H53324   8.330  11.089   3.021  3.0425  0.2088  1.0587
  395MOL0     H53325   8.503  11.046   3.189 -1.4598  3.0029 -2.3880
  396MOL0     O53326   4.736   3.305   1.932 -0.1055  0.8261 -0.4382
  396MOL0     C53327   4.788   3.343   1.829  0.1991  0.9364  0.0929
  396MOL0     O53328   4.715   3.355   1.709 -0.4752 -0.7343  0.0233
  396MOL0     C53329   4.581   3.318   1.698  0.1313 -0.1156  0.5636
  396MOL0     C53330   4.545   3.259   1.581  0.6350  0.5683  0.4287
  396MOL0     C53331   4.410   3.227   1.552 -1.1777  0.3669 -0.4654
  396MOL0     C53332   4.313   3.244   1.646 -0.2583 -0.3725 -0.5487
  396MOL0     O53333   4.178   3.236   1.618 -0.0788  0.7684  0.0048
  396MOL0     C53334   4.131   3.287   1.493  0.5698 -0.2942 -0.0168
  396MOL0     C53335   3.978   3.313   1.498 -0.6972  0.6642 -0.0018
  396MOL0     C53336   3.890   3.183   1.475  0.1681  0.4126 -0.0544
  396MOL0     C53337   3.737   3.205   1.501 -0.3376 -0.1739 -0.6090
  396MOL0     C53338   3.662   3.067   1.481 -1.1324  0.7000  0.7225
  396MOL0     C53339   3.643   3.039   1.325 -0.3968  0.0615  0.5088
  396MOL0     C53340   3.515   2.948   1.294  0.4703 -0.1505 -0.1618
  396MOL0     C53341   3.480   2.963   1.141 -0.7953 -0.3647 -0.4868
  396MOL0     N53342   3.376   2.874   1.098  0.4648  0.3984 -0.1233
  396MOL0     C53343   3.248   2.905   1.064  0.5454  0.0592 -0.4550
  396MOL0     C53344   3.197   2.803   0.985  0.0976 -0.2058  0.5715
  396MOL0     C53345   3.073   2.799   0.909  0.1278  0.2093 -0.3940
  396MOL0     C53346   2.964   2.700   0.967 -0.4894  0.2854 -0.8601
  396MOL0     C53347   2.837   2.688   0.876  0.1811 -1.5198  0.9654
  396MOL0     C53348   2.714   2.653   0.958 -0.4939  0.2957  0.3864
  396MOL0     O53349   2.701   2.512   1.000  0.1982 -0.4378 -0.3477
  396MOL0     C53350   2.656   2.422   0.903  0.4628 -0.2889 -0.1981
  396MOL0     C53351   2.680   2.283   0.932  0.3812 -0.0445 -0.6675
  396MOL0     C53352   2.626   2.185   0.857 -0.7563  0.9200 -0.6048
  396MOL0     C53353   2.651   2.041   0.905 -0.2230  0.1613 -0.1679
  396MOL0     C53354   2.556   2.215   0.739 -0.1338 -0.5096  0.5406
  396MOL0     C53355   2.492   2.108   0.658 -1.2335 -0.6177 -0.4484
  396MOL0     O53356   2.408   2.027   0.725  0.0298  0.2884  0.7757
  396MOL0     C53357   2.306   1.974   0.646 -0.9156 -0.4990  1.0164
  396MOL0     C53358   2.254   1.860   0.696  0.8164  0.7107  0.3607
  396MOL0     C53359   2.145   1.799   0.643  0.3702 -0.3938 -0.0535
  396MOL0     C53360   2.072   1.866   0.536 -0.6653  0.3680  0.8778
  396MOL0     O53361   1.972   1.799   0.490 -0.2496  0.0251 -0.0115
  396MOL0     C53362   1.903   1.832   0.370  0.0067 -0.5857  0.2960
  396MOL0     C53363   1.786   1.731   0.347 -0.0047  0.1318  0.0610
  396MOL0     C53364   1.751   1.727   0.196 -0.6342 -0.4046 -0.3208
  396MOL0     C53365   1.640   1.822   0.171 -0.1634  0.3534  0.0266
  396MOL0     C53366   1.576   1.789   0.033  0.5615  0.3336  0.1515
  396MOL0     C53367   1.459   1.888   0.008 -0.2977  0.9426  0.0319
  396MOL0     C53368   1.403   1.886  -0.129  0.4057 -0.2193 -0.4043
  396MOL0     C53369   1.359   1.756  -0.180 -0.3276  0.1925  0.1139
  396MOL0    Cl53370   1.232   1.674  -0.082 -0.4570  0.3478 -0.4703
  396MOL0     C53371   2.120   1.987   0.495 -0.2072  0.7934 -0.0652
  396MOL0     C53372   2.236   2.041   0.547  0.4677  0.7616  0.2128
  396MOL0     O53373   2.520   2.101   0.539 -0.4162 -0.5290 -0.0677
  396MOL0     C53374   2.538   2.346   0.698 -0.1742 -0.9639 -0.4401
  396MOL0     C53375   2.587   2.453   0.786  0.2494  0.4067  0.5435
  396MOL0     N53376   3.302   2.703   0.985 -0.3683 -0.6915 -0.2805
  396MOL0     N53377   3.402   2.742   1.054  0.3226 -0.1473 -0.6894
  396MOL0     C53378   4.345   3.312   1.760  0.2691 -0.0995 -0.3303
  396MOL0     C53379   4.474   3.350   1.784  0.9323  0.4147  0.9170
  396MOL0     C53380   4.927   3.387   1.829 -0.4459  0.5731 -0.3993
  396MOL0     C53381   4.967   3.488   1.738 -0.5475  0.6825  0.0102
  396MOL0     C53382   5.102   3.540   1.737  0.3834 -0.4637 -0.7433
  396MOL0     C53383   5.190   3.492   1.832 -0.7579 -0.2351 -0.0899
  396MOL0     O53384   5.318   3.539   1.852 -0.0104  0.9508  0.5532
  396MOL0     C53385   5.398   3.552   1.734 -0.1554 -0.8441  0.3569
  396MOL0     C53386   5.539   3.516   1.758  0.0344 -0.2476 -0.3256
  396MOL0     C53387   5.548   3.360   1.781 -0.3788 -0.4334 -0.0096
  396MOL0     C53388   5.690   3.333   1.847 -0.2298  0.1895  0.7084
  396MOL0     C53389   5.799   3.377   1.757  0.2696 -0.0693 -0.1021
  396MOL0     C53390   5.900   3.388   1.692  0.3214 -0.7059 -0.3802
  396MOL0     C53391   5.145   3.402   1.932 -1.0897  0.5788 -0.3372
  396MOL0     C53392   5.018   3.345   1.921 -0.4497 -0.8036 -0.2754
  396MOL0     H53393   4.625   3.249   1.508 -1.1409  1.0212 -1.7135
  396MOL0     H53394   4.390   3.180   1.456  3.2592  0.2384 -1.5372
  396MOL0     H53395   4.177   3.383   1.469  2.5230 -1.6889 -2.2228
  396MOL0     H53396   4.151   3.218   1.411  1.0706  1.7425 -1.6928
  396MOL0     H53397   3.942   3.352   1.593 -1.1364 -0.5481  0.3482
  396MOL0     H53398   3.950   3.387   1.422 -2.7256 -0.2368 -0.2253
  396MOL0     H53399   3.902   3.166   1.368 -1.8157 -0.3121 -0.2011
  396MOL0     H53400   3.934   3.099   1.530 -0.9206 -0.1216  0.0096
  396MOL0     H53401   3.723   3.222   1.608 -0.5050 -3.1644 -0.0818
  396MOL0     H53402   3.688   3.281   1.438  3.6300  2.0071 -1.3821
  396MOL0     H53403   3.726   2.990   1.526  3.1822  4.6030  1.9715
  396MOL0     H53404   3.563   3.068   1.528 -1.1344  1.7473  0.7101
  396MOL0     H53405   3.643   3.135   1.272  4.1954  0.2760  0.4467
  396MOL0     H53406   3.718   2.980   1.272 -2.4680  0.7370 -3.5897
  396MOL0     H53407   3.533   2.842   1.317 -3.7141 -0.3895  3.3393
  396MOL0     H53408   3.428   2.981   1.352  0.6084  0.6577 -0.4062
  396MOL0     H53409   3.574   2.943   1.089 -1.0081 -1.4761 -0.4562
  396MOL0     H53410   3.456   3.070   1.135  2.0480  0.2670 -2.7681
  396MOL0     H53411   3.198   2.998   1.091  1.8811  0.6254  0.1790
  396MOL0     H53412   3.027   2.899   0.908  0.5672  0.4475 -2.6525
  396MOL0     H53413   3.095   2.769   0.806 -1.2495  1.7290 -1.1958
  396MOL0     H53414   2.930   2.738   1.064  1.7001  0.8120 -0.2595
  396MOL0     H53415   3.017   2.609   0.994 -2.0023 -0.3268  0.1806
  396MOL0     H53416   2.846   2.624   0.787  3.0975  2.0441 -1.6508
  396MOL0     H53417   2.816   2.788   0.838  0.5797 -1.2026  1.5675
  396MOL0     H53418   2.628   2.682   0.897  0.2856  0.3157 -0.7191
  396MOL0     H53419   2.710   2.709   1.052 -0.9950  1.8337 -0.5252
  396MOL0     H53420   2.732   2.261   1.025 -2.2853 -1.5311  0.5846
  396MOL0     H53421   2.756   2.043   0.936  0.7229  0.3619 -3.0925
  396MOL0     H53422   2.589   2.015   0.992  1.9475  1.7972  2.0342
  396MOL0     H53423   2.648   1.972   0.821  0.2605  0.2707 -0.2810
  396MOL0     H53424   2.291   1.807   0.783 -2.6488 -0.6850  1.1420
  396MOL0     H53425   2.121   1.699   0.678  0.2762  0.0462  1.1710
  396MOL0     H53426   1.867   1.935   0.357 -0.3063 -0.9223 -2.1182
  396MOL0     H53427   1.976   1.830   0.289  0.5888  2.6004  0.6130
  396MOL0     H53428   1.827   1.633   0.373 -2.0461 -1.4071 -2.1062
  396MOL0     H53429   1.700   1.754   0.409  0.8403  3.9719  0.0201
  396MOL0     H53430   1.726   1.625   0.165  0.7638 -0.8630 -0.0209
  396MOL0     H53431   1.840   1.747   0.135  1.3574 -3.1330  1.4260
  396MOL0     H53432   1.558   1.829   0.243 -0.7273  0.9232 -0.6544
  396MOL0     H53433   1.680   1.924   0.169 -1.7392  0.9940 -2.1542
  396MOL0     H53434   1.545   1.684   0.024  0.0685  0.6712 -3.3983
  396MOL0     H53435   1.653   1.800  -0.043 -0.4611 -1.2975 -1.2093
  396MOL0     H53436   1.380   1.864   0.079  0.9030 -2.9356  0.2764
  396MOL0     H53437   1.497   1.990   0.023 -0.6985  0.9310  1.2181
  396MOL0     H53438   1.483   1.932  -0.188  0.3590  1.2591  0.6333
  396MOL0     H53439   1.317   1.953  -0.124 -1.4143 -2.5309  1.6663
  396MOL0     H53440   1.442   1.685  -0.188  0.2412  0.7493  0.8581
  396MOL0     H53441   1.325   1.782  -0.280  0.1787  3.9427  0.7639
  396MOL0     H53442   2.065   2.046   0.422  1.0804  3.4962  0.9981
  396MOL0     H53443   2.253   2.143   0.517 -0.6953  1.2960  1.2982
  396MOL0     H53444   2.483   2.359   0.605 -2.3314 -1.2718  0.7173
  396MOL0     H53445   2.560   2.555   0.761  1.7426  0.4582 -1.0578
  396MOL0     H53446   4.273   3.339   1.837 -0.1375  0.0016 -0.7432
  396MOL0     H53447   4.496   3.403   1.876 -0.0987 -2.2709  2.8365
  396MOL0     H53448   4.887   3.527   1.676 -0.3780  1.8169  0.4884
  396MOL0     H53449   5.135   3.609   1.660  0.1453 -1.4342 -1.7380
  396MOL0     H53450   5.359   3.496   1.649  0.9322  0.0613 -0.7777
  396MOL0     H53451   5.393   3.658   1.708 -0.8457 -0.6219  1.3660
  396MOL0     H53452   5.562   3.568   1.852 -0.3652  1.9340 -1.3753
  396MOL0     H53453   5.609   3.554   1.683  2.0615 -3.1602 -0.0613
  396MOL0     H53454   5.539   3.311   1.684 -0.5969  1.7346 -1.1354
  396MOL0     H53455   5.467   3.335   1.850 -0.4724  2.0587  0.8849
  396MOL0     H53456   5.691   3.227   1.875  3.8205 -0.4079 -1.0077
  396MOL0     H53457   5.705   3.385   1.942  0.4042 -0.0029  0.7194
  396MOL0     H53458   5.994   3.391   1.641 -0.2832 -0.7731 -1.5588
  396MOL0     H53459   5.207   3.360   2.012 -2.3533  1.0605  0.9357
  396MOL0     H53460   4.994   3.266   1.992 -1.1953 -0.2550  0.1040
  397MOL0     O53461   3.317   7.730   7.584 -0.3917 -0.6092  0.0195
  397MOL0     C53462   3.385   7.726   7.691  0.0361 -0.3038  0.5888
  397MOL0     O53463   3.342   7.768   7.814  0.2041 -1.4959 -0.4029
  397MOL0     C53464   3.212   7.807   7.833 -0.5108  0.3613  0.0876
  397MOL0     C53465   3.127   7.707   7.858  0.3828  0.3555 -0.1698
  397MOL0     C53466   2.990   7.732   7.870 -1.0382 -0.6652  0.8482
  397MOL0     C53467   2.943   7.860   7.834  0.6681  0.5972  0.7874
  397MOL0     O53468   2.809   7.887   7.841  0.4099  0.3080  0.6419
  397MOL0     C53469   2.718   7.793   7.903  0.0820 -0.7026  0.3525
  397MOL0     C53470   2.576   7.856   7.917 -0.2977  0.3877  0.2342
  397MOL0     C53471   2.581   7.987   8.003  0.2996 -0.3917  0.6105
  397MOL0     C53472   2.457   8.067   7.969  0.3233  0.6807  0.5150
  397MOL0     C53473   2.433   8.157   8.090  0.2130  0.5773 -0.2741
  397MOL0     C53474   2.299   8.238   8.079  0.0707 -0.4262 -0.5200
  397MOL0     C53475   2.288   8.335   8.204  0.0822  0.4610 -0.4583
  397MOL0     C53476   2.276   8.283   8.344 -0.3481 -0.0310  0.7900
  397MOL0     N53477   2.149   8.218   8.371 -0.0121 -1.0012  0.6437
  397MOL0     C53478   2.130   8.086   8.396 -0.4456  0.3624 -0.6963
  397MOL0     C53479   2.009   8.075   8.454 -1.0789 -0.3520 -0.0943
  397MOL0     C53480   1.954   7.947   8.514 -0.8257 -0.6830  0.2675
  397MOL0     C53481   1.922   7.843   8.408  0.4171 -1.0870 -0.6585
  397MOL0     C53482   1.826   7.745   8.465 -0.0169  0.2333 -0.1696
  397MOL0     C53483   1.689   7.795   8.480  0.8157 -1.1250 -0.0452
  397MOL0     O53484   1.614   7.674   8.488  0.1673  0.2569 -0.6506
  397MOL0     C53485   1.480   7.682   8.495  0.9106  0.4565 -0.2062
  397MOL0     C53486   1.407   7.807   8.497 -0.9571  0.6974 -0.1285
  397MOL0     C53487   1.272   7.818   8.485  0.6732 -0.6867 -0.1307
  397MOL0     C53488   1.213   7.958   8.469  0.3686  0.2709 -0.3261
  397MOL0     C53489   1.197   7.698   8.479  0.6826  0.4454 -0.7156
  397MOL0     C53490   1.051   7.701   8.478  0.4123  0.3889  0.0518
  397MOL0     O53491   0.999   7.612   8.386 -0.2052  0.0149 -0.2872
  397MOL0     C53492   0.867   7.636   8.351 -0.3595 -0.6100 -0.3219
  397MOL0     C53493   0.828   7.725   8.245  0.0104 -0.7661 -0.4360
  397MOL0     C53494   0.696   7.748   8.213  0.2478  0.3799 -0.7756
  397MOL0     C53495   0.598   7.681   8.281  0.4398 -0.4301  0.7707
  397MOL0     O53496   0.467   7.700   8.252 -0.5674  0.3886 -0.1516
  397MOL0     C53497   0.427   7.828   8.222 -0.1005 -0.2399  0.1832
  397MOL0     C53498   0.269   7.822   8.230  0.1333 -0.1575 -0.4742
  397MOL0     C53499   0.213   7.967   8.226  0.0924  0.5052 -0.2356
  397MOL0     C53500   0.055   7.960   8.231  0.7744  0.2174  0.3628
  397MOL0     C53501  -0.008   8.096   8.252 -0.7122  0.7441 -0.1331
  397MOL0     C53502  -0.154   8.081   8.302 -0.9589 -0.5627  0.3127
  397MOL0     C53503  -0.224   8.220   8.321 -0.8034  0.2264  0.6119
  397MOL0     C53504  -0.373   8.207   8.323  0.3835  0.5270  0.9180
  397MOL0    Cl53505  -0.430   8.375   8.360 -0.0244 -0.3022 -0.4307
  397MOL0     C53506   0.633   7.582   8.365  0.0277  0.1275  0.0372
  397MOL0     C53507   0.767   7.566   8.418 -0.3276  0.0438  0.1968
  397MOL0     O53508   0.987   7.780   8.551  0.0851  0.3437 -0.0020
  397MOL0     C53509   1.263   7.572   8.466 -0.3897  1.1512  0.2636
  397MOL0     C53510   1.401   7.565   8.479 -0.2427 -0.3462 -0.2129
  397MOL0     N53511   1.949   8.197   8.441 -0.1529 -0.1080  0.2836
  397MOL0     N53512   2.034   8.289   8.401  0.6811 -0.0574  0.5449
  397MOL0     C53513   3.029   7.961   7.813  0.9304  0.0206 -0.2676
  397MOL0     C53514   3.170   7.942   7.811 -0.1305  0.7551 -0.7149
  397MOL0     C53515   3.533   7.707   7.680 -0.0191  0.4148 -0.1019
  397MOL0     C53516   3.580   7.635   7.566  0.0158 -0.6476  0.4776
  397MOL0     C53517   3.711   7.592   7.561 -0.5152 -0.7821 -0.0279
  397MOL0     C53518   3.799   7.629   7.661 -0.2332  0.0659  0.0993
  397MOL0     O53519   3.927   7.577   7.641  0.8982 -0.2271 -0.0385
  397MOL0     C53520   4.036   7.608   7.731  0.9152  0.6529  0.2898
  397MOL0     C53521   4.165   7.531   7.704  0.0127 -0.2918 -0.4507
  397MOL0     C53522   4.265   7.538   7.828  0.7249  0.6058 -0.5970
  397MOL0     C53523   4.232   7.459   7.955  0.7189  0.2342  0.6276
  397MOL0     C53524   4.298   7.526   8.062 -0.2351  0.0361 -0.0334
  397MOL0     C53525   4.367   7.571   8.156 -0.9771  0.4192  0.6054
  397MOL0     C53526   3.757   7.704   7.773 -0.3127  0.2820 -0.1795
  397MOL0     C53527   3.621   7.735   7.784 -0.1111  0.7680 -0.7284
  397MOL0     H53528   3.160   7.608   7.889  0.0765 -0.0186 -1.0252
  397MOL0     H53529   2.920   7.650   7.887 -1.6957 -0.0112  1.3498
  397MOL0     H53530   2.715   7.707   7.837  0.0477  0.0970 -0.7215
  397MOL0     H53531   2.770   7.762   7.994  0.4618 -3.1302 -0.6311
  397MOL0     H53532   2.524   7.877   7.824 -1.1606 -0.7835  0.4356
  397MOL0     H53533   2.523   7.782   7.978 -0.2527 -1.2877 -1.6620
  397MOL0     H53534   2.579   7.956   8.108 -0.2920 -0.4418  0.5869
  397MOL0     H53535   2.669   8.043   7.968 -0.2234 -1.6127 -3.2180
  397MOL0     H53536   2.469   8.122   7.876 -1.4454  2.4515  1.2697
  397MOL0     H53537   2.367   8.007   7.956  0.3735  0.7347 -0.1005
  397MOL0     H53538   2.439   8.099   8.182 -1.1395 -2.2982 -1.8853
  397MOL0     H53539   2.508   8.237   8.090 -0.1450  0.9586  1.6677
  397MOL0     H53540   2.289   8.296   7.987  0.4286 -0.8846 -0.8512
  397MOL0     H53541   2.219   8.163   8.087 -0.1047 -0.1598  0.3818
  397MOL0     H53542   2.378   8.399   8.204  0.3183  0.4260 -4.4722
  397MOL0     H53543   2.197   8.393   8.189 -0.0457  0.1469 -0.9203
  397MOL0     H53544   2.299   8.370   8.405  1.5422  0.9480 -1.1900
  397MOL0     H53545   2.364   8.220   8.360  0.7951  1.0724 -0.8141
  397MOL0     H53546   2.198   8.002   8.381 -0.1214  0.5455 -0.2819
  397MOL0     H53547   2.022   7.909   8.590  0.6335 -0.5422 -0.9124
  397MOL0     H53548   1.867   7.979   8.572 -1.1423  1.1001 -1.0820
  397MOL0     H53549   2.009   7.794   8.363  0.4164 -0.3512 -1.4903
  397MOL0     H53550   1.862   7.891   8.330 -0.0466 -1.4633 -0.5310
  397MOL0     H53551   1.850   7.717   8.568 -1.4759 -2.7237 -0.5172
  397MOL0     H53552   1.830   7.659   8.398  1.7731 -0.4026  0.7010
  397MOL0     H53553   1.665   7.852   8.390  3.5340 -1.1733 -0.8700
  397MOL0     H53554   1.670   7.856   8.569  0.4139  3.2143 -2.7768
  397MOL0     H53555   1.467   7.897   8.511 -0.0767  0.2590 -0.9645
  397MOL0     H53556   1.292   8.000   8.406  4.7937 -3.0155  2.4978
  397MOL0     H53557   1.120   7.957   8.410  0.6761  0.5375 -0.8299
  397MOL0     H53558   1.206   8.012   8.563  0.8700 -2.5315  1.4185
  397MOL0     H53559   0.898   7.794   8.199 -0.4823 -0.0248 -0.1025
  397MOL0     H53560   0.674   7.826   8.140 -0.7307  1.9852  1.1219
  397MOL0     H53561   0.454   7.906   8.294  0.2094  0.4964 -0.7080
  397MOL0     H53562   0.462   7.872   8.128 -1.1507 -1.4122 -0.7871
  397MOL0     H53563   0.221   7.757   8.156  0.3442 -0.0227 -0.7306
  397MOL0     H53564   0.243   7.768   8.322  2.0774 -3.8413 -1.8915
  397MOL0     H53565   0.243   8.016   8.133 -1.2421 -2.2613 -2.2634
  397MOL0     H53566   0.253   8.018   8.314 -0.5301  0.8320 -0.1336
  397MOL0     H53567   0.011   7.928   8.136 -0.7802  1.3902  0.6565
  397MOL0     H53568   0.029   7.886   8.307 -2.1862 -0.8115 -1.4787
  397MOL0     H53569  -0.016   8.137   8.151 -6.8906 -1.4849 -0.9573
  397MOL0     H53570   0.048   8.159   8.322  0.4363 -2.0262  1.5967
  397MOL0     H53571  -0.211   8.034   8.221  0.0031  0.7044 -1.1612
  397MOL0     H53572  -0.154   8.026   8.397  0.4429 -1.0488  0.0569
  397MOL0     H53573  -0.181   8.292   8.251  0.5860  2.4885  3.5947
  397MOL0     H53574  -0.192   8.265   8.416  0.0716  3.5146 -1.0766
  397MOL0     H53575  -0.407   8.146   8.407 -1.3645 -2.5888 -1.8469
  397MOL0     H53576  -0.407   8.162   8.230  1.0916 -1.6997  1.6796
  397MOL0     H53577   0.554   7.527   8.416  1.0520  1.1131  2.9197
  397MOL0     H53578   0.803   7.492   8.489 -1.3619 -0.0113  0.6818
  397MOL0     H53579   1.214   7.477   8.450  2.1412 -0.8059  3.0341
  397MOL0     H53580   1.450   7.469   8.483 -0.4243 -0.4119  1.4867
  397MOL0     H53581   2.996   8.061   7.788  0.6656  0.3913  1.4580
  397MOL0     H53582   3.249   8.014   7.794 -0.8433  1.2640 -2.0410
  397MOL0     H53583   3.517   7.637   7.478  0.0412 -1.9865  0.4132
  397MOL0     H53584   3.738   7.544   7.467  1.6616  0.6489 -0.2296
  397MOL0     H53585   4.055   7.715   7.728 -0.0442  0.8219  0.1292
  397MOL0     H53586   4.007   7.591   7.836  1.2628  1.2332  0.4841
  397MOL0     H53587   4.202   7.576   7.612 -1.0269  1.4811 -0.0413
  397MOL0     H53588   4.126   7.430   7.689 -0.1161 -0.8324  2.6854
  397MOL0     H53589   4.257   7.645   7.851 -3.1604  0.3815 -0.1455
  397MOL0     H53590   4.372   7.522   7.818  0.6897  0.6452 -1.0369
  397MOL0     H53591   4.257   7.352   7.946 -0.4414 -0.0253  0.3531
  397MOL0     H53592   4.124   7.461   7.976  0.8825  0.7679  1.4757
  397MOL0     H53593   4.421   7.630   8.228  0.3864 -1.8944  1.6141
  397MOL0     H53594   3.821   7.724   7.858  0.6229 -2.4408 -0.1664
  397MOL0     H53595   3.593   7.801   7.866 -0.3868  0.5996 -0.6862
  398MOL0     O53596   2.324   7.898   4.761  0.4226 -0.0988  0.1556
  398MOL0     C53597   2.383   7.978   4.690 -0.3640  0.5386  0.2856
  398MOL0     O53598   2.321   8.083   4.625 -0.2291  0.4073 -0.2082
  398MOL0     C53599   2.184   8.102   4.659 -0.1101 -0.2930 -0.2476
  398MOL0     C53600   2.090   8.131   4.567  0.0918 -0.4436 -0.3145
  398MOL0     C53601   1.966   8.182   4.604  0.3482 -0.8498  0.5620
  398MOL0     C53602   1.929   8.190   4.732 -0.0682  0.4790  0.3758
  398MOL0     O53603   1.807   8.243   4.763 -0.2278 -0.6433 -0.0343
  398MOL0     C53604   1.757   8.198   4.890 -0.1884  0.7558  0.7029
  398MOL0     C53605   1.605   8.226   4.885 -0.5154  0.4805  0.3984
  398MOL0     C53606   1.542   8.201   5.028  0.8598  0.7554  0.8191
  398MOL0     C53607   1.388   8.199   5.007  0.5823  0.0049 -0.1148
  398MOL0     C53608   1.306   8.189   5.141  0.5722  1.9718  0.2723
  398MOL0     C53609   1.153   8.206   5.124 -0.2305 -1.1255 -0.2763
  398MOL0     C53610   1.106   8.351   5.111  0.3896  0.0431 -0.2821
  398MOL0     C53611   1.142   8.435   5.236  0.6613 -0.1853  0.2377
  398MOL0     N53612   1.103   8.575   5.199 -0.6563 -0.2975 -0.2976
  398MOL0     C53613   0.994   8.647   5.224 -0.1840 -0.2374  0.0581
  398MOL0     C53614   1.017   8.773   5.175  0.0667  0.8208  1.0142
  398MOL0     C53615   0.925   8.894   5.176  0.3479  0.5178  1.0313
  398MOL0     C53616   0.872   8.888   5.035 -0.0041  0.4813 -0.2671
  398MOL0     C53617   0.811   9.021   4.999 -0.6747  0.2723  0.0066
  398MOL0     C53618   0.740   9.013   4.866 -0.2640 -0.5341 -0.8620
  398MOL0     O53619   0.629   8.923   4.892 -0.9371  0.3083 -0.0513
  398MOL0     C53620   0.501   8.960   4.876 -1.6350  0.3516 -0.0507
  398MOL0     C53621   0.446   9.016   4.751 -0.5897  0.4007 -0.3325
  398MOL0     C53622   0.310   9.030   4.716 -0.6557 -0.2179  0.2688
  398MOL0     C53623   0.277   9.092   4.583 -1.0336  0.0664 -0.2512
  398MOL0     C53624   0.210   9.004   4.813 -0.3051 -0.1696 -0.1516
  398MOL0     C53625   0.068   9.039   4.805 -0.5326  0.0251  0.1731
  398MOL0     O53626  -0.002   9.047   4.919  0.1276 -0.0003 -0.1242
  398MOL0     C53627  -0.124   9.104   4.923 -0.2218  0.7838  0.6997
  398MOL0     C53628  -0.151   9.221   4.853  0.1963  0.6527  1.2386
  398MOL0     C53629  -0.280   9.277   4.859  0.0138 -0.2228 -0.1853
  398MOL0     C53630  -0.377   9.225   4.938  0.4000  0.3919 -0.4893
  398MOL0     O53631  -0.497   9.297   4.940 -0.3218 -0.3637 -0.1796
  398MOL0     C53632  -0.619   9.231   4.992  0.5891 -0.9688  0.1004
  398MOL0     C53633  -0.734   9.331   4.952  0.0891 -0.0717 -0.1379
  398MOL0     C53634  -0.762   9.427   5.064  0.0192  0.5143 -0.3303
  398MOL0     C53635  -0.873   9.520   5.024  0.1721  0.7256 -0.4249
  398MOL0     C53636  -0.950   9.580   5.140  0.1148  0.3001 -0.6219
  398MOL0     C53637  -1.079   9.638   5.115  0.3994 -0.4361  0.4656
  398MOL0     C53638  -1.151   9.713   5.238  0.1460 -0.5301  0.1568
  398MOL0     C53639  -1.280   9.770   5.184 -0.3105 -0.0786  0.4669
  398MOL0    Cl53640  -1.367   9.861   5.310  0.0353  0.2621 -0.3116
  398MOL0     C53641  -0.345   9.109   5.013 -0.3316  0.0546 -0.1022
  398MOL0     C53642  -0.219   9.049   5.005  0.4284  0.1268 -0.1725
  398MOL0     O53643   0.019   9.053   4.691 -0.3243 -0.2594  0.4093
  398MOL0     C53644   0.268   8.969   4.939 -0.2610 -0.6307  0.9107
  398MOL0     C53645   0.404   8.950   4.970  0.2967 -0.3326  0.4831
  398MOL0     N53646   1.144   8.773   5.114 -0.3196 -0.3091 -0.2947
  398MOL0     N53647   1.193   8.654   5.120 -0.0911 -0.4643 -0.6045
  398MOL0     C53648   2.021   8.161   4.822 -0.2198  0.3181  0.5002
  398MOL0     C53649   2.149   8.115   4.793  0.2727  0.0091  0.2277
  398MOL0     C53650   2.530   7.970   4.679  1.1699  0.9918 -0.4693
  398MOL0     C53651   2.600   8.079   4.630 -0.3055  0.7648  0.2381
  398MOL0     C53652   2.739   8.088   4.649  0.8854  0.7534  0.1794
  398MOL0     C53653   2.805   7.970   4.679  0.6505  0.0129 -0.7953
  398MOL0     O53654   2.938   7.987   4.696  0.6543  0.1896  0.3965
  398MOL0     C53655   3.006   8.011   4.569  0.1810  0.3012  0.2827
  398MOL0     C53656   3.057   7.878   4.499  0.6707  0.2269 -0.9308
  398MOL0     C53657   3.149   7.913   4.380 -0.1253 -0.0181 -0.3669
  398MOL0     C53658   3.229   7.800   4.321 -0.0503  0.1359 -0.6575
  398MOL0     C53659   3.304   7.732   4.426 -0.6788  0.3202 -0.1250
  398MOL0     C53660   3.349   7.672   4.526 -0.0057 -0.6325  0.5358
  398MOL0     C53661   2.743   7.854   4.716  0.5053  0.5528  0.4364
  398MOL0     C53662   2.603   7.859   4.730 -0.0282 -0.3147  0.6419
  398MOL0     H53663   2.122   8.106   4.467  2.2009 -0.6041  0.3529
  398MOL0     H53664   1.895   8.204   4.525 -0.1319 -2.4850  0.4966
  398MOL0     H53665   1.778   8.093   4.912 -3.2556 -0.5628 -1.8559
  398MOL0     H53666   1.804   8.268   4.960 -0.6376  0.7292  1.0331
  398MOL0     H53667   1.585   8.329   4.855  1.1251  1.0821  1.2213
  398MOL0     H53668   1.568   8.154   4.811 -1.1812  0.0218  1.1617
  398MOL0     H53669   1.574   8.109   5.078 -0.3320  0.0316  0.2646
  398MOL0     H53670   1.564   8.284   5.096  1.0982 -0.3991  2.1960
  398MOL0     H53671   1.365   8.295   4.960  0.0918 -0.3429 -0.5923
  398MOL0     H53672   1.361   8.119   4.938 -1.6297  0.9130 -0.3682
  398MOL0     H53673   1.321   8.087   5.177 -0.3670  0.9291 -2.0579
  398MOL0     H53674   1.338   8.260   5.217  1.9791  1.0805  0.5345
  398MOL0     H53675   1.141   8.163   5.024  2.6248  0.2850 -1.3467
  398MOL0     H53676   1.099   8.157   5.205  0.5322 -0.8925  0.3838
  398MOL0     H53677   1.165   8.393   5.029 -1.5840  0.2635 -1.6455
  398MOL0     H53678   1.002   8.361   5.078  0.8308  2.0531 -1.2201
  398MOL0     H53679   1.250   8.427   5.251  0.9356  0.6871 -1.1721
  398MOL0     H53680   1.090   8.388   5.320  0.1326 -0.4820 -0.2449
  398MOL0     H53681   0.903   8.632   5.281 -0.0754 -0.9132  0.0598
  398MOL0     H53682   0.845   8.878   5.249 -0.9404 -0.2233 -0.4751
  398MOL0     H53683   0.982   8.982   5.207 -1.0291  1.8221 -0.0034
  398MOL0     H53684   0.798   8.808   5.029 -1.3883  1.4646  2.0323
  398MOL0     H53685   0.943   8.867   4.955 -1.9361 -0.7072 -1.7473
  398MOL0     H53686   0.877   9.108   5.007 -1.5821  1.1635 -1.7427
  398MOL0     H53687   0.732   9.043   5.072 -1.4480  0.4356 -0.8690
  398MOL0     H53688   0.803   8.968   4.788 -1.3215 -1.3017 -1.3031
  398MOL0     H53689   0.718   9.117   4.841  3.2994  0.6679  0.4748
  398MOL0     H53690   0.516   9.029   4.670  1.2691 -3.1715  0.4600
  398MOL0     H53691   0.190   9.041   4.540  0.0220 -1.2129 -0.9464
  398MOL0     H53692   0.252   9.196   4.606  0.0866  0.2799  0.0241
  398MOL0     H53693   0.351   9.084   4.502 -2.1401 -0.4950 -1.2567
  398MOL0     H53694  -0.075   9.274   4.797  1.2170 -0.4702  1.5128
  398MOL0     H53695  -0.310   9.365   4.804  1.6346  0.8249  0.4937
  398MOL0     H53696  -0.643   9.136   4.944  0.2219 -1.6364  1.5453
  398MOL0     H53697  -0.614   9.209   5.099  2.0498 -3.7538 -0.4591
  398MOL0     H53698  -0.715   9.389   4.861 -0.8570 -0.4289 -0.5875
  398MOL0     H53699  -0.827   9.273   4.941 -1.0253  1.1559  2.1427
  398MOL0     H53700  -0.672   9.483   5.090  1.1157 -2.4142  2.9937
  398MOL0     H53701  -0.791   9.370   5.152 -2.8348  1.7152 -0.3678
  398MOL0     H53702  -0.848   9.603   4.958  0.8468  0.4184 -0.5584
  398MOL0     H53703  -0.943   9.456   4.969 -0.8084  2.7172 -1.5994
  398MOL0     H53704  -0.893   9.659   5.189 -3.0145  1.0264  2.2257
  398MOL0     H53705  -0.966   9.502   5.216  1.4239 -0.0145 -0.6331
  398MOL0     H53706  -1.066   9.709   5.033  4.4988  1.3057  2.3579
  398MOL0     H53707  -1.143   9.562   5.068 -0.4436  2.1818 -3.0036
  398MOL0     H53708  -1.089   9.793   5.279 -0.7514  0.7900 -1.0089
  398MOL0     H53709  -1.168   9.645   5.322  2.1885 -0.6040  0.5604
  398MOL0     H53710  -1.331   9.681   5.146  1.8873 -1.4999  0.6616
  398MOL0     H53711  -1.268   9.845   5.106  1.9940  0.4126  1.2231
  398MOL0     H53712  -0.419   9.061   5.076 -2.1906 -0.6742 -2.6743
  398MOL0     H53713  -0.206   8.964   5.071 -2.3727  0.0259  0.3916
  398MOL0     H53714   0.206   8.966   5.028 -1.9739  0.1772 -0.2092
  398MOL0     H53715   0.432   8.908   5.067  1.2765 -2.1167 -0.5325
  398MOL0     H53716   1.999   8.162   4.929  0.0556 -3.1616  0.7077
  398MOL0     H53717   2.234   8.099   4.858  3.1105 -2.0453 -3.5491
  398MOL0     H53718   2.554   8.170   4.592 -0.9760  0.5267  0.4577
  398MOL0     H53719   2.783   8.183   4.620 -0.6980  1.6726  0.7227
  398MOL0     H53720   2.948   8.077   4.504  0.8633  0.8654  0.2320
  398MOL0     H53721   3.098   8.067   4.591 -0.1294  0.1045  2.2043
  398MOL0     H53722   2.976   7.811   4.469  3.8332 -3.8546 -1.2007
  398MOL0     H53723   3.115   7.828   4.576  0.0914 -0.0544 -0.6730
  398MOL0     H53724   3.220   7.991   4.408  1.9611 -1.7304 -0.6661
  398MOL0     H53725   3.086   7.952   4.299 -0.4081 -1.1622 -0.7160
  398MOL0     H53726   3.296   7.830   4.240 -2.5517  0.8433 -2.5853
  398MOL0     H53727   3.156   7.728   4.283  1.6492 -1.4179 -1.1388
  398MOL0     H53728   3.395   7.622   4.609  0.5895 -1.9626 -0.5738
  398MOL0     H53729   2.797   7.763   4.740  2.9013  1.7999  0.1363
  398MOL0     H53730   2.547   7.777   4.775 -1.5693 -0.3277 -1.1718
  399MOL0     O53731   8.637   4.814  10.252 -0.4218  0.3320  0.3879
  399MOL0     C53732   8.659   4.896  10.340  0.4916 -0.3139  0.1942
  399MOL0     O53733   8.558   4.967  10.406 -0.5607  0.0977 -0.9155
  399MOL0     C53734   8.427   4.946  10.373 -0.1427 -0.0594  0.6400
  399MOL0     C53735   8.365   5.035  10.285  0.3794 -0.6915 -1.0509
  399MOL0     C53736   8.228   5.024  10.261  0.5741 -0.2418 -0.5405
  399MOL0     C53737   8.152   4.938  10.342 -0.7889 -0.1900 -0.0010
  399MOL0     O53738   8.017   4.940  10.343 -0.1594 -0.1356 -0.3215
  399MOL0     C53739   7.971   5.076  10.357 -0.2779  1.0761 -0.0425
  399MOL0     C53740   7.824   5.049  10.389 -0.6338  0.5526  0.6058
  399MOL0     C53741   7.754   5.173  10.421 -0.1124 -0.3474  0.2190
  399MOL0     C53742   7.640   5.140  10.518  0.5976  0.4082 -0.1627
  399MOL0     C53743   7.514   5.078  10.444 -0.2528 -0.6078 -0.5339
  399MOL0     C53744   7.391   5.059  10.525  0.9648 -0.4124  0.6759
  399MOL0     C53745   7.325   5.187  10.568 -0.0470 -0.4016 -0.8904
  399MOL0     C53746   7.226   5.159  10.690 -0.0922 -0.1419  0.5392
  399MOL0     N53747   7.114   5.078  10.650  0.1618 -0.4395  0.1805
  399MOL0     C53748   7.028   5.021  10.746  0.1488 -0.3460 -0.2775
  399MOL0     C53749   6.938   4.950  10.675  0.8646  0.5644 -0.0879
  399MOL0     C53750   6.832   4.858  10.724 -0.9584 -0.8290  0.3797
  399MOL0     C53751   6.753   4.769  10.615  0.2202 -0.1838  0.2837
  399MOL0     C53752   6.630   4.845  10.569  0.4650  0.7389  0.3716
  399MOL0     C53753   6.555   4.776  10.453  0.5304 -0.4366 -0.4451
  399MOL0     O53754   6.430   4.847  10.433 -0.6347  0.3890 -0.1881
  399MOL0     C53755   6.334   4.768  10.367  0.5540  0.3289 -0.6382
  399MOL0     C53756   6.368   4.652  10.293  0.2837 -0.5460  0.5393
  399MOL0     C53757   6.278   4.566  10.232 -0.0371  0.0375 -0.1050
  399MOL0     C53758   6.337   4.457  10.144 -0.6178  0.9436 -0.0961
  399MOL0     C53759   6.145   4.602  10.250 -0.2700  0.1040  0.3113
  399MOL0     C53760   6.032   4.525  10.185  0.2825  0.7713 -0.1135
  399MOL0     O53761   5.906   4.560  10.220 -0.8554 -0.0983 -0.5101
  399MOL0     C53762   5.799   4.472  10.209 -0.1234  0.5862 -0.3419
  399MOL0     C53763   5.678   4.510  10.269  0.1666  0.8275 -0.0562
  399MOL0     C53764   5.561   4.436  10.278 -0.1292  0.6470  0.0991
  399MOL0     C53765   5.562   4.315  10.203  0.1557  0.5323  0.6545
  399MOL0     O53766   5.449   4.228  10.184 -0.6153  0.0737 -0.7582
  399MOL0     C53767   5.325   4.266  10.247  0.4252 -0.0344 -0.0024
  399MOL0     C53768   5.233   4.355  10.159 -0.0541 -0.3081  0.0473
  399MOL0     C53769   5.095   4.364  10.230 -0.0275 -0.0183 -0.2560
  399MOL0     C53770   4.985   4.434  10.158  0.0257 -0.6242  0.2216
  399MOL0     C53771   4.853   4.432  10.230 -0.5483 -0.8454  0.0398
  399MOL0     C53772   4.790   4.294  10.243  0.2676  0.6195 -0.1030
  399MOL0     C53773   4.649   4.316  10.306 -1.2507 -0.3045 -0.1821
  399MOL0     C53774   4.601   4.190  10.383  0.3034 -0.0975  0.0652
  399MOL0    Cl53775   4.443   4.241  10.463  0.2422  0.1426 -0.0725
  399MOL0     C53776   5.676   4.278  10.140 -0.4153  0.4569  0.0276
  399MOL0     C53777   5.789   4.349  10.138 -0.1052 -0.4680 -0.2984
  399MOL0     O53778   6.058   4.444  10.091 -0.0307  0.5294  0.2789
  399MOL0     C53779   6.110   4.720  10.322  0.0679  0.7955  0.0693
  399MOL0     C53780   6.198   4.801  10.386 -0.3402 -0.6556  0.5958
  399MOL0     N53781   6.975   4.970  10.537 -0.1180 -0.6689  0.1715
  399MOL0     N53782   7.074   5.053  10.519  0.2768  0.9169 -0.4231
  399MOL0     C53783   8.213   4.847  10.423 -0.5550  0.0898 -0.1163
  399MOL0     C53784   8.354   4.847  10.440 -0.9904  0.1452  1.1698
  399MOL0     C53785   8.792   4.904  10.398  0.2015  0.6509 -0.8023
  399MOL0     C53786   8.820   4.972  10.519  0.2146 -0.0581 -0.2635
  399MOL0     C53787   8.943   4.965  10.581 -0.8201  0.0887  0.4871
  399MOL0     C53788   9.044   4.891  10.524  0.0336 -0.0325  0.0595
  399MOL0     O53789   9.158   4.898  10.602 -0.0453 -0.4338  0.1520
  399MOL0     C53790   9.287   4.886  10.540 -0.0016 -0.9431  0.1339
  399MOL0     C53791   9.354   4.765  10.573  0.4283  0.0774  0.1893
  399MOL0     C53792   9.486   4.745  10.492 -0.5297  0.2017  1.1909
  399MOL0     C53793   9.606   4.800  10.570 -0.0271 -0.2311  0.1426
  399MOL0     C53794   9.625   4.946  10.554  0.1043 -0.2688 -0.5326
  399MOL0     C53795   9.644   5.068  10.547  0.3495 -0.3615  0.1542
  399MOL0     C53796   9.028   4.823  10.401  0.4218  0.0889  0.1025
  399MOL0     C53797   8.901   4.836  10.341 -0.2447  0.3335 -0.5883
  399MOL0     H53798   8.415   5.114  10.229 -0.5549  0.8374  0.1905
  399MOL0     H53799   8.190   5.095  10.189  0.0589  0.7219  0.6420
  399MOL0     H53800   8.017   5.131  10.439  1.9102  1.4830 -1.4643
  399MOL0     H53801   7.994   5.122  10.260  1.0975 -0.9287 -0.7348
  399MOL0     H53802   7.776   4.998  10.305  3.1026 -0.8768 -0.8561
  399MOL0     H53803   7.835   4.976  10.471  5.1954 -0.7924 -0.9341
  399MOL0     H53804   7.828   5.233  10.476  1.5102 -0.3451 -1.8739
  399MOL0     H53805   7.718   5.231  10.336 -0.1135 -1.0483 -0.2657
  399MOL0     H53806   7.681   5.077  10.597 -0.9501 -0.2814  0.1407
  399MOL0     H53807   7.620   5.234  10.571  1.7377 -0.5504  2.0906
  399MOL0     H53808   7.495   5.146  10.361  1.0959 -0.1335 -0.4935
  399MOL0     H53809   7.539   4.988  10.387 -2.2029 -0.2318 -2.0588
  399MOL0     H53810   7.320   5.002  10.464 -0.0235  0.7324  0.7072
  399MOL0     H53811   7.412   5.001  10.615 -0.5845 -0.9339  0.7231
  399MOL0     H53812   7.397   5.262  10.604  1.2407 -1.0463 -2.0206
  399MOL0     H53813   7.278   5.231  10.479  1.6593  0.2788 -1.4986
  399MOL0     H53814   7.190   5.256  10.724  0.2756 -0.0796  0.7525
  399MOL0     H53815   7.278   5.109  10.772  0.1337  1.8491  1.6631
  399MOL0     H53816   7.033   5.042  10.852  3.6639  1.3374 -0.6041
  399MOL0     H53817   6.890   4.792  10.790 -0.3712  0.1863  0.9119
  399MOL0     H53818   6.767   4.915  10.791  1.7752  1.8507  0.9698
  399MOL0     H53819   6.717   4.676  10.659 -2.3789  0.8613  0.5282
  399MOL0     H53820   6.823   4.744  10.534  2.7119 -0.1377  2.2753
  399MOL0     H53821   6.678   4.934  10.526  1.9943 -0.4251 -0.4466
  399MOL0     H53822   6.567   4.868  10.655  0.6718  1.0749  0.4349
  399MOL0     H53823   6.524   4.674  10.477 -0.9055  0.1213  0.1714
  399MOL0     H53824   6.620   4.773  10.365  0.2686 -0.1302 -0.6516
  399MOL0     H53825   6.472   4.622  10.283  0.0841 -2.2858  2.8151
  399MOL0     H53826   6.446   4.448  10.149 -0.7542 -0.5109  1.3369
  399MOL0     H53827   6.295   4.361  10.176  0.7849  0.0677 -0.8117
  399MOL0     H53828   6.315   4.470  10.038  2.4428 -0.1039 -0.9495
  399MOL0     H53829   5.688   4.607  10.316 -0.4586  0.4813  0.8244
  399MOL0     H53830   5.488   4.489  10.337 -0.1571  1.9811 -1.0627
  399MOL0     H53831   5.272   4.172  10.265 -0.7058  0.5884 -0.0137
  399MOL0     H53832   5.346   4.312  10.344 -0.3649  1.2773 -0.4409
  399MOL0     H53833   5.275   4.456  10.152  2.5236 -1.4115 -2.5117
  399MOL0     H53834   5.227   4.309  10.060 -1.6555  0.8146 -0.4172
  399MOL0     H53835   5.102   4.414  10.327  1.7683  3.2873 -1.9056
  399MOL0     H53836   5.056   4.264  10.250 -1.0275  0.7777  2.1839
  399MOL0     H53837   5.014   4.537  10.134  0.2936 -0.1925  2.2179
  399MOL0     H53838   4.975   4.389  10.059  2.2116  0.0890 -0.3748
  399MOL0     H53839   4.793   4.501  10.171  0.4742  0.3170  0.3165
  399MOL0     H53840   4.878   4.483  10.323  3.4956 -2.5583  0.1064
  399MOL0     H53841   4.776   4.248  10.144 -0.6584  2.0902 -0.6972
  399MOL0     H53842   4.845   4.230  10.312  1.0022  0.7655 -0.5365
  399MOL0     H53843   4.594   4.349  10.218  0.3632  1.7128 -0.5282
  399MOL0     H53844   4.661   4.400  10.375  0.3492  0.1028 -0.9002
  399MOL0     H53845   4.667   4.158  10.463 -0.1107  2.6275  1.6391
  399MOL0     H53846   4.585   4.113  10.307  1.3374  0.5580 -0.8677
  399MOL0     H53847   5.673   4.183  10.088 -1.2386  1.7961 -2.5465
  399MOL0     H53848   5.862   4.305  10.071 -0.2030 -1.9369  0.5224
  399MOL0     H53849   6.002   4.725  10.331  0.2023  1.5798  1.3846
  399MOL0     H53850   6.158   4.881  10.448  0.2968 -0.0055  0.1788
  399MOL0     H53851   8.148   4.776  10.473 -1.7982  1.0759 -0.2969
  399MOL0     H53852   8.411   4.776  10.499  2.0229  0.7599 -0.7846
  399MOL0     H53853   8.741   5.029  10.566  0.8003  1.5542 -1.1410
  399MOL0     H53854   8.953   5.011  10.679 -2.6189  1.7605 -0.0466
  399MOL0     H53855   9.280   4.900  10.432 -0.4028  3.2578  0.5265
  399MOL0     H53856   9.348   4.972  10.569 -0.5763 -1.3391  2.7309
  399MOL0     H53857   9.286   4.686  10.541  2.3540 -2.0195  0.9938
  399MOL0     H53858   9.379   4.760  10.679  1.4672 -0.5274 -0.0682
  399MOL0     H53859   9.473   4.782  10.390 -2.1086 -1.0689  0.8880
  399MOL0     H53860   9.508   4.639  10.485 -0.5932  0.1167  2.0983
  399MOL0     H53861   9.701   4.750  10.548 -0.3782 -0.6498 -0.4462
  399MOL0     H53862   9.591   4.773  10.675  0.6054  2.4859  1.0137
  399MOL0     H53863   9.659   5.175  10.548  0.4413 -0.3358 -1.5166
  399MOL0     H53864   9.103   4.764  10.349 -0.1227  0.8510 -1.6289
  399MOL0     H53865   8.893   4.781  10.248 -0.8309  0.8404 -0.8498
  400MOL0     O53866  10.201   4.427   3.990 -0.5358  0.1641 -0.1609
  400MOL0     C53867  10.268   4.338   4.049 -0.4664 -0.2540 -0.1703
  400MOL0     O53868  10.254   4.197   4.034  0.0367 -0.5382  0.3571
  400MOL0     C53869  10.155   4.159   3.946  0.2933  0.3358  0.2104
  400MOL0     C53870  10.196   4.066   3.846 -0.3818  0.3159  0.6079
  400MOL0     C53871  10.094   4.000   3.770 -0.9970 -0.3292  0.3274
  400MOL0     C53872   9.962   4.023   3.800  0.1659  1.0591  0.2222
  400MOL0     O53873   9.882   3.944   3.727 -0.1167 -1.1246 -0.0477
  400MOL0     C53874   9.750   3.916   3.771  0.4077 -0.0972  0.8454
  400MOL0     C53875   9.750   3.831   3.897  0.2124  0.2217 -0.1509
  400MOL0     C53876   9.612   3.772   3.930  0.0443  0.3070  0.4251
  400MOL0     C53877   9.602   3.748   4.075 -0.1153 -0.1547 -0.0732
  400MOL0     C53878   9.466   3.667   4.100 -0.2012 -0.3111 -0.4556
  400MOL0     C53879   9.346   3.754   4.100 -0.1534 -0.0359 -0.8779
  400MOL0     C53880   9.218   3.671   4.117  0.0681 -1.2596 -0.4318
  400MOL0     C53881   9.109   3.768   4.163 -1.0509 -0.0408  0.1054
  400MOL0     N53882   8.990   3.699   4.209  0.2236 -0.8170  0.1663
  400MOL0     C53883   8.867   3.706   4.141 -0.0368  0.0170 -0.0167
  400MOL0     C53884   8.780   3.628   4.215 -0.0569 -0.3479  0.0688
  400MOL0     C53885   8.636   3.609   4.181  0.2524  0.2854 -1.1432
  400MOL0     C53886   8.615   3.545   4.040 -0.1835 -0.3611  0.5463
  400MOL0     C53887   8.464   3.508   4.022 -1.5390  0.1061 -0.5721
  400MOL0     C53888   8.438   3.437   3.889 -0.8239  0.1886  0.4171
  400MOL0     O53889   8.321   3.362   3.891 -0.1252  0.5116  0.0802
  400MOL0     C53890   8.203   3.423   3.909  0.2025 -0.5061  0.4663
  400MOL0     C53891   8.173   3.552   3.881  0.9351 -1.0956  0.0325
  400MOL0     C53892   8.044   3.602   3.881  0.3852  0.2815  0.2007
  400MOL0     C53893   8.025   3.743   3.841  1.0805  0.6656  0.1817
  400MOL0     C53894   7.938   3.503   3.915 -0.2211 -0.3248 -0.1708
  400MOL0     C53895   7.794   3.539   3.925  0.3049 -0.0168 -0.0748
  400MOL0     O53896   7.703   3.437   3.954  0.5453 -0.1641 -0.7732
  400MOL0     C53897   7.570   3.465   3.975 -0.7927 -0.4416 -0.5506
  400MOL0     C53898   7.473   3.403   3.905  0.0183  0.4762  0.2685
  400MOL0     C53899   7.338   3.424   3.938  0.9616 -0.2714 -0.1405
  400MOL0     C53900   7.301   3.515   4.035 -0.2206 -0.0713  1.0418
  400MOL0     O53901   7.176   3.546   4.060  1.3437 -1.2485  0.4478
  400MOL0     C53902   7.096   3.437   4.098  0.8530  0.3088 -0.5536
  400MOL0     C53903   6.978   3.499   4.167  0.9484  0.1776 -0.0481
  400MOL0     C53904   6.867   3.399   4.210 -0.0219  0.4394 -0.4090
  400MOL0     C53905   6.786   3.355   4.087 -0.4245  0.5382  0.4613
  400MOL0     C53906   6.626   3.363   4.107 -0.3717  0.3479 -0.3035
  400MOL0     C53907   6.576   3.301   4.234 -0.0921  0.6374 -0.3454
  400MOL0     C53908   6.427   3.305   4.234  0.0384  0.2605  0.5647
  400MOL0     C53909   6.357   3.257   4.367  0.0180 -0.7263 -0.2182
  400MOL0    Cl53910   6.368   3.084   4.391  0.0889 -0.2677 -0.0818
  400MOL0     C53911   7.396   3.585   4.098 -0.5610  0.0780  0.2009
  400MOL0     C53912   7.534   3.556   4.078  0.0504 -0.2835 -0.7338
  400MOL0     O53913   7.766   3.636   3.855  0.6187 -0.3016 -0.4499
  400MOL0     C53914   7.979   3.373   3.947  1.1226  0.0419  0.1580
  400MOL0     C53915   8.109   3.340   3.950 -0.1242 -0.1303  0.0653
  400MOL0     N53916   8.857   3.572   4.317  0.4220  0.4019  0.0047
  400MOL0     N53917   8.980   3.611   4.312 -0.8343 -0.1634  0.0081
  400MOL0     C53918   9.917   4.107   3.896 -0.1091  0.6020  0.0470
  400MOL0     C53919  10.016   4.181   3.973 -0.7338  1.0269 -0.0337
  400MOL0     C53920  10.380   4.377   4.137 -0.1854  0.1883 -0.1081
  400MOL0     C53921  10.413   4.512   4.161  0.0539 -0.3189  0.1089
  400MOL0     C53922  10.509   4.548   4.253 -0.5005  0.1708 -0.6828
  400MOL0     C53923  10.589   4.455   4.313 -0.1068  0.1052 -0.1302
  400MOL0     O53924  10.694   4.493   4.397 -0.2268 -0.9780 -0.1550
  400MOL0     C53925  10.697   4.450   4.531 -0.4467  0.8679 -0.4330
  400MOL0     C53926  10.774   4.536   4.632  0.9428 -0.0189 -0.4079
  400MOL0     C53927  10.741   4.479   4.772  0.3248  1.1301  0.2780
  400MOL0     C53928  10.763   4.558   4.904 -0.2390 -0.1093 -0.4968
  400MOL0     C53929  10.892   4.613   4.911  0.4432  0.1803 -0.3715
  400MOL0     C53930  11.004   4.667   4.918 -0.1698 -0.7013 -0.9187
  400MOL0     C53931  10.547   4.325   4.301 -0.0541 -0.2679  0.5458
  400MOL0     C53932  10.453   4.278   4.210 -0.0130 -0.5267 -0.9232
  400MOL0     H53933  10.298   4.042   3.817  0.1950  1.4215  1.6417
  400MOL0     H53934  10.112   3.929   3.690 -4.6929  1.8479 -2.8288
  400MOL0     H53935   9.691   4.008   3.779 -1.2391 -0.5002 -3.5739
  400MOL0     H53936   9.703   3.864   3.687 -0.5935  1.0113  0.6916
  400MOL0     H53937   9.818   3.747   3.879  0.5618  0.5219 -0.2476
  400MOL0     H53938   9.790   3.896   3.975  4.6564  0.0501 -2.0054
  400MOL0     H53939   9.530   3.838   3.900 -2.3928 -1.5865  2.4869
  400MOL0     H53940   9.595   3.684   3.866 -0.3202  0.9879 -0.4407
  400MOL0     H53941   9.689   3.687   4.100  0.5168  0.5119 -0.5980
  400MOL0     H53942   9.600   3.828   4.148  2.7564 -1.1470  1.2263
  400MOL0     H53943   9.455   3.587   4.026  2.0948 -0.0189 -1.1980
  400MOL0     H53944   9.468   3.614   4.196  1.1809 -0.4062 -0.5072
  400MOL0     H53945   9.352   3.833   4.176  3.7107 -0.1204 -0.9046
  400MOL0     H53946   9.336   3.804   4.004 -0.4906  2.8399  0.5441
  400MOL0     H53947   9.194   3.615   4.027 -1.5276  1.0047 -1.5131
  400MOL0     H53948   9.225   3.595   4.196 -0.0689 -2.2301 -1.3397
  400MOL0     H53949   9.078   3.832   4.080  0.8924 -0.7229 -1.2120
  400MOL0     H53950   9.154   3.827   4.244  0.9052  0.1254 -1.0264
  400MOL0     H53951   8.847   3.766   4.052  0.5769 -1.0332 -0.8868
  400MOL0     H53952   8.583   3.542   4.248 -2.9250  3.1514 -0.4954
  400MOL0     H53953   8.587   3.706   4.192 -0.1625 -0.1270  0.9792
  400MOL0     H53954   8.677   3.455   4.041  1.2542  0.4857  4.2302
  400MOL0     H53955   8.642   3.619   3.964  1.3731 -0.8737  0.5603
  400MOL0     H53956   8.404   3.598   4.032  0.0925  0.9569  3.0392
  400MOL0     H53957   8.440   3.441   4.105  0.0981 -0.9244 -0.8569
  400MOL0     H53958   8.520   3.374   3.855  0.9875  2.0479  1.1116
  400MOL0     H53959   8.424   3.513   3.811  0.2386 -1.3410 -1.3593
  400MOL0     H53960   8.252   3.613   3.839 -0.6448  0.3257 -0.9984
  400MOL0     H53961   8.114   3.804   3.821  2.3672 -1.8814 -2.6695
  400MOL0     H53962   7.962   3.736   3.752 -2.1707 -2.2344  2.4722
  400MOL0     H53963   7.967   3.801   3.913 -0.0607  0.9935 -0.9709
  400MOL0     H53964   7.507   3.356   3.813  3.0490 -2.8327  2.8120
  400MOL0     H53965   7.249   3.379   3.897 -0.1415 -1.4557  3.2455
  400MOL0     H53966   7.057   3.379   4.014  0.2223  0.4623 -0.3700
  400MOL0     H53967   7.151   3.374   4.169 -2.8387  1.0626  3.3866
  400MOL0     H53968   6.995   3.548   4.263 -1.1430  0.7253  0.0724
  400MOL0     H53969   6.938   3.573   4.097  0.5727 -0.1012 -0.1299
  400MOL0     H53970   6.801   3.442   4.286  0.0441  1.0833 -0.7098
  400MOL0     H53971   6.910   3.308   4.252 -1.2182  0.7265  1.5338
  400MOL0     H53972   6.797   3.419   3.999 -3.4641 -0.4533 -0.7650
  400MOL0     H53973   6.807   3.249   4.069  2.6809  1.4414 -2.1205
  400MOL0     H53974   6.575   3.311   4.026 -1.9538 -0.3928  1.1081
  400MOL0     H53975   6.602   3.469   4.093 -0.8980  0.0876 -1.4335
  400MOL0     H53976   6.623   3.203   4.240  2.8578  2.0243  1.1962
  400MOL0     H53977   6.612   3.359   4.319 -1.1229 -2.4107  2.3484
  400MOL0     H53978   6.384   3.256   4.146  0.2083 -0.0076  0.6300
  400MOL0     H53979   6.405   3.412   4.224  1.2958  0.6272  1.4994
  400MOL0     H53980   6.252   3.287   4.378  0.8360  2.3592  0.1952
  400MOL0     H53981   6.413   3.305   4.447  0.3286  3.1333 -2.4601
  400MOL0     H53982   7.381   3.671   4.163  1.6071  0.7062 -0.0553
  400MOL0     H53983   7.620   3.606   4.121  0.0340  2.7499 -3.8471
  400MOL0     H53984   7.898   3.304   3.973  0.1808  0.7139 -0.9006
  400MOL0     H53985   8.127   3.234   3.963 -2.3077 -0.6577 -0.7785
  400MOL0     H53986   9.813   4.136   3.913  0.3321  2.3259 -0.0027
  400MOL0     H53987   9.979   4.251   4.047 -3.0262 -0.9971  0.8934
  400MOL0     H53988  10.354   4.591   4.116 -1.2663 -1.8668 -0.9631
  400MOL0     H53989  10.521   4.655   4.255 -1.7950  0.4478 -3.5711
  400MOL0     H53990  10.598   4.424   4.571  0.0771  1.6130  1.4137
  400MOL0     H53991  10.754   4.357   4.532 -1.7719 -0.0048  1.9425
  400MOL0     H53992  10.744   4.641   4.631  0.2689 -0.1920 -2.0765
  400MOL0     H53993  10.879   4.522   4.605  0.3180  0.1805 -3.2871
  400MOL0     H53994  10.799   4.387   4.781 -2.2481 -0.4675  1.8973
  400MOL0     H53995  10.639   4.441   4.783  0.7706 -0.0247  0.5422
  400MOL0     H53996  10.733   4.505   4.995 -0.2415  1.1955  0.3017
  400MOL0     H53997  10.690   4.640   4.896  0.7842  0.9791  0.7763
  400MOL0     H53998  11.101   4.705   4.943 -0.1367 -0.5367 -1.2958
  400MOL0     H53999  10.616   4.249   4.337 -0.0720 -1.3594 -1.5717
  400MOL0     H54000  10.445   4.171   4.193  0.5726 -0.9992  1.4198
  401MOL0     O54001   4.147   6.511   0.444  0.4027 -0.4687  0.5386
  401MOL0     C54002   4.192   6.459   0.342 -0.3230  0.0298  0.8856
  401MOL0     O54003   4.121   6.396   0.243  0.1970  0.7662  0.0768
  401MOL0     C54004   3.991   6.377   0.275 -0.8637  0.4211  0.1081
  401MOL0     C54005   3.886   6.415   0.200 -0.0014  0.5754 -0.4143
  401MOL0     C54006   3.752   6.403   0.244  0.6263  0.1548  0.6084
  401MOL0     C54007   3.721   6.331   0.356 -0.6722  0.5914  0.5684
  401MOL0     O54008   3.588   6.323   0.401 -0.2969 -0.7201 -0.2452
  401MOL0     C54009   3.513   6.206   0.413 -0.1560  0.5306  0.1299
  401MOL0     C54010   3.382   6.235   0.352 -0.9714  0.6488 -0.7503
  401MOL0     C54011   3.386   6.189   0.214  0.5295 -0.3035 -0.4175
  401MOL0     C54012   3.253   6.229   0.141 -0.2577  0.1973 -0.6503
  401MOL0     C54013   3.239   6.168  -0.003 -0.0587 -1.5790 -0.7816
  401MOL0     C54014   3.336   6.234  -0.103 -0.8019  0.8242 -0.1231
  401MOL0     C54015   3.329   6.173  -0.242 -0.0854 -1.0179 -0.0757
  401MOL0     C54016   3.441   6.226  -0.328  0.0239  0.0581  0.4588
  401MOL0     N54017   3.428   6.200  -0.476  0.4204  0.5823  0.2145
  401MOL0     C54018   3.526   6.132  -0.545 -0.7520 -0.4666  0.1589
  401MOL0     C54019   3.485   6.137  -0.672  0.7390  0.8190  0.1504
  401MOL0     C54020   3.561   6.089  -0.796  1.1150  1.2407 -0.4578
  401MOL0     C54021   3.581   5.939  -0.791 -0.3703 -0.4539  0.1709
  401MOL0     C54022   3.642   5.888  -0.919 -0.5676 -0.5999 -0.4486
  401MOL0     C54023   3.659   5.737  -0.905  0.0418 -0.0970  0.1051
  401MOL0     O54024   3.759   5.709  -0.814 -0.4080  0.1423 -0.0141
  401MOL0     C54025   3.775   5.574  -0.794 -0.1034 -0.3019  0.0215
  401MOL0     C54026   3.771   5.531  -0.655 -0.5565  0.1413  0.1818
  401MOL0     C54027   3.783   5.403  -0.622  0.1515  0.7298 -0.5232
  401MOL0     C54028   3.771   5.378  -0.479 -0.3351  0.7245 -0.2623
  401MOL0     C54029   3.801   5.299  -0.724 -0.3060  0.2285 -0.2412
  401MOL0     C54030   3.802   5.155  -0.697 -0.1481  0.8343  0.3857
  401MOL0     O54031   3.824   5.068  -0.814  0.0821  0.4069 -0.7155
  401MOL0     C54032   3.818   4.936  -0.803 -0.0204  0.0096  0.7061
  401MOL0     C54033   3.711   4.866  -0.866 -0.6516 -0.3558 -0.5931
  401MOL0     C54034   3.715   4.722  -0.860  0.3524  0.2640  0.2103
  401MOL0     C54035   3.812   4.650  -0.785  1.3361 -0.2490 -0.0866
  401MOL0     O54036   3.820   4.511  -0.775  0.0782  0.3139 -0.7096
  401MOL0     C54037   3.696   4.436  -0.786  0.5097 -0.0556  0.0746
  401MOL0     C54038   3.701   4.296  -0.728 -0.3502  0.0919  0.8984
  401MOL0     C54039   3.567   4.238  -0.759  0.0550  0.4468  0.0761
  401MOL0     C54040   3.531   4.109  -0.677  0.3388 -0.3400  0.2569
  401MOL0     C54041   3.396   4.052  -0.732 -0.3232  0.0029 -0.1086
  401MOL0     C54042   3.365   3.908  -0.673 -0.1867  0.4493 -0.0499
  401MOL0     C54043   3.217   3.855  -0.706  0.5275 -0.6241  0.2340
  401MOL0     C54044   3.189   3.711  -0.666 -0.1418  0.1382  0.1219
  401MOL0    Cl54045   3.236   3.584  -0.787 -0.4658  0.1822 -0.4247
  401MOL0     C54046   3.909   4.722  -0.722 -0.3364  0.2744  0.9698
  401MOL0     C54047   3.912   4.864  -0.729 -0.0035  0.3472  0.1921
  401MOL0     O54048   3.787   5.115  -0.585 -0.1065  0.2602  0.4942
  401MOL0     C54049   3.812   5.341  -0.857  0.0532  1.1479  0.1756
  401MOL0     C54050   3.796   5.474  -0.892  0.1321  0.1133 -0.2980
  401MOL0     N54051   3.353   6.184  -0.681 -0.0030  0.1182  0.2587
  401MOL0     N54052   3.327   6.226  -0.568  0.4810  0.2889 -0.3039
  401MOL0     C54053   3.829   6.265   0.416  0.6644  0.3112 -0.6117
  401MOL0     C54054   3.962   6.285   0.383 -0.8345  0.0309 -0.3181
  401MOL0     C54055   4.342   6.438   0.327  0.8571 -0.3711  0.3383
  401MOL0     C54056   4.399   6.376   0.209 -0.0305 -0.0297  0.4803
  401MOL0     C54057   4.536   6.379   0.194  0.2121 -0.1220  0.3574
  401MOL0     C54058   4.623   6.432   0.293 -0.0640  1.1870 -1.0785
  401MOL0     O54059   4.755   6.448   0.274  0.4697 -0.1513  0.3938
  401MOL0     C54060   4.832   6.340   0.303 -0.2957 -0.2100 -0.8338
  401MOL0     C54061   4.943   6.320   0.194 -0.1977  0.1671 -0.2112
  401MOL0     C54062   4.871   6.290   0.060  0.8755 -0.3585 -0.3119
  401MOL0     C54063   4.963   6.275  -0.056  0.5807  0.2783 -0.1319
  401MOL0     C54064   4.913   6.172  -0.147  0.3935  0.2163  0.5927
  401MOL0     C54065   4.862   6.077  -0.207 -0.4857  0.0674 -0.4385
  401MOL0     C54066   4.563   6.486   0.409  0.1508  0.1525  0.2579
  401MOL0     C54067   4.426   6.496   0.423  0.5596  0.2746 -0.2907
  401MOL0     H54068   3.913   6.472   0.112  0.6456  0.3336 -0.3765
  401MOL0     H54069   3.670   6.444   0.186  0.5866  1.0001  1.2496
  401MOL0     H54070   3.562   6.116   0.375 -2.0014 -1.5507  2.3605
  401MOL0     H54071   3.496   6.183   0.519 -3.1411 -4.1725 -1.0794
  401MOL0     H54072   3.306   6.182   0.410 -0.1143 -0.2552 -0.4160
  401MOL0     H54073   3.366   6.343   0.351  2.1613  1.2094 -2.3271
  401MOL0     H54074   3.469   6.234   0.158  2.1597 -0.2050  1.9308
  401MOL0     H54075   3.390   6.081   0.202 -1.6928 -0.3590 -1.1309
  401MOL0     H54076   3.166   6.198   0.200 -1.6266  1.3601 -1.9674
  401MOL0     H54077   3.238   6.337   0.141  1.0622  0.3933 -1.5096
  401MOL0     H54078   3.253   6.060   0.009 -0.5037 -1.4889  0.7051
  401MOL0     H54079   3.137   6.194  -0.034  0.5645  2.3680 -0.0327
  401MOL0     H54080   3.313   6.341  -0.101 -3.0183  0.3712  0.5215
  401MOL0     H54081   3.440   6.215  -0.072  1.2128  1.2853 -5.5801
  401MOL0     H54082   3.327   6.064  -0.234  1.7822 -1.0070  1.1291
  401MOL0     H54083   3.235   6.208  -0.287 -0.1644 -0.2491  0.6580
  401MOL0     H54084   3.532   6.181  -0.289 -1.3817 -2.1666  1.3918
  401MOL0     H54085   3.433   6.335  -0.329  1.6355  0.2543 -2.8000
  401MOL0     H54086   3.617   6.084  -0.512 -1.8938 -1.9372  1.2548
  401MOL0     H54087   3.494   6.117  -0.878 -0.6028  1.2903  0.8906
  401MOL0     H54088   3.652   6.149  -0.802  1.9460  0.3164  1.8525
  401MOL0     H54089   3.480   5.900  -0.785 -1.5371  2.3011  0.0485
  401MOL0     H54090   3.631   5.908  -0.699 -1.1247 -1.8807  0.1224
  401MOL0     H54091   3.737   5.940  -0.933 -1.5119  1.8014  1.4411
  401MOL0     H54092   3.575   5.910  -1.002 -2.0928 -0.0336  0.8754
  401MOL0     H54093   3.698   5.704  -1.002  1.6933 -1.4713  1.1697
  401MOL0     H54094   3.563   5.695  -0.874  0.3586  0.4473  1.9541
  401MOL0     H54095   3.746   5.614  -0.589  1.9923  0.9253  0.2681
  401MOL0     H54096   3.685   5.313  -0.460  1.0372 -1.0935 -0.0532
  401MOL0     H54097   3.856   5.317  -0.446 -1.7203 -1.8053 -1.0806
  401MOL0     H54098   3.758   5.469  -0.419  1.3003  0.8330 -0.0350
  401MOL0     H54099   3.645   4.929  -0.925  0.1894  1.2949  0.1491
  401MOL0     H54100   3.649   4.661  -0.921  2.1688 -0.2970 -1.2937
  401MOL0     H54101   3.606   4.485  -0.746  1.0765  1.0271  0.0508
  401MOL0     H54102   3.682   4.426  -0.894 -0.8577  0.8622  0.1412
  401MOL0     H54103   3.780   4.237  -0.774  0.0710  1.7830 -0.6811
  401MOL0     H54104   3.743   4.292  -0.627  0.5951 -2.9593  0.4696
  401MOL0     H54105   3.550   4.228  -0.867  2.0692 -1.5114 -0.1392
  401MOL0     H54106   3.484   4.302  -0.727 -1.8038 -2.9656  2.8484
  401MOL0     H54107   3.601   4.026  -0.695 -0.2175 -0.7565 -0.0107
  401MOL0     H54108   3.545   4.129  -0.571  3.6569  0.0959 -0.1382
  401MOL0     H54109   3.397   4.045  -0.842  1.3716 -1.0055 -0.0636
  401MOL0     H54110   3.325   4.126  -0.694 -0.5907 -0.8918  1.2018
  401MOL0     H54111   3.424   3.831  -0.724 -1.3716 -0.1137 -0.6290
  401MOL0     H54112   3.373   3.910  -0.564 -0.3493 -2.2640  0.0793
  401MOL0     H54113   3.183   3.861  -0.810  1.3874  0.8231  0.0006
  401MOL0     H54114   3.145   3.908  -0.643  1.2425  0.0468  0.5026
  401MOL0     H54115   3.080   3.703  -0.656 -0.2625  0.0790 -1.0861
  401MOL0     H54116   3.230   3.687  -0.567 -2.4409 -0.9502  0.8980
  401MOL0     H54117   3.988   4.668  -0.670  1.8098  1.7425 -0.5827
  401MOL0     H54118   3.988   4.918  -0.673  0.9826  0.6019 -1.3390
  401MOL0     H54119   3.820   5.266  -0.935 -1.8847 -0.3620  1.3320
  401MOL0     H54120   3.796   5.489  -1.000 -2.1138 -0.2279 -0.3905
  401MOL0     H54121   3.798   6.221   0.511  1.6511 -1.5188 -1.0877
  401MOL0     H54122   4.038   6.235   0.442 -1.0054  0.6709  0.4672
  401MOL0     H54123   4.342   6.337   0.125  0.0252 -1.1576  0.9552
  401MOL0     H54124   4.585   6.349   0.102 -0.3751 -1.2562  0.3995
  401MOL0     H54125   4.891   6.352   0.394  1.2759 -3.0169 -1.3350
  401MOL0     H54126   4.781   6.243   0.312  0.2621 -0.6488 -2.0813
  401MOL0     H54127   5.017   6.246   0.225 -2.1321 -1.0902  1.6421
  401MOL0     H54128   4.993   6.415   0.171 -0.4663  0.2557 -0.4321
  401MOL0     H54129   4.795   6.366   0.036 -1.2483 -0.8087  3.9699
  401MOL0     H54130   4.813   6.198   0.072 -0.1133  0.2090 -0.6002
  401MOL0     H54131   5.064   6.254  -0.019  1.2155 -3.6473 -3.4853
  401MOL0     H54132   4.958   6.370  -0.109 -0.5936 -1.1646 -2.7670
  401MOL0     H54133   4.811   5.999  -0.260 -0.5735 -0.7918  0.8466
  401MOL0     H54134   4.631   6.521   0.486  1.8270  2.3824 -2.0911
  401MOL0     H54135   4.382   6.539   0.513  4.3400 -1.8080  2.8913
  402MOL0     O54136   2.024   5.221   8.504 -0.1736 -1.0438  0.8341
  402MOL0     C54137   2.012   5.342   8.472  0.5230  0.3457 -0.7817
  402MOL0     O54138   1.897   5.401   8.433  0.1463  0.0818 -0.9453
  402MOL0     C54139   1.778   5.329   8.415 -0.4309 -0.4417 -0.3655
  402MOL0     C54140   1.760   5.240   8.307 -0.4194 -0.5293  1.0164
  402MOL0     C54141   1.633   5.189   8.270 -0.2986 -0.4433  0.0165
  402MOL0     C54142   1.522   5.238   8.343  0.2444  0.0488  0.0579
  402MOL0     O54143   1.398   5.191   8.315 -0.2580  0.2655 -0.0197
  402MOL0     C54144   1.314   5.152   8.429 -0.2602  0.5321 -0.1736
  402MOL0     C54145   1.215   5.040   8.401  0.1162  1.4971 -0.4411
  402MOL0     C54146   1.111   5.037   8.514 -0.1903  0.3425  0.3195
  402MOL0     C54147   0.997   4.952   8.462 -0.1046 -0.4897  0.2525
  402MOL0     C54148   0.864   4.966   8.541  0.1085  0.5689 -0.6730
  402MOL0     C54149   0.775   4.836   8.526  0.3287 -0.0347 -0.2801
  402MOL0     C54150   0.644   4.859   8.606 -0.4634  0.4930  0.6224
  402MOL0     C54151   0.548   4.957   8.550 -0.8618  0.0413 -0.0346
  402MOL0     N54152   0.426   4.947   8.627  0.7551 -0.6025 -0.8940
  402MOL0     C54153   0.341   5.048   8.666  0.5840 -1.5170  0.8989
  402MOL0     C54154   0.234   5.001   8.725  0.1704 -1.0443 -0.2920
  402MOL0     C54155   0.110   5.071   8.769 -0.3822 -0.3136  0.4404
  402MOL0     C54156   0.015   5.097   8.659  0.3308 -0.2547 -0.1304
  402MOL0     C54157  -0.064   4.971   8.605 -0.3478  0.0203  0.3154
  402MOL0     C54158  -0.141   4.887   8.712  0.0581  0.5598  0.0899
  402MOL0     O54159  -0.248   4.960   8.762  1.0278  0.6785 -0.0907
  402MOL0     C54160  -0.377   4.952   8.708 -0.8071 -0.1405  0.1778
  402MOL0     C54161  -0.466   5.056   8.726 -0.4979 -0.7523  0.4034
  402MOL0     C54162  -0.594   5.061   8.674  0.5460  0.4520 -0.2734
  402MOL0     C54163  -0.678   5.181   8.710  0.2276  0.6468  0.0274
  402MOL0     C54164  -0.642   4.945   8.606  0.7543 -0.2315  1.0209
  402MOL0     C54165  -0.782   4.918   8.561 -0.6648  0.7762 -0.4296
  402MOL0     O54166  -0.826   4.787   8.559  0.2546 -0.1439 -0.2458
  402MOL0     C54167  -0.950   4.753   8.493  0.4091  0.6919 -0.5875
  402MOL0     C54168  -1.057   4.840   8.464 -0.6689 -0.3531 -0.3357
  402MOL0     C54169  -1.173   4.802   8.401 -0.2966  0.6980  0.4592
  402MOL0     C54170  -1.197   4.663   8.376  0.3424 -0.1249  0.5088
  402MOL0     O54171  -1.313   4.607   8.333  0.0491  0.2129 -0.8773
  402MOL0     C54172  -1.399   4.690   8.256  0.3901 -0.0000 -0.0176
  402MOL0     C54173  -1.510   4.611   8.210  0.6092  0.3154 -0.1141
  402MOL0     C54174  -1.618   4.582   8.323 -0.2044 -0.5041 -0.4568
  402MOL0     C54175  -1.704   4.454   8.292 -0.6725 -0.3248  0.1982
  402MOL0     C54176  -1.817   4.486   8.194  0.1425 -0.6117 -0.3153
  402MOL0     C54177  -1.899   4.362   8.164  0.2904  0.1470 -0.7694
  402MOL0     C54178  -1.972   4.386   8.034  0.5271  0.3588 -0.3967
  402MOL0     C54179  -2.096   4.304   8.025  0.1640 -0.4776  0.0283
  402MOL0    Cl54180  -2.216   4.325   8.142 -0.3143 -0.1186 -0.0229
  402MOL0     C54181  -1.097   4.574   8.409  0.0811  0.8259  0.4983
  402MOL0     C54182  -0.972   4.620   8.470  0.8592  0.0821  0.3312
  402MOL0     O54183  -0.833   5.011   8.504  1.1068 -0.5043  0.4086
  402MOL0     C54184  -0.557   4.836   8.588 -0.2111  0.3115 -0.2736
  402MOL0     C54185  -0.423   4.838   8.635  0.3639 -0.6289 -0.5628
  402MOL0     N54186   0.250   4.866   8.722  0.2626  0.2932 -0.4316
  402MOL0     N54187   0.360   4.834   8.661  0.5054 -0.4445 -0.2000
  402MOL0     C54188   1.541   5.333   8.455 -0.2705  0.6412 -0.1816
  402MOL0     C54189   1.670   5.375   8.487  0.7725 -0.7398 -0.0630
  402MOL0     C54190   2.121   5.430   8.482 -0.1104  0.8117  0.4787
  402MOL0     C54191   2.258   5.387   8.485  0.5637  0.4531  0.4936
  402MOL0     C54192   2.369   5.476   8.480  0.7040  0.7250 -0.3165
  402MOL0     C54193   2.342   5.615   8.478  0.3487  0.5708  0.4897
  402MOL0     O54194   2.443   5.707   8.467  0.2560  0.3743  0.2487
  402MOL0     C54195   2.582   5.661   8.459 -0.3582 -0.2239 -0.2619
  402MOL0     C54196   2.666   5.792   8.461 -0.5459 -0.0585  0.3263
  402MOL0     C54197   2.807   5.751   8.503 -0.2803 -0.2178  0.6234
  402MOL0     C54198   2.901   5.874   8.534 -0.6145  0.2581  0.7798
  402MOL0     C54199   3.040   5.840   8.553 -0.1491  0.3915  0.6260
  402MOL0     C54200   3.156   5.800   8.567 -0.2942 -0.1021 -0.7641
  402MOL0     C54201   2.213   5.658   8.480  0.1208  0.5489  0.2768
  402MOL0     C54202   2.104   5.570   8.479  1.1770  0.2508  0.2343
  402MOL0     H54203   1.845   5.209   8.247  0.1407 -0.4796  1.7782
  402MOL0     H54204   1.617   5.114   8.193 -0.3220 -0.4746  0.0524
  402MOL0     H54205   1.378   5.113   8.509  0.5959 -1.9706 -1.9631
  402MOL0     H54206   1.257   5.240   8.461 -1.9896 -0.4554 -0.4035
  402MOL0     H54207   1.166   5.049   8.304 -2.2686 -2.1463  0.2317
  402MOL0     H54208   1.275   4.950   8.389 -0.1819  1.0660  1.0199
  402MOL0     H54209   1.147   5.003   8.611  1.4946 -3.7208 -1.5118
  402MOL0     H54210   1.070   5.137   8.534  0.7358  0.8776 -0.3670
  402MOL0     H54211   0.977   4.961   8.355  2.0982  1.0273 -0.0953
  402MOL0     H54212   1.043   4.853   8.474  1.1074  0.1529  1.1011
  402MOL0     H54213   0.888   4.992   8.644 -2.8176  0.5891  0.0825
  402MOL0     H54214   0.801   5.050   8.512  2.4105  3.3054  1.6590
  402MOL0     H54215   0.743   4.830   8.422 -1.2042 -1.0617  0.2233
  402MOL0     H54216   0.826   4.739   8.534  1.6078  0.4146 -2.2204
  402MOL0     H54217   0.599   4.759   8.611  1.0855 -0.2591  0.0938
  402MOL0     H54218   0.656   4.881   8.712  0.7986  0.8743  0.4175
  402MOL0     H54219   0.536   4.924   8.447  1.0632  0.0008 -0.2713
  402MOL0     H54220   0.577   5.061   8.538 -2.4211  0.3656 -1.4613
  402MOL0     H54221   0.353   5.153   8.641  2.2234 -2.1618 -1.3725
  402MOL0     H54222   0.064   5.020   8.854  0.6526  0.9656  1.8238
  402MOL0     H54223   0.145   5.170   8.799 -1.3544 -0.0634  0.7734
  402MOL0     H54224   0.070   5.145   8.578  1.1474 -1.7321 -0.4937
  402MOL0     H54225  -0.065   5.169   8.681 -0.0501  0.5114 -3.4715
  402MOL0     H54226   0.010   4.911   8.552  1.6080  2.2660  0.3923
  402MOL0     H54227  -0.132   4.992   8.522  0.3369 -3.7026 -1.3933
  402MOL0     H54228  -0.069   4.855   8.789 -0.4212 -3.1958 -0.8228
  402MOL0     H54229  -0.161   4.796   8.655  3.5651 -1.4865  1.7534
  402MOL0     H54230  -0.423   5.136   8.786  0.1627  0.0765 -1.1106
  402MOL0     H54231  -0.772   5.144   8.752  2.2583 -0.4746  4.1723
  402MOL0     H54232  -0.629   5.232   8.793  2.4258  0.5357 -1.1373
  402MOL0     H54233  -0.696   5.245   8.623 -1.5273  0.0924 -0.0698
  402MOL0     H54234  -1.055   4.941   8.505 -2.1164 -0.9002  1.1392
  402MOL0     H54235  -1.258   4.868   8.386 -0.7897  0.6628  2.7161
  402MOL0     H54236  -1.447   4.770   8.314  0.0002  0.7804 -1.3660
  402MOL0     H54237  -1.345   4.731   8.170  0.6311 -0.4726 -0.0956
  402MOL0     H54238  -1.565   4.656   8.127  0.1326 -0.9095 -0.4918
  402MOL0     H54239  -1.477   4.514   8.171  0.5786  0.1096  0.3647
  402MOL0     H54240  -1.682   4.671   8.329 -1.5319 -1.5138  1.8131
  402MOL0     H54241  -1.563   4.570   8.417 -1.4875  0.8387  0.5120
  402MOL0     H54242  -1.643   4.380   8.240  0.0306  1.1411 -1.1733
  402MOL0     H54243  -1.745   4.416   8.386 -3.5173  0.7983 -0.4824
  402MOL0     H54244  -1.774   4.537   8.107  3.0829  0.4111  1.5952
  402MOL0     H54245  -1.897   4.555   8.224 -1.2431 -2.0908 -0.4620
  402MOL0     H54246  -1.839   4.271   8.150 -0.5734 -0.4653 -0.6306
  402MOL0     H54247  -1.961   4.339   8.251  1.2764  1.8219  0.4376
  402MOL0     H54248  -1.905   4.352   7.955  0.5627  0.2640 -0.3256
  402MOL0     H54249  -1.996   4.493   8.030 -2.8723 -0.3278 -1.6742
  402MOL0     H54250  -2.051   4.205   8.025  1.6519  0.1425  1.5533
  402MOL0     H54251  -2.144   4.325   7.929 -0.1525  0.2268  0.3258
  402MOL0     H54252  -1.111   4.470   8.380 -3.6746 -0.0946  4.4750
  402MOL0     H54253  -0.898   4.547   8.504  0.7973 -0.0464  0.1925
  402MOL0     H54254  -0.601   4.746   8.546  0.3916  0.5777 -1.5080
  402MOL0     H54255  -0.368   4.746   8.620  0.8307 -0.7543  1.6182
  402MOL0     H54256   1.451   5.358   8.510 -1.1783 -0.8030 -0.9551
  402MOL0     H54257   1.698   5.451   8.560 -0.5528  0.6873 -0.9665
  402MOL0     H54258   2.284   5.282   8.475 -2.1071 -0.0569 -3.8094
  402MOL0     H54259   2.471   5.441   8.494  1.2023  2.8302  2.1815
  402MOL0     H54260   2.585   5.612   8.557 -2.5063 -0.1096 -0.0929
  402MOL0     H54261   2.607   5.613   8.364 -1.0632  1.0986 -1.1463
  402MOL0     H54262   2.629   5.865   8.535 -1.8427 -0.8966  0.5251
  402MOL0     H54263   2.656   5.831   8.360 -1.3414 -1.0381  0.0062
  402MOL0     H54264   2.841   5.682   8.426  1.5414  2.6430 -1.3733
  402MOL0     H54265   2.797   5.697   8.598  0.5219 -0.9550  0.3007
  402MOL0     H54266   2.865   5.923   8.625 -2.5784 -3.4555  2.2507
  402MOL0     H54267   2.903   5.947   8.453  3.4487 -0.2098  0.2403
  402MOL0     H54268   3.254   5.773   8.600  0.1710  1.5748 -0.6624
  402MOL0     H54269   2.196   5.765   8.471 -0.5398  0.3658 -0.9247
  402MOL0     H54270   2.006   5.617   8.477  1.1312  0.1280 -0.8454
  403MOL0     O54271   3.351  10.806   9.172 -0.1837 -0.1370 -0.2267
  403MOL0     C54272   3.421  10.907   9.189  0.6733 -0.2936 -0.5492
  403MOL0     O54273   3.382  11.036   9.147 -0.3183 -0.0587  0.6310
  403MOL0     C54274   3.266  11.045   9.072  0.6638 -0.4035  0.3046
  403MOL0     C54275   3.163  11.122   9.131 -0.5817 -0.2233  0.2416
  403MOL0     C54276   3.043  11.145   9.067  0.2954 -0.6376  0.2661
  403MOL0     C54277   3.021  11.072   8.943 -0.2104 -0.0151  0.0011
  403MOL0     O54278   2.903  11.075   8.869 -0.4031  0.0467 -0.1933
  403MOL0     C54279   2.801  11.159   8.909 -0.3905 -0.5158 -0.5871
  403MOL0     C54280   2.673  11.156   8.824  0.1454  0.6283  0.0608
  403MOL0     C54281   2.593  11.292   8.823 -0.7770 -0.6134 -0.0692
  403MOL0     C54282   2.486  11.280   8.715 -0.1315  0.3542  0.7919
  403MOL0     C54283   2.400  11.405   8.684 -1.1554  0.0909  0.2274
  403MOL0     C54284   2.477  11.512   8.595  0.6034  0.5555 -0.0634
  403MOL0     C54285   2.445  11.661   8.622 -0.0381  0.4345  0.1645
  403MOL0     C54286   2.292  11.683   8.629 -0.6193 -0.2611  0.5460
  403MOL0     N54287   2.227  11.687   8.495 -0.4155  0.1124  0.7645
  403MOL0     C54288   2.267  11.785   8.398  0.2837  0.3320  0.3808
  403MOL0     C54289   2.187  11.750   8.293  0.1748 -1.1874  0.4171
  403MOL0     C54290   2.162  11.816   8.166 -0.7071 -0.2944 -0.0103
  403MOL0     C54291   2.016  11.871   8.150  0.1227  0.1407 -0.3870
  403MOL0     C54292   2.020  11.955   8.027 -0.3814 -0.5114  0.2228
  403MOL0     C54293   1.885  12.027   8.012 -1.1277 -0.6609 -0.0519
  403MOL0     O54294   1.783  11.938   7.991 -0.4026 -0.5128 -0.3442
  403MOL0     C54295   1.663  11.978   7.941  0.3777 -0.1512  0.4568
  403MOL0     C54296   1.560  11.881   7.937 -0.3985  0.2143  0.1741
  403MOL0     C54297   1.431  11.910   7.878 -0.1865  0.2399  0.1868
  403MOL0     C54298   1.336  11.792   7.876 -0.3838  0.6614  0.1506
  403MOL0     C54299   1.407  12.038   7.834  1.3152 -0.5474 -0.2702
  403MOL0     C54300   1.272  12.081   7.770 -0.4176  0.5532 -0.2334
  403MOL0     O54301   1.182  11.986   7.729 -0.7947 -0.3698 -0.0637
  403MOL0     C54302   1.056  12.026   7.690 -0.4034 -0.6986 -0.6297
  403MOL0     C54303   1.016  12.128   7.608 -0.2640  0.3367 -0.3507
  403MOL0     C54304   0.883  12.151   7.585 -0.1921 -0.4015  0.5782
  403MOL0     C54305   0.793  12.061   7.619  0.5383  0.2910 -0.0102
  403MOL0     O54306   0.661  12.083   7.586  0.0191  0.3271 -0.0567
  403MOL0     C54307   0.571  11.972   7.599  0.2630 -0.6266 -0.0682
  403MOL0     C54308   0.443  11.984   7.514 -0.7338 -0.1871  0.8511
  403MOL0     C54309   0.356  12.095   7.565  0.7908 -0.5966  0.6026
  403MOL0     C54310   0.248  12.130   7.455  0.0306 -0.5771 -0.0880
  403MOL0     C54311   0.134  12.200   7.511 -0.0383  0.2538  0.0256
  403MOL0     C54312   0.016  12.104   7.547 -0.7493  0.1265 -0.5030
  403MOL0     C54313  -0.116  12.179   7.564 -0.3512  0.4802  0.4830
  403MOL0     C54314  -0.107  12.302   7.663  0.1057 -0.3984 -0.2523
  403MOL0    Cl54315  -0.268  12.378   7.688  0.3912  0.1048  0.3737
  403MOL0     C54316   0.829  11.953   7.712  0.2638  0.1542  0.5071
  403MOL0     C54317   0.963  11.934   7.737 -0.1546  1.6248  0.7455
  403MOL0     O54318   1.260  12.200   7.759 -0.3484 -0.0947  0.0273
  403MOL0     C54319   1.499  12.144   7.852  0.0961  0.5128  0.7078
  403MOL0     C54320   1.632  12.110   7.897 -0.5429 -0.4542 -0.1001
  403MOL0     N54321   2.114  11.637   8.328 -0.0248 -0.1051 -0.0722
  403MOL0     N54322   2.133  11.592   8.448 -1.1706 -0.5428  0.0996
  403MOL0     C54323   3.120  10.996   8.887 -0.6027  0.7879 -0.7208
  403MOL0     C54324   3.242  10.977   8.950  0.0223  0.1672 -0.2088
  403MOL0     C54325   3.552  10.888   9.256 -0.7614  0.0826 -0.2001
  403MOL0     C54326   3.593  10.759   9.278 -0.4029  0.2006 -0.6385
  403MOL0     C54327   3.711  10.733   9.353  0.0792  0.7018  0.5388
  403MOL0     C54328   3.780  10.847   9.407 -0.9255 -0.5967  0.4357
  403MOL0     O54329   3.882  10.813   9.491 -0.9378  0.4863  0.3033
  403MOL0     C54330   3.970  10.919   9.532 -0.0428  0.4693  0.1359
  403MOL0     C54331   4.064  10.867   9.648 -0.4553  0.1137 -0.6170
  403MOL0     C54332   4.209  10.935   9.643 -0.4297  0.2791  0.2833
  403MOL0     C54333   4.303  10.891   9.758  0.2161  0.8558 -0.3212
  403MOL0     C54334   4.432  10.961   9.757  0.8290 -0.0032 -0.0187
  403MOL0     C54335   4.541  11.008   9.740  0.0682  0.3479 -0.2317
  403MOL0     C54336   3.738  10.978   9.377 -1.0118  0.5259  0.9717
  403MOL0     C54337   3.622  10.994   9.302  0.9816  0.8811 -0.4018
  403MOL0     H54338   3.185  11.181   9.219 -2.0060 -0.2156  0.6041
  403MOL0     H54339   2.958  11.192   9.116 -0.4623 -0.1629 -1.4454
  403MOL0     H54340   2.772  11.141   9.013 -0.5357  1.5657 -0.2304
  403MOL0     H54341   2.841  11.260   8.905  0.2167 -0.7142  0.1534
  403MOL0     H54342   2.698  11.137   8.720 -0.4269  1.3577 -0.2142
  403MOL0     H54343   2.603  11.076   8.852 -1.1658  2.4035  2.1829
  403MOL0     H54344   2.543  11.313   8.918 -1.3992 -1.8817 -0.1004
  403MOL0     H54345   2.664  11.371   8.797 -0.0155 -1.4715 -0.6800
  403MOL0     H54346   2.534  11.243   8.624  2.5026  0.5686  2.0148
  403MOL0     H54347   2.411  11.208   8.746  0.1378 -0.1928  0.1964
  403MOL0     H54348   2.306  11.367   8.643 -0.4051 -0.4932 -0.9954
  403MOL0     H54349   2.376  11.461   8.775  1.4555  2.0168 -0.1850
  403MOL0     H54350   2.584  11.499   8.614  0.6690  1.6790  0.3953
  403MOL0     H54351   2.462  11.479   8.492 -0.3688 -1.3770  0.6425
  403MOL0     H54352   2.484  11.688   8.720 -0.2440  1.1436  0.0562
  403MOL0     H54353   2.495  11.726   8.550 -1.1676  1.9240  0.6794
  403MOL0     H54354   2.299  11.787   8.663  1.8248 -0.6188  1.3777
  403MOL0     H54355   2.252  11.617   8.706  0.7653  1.6112  3.0165
  403MOL0     H54356   2.343  11.861   8.409  2.5543 -2.1771  6.8401
  403MOL0     H54357   2.234  11.898   8.166 -0.5246 -0.4390 -1.0744
  403MOL0     H54358   2.172  11.742   8.086 -3.1467 -2.6658  1.6907
  403MOL0     H54359   1.991  11.932   8.238  0.7806 -0.5069  0.2704
  403MOL0     H54360   1.950  11.784   8.147 -1.6637  1.3800  0.9108
  403MOL0     H54361   2.036  11.898   7.934 -0.9693 -1.1056  0.4813
  403MOL0     H54362   2.101  12.028   8.024 -1.1601  0.3874  0.6147
  403MOL0     H54363   1.897  12.091   7.923 -1.8147  2.6088  2.0335
  403MOL0     H54364   1.852  12.094   8.092 -0.3998 -0.7580  0.3345
  403MOL0     H54365   1.592  11.786   7.978  2.7688  1.7484  1.5242
  403MOL0     H54366   1.388  11.704   7.915 -0.9574 -0.2781 -1.1528
  403MOL0     H54367   1.246  11.802   7.938 -0.6181 -3.6030  0.7874
  403MOL0     H54368   1.311  11.777   7.771  0.3077 -0.4249  0.1261
  403MOL0     H54369   1.093  12.187   7.559 -1.9954  0.5955 -2.9390
  403MOL0     H54370   0.843  12.223   7.514  1.0546  0.2423  0.4990
  403MOL0     H54371   0.626  11.885   7.563  0.0835 -0.3573 -1.0199
  403MOL0     H54372   0.537  11.967   7.703  0.4849  0.0900  0.0376
  403MOL0     H54373   0.476  11.995   7.410  1.7395 -2.1241  1.3214
  403MOL0     H54374   0.382  11.894   7.524 -3.2053  1.1265 -1.1615
  403MOL0     H54375   0.423  12.179   7.587  0.3153 -0.6234  2.2774
  403MOL0     H54376   0.302  12.052   7.649 -0.1266 -1.4173 -0.3708
  403MOL0     H54377   0.282  12.205   7.383 -0.9464  0.9779  1.0039
  403MOL0     H54378   0.215  12.038   7.405 -2.3528 -0.1462  0.5784
  403MOL0     H54379   0.093  12.256   7.426 -0.1284 -2.8446 -2.1325
  403MOL0     H54380   0.162  12.272   7.589 -2.4986  0.7177  0.5530
  403MOL0     H54381  -0.004  12.023   7.476  0.9295 -2.8450  2.1385
  403MOL0     H54382   0.042  12.061   7.644  1.9608  0.6566 -0.9278
  403MOL0     H54383  -0.182  12.099   7.599  0.6147 -1.7005 -2.2545
  403MOL0     H54384  -0.167  12.212   7.473 -0.7920  0.8252  0.8518
  403MOL0     H54385  -0.050  12.380   7.612 -0.1622 -0.4661 -0.6618
  403MOL0     H54386  -0.056  12.281   7.758  0.1663  2.2279  0.3602
  403MOL0     H54387   0.761  11.878   7.750 -3.2066  2.0269 -1.4876
  403MOL0     H54388   0.990  11.852   7.804  0.9237  0.8641 -0.5576
  403MOL0     H54389   1.481  12.248   7.830  0.8405  0.8083  1.4378
  403MOL0     H54390   1.699  12.195   7.899 -1.2386  0.0774  0.7917
  403MOL0     H54391   3.094  10.938   8.799 -0.7158 -1.0779  0.4868
  403MOL0     H54392   3.318  10.910   8.911  0.1497  2.1171 -3.7133
  403MOL0     H54393   3.534  10.672   9.252 -1.8264  0.0187  2.7298
  403MOL0     H54394   3.748  10.634   9.374 -0.9906  0.4458  1.3103
  403MOL0     H54395   4.027  10.937   9.441 -1.5411  1.9053 -0.5819
  403MOL0     H54396   3.917  11.013   9.551 -0.3070  0.3034  0.2260
  403MOL0     H54397   4.081  10.761   9.631  1.4078  0.3644 -0.4552
  403MOL0     H54398   4.016  10.885   9.745  0.1667 -1.4358  0.0018
  403MOL0     H54399   4.195  11.044   9.641 -2.2391  0.0666 -1.1078
  403MOL0     H54400   4.256  10.903   9.549  0.8957 -0.7623  1.2760
  403MOL0     H54401   4.307  10.782   9.755 -2.6742  0.6821 -1.6415
  403MOL0     H54402   4.252  10.900   9.854 -0.4504 -3.5752 -0.0347
  403MOL0     H54403   4.633  11.056   9.716 -0.5286  0.9134 -1.4927
  403MOL0     H54404   3.790  11.067   9.409 -0.4179  0.9526 -1.0560
  403MOL0     H54405   3.596  11.099   9.296  1.6915  1.0035 -1.7613
  404MOL0     O54406   0.085   7.650   0.756 -0.2787 -0.1922  0.2561
  404MOL0     C54407   0.153   7.559   0.713 -0.5828 -0.1273 -0.2560
  404MOL0     O54408   0.120   7.462   0.613  0.9132  0.3914  0.0701
  404MOL0     C54409  -0.003   7.449   0.562 -0.5422  0.1647 -0.0258
  404MOL0     C54410  -0.038   7.516   0.443  0.2595 -0.8705  0.4890
  404MOL0     C54411  -0.161   7.473   0.380 -0.3805 -0.1414 -0.5245
  404MOL0     C54412  -0.248   7.380   0.442 -1.0656  0.5871  0.3451
  404MOL0     O54413  -0.365   7.335   0.396  0.0181  0.3356  0.5409
  404MOL0     C54414  -0.475   7.421   0.422 -0.3315 -0.7624  0.5135
  404MOL0     C54415  -0.597   7.362   0.336  0.2854 -0.6306 -0.0354
  404MOL0     C54416  -0.643   7.235   0.411 -0.7102  0.2911  0.6245
  404MOL0     C54417  -0.782   7.249   0.457  0.0739  0.6142 -0.1858
  404MOL0     C54418  -0.838   7.122   0.534  0.5858 -0.4842  0.3308
  404MOL0     C54419  -0.936   7.165   0.637 -0.3102 -0.8349  0.5279
  404MOL0     C54420  -1.014   7.070   0.734 -0.4286  1.1744 -0.5029
  404MOL0     C54421  -1.085   6.944   0.671 -0.0574  0.0489  0.5659
  404MOL0     N54422  -1.208   6.981   0.592  0.7403  0.8009 -1.1300
  404MOL0     C54423  -1.331   7.022   0.639 -0.1315 -0.0385 -0.1056
  404MOL0     C54424  -1.391   7.096   0.543 -0.0930  0.6708 -0.2046
  404MOL0     C54425  -1.515   7.177   0.534  0.3992  0.3562  0.4466
  404MOL0     C54426  -1.613   7.122   0.640  0.6256 -0.1634  0.0877
  404MOL0     C54427  -1.745   7.194   0.620  0.2257  0.0165 -0.9041
  404MOL0     C54428  -1.849   7.113   0.705  0.0877 -0.0756  0.8323
  404MOL0     O54429  -1.975   7.180   0.684  0.1844  0.0885 -0.1728
  404MOL0     C54430  -2.091   7.120   0.744 -1.0241 -0.5650 -0.1242
  404MOL0     C54431  -2.075   7.035   0.856  0.6148  0.4096  0.0940
  404MOL0     C54432  -2.193   6.988   0.918  0.2155 -0.0710  0.1138
  404MOL0     C54433  -2.177   6.903   1.034  0.0217 -0.3434  0.4525
  404MOL0     C54434  -2.316   7.026   0.873  0.0761  0.4023  0.4611
  404MOL0     C54435  -2.448   6.970   0.927 -0.5849  0.5098 -0.0554
  404MOL0     O54436  -2.561   7.002   0.860 -0.1942 -0.2865 -0.0277
  404MOL0     C54437  -2.691   6.988   0.912  0.5537  0.1990 -0.3125
  404MOL0     C54438  -2.731   6.987   1.047  0.3404  0.5483  0.3241
  404MOL0     C54439  -2.855   6.954   1.089  0.2785 -0.1292  0.2988
  404MOL0     C54440  -2.952   6.927   1.000  0.6142  0.3776  0.3036
  404MOL0     O54441  -3.065   6.868   1.053 -0.1260  0.3482  0.2188
  404MOL0     C54442  -3.173   6.842   0.959  0.4229 -0.3748  0.4813
  404MOL0     C54443  -3.286   6.813   1.049 -0.1028 -0.3272 -0.0850
  404MOL0     C54444  -3.407   6.773   0.967  0.5565 -0.4274 -0.3220
  404MOL0     C54445  -3.530   6.714   1.047  0.6207  0.5498  0.5569
  404MOL0     C54446  -3.555   6.789   1.169  0.5967 -0.6971 -0.3591
  404MOL0     C54447  -3.615   6.929   1.145 -0.9554  0.6989 -0.4155
  404MOL0     C54448  -3.585   7.018   1.268  0.9391 -0.6554  0.0452
  404MOL0     C54449  -3.663   6.979   1.393 -0.1905  0.0153  0.4154
  404MOL0    Cl54450  -3.838   7.025   1.384  0.1702 -0.0442 -0.3775
  404MOL0     C54451  -2.924   6.931   0.863  0.1174  0.1847 -0.4911
  404MOL0     C54452  -2.794   6.964   0.819 -0.1430 -0.9942 -0.2064
  404MOL0     O54453  -2.440   6.897   1.033  0.1194  0.1377 -0.1465
  404MOL0     C54454  -2.328   7.111   0.762  0.5991 -0.0880 -0.1056
  404MOL0     C54455  -2.215   7.156   0.696 -1.0252 -0.7805 -0.5065
  404MOL0     N54456  -1.306   7.092   0.431  0.0579 -0.0722 -0.3586
  404MOL0     N54457  -1.203   7.015   0.462  0.0563  0.3719  0.5703
  404MOL0     C54458  -0.218   7.338   0.576  0.2988 -1.1241 -0.8198
  404MOL0     C54459  -0.094   7.370   0.630 -0.7896  0.6450  0.0791
  404MOL0     C54460   0.300   7.550   0.758  0.4688 -0.7704  0.5168
  404MOL0     C54461   0.392   7.462   0.698 -0.0416 -0.3844 -0.8846
  404MOL0     C54462   0.523   7.453   0.740 -0.0977 -0.0367 -0.5140
  404MOL0     C54463   0.569   7.541   0.832 -0.2393 -0.1219  0.4770
  404MOL0     O54464   0.698   7.519   0.871  0.2269 -0.2619  0.3784
  404MOL0     C54465   0.797   7.622   0.843  0.7487 -0.1641 -0.0656
  404MOL0     C54466   0.838   7.610   0.693  0.4361  0.2194  0.4924
  404MOL0     C54467   0.877   7.475   0.652 -0.8347 -0.3547  0.6617
  404MOL0     C54468   0.886   7.473   0.498  0.1371 -0.2467  0.5116
  404MOL0     C54469   0.754   7.474   0.432 -1.2624 -0.6728 -0.2558
  404MOL0     C54470   0.652   7.487   0.376  0.4566  1.0583  1.0730
  404MOL0     C54471   0.480   7.623   0.898 -0.8133 -0.1968  0.3335
  404MOL0     C54472   0.346   7.626   0.866  0.3499 -0.1652  0.4339
  404MOL0     H54473   0.035   7.584   0.399  0.4400 -2.0929 -1.2307
  404MOL0     H54474  -0.197   7.504   0.283 -2.0304  0.4138  0.2261
  404MOL0     H54475  -0.501   7.415   0.528  0.3729  3.2248  1.0602
  404MOL0     H54476  -0.450   7.522   0.387  0.3113 -1.0280  0.1920
  404MOL0     H54477  -0.682   7.430   0.326 -0.8856 -2.2842 -1.9801
  404MOL0     H54478  -0.567   7.325   0.238 -0.3554 -0.6058 -0.2476
  404MOL0     H54479  -0.637   7.150   0.343  4.7394 -1.0996  2.2964
  404MOL0     H54480  -0.578   7.205   0.494 -0.8944 -2.4986 -0.1601
  404MOL0     H54481  -0.791   7.339   0.519 -0.9719  1.3840 -1.3974
  404MOL0     H54482  -0.837   7.278   0.366  1.9429 -0.1905 -1.6380
  404MOL0     H54483  -0.890   7.054   0.466 -1.0104 -0.3772  1.4105
  404MOL0     H54484  -0.749   7.073   0.577  2.2917  2.8397  0.8992
  404MOL0     H54485  -0.866   7.225   0.695 -0.5661 -1.0407  1.0625
  404MOL0     H54486  -1.003   7.242   0.599  1.3642  1.1063  1.3325
  404MOL0     H54487  -0.941   7.031   0.805 -0.9446 -1.4071 -1.2896
  404MOL0     H54488  -1.086   7.130   0.790  1.5645  3.6408 -0.3560
  404MOL0     H54489  -1.112   6.875   0.752 -0.7049  2.2400  2.3498
  404MOL0     H54490  -1.023   6.895   0.596 -1.6896 -1.7499  0.2950
  404MOL0     H54491  -1.373   7.005   0.738 -1.6010  2.1776 -0.2889
  404MOL0     H54492  -1.500   7.282   0.558  1.6704 -0.4437  3.7256
  404MOL0     H54493  -1.552   7.170   0.431  0.6143  1.1999  0.3062
  404MOL0     H54494  -1.573   7.126   0.741  0.2853 -0.7682  0.2523
  404MOL0     H54495  -1.627   7.015   0.622 -1.9497 -0.6185  3.6771
  404MOL0     H54496  -1.771   7.203   0.514  0.2595 -0.3497 -0.9455
  404MOL0     H54497  -1.730   7.298   0.650  0.7630 -0.1404 -0.6111
  404MOL0     H54498  -1.810   7.121   0.806  2.9473 -3.7503  0.2451
  404MOL0     H54499  -1.849   7.008   0.676  4.1256 -0.9286  3.1228
  404MOL0     H54500  -1.979   7.001   0.891  1.3792  1.8486 -0.5273
  404MOL0     H54501  -2.069   6.889   1.044  0.3060  2.6919  3.0970
  404MOL0     H54502  -2.209   6.954   1.125  0.8158 -0.9217  1.0679
  404MOL0     H54503  -2.229   6.807   1.021  0.3012 -0.2431 -1.9930
  404MOL0     H54504  -2.655   7.003   1.123  0.6753  1.1199 -0.1244
  404MOL0     H54505  -2.876   6.955   1.196  0.6451  4.2649  0.5140
  404MOL0     H54506  -3.203   6.922   0.892 -0.3590 -1.7338 -0.8637
  404MOL0     H54507  -3.141   6.757   0.897 -1.2442 -1.1484  0.6190
  404MOL0     H54508  -3.252   6.738   1.121  0.2513  2.4017  2.8215
  404MOL0     H54509  -3.302   6.908   1.101  0.1398  0.9180 -2.1761
  404MOL0     H54510  -3.377   6.705   0.888  0.5233 -0.6143 -0.1735
  404MOL0     H54511  -3.442   6.854   0.903 -0.1451 -1.7070 -1.5895
  404MOL0     H54512  -3.618   6.708   0.982 -0.2360 -0.1857  1.7400
  404MOL0     H54513  -3.500   6.620   1.093  1.6487 -0.1073 -1.3541
  404MOL0     H54514  -3.470   6.790   1.237  0.6318  1.4926 -0.3678
  404MOL0     H54515  -3.632   6.736   1.225 -0.2090 -1.1472 -1.8208
  404MOL0     H54516  -3.560   6.980   1.067 -0.0588  2.0612  1.0520
  404MOL0     H54517  -3.719   6.924   1.111 -0.6864 -0.1679 -1.1374
  404MOL0     H54518  -3.633   7.113   1.240  0.8987 -1.1171 -1.5346
  404MOL0     H54519  -3.478   7.035   1.281  0.5350  0.7998  2.1420
  404MOL0     H54520  -3.610   7.032   1.473  0.0305  1.9553 -0.9395
  404MOL0     H54521  -3.643   6.873   1.408  0.9045  0.1630  0.0550
  404MOL0     H54522  -2.999   6.930   0.784  0.2663  1.1148 -0.6547
  404MOL0     H54523  -2.781   6.984   0.713  0.3407 -0.0457  0.0176
  404MOL0     H54524  -2.422   7.150   0.724 -0.6915 -0.9476  2.0324
  404MOL0     H54525  -2.221   7.213   0.603 -1.6919 -0.0494 -0.0262
  404MOL0     H54526  -0.278   7.270   0.636 -0.8760 -0.2812 -1.0129
  404MOL0     H54527  -0.060   7.332   0.726 -1.5750 -1.4296 -0.4077
  404MOL0     H54528   0.361   7.409   0.608  3.3595 -0.7686 -1.9958
  404MOL0     H54529   0.597   7.387   0.695  0.8089  0.8153 -0.3114
  404MOL0     H54530   0.756   7.722   0.863 -1.2779 -0.8928 -0.2852
  404MOL0     H54531   0.883   7.603   0.908 -1.4750 -2.2024  2.5652
  404MOL0     H54532   0.924   7.678   0.683 -0.6595  1.7713  1.2799
  404MOL0     H54533   0.748   7.650   0.647 -0.2746 -0.1962  1.4970
  404MOL0     H54534   0.815   7.395   0.694 -2.5805  1.5943  1.9442
  404MOL0     H54535   0.977   7.461   0.694  0.9067  0.8788 -2.6541
  404MOL0     H54536   0.953   7.392   0.470 -0.5756  0.2999 -3.3953
  404MOL0     H54537   0.941   7.564   0.471  2.7430 -1.9455 -0.2404
  404MOL0     H54538   0.569   7.496   0.310  0.1516  0.3680  1.3506
  404MOL0     H54539   0.528   7.687   0.971  1.5933 -0.8334 -0.5803
  404MOL0     H54540   0.290   7.695   0.928 -1.6619 -0.3236 -1.0894
  405MOL0     O54541   2.608   2.833   0.451  0.3212  0.1725 -0.6134
  405MOL0     C54542   2.564   2.808   0.341  0.3211 -0.3849  0.0992
  405MOL0     O54543   2.518   2.899   0.249 -0.3217 -0.5558  0.1095
  405MOL0     C54544   2.555   3.027   0.280  0.7647  0.1966 -0.7198
  405MOL0     C54545   2.652   3.091   0.202 -0.2303  0.3180  0.3858
  405MOL0     C54546   2.697   3.222   0.234 -0.1573 -0.0121 -0.0798
  405MOL0     C54547   2.625   3.303   0.323  0.5308  0.3528 -0.2555
  405MOL0     O54548   2.667   3.429   0.368  0.1788 -0.1513  0.7162
  405MOL0     C54549   2.793   3.465   0.304  0.1451  0.7295  0.5165
  405MOL0     C54550   2.850   3.601   0.345  1.2057  0.8242  0.0736
  405MOL0     C54551   2.991   3.610   0.286 -0.3745 -0.5479  0.7147
  405MOL0     C54552   2.978   3.627   0.136  0.2213 -0.0901  0.2271
  405MOL0     C54553   3.110   3.666   0.062 -0.2939 -0.4253 -0.7182
  405MOL0     C54554   3.139   3.816   0.085 -0.1069 -0.7585  0.8048
  405MOL0     C54555   3.278   3.860   0.021 -0.0165  0.3681  0.1440
  405MOL0     C54556   3.292   3.842  -0.128  1.0340  0.1288 -0.2317
  405MOL0     N54557   3.186   3.892  -0.216 -0.8504  0.1093 -0.0330
  405MOL0     C54558   3.099   4.002  -0.187 -0.9225 -0.0845 -0.2991
  405MOL0     C54559   3.011   3.995  -0.289  0.8601  0.6482  0.1113
  405MOL0     C54560   2.891   4.074  -0.302  0.0059 -0.8479 -0.1051
  405MOL0     C54561   2.772   3.983  -0.265  0.6110 -0.3006  0.5560
  405MOL0     C54562   2.636   4.056  -0.290  0.4247 -0.3321  0.2849
  405MOL0     C54563   2.598   4.054  -0.438  0.2577  0.6910  0.5704
  405MOL0     O54564   2.563   3.922  -0.488 -0.2268 -0.4360  0.0740
  405MOL0     C54565   2.453   3.855  -0.435 -0.4118 -0.1650  0.5885
  405MOL0     C54566   2.347   3.912  -0.367  0.7597 -0.4394  1.1879
  405MOL0     C54567   2.246   3.837  -0.306 -0.1243 -0.3232 -0.0452
  405MOL0     C54568   2.138   3.909  -0.232  0.0310  0.6451 -0.5534
  405MOL0     C54569   2.253   3.692  -0.315  0.0945 -0.2753  0.0601
  405MOL0     C54570   2.150   3.602  -0.262  0.1900 -1.0638 -0.0837
  405MOL0     O54571   2.070   3.654  -0.156  0.2610  0.1862 -0.4671
  405MOL0     C54572   1.986   3.571  -0.091 -0.7986  0.2875  0.4454
  405MOL0     C54573   1.844   3.600  -0.095  1.2252  0.3132  0.1106
  405MOL0     C54574   1.761   3.514  -0.022 -0.6001 -0.2695 -0.0116
  405MOL0     C54575   1.807   3.396   0.033 -0.6715 -0.9109  0.5697
  405MOL0     O54576   1.715   3.310   0.061  0.0055  0.1356  0.7750
  405MOL0     C54577   1.741   3.214   0.169 -0.0090 -0.2192  0.3173
  405MOL0     C54578   1.616   3.175   0.240  0.1578  0.3784 -0.1520
  405MOL0     C54579   1.560   3.041   0.199  0.2972  0.3202  0.2013
  405MOL0     C54580   1.655   2.917   0.211  0.3278 -0.6467 -0.1860
  405MOL0     C54581   1.699   2.880   0.353 -0.3910 -0.5223  0.6397
  405MOL0     C54582   1.783   2.746   0.361  0.0942 -0.2486 -0.8769
  405MOL0     C54583   1.845   2.733   0.501  0.2047  0.1466  0.5823
  405MOL0     C54584   1.736   2.685   0.602  0.3629 -0.5523 -0.9435
  405MOL0    Cl54585   1.655   2.527   0.559 -0.3004 -0.3715  0.4246
  405MOL0     C54586   1.944   3.373   0.045 -0.3482  0.2757  0.8190
  405MOL0     C54587   2.035   3.473  -0.008 -0.5670 -0.1419  0.5011
  405MOL0     O54588   2.153   3.482  -0.301  1.1128 -0.3837  0.5737
  405MOL0     C54589   2.360   3.637  -0.393  0.0520 -0.2355  0.8947
  405MOL0     C54590   2.452   3.718  -0.459  0.5229 -0.2884 -1.1301
  405MOL0     N54591   3.035   3.885  -0.372  0.2788  0.1685  0.1866
  405MOL0     N54592   3.132   3.815  -0.317  0.2237 -0.6841  0.2248
  405MOL0     C54593   2.514   3.239   0.383  0.4676  0.1403 -0.3346
  405MOL0     C54594   2.481   3.109   0.368  0.3485  0.2803 -0.3234
  405MOL0     C54595   2.547   2.662   0.305  1.1303 -0.2506  0.7476
  405MOL0     C54596   2.492   2.628   0.181  0.0321  1.0737 -0.1387
  405MOL0     C54597   2.489   2.498   0.131 -1.1039  0.6011 -0.4027
  405MOL0     C54598   2.515   2.387   0.219  0.0700 -0.4779  1.1155
  405MOL0     O54599   2.504   2.254   0.191  0.2919 -0.3372  0.3556
  405MOL0     C54600   2.436   2.213   0.074 -0.2167 -0.2791  0.6981
  405MOL0     C54601   2.435   2.060   0.080  0.3655  0.2048  0.0295
  405MOL0     C54602   2.340   2.012  -0.040 -0.3240  0.2306  0.1443
  405MOL0     C54603   2.197   1.996   0.004  0.8977 -0.2318  0.7569
  405MOL0     C54604   2.098   2.021  -0.108 -0.0042  0.6380 -0.5085
  405MOL0     C54605   2.012   2.040  -0.182 -0.2340 -0.1960  0.6831
  405MOL0     C54606   2.553   2.417   0.350  0.0996 -0.5750 -0.3314
  405MOL0     C54607   2.570   2.556   0.397  0.2332  0.3500  0.1876
  405MOL0     H54608   2.697   3.038   0.119 -1.3931 -1.2365  0.7013
  405MOL0     H54609   2.788   3.247   0.181  0.4428  0.9011  1.3067
  405MOL0     H54610   2.860   3.381   0.328 -2.0968 -0.8026  1.7899
  405MOL0     H54611   2.775   3.475   0.197  0.2484  3.7246  0.7108
  405MOL0     H54612   2.788   3.683   0.307 -0.8886 -0.4171  0.6617
  405MOL0     H54613   2.862   3.608   0.453 -2.5020  0.7312  0.6006
  405MOL0     H54614   3.048   3.692   0.330  1.5649 -1.6065  0.3231
  405MOL0     H54615   3.054   3.522   0.306  2.5512  1.6546  1.9669
  405MOL0     H54616   2.946   3.538   0.081  0.2545  0.0534 -0.0252
  405MOL0     H54617   2.900   3.702   0.121 -2.6779 -2.2055  3.2289
  405MOL0     H54618   3.189   3.604   0.105  0.3496  0.0307 -1.2105
  405MOL0     H54619   3.094   3.652  -0.046  0.1715  1.9889 -1.1711
  405MOL0     H54620   3.058   3.878   0.046 -0.9528 -2.0202  0.5273
  405MOL0     H54621   3.141   3.835   0.193 -0.9236  0.4528  0.6247
  405MOL0     H54622   3.293   3.966   0.044 -1.9139  0.3844  1.5020
  405MOL0     H54623   3.354   3.809   0.080 -2.3244 -2.3969  0.9604
  405MOL0     H54624   3.314   3.737  -0.154 -0.5777 -0.6328  1.3158
  405MOL0     H54625   3.383   3.899  -0.148 -0.4507  2.1707 -1.4622
  405MOL0     H54626   3.097   4.066  -0.099 -1.1166 -0.9661  0.3597
  405MOL0     H54627   2.901   4.158  -0.233  0.0008 -2.4750  2.0032
  405MOL0     H54628   2.885   4.107  -0.406 -0.0540 -0.6559 -0.0406
  405MOL0     H54629   2.780   3.945  -0.163  2.0462 -3.6957 -0.6707
  405MOL0     H54630   2.789   3.902  -0.336  4.0677 -0.0065  0.9009
  405MOL0     H54631   2.635   4.160  -0.255 -1.3933 -1.4610  4.0033
  405MOL0     H54632   2.565   4.000  -0.229  1.3955 -1.5577  0.3320
  405MOL0     H54633   2.682   4.089  -0.500  0.0958  2.5985  1.3534
  405MOL0     H54634   2.507   4.113  -0.452 -0.0218 -0.5296 -4.7536
  405MOL0     H54635   2.333   4.019  -0.360  2.7657 -0.2326  5.2429
  405MOL0     H54636   2.160   4.015  -0.219  0.4294  0.6619 -1.3308
  405MOL0     H54637   2.042   3.899  -0.285 -0.1565  0.5797 -0.2033
  405MOL0     H54638   2.122   3.877  -0.129  0.9305  1.7714 -0.0436
  405MOL0     H54639   1.808   3.692  -0.141  1.3364  0.1253 -0.3604
  405MOL0     H54640   1.655   3.531  -0.038 -0.6220 -1.2969 -1.0408
  405MOL0     H54641   1.786   3.137   0.106  3.2219  0.2807  1.8048
  405MOL0     H54642   1.813   3.249   0.243 -0.4389 -3.3653  2.4351
  405MOL0     H54643   1.624   3.186   0.348  2.1906 -1.7917 -0.0054
  405MOL0     H54644   1.541   3.252   0.219  1.9688  2.3531  0.2557
  405MOL0     H54645   1.526   3.029   0.096  1.3868 -0.2132 -0.1172
  405MOL0     H54646   1.466   3.029   0.253  0.8180  0.8985  1.2819
  405MOL0     H54647   1.596   2.838   0.164  1.2241 -0.2482 -2.0816
  405MOL0     H54648   1.749   2.934   0.159 -0.2407  2.4982 -0.4134
  405MOL0     H54649   1.620   2.872   0.428 -0.3441  0.2631  0.7850
  405MOL0     H54650   1.754   2.968   0.388 -1.7903  0.9169 -0.6006
  405MOL0     H54651   1.729   2.657   0.329  2.8463 -2.1938 -0.4823
  405MOL0     H54652   1.865   2.749   0.289  3.0695 -0.8880  2.2262
  405MOL0     H54653   1.913   2.810   0.538  1.9978 -2.0365  2.0989
  405MOL0     H54654   1.905   2.641   0.506  2.1528  1.4179  1.8046
  405MOL0     H54655   1.653   2.755   0.590 -0.0822 -1.0974 -1.0373
  405MOL0     H54656   1.773   2.682   0.706 -3.3958 -1.0882  0.5321
  405MOL0     H54657   1.981   3.279   0.086 -0.8205  0.3122  1.3374
  405MOL0     H54658   2.141   3.452   0.000 -1.0376 -2.2980  1.6642
  405MOL0     H54659   2.364   3.530  -0.413 -1.6300 -0.0654 -0.6776
  405MOL0     H54660   2.535   3.671  -0.512  0.9696 -0.4703 -0.2933
  405MOL0     H54661   2.460   3.298   0.457 -1.3131 -1.6963 -0.0892
  405MOL0     H54662   2.401   3.055   0.418  1.7218 -1.8496 -0.2735
  405MOL0     H54663   2.471   2.701   0.103 -1.7920 -1.0184 -1.7484
  405MOL0     H54664   2.472   2.480   0.025 -2.3440 -0.1057 -0.0998
  405MOL0     H54665   2.331   2.246   0.071  0.1705  0.9359 -0.5776
  405MOL0     H54666   2.492   2.234  -0.018 -2.7180 -1.1056 -1.1381
  405MOL0     H54667   2.383   2.029   0.171 -2.9216  0.8572 -1.4572
  405MOL0     H54668   2.534   2.015   0.068 -0.2599 -1.3216  0.4872
  405MOL0     H54669   2.366   1.912  -0.075 -1.2254 -0.9733  2.6590
  405MOL0     H54670   2.367   2.077  -0.124  1.1509 -1.1261 -0.4788
  405MOL0     H54671   2.170   2.070   0.081 -0.2256 -0.3647  0.5175
  405MOL0     H54672   2.191   1.901   0.058  0.0963 -0.1601  0.8077
  405MOL0     H54673   1.938   2.065  -0.255  0.0006  0.5836  0.7006
  405MOL0     H54674   2.571   2.340   0.424  2.2203 -0.1030 -0.3169
  405MOL0     H54675   2.604   2.582   0.497  4.5821  1.3019 -1.3053
  406MOL0     O54676   4.240   9.064   8.504  0.0202 -0.1353  0.7989
  406MOL0     C54677   4.293   9.003   8.597  0.5824 -0.0051 -0.1770
  406MOL0     O54678   4.227   8.959   8.706 -0.3795 -0.5803  0.3638
  406MOL0     C54679   4.094   8.969   8.736  0.1961  0.9220  0.5087
  406MOL0     C54680   4.064   8.986   8.869  0.2872  0.2163 -0.1203
  406MOL0     C54681   3.934   8.987   8.909  0.1665  1.2295 -0.1994
  406MOL0     C54682   3.832   8.959   8.816  0.8391  0.1750 -0.0599
  406MOL0     O54683   3.706   8.961   8.870 -0.4310 -0.0618  0.0966
  406MOL0     C54684   3.614   8.863   8.817 -0.6505 -0.6414  1.0627
  406MOL0     C54685   3.503   8.857   8.911  0.1447 -0.4728  0.1438
  406MOL0     C54686   3.410   8.745   8.881  1.2283  0.1031  0.5257
  406MOL0     C54687   3.320   8.709   8.999 -0.0697 -0.6541  0.6750
  406MOL0     C54688   3.243   8.586   8.957 -0.6027  0.4354  0.3758
  406MOL0     C54689   3.151   8.551   9.083  0.3248 -0.0482 -0.0056
  406MOL0     C54690   3.069   8.423   9.070  0.3111 -0.5595  0.2041
  406MOL0     C54691   2.949   8.447   8.973  0.1669 -0.1474 -0.0140
  406MOL0     N54692   2.838   8.357   8.993  0.2108 -0.4901 -0.1525
  406MOL0     C54693   2.722   8.399   9.056  0.3801 -0.0883  0.3658
  406MOL0     C54694   2.656   8.283   9.075  0.1106 -0.1122 -0.6653
  406MOL0     C54695   2.523   8.279   9.138  0.5319  0.1275 -0.9101
  406MOL0     C54696   2.534   8.261   9.295 -0.6690 -0.2475  0.0540
  406MOL0     C54697   2.398   8.265   9.373 -0.6229  0.4317 -0.3637
  406MOL0     C54698   2.327   8.131   9.337 -0.0645 -1.1263 -0.6274
  406MOL0     O54699   2.208   8.118   9.425  0.0669 -0.2439  0.2220
  406MOL0     C54700   2.101   8.183   9.389 -0.7457 -0.2372  0.7077
  406MOL0     C54701   2.069   8.290   9.465  0.0503 -0.6901  0.3083
  406MOL0     C54702   1.956   8.367   9.433  0.1090  0.5789  0.8330
  406MOL0     C54703   1.943   8.492   9.513  0.9539 -0.0489 -0.5993
  406MOL0     C54704   1.865   8.324   9.330  0.2636 -0.2615 -0.5519
  406MOL0     C54705   1.731   8.388   9.311  0.9511  0.5213  0.0636
  406MOL0     O54706   1.698   8.501   9.375  0.4397  0.7327 -0.4679
  406MOL0     C54707   1.573   8.554   9.384  0.3462 -0.1005  0.0140
  406MOL0     C54708   1.453   8.482   9.384 -0.2615  0.2270  0.1213
  406MOL0     C54709   1.337   8.548   9.412  0.5305  0.3484 -0.0362
  406MOL0     C54710   1.325   8.680   9.432 -0.0256 -0.6687  0.7931
  406MOL0     O54711   1.204   8.735   9.451 -0.0722 -0.4341 -0.3348
  406MOL0     C54712   1.153   8.830   9.356  0.3150 -0.4703 -0.8483
  406MOL0     C54713   1.032   8.909   9.420 -0.4859  0.3748 -0.1605
  406MOL0     C54714   0.918   8.802   9.440 -0.4088 -0.3845 -0.2517
  406MOL0     C54715   0.788   8.862   9.479  0.1541 -0.3027  0.1883
  406MOL0     C54716   0.779   8.887   9.625  0.0113  0.0117 -0.3209
  406MOL0     C54717   0.645   8.944   9.670  0.5596 -0.7852  0.5570
  406MOL0     C54718   0.534   8.840   9.680  0.1726 -0.3642  0.0952
  406MOL0     C54719   0.548   8.760   9.809 -0.2300  0.1456 -0.5629
  406MOL0    Cl54720   0.567   8.861   9.955  0.3100  0.9739  0.2641
  406MOL0     C54721   1.447   8.755   9.431  0.2675 -1.4222  0.2910
  406MOL0     C54722   1.570   8.693   9.411  0.6792 -0.3972 -0.1023
  406MOL0     O54723   1.657   8.326   9.236  0.4056  0.1540  0.0523
  406MOL0     C54724   1.906   8.212   9.255  0.3958  0.2417 -0.2308
  406MOL0     C54725   2.025   8.143   9.278 -0.6526 -0.7585  0.2367
  406MOL0     N54726   2.727   8.173   9.024  0.7175  0.0365 -0.1728
  406MOL0     N54727   2.826   8.226   8.970 -0.0958  0.1120  0.0360
  406MOL0     C54728   3.864   8.937   8.679 -0.3848 -1.4009  0.0161
  406MOL0     C54729   3.996   8.948   8.643  0.7429  0.3176 -0.1025
  406MOL0     C54730   4.435   8.965   8.582 -0.0395  1.4377 -0.4785
  406MOL0     C54731   4.509   8.917   8.692 -0.1896 -0.7917 -0.3444
  406MOL0     C54732   4.639   8.872   8.681  0.8652 -0.9214  0.1904
  406MOL0     C54733   4.701   8.877   8.559  0.8395 -0.3891 -0.5812
  406MOL0     O54734   4.831   8.854   8.563  0.1240  0.3465 -0.3383
  406MOL0     C54735   4.900   8.976   8.602 -0.2004 -0.2150  0.7199
  406MOL0     C54736   5.033   8.984   8.529  0.5710 -0.5179 -0.8435
  406MOL0     C54737   5.152   8.897   8.591 -0.2559  1.3525 -0.0380
  406MOL0     C54738   5.101   8.762   8.653  0.5202 -0.7054 -0.6607
  406MOL0     C54739   5.207   8.661   8.653  0.1064 -1.4288  0.1814
  406MOL0     C54740   5.294   8.581   8.645 -0.8562  0.1357  0.2040
  406MOL0     C54741   4.634   8.916   8.439  0.8841  0.3351 -1.3207
  406MOL0     C54742   4.505   8.962   8.456 -0.1063  0.3028 -0.4407
  406MOL0     H54743   4.141   9.006   8.943  0.2562  1.9375 -0.5130
  406MOL0     H54744   3.918   9.007   9.014 -0.3113 -0.7977  0.1704
  406MOL0     H54745   3.569   8.886   8.720 -0.8844 -1.9529  0.8432
  406MOL0     H54746   3.659   8.763   8.821  1.7264  0.2942 -0.2723
  406MOL0     H54747   3.536   8.845   9.015  1.6342 -0.8142 -0.3443
  406MOL0     H54748   3.453   8.954   8.913 -3.4183 -2.1685  0.7225
  406MOL0     H54749   3.340   8.776   8.803  0.6284  0.0283  1.0249
  406MOL0     H54750   3.468   8.658   8.846  2.6976  0.9110  0.8662
  406MOL0     H54751   3.372   8.696   9.094 -1.6206 -2.3276  1.3631
  406MOL0     H54752   3.251   8.792   9.015  1.2811  0.7266 -0.3373
  406MOL0     H54753   3.182   8.608   8.868 -1.0843  3.1700  1.3068
  406MOL0     H54754   3.305   8.499   8.931 -3.8518 -2.3418  1.0722
  406MOL0     H54755   3.207   8.544   9.177 -2.2507  1.6374  1.7772
  406MOL0     H54756   3.094   8.642   9.100  1.8079  0.9885 -0.4002
  406MOL0     H54757   3.139   8.347   9.033 -1.4624 -0.3637 -4.1769
  406MOL0     H54758   3.028   8.394   9.167  1.8865  1.7919  1.6648
  406MOL0     H54759   2.985   8.432   8.870  0.0286 -3.1838  0.2844
  406MOL0     H54760   2.913   8.547   8.995 -1.3714 -1.1999  2.7367
  406MOL0     H54761   2.689   8.502   9.070  0.0826 -0.1217 -0.0683
  406MOL0     H54762   2.482   8.379   9.120 -0.8094 -0.3107 -0.4094
  406MOL0     H54763   2.461   8.194   9.106 -0.3868  0.1619  0.6730
  406MOL0     H54764   2.593   8.347   9.327  0.2612 -0.9392  0.2319
  406MOL0     H54765   2.594   8.171   9.308 -0.1815 -0.1859 -1.5450
  406MOL0     H54766   2.338   8.351   9.341 -0.4967  0.7623  0.2748
  406MOL0     H54767   2.407   8.283   9.480  3.0270  1.5930 -0.7555
  406MOL0     H54768   2.391   8.046   9.364  1.4234  0.8751  2.7214
  406MOL0     H54769   2.301   8.136   9.231 -0.7689 -2.0999 -0.5136
  406MOL0     H54770   2.126   8.316   9.553 -0.3190  1.6648 -0.0882
  406MOL0     H54771   1.847   8.494   9.566  0.8502 -3.7816 -0.3829
  406MOL0     H54772   2.009   8.492   9.601  0.7370  0.3377 -0.4332
  406MOL0     H54773   1.950   8.583   9.453  1.4289  0.5532  0.3389
  406MOL0     H54774   1.444   8.374   9.377  1.1016  0.0583  0.6507
  406MOL0     H54775   1.241   8.498   9.397  1.4671 -0.9560 -2.1951
  406MOL0     H54776   1.233   8.904   9.340  1.8151 -1.0297  2.8986
  406MOL0     H54777   1.118   8.779   9.266 -1.6309  1.4627 -1.2627
  406MOL0     H54778   1.055   8.942   9.522 -2.7701  0.6647  0.3168
  406MOL0     H54779   1.010   8.996   9.358  2.0450  0.8536 -0.5172
  406MOL0     H54780   0.949   8.739   9.524 -1.3932  0.7164  0.9808
  406MOL0     H54781   0.909   8.742   9.349 -2.3280  1.2036 -1.1793
  406MOL0     H54782   0.784   8.955   9.422  0.8199 -0.7918 -0.6856
  406MOL0     H54783   0.703   8.800   9.448  0.4369 -0.3828 -0.4445
  406MOL0     H54784   0.860   8.956   9.651 -0.3370  1.6618 -3.1616
  406MOL0     H54785   0.807   8.793   9.673 -0.9661  0.0661  0.4042
  406MOL0     H54786   0.664   9.005   9.759 -0.9356  0.9305 -0.2339
  406MOL0     H54787   0.615   9.018   9.595 -0.4167  0.8443  2.4461
  406MOL0     H54788   0.543   8.777   9.592 -0.6380 -0.5830  0.1681
  406MOL0     H54789   0.438   8.892   9.682  0.7814  0.7920  1.0322
  406MOL0     H54790   0.637   8.697   9.796  0.3720  1.4099 -3.1350
  406MOL0     H54791   0.454   8.704   9.814  0.7469 -1.5602 -0.4326
  406MOL0     H54792   1.450   8.862   9.444  1.0477 -1.4541  0.4332
  406MOL0     H54793   1.661   8.751   9.402  0.2127  0.3680  0.0270
  406MOL0     H54794   1.849   8.186   9.167  0.5885  2.2726 -1.0157
  406MOL0     H54795   2.058   8.053   9.228  1.4583 -1.2878  2.3665
  406MOL0     H54796   3.794   8.920   8.598 -1.3199 -0.7860  0.6794
  406MOL0     H54797   4.023   8.945   8.537 -4.9388 -1.2217 -1.8312
  406MOL0     H54798   4.474   8.911   8.794 -0.4668  2.7089 -0.1006
  406MOL0     H54799   4.700   8.838   8.765  3.1146 -0.5339 -1.1934
  406MOL0     H54800   4.848   9.065   8.565 -0.5777  1.3320  4.4732
  406MOL0     H54801   4.909   8.977   8.711 -1.1517  2.8544  0.8764
  406MOL0     H54802   5.046   9.092   8.522 -2.4797 -0.1431 -1.8856
  406MOL0     H54803   5.008   8.952   8.427 -0.2147 -1.3913 -0.3846
  406MOL0     H54804   5.208   8.953   8.666  0.6985 -1.9609  1.9744
  406MOL0     H54805   5.220   8.871   8.509 -0.3634  1.5351 -0.1857
  406MOL0     H54806   5.020   8.713   8.598  0.8972 -1.8572 -0.2197
  406MOL0     H54807   5.061   8.770   8.754  0.9996 -1.4661 -0.3981
  406MOL0     H54808   5.378   8.514   8.651 -0.9784  0.0909  1.7223
  406MOL0     H54809   4.676   8.917   8.339 -2.4941  0.8304 -2.9043
  406MOL0     H54810   4.450   8.988   8.365 -0.0022  1.5131 -0.1701
  407MOL0     O54811   0.355   6.327   7.759  0.4514  0.1439 -0.8725
  407MOL0     C54812   0.363   6.264   7.653  1.1686 -0.6656  0.2855
  407MOL0     O54813   0.257   6.258   7.551  0.7864  0.7001  0.4803
  407MOL0     C54814   0.151   6.343   7.569 -0.4007  0.5492  0.7322
  407MOL0     C54815   0.171   6.482   7.563 -0.4100 -0.7892  0.7347
  407MOL0     C54816   0.070   6.567   7.600 -1.0114 -0.9610 -0.9706
  407MOL0     C54817  -0.054   6.516   7.646  1.2732 -0.5339 -0.7601
  407MOL0     O54818  -0.146   6.611   7.683  0.5943 -0.9040  0.0187
  407MOL0     C54819  -0.283   6.571   7.669  0.2951  0.4229  0.4447
  407MOL0     C54820  -0.328   6.524   7.807  0.0099  0.2488  0.3287
  407MOL0     C54821  -0.460   6.454   7.809 -0.3844  0.0217  0.9396
  407MOL0     C54822  -0.482   6.383   7.940  0.0964 -0.1957  0.3015
  407MOL0     C54823  -0.622   6.325   7.929  1.0976  0.3629 -0.3395
  407MOL0     C54824  -0.658   6.244   8.056  0.0724  0.2025  0.6329
  407MOL0     C54825  -0.799   6.184   8.038 -0.0432  0.1216 -1.1581
  407MOL0     C54826  -0.836   6.097   8.162 -0.4226 -1.2455 -0.3107
  407MOL0     N54827  -0.980   6.060   8.151  0.0926 -0.0086  0.1969
  407MOL0     C54828  -1.040   5.976   8.061  0.2649  0.1518  1.0679
  407MOL0     C54829  -1.176   5.983   8.080  0.5333 -0.9144 -0.6434
  407MOL0     C54830  -1.278   5.920   7.989 -0.1129  0.2236  0.7519
  407MOL0     C54831  -1.344   5.802   8.059 -0.1996 -0.4504  0.1944
  407MOL0     C54832  -1.428   5.719   7.960 -0.1528 -0.2453 -0.9257
  407MOL0     C54833  -1.547   5.786   7.894 -0.3392 -0.2739 -0.3735
  407MOL0     O54834  -1.634   5.689   7.838  0.1088  0.4786  0.0157
  407MOL0     C54835  -1.611   5.628   7.716 -0.0385  0.1662  0.5018
  407MOL0     C54836  -1.706   5.536   7.663  0.0058  0.3959  0.3491
  407MOL0     C54837  -1.691   5.487   7.525  0.4256  0.4305 -0.7013
  407MOL0     C54838  -1.807   5.414   7.451  0.0150 -0.4814  0.1717
  407MOL0     C54839  -1.562   5.509   7.463 -0.0057  0.3369  0.3616
  407MOL0     C54840  -1.523   5.452   7.333 -0.2875  0.1691 -0.3928
  407MOL0     O54841  -1.579   5.333   7.296  0.1658 -0.3580  0.0330
  407MOL0     C54842  -1.561   5.298   7.164  0.0187 -0.9434  0.0182
  407MOL0     C54843  -1.452   5.218   7.129 -0.6558 -0.3299 -0.4404
  407MOL0     C54844  -1.428   5.182   6.998 -0.7536  0.0441  0.7731
  407MOL0     C54845  -1.530   5.211   6.904  0.7292 -0.0708  0.2665
  407MOL0     O54846  -1.540   5.162   6.777  0.1334 -0.8496  0.5129
  407MOL0     C54847  -1.454   5.066   6.723  0.3181  0.2796 -0.2148
  407MOL0     C54848  -1.504   5.013   6.585  0.4208  0.1951  0.6320
  407MOL0     C54849  -1.643   4.949   6.602  0.1787  0.6791  0.7542
  407MOL0     C54850  -1.696   4.928   6.459  0.2654  0.5856  0.0620
  407MOL0     C54851  -1.620   4.815   6.378 -0.6998 -0.7576  0.0963
  407MOL0     C54852  -1.684   4.794   6.244  0.3266 -0.1353 -0.4837
  407MOL0     C54853  -1.667   4.915   6.141 -0.0239  0.0660 -0.5546
  407MOL0     C54854  -1.730   4.882   6.010  0.3108 -0.7692  0.7159
  407MOL0    Cl54855  -1.905   4.885   6.020  0.3296  0.3520  0.2986
  407MOL0     C54856  -1.636   5.299   6.939 -0.4726  0.2794  1.2298
  407MOL0     C54857  -1.653   5.345   7.064  0.3061 -0.2993 -0.3925
  407MOL0     O54858  -1.437   5.508   7.263 -0.1340 -1.0202  0.6894
  407MOL0     C54859  -1.467   5.600   7.523 -0.1893 -0.3010 -0.6489
  407MOL0     C54860  -1.498   5.660   7.640 -0.5523  0.1499 -0.6471
  407MOL0     N54861  -1.194   6.065   8.182  0.5257 -0.1633 -0.7735
  407MOL0     N54862  -1.086   6.119   8.216 -0.7266 -0.7334 -0.1567
  407MOL0     C54863  -0.065   6.372   7.659  0.3919 -0.3168 -0.3787
  407MOL0     C54864   0.037   6.290   7.625  0.7039  0.9073  0.3418
  407MOL0     C54865   0.482   6.191   7.615  0.8375  0.4164 -0.1079
  407MOL0     C54866   0.488   6.132   7.494 -0.1412  0.3698 -0.3051
  407MOL0     C54867   0.606   6.062   7.450  0.3433 -0.6605 -0.4194
  407MOL0     C54868   0.720   6.053   7.529 -1.0234  0.2441 -0.2199
  407MOL0     O54869   0.835   5.987   7.495 -0.9651 -0.5422 -0.7390
  407MOL0     C54870   0.854   5.936   7.367 -0.2379 -0.0508  0.5212
  407MOL0     C54871   0.988   5.862   7.378 -0.2121  0.4953  0.5603
  407MOL0     C54872   1.024   5.819   7.229 -0.6598  0.1528 -0.4163
  407MOL0     C54873   1.159   5.755   7.224  0.3803 -0.5346  0.1251
  407MOL0     C54874   1.280   5.830   7.282 -0.0673  0.0269  1.1485
  407MOL0     C54875   1.368   5.909   7.326  0.8830 -0.6649 -1.0416
  407MOL0     C54876   0.717   6.102   7.661 -0.6705 -0.0105 -0.9953
  407MOL0     C54877   0.594   6.169   7.703 -1.2232 -0.5716  0.3605
  407MOL0     H54878   0.259   6.526   7.519 -1.1532 -0.0470 -0.0364
  407MOL0     H54879   0.069   6.675   7.591  1.2511 -0.8109  0.0363
  407MOL0     H54880  -0.337   6.656   7.628  0.1075 -1.1080 -2.8422
  407MOL0     H54881  -0.300   6.493   7.593  2.9145 -1.5908  1.7535
  407MOL0     H54882  -0.248   6.455   7.837 -0.9656  0.6183  4.1691
  407MOL0     H54883  -0.318   6.611   7.872  0.0917  0.1206  0.4873
  407MOL0     H54884  -0.542   6.520   7.778  0.4691  0.1769 -1.1674
  407MOL0     H54885  -0.452   6.377   7.732 -0.5176  0.3036  0.6444
  407MOL0     H54886  -0.406   6.306   7.956  0.9513  0.5163 -0.2491
  407MOL0     H54887  -0.475   6.459   8.018  1.5993  1.3372 -1.2170
  407MOL0     H54888  -0.700   6.400   7.909 -0.1531 -0.6489  0.5522
  407MOL0     H54889  -0.628   6.249   7.851 -0.6929  1.0755 -0.9720
  407MOL0     H54890  -0.579   6.171   8.076  0.3722  0.3668  0.0613
  407MOL0     H54891  -0.653   6.311   8.142 -0.7968  2.2988 -0.8756
  407MOL0     H54892  -0.877   6.260   8.029  0.3729  0.5414 -1.2799
  407MOL0     H54893  -0.805   6.121   7.949 -2.4331 -1.0290 -0.2658
  407MOL0     H54894  -0.827   6.170   8.242 -0.5552 -1.1216 -0.4068
  407MOL0     H54895  -0.777   6.005   8.168  0.2205 -0.7673  0.9143
  407MOL0     H54896  -0.989   5.926   7.979 -0.8183  1.4933 -0.4788
  407MOL0     H54897  -1.348   6.000   7.959  0.8448  0.7420 -0.1702
  407MOL0     H54898  -1.231   5.892   7.895  2.5132  0.6949  1.8399
  407MOL0     H54899  -1.401   5.834   8.146  1.5492  1.2115  0.7978
  407MOL0     H54900  -1.269   5.730   8.094  0.5861  0.7736  1.0857
  407MOL0     H54901  -1.469   5.637   8.020  1.6108  0.4705  1.4104
  407MOL0     H54902  -1.363   5.666   7.890  1.0959  0.3818 -0.2643
  407MOL0     H54903  -1.512   5.865   7.827 -1.0734 -0.1359 -0.6026
  407MOL0     H54904  -1.604   5.835   7.974 -1.0615 -0.9295 -0.4767
  407MOL0     H54905  -1.798   5.516   7.717  0.4446  1.2083  1.4241
  407MOL0     H54906  -1.803   5.305   7.460 -0.7560 -0.5303 -0.0311
  407MOL0     H54907  -1.898   5.463   7.487 -0.0246  0.4825 -1.1595
  407MOL0     H54908  -1.788   5.439   7.346 -0.6913 -0.2765  0.0924
  407MOL0     H54909  -1.388   5.184   7.209  1.0896  2.0005 -0.7380
  407MOL0     H54910  -1.354   5.108   6.969 -0.3258  0.0115  1.8837
  407MOL0     H54911  -1.354   5.111   6.716  2.0017 -3.2137 -0.9231
  407MOL0     H54912  -1.457   4.988   6.801  2.5160 -0.0207 -0.3670
  407MOL0     H54913  -1.504   5.092   6.510  0.1429  0.0328  0.4598
  407MOL0     H54914  -1.441   4.931   6.551  0.5850 -0.5412  2.5744
  407MOL0     H54915  -1.702   5.014   6.667 -1.5704  0.0274 -0.0985
  407MOL0     H54916  -1.624   4.854   6.653  1.2313  1.3222  1.5694
  407MOL0     H54917  -1.797   4.891   6.481  0.6371  0.4046  1.5757
  407MOL0     H54918  -1.702   5.021   6.402 -2.4356  2.2746  2.8140
  407MOL0     H54919  -1.611   4.724   6.438  3.9538  0.0820  1.1153
  407MOL0     H54920  -1.515   4.837   6.353 -1.0600 -2.1689 -3.1236
  407MOL0     H54921  -1.637   4.709   6.194 -2.5973  0.1162 -4.1539
  407MOL0     H54922  -1.789   4.766   6.255  0.1824  1.0525  1.7809
  407MOL0     H54923  -1.559   4.931   6.138  0.9663 -3.8448  3.4263
  407MOL0     H54924  -1.710   5.007   6.183 -0.0183  0.2634 -0.9759
  407MOL0     H54925  -1.701   4.782   5.977 -0.7621 -1.1108  0.7893
  407MOL0     H54926  -1.704   4.954   5.931 -0.8652 -0.9884  0.1020
  407MOL0     H54927  -1.707   5.316   6.859 -0.3926 -3.3809  0.2401
  407MOL0     H54928  -1.731   5.413   7.098  1.3363  0.1042  1.2603
  407MOL0     H54929  -1.376   5.626   7.469  1.0903 -1.5748  0.7934
  407MOL0     H54930  -1.423   5.730   7.675 -2.0715  1.4973  0.0447
  407MOL0     H54931  -0.165   6.336   7.680 -0.5794  2.4913  0.2567
  407MOL0     H54932   0.030   6.182   7.634 -1.5388  0.8258 -1.3933
  407MOL0     H54933   0.400   6.136   7.431  0.0112 -1.4153 -0.6666
  407MOL0     H54934   0.600   6.021   7.349 -0.5656  0.5997 -0.8975
  407MOL0     H54935   0.775   5.864   7.342 -0.6305  1.0315 -1.5218
  407MOL0     H54936   0.841   6.012   7.290 -1.8179  0.7599  1.5153
  407MOL0     H54937   0.982   5.770   7.438 -1.4664  0.7343  0.8149
  407MOL0     H54938   1.063   5.929   7.422  0.7840 -1.0717  1.3462
  407MOL0     H54939   1.013   5.903   7.160 -2.4378  0.5739  0.3237
  407MOL0     H54940   0.949   5.744   7.201  0.8903 -1.8796  0.6048
  407MOL0     H54941   1.183   5.739   7.119 -2.6747 -0.2491 -0.7239
  407MOL0     H54942   1.160   5.656   7.270 -2.2413 -0.8389 -0.3208
  407MOL0     H54943   1.440   5.984   7.351 -0.3604  1.1384 -2.5537
  407MOL0     H54944   0.809   6.093   7.718 -0.9494 -1.3847 -0.7353
  407MOL0     H54945   0.577   6.219   7.797 -1.3000 -0.4953  0.3065
  408MOL0     O54946   6.558   6.181   6.560 -0.3371 -0.6775  0.5867
  408MOL0     C54947   6.588   6.283   6.492  0.0386  0.7231  0.8798
  408MOL0     O54948   6.500   6.380   6.453  0.1294 -0.1573 -0.1081
  408MOL0     C54949   6.374   6.366   6.499  0.7763  0.2747  0.2337
  408MOL0     C54950   6.319   6.480   6.561 -1.3349 -0.0384 -0.4787
  408MOL0     C54951   6.190   6.479   6.618  0.2022 -0.0477 -0.4475
  408MOL0     C54952   6.106   6.367   6.603 -0.3808  0.4831 -0.0524
  408MOL0     O54953   5.984   6.370   6.671  0.5032  1.0794 -0.4678
  408MOL0     C54954   5.925   6.497   6.712  0.7064  0.9899 -0.3806
  408MOL0     C54955   5.785   6.460   6.773 -0.3064 -0.6500  0.7479
  408MOL0     C54956   5.670   6.430   6.676 -0.2222  0.7169 -0.1138
  408MOL0     C54957   5.656   6.279   6.643 -0.5578  0.2201 -0.2843
  408MOL0     C54958   5.535   6.265   6.554 -0.0576  0.2583  0.6229
  408MOL0     C54959   5.547   6.130   6.487 -0.5362  0.1106  0.0673
  408MOL0     C54960   5.427   6.123   6.392 -0.3042 -0.1995  0.4268
  408MOL0     C54961   5.415   5.982   6.328  0.3471 -0.0032  0.1522
  408MOL0     N54962   5.275   5.966   6.285  0.5080 -0.3156  0.2168
  408MOL0     C54963   5.225   6.008   6.165 -0.0873 -0.1863  0.0209
  408MOL0     C54964   5.097   5.957   6.161 -0.9899 -0.1794 -0.4415
  408MOL0     C54965   5.001   5.977   6.049  0.5528  1.0296  0.2075
  408MOL0     C54966   4.850   5.941   6.058 -0.6436 -0.6520  0.4279
  408MOL0     C54967   4.788   5.961   5.919  0.8978  0.4768  0.3044
  408MOL0     C54968   4.633   5.957   5.910 -0.3049  0.1278 -0.4212
  408MOL0     O54969   4.594   5.921   5.780 -0.0014 -0.1698  0.2415
  408MOL0     C54970   4.464   5.884   5.756  0.3082 -0.2697  1.1896
  408MOL0     C54971   4.437   5.879   5.619 -0.1183 -0.6866 -0.9172
  408MOL0     C54972   4.311   5.845   5.565  0.5882 -0.4602 -0.7588
  408MOL0     C54973   4.270   5.840   5.419 -1.0686  0.3094 -0.1347
  408MOL0     C54974   4.212   5.809   5.660  0.0536  0.1939 -0.3838
  408MOL0     C54975   4.068   5.774   5.636  0.5245 -0.3454 -0.2816
  408MOL0     O54976   4.026   5.753   5.508 -0.1632  0.3184 -0.9542
  408MOL0     C54977   3.900   5.710   5.485  0.7262  0.5228  0.2728
  408MOL0     C54978   3.835   5.771   5.381  0.3153  0.2322 -0.1917
  408MOL0     C54979   3.709   5.736   5.346  0.6556 -0.3828  0.8686
  408MOL0     C54980   3.640   5.632   5.412 -0.3155  0.3436  0.7457
  408MOL0     O54981   3.511   5.596   5.401  0.1083  0.1422  0.5629
  408MOL0     C54982   3.430   5.658   5.293  0.4716  0.5472 -0.0056
  408MOL0     C54983   3.283   5.613   5.320 -0.4686  0.3866 -0.0767
  408MOL0     C54984   3.268   5.470   5.368  0.4073 -0.7587  0.2375
  408MOL0     C54985   3.119   5.425   5.370  0.3594  0.5942  0.1727
  408MOL0     C54986   3.105   5.281   5.433  0.3060 -0.0170 -1.2285
  408MOL0     C54987   2.958   5.250   5.440 -0.0735  0.2861  0.9153
  408MOL0     C54988   2.874   5.310   5.333 -0.7824  0.4520 -0.6010
  408MOL0     C54989   2.734   5.262   5.348 -0.4265 -0.1509 -0.6810
  408MOL0    Cl54990   2.663   5.357   5.486 -0.0291  0.0838  0.1404
  408MOL0     C54991   3.694   5.580   5.524 -0.1618  0.5103  0.0483
  408MOL0     C54992   3.831   5.610   5.558 -1.0381 -0.5252  0.9505
  408MOL0     O54993   3.996   5.783   5.738 -0.2598 -0.6916  0.0663
  408MOL0     C54994   4.252   5.790   5.795  0.3916  0.4012 -0.4102
  408MOL0     C54995   4.369   5.837   5.841  0.2559  0.7355 -0.8977
  408MOL0     N54996   5.077   5.876   6.272  0.3864 -0.3919  0.3294
  408MOL0     N54997   5.188   5.879   6.346  0.0347 -1.1686  0.0529
  408MOL0     C54998   6.155   6.254   6.532 -0.3728  0.0510  1.2018
  408MOL0     C54999   6.287   6.255   6.478 -0.1606  0.5332 -0.3420
  408MOL0     C55000   6.733   6.296   6.453 -0.6341  0.3707 -0.0657
  408MOL0     C55001   6.830   6.206   6.498  1.3776  0.7428  0.2234
  408MOL0     C55002   6.967   6.220   6.468 -0.4995  0.3678  0.0623
  408MOL0     C55003   7.018   6.315   6.383 -0.1101  0.5676  0.1120
  408MOL0     O55004   7.148   6.310   6.351  0.0739 -0.3356 -1.2034
  408MOL0     C55005   7.199   6.428   6.287 -0.0539 -0.1127  0.0957
  408MOL0     C55006   7.341   6.412   6.245 -0.5495  0.7270 -0.8425
  408MOL0     C55007   7.431   6.372   6.360  0.0156 -0.2179 -0.4070
  408MOL0     C55008   7.574   6.338   6.311 -0.3212  0.2183  0.2322
  408MOL0     C55009   7.667   6.318   6.429  1.1479  0.5701  0.2185
  408MOL0     C55010   7.742   6.298   6.521 -0.1390 -0.0040  0.0400
  408MOL0     C55011   6.925   6.402   6.331 -0.0170  0.3076  0.4074
  408MOL0     C55012   6.788   6.402   6.368 -0.3751 -0.0790 -0.1304
  408MOL0     H55013   6.388   6.564   6.572 -0.9636 -0.5246  1.0321
  408MOL0     H55014   6.153   6.566   6.673 -0.7964 -0.0105 -1.1469
  408MOL0     H55015   5.980   6.552   6.788  1.0484 -0.5456  0.5265
  408MOL0     H55016   5.913   6.571   6.632 -0.7916  2.1276  0.8407
  408MOL0     H55017   5.794   6.373   6.838  0.3615  0.7717  2.6363
  408MOL0     H55018   5.752   6.543   6.836  0.3800 -1.8608  2.7892
  408MOL0     H55019   5.575   6.465   6.718 -1.9520 -3.2843 -0.2904
  408MOL0     H55020   5.697   6.486   6.586  1.7202  0.7866  0.4541
  408MOL0     H55021   5.744   6.238   6.592  1.2636 -2.4480  4.4179
  408MOL0     H55022   5.649   6.219   6.734  0.4541  1.6703  0.7924
  408MOL0     H55023   5.443   6.266   6.613 -0.5791 -1.0355 -0.1224
  408MOL0     H55024   5.530   6.335   6.470  3.0113 -2.2083 -1.8431
  408MOL0     H55025   5.642   6.110   6.437 -2.3347  0.2891 -3.7117
  408MOL0     H55026   5.544   6.058   6.570  1.7309 -0.0570  0.0717
  408MOL0     H55027   5.341   6.165   6.445  0.7391  2.5488  0.1417
  408MOL0     H55028   5.453   6.193   6.311  1.9373  0.0692  1.2829
  408MOL0     H55029   5.431   5.897   6.396  0.8557 -2.2620 -2.5945
  408MOL0     H55030   5.488   5.975   6.246  1.1068  2.3085  0.5583
  408MOL0     H55031   5.276   6.073   6.095 -2.6573  0.9742 -0.9124
  408MOL0     H55032   5.001   6.085   6.030 -2.2633  1.5652  2.4190
  408MOL0     H55033   5.040   5.922   5.964  0.1547 -2.5623  2.1759
  408MOL0     H55034   4.798   5.998   6.136  2.0889  1.6101  0.7807
  408MOL0     H55035   4.847   5.835   6.085  0.9159 -0.8366  0.0111
  408MOL0     H55036   4.831   5.870   5.875  2.3117  1.0870  0.3709
  408MOL0     H55037   4.817   6.044   5.854  1.4263 -1.8097 -2.6368
  408MOL0     H55038   4.590   6.053   5.938 -1.1333 -0.7861  1.7187
  408MOL0     H55039   4.598   5.878   5.978  0.8320 -0.4710 -0.5019
  408MOL0     H55040   4.516   5.904   5.549  0.8818  1.5233  0.8761
  408MOL0     H55041   4.354   5.857   5.351 -1.6328  1.1456 -0.6406
  408MOL0     H55042   4.227   5.743   5.392  0.3550 -0.4769  0.3025
  408MOL0     H55043   4.195   5.915   5.393  1.6732  2.7592 -1.6341
  408MOL0     H55044   3.883   5.845   5.318  2.2100 -0.2635  0.5951
  408MOL0     H55045   3.648   5.786   5.271 -1.0672 -1.6084  1.3761
  408MOL0     H55046   3.434   5.767   5.290 -1.6141  0.6582  0.1672
  408MOL0     H55047   3.451   5.620   5.193  2.9607  0.1546  0.5976
  408MOL0     H55048   3.230   5.674   5.394  1.9233  0.4131  1.7246
  408MOL0     H55049   3.226   5.612   5.226 -2.6583  0.4281  1.1837
  408MOL0     H55050   3.306   5.443   5.467  1.9335 -1.5732 -0.5314
  408MOL0     H55051   3.319   5.407   5.294  0.0352 -1.2681  0.4096
  408MOL0     H55052   3.059   5.486   5.438  0.7051 -0.5523  1.5517
  408MOL0     H55053   3.080   5.425   5.267 -0.3495 -1.9601  0.3706
  408MOL0     H55054   3.136   5.279   5.537 -0.5587  1.3382 -0.9205
  408MOL0     H55055   3.160   5.199   5.385 -1.0676 -0.5778 -1.8891
  408MOL0     H55056   2.951   5.142   5.424 -1.6119  0.4006  0.7458
  408MOL0     H55057   2.928   5.277   5.542 -0.6979  0.6921  0.6279
  408MOL0     H55058   2.905   5.266   5.238 -0.6276  0.6559 -0.6451
  408MOL0     H55059   2.875   5.419   5.334  0.5638  0.4614 -1.2548
  408MOL0     H55060   2.727   5.153   5.354 -2.9051 -0.1450 -1.9506
  408MOL0     H55061   2.684   5.297   5.257  1.1409  0.0576 -1.4913
  408MOL0     H55062   3.639   5.506   5.581  1.5912 -0.3880  0.6722
  408MOL0     H55063   3.870   5.561   5.647  0.4475 -0.7456  0.2028
  408MOL0     H55064   4.184   5.742   5.865  2.5206 -1.2287  0.6595
  408MOL0     H55065   4.388   5.822   5.946 -2.1221  1.5869 -0.2769
  408MOL0     H55066   6.089   6.169   6.520  0.8613 -1.1188  2.3301
  408MOL0     H55067   6.322   6.171   6.419  0.2008 -0.3561  1.0803
  408MOL0     H55068   6.808   6.133   6.575 -1.4247  2.1722  0.9170
  408MOL0     H55069   7.038   6.155   6.518  1.8301  0.8856 -2.3428
  408MOL0     H55070   7.146   6.451   6.194 -0.4428  0.8702  0.5519
  408MOL0     H55071   7.193   6.518   6.350  0.3783  1.4479 -1.9743
  408MOL0     H55072   7.374   6.509   6.207  1.1910  1.6101  2.5584
  408MOL0     H55073   7.339   6.338   6.165  2.6298 -0.0626 -0.3320
  408MOL0     H55074   7.396   6.290   6.423 -0.6917  0.2228 -0.2152
  408MOL0     H55075   7.443   6.465   6.417  0.0086 -0.1956 -0.4411
  408MOL0     H55076   7.618   6.423   6.259 -1.1053  0.3008 -0.2977
  408MOL0     H55077   7.569   6.252   6.244 -2.1495  0.1962  0.3537
  408MOL0     H55078   7.812   6.268   6.597 -2.1191 -1.4514  1.4090
  408MOL0     H55079   6.952   6.477   6.258 -2.2731  0.2808 -0.5518
  408MOL0     H55080   6.725   6.483   6.332 -0.4761  0.3694  1.0197
  409MOL0     O55081   6.114   6.850   2.532  0.2005 -0.2702 -0.1443
  409MOL0     C55082   6.125   6.858   2.407  0.1024 -0.0214  0.2214
  409MOL0     O55083   6.024   6.856   2.314 -0.0565  0.7395 -0.6703
  409MOL0     C55084   5.887   6.844   2.339 -0.3033 -0.1227 -0.1706
  409MOL0     C55085   5.829   6.857   2.464  0.8566  0.5080 -0.4143
  409MOL0     C55086   5.693   6.852   2.481 -0.6708 -0.5917  0.1326
  409MOL0     C55087   5.610   6.823   2.368 -0.0147  0.4738  0.0489
  409MOL0     O55088   5.474   6.797   2.386  0.1656 -0.1767  0.0286
  409MOL0     C55089   5.397   6.841   2.501  0.1366  0.0327 -0.4590
  409MOL0     C55090   5.265   6.755   2.499  0.8227  0.0677  0.6505
  409MOL0     C55091   5.181   6.796   2.373  0.5851  0.1486  0.8377
  409MOL0     C55092   5.033   6.757   2.377 -0.0010 -0.8459 -0.1699
  409MOL0     C55093   5.006   6.629   2.306 -0.1291  0.2033  0.1544
  409MOL0     C55094   4.863   6.587   2.331  0.4978  0.0886 -0.1259
  409MOL0     C55095   4.821   6.478   2.240  0.4042  0.3966  0.5100
  409MOL0     C55096   4.672   6.454   2.256  0.9437  0.5906 -0.5366
  409MOL0     N55097   4.631   6.349   2.167 -0.4093 -0.2059  0.8093
  409MOL0     C55098   4.606   6.360   2.031 -0.0750  0.4286 -0.2583
  409MOL0     C55099   4.565   6.232   1.988 -1.3975 -0.5644 -0.7737
  409MOL0     C55100   4.529   6.194   1.846 -0.5518 -0.6498  0.8740
  409MOL0     C55101   4.377   6.198   1.829  0.1116  0.7013 -0.8259
  409MOL0     C55102   4.335   6.084   1.727 -0.1385  0.3425 -0.6119
  409MOL0     C55103   4.204   6.108   1.658  0.9729 -0.4678  0.0439
  409MOL0     O55104   4.099   6.097   1.758 -0.1611  0.2939  0.2450
  409MOL0     C55105   3.983   6.089   1.697  0.1146  0.1862  0.0787
  409MOL0     C55106   3.933   5.959   1.662 -0.7509 -0.9419  0.3240
  409MOL0     C55107   3.814   5.945   1.587  0.2113  0.0389 -0.1956
  409MOL0     C55108   3.770   5.803   1.552 -0.3945  0.1367 -0.7478
  409MOL0     C55109   3.744   6.056   1.548 -0.2765  0.4688  0.1442
  409MOL0     C55110   3.621   6.055   1.469 -0.3486 -0.2733 -0.0358
  409MOL0     O55111   3.604   5.947   1.381 -0.6047 -0.0867 -0.3692
  409MOL0     C55112   3.498   5.956   1.297 -0.1633 -0.1072  0.0382
  409MOL0     C55113   3.424   5.840   1.287 -0.5789  0.2613 -0.2554
  409MOL0     C55114   3.338   5.814   1.187  0.2961 -0.3654 -0.0634
  409MOL0     C55115   3.313   5.919   1.089 -0.2190 -0.2059  0.0572
  409MOL0     O55116   3.211   5.894   1.001  0.1808  0.8494  0.1538
  409MOL0     C55117   3.224   5.979   0.882  0.3778 -0.6527  0.2015
  409MOL0     C55118   3.124   5.947   0.773 -0.1263 -0.3684 -0.5471
  409MOL0     C55119   3.121   6.060   0.664  0.9671 -0.2833 -0.4647
  409MOL0     C55120   3.042   6.037   0.539 -0.1809  0.6918  0.6597
  409MOL0     C55121   3.074   5.906   0.457  0.8422 -0.3409 -0.1709
  409MOL0     C55122   2.973   5.915   0.338 -1.0389  0.3501 -0.6718
  409MOL0     C55123   2.982   5.795   0.264  0.0159  0.4557 -0.1903
  409MOL0     C55124   2.913   5.800   0.130 -0.4909 -1.2471  0.9837
  409MOL0    Cl55125   2.994   5.924   0.020 -0.2817  0.3751 -0.0823
  409MOL0     C55126   3.380   6.045   1.110 -0.0433  0.6958  0.9744
  409MOL0     C55127   3.477   6.060   1.203 -1.0855 -0.1810 -0.5244
  409MOL0     O55128   3.520   6.130   1.498  0.2818  0.1924 -0.5679
  409MOL0     C55129   3.792   6.183   1.585 -0.0969  0.3294 -0.3187
  409MOL0     C55130   3.906   6.201   1.654 -0.2625 -0.3801 -0.5907
  409MOL0     N55131   4.584   6.149   2.104 -0.3113 -0.3561 -0.1509
  409MOL0     N55132   4.630   6.218   2.203  0.7591 -0.6659 -0.0863
  409MOL0     C55133   5.667   6.795   2.240  0.1297  0.8989  0.0407
  409MOL0     C55134   5.804   6.815   2.232 -1.2570 -0.7862 -0.1442
  409MOL0     C55135   6.262   6.856   2.353 -0.3082  0.2739  0.6848
  409MOL0     C55136   6.374   6.826   2.430 -0.5141 -0.0374 -0.1327
  409MOL0     C55137   6.506   6.830   2.379  0.0725 -0.3570  1.1551
  409MOL0     C55138   6.531   6.865   2.243  0.0416 -0.2559  0.4158
  409MOL0     O55139   6.660   6.871   2.193  0.5954 -0.2389  0.3364
  409MOL0     C55140   6.681   6.898   2.052  0.3126 -0.6871  0.1950
  409MOL0     C55141   6.818   6.866   2.000 -0.1868 -0.4285  0.4941
  409MOL0     C55142   6.926   6.942   2.077 -0.8964  0.2729 -0.5128
  409MOL0     C55143   7.048   6.910   2.008  0.2353  0.6250 -0.1252
  409MOL0     C55144   7.164   6.965   2.075 -0.6428  0.3806 -0.4133
  409MOL0     C55145   7.259   7.016   2.125 -0.6197 -0.2378  0.2946
  409MOL0     C55146   6.421   6.909   2.167 -0.1796 -0.5544  0.1899
  409MOL0     C55147   6.287   6.896   2.223 -0.1705 -0.3398  0.0359
  409MOL0     H55148   5.887   6.883   2.552 -0.6669  1.5091  0.3288
  409MOL0     H55149   5.647   6.864   2.579 -2.5803  1.3033 -0.9226
  409MOL0     H55150   5.454   6.807   2.588  0.2429  1.1968 -0.0493
  409MOL0     H55151   5.370   6.946   2.515 -5.1461 -1.2314  1.0181
  409MOL0     H55152   5.284   6.648   2.484 -2.9864 -0.6205 -0.1953
  409MOL0     H55153   5.202   6.761   2.588 -1.1930 -0.7941 -0.6627
  409MOL0     H55154   5.198   6.901   2.348  0.8760 -0.3905 -1.4508
  409MOL0     H55155   5.214   6.742   2.283  0.1866  1.5990 -0.2105
  409MOL0     H55156   5.007   6.755   2.483 -1.5079  0.0864 -0.4920
  409MOL0     H55157   4.957   6.820   2.330  1.0301 -0.9172 -2.0193
  409MOL0     H55158   5.021   6.650   2.200 -2.8797  0.6435 -0.2309
  409MOL0     H55159   5.080   6.554   2.335  0.2574  0.3236 -0.4817
  409MOL0     H55160   4.849   6.548   2.432 -0.4619 -2.3598 -1.1219
  409MOL0     H55161   4.799   6.675   2.318  0.8194  0.5278  1.1852
  409MOL0     H55162   4.825   6.513   2.136  1.0281  2.9542  1.3299
  409MOL0     H55163   4.884   6.390   2.253  0.5295  0.4855  0.5071
  409MOL0     H55164   4.623   6.547   2.226  3.1081  1.6139 -1.1751
  409MOL0     H55165   4.640   6.441   2.360  3.2704  2.9917  0.6079
  409MOL0     H55166   4.627   6.450   1.975 -0.2695  1.7383  1.6925
  409MOL0     H55167   4.575   6.260   1.772  0.4874 -2.5608 -0.2600
  409MOL0     H55168   4.572   6.096   1.824 -0.1679 -0.4822  0.8797
  409MOL0     H55169   4.361   6.299   1.789  3.8993  1.7149 -0.2017
  409MOL0     H55170   4.323   6.186   1.923 -1.3398  0.1295 -1.6942
  409MOL0     H55171   4.329   5.989   1.780  1.7902 -0.2919 -1.4283
  409MOL0     H55172   4.410   6.068   1.649  1.5117  0.6264  0.8449
  409MOL0     H55173   4.194   6.032   1.580  2.1709  0.4920 -1.0893
  409MOL0     H55174   4.199   6.210   1.617 -1.4148 -0.8239 -0.7192
  409MOL0     H55175   3.989   5.868   1.682 -0.1796 -0.4079  1.1983
  409MOL0     H55176   3.786   5.780   1.446 -1.5468 -2.1676 -0.4855
  409MOL0     H55177   3.833   5.734   1.608 -0.3237 -0.7662 -1.9047
  409MOL0     H55178   3.663   5.796   1.573  0.1199  1.7779  3.2831
  409MOL0     H55179   3.465   5.762   1.350 -0.6066 -0.5814 -1.2579
  409MOL0     H55180   3.300   5.719   1.151  0.9960 -0.1378 -1.5152
  409MOL0     H55181   3.214   6.085   0.904  2.8079 -0.2838 -0.1775
  409MOL0     H55182   3.329   5.980   0.848 -0.1917  1.5398 -1.7436
  409MOL0     H55183   3.148   5.852   0.723  2.1087  0.9050 -2.0718
  409MOL0     H55184   3.027   5.937   0.823 -0.1416 -0.4864 -0.6007
  409MOL0     H55185   3.222   6.093   0.639  1.1433 -0.8966 -0.5802
  409MOL0     H55186   3.075   6.146   0.713 -0.2793 -2.0505  1.6756
  409MOL0     H55187   2.936   6.046   0.567 -0.0390 -0.3011  1.5983
  409MOL0     H55188   3.068   6.113   0.465  2.4639 -0.7309  0.0039
  409MOL0     H55189   3.062   5.819   0.523 -1.2220  1.1204  1.5373
  409MOL0     H55190   3.176   5.905   0.418  1.9870  0.3659  2.5982
  409MOL0     H55191   2.873   5.948   0.367 -0.8630  0.9192 -0.7049
  409MOL0     H55192   3.013   5.989   0.269 -1.6659 -0.0809 -1.5122
  409MOL0     H55193   2.922   5.718   0.315 -1.3193 -0.2108 -2.6189
  409MOL0     H55194   3.089   5.778   0.254  0.2975  2.5524 -1.0703
  409MOL0     H55195   2.809   5.831   0.146 -0.8098 -3.1054  2.9253
  409MOL0     H55196   2.915   5.703   0.079 -0.3205 -1.5493  1.5684
  409MOL0     H55197   3.370   6.136   1.050 -1.1706  0.9045  1.4477
  409MOL0     H55198   3.535   6.151   1.215 -2.3845  0.3436  2.7561
  409MOL0     H55199   3.732   6.269   1.556 -0.5957 -1.2659 -4.7709
  409MOL0     H55200   3.930   6.306   1.669 -0.0627 -0.3399 -1.1509
  409MOL0     H55201   5.607   6.762   2.157 -0.7424  1.5221  0.4116
  409MOL0     H55202   5.857   6.803   2.139  3.3323  2.3212  1.7252
  409MOL0     H55203   6.363   6.797   2.534  3.1304 -0.0582  0.3876
  409MOL0     H55204   6.594   6.811   2.440  1.9322  0.9469 -0.9291
  409MOL0     H55205   6.610   6.840   1.991 -1.0810 -0.6721  1.7446
  409MOL0     H55206   6.667   7.006   2.040 -0.3252 -0.5839  1.6918
  409MOL0     H55207   6.820   6.898   1.896  0.8991 -1.0238  0.3148
  409MOL0     H55208   6.839   6.758   2.003 -1.0413 -0.6246 -0.2767
  409MOL0     H55209   6.940   6.895   2.176 -0.2039 -0.0828 -0.7735
  409MOL0     H55210   6.921   7.051   2.085  1.2871  0.3120  1.5659
  409MOL0     H55211   7.044   6.957   1.909 -0.3711 -2.3843 -1.6341
  409MOL0     H55212   7.066   6.804   1.987  2.1164  1.2756 -2.1850
  409MOL0     H55213   7.350   7.047   2.172 -0.3210  1.1990 -1.1414
  409MOL0     H55214   6.431   6.942   2.064 -0.5722 -1.3024 -0.0965
  409MOL0     H55215   6.204   6.933   2.163 -0.6440 -0.4853  0.5958
  410MOL0     O55216   8.321   7.850   3.435 -0.0445  0.0124 -0.2327
  410MOL0     C55217   8.395   7.785   3.506  0.8385 -0.5525  0.1752
  410MOL0     O55218   8.361   7.696   3.606  0.4431  0.0723 -0.5908
  410MOL0     C55219   8.229   7.689   3.644 -0.8509 -0.4137 -0.9971
  410MOL0     C55220   8.162   7.793   3.717  0.2766 -0.1576  0.3117
  410MOL0     C55221   8.028   7.776   3.755  0.2146 -0.1750 -0.5076
  410MOL0     C55222   7.957   7.655   3.716 -0.1136 -1.2300  0.9683
  410MOL0     O55223   7.828   7.628   3.742 -0.1339 -0.3010  0.1449
  410MOL0     C55224   7.758   7.715   3.823 -0.0613 -0.1772 -0.2965
  410MOL0     C55225   7.627   7.664   3.891 -0.0056  0.0207  0.4905
  410MOL0     C55226   7.570   7.787   3.963  0.3854  0.7105 -0.6802
  410MOL0     C55227   7.444   7.749   4.039  0.8415 -0.0211 -0.7313
  410MOL0     C55228   7.388   7.873   4.120 -0.1757  0.2005  0.1920
  410MOL0     C55229   7.246   7.845   4.170  1.0506 -0.6753 -0.4757
  410MOL0     C55230   7.182   7.974   4.226  0.0052 -0.1798  0.0282
  410MOL0     C55231   7.065   7.944   4.322  0.7072  0.0548 -0.0999
  410MOL0     N55232   7.008   8.053   4.399 -0.2111  0.2683 -0.1343
  410MOL0     C55233   6.930   8.162   4.364  0.1713  0.1033  0.0865
  410MOL0     C55234   6.894   8.227   4.473 -0.6247  0.6732 -0.2112
  410MOL0     C55235   6.829   8.363   4.479 -0.4492 -0.6020 -0.5452
  410MOL0     C55236   6.674   8.356   4.498  0.0382  0.5288  0.3310
  410MOL0     C55237   6.592   8.493   4.513 -0.3956  0.5027 -0.0468
  410MOL0     C55238   6.442   8.456   4.495 -0.5017 -0.7294 -0.1006
  410MOL0     O55239   6.370   8.582   4.521  0.3641  0.3521  0.0623
  410MOL0     C55240   6.247   8.581   4.591 -0.4710 -0.0845 -0.2426
  410MOL0     C55241   6.205   8.698   4.658  0.2733 -0.3217  0.2860
  410MOL0     C55242   6.080   8.708   4.729 -0.1601 -0.5599  0.9083
  410MOL0     C55243   6.062   8.833   4.804  0.2765 -0.1965  0.0681
  410MOL0     C55244   5.991   8.597   4.711  0.2615  0.6576  0.3168
  410MOL0     C55245   5.856   8.596   4.775  0.4613 -0.5153  0.2248
  410MOL0     O55246   5.807   8.717   4.805 -0.2061  0.5765 -0.2910
  410MOL0     C55247   5.689   8.731   4.872  0.7480 -0.1430 -1.2653
  410MOL0     C55248   5.678   8.842   4.954  0.6231 -0.2716  0.7672
  410MOL0     C55249   5.556   8.883   5.002 -0.0192  0.0426  0.7257
  410MOL0     C55250   5.443   8.799   4.991  0.2620 -0.4064  0.6611
  410MOL0     O55251   5.319   8.820   5.047 -0.4736  0.3044  0.0726
  410MOL0     C55252   5.283   8.955   5.073 -0.2926 -0.5221  0.1084
  410MOL0     C55253   5.144   8.972   5.143  0.3092 -0.0979 -1.0913
  410MOL0     C55254   5.031   8.909   5.059 -0.2510  0.1423  0.0116
  410MOL0     C55255   4.951   9.013   4.978 -0.3031  0.2144 -0.3154
  410MOL0     C55256   4.836   9.072   5.064 -0.2714 -0.0838 -0.2630
  410MOL0     C55257   4.765   9.188   4.989  0.3954  0.0324 -0.1237
  410MOL0     C55258   4.667   9.260   5.073  0.2663 -0.5835  0.6235
  410MOL0     C55259   4.624   9.390   4.998  0.0724  0.1153 -0.0739
  410MOL0    Cl55260   4.497   9.365   4.874 -0.2714 -0.0984  0.2253
  410MOL0     C55261   5.444   8.691   4.908  0.4077 -0.1061  0.0476
  410MOL0     C55262   5.569   8.661   4.849 -0.6380  0.4876  0.3401
  410MOL0     O55263   5.795   8.488   4.801  0.4827  0.5900 -0.3057
  410MOL0     C55264   6.032   8.478   4.645  0.4265 -0.2696 -0.0017
  410MOL0     C55265   6.155   8.473   4.580 -0.0212 -0.1118  1.4453
  410MOL0     N55266   6.951   8.161   4.577 -0.1045 -0.7800 -0.4077
  410MOL0     N55267   7.014   8.058   4.531 -0.0012 -0.6113 -0.5365
  410MOL0     C55268   8.023   7.565   3.631 -0.3100  0.5833 -0.3940
  410MOL0     C55269   8.158   7.579   3.591 -0.3056 -0.3982  0.3136
  410MOL0     C55270   8.538   7.792   3.485 -0.8977 -0.0143  0.7865
  410MOL0     C55271   8.597   7.886   3.398  0.0240 -0.2293 -0.7096
  410MOL0     C55272   8.736   7.888   3.369 -0.1500  0.1182 -0.1997
  410MOL0     C55273   8.814   7.776   3.417 -0.8377 -0.1787  0.2099
  410MOL0     O55274   8.940   7.748   3.372 -0.3112  0.2877  0.4059
  410MOL0     C55275   8.999   7.817   3.266 -0.2297  0.2101  0.7790
  410MOL0     C55276   9.151   7.809   3.273  0.3974  0.3150 -0.2211
  410MOL0     C55277   9.215   7.671   3.250 -0.3373  0.6199  0.0461
  410MOL0     C55278   9.372   7.673   3.240 -0.6636  0.1993 -0.2431
  410MOL0     C55279   9.450   7.715   3.364 -0.6266  1.3892 -0.9275
  410MOL0     C55280   9.503   7.729   3.474 -0.4442  0.3394  0.6433
  410MOL0     C55281   8.765   7.689   3.513  0.6879 -0.3396  0.0755
  410MOL0     C55282   8.624   7.695   3.548  0.2923  0.5622  0.6312
  410MOL0     H55283   8.206   7.889   3.744 -1.7981  0.5877  1.2819
  410MOL0     H55284   7.975   7.865   3.786  2.0242  1.1202 -1.0231
  410MOL0     H55285   7.823   7.749   3.904 -0.6764  4.0487 -1.3479
  410MOL0     H55286   7.744   7.810   3.771  1.6061 -0.8916 -2.1845
  410MOL0     H55287   7.561   7.602   3.829 -0.3185 -0.3487  1.1923
  410MOL0     H55288   7.656   7.595   3.970  0.5518 -1.6055 -1.0663
  410MOL0     H55289   7.643   7.840   4.023 -0.2883  1.8108 -0.8105
  410MOL0     H55290   7.551   7.864   3.887  0.3143  2.0334  0.6446
  410MOL0     H55291   7.367   7.713   3.970 -0.4026 -1.4964  1.3005
  410MOL0     H55292   7.463   7.672   4.114 -2.1207  3.1223  3.7638
  410MOL0     H55293   7.457   7.874   4.205 -1.4372 -1.7506  1.3170
  410MOL0     H55294   7.388   7.962   4.057 -2.0607  1.0670  1.3546
  410MOL0     H55295   7.186   7.814   4.084  2.1954 -0.5091 -1.3530
  410MOL0     H55296   7.255   7.769   4.248  1.6333 -0.0351  0.1001
  410MOL0     H55297   7.260   8.030   4.277  2.2275 -0.5756 -2.6652
  410MOL0     H55298   7.147   8.036   4.143 -2.4720  2.1181  2.6012
  410MOL0     H55299   7.113   7.872   4.388  0.2092 -1.5829 -1.4715
  410MOL0     H55300   6.988   7.895   4.262  0.2852  0.7091 -0.1109
  410MOL0     H55301   6.914   8.190   4.261  0.0660 -0.6568 -0.1057
  410MOL0     H55302   6.874   8.412   4.566 -3.2440  1.4792 -0.1256
  410MOL0     H55303   6.861   8.418   4.390  1.5518  1.1015  1.1324
  410MOL0     H55304   6.654   8.296   4.587 -0.5205 -1.4263 -1.0304
  410MOL0     H55305   6.636   8.296   4.414 -0.9959  0.4973  0.8122
  410MOL0     H55306   6.617   8.562   4.432 -1.4389  0.6977 -0.2186
  410MOL0     H55307   6.608   8.543   4.609 -0.0503 -0.6428  0.5087
  410MOL0     H55308   6.413   8.380   4.568  2.4612 -0.2416  1.7471
  410MOL0     H55309   6.425   8.416   4.395  1.6694 -1.3273 -0.2834
  410MOL0     H55310   6.272   8.782   4.666  1.2886 -1.2156  1.9444
  410MOL0     H55311   6.149   8.897   4.787 -0.7533  0.4779 -3.6259
  410MOL0     H55312   5.981   8.894   4.764 -1.7005 -1.7501  1.4677
  410MOL0     H55313   6.048   8.812   4.911 -0.2747  0.6568  0.1805
  410MOL0     H55314   5.765   8.899   4.986  1.4031 -1.6164  1.1088
  410MOL0     H55315   5.557   8.974   5.061  1.2636  2.1424 -2.2624
  410MOL0     H55316   5.351   8.994   5.149  1.0219 -1.2330 -0.6773
  410MOL0     H55317   5.291   9.023   4.988 -0.6532 -0.4252  0.1489
  410MOL0     H55318   5.141   8.933   5.245 -1.1627 -0.8675 -1.3920
  410MOL0     H55319   5.116   9.076   5.156 -0.2571 -0.4759  1.0882
  410MOL0     H55320   4.959   8.861   5.126 -0.9682  1.1059 -0.0452
  410MOL0     H55321   5.062   8.834   4.985 -1.4373 -1.0892  0.7059
  410MOL0     H55322   5.020   9.086   4.935 -2.2310  1.3247 -1.6274
  410MOL0     H55323   4.902   8.962   4.895 -1.6455  0.8861  0.0490
  410MOL0     H55324   4.867   9.108   5.162  1.0245 -1.6316 -0.0773
  410MOL0     H55325   4.763   8.993   5.084  0.6458 -0.6951  0.7997
  410MOL0     H55326   4.845   9.253   4.953 -1.2993  1.5702 -1.3391
  410MOL0     H55327   4.718   9.153   4.896 -0.3939  1.3555 -0.2467
  410MOL0     H55328   4.712   9.291   5.168  1.7406 -0.6393 -0.0237
  410MOL0     H55329   4.591   9.184   5.091  0.0649 -1.0788 -1.9775
  410MOL0     H55330   4.710   9.446   4.961  0.3709 -1.0432 -1.1889
  410MOL0     H55331   4.569   9.454   5.069 -1.3992 -0.0785 -0.9851
  410MOL0     H55332   5.358   8.627   4.894 -0.5538  1.0419  0.5037
  410MOL0     H55333   5.580   8.572   4.789 -3.7414  0.4216 -0.3083
  410MOL0     H55334   5.962   8.395   4.638 -3.2694  2.4017  2.0477
  410MOL0     H55335   6.173   8.384   4.522 -1.6960  0.2434  0.3224
  410MOL0     H55336   7.976   7.471   3.605 -1.6921  1.2384 -0.3176
  410MOL0     H55337   8.206   7.505   3.528  1.1062  1.2009 -0.5680
  410MOL0     H55338   8.528   7.963   3.367 -1.2412 -0.5220  1.2282
  410MOL0     H55339   8.772   7.969   3.307  1.5762 -0.6003 -0.1974
  410MOL0     H55340   8.966   7.775   3.171 -0.2627  0.7672  0.5413
  410MOL0     H55341   8.977   7.924   3.268  1.0273  0.4793  1.6739
  410MOL0     H55342   9.191   7.848   3.367 -0.3213  1.4195 -0.3473
  410MOL0     H55343   9.192   7.884   3.205  0.5022  1.6920  1.2723
  410MOL0     H55344   9.172   7.632   3.158  1.9036  0.2278 -0.9012
  410MOL0     H55345   9.178   7.609   3.333  0.3296  3.2349  2.4365
  410MOL0     H55346   9.409   7.728   3.153  0.6414 -1.4926 -0.8127
  410MOL0     H55347   9.393   7.567   3.226 -0.0091  0.1208  1.1523
  410MOL0     H55348   9.552   7.736   3.569 -0.1168  0.3342  0.4754
  410MOL0     H55349   8.825   7.605   3.548  1.4705  0.7912  1.5318
  410MOL0     H55350   8.584   7.619   3.614 -1.7581  0.8239 -0.2286
  411MOL0     O55351  10.181   2.100   7.275 -0.1843  0.2116 -1.1564
  411MOL0     C55352  10.179   2.088   7.158  0.6679 -0.3519  0.0328
  411MOL0     O55353  10.068   2.053   7.079  0.4658  0.5342 -0.0576
  411MOL0     C55354   9.950   2.077   7.136  0.7263 -0.0112  0.4084
  411MOL0     C55355   9.881   2.201   7.135 -0.8543 -0.5700  0.1550
  411MOL0     C55356   9.762   2.223   7.202  0.1625 -0.5800  0.1477
  411MOL0     C55357   9.698   2.118   7.268  0.3203 -0.2495 -0.1141
  411MOL0     O55358   9.569   2.130   7.319 -0.0214 -0.3187  0.5246
  411MOL0     C55359   9.518   2.036   7.407  0.1881 -0.4089 -0.6291
  411MOL0     C55360   9.384   2.095   7.454  0.0332 -0.4985 -0.7396
  411MOL0     C55361   9.289   2.122   7.328  0.1343  0.5130  0.2182
  411MOL0     C55362   9.290   2.260   7.274 -0.3660  0.0400 -0.2679
  411MOL0     C55363   9.211   2.262   7.143  0.2203 -0.0517  0.1186
  411MOL0     C55364   9.057   2.275   7.169  0.1385 -0.1736 -0.7696
  411MOL0     C55365   8.967   2.285   7.040 -0.1835 -0.8401 -0.4161
  411MOL0     C55366   8.814   2.280   7.056  0.5931  0.3188  0.0961
  411MOL0     N55367   8.742   2.263   6.923 -0.5439  0.0777 -0.0228
  411MOL0     C55368   8.704   2.379   6.857 -0.6268 -0.0967 -0.4012
  411MOL0     C55369   8.650   2.323   6.748  0.5358  0.6715 -0.0647
  411MOL0     C55370   8.570   2.391   6.637 -0.2870 -0.7438  0.3680
  411MOL0     C55371   8.447   2.474   6.694 -0.9632  0.3834  0.5428
  411MOL0     C55372   8.374   2.533   6.574  0.3006 -0.6801 -0.3983
  411MOL0     C55373   8.421   2.673   6.532  0.1266  0.3733 -0.0559
  411MOL0     O55374   8.371   2.698   6.399 -0.0578  0.0054  0.2879
  411MOL0     C55375   8.268   2.780   6.378  0.3561  0.5098 -0.8257
  411MOL0     C55376   8.202   2.764   6.261 -0.5136 -1.4933  0.7785
  411MOL0     C55377   8.092   2.850   6.222 -0.8161  0.0740 -0.3599
  411MOL0     C55378   8.036   2.828   6.080  0.0379  0.7360  0.0775
  411MOL0     C55379   8.057   2.963   6.303  0.7076  1.1777 -0.4520
  411MOL0     C55380   7.947   3.062   6.277 -0.5329 -0.1488 -0.0243
  411MOL0     O55381   7.970   3.187   6.323 -0.2719 -0.3911  0.7485
  411MOL0     C55382   7.869   3.293   6.313  0.4370 -0.6360 -0.0593
  411MOL0     C55383   7.726   3.265   6.310 -0.2587  0.3118  0.2254
  411MOL0     C55384   7.629   3.364   6.302  0.2236  0.2469  0.2349
  411MOL0     C55385   7.669   3.497   6.304 -0.2368  0.7422 -0.2841
  411MOL0     O55386   7.572   3.589   6.295  0.7525 -0.1832  0.2744
  411MOL0     C55387   7.602   3.713   6.235 -0.0270  0.0370 -0.0849
  411MOL0     C55388   7.470   3.797   6.216 -1.3235  1.2209 -1.2461
  411MOL0     C55389   7.387   3.738   6.106  0.6966 -0.1006  0.0442
  411MOL0     C55390   7.238   3.770   6.147  0.3802  0.7420  0.7724
  411MOL0     C55391   7.144   3.675   6.065  0.3603  0.1872  0.3203
  411MOL0     C55392   7.148   3.529   6.109 -0.7673  0.3724  0.4908
  411MOL0     C55393   7.042   3.448   6.031  0.2032 -0.8273 -0.3134
  411MOL0     C55394   6.900   3.459   6.087  0.4716  0.6383  0.1481
  411MOL0    Cl55395   6.796   3.343   5.987 -0.5362  0.0215 -0.2714
  411MOL0     C55396   7.811   3.526   6.302  0.2756  0.0169  0.6488
  411MOL0     C55397   7.907   3.426   6.312  0.3378 -0.1634  0.1263
  411MOL0     O55398   7.855   3.030   6.204 -0.3227  0.3493 -0.4468
  411MOL0     C55399   8.127   2.972   6.423 -1.2200 -0.5179  0.6675
  411MOL0     C55400   8.223   2.881   6.466 -0.0471  0.3823 -0.7638
  411MOL0     N55401   8.661   2.187   6.755  0.6933  0.3187  0.5773
  411MOL0     N55402   8.723   2.148   6.856 -0.9722  0.4325 -0.4424
  411MOL0     C55403   9.767   1.992   7.277 -0.0983 -0.5173 -0.2631
  411MOL0     C55404   9.897   1.969   7.210 -0.0260 -0.3807 -0.8538
  411MOL0     C55405  10.312   2.082   7.087  0.6382  0.1808 -0.1744
  411MOL0     C55406  10.435   2.098   7.150  0.3903 -1.2027  0.7204
  411MOL0     C55407  10.557   2.094   7.074  0.9684  0.1530  0.3839
  411MOL0     C55408  10.554   2.077   6.938  0.1813  0.1666  0.4590
  411MOL0     O55409  10.674   2.079   6.863  0.6628 -0.4470 -0.3514
  411MOL0     C55410  10.743   1.954   6.873  1.0157 -0.7180 -0.9600
  411MOL0     C55411  10.883   1.987   6.928  0.5105  1.4027  0.0504
  411MOL0     C55412  10.982   1.869   6.918 -0.7837 -0.0560 -0.0334
  411MOL0     C55413  11.131   1.895   6.922 -0.9470 -0.6975  0.7307
  411MOL0     C55414  11.179   1.993   6.827 -0.3731 -0.9887  0.1549
  411MOL0     C55415  11.213   2.061   6.735  0.1889 -0.6630 -0.4412
  411MOL0     C55416  10.424   2.069   6.876 -1.3071 -0.4071  0.7615
  411MOL0     C55417  10.309   2.064   6.949 -0.2893 -0.4081 -0.2480
  411MOL0     H55418   9.935   2.276   7.078  1.6311 -1.3657  1.3071
  411MOL0     H55419   9.707   2.316   7.206  1.6755  0.3223  0.7987
  411MOL0     H55420   9.506   1.940   7.356 -2.1299  0.2543 -1.4612
  411MOL0     H55421   9.576   2.021   7.499  0.7485 -0.9462 -1.0545
  411MOL0     H55422   9.342   2.019   7.520  1.3477  1.5330  2.6810
  411MOL0     H55423   9.404   2.184   7.514 -0.4224 -1.5546  1.0352
  411MOL0     H55424   9.319   2.047   7.254 -2.1175 -2.0753  1.7563
  411MOL0     H55425   9.187   2.095   7.353  0.0881 -0.6495 -1.0885
  411MOL0     H55426   9.245   2.329   7.346  1.4475  1.3338 -0.3147
  411MOL0     H55427   9.393   2.285   7.248 -0.7830  2.2858  0.0140
  411MOL0     H55428   9.239   2.349   7.083 -1.2162  0.3045 -0.0909
  411MOL0     H55429   9.243   2.173   7.089 -1.7784 -1.1935  0.7060
  411MOL0     H55430   9.026   2.179   7.213  0.6748 -0.4740 -1.0329
  411MOL0     H55431   9.033   2.358   7.235 -0.3182  0.3238 -1.5411
  411MOL0     H55432   8.980   2.386   7.002 -2.2170 -0.0691  0.7573
  411MOL0     H55433   8.996   2.210   6.966  0.7438 -0.8330 -0.0630
  411MOL0     H55434   8.778   2.361   7.119  2.1436  1.4308 -0.3850
  411MOL0     H55435   8.787   2.191   7.115 -1.9479  0.2775 -1.0067
  411MOL0     H55436   8.698   2.480   6.897 -0.1622 -0.1465 -0.2000
  411MOL0     H55437   8.632   2.446   6.566 -1.6726 -1.6882 -1.6512
  411MOL0     H55438   8.523   2.313   6.577 -1.3499  0.4332 -0.3772
  411MOL0     H55439   8.475   2.553   6.764 -0.2122  1.2356 -0.6753
  411MOL0     H55440   8.399   2.396   6.754  3.3936 -1.4455  2.0418
  411MOL0     H55441   8.266   2.544   6.591  0.0839  1.2185 -2.4485
  411MOL0     H55442   8.385   2.464   6.490  4.9432  1.6878 -2.0609
  411MOL0     H55443   8.530   2.681   6.532  0.4334 -2.4425 -0.9847
  411MOL0     H55444   8.390   2.749   6.604 -1.6826  0.1784 -0.5747
  411MOL0     H55445   8.231   2.693   6.185  0.4518  0.5924 -0.9111
  411MOL0     H55446   8.091   2.757   6.016 -1.2437  0.8025 -1.1623
  411MOL0     H55447   7.943   2.773   6.095  0.6462 -0.2781  0.2563
  411MOL0     H55448   8.019   2.919   6.022  0.7840  1.8495  1.5374
  411MOL0     H55449   7.682   3.166   6.312 -0.1552  0.2531 -0.3111
  411MOL0     H55450   7.523   3.342   6.295  0.4703 -1.9653  2.2248
  411MOL0     H55451   7.659   3.775   6.305 -0.7361  0.3080  0.2614
  411MOL0     H55452   7.652   3.693   6.140 -0.0138 -0.4614  0.0210
  411MOL0     H55453   7.425   3.799   6.315  1.0289 -0.3533 -0.0487
  411MOL0     H55454   7.500   3.899   6.192  2.8296  0.4771  0.0198
  411MOL0     H55455   7.411   3.632   6.090 -1.2503 -0.3117 -1.8958
  411MOL0     H55456   7.408   3.793   6.015 -0.2296 -1.0188 -0.7533
  411MOL0     H55457   7.206   3.743   6.249 -2.7547 -1.9261 -0.7354
  411MOL0     H55458   7.210   3.872   6.121  0.4584  0.6532  0.3336
  411MOL0     H55459   7.157   3.682   5.956 -1.7894 -1.4413 -0.1240
  411MOL0     H55460   7.041   3.711   6.079 -0.8426 -2.1646 -1.6066
  411MOL0     H55461   7.246   3.490   6.078 -1.2741 -1.3345  0.9569
  411MOL0     H55462   7.149   3.526   6.219  0.3466  2.1391  0.5731
  411MOL0     H55463   7.073   3.343   6.031  1.1501 -0.5682  0.4673
  411MOL0     H55464   7.041   3.478   5.926 -4.1477  2.2149  0.3535
  411MOL0     H55465   6.842   3.551   6.079 -1.7513 -0.7091  0.0973
  411MOL0     H55466   6.884   3.421   6.188 -1.0781 -3.6386 -1.4916
  411MOL0     H55467   7.850   3.627   6.312  2.8726 -0.7165 -1.0163
  411MOL0     H55468   8.009   3.464   6.313 -0.3093  1.7077 -0.8866
  411MOL0     H55469   8.106   3.055   6.490 -0.8343 -0.0964  0.2736
  411MOL0     H55470   8.264   2.901   6.565 -0.5793  1.2546 -0.7031
  411MOL0     H55471   9.713   1.914   7.329  0.8262 -0.8948  0.1385
  411MOL0     H55472   9.945   1.872   7.221  1.3438  0.3819  0.2824
  411MOL0     H55473  10.432   2.116   7.257 -0.7756  1.9055  0.2660
  411MOL0     H55474  10.654   2.106   7.122  0.7928  0.5785  0.6418
  411MOL0     H55475  10.690   1.875   6.927  0.2448  1.1407  1.1449
  411MOL0     H55476  10.765   1.919   6.772  1.7976 -1.5747 -0.5059
  411MOL0     H55477  10.881   2.020   7.032 -1.6105 -0.3348  0.6280
  411MOL0     H55478  10.930   2.069   6.873  2.0083  0.2731 -0.4182
  411MOL0     H55479  10.965   1.813   6.825 -1.8001 -0.2780  0.2771
  411MOL0     H55480  10.955   1.799   6.998 -2.0366 -0.4691 -0.7809
  411MOL0     H55481  11.178   1.801   6.895  0.8205  0.5609 -0.8691
  411MOL0     H55482  11.170   1.933   7.017  1.0280 -1.8700  0.4317
  411MOL0     H55483  11.265   2.120   6.663  1.0145 -0.4298  0.3422
  411MOL0     H55484  10.415   2.048   6.770 -2.1577 -1.9959  1.1201
  411MOL0     H55485  10.216   2.062   6.894 -2.0745  2.2834  2.3026
  412MOL0     O55486   1.677  11.104   6.220 -0.1739 -0.1062  0.3230
  412MOL0     C55487   1.761  11.128   6.311  0.2520  0.0689  0.0287
  412MOL0     O55488   1.746  11.125   6.450 -0.2996 -0.9299  0.3473
  412MOL0     C55489   1.625  11.100   6.507  0.0216 -0.8271  0.4674
  412MOL0     C55490   1.519  11.017   6.450  0.3361 -0.5671  0.0102
  412MOL0     C55491   1.403  10.985   6.520 -0.3357  0.3836  0.0888
  412MOL0     C55492   1.384  11.055   6.643 -0.4371  0.0180 -0.1878
  412MOL0     O55493   1.268  11.045   6.724  0.2671  0.4045 -0.4840
  412MOL0     C55494   1.163  10.948   6.697 -0.3156  0.5261  0.1798
  412MOL0     C55495   1.086  10.913   6.820 -0.1263 -0.5611 -0.6452
  412MOL0     C55496   0.960  10.835   6.797  0.2547 -0.3502  0.0402
  412MOL0     C55497   0.856  10.923   6.723  0.3855  0.2940  0.0325
  412MOL0     C55498   0.713  10.864   6.724 -0.4390 -0.0913 -0.8288
  412MOL0     C55499   0.621  10.953   6.638  0.2576 -0.2879  0.0070
  412MOL0     C55500   0.474  10.916   6.661 -0.3691 -0.2801 -0.0735
  412MOL0     C55501   0.404  10.984   6.770 -0.4565 -0.4202 -0.3766
  412MOL0     N55502   0.259  10.961   6.786  0.1795 -0.0489 -0.4095
  412MOL0     C55503   0.161  11.026   6.719  0.0897 -0.2007 -0.1747
  412MOL0     C55504   0.043  10.995   6.779  0.0834 -0.1532  0.5901
  412MOL0     C55505  -0.089  11.046   6.727 -0.5555  0.3497  0.1750
  412MOL0     C55506  -0.217  10.998   6.788  0.1536 -0.0714 -0.1852
  412MOL0     C55507  -0.218  11.047   6.935  0.6239  1.0033 -0.1947
  412MOL0     C55508  -0.341  11.009   7.011 -0.1718 -0.5975 -0.2476
  412MOL0     O55509  -0.441  11.102   6.981  0.5156  0.4839 -0.2462
  412MOL0     C55510  -0.570  11.071   7.015 -0.3304  0.6941  0.0602
  412MOL0     C55511  -0.661  11.125   6.937 -0.4091  0.0169 -0.0370
  412MOL0     C55512  -0.796  11.119   6.965  0.7460  0.0819  0.2038
  412MOL0     C55513  -0.883  11.202   6.873 -0.3802 -0.2812  0.3139
  412MOL0     C55514  -0.845  11.025   7.063 -1.1702  1.2938  0.7136
  412MOL0     C55515  -0.987  10.998   7.085  0.2177 -0.4487 -0.0840
  412MOL0     O55516  -1.014  10.944   7.207  0.3753 -0.6745  0.1955
  412MOL0     C55517  -1.137  10.959   7.267 -0.6175 -0.8833 -0.4584
  412MOL0     C55518  -1.167  10.860   7.361  0.0135 -0.0365  0.5334
  412MOL0     C55519  -1.280  10.882   7.441 -0.2247  1.1235  0.0568
  412MOL0     C55520  -1.373  10.978   7.414  0.4501 -1.1372 -0.7164
  412MOL0     O55521  -1.475  10.993   7.513  0.6551 -0.0856  0.1362
  412MOL0     C55522  -1.560  11.107   7.491 -0.1569  0.1448 -0.4149
  412MOL0     C55523  -1.662  11.124   7.601 -0.9473 -0.0533 -0.1584
  412MOL0     C55524  -1.754  11.242   7.567 -0.2815 -0.1339  0.6356
  412MOL0     C55525  -1.852  11.276   7.686 -0.6043 -0.6066  0.2100
  412MOL0     C55526  -1.960  11.381   7.644 -0.1410  0.5039 -0.7607
  412MOL0     C55527  -2.064  11.385   7.758 -0.5158  0.7639  0.0343
  412MOL0     C55528  -2.176  11.479   7.721  0.2835 -1.4047  1.0197
  412MOL0     C55529  -2.286  11.454   7.816  1.0654  0.9317 -0.7090
  412MOL0    Cl55530  -2.366  11.287   7.788  0.0876  0.0009  0.1133
  412MOL0     C55531  -1.344  11.072   7.315  1.3163  0.6438  0.1058
  412MOL0     C55532  -1.224  11.065   7.250 -0.3706  0.3516 -0.6156
  412MOL0     O55533  -1.074  11.026   7.004  0.2729 -0.2366  0.5386
  412MOL0     C55534  -0.745  10.953   7.133  0.7542 -0.5245 -0.9661
  412MOL0     C55535  -0.612  10.983   7.114 -0.1237  0.1316  0.4539
  412MOL0     N55536   0.076  10.907   6.879 -0.6191  0.3042 -0.4113
  412MOL0     N55537   0.203  10.880   6.879  0.3422  0.8220  1.1802
  412MOL0     C55538   1.484  11.140   6.698  0.1208  0.2182 -0.2610
  412MOL0     C55539   1.600  11.163   6.628 -0.1686 -0.5067 -0.0937
  412MOL0     C55540   1.899  11.150   6.268 -0.8712 -0.1154 -0.0175
  412MOL0     C55541   2.005  11.164   6.357  1.3019 -0.2643 -0.2113
  412MOL0     C55542   2.136  11.171   6.315  0.2837 -0.6700 -0.1460
  412MOL0     C55543   2.164  11.152   6.177  0.1025 -0.2528  0.2779
  412MOL0     O55544   2.294  11.153   6.127  0.2761  0.2156  0.8531
  412MOL0     C55545   2.406  11.186   6.207 -0.7455  0.5087  0.7464
  412MOL0     C55546   2.417  11.337   6.192 -0.2015 -0.2940  0.7269
  412MOL0     C55547   2.508  11.412   6.288 -0.0536  0.3315  0.6925
  412MOL0     C55548   2.576  11.535   6.226 -0.0332  0.4883  0.0399
  412MOL0     C55549   2.484  11.645   6.205 -0.5306  0.0515  0.1184
  412MOL0     C55550   2.426  11.737   6.176  0.6350 -0.5121  0.2852
  412MOL0     C55551   2.061  11.137   6.089  0.2494  0.7074  0.0401
  412MOL0     C55552   1.931  11.140   6.134  1.2227 -0.5102  0.1603
  412MOL0     H55553   1.527  10.957   6.360  0.0856 -0.2329 -0.2354
  412MOL0     H55554   1.333  10.907   6.493  0.5261 -1.3418  2.4903
  412MOL0     H55555   1.095  10.989   6.622  1.3667  2.0432 -0.5683
  412MOL0     H55556   1.197  10.855   6.651 -2.1408  0.0756 -0.3592
  412MOL0     H55557   1.150  10.854   6.886 -2.5872 -0.5610  1.9834
  412MOL0     H55558   1.058  11.010   6.862 -1.7579 -0.6564 -1.4385
  412MOL0     H55559   0.977  10.744   6.738 -0.8115  0.7336 -2.0524
  412MOL0     H55560   0.939  10.798   6.898  0.7583  1.3679  0.8065
  412MOL0     H55561   0.842  11.019   6.774 -4.0735  1.3565 -2.6427
  412MOL0     H55562   0.887  10.959   6.625  2.6687  3.9906  1.8835
  412MOL0     H55563   0.721  10.765   6.678  0.1835 -0.9597  1.0404
  412MOL0     H55564   0.681  10.849   6.828 -0.3957 -1.6341 -1.0108
  412MOL0     H55565   0.638  11.052   6.680 -1.2418 -0.1699  0.3973
  412MOL0     H55566   0.645  10.946   6.531 -1.1520  0.7891 -0.4059
  412MOL0     H55567   0.417  10.922   6.568  0.0774 -0.0956 -0.3437
  412MOL0     H55568   0.481  10.809   6.687  4.1425 -0.4841 -1.2855
  412MOL0     H55569   0.425  11.090   6.757 -0.9895 -0.6061 -3.3055
  412MOL0     H55570   0.441  10.964   6.871  1.6149 -0.1958 -1.0558
  412MOL0     H55571   0.158  11.105   6.645 -0.5572  2.2570  2.2712
  412MOL0     H55572  -0.094  11.154   6.712 -4.0873 -0.1785 -4.7649
  412MOL0     H55573  -0.093  11.011   6.624  0.5005 -1.9666  0.8389
  412MOL0     H55574  -0.228  10.889   6.793 -1.5754  0.1151  1.5520
  412MOL0     H55575  -0.302  11.041   6.734 -0.8802  0.3389  1.6849
  412MOL0     H55576  -0.193  11.153   6.948 -2.2647  1.6230  0.8776
  412MOL0     H55577  -0.138  10.993   6.987 -2.4707 -2.1470  1.7184
  412MOL0     H55578  -0.317  11.021   7.117  1.4053 -2.1251 -0.3804
  412MOL0     H55579  -0.366  10.903   6.999  1.4831 -1.0820  0.2261
  412MOL0     H55580  -0.618  11.187   6.860  0.7965 -0.0845  0.5418
  412MOL0     H55581  -0.840  11.301   6.858 -0.1452 -0.4526 -0.1760
  412MOL0     H55582  -0.899  11.147   6.779 -0.6422 -1.8403  1.2313
  412MOL0     H55583  -0.982  11.224   6.914 -0.8066  0.9796 -1.2923
  412MOL0     H55584  -1.105  10.777   7.391  0.2570  0.1328  0.5072
  412MOL0     H55585  -1.305  10.816   7.523  2.0204 -0.0545 -0.1335
  412MOL0     H55586  -1.509  11.199   7.519 -1.5020 -0.4506  5.4249
  412MOL0     H55587  -1.607  11.111   7.392 -1.4971 -3.4880 -0.1019
  412MOL0     H55588  -1.731  11.039   7.592  0.2743 -1.2511  1.2299
  412MOL0     H55589  -1.616  11.133   7.700 -2.1196 -3.6319  0.8913
  412MOL0     H55590  -1.814  11.219   7.479 -0.5053  1.9182  0.2119
  412MOL0     H55591  -1.694  11.331   7.545  1.8710 -0.8247  3.1808
  412MOL0     H55592  -1.901  11.188   7.729 -0.7118  0.6184  2.8059
  412MOL0     H55593  -1.798  11.310   7.775 -0.0606 -1.1209  0.0810
  412MOL0     H55594  -2.006  11.337   7.555 -0.8738 -2.4334  0.9600
  412MOL0     H55595  -1.924  11.484   7.635 -2.2728  1.1764 -2.4034
  412MOL0     H55596  -2.107  11.285   7.772 -1.9455  1.4215  0.5387
  412MOL0     H55597  -2.000  11.405   7.845  1.7978  0.8177 -1.5930
  412MOL0     H55598  -2.228  11.457   7.628 -0.1726 -0.5484  1.0652
  412MOL0     H55599  -2.142  11.583   7.722 -3.4506 -0.0444  1.2776
  412MOL0     H55600  -2.357  11.535   7.799  1.1866  0.8143 -1.8213
  412MOL0     H55601  -2.239  11.465   7.914 -1.0808  1.2291  0.3357
  412MOL0     H55602  -1.398  11.159   7.280  1.4107  0.2678 -1.0306
  412MOL0     H55603  -1.194  11.138   7.175 -1.1117 -1.3063 -2.6324
  412MOL0     H55604  -0.772  10.879   7.208 -1.8834  1.6420  0.4374
  412MOL0     H55605  -0.535  10.933   7.172  0.1393 -0.1360 -0.1147
  412MOL0     H55606   1.462  11.195   6.789 -1.4248  0.9201 -1.0043
  412MOL0     H55607   1.679  11.235   6.645 -1.0781  0.7923 -1.2487
  412MOL0     H55608   1.996  11.159   6.465  1.2850 -4.4980 -0.2419
  412MOL0     H55609   2.213  11.200   6.385 -0.3959  2.6397 -0.6179
  412MOL0     H55610   2.402  11.144   6.308 -0.1641 -0.4545  0.3884
  412MOL0     H55611   2.498  11.140   6.170 -0.7276 -0.2993  1.7376
  412MOL0     H55612   2.318  11.382   6.205 -0.8027 -0.4767 -2.5027
  412MOL0     H55613   2.446  11.350   6.087  1.4058 -0.0235  1.1736
  412MOL0     H55614   2.587  11.343   6.320  0.3014  0.4012 -0.0175
  412MOL0     H55615   2.453  11.438   6.378 -2.8682 -0.2341 -0.7526
  412MOL0     H55616   2.629  11.512   6.132  1.8819  0.6549  1.0215
  412MOL0     H55617   2.655  11.552   6.300 -0.6669 -1.0071  1.0847
  412MOL0     H55618   2.355  11.814   6.156 -1.2855 -2.3986 -0.5317
  412MOL0     H55619   2.082  11.130   5.983  1.9899  1.5809  0.2973
  412MOL0     H55620   1.849  11.121   6.066 -0.3269  1.5105  1.3435
  413MOL0     O55621  10.461  10.504  11.111 -0.7017  0.6749 -0.0739
  413MOL0     C55622  10.528  10.435  11.032  0.2775 -0.2324 -0.5327
  413MOL0     O55623  10.503  10.300  10.997  0.1603  0.2673 -0.6024
  413MOL0     C55624  10.386  10.241  11.039  0.1486  0.2893  0.4416
  413MOL0     C55625  10.257  10.307  11.036 -0.0842 -0.3254 -0.0750
  413MOL0     C55626  10.143  10.234  11.051  0.0502  0.0909 -0.7324
  413MOL0     C55627  10.143  10.093  11.090 -0.0276 -0.6189 -0.0682
  413MOL0     O55628  10.022  10.032  11.114  0.7136 -0.2524 -0.0776
  413MOL0     C55629  10.006   9.887  11.110 -0.9987  0.1199 -0.6141
  413MOL0     C55630   9.864   9.850  11.124  0.4622  0.0306 -0.2221
  413MOL0     C55631   9.842   9.715  11.061 -0.5841  0.7717  1.0603
  413MOL0     C55632   9.719   9.634  11.104  0.5603 -0.1254 -0.1986
  413MOL0     C55633   9.579   9.706  11.120 -0.9255 -0.4931  0.5005
  413MOL0     C55634   9.526   9.762  10.987  0.0867  0.3067 -0.5011
  413MOL0     C55635   9.371   9.788  10.987 -0.2289 -0.4842  0.9363
  413MOL0     C55636   9.308   9.800  11.120  0.5010 -0.0218 -0.6816
  413MOL0     N55637   9.256   9.675  11.171 -0.7850  0.7979 -0.9380
  413MOL0     C55638   9.157   9.586  11.126 -0.1441 -0.5863  0.3033
  413MOL0     C55639   9.130   9.502  11.229  0.2161 -0.3399 -0.0036
  413MOL0     C55640   9.027   9.395  11.221  0.0209  0.5822 -0.2350
  413MOL0     C55641   8.976   9.344  11.356 -0.6403 -0.8965  0.1610
  413MOL0     C55642   8.890   9.215  11.345  0.5243  0.5478 -0.0290
  413MOL0     C55643   8.817   9.164  11.475 -0.1461  0.1594  0.1189
  413MOL0     O55644   8.730   9.051  11.439  0.1625 -0.5764  0.0543
  413MOL0     C55645   8.625   9.026  11.524 -0.3504 -0.2938 -0.0969
  413MOL0     C55646   8.532   8.931  11.484  0.5956  0.4381  0.5880
  413MOL0     C55647   8.417   8.907  11.563 -0.2161  0.1496 -0.4659
  413MOL0     C55648   8.340   8.782  11.529  0.6233  0.0746 -0.5978
  413MOL0     C55649   8.389   8.988  11.677 -0.6499 -0.5728 -0.8632
  413MOL0     C55650   8.272   8.983  11.762  0.6434  1.1500  0.7195
  413MOL0     O55651   8.242   9.096  11.835 -0.2120  0.3044 -0.2217
  413MOL0     C55652   8.124   9.075  11.908 -0.5334 -0.3309 -0.2212
  413MOL0     C55653   8.130   9.045  12.049 -0.4754  0.4240  0.5056
  413MOL0     C55654   8.013   9.056  12.120  0.2434  0.7480 -0.1197
  413MOL0     C55655   7.895   9.114  12.069  0.5013  0.3420 -1.0752
  413MOL0     O55656   7.789   9.106  12.150  0.9297 -0.1919  0.5826
  413MOL0     C55657   7.673   9.188  12.121  0.2985 -0.6662  0.1599
  413MOL0     C55658   7.563   9.179  12.222 -1.1388  1.2173 -0.5154
  413MOL0     C55659   7.507   9.036  12.218 -0.8584 -0.1878 -0.0645
  413MOL0     C55660   7.371   9.035  12.285 -0.3762  0.2155  0.4149
  413MOL0     C55661   7.264   9.084  12.180 -0.5719 -0.4965  0.5171
  413MOL0     C55662   7.132   9.137  12.236  0.5969 -0.8547 -0.0475
  413MOL0     C55663   7.024   9.140  12.125 -0.2542  0.8526  0.3917
  413MOL0     C55664   6.889   9.200  12.171  0.5720 -0.2158 -0.9890
  413MOL0    Cl55665   6.917   9.369  12.236  0.4592 -0.1970  0.1555
  413MOL0     C55666   7.891   9.149  11.938 -0.3386  0.1078  0.0707
  413MOL0     C55667   8.003   9.131  11.862 -0.7712  0.0474  0.6689
  413MOL0     O55668   8.204   8.878  11.753 -0.0412  0.5084 -0.1498
  413MOL0     C55669   8.490   9.082  11.720 -0.4494 -0.4095  0.6610
  413MOL0     C55670   8.606   9.094  11.640 -0.9751  1.0207  0.0553
  413MOL0     N55671   9.221   9.531  11.331 -0.2871  0.2843 -0.1838
  413MOL0     N55672   9.297   9.626  11.298 -0.0502 -0.3077  0.5779
  413MOL0     C55673  10.269  10.027  11.100  0.1718 -0.3833  0.9896
  413MOL0     C55674  10.388  10.103  11.056 -1.0106  0.2766 -0.0524
  413MOL0     C55675  10.650  10.493  10.972  0.6569 -0.0481 -0.5342
  413MOL0     C55676  10.720  10.416  10.882 -0.4999 -0.4421  1.1823
  413MOL0     C55677  10.833  10.471  10.822  0.0190 -0.7327  0.2419
  413MOL0     C55678  10.885  10.596  10.857  0.4656 -0.4381  0.2915
  413MOL0     O55679  10.991  10.647  10.789  0.0863 -0.3222 -0.4583
  413MOL0     C55680  11.071  10.732  10.871  0.2570 -0.7008 -0.5676
  413MOL0     C55681  11.185  10.794  10.790  0.6137 -0.0852 -0.4557
  413MOL0     C55682  11.275  10.890  10.887  0.5743  0.3268 -0.1317
  413MOL0     C55683  11.252  11.042  10.847  0.2818 -0.0319 -0.3453
  413MOL0     C55684  11.305  11.081  10.716  0.0018 -0.2814 -0.8918
  413MOL0     C55685  11.359  11.100  10.609  0.2163 -1.2061  0.0712
  413MOL0     C55686  10.816  10.669  10.956  0.0484 -0.1392 -0.1687
  413MOL0     C55687  10.697  10.616  11.012  0.0048 -0.1129 -0.1544
  413MOL0     H55688  10.243  10.413  11.018 -2.1274 -0.8433 -2.0530
  413MOL0     H55689  10.046  10.283  11.048 -0.1245  0.0269  1.7168
  413MOL0     H55690  10.042   9.839  11.018 -2.2104  0.1946 -1.1557
  413MOL0     H55691  10.061   9.855  11.198  1.1780  1.9514 -1.2005
  413MOL0     H55692   9.840   9.835  11.230  1.3837 -0.8776 -0.1306
  413MOL0     H55693   9.782   9.916  11.094  0.8157  0.8984  0.6806
  413MOL0     H55694   9.832   9.721  10.952  1.1530 -0.7197  0.7758
  413MOL0     H55695   9.924   9.648  11.086 -0.2729  0.4836 -0.5980
  413MOL0     H55696   9.721   9.553  11.030  1.3686  0.7172 -1.1313
  413MOL0     H55697   9.754   9.589  11.197  1.2437 -0.6777 -0.7122
  413MOL0     H55698   9.511   9.628  11.158 -1.5585 -0.5749 -0.7673
  413MOL0     H55699   9.589   9.781  11.199 -3.4421  1.6281 -1.0376
  413MOL0     H55700   9.568   9.861  10.965  2.8267 -0.9587 -1.4417
  413MOL0     H55701   9.547   9.687  10.910  0.0111  1.4249 -1.6344
  413MOL0     H55702   9.350   9.875  10.925  1.6936 -1.0163 -0.5512
  413MOL0     H55703   9.338   9.696  10.938  0.2565  0.2845 -0.8890
  413MOL0     H55704   9.214   9.857  11.121 -0.3339 -1.1318  3.3921
  413MOL0     H55705   9.371   9.851  11.194 -1.2524 -2.6223  2.8806
  413MOL0     H55706   9.105   9.594  11.031  0.3973  0.1718  0.0603
  413MOL0     H55707   8.940   9.432  11.166 -0.4449  0.9086  0.6910
  413MOL0     H55708   9.059   9.310  11.160 -0.0296 -1.2361  2.1343
  413MOL0     H55709   8.900   9.420  11.378 -2.3523 -2.7132  0.8470
  413MOL0     H55710   9.053   9.336  11.433 -0.8184  2.1607  0.7970
  413MOL0     H55711   8.962   9.134  11.329  0.2873 -0.0662  1.8311
  413MOL0     H55712   8.821   9.225  11.260 -1.4229 -2.2503  1.0817
  413MOL0     H55713   8.766   9.254  11.510 -0.8660  0.6241 -1.9814
  413MOL0     H55714   8.895   9.127  11.541  2.1389  3.8069 -0.2583
  413MOL0     H55715   8.563   8.868  11.402  3.9590  1.2546  1.0961
  413MOL0     H55716   8.233   8.796  11.510  0.3741  0.6549  1.0659
  413MOL0     H55717   8.376   8.733  11.439 -3.3448 -2.3898 -1.0879
  413MOL0     H55718   8.345   8.698  11.599 -0.9558 -0.6376 -1.2951
  413MOL0     H55719   8.217   9.002  12.099 -1.3572 -2.0271  0.0828
  413MOL0     H55720   8.013   9.009  12.217 -3.9584 -2.8360 -1.5610
  413MOL0     H55721   7.690   9.295  12.106  0.6519 -0.6824  0.4378
  413MOL0     H55722   7.626   9.152  12.029 -1.9349 -1.2668  1.4645
  413MOL0     H55723   7.617   9.207  12.312 -1.6397  1.0851 -0.1709
  413MOL0     H55724   7.489   9.257  12.200 -2.5077  1.1897  3.2417
  413MOL0     H55725   7.579   8.978  12.276 -0.5711 -0.8294 -1.0341
  413MOL0     H55726   7.510   8.993  12.118  0.0715  0.7692 -0.4613
  413MOL0     H55727   7.347   8.940  12.332 -2.1840  1.3290  1.9175
  413MOL0     H55728   7.373   9.105  12.370 -0.2675  2.3233 -1.2194
  413MOL0     H55729   7.256   9.004  12.106  0.2682 -0.3454  0.2501
  413MOL0     H55730   7.300   9.165  12.116 -3.7721 -0.6965 -1.7687
  413MOL0     H55731   7.112   9.057  12.307  0.5427 -1.0577 -0.2885
  413MOL0     H55732   7.146   9.238  12.275 -2.5122 -0.0537 -0.7286
  413MOL0     H55733   6.995   9.037  12.099 -0.1218  1.5333 -2.8990
  413MOL0     H55734   7.064   9.185  12.034  0.1810  0.1275  0.2130
  413MOL0     H55735   6.846   9.142  12.252  0.0803  1.2716 -0.1362
  413MOL0     H55736   6.818   9.196  12.087 -0.4138 -0.5284 -0.1516
  413MOL0     H55737   7.802   9.196  11.895 -0.5289  0.4005  0.7800
  413MOL0     H55738   8.002   9.162  11.758  0.2145  0.6821  0.8374
  413MOL0     H55739   8.482   9.134  11.814 -2.8924 -2.7115  1.8703
  413MOL0     H55740   8.676   9.165  11.682 -0.0222  0.9462 -1.3404
  413MOL0     H55741  10.291   9.924  11.127  3.1318 -0.6003 -1.7143
  413MOL0     H55742  10.484  10.054  11.056 -1.4370 -0.5757  0.5732
  413MOL0     H55743  10.700  10.314  10.852  0.2382 -0.1993 -0.2264
  413MOL0     H55744  10.885  10.419  10.743  1.4901 -0.7240  1.1732
  413MOL0     H55745  11.011  10.814  10.912 -0.0089 -1.6952  1.1489
  413MOL0     H55746  11.123  10.680  10.952 -2.2320 -1.6101  0.5451
  413MOL0     H55747  11.148  10.859  10.710  4.0200  2.2976 -0.3020
  413MOL0     H55748  11.247  10.716  10.745 -0.4981 -1.6322  0.6054
  413MOL0     H55749  11.380  10.863  10.873  0.1902 -2.1699  1.3501
  413MOL0     H55750  11.247  10.874  10.991  0.3966 -3.1562 -0.5816
  413MOL0     H55751  11.300  11.105  10.922 -2.3471  0.9755  0.6303
  413MOL0     H55752  11.149  11.079  10.856  0.8332  1.4891 -0.1732
  413MOL0     H55753  11.384  11.145  10.515 -4.4048 -0.6143 -1.1411
  413MOL0     H55754  10.832  10.773  10.985 -1.0613  0.7679 -2.5694
  413MOL0     H55755  10.653  10.676  11.090 -1.7965 -0.9439 -0.4907
  414MOL0     O55756   4.684   0.987   4.492  0.0364 -0.0728 -0.0197
  414MOL0     C55757   4.662   0.868   4.495 -0.6986  0.1109  0.0318
  414MOL0     O55758   4.539   0.810   4.514 -0.0145  0.0686  0.2391
  414MOL0     C55759   4.434   0.895   4.543 -0.5856 -0.5721 -0.6518
  414MOL0     C55760   4.360   0.880   4.663  0.3946  0.0590  0.4723
  414MOL0     C55761   4.255   0.974   4.686  0.8664  0.5912  0.1574
  414MOL0     C55762   4.215   1.069   4.597 -0.2170  0.0501  0.7688
  414MOL0     O55763   4.123   1.168   4.632 -0.0556 -0.0132 -0.1949
  414MOL0     C55764   3.998   1.128   4.575  0.1546  0.5023  0.0981
  414MOL0     C55765   3.891   1.214   4.634  0.2593  0.0262  0.3709
  414MOL0     C55766   3.757   1.164   4.587 -0.8601  0.4928  0.3686
  414MOL0     C55767   3.642   1.252   4.637  0.3104 -0.0682  0.4235
  414MOL0     C55768   3.503   1.201   4.607  0.2224 -0.2984  0.9895
  414MOL0     C55769   3.468   1.216   4.455  0.4393 -0.3301 -0.4707
  414MOL0     C55770   3.314   1.226   4.426 -0.2987 -0.0488  0.0004
  414MOL0     C55771   3.288   1.228   4.271 -0.8206 -0.6965 -0.0629
  414MOL0     N55772   3.154   1.267   4.237  0.0220  0.2374  0.4248
  414MOL0     C55773   3.068   1.174   4.183  0.6904  0.1872  0.1872
  414MOL0     C55774   2.978   1.253   4.122  0.0409  0.1972  0.8848
  414MOL0     C55775   2.886   1.215   4.009 -0.3833 -1.0531  0.3188
  414MOL0     C55776   2.894   1.064   3.980  0.4919  0.0194  0.1628
  414MOL0     C55777   2.806   0.994   3.882 -1.3754  0.6982 -0.1444
  414MOL0     C55778   2.653   1.006   3.907 -0.7860 -0.1266  0.2277
  414MOL0     O55779   2.606   0.931   4.020  0.1550 -0.0294  0.9820
  414MOL0     C55780   2.502   0.837   3.994 -0.2135 -0.5257  1.7526
  414MOL0     C55781   2.499   0.722   4.074 -0.5268  0.5596 -1.2108
  414MOL0     C55782   2.406   0.621   4.063 -0.3335  0.2210  0.5063
  414MOL0     C55783   2.413   0.510   4.166 -1.2789  0.7890 -0.9221
  414MOL0     C55784   2.312   0.629   3.953  0.4928 -1.0335  0.0719
  414MOL0     C55785   2.225   0.517   3.918  0.5852 -0.4562 -0.8970
  414MOL0     O55786   2.106   0.557   3.864 -0.2168 -0.4414  0.1379
  414MOL0     C55787   2.003   0.463   3.846 -1.4105  0.2414 -0.3307
  414MOL0     C55788   1.940   0.413   3.957 -0.3544  0.5123  0.3668
  414MOL0     C55789   1.847   0.301   3.947  0.0641 -0.8235 -0.5004
  414MOL0     C55790   1.833   0.246   3.821  0.7336 -0.2535  0.9214
  414MOL0     O55791   1.734   0.149   3.805 -1.2510 -0.0741  0.3371
  414MOL0     C55792   1.623   0.181   3.728  0.3273  0.0193 -0.3456
  414MOL0     C55793   1.525   0.069   3.750 -0.6441 -0.0433 -0.4587
  414MOL0     C55794   1.377   0.111   3.744  0.0748  0.2086  0.7318
  414MOL0     C55795   1.304  -0.028   3.731 -0.5840 -0.2448  0.6694
  414MOL0     C55796   1.152  -0.001   3.727  0.5084  0.1046  0.8876
  414MOL0     C55797   1.068  -0.116   3.679 -0.0821 -0.1163  0.3093
  414MOL0     C55798   1.064  -0.223   3.793 -0.1202  0.7368 -0.6274
  414MOL0     C55799   0.935  -0.300   3.794 -0.5980  0.6061  0.7270
  414MOL0    Cl55800   0.799  -0.205   3.837  0.1521 -0.4283  0.0942
  414MOL0     C55801   1.906   0.292   3.708  0.0228  0.0772 -0.0760
  414MOL0     C55802   1.988   0.401   3.726 -1.2506  0.1762 -0.0916
  414MOL0     O55803   2.249   0.401   3.944  0.7876 -0.7799 -0.3519
  414MOL0     C55804   2.311   0.752   3.878  0.0787 -0.0133 -0.1258
  414MOL0     C55805   2.408   0.853   3.896 -0.2969  0.2304  0.5259
  414MOL0     N55806   2.997   1.384   4.159  0.2709  0.0891 -0.5655
  414MOL0     N55807   3.109   1.392   4.226 -0.3629 -0.4025 -0.0872
  414MOL0     C55808   4.285   1.079   4.476  0.5974 -0.3422 -0.1066
  414MOL0     C55809   4.392   0.991   4.451  0.7314 -0.6973 -0.5039
  414MOL0     C55810   4.783   0.781   4.469  0.0841  0.3142  0.3882
  414MOL0     C55811   4.764   0.646   4.452 -0.4250  0.9604 -0.5843
  414MOL0     C55812   4.875   0.566   4.411  0.6498 -0.7445 -0.2303
  414MOL0     C55813   5.003   0.623   4.390  0.3137  0.5931  0.3319
  414MOL0     O55814   5.120   0.566   4.358 -0.1263 -0.1018  0.1447
  414MOL0     C55815   5.132   0.432   4.305  0.1206  0.1405  0.2785
  414MOL0     C55816   5.280   0.389   4.312  0.2228 -0.9100  0.3877
  414MOL0     C55817   5.374   0.501   4.262 -0.1784  0.6904 -0.4040
  414MOL0     C55818   5.507   0.491   4.321  0.3895 -0.1784 -0.4198
  414MOL0     C55819   5.578   0.367   4.279  0.1552 -0.8075 -1.3243
  414MOL0     C55820   5.642   0.280   4.234  0.2480  0.7452  0.4001
  414MOL0     C55821   5.018   0.755   4.408 -0.4272 -0.4528 -0.7151
  414MOL0     C55822   4.910   0.833   4.454 -0.9419 -0.4697  0.1774
  414MOL0     H55823   4.373   0.807   4.742 -0.6811  0.0073  0.6118
  414MOL0     H55824   4.208   0.967   4.783 -0.5628 -1.7746 -0.6212
  414MOL0     H55825   3.992   1.133   4.466 -1.1260 -3.3864 -0.1533
  414MOL0     H55826   3.991   1.020   4.590  0.7164  0.6835  1.8504
  414MOL0     H55827   3.895   1.207   4.744  2.4289 -2.4138  0.2379
  414MOL0     H55828   3.909   1.320   4.611 -0.1643  0.2059  0.8353
  414MOL0     H55829   3.753   1.164   4.478  1.9660  0.8099  0.1869
  414MOL0     H55830   3.740   1.064   4.628  0.2418 -0.2613 -0.9258
  414MOL0     H55831   3.649   1.276   4.744  0.3285  0.0275  0.4008
  414MOL0     H55832   3.655   1.346   4.583  1.2132 -0.3856  0.0758
  414MOL0     H55833   3.502   1.095   4.635 -1.4652 -0.3580  0.8456
  414MOL0     H55834   3.423   1.248   4.665  0.2874  0.2732  0.6183
  414MOL0     H55835   3.507   1.307   4.409  1.7663 -1.6510 -2.1108
  414MOL0     H55836   3.507   1.134   4.393 -2.5681 -0.7040 -2.1123
  414MOL0     H55837   3.260   1.139   4.463 -0.6823  0.3535  0.3950
  414MOL0     H55838   3.271   1.314   4.475  1.0771 -0.7108  2.5824
  414MOL0     H55839   3.292   1.123   4.241 -2.0431 -0.9975  0.7257
  414MOL0     H55840   3.367   1.289   4.228 -1.2401  0.8222  1.2168
  414MOL0     H55841   3.068   1.065   4.180 -2.7757  0.0389  0.5679
  414MOL0     H55842   2.783   1.249   4.021 -0.0395  0.9089 -1.6774
  414MOL0     H55843   2.932   1.273   3.928 -2.6721  0.4911  0.0484
  414MOL0     H55844   2.876   1.018   4.077 -1.5886 -0.7608 -0.5477
  414MOL0     H55845   2.995   1.044   3.942 -0.0537  1.3720 -2.2614
  414MOL0     H55846   2.823   0.886   3.882  2.1211  1.1153  0.0440
  414MOL0     H55847   2.835   1.031   3.783  3.1029  0.3909  0.8243
  414MOL0     H55848   2.610   0.957   3.819 -2.1828 -2.0285  1.8596
  414MOL0     H55849   2.624   1.111   3.912 -2.5034 -0.5226 -0.4536
  414MOL0     H55850   2.574   0.715   4.152 -1.1511 -0.2369 -0.6670
  414MOL0     H55851   2.318   0.462   4.191 -0.2786  0.0755  1.8997
  414MOL0     H55852   2.467   0.428   4.118 -2.1026  1.1535 -2.5489
  414MOL0     H55853   2.460   0.538   4.260 -0.7431 -1.1667 -0.5830
  414MOL0     H55854   1.960   0.452   4.056 -2.2822  1.7105  0.3271
  414MOL0     H55855   1.803   0.266   4.040 -0.6888 -0.9923 -0.9148
  414MOL0     H55856   1.578   0.268   3.777  3.3516  0.2349  2.4320
  414MOL0     H55857   1.646   0.211   3.626 -0.5208  1.8420 -0.0322
  414MOL0     H55858   1.544  -0.007   3.674  0.7976  1.0469 -1.2342
  414MOL0     H55859   1.546   0.011   3.840 -0.7857 -2.7380 -2.0541
  414MOL0     H55860   1.357   0.177   3.658 -1.6468  0.6394  1.4089
  414MOL0     H55861   1.361   0.175   3.831  2.7987 -0.7747  2.0540
  414MOL0     H55862   1.336  -0.082   3.641 -0.2224  1.5008 -0.3027
  414MOL0     H55863   1.320  -0.096   3.815 -0.8238 -0.0267  0.8925
  414MOL0     H55864   1.144   0.085   3.658  1.9609  0.7582  1.4996
  414MOL0     H55865   1.112   0.029   3.824 -1.8031  0.0588  0.0014
  414MOL0     H55866   0.970  -0.073   3.660  0.6445  1.8234  0.7650
  414MOL0     H55867   1.098  -0.168   3.587  0.6951 -0.5366  0.7866
  414MOL0     H55868   1.076  -0.176   3.891 -2.9818  0.5325 -0.0950
  414MOL0     H55869   1.148  -0.293   3.786 -0.1676  0.5440  0.5911
  414MOL0     H55870   0.925  -0.385   3.862 -3.7161 -1.3202 -1.8327
  414MOL0     H55871   0.919  -0.345   3.695  1.5912  0.5979  0.3092
  414MOL0     H55872   1.887   0.240   3.614  2.2562  0.7668 -0.9606
  414MOL0     H55873   2.042   0.440   3.641  4.1085 -2.2751  1.7127
  414MOL0     H55874   2.232   0.768   3.806 -0.6862  2.7600  1.1836
  414MOL0     H55875   2.406   0.939   3.830  0.9513  0.0597  0.2402
  414MOL0     H55876   4.255   1.152   4.402 -0.5911  0.3483  1.0099
  414MOL0     H55877   4.432   0.987   4.351  0.5024 -0.1085 -0.6256
  414MOL0     H55878   4.660   0.615   4.447 -0.8044  2.0771  0.0334
  414MOL0     H55879   4.869   0.459   4.392 -0.8203 -0.4272 -1.7394
  414MOL0     H55880   5.077   0.360   4.367 -0.2102 -0.6823 -0.9311
  414MOL0     H55881   5.091   0.430   4.204 -0.0052  0.3833  0.3247
  414MOL0     H55882   5.305   0.299   4.256 -1.1139 -3.0824  3.0036
  414MOL0     H55883   5.306   0.369   4.417  4.5892  1.2888 -0.0872
  414MOL0     H55884   5.339   0.601   4.289  1.8904  1.1839  0.6375
  414MOL0     H55885   5.376   0.500   4.153 -0.2499  0.2270 -0.4035
  414MOL0     H55886   5.498   0.493   4.430 -2.5318  1.9392 -0.5791
  414MOL0     H55887   5.575   0.573   4.296  1.9559 -1.5125 -0.7206
  414MOL0     H55888   5.683   0.191   4.192 -1.0590  0.1256  0.3689
  414MOL0     H55889   5.118   0.797   4.392  0.2886 -1.0205  1.8796
  414MOL0     H55890   4.923   0.941   4.458  1.3565 -0.6979  0.3830
  415MOL0     O55891   8.004   8.442   7.818 -0.4933  0.4423 -0.1178
  415MOL0     C55892   8.092   8.489   7.880  0.1945 -0.0754 -0.3190
  415MOL0     O55893   8.082   8.559   7.998  0.0559 -0.2921  0.4539
  415MOL0     C55894   7.973   8.580   8.058  0.8607  0.7629 -0.1879
  415MOL0     C55895   7.958   8.528   8.189 -0.4049 -0.1497  0.1810
  415MOL0     C55896   7.835   8.535   8.243  0.5494 -0.0541  0.0484
  415MOL0     C55897   7.724   8.600   8.197 -0.1564 -0.6060 -0.1039
  415MOL0     O55898   7.608   8.612   8.266  0.0781 -0.2926  0.3767
  415MOL0     C55899   7.626   8.678   8.394  0.0845  0.0251 -0.4393
  415MOL0     C55900   7.505   8.760   8.428  0.3659 -0.4094  0.0467
  415MOL0     C55901   7.530   8.846   8.560  0.4942  0.5981  0.8640
  415MOL0     C55902   7.405   8.907   8.622 -0.6271 -0.4999 -0.2070
  415MOL0     C55903   7.294   8.800   8.669 -1.5053 -0.2407  0.1336
  415MOL0     C55904   7.183   8.870   8.745  0.4356 -0.1021  0.0099
  415MOL0     C55905   7.075   8.787   8.821 -0.3152 -0.0472  0.4655
  415MOL0     C55906   7.130   8.724   8.948  0.6883  0.1321 -0.1854
  415MOL0     N55907   7.020   8.732   9.046  0.4372 -0.1107 -0.3046
  415MOL0     C55908   6.933   8.631   9.066  0.0197  0.2911  0.0339
  415MOL0     C55909   6.852   8.656   9.177 -0.4755  0.1578  0.7976
  415MOL0     C55910   6.739   8.569   9.221 -0.5554 -1.2160  0.3424
  415MOL0     C55911   6.603   8.603   9.163  0.8178 -0.8508  1.3815
  415MOL0     C55912   6.589   8.749   9.143 -0.3267 -0.3598 -0.2602
  415MOL0     C55913   6.447   8.776   9.124 -0.5787 -1.3262  1.0755
  415MOL0     O55914   6.429   8.920   9.096  0.3832  1.1413  0.4233
  415MOL0     C55915   6.313   8.969   9.040 -0.0708 -0.2700 -0.1456
  415MOL0     C55916   6.228   8.899   8.953  1.1941  0.4653 -0.4016
  415MOL0     C55917   6.117   8.966   8.885 -0.1160 -0.3566 -0.1157
  415MOL0     C55918   6.040   8.888   8.779  0.1011 -0.1078 -0.9906
  415MOL0     C55919   6.092   9.102   8.916 -0.2460  0.3429  0.2142
  415MOL0     C55920   5.981   9.175   8.856  1.1767 -0.4918  0.6283
  415MOL0     O55921   5.865   9.102   8.827  0.8786  0.7406  0.0763
  415MOL0     C55922   5.742   9.142   8.777  0.0447 -0.3550  1.3822
  415MOL0     C55923   5.657   9.039   8.776 -0.1516  0.2313 -0.4464
  415MOL0     C55924   5.529   9.054   8.715 -0.4311  0.5279  0.8928
  415MOL0     C55925   5.489   9.168   8.651  0.0758  0.0455  0.7555
  415MOL0     O55926   5.364   9.177   8.591  0.1389  0.7665 -0.1875
  415MOL0     C55927   5.340   9.274   8.486  0.0083  0.4784  0.4358
  415MOL0     C55928   5.260   9.222   8.359 -0.5352 -0.3774  0.1139
  415MOL0     C55929   5.235   9.325   8.254  0.6140  0.4645  0.6570
  415MOL0     C55930   5.144   9.276   8.140  0.3298 -0.5255 -0.1566
  415MOL0     C55931   4.989   9.282   8.180 -0.9288  0.1570 -0.6315
  415MOL0     C55932   4.911   9.202   8.079  1.2020 -0.1373  0.3203
  415MOL0     C55933   4.760   9.227   8.131 -0.2494 -0.2292 -0.4657
  415MOL0     C55934   4.660   9.146   8.045  0.1658 -0.2732 -0.2070
  415MOL0    Cl55935   4.503   9.091   8.131  0.5887  0.2666 -0.1270
  415MOL0     C55936   5.580   9.284   8.658  0.0881  0.2429  0.4504
  415MOL0     C55937   5.704   9.269   8.718 -0.7120  0.7193 -0.0342
  415MOL0     O55938   5.992   9.293   8.830 -1.1458  0.1996 -0.2921
  415MOL0     C55939   6.180   9.171   8.993  0.0854  0.7185  0.1635
  415MOL0     C55940   6.287   9.099   9.063  0.1915  0.0227  0.4492
  415MOL0     N55941   6.901   8.781   9.224  0.3481  0.0225 -0.0850
  415MOL0     N55942   7.005   8.812   9.152 -0.4189 -0.0895 -0.2837
  415MOL0     C55943   7.741   8.674   8.087  0.1887  0.5527 -0.5318
  415MOL0     C55944   7.862   8.656   8.010  0.9256  0.2206  0.0594
  415MOL0     C55945   8.233   8.472   7.828  0.8315  1.4917 -0.4992
  415MOL0     C55946   8.346   8.529   7.907  0.7608 -0.1045 -0.1344
  415MOL0     C55947   8.476   8.512   7.863  0.6600 -0.1668  0.9864
  415MOL0     C55948   8.509   8.452   7.736 -0.1604  0.2787 -0.4727
  415MOL0     O55949   8.636   8.458   7.676 -0.0895  0.0984 -0.5244
  415MOL0     C55950   8.736   8.435   7.771  0.1420  0.5826  0.2613
  415MOL0     C55951   8.755   8.281   7.803  0.5126  0.3396 -0.3793
  415MOL0     C55952   8.883   8.268   7.889  0.2063 -0.2497  0.3990
  415MOL0     C55953   8.897   8.130   7.951 -0.6308 -0.3705 -0.1695
  415MOL0     C55954   8.772   8.101   8.034 -1.1378 -0.4090  0.4271
  415MOL0     C55955   8.684   8.106   8.114 -0.3716  0.1597  0.3208
  415MOL0     C55956   8.398   8.401   7.664  0.5719  0.5429 -0.2306
  415MOL0     C55957   8.267   8.414   7.704 -0.4015  0.5227 -0.5645
  415MOL0     H55958   8.040   8.479   8.241  1.1752  3.0448  0.9426
  415MOL0     H55959   7.825   8.481   8.337  3.1746 -1.3184 -0.3116
  415MOL0     H55960   7.637   8.598   8.468  0.8089 -0.6192 -1.2199
  415MOL0     H55961   7.720   8.732   8.404  0.9515 -1.4108 -0.5343
  415MOL0     H55962   7.490   8.832   8.347  1.7173 -1.0614 -0.8098
  415MOL0     H55963   7.409   8.710   8.440 -1.2794  2.1890 -1.2591
  415MOL0     H55964   7.574   8.783   8.637  2.9052  1.0361 -0.0817
  415MOL0     H55965   7.604   8.924   8.541  0.3652  0.5960  0.3165
  415MOL0     H55966   7.435   8.959   8.713 -2.7349 -1.0304  0.8342
  415MOL0     H55967   7.359   8.982   8.557  1.0016 -0.5180 -1.4491
  415MOL0     H55968   7.249   8.752   8.581  1.5954 -1.3457 -0.9658
  415MOL0     H55969   7.350   8.719   8.716 -1.0752 -0.2319 -0.3568
  415MOL0     H55970   7.230   8.941   8.813  0.2186 -0.5276  0.6244
  415MOL0     H55971   7.137   8.938   8.674  1.6034  3.1354  2.1344
  415MOL0     H55972   6.991   8.854   8.843 -1.4448 -1.5854  1.0174
  415MOL0     H55973   7.060   8.708   8.747  1.9363  1.5646 -1.8733
  415MOL0     H55974   7.207   8.791   8.989 -1.2280  1.5700  1.2410
  415MOL0     H55975   7.164   8.622   8.931 -0.2545 -0.2090 -0.0535
  415MOL0     H55976   6.918   8.544   9.002 -2.9652  0.1359  0.7867
  415MOL0     H55977   6.758   8.471   9.177  1.5609  0.0492 -1.8117
  415MOL0     H55978   6.732   8.572   9.330 -2.0506  0.4025  0.2563
  415MOL0     H55979   6.525   8.578   9.236 -0.6890  0.0052  0.1191
  415MOL0     H55980   6.588   8.541   9.074  3.7588 -0.2016  0.3086
  415MOL0     H55981   6.646   8.793   9.061 -0.1153 -0.4074 -0.1401
  415MOL0     H55982   6.617   8.803   9.234 -2.5505 -0.8484  0.8000
  415MOL0     H55983   6.390   8.752   9.214 -1.5304  0.1593  0.9084
  415MOL0     H55984   6.414   8.717   9.038  1.1392  0.8395 -1.2635
  415MOL0     H55985   6.233   8.795   8.922 -3.5277 -0.0085 -0.2682
  415MOL0     H55986   5.970   8.826   8.837  0.3048  1.5264  1.1112
  415MOL0     H55987   5.994   8.939   8.694 -0.1609  1.2830 -0.0468
  415MOL0     H55988   6.103   8.813   8.731  1.3354 -0.4298  1.0155
  415MOL0     H55989   5.682   8.944   8.822  0.5083  1.3363  1.6237
  415MOL0     H55990   5.467   8.965   8.723  1.3203 -0.7398  0.9693
  415MOL0     H55991   5.283   9.355   8.533 -1.6545 -0.0407 -0.6079
  415MOL0     H55992   5.437   9.308   8.448 -0.0702 -0.3817 -0.5739
  415MOL0     H55993   5.318   9.142   8.311  0.2857  0.3022 -0.0362
  415MOL0     H55994   5.161   9.185   8.389 -0.1808 -0.2008  1.5975
  415MOL0     H55995   5.324   9.379   8.219  0.7578  1.8006  2.9058
  415MOL0     H55996   5.191   9.405   8.313  2.2690 -0.6971  3.6901
  415MOL0     H55997   5.153   9.332   8.046  2.0476  0.3458  0.4819
  415MOL0     H55998   5.193   9.180   8.121  1.3681  0.3973 -2.5363
  415MOL0     H55999   4.958   9.387   8.177  1.3025  0.8763 -1.0413
  415MOL0     H56000   4.983   9.237   8.279  1.4626 -0.2328 -0.5973
  415MOL0     H56001   4.923   9.237   7.977  0.0216  0.8544  0.5085
  415MOL0     H56002   4.933   9.095   8.078  0.8416 -0.2275 -2.0839
  415MOL0     H56003   4.738   9.334   8.131  1.2377  0.1325  1.7590
  415MOL0     H56004   4.771   9.187   8.232  0.2407  1.2395  0.0896
  415MOL0     H56005   4.707   9.058   8.001  1.0548  0.1203 -0.0758
  415MOL0     H56006   4.637   9.207   7.957  1.5558  0.2059 -0.2608
  415MOL0     H56007   5.549   9.380   8.617  0.1082 -0.4783 -1.3360
  415MOL0     H56008   5.768   9.356   8.712 -0.8138  0.7908 -0.0758
  415MOL0     H56009   6.168   9.277   9.012  0.6331  0.6163  1.1357
  415MOL0     H56010   6.339   9.168   9.129  0.4788 -0.8958  1.2073
  415MOL0     H56011   7.657   8.735   8.053 -1.6991 -1.6047 -0.0253
  415MOL0     H56012   7.880   8.710   7.917  0.8085  3.9163  2.0211
  415MOL0     H56013   8.339   8.578   8.003  0.8028 -0.0820 -0.1435
  415MOL0     H56014   8.549   8.559   7.927 -0.4834 -0.2039  2.3835
  415MOL0     H56015   8.830   8.461   7.722  0.3612 -0.9807 -0.1844
  415MOL0     H56016   8.731   8.495   7.862 -1.1310 -0.0184  0.6135
  415MOL0     H56017   8.754   8.235   7.703  0.0409 -1.2590  0.3329
  415MOL0     H56018   8.664   8.244   7.852  1.0457 -1.2427 -0.5464
  415MOL0     H56019   8.889   8.341   7.970  0.6400  1.5918 -1.2051
  415MOL0     H56020   8.971   8.284   7.826 -0.4572 -1.1252 -0.7847
  415MOL0     H56021   8.977   8.130   8.026 -2.0722  0.5703  1.4548
  415MOL0     H56022   8.921   8.062   7.869 -1.3710  0.8486 -1.4399
  415MOL0     H56023   8.610   8.138   8.185 -0.0334  2.8543 -0.4095
  415MOL0     H56024   8.427   8.373   7.564  1.4754  1.3165 -0.1999
  415MOL0     H56025   8.191   8.369   7.641 -0.9001  1.7088 -0.8348
  416MOL0     O56026  10.346   0.719   7.275 -0.1123 -0.5185  0.9431
  416MOL0     C56027  10.358   0.619   7.338 -0.7008  0.5645  0.0827
  416MOL0     O56028  10.262   0.533   7.387 -0.1557 -0.1961  0.4424
  416MOL0     C56029  10.124   0.560   7.385  0.1845 -0.2426  0.1107
  416MOL0     C56030  10.071   0.688   7.387 -0.3091 -0.3851 -0.2072
  416MOL0     C56031   9.933   0.708   7.397  0.0358 -0.2037  0.5773
  416MOL0     C56032   9.845   0.603   7.400 -0.2220 -0.1306  0.4494
  416MOL0     O56033   9.704   0.616   7.407 -0.3624 -0.4717 -0.6257
  416MOL0     C56034   9.657   0.750   7.375  0.1445  0.0963  0.2450
  416MOL0     C56035   9.508   0.757   7.374 -0.3502 -0.1863  0.4571
  416MOL0     C56036   9.458   0.723   7.231 -0.1541 -0.6005 -0.9161
  416MOL0     C56037   9.313   0.772   7.211  0.0984 -0.1193 -0.3582
  416MOL0     C56038   9.212   0.678   7.278  0.0320 -0.4097  0.7872
  416MOL0     C56039   9.058   0.727   7.284  0.4733 -0.1323  0.5042
  416MOL0     C56040   8.956   0.625   7.318  0.0935 -0.7038  0.5181
  416MOL0     C56041   8.954   0.602   7.465 -0.1513  0.4413  1.0017
  416MOL0     N56042   8.871   0.488   7.517 -0.0675 -0.4331  0.5236
  416MOL0     C56043   8.745   0.503   7.572 -0.2347 -0.5600 -0.3227
  416MOL0     C56044   8.697   0.378   7.591  1.2953 -0.0521  0.8539
  416MOL0     C56045   8.563   0.347   7.643  0.4583 -0.0764  0.7225
  416MOL0     C56046   8.528   0.194   7.630  0.8241 -0.6111  0.3269
  416MOL0     C56047   8.607   0.116   7.738  0.5629 -0.5354 -0.4294
  416MOL0     C56048   8.611  -0.032   7.700  0.5658 -0.1642 -0.1233
  416MOL0     O56049   8.479  -0.087   7.664  0.0198  0.2730 -0.2886
  416MOL0     C56050   8.374  -0.100   7.757 -0.4558  0.7415  0.8764
  416MOL0     C56051   8.396  -0.098   7.894  0.3287  0.6562  0.4028
  416MOL0     C56052   8.298  -0.096   7.989  0.4456  0.1687  0.1777
  416MOL0     C56053   8.324  -0.097   8.136 -0.8390 -0.3447 -1.1444
  416MOL0     C56054   8.160  -0.101   7.940  0.6109  0.4109 -0.4834
  416MOL0     C56055   8.049  -0.105   8.029 -0.3227  0.1688 -0.1932
  416MOL0     O56056   8.050  -0.187   8.145  1.0467 -0.4130  0.1974
  416MOL0     C56057   7.930  -0.195   8.204  0.7534  0.5054 -0.0491
  416MOL0     C56058   7.802  -0.232   8.155 -0.0757  0.8398  0.3164
  416MOL0     C56059   7.683  -0.224   8.235  0.5634  0.0928  0.0949
  416MOL0     C56060   7.688  -0.180   8.367  0.3692 -0.6418 -0.1474
  416MOL0     O56061   7.575  -0.155   8.445 -0.1683  0.4766 -0.0840
  416MOL0     C56062   7.456  -0.232   8.410 -0.5978  0.0035 -0.0523
  416MOL0     C56063   7.357  -0.244   8.522 -0.3727 -0.4683 -0.1212
  416MOL0     C56064   7.264  -0.120   8.517 -0.2368  0.1216  0.3549
  416MOL0     C56065   7.124  -0.163   8.564  0.9441 -0.2412 -0.0922
  416MOL0     C56066   7.040  -0.046   8.612  0.2890 -0.1045  0.1072
  416MOL0     C56067   6.914  -0.092   8.697 -0.0414 -0.6903  0.3061
  416MOL0     C56068   6.834   0.029   8.749  0.2958  0.0150  0.1412
  416MOL0     C56069   6.713  -0.024   8.831 -0.0324 -0.7607 -0.4118
  416MOL0    Cl56070   6.605  -0.129   8.734 -0.7596  0.4529 -0.0256
  416MOL0     C56071   7.813  -0.149   8.421  0.8466 -0.7854 -0.2280
  416MOL0     C56072   7.922  -0.146   8.336  0.1393  0.3224  0.9130
  416MOL0     O56073   7.956  -0.028   8.010 -0.0229 -1.1055  0.0735
  416MOL0     C56074   8.143  -0.101   7.803 -0.1494 -1.4717 -0.1010
  416MOL0     C56075   8.249  -0.103   7.708  0.4983 -0.7857 -0.4226
  416MOL0     N56076   8.794   0.285   7.554  0.6279  0.2094  1.0153
  416MOL0     N56077   8.895   0.355   7.511  0.5810  0.4596  0.0175
  416MOL0     C56078   9.899   0.473   7.395  0.3872 -0.5754 -0.6738
  416MOL0     C56079  10.036   0.450   7.397  0.1153  0.2695  0.0069
  416MOL0     C56080  10.490   0.580   7.380  0.5170  0.8161  1.2063
  416MOL0     C56081  10.606   0.660   7.361 -0.4290  0.9042  0.6049
  416MOL0     C56082  10.738   0.617   7.394  0.2581 -0.4836 -0.6210
  416MOL0     C56083  10.748   0.493   7.458  0.6661  0.0179  0.7346
  416MOL0     O56084  10.881   0.466   7.505  0.1224  0.2925 -0.1551
  416MOL0     C56085  10.942   0.348   7.445  0.4513  0.3353 -0.3679
  416MOL0     C56086  11.009   0.375   7.312 -0.2056 -0.7927 -0.5818
  416MOL0     C56087  11.134   0.468   7.341  1.0593  0.5813  0.2689
  416MOL0     C56088  11.180   0.552   7.223 -0.1000  0.0951 -0.6379
  416MOL0     C56089  11.075   0.646   7.170  0.5348 -0.4897 -0.8226
  416MOL0     C56090  11.000   0.725   7.109 -0.6504 -0.3121  0.6446
  416MOL0     C56091  10.632   0.411   7.480  0.3940 -0.6468  0.0318
  416MOL0     C56092  10.509   0.458   7.446  1.1911  0.3190 -0.0250
  416MOL0     H56093  10.143   0.768   7.399 -0.4416 -0.4719  1.4190
  416MOL0     H56094   9.897   0.810   7.391  1.1776  0.1092 -2.2682
  416MOL0     H56095   9.685   0.811   7.462  1.7472 -4.3037  3.1591
  416MOL0     H56096   9.711   0.789   7.288  2.2667 -2.9042  0.0618
  416MOL0     H56097   9.476   0.684   7.449 -0.8553 -1.6441 -1.1094
  416MOL0     H56098   9.480   0.859   7.399 -0.3570  0.7044 -2.8247
  416MOL0     H56099   9.529   0.771   7.163  1.0413 -0.9575  0.0568
  416MOL0     H56100   9.467   0.616   7.207 -1.1120 -0.4981 -1.8239
  416MOL0     H56101   9.293   0.875   7.241 -0.7994 -0.5689  0.6381
  416MOL0     H56102   9.312   0.771   7.102  1.0149 -0.1497 -0.3803
  416MOL0     H56103   9.216   0.581   7.227  1.2745 -0.2570  0.5660
  416MOL0     H56104   9.244   0.671   7.383 -1.5565 -0.7102  1.2891
  416MOL0     H56105   9.054   0.805   7.360  3.8113 -1.2834  2.0800
  416MOL0     H56106   9.022   0.766   7.189  1.7232 -0.1952 -0.0065
  416MOL0     H56107   8.860   0.659   7.278  2.7283  3.2645 -3.5930
  416MOL0     H56108   8.977   0.532   7.264  1.0827 -0.9851  1.3634
  416MOL0     H56109   8.939   0.693   7.524  3.1334  1.4503  0.5107
  416MOL0     H56110   9.056   0.579   7.498 -0.5066  1.4739  2.9727
  416MOL0     H56111   8.688   0.595   7.571  0.1154 -0.3239  0.6876
  416MOL0     H56112   8.549   0.368   7.749  0.5527 -2.1800  1.2016
  416MOL0     H56113   8.497   0.410   7.583 -2.9756 -0.6778  3.5552
  416MOL0     H56114   8.547   0.146   7.534 -0.6014  0.8292 -0.7156
  416MOL0     H56115   8.420   0.184   7.647  0.6057  1.3502  0.2559
  416MOL0     H56116   8.555   0.136   7.833  0.9490  1.0337 -0.5225
  416MOL0     H56117   8.710   0.150   7.744 -0.3192  4.0323 -4.6561
  416MOL0     H56118   8.663  -0.082   7.783 -0.9565  0.1052  1.0393
  416MOL0     H56119   8.677  -0.043   7.613  0.1485  0.5952 -0.5475
  416MOL0     H56120   8.495  -0.093   7.938 -0.3410 -1.5576  2.3301
  416MOL0     H56121   8.268  -0.029   8.201  1.9999  0.7361  0.3107
  416MOL0     H56122   8.306  -0.194   8.183  0.9195  0.8610  2.3724
  416MOL0     H56123   8.430  -0.078   8.153 -0.7213 -1.5102 -0.5024
  416MOL0     H56124   7.792  -0.264   8.052 -1.2611  0.7432  0.4487
  416MOL0     H56125   7.593  -0.261   8.187  2.5393 -1.4951 -2.6942
  416MOL0     H56126   7.404  -0.193   8.322 -1.1210  1.7095  0.9601
  416MOL0     H56127   7.495  -0.333   8.396 -0.4946 -0.0655  0.6899
  416MOL0     H56128   7.296  -0.335   8.514 -1.4540  0.2086  0.2320
  416MOL0     H56129   7.410  -0.247   8.617 -1.8079  1.5013  0.7968
  416MOL0     H56130   7.253  -0.085   8.414  0.3267 -2.3906 -0.6193
  416MOL0     H56131   7.312  -0.041   8.575 -0.3950  2.1892 -2.1339
  416MOL0     H56132   7.069  -0.217   8.487  1.5115 -0.0979 -0.6019
  416MOL0     H56133   7.135  -0.229   8.651  0.2517 -0.0867  0.1144
  416MOL0     H56134   7.013  -0.001   8.516  2.3322  1.9035  0.3769
  416MOL0     H56135   7.097   0.023   8.675  0.9073  0.8401 -1.4134
  416MOL0     H56136   6.849  -0.159   8.640 -0.0163  0.9221 -1.7433
  416MOL0     H56137   6.952  -0.143   8.786  0.3911  1.3236  1.3266
  416MOL0     H56138   6.802   0.093   8.666 -0.8104  0.1400  0.6466
  416MOL0     H56139   6.894   0.093   8.814 -0.8135  1.4280 -0.1635
  416MOL0     H56140   6.645   0.049   8.876 -1.0661 -1.8187 -0.2166
  416MOL0     H56141   6.748  -0.082   8.917 -0.4987 -1.4531 -0.6758
  416MOL0     H56142   7.829  -0.124   8.525  0.7572 -0.5382 -0.2739
  416MOL0     H56143   8.017  -0.110   8.374  0.2469 -0.0648  1.0202
  416MOL0     H56144   8.048  -0.097   7.751 -0.6916  1.5680  0.9657
  416MOL0     H56145   8.230  -0.102   7.601  0.3819  1.0104 -0.4253
  416MOL0     H56146   9.839   0.383   7.410  1.1961 -1.9275 -4.4077
  416MOL0     H56147  10.084   0.353   7.408  1.7382  1.0356 -0.0727
  416MOL0     H56148  10.596   0.759   7.318 -2.8474  0.5832  0.2659
  416MOL0     H56149  10.820   0.688   7.385 -2.6869  3.2063 -1.0475
  416MOL0     H56150  11.011   0.299   7.515 -0.7221 -0.7774  0.0572
  416MOL0     H56151  10.862   0.274   7.431 -1.0264  2.1615 -1.9702
  416MOL0     H56152  10.933   0.421   7.248  0.9619  0.2433 -1.2529
  416MOL0     H56153  11.038   0.280   7.266  0.9703  0.7397 -3.2449
  416MOL0     H56154  11.208   0.391   7.365 -4.2489 -4.4086  3.1535
  416MOL0     H56155  11.111   0.528   7.430 -0.0339 -0.4962  0.7409
  416MOL0     H56156  11.218   0.494   7.139  0.1326 -1.2468  0.3577
  416MOL0     H56157  11.261   0.615   7.263 -1.0564  0.2706  1.0904
  416MOL0     H56158  10.934   0.794   7.061  2.1425  1.4343 -0.9138
  416MOL0     H56159  10.636   0.331   7.552 -2.3801 -2.0390 -1.2051
  416MOL0     H56160  10.421   0.403   7.478  1.4299  0.3268  0.6516
  417MOL0     O56161   2.761  10.933   4.479 -0.0987 -0.2670  0.1186
  417MOL0     C56162   2.805  10.819   4.503  1.0740  0.2189 -0.5857
  417MOL0     O56163   2.727  10.705   4.511 -0.3786  0.0505  0.2013
  417MOL0     C56164   2.598  10.714   4.474  0.8430 -0.3351  0.3476
  417MOL0     C56165   2.501  10.771   4.554 -0.2759 -0.1068  0.1758
  417MOL0     C56166   2.371  10.793   4.509  0.0939  0.5655  0.8461
  417MOL0     C56167   2.328  10.752   4.376  0.3709 -0.2307  0.1797
  417MOL0     O56168   2.203  10.777   4.326 -0.0057  0.5014 -0.7368
  417MOL0     C56169   2.080  10.745   4.405 -0.1055  0.2393  0.9688
  417MOL0     C56170   1.959  10.787   4.322  0.3391  0.8097  0.3417
  417MOL0     C56171   1.818  10.761   4.369  0.4572 -0.1335 -0.4687
  417MOL0     C56172   1.707  10.795   4.264 -0.2533 -0.1010 -0.5087
  417MOL0     C56173   1.563  10.757   4.307  0.1902 -0.0597  0.2539
  417MOL0     C56174   1.460  10.839   4.243  0.2362 -0.2309  0.4109
  417MOL0     C56175   1.322  10.787   4.256 -0.6761  0.0257 -0.0651
  417MOL0     C56176   1.265  10.781   4.393 -0.3087  0.0059  0.5396
  417MOL0     N56177   1.114  10.776   4.386  0.6001  0.6110 -0.1449
  417MOL0     C56178   1.043  10.659   4.383  0.8079 -0.0437  0.3362
  417MOL0     C56179   0.915  10.687   4.363  0.7628 -0.5142  0.2421
  417MOL0     C56180   0.785  10.602   4.342 -0.0192 -0.6830 -0.0154
  417MOL0     C56181   0.646  10.674   4.366 -0.3557  0.4875  0.2259
  417MOL0     C56182   0.617  10.699   4.517  0.3616  0.4705  0.5343
  417MOL0     C56183   0.493  10.777   4.548  0.1573 -0.1576 -0.3827
  417MOL0     O56184   0.381  10.690   4.496  0.1161 -0.1740 -0.5887
  417MOL0     C56185   0.261  10.757   4.488 -0.1606  0.0762 -0.6755
  417MOL0     C56186   0.180  10.720   4.379 -0.6225 -1.3791 -0.7641
  417MOL0     C56187   0.054  10.789   4.353 -0.2239 -0.5118 -0.1268
  417MOL0     C56188  -0.033  10.744   4.240 -0.1927 -0.2907  0.4557
  417MOL0     C56189   0.022  10.902   4.434  0.0438 -0.1198  0.5199
  417MOL0     C56190  -0.103  10.973   4.432  1.1041 -0.1308 -0.3452
  417MOL0     O56191  -0.154  11.015   4.323  0.7700  0.2045  0.2342
  417MOL0     C56192  -0.267  11.089   4.324  0.2326 -0.4837  1.2126
  417MOL0     C56193  -0.395  11.028   4.351 -0.3308 -0.1335 -0.1181
  417MOL0     C56194  -0.510  11.104   4.366 -0.3235  1.2842  0.0555
  417MOL0     C56195  -0.499  11.245   4.347 -0.9061  1.4774 -0.6214
  417MOL0     O56196  -0.608  11.323   4.369  0.9234  0.4174  0.7851
  417MOL0     C56197  -0.655  11.394   4.258  0.2549  0.0691 -0.0215
  417MOL0     C56198  -0.800  11.435   4.282 -0.0003  0.0487  0.5167
  417MOL0     C56199  -0.853  11.474   4.135  0.2591  0.1100  0.5586
  417MOL0     C56200  -0.993  11.543   4.147 -0.2416 -0.8122 -0.0196
  417MOL0     C56201  -1.022  11.619   4.010 -0.6781  0.0756 -0.6065
  417MOL0     C56202  -1.167  11.671   4.015 -0.1477  0.1569  0.6235
  417MOL0     C56203  -1.186  11.766   3.895 -0.4222 -0.7581 -0.0641
  417MOL0     C56204  -1.327  11.816   3.883 -0.1185 -0.6154 -0.6483
  417MOL0    Cl56205  -1.436  11.674   3.878 -0.3306  0.3311  0.0968
  417MOL0     C56206  -0.376  11.311   4.342  0.2828 -0.0366  0.5683
  417MOL0     C56207  -0.268  11.230   4.324 -0.4344 -0.5890  1.0186
  417MOL0     O56208  -0.159  10.977   4.538 -0.3153  0.4554  0.4712
  417MOL0     C56209   0.113  10.934   4.533  0.0723  0.6525 -0.8552
  417MOL0     C56210   0.226  10.869   4.566 -0.2144  0.2534 -0.5798
  417MOL0     N56211   0.915  10.831   4.358  0.0163 -0.0356  0.2958
  417MOL0     N56212   1.033  10.883   4.368  0.2224  0.4924  0.6018
  417MOL0     C56213   2.429  10.692   4.293  0.0717 -0.6167 -0.0990
  417MOL0     C56214   2.559  10.678   4.345  0.5081 -0.6904  0.4827
  417MOL0     C56215   2.945  10.805   4.554 -0.1209 -0.7681  0.4423
  417MOL0     C56216   2.993  10.678   4.594  0.1680  0.4047 -0.5331
  417MOL0     C56217   3.133  10.668   4.618 -1.0587 -0.3059 -0.0225
  417MOL0     C56218   3.218  10.787   4.622 -0.3626  0.1755  0.1739
  417MOL0     O56219   3.348  10.791   4.669  0.0470 -0.7615 -0.5727
  417MOL0     C56220   3.419  10.680   4.719  0.2184 -0.8108 -0.5511
  417MOL0     C56221   3.563  10.730   4.735 -0.0044 -0.3721 -0.2100
  417MOL0     C56222   3.659  10.634   4.810 -0.1089 -0.7838  0.8702
  417MOL0     C56223   3.745  10.694   4.928 -0.6465 -0.2605  0.7449
  417MOL0     C56224   3.657  10.733   5.039 -0.6677  0.3645 -0.3855
  417MOL0     C56225   3.619  10.753   5.152  0.5177  0.3395 -0.0276
  417MOL0     C56226   3.172  10.903   4.560  0.2088  0.5346  0.6105
  417MOL0     C56227   3.034  10.913   4.528 -0.0867 -0.0146  0.1962
  417MOL0     H56228   2.528  10.797   4.656  0.0844  1.9798 -0.3989
  417MOL0     H56229   2.305  10.849   4.576  0.9756  0.6761  1.6485
  417MOL0     H56230   2.065  10.637   4.419 -2.4637  0.2247 -1.1255
  417MOL0     H56231   2.090  10.809   4.494  1.3393  2.2672 -0.5527
  417MOL0     H56232   1.963  10.895   4.306  0.5967  0.9414  1.1957
  417MOL0     H56233   1.981  10.733   4.230  1.5563 -0.2768  1.2218
  417MOL0     H56234   1.807  10.655   4.396 -2.8752  0.6809  2.0076
  417MOL0     H56235   1.798  10.824   4.456  0.9390 -1.8862  0.9802
  417MOL0     H56236   1.718  10.904   4.258 -2.2502  0.0847 -1.1937
  417MOL0     H56237   1.737  10.746   4.171  1.5129 -2.3640  1.1178
  417MOL0     H56238   1.546  10.651   4.286  0.4666  0.0978 -0.8237
  417MOL0     H56239   1.560  10.757   4.416 -1.5377 -0.3134  0.2421
  417MOL0     H56240   1.468  10.943   4.277  0.1369 -1.1600  3.6124
  417MOL0     H56241   1.481  10.845   4.136 -1.4529 -1.1449 -0.0007
  417MOL0     H56242   1.263  10.859   4.199  2.0968  1.4652 -1.3253
  417MOL0     H56243   1.300  10.687   4.218  0.4051 -1.0233  1.8792
  417MOL0     H56244   1.293  10.875   4.442 -2.5989  0.0656  1.9309
  417MOL0     H56245   1.305  10.687   4.432 -0.4322  0.1685  1.0726
  417MOL0     H56246   1.074  10.557   4.403  0.4339  0.1496  2.1570
  417MOL0     H56247   0.787  10.565   4.239  1.2997 -1.7024  0.3551
  417MOL0     H56248   0.782  10.516   4.409 -1.3672 -1.3032 -0.8250
  417MOL0     H56249   0.575  10.605   4.319  0.0718  1.8829 -2.6451
  417MOL0     H56250   0.639  10.773   4.321  2.2703  0.0182 -1.4283
  417MOL0     H56251   0.705  10.748   4.560 -1.0101  2.8210  0.8604
  417MOL0     H56252   0.611  10.598   4.558 -0.6792 -0.0838 -0.9165
  417MOL0     H56253   0.504  10.870   4.492  0.0723  0.2724  0.3088
  417MOL0     H56254   0.487  10.799   4.655 -0.4540 -2.9674  0.2461
  417MOL0     H56255   0.196  10.639   4.307  0.5030 -1.3999 -0.5145
  417MOL0     H56256  -0.003  10.800   4.151 -1.4720  0.6102  0.5610
  417MOL0     H56257  -0.023  10.638   4.216  0.8620  0.1207 -1.0427
  417MOL0     H56258  -0.142  10.746   4.249 -0.5935  0.6753 -3.1657
  417MOL0     H56259  -0.402  10.920   4.358 -0.3370 -0.0698  0.9680
  417MOL0     H56260  -0.604  11.054   4.386  1.2939 -3.0289 -1.8673
  417MOL0     H56261  -0.596  11.483   4.234  0.3820 -0.3389 -1.2619
  417MOL0     H56262  -0.652  11.326   4.172  0.5424  0.9008 -0.6762
  417MOL0     H56263  -0.860  11.350   4.317 -2.4670  0.5148 -2.1004
  417MOL0     H56264  -0.811  11.519   4.351  0.6062  2.0031 -1.6134
  417MOL0     H56265  -0.859  11.398   4.057 -0.2379  0.9103 -0.2088
  417MOL0     H56266  -0.793  11.557   4.097 -2.7836  3.1477  1.7947
  417MOL0     H56267  -1.066  11.463   4.158 -0.5694 -0.8276 -1.9885
  417MOL0     H56268  -0.997  11.625   4.219  0.1532  0.2756 -1.1909
  417MOL0     H56269  -1.006  11.550   3.926  1.0000  1.0816 -1.1714
  417MOL0     H56270  -0.947  11.695   3.988  0.6008 -0.7461  0.7149
  417MOL0     H56271  -1.239  11.589   4.010  0.5921 -0.4704 -0.0185
  417MOL0     H56272  -1.184  11.727   4.108  2.8550  3.1927 -0.4471
  417MOL0     H56273  -1.173  11.700   3.809  1.2075 -0.3317 -0.1915
  417MOL0     H56274  -1.113  11.847   3.910 -0.8470 -0.2254 -0.7958
  417MOL0     H56275  -1.346  11.869   3.789  1.7245 -0.7773 -1.1608
  417MOL0     H56276  -1.357  11.885   3.961  1.8647  0.1035 -0.4580
  417MOL0     H56277  -0.358  11.418   4.350  0.6156 -0.1496  1.4127
  417MOL0     H56278  -0.173  11.275   4.295 -0.0063 -1.5910  0.8056
  417MOL0     H56279   0.090  11.004   4.613  2.5557 -1.2179  1.6937
  417MOL0     H56280   0.287  10.902   4.649 -2.0634 -1.2751  1.5044
  417MOL0     H56281   2.402  10.675   4.189  0.1426  1.0141 -0.4051
  417MOL0     H56282   2.636  10.639   4.279  0.1643 -0.9907  0.2603
  417MOL0     H56283   2.927  10.594   4.608  0.8826 -0.6625 -2.9394
  417MOL0     H56284   3.178  10.573   4.644 -0.5430  0.2169  1.0404
  417MOL0     H56285   3.372  10.660   4.815 -1.7138  2.2733 -0.6891
  417MOL0     H56286   3.416  10.595   4.650 -1.0857  0.4760 -2.1788
  417MOL0     H56287   3.554  10.823   4.791  1.9490  0.1297 -0.6585
  417MOL0     H56288   3.607  10.746   4.636 -1.8664 -1.9165 -1.3638
  417MOL0     H56289   3.730  10.593   4.738 -1.7197 -1.2867 -0.4904
  417MOL0     H56290   3.609  10.545   4.850  1.2372 -1.3694  1.3240
  417MOL0     H56291   3.808  10.772   4.884 -2.1929  0.6514  0.0604
  417MOL0     H56292   3.809  10.611   4.959 -1.3192 -0.6672  1.0620
  417MOL0     H56293   3.588  10.757   5.255 -1.8773  0.0483 -0.6649
  417MOL0     H56294   3.232  10.992   4.546  4.5145 -2.2852 -0.9221
  417MOL0     H56295   3.003  11.009   4.487  0.6340  0.5527  0.9437
  418MOL0     O56296   9.288   1.244   9.003 -0.6279  0.1963 -0.2059
  418MOL0     C56297   9.268   1.125   9.012 -0.7114  0.4792  0.4726
  418MOL0     O56298   9.364   1.033   9.061 -0.7197 -0.3373 -0.7469
  418MOL0     C56299   9.483   1.073   9.102 -0.1951 -0.1482  0.6435
  418MOL0     C56300   9.510   1.104   9.239 -0.6421 -0.5385  0.0906
  418MOL0     C56301   9.639   1.144   9.271 -1.1963  0.3310 -0.0932
  418MOL0     C56302   9.749   1.153   9.178 -0.4290  0.1484 -0.6350
  418MOL0     O56303   9.883   1.166   9.212  0.3713  0.5975 -0.2887
  418MOL0     C56304   9.932   1.143   9.338  0.4468  0.0337  0.6692
  418MOL0     C56305   9.972   1.271   9.403  0.6749  0.5233  0.6395
  418MOL0     C56306  10.041   1.240   9.539  0.7019  0.5882  0.1098
  418MOL0     C56307  10.201   1.235   9.534  0.9710 -0.0447 -0.6865
  418MOL0     C56308  10.250   1.217   9.675 -0.5256  0.0334  0.0950
  418MOL0     C56309  10.403   1.212   9.680  0.0301  0.3682 -0.8238
  418MOL0     C56310  10.450   1.172   9.824 -0.7570 -0.2426  0.1530
  418MOL0     C56311  10.596   1.120   9.817 -0.5392 -0.1939  0.1407
  418MOL0     N56312  10.637   1.049   9.942  0.5910  0.6537  0.0996
  418MOL0     C56313  10.663   1.114  10.060  0.1546  0.4443 -0.1509
  418MOL0     C56314  10.670   1.009  10.148  0.1203 -0.7837 -0.1464
  418MOL0     C56315  10.700   1.013  10.291  0.7662 -0.0045  0.5880
  418MOL0     C56316  10.848   1.001  10.324 -0.1439 -0.5108 -0.3349
  418MOL0     C56317  10.883   1.009  10.474  0.5196  0.3656  0.1861
  418MOL0     C56318  10.895   0.873  10.536  0.4810 -0.5064 -0.8456
  418MOL0     O56319  10.784   0.790  10.513 -0.0221  0.5981  0.2448
  418MOL0     C56320  10.667   0.786  10.582 -0.1831  0.2676  0.0888
  418MOL0     C56321  10.562   0.730  10.523  0.2493  0.5981 -0.4252
  418MOL0     C56322  10.428   0.736  10.577  0.1452 -0.4658 -0.9105
  418MOL0     C56323  10.318   0.687  10.491 -0.8912  0.5932 -0.1324
  418MOL0     C56324  10.418   0.783  10.710  0.8446  0.3817 -0.7863
  418MOL0     C56325  10.286   0.787  10.786 -0.0441  0.4210  0.3560
  418MOL0     O56326  10.288   0.829  10.918 -0.6279  0.4540 -0.0539
  418MOL0     C56327  10.173   0.794  10.998 -0.8825 -0.8891  0.4873
  418MOL0     C56328  10.173   0.673  11.067  0.1532 -0.2081 -0.0718
  418MOL0     C56329  10.065   0.626  11.136  0.9815  0.2629  0.1644
  418MOL0     C56330   9.948   0.691  11.131 -0.2341 -0.2764  0.0202
  418MOL0     O56331   9.847   0.644  11.209  0.4970 -0.2438 -0.2578
  418MOL0     C56332   9.716   0.684  11.167 -0.0466 -1.1043  0.1922
  418MOL0     C56333   9.616   0.606  11.247  0.4853  0.1434 -0.7612
  418MOL0     C56334   9.583   0.462  11.208 -0.5168  0.3034 -0.4821
  418MOL0     C56335   9.706   0.385  11.185  0.2231  0.2737 -0.0771
  418MOL0     C56336   9.679   0.236  11.174 -0.1802  0.6004  0.1724
  418MOL0     C56337   9.803   0.146  11.136  1.1042 -0.3307  0.3220
  418MOL0     C56338   9.936   0.205  11.186  0.1980  0.7445 -0.1469
  418MOL0     C56339  10.045   0.096  11.192 -0.2234  0.6339 -0.1419
  418MOL0    Cl56340  10.183   0.140  11.301 -0.2338 -0.0568  0.5096
  418MOL0     C56341   9.933   0.804  11.056 -1.0955 -0.2683 -0.7545
  418MOL0     C56342  10.048   0.860  10.990 -0.8505  0.5218 -0.2046
  418MOL0     O56343  10.185   0.760  10.723 -0.1901  0.6853  0.0364
  418MOL0     C56344  10.528   0.826  10.780  0.0701 -0.9366  0.5099
  418MOL0     C56345  10.652   0.829  10.714  0.1726  0.4052 -0.4831
  418MOL0     N56346  10.647   0.888  10.083 -0.0508 -0.6353  0.5018
  418MOL0     N56347  10.628   0.916   9.957  0.2957  0.4945 -0.3217
  418MOL0     C56348   9.720   1.130   9.047 -0.2955  0.0708  0.0726
  418MOL0     C56349   9.589   1.099   9.009 -0.4590 -0.8103  0.3864
  418MOL0     C56350   9.147   1.062   8.956  0.2742  1.2872 -0.5916
  418MOL0     C56351   9.036   1.146   8.913 -1.2419  0.4309 -0.1696
  418MOL0     C56352   8.921   1.095   8.858 -0.3979 -0.1232 -0.0401
  418MOL0     C56353   8.915   0.957   8.841 -1.0997 -0.1547 -0.5079
  418MOL0     O56354   8.818   0.885   8.776  0.4831  0.3460 -0.5363
  418MOL0     C56355   8.704   0.959   8.734  0.1839 -0.3513 -1.1522
  418MOL0     C56356   8.601   0.862   8.685 -0.0704  0.4234  0.6329
  418MOL0     C56357   8.476   0.937   8.625 -0.1550 -0.6620  0.0656
  418MOL0     C56358   8.352   0.851   8.624 -0.6859  0.2390 -1.0757
  418MOL0     C56359   8.305   0.822   8.762 -0.0474  0.3188  0.3467
  418MOL0     C56360   8.267   0.775   8.867 -0.3754  0.6989 -0.4569
  418MOL0     C56361   9.021   0.876   8.876 -0.3103  0.5818 -1.2960
  418MOL0     C56362   9.137   0.924   8.930  0.5171  0.1509 -0.0891
  418MOL0     H56363   9.436   1.087   9.317 -0.8823 -2.3172 -0.4715
  418MOL0     H56364   9.667   1.142   9.376  2.1157 -1.4899 -0.8725
  418MOL0     H56365   9.868   1.084   9.404  1.8791 -2.8034 -0.3344
  418MOL0     H56366  10.018   1.079   9.318 -1.0713 -2.2062  0.9478
  418MOL0     H56367  10.035   1.334   9.339 -1.5539  0.8383 -1.4092
  418MOL0     H56368   9.879   1.325   9.426 -0.4031 -1.6526  1.6382
  418MOL0     H56369   9.999   1.318   9.604  1.7962  0.9082  0.4577
  418MOL0     H56370  10.005   1.148   9.586 -0.0325 -0.1940 -1.9077
  418MOL0     H56371  10.234   1.160   9.462  0.8210 -1.4636  0.6699
  418MOL0     H56372  10.230   1.335   9.500  0.2931 -0.2547 -1.9422
  418MOL0     H56373  10.215   1.302   9.733 -0.7992  1.5971 -2.2234
  418MOL0     H56374  10.217   1.122   9.718 -1.1867  0.4212  0.4556
  418MOL0     H56375  10.442   1.131   9.618  1.9414 -0.7348  1.6140
  418MOL0     H56376  10.447   1.308   9.651 -1.2534  0.9673 -0.8440
  418MOL0     H56377  10.439   1.264   9.883  2.3516  0.3306  0.0340
  418MOL0     H56378  10.387   1.092   9.863  2.6734 -1.7966  3.0955
  418MOL0     H56379  10.665   1.204   9.814  1.8657 -2.0233  0.9642
  418MOL0     H56380  10.625   1.061   9.730 -1.3137 -2.7796  1.5296
  418MOL0     H56381  10.678   1.216  10.094 -1.2909 -0.2874  3.1423
  418MOL0     H56382  10.672   1.112  10.327  1.3291 -0.3331  1.9932
  418MOL0     H56383  10.646   0.937  10.349  0.5718  1.3374  2.2331
  418MOL0     H56384  10.895   1.087  10.275  0.9761 -0.5621  0.6252
  418MOL0     H56385  10.890   0.905  10.291  0.1877 -0.6777  0.5638
  418MOL0     H56386  10.811   1.080  10.516 -2.1875 -1.2468 -1.4437
  418MOL0     H56387  10.987   1.042  10.487  1.7530 -3.7493  3.5041
  418MOL0     H56388  10.907   0.898  10.642  1.8974  0.0991 -1.1364
  418MOL0     H56389  10.984   0.818  10.505  0.4458 -1.8735  1.2755
  418MOL0     H56390  10.582   0.704  10.419 -0.9126  1.5101 -0.8976
  418MOL0     H56391  10.349   0.659  10.390 -0.8804 -1.7207  0.4405
  418MOL0     H56392  10.260   0.610  10.543 -0.3640 -0.5536 -1.2002
  418MOL0     H56393  10.241   0.761  10.468 -1.7634 -0.3707 -0.4037
  418MOL0     H56394  10.269   0.624  11.065 -0.1490 -0.8025 -0.6650
  418MOL0     H56395  10.070   0.534  11.194 -2.9324 -0.7813 -0.8643
  418MOL0     H56396   9.696   0.788  11.195  0.2540 -0.7970 -0.7147
  418MOL0     H56397   9.695   0.665  11.062  1.1424  1.8984 -0.6790
  418MOL0     H56398   9.635   0.608  11.355  0.0434 -0.1244 -0.6757
  418MOL0     H56399   9.523   0.662  11.235  0.1384 -0.2906 -0.1662
  418MOL0     H56400   9.524   0.452  11.116 -0.1384  0.4846 -0.7487
  418MOL0     H56401   9.522   0.425  11.291 -2.0977  0.3855 -1.5685
  418MOL0     H56402   9.765   0.416  11.099  0.1463 -0.5616 -0.4360
  418MOL0     H56403   9.765   0.403  11.276  1.3665 -0.3318 -0.6788
  418MOL0     H56404   9.599   0.210  11.104 -0.3050  0.0498  0.5196
  418MOL0     H56405   9.638   0.211  11.272 -6.0298  2.2247 -1.4332
  418MOL0     H56406   9.788   0.052  11.190  2.5895 -0.2131  1.0073
  418MOL0     H56407   9.806   0.127  11.029  2.0035 -2.2617  0.6389
  418MOL0     H56408   9.924   0.248  11.286 -1.3568 -1.1060  0.5220
  418MOL0     H56409   9.967   0.287  11.121 -0.0438  2.5892  1.9510
  418MOL0     H56410  10.089   0.077  11.094 -1.0659  1.0327 -0.6126
  418MOL0     H56411  10.008  -0.000  11.228  3.4835  0.0137  2.5955
  418MOL0     H56412   9.837   0.855  11.059 -0.4754  0.9054  1.2146
  418MOL0     H56413  10.041   0.949  10.928 -2.5308 -0.1736 -1.0707
  418MOL0     H56414  10.523   0.861  10.882  0.9011 -1.7014  0.8345
  418MOL0     H56415  10.731   0.871  10.775 -0.6335  3.0114 -1.1132
  418MOL0     H56416   9.801   1.120   8.977  0.1669 -0.8967  0.7103
  418MOL0     H56417   9.559   1.097   8.905 -0.0756  2.4713  0.1056
  418MOL0     H56418   9.063   1.251   8.922  1.3745 -0.1298 -0.5804
  418MOL0     H56419   8.844   1.168   8.839  0.7789  1.9114  2.3927
  418MOL0     H56420   8.672   1.017   8.821  3.1825 -0.8124  0.3640
  418MOL0     H56421   8.731   1.027   8.653  0.8250 -0.4115 -0.9926
  418MOL0     H56422   8.563   0.793   8.761  0.3910 -1.0995 -0.4648
  418MOL0     H56423   8.651   0.803   8.607  1.8540  2.0503  0.5463
  418MOL0     H56424   8.486   0.962   8.519  0.8858 -3.1650 -0.4926
  418MOL0     H56425   8.461   1.030   8.681  1.8597 -0.2967  0.0554
  418MOL0     H56426   8.367   0.750   8.583 -0.2932  0.1189 -0.6477
  418MOL0     H56427   8.275   0.895   8.561 -1.1771  2.3305  0.8384
  418MOL0     H56428   8.228   0.722   8.951  2.4880 -2.8048 -1.0757
  418MOL0     H56429   9.009   0.770   8.858  0.2276 -0.2487  2.3822
  418MOL0     H56430   9.212   0.850   8.955 -2.0344 -2.6278 -0.0354
  419MOL0     O56431   0.628   5.189   4.910  0.6413 -0.1847 -0.4352
  419MOL0     C56432   0.717   5.131   4.975 -0.5653 -0.3548  0.3313
  419MOL0     O56433   0.698   5.040   5.073  0.4263 -0.6144  0.0640
  419MOL0     C56434   0.576   4.991   5.100  0.0137  0.5885  0.7944
  419MOL0     C56435   0.521   4.990   5.231 -0.6056 -0.2684  0.3047
  419MOL0     C56436   0.397   4.939   5.249 -0.6990  0.1243  0.1846
  419MOL0     C56437   0.323   4.883   5.140  0.1119 -0.3694  0.7731
  419MOL0     O56438   0.191   4.843   5.140 -0.1389 -0.9170  0.2587
  419MOL0     C56439   0.109   4.918   5.232  0.1352  0.2219 -0.0082
  419MOL0     C56440  -0.038   4.866   5.195 -0.0265 -0.2941 -0.9293
  419MOL0     C56441  -0.157   4.953   5.250 -0.2975  0.5111 -0.1604
  419MOL0     C56442  -0.283   4.885   5.243  1.1647  0.0684 -0.2792
  419MOL0     C56443  -0.399   4.981   5.299  0.7317  0.2848 -0.1066
  419MOL0     C56444  -0.522   4.894   5.286 -1.1548  0.4032  1.0076
  419MOL0     C56445  -0.656   4.964   5.301  0.0053  0.0515  0.5334
  419MOL0     C56446  -0.762   4.869   5.231  0.1507 -0.7422 -0.1411
  419MOL0     N56447  -0.889   4.930   5.201 -0.9970 -0.9781 -0.4995
  419MOL0     C56448  -0.997   4.850   5.164 -0.9942 -0.1453 -0.0107
  419MOL0     C56449  -1.080   4.941   5.107  0.4064 -0.0129 -0.3128
  419MOL0     C56450  -1.194   4.895   5.021 -0.8236  0.3070  0.0460
  419MOL0     C56451  -1.323   4.872   5.105 -0.6158 -0.4712  1.1303
  419MOL0     C56452  -1.438   4.827   5.009  0.0924 -0.1864 -0.5605
  419MOL0     C56453  -1.575   4.825   5.082  0.0657  0.8479  1.2510
  419MOL0     O56454  -1.623   4.950   5.107 -0.0526  0.3052  0.7112
  419MOL0     C56455  -1.749   4.988   5.131  0.6610 -0.8342  0.6801
  419MOL0     C56456  -1.771   5.117   5.175 -0.8386 -0.8438 -0.7888
  419MOL0     C56457  -1.892   5.163   5.202 -0.1717 -0.0633 -0.3364
  419MOL0     C56458  -1.892   5.304   5.271 -0.8257 -0.0067  0.0027
  419MOL0     C56459  -2.003   5.077   5.192 -0.0744  0.0987  0.6419
  419MOL0     C56460  -2.141   5.112   5.253 -0.6309  0.9082  0.3162
  419MOL0     O56461  -2.254   5.048   5.195 -0.3911  0.0305  0.6030
  419MOL0     C56462  -2.384   5.077   5.234 -0.2801 -0.5543 -0.1265
  419MOL0     C56463  -2.422   5.120   5.364  0.8334 -0.6391 -0.5053
  419MOL0     C56464  -2.557   5.133   5.403  0.0360  0.2241  0.1112
  419MOL0     C56465  -2.655   5.126   5.306 -0.4187  0.1037  0.3383
  419MOL0     O56466  -2.789   5.157   5.325  0.0913  0.8474  0.0343
  419MOL0     C56467  -2.836   5.157   5.460 -0.4081 -0.5964 -0.0449
  419MOL0     C56468  -2.981   5.199   5.465 -0.1352 -0.7912  0.0014
  419MOL0     C56469  -2.995   5.347   5.413 -0.2794 -0.4671 -0.1626
  419MOL0     C56470  -3.134   5.409   5.436  0.0001 -0.2052 -0.0988
  419MOL0     C56471  -3.148   5.549   5.370 -0.4604 -0.2518 -0.4485
  419MOL0     C56472  -3.059   5.660   5.429 -0.4530  0.3848  0.2373
  419MOL0     C56473  -3.083   5.790   5.345 -0.2238  0.6808  0.6628
  419MOL0     C56474  -3.013   5.908   5.412  0.0836  1.1600 -0.5665
  419MOL0    Cl56475  -2.841   5.876   5.418 -0.5407  0.2959 -0.3251
  419MOL0     C56476  -2.617   5.100   5.172  0.6590  0.1507 -0.3017
  419MOL0     C56477  -2.488   5.077   5.133  0.5006  0.1103 -0.7002
  419MOL0     O56478  -2.149   5.190   5.352 -0.0745 -0.7527  0.6753
  419MOL0     C56479  -1.994   4.950   5.124 -1.9751  0.1440 -0.0693
  419MOL0     C56480  -1.855   4.912   5.095  0.4946 -0.9882 -0.1647
  419MOL0     N56481  -1.032   5.073   5.122 -0.2070  0.1526  0.1682
  419MOL0     N56482  -0.917   5.061   5.175 -0.4297 -0.2688  0.1190
  419MOL0     C56483   0.388   4.865   5.022 -0.0924 -0.5474  0.8128
  419MOL0     C56484   0.514   4.916   5.000  0.6382  0.7416  0.2249
  419MOL0     C56485   0.852   5.169   4.940  0.3081 -0.1736 -1.0093
  419MOL0     C56486   0.958   5.132   5.025 -0.1768 -0.1310 -0.4452
  419MOL0     C56487   1.089   5.167   4.997  0.7309  0.6194 -0.6648
  419MOL0     C56488   1.116   5.255   4.894 -0.1154  0.1305 -0.0943
  419MOL0     O56489   1.243   5.306   4.857 -0.3369  0.5216 -0.0882
  419MOL0     C56490   1.354   5.248   4.933  0.8644  0.3269 -0.1781
  419MOL0     C56491   1.480   5.318   4.886  0.0100 -0.0551 -0.3415
  419MOL0     C56492   1.616   5.256   4.921  0.0885  0.4725 -0.1112
  419MOL0     C56493   1.630   5.232   5.075 -0.1435  0.4233  0.1877
  419MOL0     C56494   1.589   5.341   5.155 -0.4994  0.1115  0.2639
  419MOL0     C56495   1.538   5.432   5.222 -0.6926 -0.0752  1.0860
  419MOL0     C56496   1.006   5.305   4.818  0.1758 -0.4379 -0.7072
  419MOL0     C56497   0.878   5.262   4.834 -0.0308  0.6045  1.0630
  419MOL0     H56498   0.577   5.013   5.321 -0.8343 -1.0214  0.6497
  419MOL0     H56499   0.353   4.951   5.347  1.2342 -1.6788  1.3708
  419MOL0     H56500   0.139   4.902   5.336 -1.4633 -1.0643  0.2911
  419MOL0     H56501   0.114   5.027   5.220  2.3928 -0.0631 -2.4128
  419MOL0     H56502  -0.043   4.861   5.086 -2.5590 -2.8128 -0.8212
  419MOL0     H56503  -0.036   4.759   5.219  3.8121 -0.4511 -1.3108
  419MOL0     H56504  -0.133   4.990   5.350 -0.7325  0.9119 -0.1957
  419MOL0     H56505  -0.169   5.044   5.189  0.7585 -0.4242 -1.8458
  419MOL0     H56506  -0.306   4.859   5.139  0.5982 -2.5399  0.4284
  419MOL0     H56507  -0.272   4.793   5.301 -1.1359  0.0857  0.2955
  419MOL0     H56508  -0.381   5.008   5.403  2.4618  1.4078 -0.6543
  419MOL0     H56509  -0.396   5.076   5.245 -0.2485  1.0967  1.2170
  419MOL0     H56510  -0.512   4.853   5.185  3.1907 -0.1047  1.4477
  419MOL0     H56511  -0.516   4.813   5.359  0.2129 -1.0461 -0.6145
  419MOL0     H56512  -0.681   4.985   5.405  0.1176  1.2741  0.3359
  419MOL0     H56513  -0.648   5.058   5.246  0.1745  1.0074  2.1307
  419MOL0     H56514  -0.795   4.785   5.294  0.2612 -0.9855 -0.4049
  419MOL0     H56515  -0.726   4.844   5.131 -1.2776  2.2150 -1.5139
  419MOL0     H56516  -0.994   4.742   5.161  2.5095 -0.1470 -0.2243
  419MOL0     H56517  -1.201   4.972   4.944  1.1359 -1.0177 -1.5720
  419MOL0     H56518  -1.168   4.804   4.965 -0.0933 -0.4551  1.5537
  419MOL0     H56519  -1.349   4.966   5.154 -1.9394  0.2981 -0.9349
  419MOL0     H56520  -1.303   4.788   5.172  0.4511 -1.2805 -0.1622
  419MOL0     H56521  -1.416   4.723   4.983  0.9891 -0.0730 -0.2969
  419MOL0     H56522  -1.455   4.882   4.916  0.3414 -1.5339 -1.4361
  419MOL0     H56523  -1.563   4.792   5.185  0.1262  0.7257  1.2054
  419MOL0     H56524  -1.644   4.762   5.024  0.7961  1.9733 -0.9450
  419MOL0     H56525  -1.680   5.175   5.186  0.1590 -2.6894  1.5292
  419MOL0     H56526  -1.811   5.364   5.228 -1.9845 -0.9718 -3.9552
  419MOL0     H56527  -1.984   5.361   5.263  0.4050  2.4852  2.1480
  419MOL0     H56528  -1.872   5.285   5.377  1.8997 -0.4312 -0.4964
  419MOL0     H56529  -2.358   5.130   5.451  3.6608 -0.0235 -2.4996
  419MOL0     H56530  -2.587   5.161   5.504  2.8169  0.4018  0.9794
  419MOL0     H56531  -2.820   5.059   5.505  2.0884 -0.5087 -0.6225
  419MOL0     H56532  -2.778   5.234   5.511  0.8676 -2.5589  1.6039
  419MOL0     H56533  -3.046   5.135   5.404  0.5626 -1.2268 -0.2920
  419MOL0     H56534  -3.017   5.198   5.568 -0.0100 -2.3634  0.0488
  419MOL0     H56535  -2.973   5.349   5.306  1.3866  2.0751  0.1456
  419MOL0     H56536  -2.913   5.402   5.460  1.9513 -1.5509 -2.5262
  419MOL0     H56537  -3.210   5.338   5.401 -1.3159  0.8146  0.5780
  419MOL0     H56538  -3.147   5.423   5.544  0.4838  0.9260 -0.1707
  419MOL0     H56539  -3.251   5.583   5.377 -0.0660  0.8698  0.2299
  419MOL0     H56540  -3.106   5.545   5.269  1.0570 -1.5342  0.1879
  419MOL0     H56541  -3.082   5.685   5.533 -0.1992 -1.7364  0.8326
  419MOL0     H56542  -2.953   5.633   5.423 -0.7033 -0.2740 -1.7134
  419MOL0     H56543  -3.191   5.800   5.360  0.0327 -0.0857  3.6511
  419MOL0     H56544  -3.049   5.779   5.242  0.8725 -1.8063  1.2066
  419MOL0     H56545  -3.054   5.938   5.508 -2.4456 -0.1377 -1.1362
  419MOL0     H56546  -3.019   5.996   5.347  0.6765  0.3879 -1.7008
  419MOL0     H56547  -2.694   5.109   5.096 -0.4845 -0.2891  0.7696
  419MOL0     H56548  -2.450   5.078   5.031  0.0078  2.7348 -0.9367
  419MOL0     H56549  -2.068   4.871   5.126 -0.8884 -0.9282 -1.1803
  419MOL0     H56550  -1.839   4.812   5.058  0.9051 -1.3706  0.9900
  419MOL0     H56551   0.334   4.817   4.941 -1.6790 -0.5002  1.8133
  419MOL0     H56552   0.554   4.889   4.903  3.7034  2.3877  0.8838
  419MOL0     H56553   0.954   5.065   5.110  1.5931  0.2613 -0.0073
  419MOL0     H56554   1.162   5.107   5.051 -0.1709 -0.4234 -0.5549
  419MOL0     H56555   1.349   5.276   5.038  0.8966 -0.2643 -0.0157
  419MOL0     H56556   1.359   5.143   4.905 -2.0629 -0.0357  0.3547
  419MOL0     H56557   1.481   5.426   4.905 -0.6011 -0.0586 -0.2687
  419MOL0     H56558   1.469   5.316   4.778  0.1666  1.0347 -0.3917
  419MOL0     H56559   1.697   5.320   4.885  1.1414 -1.1147 -0.6939
  419MOL0     H56560   1.633   5.155   4.882  0.8909  0.8329 -0.7372
  419MOL0     H56561   1.737   5.217   5.089 -0.6608 -0.5019  4.5866
  419MOL0     H56562   1.572   5.147   5.111 -3.4099  2.5694  0.4416
  419MOL0     H56563   1.507   5.518   5.278 -2.0601  0.0893  0.1222
  419MOL0     H56564   1.030   5.371   4.735 -2.6099  1.5195 -0.0981
  419MOL0     H56565   0.794   5.294   4.773 -1.0738  0.1753  2.2356
  420MOL0     O56566   3.767   9.712   7.387 -0.1889 -0.0744 -0.1609
  420MOL0     C56567   3.807   9.682   7.501  0.1885 -0.0107  0.2500
  420MOL0     O56568   3.731   9.643   7.607  0.1191 -0.0886  0.5090
  420MOL0     C56569   3.616   9.576   7.588  0.0244 -0.3764 -1.1218
  420MOL0     C56570   3.600   9.475   7.494  0.3999 -0.6118 -0.3525
  420MOL0     C56571   3.477   9.432   7.457  0.1114  0.1908  0.4794
  420MOL0     C56572   3.359   9.464   7.528 -0.1757 -1.0974 -0.4683
  420MOL0     O56573   3.235   9.400   7.507 -0.6744  0.2905 -0.5592
  420MOL0     C56574   3.124   9.485   7.485 -0.0618  0.2747  1.1708
  420MOL0     C56575   2.999   9.402   7.473  0.0919 -0.1475  0.0080
  420MOL0     C56576   2.944   9.376   7.332  0.2891  0.2570  0.2129
  420MOL0     C56577   2.824   9.285   7.325  0.3308 -0.5275  0.6666
  420MOL0     C56578   2.874   9.136   7.320  0.4641 -0.1911  0.5079
  420MOL0     C56579   2.761   9.038   7.364  0.5431  0.0853  0.4553
  420MOL0     C56580   2.636   9.046   7.268  0.0300  0.5407 -0.5003
  420MOL0     C56581   2.533   8.940   7.297 -0.7444  0.1607 -0.1646
  420MOL0     N56582   2.398   8.973   7.240 -0.4205  0.4181  0.2176
  420MOL0     C56583   2.289   9.030   7.293 -0.9141 -0.7800 -0.2554
  420MOL0     C56584   2.202   9.038   7.197 -0.2287 -1.0739  0.7900
  420MOL0     C56585   2.073   9.115   7.207 -0.2405 -0.1560 -0.0803
  420MOL0     C56586   1.962   9.072   7.120 -0.6615  0.1228 -0.1628
  420MOL0     C56587   1.965   9.134   6.976  0.0933 -0.5585  0.5333
  420MOL0     C56588   1.823   9.155   6.925  0.2174 -0.3136  0.2760
  420MOL0     O56589   1.767   9.022   6.918  0.0948  0.5565  0.4612
  420MOL0     C56590   1.656   9.003   6.840 -0.1894 -0.2372 -0.8598
  420MOL0     C56591   1.646   8.882   6.785  0.2981  0.5052 -0.1764
  420MOL0     C56592   1.536   8.842   6.704  0.4898  1.0047 -0.8502
  420MOL0     C56593   1.529   8.706   6.658  0.5753  0.2940  0.1629
  420MOL0     C56594   1.437   8.940   6.683  0.4617 -0.1197  0.3316
  420MOL0     C56595   1.321   8.916   6.588  0.0707 -0.2535 -0.2960
  420MOL0     O56596   1.271   9.028   6.531 -0.5663 -0.2467  0.0222
  420MOL0     C56597   1.161   9.010   6.449 -0.2954 -0.0158 -0.3007
  420MOL0     C56598   1.169   9.021   6.303  0.3545  0.0977 -0.4135
  420MOL0     C56599   1.058   8.994   6.230  1.1181  0.2808  0.5997
  420MOL0     C56600   0.937   8.952   6.288  0.3330 -0.7162 -0.9719
  420MOL0     O56601   0.833   8.898   6.217  0.4611  0.1372 -0.0728
  420MOL0     C56602   0.697   8.925   6.262  0.2465  0.1402  0.6800
  420MOL0     C56603   0.608   8.866   6.155 -0.4680  0.1464  1.0998
  420MOL0     C56604   0.461   8.913   6.167  0.0150 -0.3496 -1.0670
  420MOL0     C56605   0.363   8.854   6.073  0.0721  0.4563  0.0815
  420MOL0     C56606   0.217   8.862   6.131 -1.2670 -0.0399  0.1484
  420MOL0     C56607   0.109   8.794   6.040  0.4683 -0.5536 -0.1480
  420MOL0     C56608  -0.035   8.843   6.067  0.4001  0.3505 -0.0279
  420MOL0     C56609  -0.090   8.802   6.203 -0.1382  0.7697 -0.3294
  420MOL0    Cl56610  -0.088   8.627   6.213  0.0386 -0.1670  0.0635
  420MOL0     C56611   0.928   8.964   6.426 -0.1349 -0.5226 -0.6066
  420MOL0     C56612   1.036   8.986   6.502 -0.7006  0.0899  0.4391
  420MOL0     O56613   1.268   8.804   6.577  0.7372  0.3457  0.2178
  420MOL0     C56614   1.450   9.068   6.739 -0.8337 -0.2423  0.0609
  420MOL0     C56615   1.556   9.099   6.816  0.5765 -0.3448  0.2380
  420MOL0     N56616   2.253   8.975   7.085 -0.3090  0.1138  0.3910
  420MOL0     N56617   2.368   8.936   7.112 -0.0102  0.8095  0.2299
  420MOL0     C56618   3.372   9.571   7.626  0.4509 -0.4267  0.6433
  420MOL0     C56619   3.500   9.627   7.653  0.9525 -0.1789  0.8353
  420MOL0     C56620   3.955   9.684   7.522  0.2171  0.2902  0.3160
  420MOL0     C56621   4.041   9.756   7.442  0.3741  0.5536 -0.0382
  420MOL0     C56622   4.175   9.769   7.462 -0.3542 -0.1062 -0.7321
  420MOL0     C56623   4.232   9.687   7.566 -0.0913 -0.0097 -0.2391
  420MOL0     O56624   4.370   9.673   7.570 -0.2305  1.1827  1.1633
  420MOL0     C56625   4.427   9.764   7.666  0.2830 -0.0501 -0.2306
  420MOL0     C56626   4.581   9.745   7.675  0.6382  0.5417 -0.0586
  420MOL0     C56627   4.643   9.798   7.543 -0.4227 -0.6083  0.4408
  420MOL0     C56628   4.785   9.727   7.516  0.8779 -0.2003  0.7189
  420MOL0     C56629   4.892   9.748   7.607 -0.0556 -0.6011 -0.0151
  420MOL0     C56630   4.977   9.779   7.690  0.8085  0.5537 -0.1483
  420MOL0     C56631   4.150   9.614   7.652 -1.0042  0.5128  0.4144
  420MOL0     C56632   4.013   9.610   7.629 -0.5755  0.5055 -0.3438
  420MOL0     H56633   3.690   9.432   7.450  3.0284  3.9061 -0.0640
  420MOL0     H56634   3.481   9.351   7.385  1.2521  1.3373 -0.8032
  420MOL0     H56635   3.108   9.543   7.576  0.8467 -2.6125  3.2993
  420MOL0     H56636   3.147   9.547   7.397 -0.8529 -0.0417  0.7348
  420MOL0     H56637   3.013   9.306   7.523  6.3633  0.1957 -0.3429
  420MOL0     H56638   2.918   9.452   7.527 -0.6851 -0.9947 -0.3349
  420MOL0     H56639   2.902   9.471   7.298 -1.1755 -0.1906  0.7175
  420MOL0     H56640   3.029   9.334   7.278 -0.5780 -3.1224  1.2551
  420MOL0     H56641   2.760   9.308   7.411 -0.3698 -2.4071  0.6960
  420MOL0     H56642   2.764   9.307   7.237 -0.6703  0.6268  1.6026
  420MOL0     H56643   2.914   9.127   7.218  0.9459 -0.7160  0.7338
  420MOL0     H56644   2.962   9.133   7.386  1.1977  2.9848 -0.1551
  420MOL0     H56645   2.793   8.935   7.348  0.2353  0.4809 -4.0291
  420MOL0     H56646   2.732   9.059   7.468  1.4680 -2.5009  1.3077
  420MOL0     H56647   2.595   9.147   7.276 -1.2521 -0.0858  1.6851
  420MOL0     H56648   2.666   9.023   7.165  0.7446  1.4534 -0.5040
  420MOL0     H56649   2.520   8.914   7.403  1.1552 -0.9319 -0.1375
  420MOL0     H56650   2.567   8.850   7.243  0.5585  1.0447 -0.8799
  420MOL0     H56651   2.280   9.069   7.394  0.8874 -0.5984 -0.1332
  420MOL0     H56652   2.045   9.099   7.312 -1.0064 -3.5905 -0.6722
  420MOL0     H56653   2.080   9.223   7.195 -0.5067 -0.1182  0.0981
  420MOL0     H56654   1.865   9.087   7.169 -0.0123 -2.0664  1.9527
  420MOL0     H56655   1.978   8.966   7.100  1.7127 -0.3867  3.5280
  420MOL0     H56656   2.024   9.068   6.911 -1.0168 -1.5067  0.4524
  420MOL0     H56657   2.008   9.234   6.967 -0.2667 -0.5160 -1.1138
  420MOL0     H56658   1.826   9.203   6.827 -0.7609 -1.4297 -0.3215
  420MOL0     H56659   1.769   9.216   6.999 -0.4186 -0.6258  0.0804
  420MOL0     H56660   1.724   8.811   6.811  0.0362 -0.1269 -1.0853
  420MOL0     H56661   1.541   8.701   6.549  1.2278 -2.6179  0.2918
  420MOL0     H56662   1.605   8.648   6.710  1.6113  0.1337 -1.4607
  420MOL0     H56663   1.427   8.668   6.675  0.2445  1.1159  0.0458
  420MOL0     H56664   1.259   9.047   6.248  0.5543  2.6911  1.0044
  420MOL0     H56665   1.054   9.000   6.122  0.6762 -2.5733  0.3798
  420MOL0     H56666   0.660   8.883   6.356  0.9130 -4.0534 -0.6864
  420MOL0     H56667   0.684   9.032   6.248  3.4472  0.2829 -3.1621
  420MOL0     H56668   0.638   8.898   6.054 -2.8608 -0.9514 -0.0416
  420MOL0     H56669   0.617   8.758   6.162 -2.1990 -0.1831 -0.6930
  420MOL0     H56670   0.461   9.023   6.165  1.4283 -0.3483 -2.1144
  420MOL0     H56671   0.431   8.885   6.268  0.3534  2.1535 -0.2042
  420MOL0     H56672   0.368   8.904   5.976  1.7164 -0.2162 -0.2243
  420MOL0     H56673   0.377   8.746   6.060  0.3177  0.4620  0.2943
  420MOL0     H56674   0.195   8.969   6.135  4.0890  1.3141  4.0077
  420MOL0     H56675   0.204   8.826   6.234 -1.3162 -1.0688 -0.2042
  420MOL0     H56676   0.130   8.814   5.935  2.1222 -2.4737 -0.2492
  420MOL0     H56677   0.123   8.686   6.048  1.4907 -0.4237  0.0075
  420MOL0     H56678  -0.101   8.793   5.997  2.6170 -0.9739 -1.2726
  420MOL0     H56679  -0.047   8.952   6.059 -0.5401  0.4283  1.8121
  420MOL0     H56680  -0.189   8.847   6.220 -0.7618 -1.5620  3.4534
  420MOL0     H56681  -0.026   8.840   6.283  2.6171  0.4212 -2.2347
  420MOL0     H56682   0.836   8.959   6.484  0.0239  3.7349  0.3233
  420MOL0     H56683   1.026   8.988   6.610 -1.6968  0.4418  0.3449
  420MOL0     H56684   1.386   9.146   6.699 -0.3969  0.4832  0.7571
  420MOL0     H56685   1.562   9.199   6.859 -1.4816 -0.9219  2.0709
  420MOL0     H56686   3.285   9.598   7.686 -1.4048 -3.9117 -0.2327
  420MOL0     H56687   3.512   9.714   7.716 -1.0613  0.3271  0.5854
  420MOL0     H56688   3.997   9.811   7.359 -0.0246 -2.6399 -2.1371
  420MOL0     H56689   4.242   9.828   7.399  2.7455 -1.2361  1.2851
  420MOL0     H56690   4.413   9.866   7.628 -1.0984 -0.4446 -0.8080
  420MOL0     H56691   4.378   9.759   7.763 -0.7248 -0.3506 -0.7431
  420MOL0     H56692   4.608   9.643   7.705 -2.3776 -0.6906 -1.1852
  420MOL0     H56693   4.618   9.807   7.758  0.1671  0.5086  0.1804
  420MOL0     H56694   4.665   9.905   7.552  1.5914 -1.0731  1.6307
  420MOL0     H56695   4.579   9.784   7.455 -0.9771  0.9738  0.5479
  420MOL0     H56696   4.823   9.763   7.420  2.2280  0.3083  1.4199
  420MOL0     H56697   4.765   9.620   7.528 -0.0962 -0.2054 -0.6701
  420MOL0     H56698   5.055   9.811   7.756  3.0115 -2.5594 -1.0051
  420MOL0     H56699   4.190   9.556   7.734  0.0521 -0.6411 -0.8669
  420MOL0     H56700   3.945   9.559   7.696 -0.2751 -1.5197 -1.4992
  421MOL0     O56701   4.804   8.827   7.932  0.5111 -1.0149  0.3656
  421MOL0     C56702   4.765   8.822   7.813 -0.3489  0.5941 -0.8972
  421MOL0     O56703   4.839   8.849   7.704  0.7530  0.3625  0.5007
  421MOL0     C56704   4.970   8.890   7.723  0.4594 -0.0203  0.0301
  421MOL0     C56705   5.076   8.808   7.675 -0.4358  0.4061 -0.1414
  421MOL0     C56706   5.205   8.844   7.670  0.5575 -0.4820  0.2166
  421MOL0     C56707   5.244   8.968   7.728 -0.1801  0.6781 -0.6100
  421MOL0     O56708   5.380   8.990   7.747  0.2794  0.4199  0.0279
  421MOL0     C56709   5.423   9.122   7.736 -0.6054 -0.5747 -0.2620
  421MOL0     C56710   5.582   9.110   7.729  0.2280 -1.0610  1.0408
  421MOL0     C56711   5.650   9.022   7.834 -0.3995 -0.5659 -0.1016
  421MOL0     C56712   5.803   9.027   7.800  0.1345  0.3404 -0.0742
  421MOL0     C56713   5.906   8.935   7.884  0.8872 -0.5840  0.4099
  421MOL0     C56714   5.874   8.782   7.874  0.3794 -0.5058  0.4070
  421MOL0     C56715   5.982   8.691   7.936 -0.2669 -0.2718  0.1186
  421MOL0     C56716   5.962   8.546   7.926 -0.2008 -0.0949  0.6876
  421MOL0     N56717   5.870   8.485   8.024 -0.8497 -0.7822 -0.6502
  421MOL0     C56718   5.735   8.498   8.021  0.1627  0.6899  0.0363
  421MOL0     C56719   5.689   8.408   8.116 -0.3383  1.1022  0.3618
  421MOL0     C56720   5.553   8.398   8.171 -0.4211  0.3323 -0.5487
  421MOL0     C56721   5.471   8.282   8.123 -0.0959  0.0634 -1.1091
  421MOL0     C56722   5.465   8.279   7.968  0.6874  0.1872  0.2293
  421MOL0     C56723   5.333   8.227   7.911  0.0993  0.2326 -0.1532
  421MOL0     O56724   5.291   8.093   7.949  0.5688 -0.3026 -0.4894
  421MOL0     C56725   5.156   8.082   7.983  0.1565  0.3704 -0.1726
  421MOL0     C56726   5.059   8.052   7.886 -0.0358  0.1694  0.1051
  421MOL0     C56727   4.919   8.057   7.921 -0.3538  0.2090 -0.3212
  421MOL0     C56728   4.823   8.020   7.803 -0.2172  0.4940  0.5727
  421MOL0     C56729   4.873   8.069   8.055 -0.8037  0.2287 -0.5995
  421MOL0     C56730   4.736   8.053   8.104 -0.2284  0.5362 -0.5053
  421MOL0     O56731   4.711   7.989   8.222  0.1895  0.5774 -0.1943
  421MOL0     C56732   4.585   7.969   8.270  0.0816  0.0417  0.1792
  421MOL0     C56733   4.481   7.906   8.198 -0.5490  0.1888  1.2665
  421MOL0     C56734   4.348   7.923   8.242  0.3864 -0.2125  0.3176
  421MOL0     C56735   4.321   7.983   8.368 -0.0055  0.0631 -0.3004
  421MOL0     O56736   4.189   7.993   8.403 -0.1100  0.5857  0.2140
  421MOL0     C56737   4.162   8.078   8.511  0.1122  0.5441 -0.5307
  421MOL0     C56738   4.009   8.123   8.505 -0.5677  0.3325 -0.1743
  421MOL0     C56739   3.980   8.216   8.388  0.5291 -1.1180 -0.3683
  421MOL0     C56740   3.826   8.242   8.376 -0.2255 -0.3571 -0.7234
  421MOL0     C56741   3.764   8.310   8.498  0.4129  0.5084 -0.4939
  421MOL0     C56742   3.613   8.352   8.473 -0.1298  0.8278  0.0550
  421MOL0     C56743   3.590   8.465   8.371 -0.1154 -0.4636  0.6152
  421MOL0     C56744   3.686   8.574   8.376  0.3623  0.2550 -0.2086
  421MOL0    Cl56745   3.700   8.647   8.539 -0.3072 -0.4204  0.2630
  421MOL0     C56746   4.427   8.010   8.456  0.2900 -0.2285 -0.0324
  421MOL0     C56747   4.552   8.014   8.397 -0.0798  0.6332 -0.1510
  421MOL0     O56748   4.649   8.090   8.033 -0.1521  0.5807  0.4207
  421MOL0     C56749   4.977   8.088   8.155 -0.1010  1.5229  0.6969
  421MOL0     C56750   5.110   8.087   8.119  0.0203 -0.1554  0.3372
  421MOL0     N56751   5.796   8.344   8.168 -0.0733 -0.6047  0.4227
  421MOL0     N56752   5.900   8.394   8.118 -0.1721  0.7592  0.3822
  421MOL0     C56753   5.141   9.056   7.772  0.1181 -0.2886  0.1323
  421MOL0     C56754   5.001   9.016   7.775 -0.3020  0.3025 -0.4449
  421MOL0     C56755   4.625   8.784   7.795 -0.3459 -0.5891 -1.1093
  421MOL0     C56756   4.556   8.801   7.673  0.1610 -0.6819  0.0609
  421MOL0     C56757   4.419   8.774   7.647 -0.0881 -0.0549 -0.1757
  421MOL0     C56758   4.344   8.737   7.762  0.3339  0.2766 -0.7378
  421MOL0     O56759   4.198   8.719   7.762 -0.0623 -0.0203 -0.5605
  421MOL0     C56760   4.140   8.687   7.637 -0.1569  0.5776  0.0349
  421MOL0     C56761   4.006   8.620   7.679 -0.0286  0.2504  0.9172
  421MOL0     C56762   3.909   8.610   7.561 -0.7152  0.2326  0.6433
  421MOL0     C56763   3.787   8.523   7.572  0.6785  0.3006 -0.2102
  421MOL0     C56764   3.698   8.542   7.457 -0.8592  0.2364 -0.5719
  421MOL0     C56765   3.619   8.533   7.367 -0.5229 -0.3799  0.3737
  421MOL0     C56766   4.407   8.727   7.892 -0.4908  0.1071 -0.2264
  421MOL0     C56767   4.546   8.755   7.905  1.0970 -1.1432  0.4426
  421MOL0     H56768   5.049   8.712   7.631  1.4536 -1.6545  2.8211
  421MOL0     H56769   5.275   8.771   7.631 -0.9678 -0.0404 -3.7419
  421MOL0     H56770   5.388   9.173   7.646 -0.9456  0.6119  0.5136
  421MOL0     H56771   5.403   9.184   7.824  0.7979 -0.2657 -0.1349
  421MOL0     H56772   5.608   9.076   7.629 -0.5766  0.3231  0.3335
  421MOL0     H56773   5.612   9.215   7.734 -2.7466  0.0374 -1.2687
  421MOL0     H56774   5.622   9.064   7.932 -2.2070  0.3378 -0.9552
  421MOL0     H56775   5.624   8.916   7.833  0.6923 -0.9486  2.3703
  421MOL0     H56776   5.826   8.993   7.698  0.2972 -1.2848  0.4902
  421MOL0     H56777   5.828   9.133   7.815 -2.1397  0.5994  2.5391
  421MOL0     H56778   6.008   8.956   7.849  0.5679 -1.2533 -1.0116
  421MOL0     H56779   5.895   8.961   7.990  0.7170 -1.1942  0.5482
  421MOL0     H56780   5.778   8.761   7.923  1.5692 -1.4440  2.4602
  421MOL0     H56781   5.875   8.756   7.768  2.7016 -0.9992  0.5094
  421MOL0     H56782   6.078   8.721   7.894 -0.4883  1.8944  1.0443
  421MOL0     H56783   5.987   8.722   8.041  0.8925 -1.0659  0.3086
  421MOL0     H56784   6.066   8.512   7.936  0.1142  0.8247  0.5777
  421MOL0     H56785   5.925   8.534   7.824 -0.5437  1.4092  0.6165
  421MOL0     H56786   5.686   8.574   7.962  0.5954  1.5030  0.7103
  421MOL0     H56787   5.573   8.384   8.277 -1.0135 -0.1985 -0.4971
  421MOL0     H56788   5.508   8.495   8.145 -1.0648  0.1004 -0.3170
  421MOL0     H56789   5.368   8.288   8.160  1.2616 -0.2474  3.3098
  421MOL0     H56790   5.529   8.194   8.154 -1.2766  0.0119  1.1677
  421MOL0     H56791   5.544   8.214   7.929 -1.2953 -4.7609  3.5418
  421MOL0     H56792   5.477   8.382   7.932  1.8735 -0.2749 -0.7662
  421MOL0     H56793   5.350   8.219   7.803  1.1307  0.8963 -0.0500
  421MOL0     H56794   5.255   8.300   7.934 -0.8267 -0.4134 -1.1398
  421MOL0     H56795   5.089   8.050   7.782  1.0354 -2.2358  0.4050
  421MOL0     H56796   4.874   8.037   7.708  0.1416  3.5110  1.1849
  421MOL0     H56797   4.786   7.917   7.806 -0.7432  0.6845  0.7390
  421MOL0     H56798   4.740   8.091   7.803  0.2812  1.1800 -2.2098
  421MOL0     H56799   4.501   7.866   8.099 -2.8398 -1.1007  1.2789
  421MOL0     H56800   4.271   7.900   8.168  2.1112  0.8951 -1.9345
  421MOL0     H56801   4.175   8.034   8.610 -1.0110 -0.4603 -0.8171
  421MOL0     H56802   4.220   8.171   8.508  2.7059 -0.8782  1.5947
  421MOL0     H56803   3.936   8.042   8.516 -0.9587  0.8889  1.7074
  421MOL0     H56804   3.993   8.190   8.589  2.5921  0.6613  0.3056
  421MOL0     H56805   4.002   8.169   8.292 -1.5162 -0.4187 -1.2179
  421MOL0     H56806   4.031   8.312   8.395 -1.5701  0.0411 -0.4617
  421MOL0     H56807   3.816   8.299   8.284 -0.2434  1.9890  0.6416
  421MOL0     H56808   3.774   8.146   8.367 -0.5497 -0.5360  2.0728
  421MOL0     H56809   3.828   8.395   8.528 -0.1132  0.9783 -0.6836
  421MOL0     H56810   3.765   8.244   8.586 -0.3502  2.9392  1.4701
  421MOL0     H56811   3.559   8.263   8.439  1.1651  0.9081 -2.4777
  421MOL0     H56812   3.577   8.392   8.568  7.1908  3.0337  2.5358
  421MOL0     H56813   3.487   8.499   8.383  0.9509  2.5362  2.7102
  421MOL0     H56814   3.604   8.413   8.276  0.2955  1.3510 -0.3757
  421MOL0     H56815   3.646   8.648   8.306  0.4903  0.7073  0.1913
  421MOL0     H56816   3.788   8.545   8.349  0.3169  1.2031 -1.4852
  421MOL0     H56817   4.398   8.035   8.557 -3.0451  0.6449 -1.0629
  421MOL0     H56818   4.631   8.056   8.458 -0.9686  0.4164  1.2059
  421MOL0     H56819   4.953   8.097   8.260 -0.4619  1.1540  0.6497
  421MOL0     H56820   5.176   8.092   8.205 -0.8619  0.2393  1.0056
  421MOL0     H56821   5.158   9.154   7.816 -0.2809  0.2926 -0.9745
  421MOL0     H56822   4.923   9.083   7.810 -0.1768 -0.0497  0.5570
  421MOL0     H56823   4.612   8.839   7.588  0.6966 -0.3589  0.5469
  421MOL0     H56824   4.373   8.778   7.548  0.2057  3.4977 -0.2710
  421MOL0     H56825   4.129   8.779   7.579 -2.1222 -0.4840 -1.3790
  421MOL0     H56826   4.211   8.629   7.577  1.0735  2.8191 -0.8175
  421MOL0     H56827   3.951   8.692   7.740 -1.4831 -0.9180  1.0390
  421MOL0     H56828   4.030   8.524   7.726  2.3551  0.9430  1.2255
  421MOL0     H56829   3.968   8.573   7.476 -1.0583  0.0651  0.4747
  421MOL0     H56830   3.874   8.711   7.538  2.4077  0.4700 -4.7126
  421MOL0     H56831   3.728   8.552   7.660 -3.4629 -1.4102 -2.1390
  421MOL0     H56832   3.808   8.416   7.578 -0.2511 -0.0129 -1.8497
  421MOL0     H56833   3.556   8.528   7.280 -0.9177  0.4473  0.5971
  421MOL0     H56834   4.343   8.716   7.979 -0.7659 -0.4792 -0.4955
  421MOL0     H56835   4.580   8.763   8.008  3.3726 -1.9437 -0.1985
  422MOL0     O56836   1.331   9.705   0.657  0.0994 -0.2535 -0.3746
  422MOL0     C56837   1.363   9.753   0.764 -0.2557  0.4534 -0.5086
  422MOL0     O56838   1.290   9.835   0.844  0.2446  0.4213 -0.1216
  422MOL0     C56839   1.169   9.876   0.802 -0.6599  0.1831  1.4142
  422MOL0     C56840   1.162   9.975   0.710  0.5790  1.4033 -0.3963
  422MOL0     C56841   1.039  10.021   0.656 -0.2226  1.0217 -0.7465
  422MOL0     C56842   0.918   9.970   0.715  0.2030 -0.5815 -0.7252
  422MOL0     O56843   0.793  10.004   0.674  0.2081  0.1182 -0.0026
  422MOL0     C56844   0.771  10.013   0.534 -0.1363 -0.6191  0.0784
  422MOL0     C56845   0.619  10.010   0.502  0.7514  0.3930  0.0984
  422MOL0     C56846   0.537   9.898   0.561 -0.4784 -0.0588 -0.0434
  422MOL0     C56847   0.385   9.933   0.587  0.1127 -0.0721  0.5911
  422MOL0     C56848   0.325   9.812   0.646 -0.4105  0.1433  0.2815
  422MOL0     C56849   0.179   9.838   0.689  0.5746  0.1390 -0.2827
  422MOL0     C56850   0.084   9.877   0.575 -0.4226  0.2923  1.6499
  422MOL0     C56851  -0.071   9.883   0.609 -0.0750  0.0529 -0.8621
  422MOL0     N56852  -0.139   9.752   0.566  0.0225 -0.0992 -0.7622
  422MOL0     C56853  -0.153   9.712   0.437 -0.0875 -0.4160  0.2854
  422MOL0     C56854  -0.243   9.608   0.450 -0.0495 -0.0631 -0.8619
  422MOL0     C56855  -0.294   9.545   0.332  1.0800 -0.2099  0.2343
  422MOL0     C56856  -0.425   9.482   0.348  0.1211 -0.6499 -0.9584
  422MOL0     C56857  -0.526   9.589   0.404 -0.1408  0.4805 -0.1574
  422MOL0     C56858  -0.676   9.539   0.385  0.5480 -0.8196  0.0069
  422MOL0     O56859  -0.713   9.507   0.247 -0.4410 -0.3531 -0.1550
  422MOL0     C56860  -0.837   9.464   0.216  0.1010  0.4543  1.1118
  422MOL0     C56861  -0.931   9.427   0.307 -1.0038  0.5175 -0.2619
  422MOL0     C56862  -1.059   9.381   0.273 -0.6484 -0.3053  0.0147
  422MOL0     C56863  -1.134   9.321   0.393 -0.2270  0.1303 -0.1496
  422MOL0     C56864  -1.095   9.385   0.129  0.3552  0.2198 -0.1035
  422MOL0     C56865  -1.231   9.354   0.081  0.4357  0.1549  0.0451
  422MOL0     O56866  -1.311   9.265   0.146  0.5423 -0.7544  0.3902
  422MOL0     C56867  -1.450   9.246   0.126  0.3242 -0.6826 -0.3694
  422MOL0     C56868  -1.527   9.203   0.231  0.4026 -0.6011 -0.4745
  422MOL0     C56869  -1.667   9.172   0.221 -0.9370 -0.0234  0.0227
  422MOL0     C56870  -1.721   9.165   0.091 -0.4503  0.7814  0.7980
  422MOL0     O56871  -1.851   9.113   0.082  0.3894 -0.7393  0.0626
  422MOL0     C56872  -1.926   9.125  -0.043  0.0743 -0.6384  0.4069
  422MOL0     C56873  -2.075   9.077  -0.038 -0.0729  0.6687 -0.4857
  422MOL0     C56874  -2.087   8.929   0.000 -0.0521  0.7807 -0.5041
  422MOL0     C56875  -2.228   8.881   0.027  0.0003 -0.3859 -0.8261
  422MOL0     C56876  -2.225   8.728   0.068 -0.7228 -0.2252 -0.9028
  422MOL0     C56877  -2.370   8.685   0.078 -0.7093 -0.8367  0.3664
  422MOL0     C56878  -2.400   8.529   0.119 -0.0700 -0.0670 -0.1499
  422MOL0     C56879  -2.543   8.527   0.180  0.1003 -0.5874 -0.0333
  422MOL0    Cl56880  -2.664   8.598   0.066  0.0325 -0.3172 -0.1245
  422MOL0     C56881  -1.636   9.197  -0.022 -0.2872  0.8211  0.2022
  422MOL0     C56882  -1.504   9.237  -0.002  0.4244  0.3779 -0.1835
  422MOL0     O56883  -1.269   9.423  -0.008 -0.4677 -0.5295 -0.1351
  422MOL0     C56884  -1.005   9.436   0.042 -0.4906  0.8794  0.5138
  422MOL0     C56885  -0.877   9.478   0.083  0.2116  0.8563 -0.3009
  422MOL0     N56886  -0.282   9.597   0.584 -0.2751  0.1021  0.0925
  422MOL0     N56887  -0.217   9.682   0.653 -0.4532 -0.1418 -0.3816
  422MOL0     C56888   0.924   9.882   0.825 -0.1968 -0.6939  0.2962
  422MOL0     C56889   1.050   9.843   0.868  0.5054  0.4023  0.3944
  422MOL0     C56890   1.491   9.700   0.823  1.0206 -0.2949 -0.4301
  422MOL0     C56891   1.528   9.734   0.961 -0.3212  1.0826  0.3098
  422MOL0     C56892   1.650   9.690   1.017  0.4053  0.2253 -0.6945
  422MOL0     C56893   1.743   9.613   0.950  0.3437 -0.8415  0.4524
  422MOL0     O56894   1.857   9.572   1.020 -0.1115 -0.1520 -0.5886
  422MOL0     C56895   1.957   9.502   0.937  0.5595  0.3800 -0.8663
  422MOL0     C56896   2.066   9.450   1.036  0.8549  0.2786  0.2210
  422MOL0     C56897   2.164   9.557   1.094  0.4673 -0.0693 -0.4975
  422MOL0     C56898   2.241   9.481   1.216  0.4542 -0.5675 -0.4437
  422MOL0     C56899   2.357   9.411   1.154 -0.2425 -0.3110  0.6638
  422MOL0     C56900   2.444   9.346   1.105  0.1938  0.0848  0.0319
  422MOL0     C56901   1.709   9.586   0.812 -0.5959 -0.3453 -0.3286
  422MOL0     C56902   1.588   9.625   0.746  1.2110 -0.2538 -0.4042
  422MOL0     H56903   1.260  10.013   0.684  1.8274 -1.0589  0.3754
  422MOL0     H56904   1.038  10.093   0.576 -0.2330  0.7702 -0.9742
  422MOL0     H56905   0.808  10.112   0.506 -0.2435 -0.7004 -0.3686
  422MOL0     H56906   0.830   9.940   0.479  1.8794  1.7556 -1.0853
  422MOL0     H56907   0.567  10.098   0.541  0.1644  0.6088 -1.1357
  422MOL0     H56908   0.603  10.021   0.394 -3.4959  1.1462  0.6280
  422MOL0     H56909   0.543   9.812   0.494 -1.4499 -1.4717  1.6286
  422MOL0     H56910   0.578   9.873   0.659 -3.0569  1.3939  1.5182
  422MOL0     H56911   0.360  10.020   0.650 -3.3806 -0.2386 -0.3400
  422MOL0     H56912   0.329   9.957   0.496 -1.3789  0.4791  1.6056
  422MOL0     H56913   0.327   9.726   0.579 -2.0398 -0.0454  0.4526
  422MOL0     H56914   0.381   9.787   0.737 -1.7828  2.2646  1.8071
  422MOL0     H56915   0.136   9.746   0.729 -1.1749 -0.2896 -2.9120
  422MOL0     H56916   0.184   9.914   0.767  3.1549 -0.5690  0.3385
  422MOL0     H56917   0.105   9.982   0.555 -3.1708  0.5649 -0.4159
  422MOL0     H56918   0.103   9.816   0.486 -0.1741  0.9430  1.2538
  422MOL0     H56919  -0.108   9.967   0.549  0.6981  0.7522 -0.3795
  422MOL0     H56920  -0.077   9.902   0.717  0.8626  1.4465 -1.0355
  422MOL0     H56921  -0.103   9.748   0.348  1.5625 -0.7266  1.0478
  422MOL0     H56922  -0.307   9.624   0.258  0.4233 -2.5647 -2.3235
  422MOL0     H56923  -0.225   9.466   0.299  0.9115 -0.2558 -0.0112
  422MOL0     H56924  -0.419   9.393   0.413  0.6245  1.9940  2.9892
  422MOL0     H56925  -0.455   9.452   0.247 -1.0024 -1.1249 -0.4988
  422MOL0     H56926  -0.512   9.681   0.345 -2.4145  1.9378  1.4201
  422MOL0     H56927  -0.519   9.615   0.510 -1.9959 -0.4741  0.2379
  422MOL0     H56928  -0.748   9.612   0.421  0.0189 -1.6802  0.7471
  422MOL0     H56929  -0.698   9.447   0.439 -2.3621 -2.1162 -3.0189
  422MOL0     H56930  -0.902   9.416   0.411  1.8634  0.4728 -0.9932
  422MOL0     H56931  -1.160   9.214   0.391  1.4633 -0.4998  3.3043
  422MOL0     H56932  -1.084   9.320   0.491 -1.5579  1.5677  0.5834
  422MOL0     H56933  -1.232   9.370   0.397 -2.2150 -3.3846 -1.0976
  422MOL0     H56934  -1.465   9.204   0.319  2.0653 -1.0695 -1.5957
  422MOL0     H56935  -1.706   9.144   0.318  0.0637 -1.1103  0.1331
  422MOL0     H56936  -1.938   9.228  -0.077 -1.3549 -0.9770 -0.2049
  422MOL0     H56937  -1.884   9.070  -0.128 -0.9560 -1.2088  0.2478
  422MOL0     H56938  -2.130   9.136   0.036 -2.3959 -0.5958 -1.1191
  422MOL0     H56939  -2.117   9.093  -0.138  0.5272 -0.7552 -0.9995
  422MOL0     H56940  -2.035   8.913   0.095 -2.1948 -2.1617  0.3340
  422MOL0     H56941  -2.030   8.861  -0.063 -2.9063 -2.0910 -0.2757
  422MOL0     H56942  -2.276   8.935   0.109 -0.3991  1.4553 -2.1938
  422MOL0     H56943  -2.291   8.895  -0.062  0.5981 -0.2436 -1.2329
  422MOL0     H56944  -2.167   8.704   0.158 -2.1342 -0.2855  0.0324
  422MOL0     H56945  -2.182   8.667  -0.011 -0.7320 -0.5139 -0.6885
  422MOL0     H56946  -2.413   8.748   0.157  1.9361 -0.4672  1.6178
  422MOL0     H56947  -2.418   8.712  -0.017 -1.1875 -1.9115  0.2858
  422MOL0     H56948  -2.321   8.493   0.186 -0.6182 -0.8901  0.0673
  422MOL0     H56949  -2.404   8.479   0.021 -1.3878 -0.2427 -0.0251
  422MOL0     H56950  -2.553   8.586   0.272 -0.3052 -2.0879  0.9180
  422MOL0     H56951  -2.564   8.425   0.214  0.8763 -0.0564  2.2055
  422MOL0     H56952  -1.672   9.182  -0.123 -0.4645  2.3747  0.0125
  422MOL0     H56953  -1.440   9.266  -0.085  0.4163  2.5276  0.5108
  422MOL0     H56954  -1.035   9.439  -0.063 -0.2593 -0.8327  0.3604
  422MOL0     H56955  -0.799   9.523   0.022  0.4748  3.1537  1.6196
  422MOL0     H56956   0.824   9.856   0.860 -1.7757  0.8854 -2.6475
  422MOL0     H56957   1.050   9.776   0.954 -0.0173 -0.4757 -0.2745
  422MOL0     H56958   1.464   9.784   1.034  2.4087  1.8415  2.3815
  422MOL0     H56959   1.672   9.707   1.122 -1.8118 -2.0748  0.2453
  422MOL0     H56960   1.915   9.412   0.891 -0.3287  0.4795 -0.2635
  422MOL0     H56961   1.998   9.567   0.858  1.9210 -1.2069 -1.5347
  422MOL0     H56962   2.124   9.386   0.969 -0.9847 -0.1693 -0.9969
  422MOL0     H56963   2.011   9.397   1.115  0.7395  2.1424  1.4504
  422MOL0     H56964   2.099   9.635   1.134  1.3304 -0.0605  0.9664
  422MOL0     H56965   2.233   9.612   1.030  0.2414  0.3958 -0.3479
  422MOL0     H56966   2.191   9.397   1.266  1.7196 -0.6188  0.7841
  422MOL0     H56967   2.274   9.561   1.283 -0.5600 -0.9549  0.5488
  422MOL0     H56968   2.522   9.295   1.051  0.9996  1.9996 -0.7403
  422MOL0     H56969   1.786   9.546   0.746  1.5164  2.1112  0.4657
  422MOL0     H56970   1.571   9.599   0.642 -0.7498  0.1955 -0.2376
  423MOL0     O56971  10.851  10.161   5.168  0.1538 -0.3298  0.1174
  423MOL0     C56972  10.906  10.057   5.210 -0.0005  0.3699 -0.7296
  423MOL0     O56973  10.848   9.965   5.286  0.3384  0.2844 -0.3512
  423MOL0     C56974  10.719   9.982   5.324  0.3540  0.0878 -0.6502
  423MOL0     C56975  10.651  10.102   5.357  0.0327 -0.0883 -0.1674
  423MOL0     C56976  10.519  10.107   5.399  0.3025  1.8378 -0.1764
  423MOL0     C56977  10.454   9.980   5.415 -0.3143  0.4700  0.0595
  423MOL0     O56978  10.324   9.953   5.451  0.9111  0.1205  0.2076
  423MOL0     C56979  10.245  10.065   5.513  0.0272  0.8479 -0.5907
  423MOL0     C56980  10.171  10.138   5.405 -0.2614  0.6937  0.0731
  423MOL0     C56981  10.035  10.154   5.459  0.4213 -0.7979  0.4629
  423MOL0     C56982   9.941  10.216   5.353 -0.6061 -0.0023  0.5338
  423MOL0     C56983   9.795  10.223   5.387 -0.6797 -0.6551 -0.4248
  423MOL0     C56984   9.770  10.327   5.502 -0.1375  0.1077 -0.0376
  423MOL0     C56985   9.626  10.373   5.518 -0.9289  0.1537  0.4004
  423MOL0     C56986   9.541  10.253   5.567  0.3474  0.4842  0.2373
  423MOL0     N56987   9.405  10.304   5.596  0.5568  0.0572 -0.0106
  423MOL0     C56988   9.345  10.276   5.716  0.5251 -0.8238 -0.1636
  423MOL0     C56989   9.239  10.354   5.726 -1.1401 -0.7696  0.3822
  423MOL0     C56990   9.137  10.345   5.835 -0.3317  0.2474  0.3369
  423MOL0     C56991   9.053  10.222   5.809 -0.4115  0.2171 -0.2032
  423MOL0     C56992   8.946  10.236   5.698 -0.6090  0.2463 -0.2886
  423MOL0     C56993   8.806  10.271   5.754  0.3208 -0.2312 -0.4746
  423MOL0     O56994   8.830  10.399   5.814 -0.4271  0.7978  0.0229
  423MOL0     C56995   8.726  10.450   5.886  0.9147  0.1540  0.0275
  423MOL0     C56996   8.743  10.557   5.970  0.8296 -0.4255 -0.0905
  423MOL0     C56997   8.630  10.634   6.023 -0.2799 -0.5045  0.4888
  423MOL0     C56998   8.669  10.747   6.112  0.3194 -0.3924  0.5635
  423MOL0     C56999   8.498  10.589   6.001 -0.2457 -0.5457  0.5365
  423MOL0     C57000   8.375  10.660   6.053  1.0228 -0.3555  0.7108
  423MOL0     O57001   8.396  10.791   6.095 -0.7482 -0.5774 -0.2998
  423MOL0     C57002   8.288  10.852   6.144  0.6636 -0.6310  0.0872
  423MOL0     C57003   8.225  10.800   6.252 -0.1696 -0.7824  0.1742
  423MOL0     C57004   8.113  10.873   6.311 -0.3529 -0.3056 -0.3561
  423MOL0     C57005   8.070  10.992   6.254 -0.2323  1.4505 -0.0796
  423MOL0     O57006   7.971  11.069   6.308  0.3848 -0.6084 -0.1006
  423MOL0     C57007   7.894  11.031   6.425  0.3846  0.1252  0.0526
  423MOL0     C57008   7.809  11.147   6.458  0.1385 -0.3988  1.0923
  423MOL0     C57009   7.718  11.115   6.575  0.1287  0.8451  0.5079
  423MOL0     C57010   7.598  11.213   6.605 -0.5429  0.4814 -0.0978
  423MOL0     C57011   7.503  11.151   6.702  0.4059 -0.1371  0.3126
  423MOL0     C57012   7.376  11.231   6.718 -0.3041 -0.4595 -1.2686
  423MOL0     C57013   7.285  11.143   6.805  0.2948 -0.2120  0.0949
  423MOL0     C57014   7.188  11.056   6.729  0.0843 -0.4466 -0.0128
  423MOL0    Cl57015   7.093  10.959   6.851 -0.3877  0.2739 -0.4082
  423MOL0     C57016   8.117  11.032   6.129 -0.4077 -0.2889  0.3776
  423MOL0     C57017   8.238  10.964   6.082  1.3319  0.0092 -0.2282
  423MOL0     O57018   8.260  10.607   6.045  0.0860 -0.3284 -0.2965
  423MOL0     C57019   8.484  10.474   5.918 -0.1101  0.8669 -0.2834
  423MOL0     C57020   8.592  10.404   5.863 -0.6282 -0.8597 -0.6267
  423MOL0     N57021   9.235  10.442   5.611  0.0557  0.6552  0.4012
  423MOL0     N57022   9.330  10.394   5.534  0.7499 -0.0815 -0.0186
  423MOL0     C57023  10.529   9.862   5.397 -0.5878 -0.4020 -0.4795
  423MOL0     C57024  10.661   9.862   5.346  0.3550  1.0598 -0.0501
  423MOL0     C57025  11.044  10.041   5.168 -0.3417  0.1485 -0.6685
  423MOL0     C57026  11.138   9.976   5.246 -0.1376 -0.3488 -0.3147
  423MOL0     C57027  11.272   9.968   5.209 -0.3562  0.2306  0.3143
  423MOL0     C57028  11.311  10.018   5.082  0.2442  0.2276 -0.6534
  423MOL0     O57029  11.450  10.027   5.070  0.0925  0.0095  0.1269
  423MOL0     C57030  11.496  10.063   4.947 -0.6023 -0.6516  0.4655
  423MOL0     C57031  11.641  10.016   4.935  1.1033  0.3266  0.0981
  423MOL0     C57032  11.655   9.864   4.930  0.0301 -0.1637  0.6037
  423MOL0     C57033  11.801   9.807   4.935 -0.3111 -0.8223 -0.7697
  423MOL0     C57034  11.875   9.835   4.816  0.1897  0.8015  0.6076
  423MOL0     C57035  11.939   9.846   4.712 -0.1786 -0.1330  1.3513
  423MOL0     C57036  11.219  10.086   5.006  0.8298 -0.0671  0.5504
  423MOL0     C57037  11.082  10.094   5.043  0.1227 -0.7038 -0.0179
  423MOL0     H57038  10.696  10.201   5.359 -1.4180  0.5912  1.0983
  423MOL0     H57039  10.480  10.203   5.431 -0.0085  2.3706 -2.0526
  423MOL0     H57040  10.181  10.021   5.589  4.1198 -1.5818  1.8336
  423MOL0     H57041  10.303  10.136   5.572 -0.6829  1.1739 -0.2699
  423MOL0     H57042  10.214  10.239   5.397  0.6403  0.5339  2.2032
  423MOL0     H57043  10.168  10.078   5.313  1.1505 -0.3517  0.6729
  423MOL0     H57044   9.987  10.060   5.487  0.6449 -0.4942  1.9311
  423MOL0     H57045  10.038  10.226   5.541 -2.8727  2.2761 -1.8281
  423MOL0     H57046   9.968  10.313   5.312 -1.3392 -0.4737 -1.1845
  423MOL0     H57047   9.942  10.150   5.265  1.9181  0.8579 -0.1516
  423MOL0     H57048   9.731  10.254   5.303 -3.2446 -2.0315  0.8842
  423MOL0     H57049   9.753  10.126   5.418  0.0129 -0.5691  0.8564
  423MOL0     H57050   9.811  10.286   5.595  1.6878  0.1071 -0.8098
  423MOL0     H57051   9.834  10.413   5.484  0.0010 -0.0097 -0.1138
  423MOL0     H57052   9.620  10.458   5.587  2.2736  1.1562 -0.3889
  423MOL0     H57053   9.593  10.398   5.417  0.2225 -0.3150 -0.1168
  423MOL0     H57054   9.578  10.215   5.662 -2.2424 -1.0614  0.7399
  423MOL0     H57055   9.531  10.181   5.485  2.7392  1.7672 -1.3017
  423MOL0     H57056   9.377  10.204   5.791  3.7847 -0.1605 -0.7568
  423MOL0     H57057   9.189  10.329   5.930 -2.1928 -1.7418  1.0963
  423MOL0     H57058   9.084  10.441   5.842  1.8941  1.5225  0.4700
  423MOL0     H57059   8.999  10.183   5.896  1.3542 -1.5855  0.1421
  423MOL0     H57060   9.119  10.138   5.789 -2.0055 -2.0210  3.0507
  423MOL0     H57061   8.935  10.140   5.646 -0.5663  0.1636 -0.1456
  423MOL0     H57062   8.980  10.303   5.618  0.6969  0.1685  0.1706
  423MOL0     H57063   8.776  10.201   5.832 -0.0953 -4.1336 -3.7872
  423MOL0     H57064   8.733  10.269   5.673  1.0268  2.0377 -1.2434
  423MOL0     H57065   8.844  10.594   5.983  1.4781 -1.9101 -0.6741
  423MOL0     H57066   8.772  10.730   6.146  0.4954  0.6544  0.5883
  423MOL0     H57067   8.666  10.844   6.061  1.8057  0.6794  2.3734
  423MOL0     H57068   8.612  10.765   6.205  0.5782  3.3378  0.1748
  423MOL0     H57069   8.280  10.724   6.308  4.8310  2.8606  0.8899
  423MOL0     H57070   8.072  10.839   6.405 -0.7091 -1.5227 -0.9290
  423MOL0     H57071   7.823  10.951   6.401 -1.5810  2.0981 -1.0650
  423MOL0     H57072   7.960  11.012   6.511  0.8723  3.7858  0.6236
  423MOL0     H57073   7.875  11.230   6.485  0.2349 -0.6512  1.6453
  423MOL0     H57074   7.747  11.184   6.375  0.2156  2.3264  2.1247
  423MOL0     H57075   7.780  11.100   6.664  1.5888  3.3139 -0.0198
  423MOL0     H57076   7.660  11.026   6.546 -1.4935  2.4798 -1.5754
  423MOL0     H57077   7.639  11.303   6.652 -0.3543 -0.2568  1.2295
  423MOL0     H57078   7.555  11.238   6.508  4.3243  0.2743 -2.6151
  423MOL0     H57079   7.556  11.154   6.798  0.8370 -2.0151  0.1775
  423MOL0     H57080   7.487  11.047   6.674 -2.9986  0.8773 -2.1138
  423MOL0     H57081   7.398  11.320   6.778 -1.5338 -0.6964 -0.4252
  423MOL0     H57082   7.328  11.259   6.624  1.4285 -0.0616 -2.0569
  423MOL0     H57083   7.240  11.205   6.883  1.5429 -1.2522  1.6860
  423MOL0     H57084   7.343  11.072   6.864 -0.8297 -1.3714 -0.1572
  423MOL0     H57085   7.252  10.997   6.663 -0.4671 -0.5188 -0.4967
  423MOL0     H57086   7.121  11.113   6.663  0.7529 -1.0133 -1.2190
  423MOL0     H57087   8.085  11.125   6.084  2.5799  0.2874 -0.8274
  423MOL0     H57088   8.291  10.993   5.992  0.7982 -2.6343 -1.5124
  423MOL0     H57089   8.389  10.435   5.885 -0.3515  2.4119 -1.5725
  423MOL0     H57090   8.575  10.308   5.816 -1.5436 -0.3842 -1.3049
  423MOL0     H57091  10.470   9.777   5.430 -1.0958 -0.3719 -1.2719
  423MOL0     H57092  10.736   9.784   5.337  1.3713  1.9910  0.1124
  423MOL0     H57093  11.102   9.958   5.347 -3.3318  1.3300 -1.0156
  423MOL0     H57094  11.346   9.915   5.270 -1.3368  0.0892  1.4183
  423MOL0     H57095  11.447  10.003   4.869 -0.5837  0.7956 -0.7117
  423MOL0     H57096  11.496  10.170   4.924  1.0220 -0.9376 -1.1341
  423MOL0     H57097  11.699  10.055   5.019  0.0534  0.0228  0.9905
  423MOL0     H57098  11.690  10.063   4.849 -0.4468  1.0899 -0.4127
  423MOL0     H57099  11.618   9.831   4.832 -0.7490  2.8019 -0.1887
  423MOL0     H57100  11.592   9.816   5.006  1.8742 -2.6848  0.6445
  423MOL0     H57101  11.794   9.699   4.952  2.5776 -1.0214 -0.2928
  423MOL0     H57102  11.850   9.854   5.021  0.0353  0.9838 -1.8973
  423MOL0     H57103  11.986   9.871   4.619 -1.2332  1.4278  1.1946
  423MOL0     H57104  11.240  10.132   4.910 -0.7859 -0.6970 -0.1215
  423MOL0     H57105  11.008  10.145   4.982  1.6821 -0.3940 -1.7652
  424MOL0     O57106   9.781   0.182   7.101  0.3040  0.0374  0.9819
  424MOL0     C57107   9.811   0.164   7.218 -0.2714  0.9452 -0.0871
  424MOL0     O57108   9.730   0.137   7.314  0.9198  0.2306 -1.3782
  424MOL0     C57109   9.600   0.139   7.289  0.1118  0.8855  0.1267
  424MOL0     C57110   9.526   0.037   7.225 -1.5420 -0.5283  0.0008
  424MOL0     C57111   9.390   0.048   7.198  0.0126  0.7908 -0.2014
  424MOL0     C57112   9.331   0.169   7.230  0.3273 -0.2097 -0.3554
  424MOL0     O57113   9.194   0.193   7.220 -0.1385 -0.4670  0.5948
  424MOL0     C57114   9.102   0.120   7.313 -0.9065 -0.1430  0.4545
  424MOL0     C57115   8.958   0.090   7.259 -0.8171 -0.4498  0.1607
  424MOL0     C57116   8.868   0.016   7.365  0.7889  0.4953 -0.2694
  424MOL0     C57117   8.720   0.018   7.325  0.1343 -0.3886  0.1766
  424MOL0     C57118   8.705  -0.097   7.218  0.2859  0.5484  0.1765
  424MOL0     C57119   8.596  -0.060   7.120  0.0647  0.9704  0.2365
  424MOL0     C57120   8.454  -0.058   7.171 -0.4302  0.0786 -0.4748
  424MOL0     C57121   8.422  -0.185   7.260 -0.4449 -0.0068 -0.0166
  424MOL0     N57122   8.284  -0.217   7.279  0.4801 -0.4143 -0.2923
  424MOL0     C57123   8.222  -0.338   7.270  0.2809  0.1338 -0.1329
  424MOL0     C57124   8.092  -0.315   7.280  1.4860 -0.0398 -0.0535
  424MOL0     C57125   7.983  -0.421   7.259  0.8467 -0.2984  0.0216
  424MOL0     C57126   7.877  -0.417   7.372  0.4707 -0.2795 -0.3892
  424MOL0     C57127   7.757  -0.507   7.331  0.9846 -0.5678  0.6092
  424MOL0     C57128   7.656  -0.488   7.443 -0.8917  0.4420 -0.2022
  424MOL0     O57129   7.553  -0.585   7.436 -0.4201 -0.3562  0.2447
  424MOL0     C57130   7.440  -0.549   7.513 -0.3031  0.6113  0.8234
  424MOL0     C57131   7.352  -0.652   7.542 -0.0509 -0.7653  0.0300
  424MOL0     C57132   7.239  -0.633   7.629  0.0815 -0.5431  0.0807
  424MOL0     C57133   7.161  -0.758   7.639 -0.4172 -0.3755 -0.5452
  424MOL0     C57134   7.216  -0.498   7.679  0.5707  0.5630 -0.0962
  424MOL0     C57135   7.112  -0.470   7.784 -0.4891 -0.0987  0.8276
  424MOL0     O57136   7.097  -0.337   7.811  1.2413 -0.1577  0.2101
  424MOL0     C57137   7.022  -0.305   7.919  0.8855 -0.7930 -0.1185
  424MOL0     C57138   6.883  -0.287   7.902  0.0162 -0.5473 -0.5498
  424MOL0     C57139   6.813  -0.212   7.995 -0.2128  0.6082 -0.8443
  424MOL0     C57140   6.876  -0.160   8.110 -1.0462 -1.0857 -0.3790
  424MOL0     O57141   6.807  -0.086   8.197 -0.2501 -0.7092 -0.3307
  424MOL0     C57142   6.864   0.042   8.228  0.0006  0.9344 -0.8405
  424MOL0     C57143   6.776   0.131   8.334  0.7029 -0.5191 -0.8571
  424MOL0     C57144   6.621   0.108   8.320  0.5325 -0.3878 -0.2042
  424MOL0     C57145   6.546   0.178   8.425 -0.7676 -0.5748  0.1098
  424MOL0     C57146   6.399   0.154   8.440 -0.1277  0.3296 -0.3585
  424MOL0     C57147   6.330   0.217   8.314  0.2702 -0.2555  0.0115
  424MOL0     C57148   6.178   0.211   8.324  0.4399 -0.0042 -0.4432
  424MOL0     C57149   6.104   0.245   8.189 -0.2344  0.1954  0.5604
  424MOL0    Cl57150   5.926   0.200   8.232  0.2471  0.0524 -0.3733
  424MOL0     C57151   7.010  -0.205   8.129  0.1516  0.0506 -0.4503
  424MOL0     C57152   7.078  -0.269   8.035  1.0732 -0.1790  1.0542
  424MOL0     O57153   7.048  -0.556   7.847  0.3859 -0.2458 -0.3727
  424MOL0     C57154   7.294  -0.394   7.628 -0.0944  0.6736  0.0931
  424MOL0     C57155   7.404  -0.419   7.548 -0.8193  0.2435 -0.6700
  424MOL0     N57156   8.074  -0.181   7.309 -0.2899  0.8075 -0.2326
  424MOL0     N57157   8.193  -0.119   7.297  0.5374  0.1027  0.4792
  424MOL0     C57158   9.393   0.273   7.296 -1.0830 -0.5979  0.3950
  424MOL0     C57159   9.532   0.258   7.327 -0.3067  0.1372  0.7497
  424MOL0     C57160   9.957   0.158   7.246 -0.0617  0.2966  0.9115
  424MOL0     C57161  10.054   0.190   7.148  0.5685 -0.1146 -0.1046
  424MOL0     C57162  10.194   0.161   7.177  0.4760  0.4459 -0.2435
  424MOL0     C57163  10.232   0.095   7.292  1.3702 -0.1640  0.5628
  424MOL0     O57164  10.357   0.067   7.313 -0.2856 -0.1292 -0.2657
  424MOL0     C57165  10.445   0.045   7.203  0.0695 -0.5571 -0.6916
  424MOL0     C57166  10.573  -0.022   7.247  0.2672 -0.0161 -0.0990
  424MOL0     C57167  10.640   0.045   7.376 -0.3532  0.5331 -0.3991
  424MOL0     C57168  10.782  -0.007   7.415  0.2835  0.3150 -0.1617
  424MOL0     C57169  10.880  -0.009   7.300  0.0899  0.4160 -0.2473
  424MOL0     C57170  10.968   0.009   7.214  0.1971  0.4587  1.0212
  424MOL0     C57171  10.135   0.073   7.391 -0.1129 -0.1110 -1.3226
  424MOL0     C57172   9.999   0.108   7.372 -0.4344 -0.3261 -0.5511
  424MOL0     H57173   9.585  -0.051   7.203 -0.1792  0.8505 -2.2894
  424MOL0     H57174   9.334  -0.030   7.148  0.7559 -0.3538  0.6898
  424MOL0     H57175   9.145   0.026   7.348 -2.3468 -0.7598  0.6175
  424MOL0     H57176   9.095   0.188   7.399  1.1967  0.5919  0.1007
  424MOL0     H57177   8.909   0.185   7.238  1.7313  0.6579 -1.2704
  424MOL0     H57178   8.971   0.030   7.168  2.5664  2.2376 -1.3638
  424MOL0     H57179   8.901  -0.087   7.380 -1.9814 -0.4173  0.0736
  424MOL0     H57180   8.885   0.055   7.466  1.6213 -1.2298  0.2903
  424MOL0     H57181   8.655  -0.001   7.410  2.6975 -0.7929  2.1760
  424MOL0     H57182   8.701   0.119   7.287  1.2686 -0.3453 -0.3233
  424MOL0     H57183   8.802  -0.104   7.168  1.0244  1.4324  1.4333
  424MOL0     H57184   8.691  -0.196   7.263 -0.7849 -0.4915 -2.2149
  424MOL0     H57185   8.619   0.042   7.086 -3.8354  1.1259 -2.6827
  424MOL0     H57186   8.600  -0.130   7.036 -1.7065 -0.7513  1.4908
  424MOL0     H57187   8.425   0.034   7.223  1.1217 -0.2022  0.9716
  424MOL0     H57188   8.394  -0.077   7.082 -1.9213  0.2336  0.4697
  424MOL0     H57189   8.487  -0.185   7.347  1.4496 -2.6515 -1.2894
  424MOL0     H57190   8.456  -0.270   7.200 -0.2737 -0.9898  1.4282
  424MOL0     H57191   8.263  -0.438   7.257 -2.6670 -1.4958  1.8326
  424MOL0     H57192   7.934  -0.417   7.161 -0.8050 -0.3011  0.8068
  424MOL0     H57193   8.022  -0.522   7.265  1.5579 -0.0327 -0.0158
  424MOL0     H57194   7.840  -0.314   7.382  0.4255 -0.4871  2.2691
  424MOL0     H57195   7.916  -0.450   7.468 -2.2627 -0.6875  0.6733
  424MOL0     H57196   7.791  -0.611   7.332  0.0337 -0.8932  2.3150
  424MOL0     H57197   7.708  -0.481   7.236 -0.9734 -0.0971  1.6966
  424MOL0     H57198   7.625  -0.384   7.437  1.1236  1.2168  1.4638
  424MOL0     H57199   7.707  -0.505   7.539 -0.1602 -1.0692 -0.8155
  424MOL0     H57200   7.379  -0.752   7.511 -1.7521 -0.7647 -1.6434
  424MOL0     H57201   7.154  -0.805   7.540 -2.9066  0.1028 -0.6481
  424MOL0     H57202   7.209  -0.824   7.712 -0.7148  0.7684  0.7139
  424MOL0     H57203   7.059  -0.742   7.675  0.1462 -1.8958  1.9979
  424MOL0     H57204   6.849  -0.309   7.802  0.0059 -0.7507 -0.5012
  424MOL0     H57205   6.709  -0.183   7.977 -0.8980 -0.4059  1.1914
  424MOL0     H57206   6.960   0.012   8.272 -0.7541 -1.4555 -0.7181
  424MOL0     H57207   6.881   0.098   8.135 -2.4679  0.0636 -1.8976
  424MOL0     H57208   6.808   0.108   8.435  1.3711  1.5342 -0.5551
  424MOL0     H57209   6.802   0.236   8.317  0.7334 -0.2808  0.5542
  424MOL0     H57210   6.585   0.005   8.325 -1.8661  0.3460 -1.1294
  424MOL0     H57211   6.591   0.139   8.219 -1.5590  1.1540  0.7983
  424MOL0     H57212   6.586   0.137   8.518  1.4828 -0.1044 -0.5941
  424MOL0     H57213   6.563   0.285   8.414 -0.2731 -0.5964  0.6386
  424MOL0     H57214   6.355   0.198   8.530  0.7822  1.6581 -0.5320
  424MOL0     H57215   6.385   0.045   8.447  1.2974  0.1388 -0.0674
  424MOL0     H57216   6.376   0.313   8.289  1.5648 -0.8332  0.1024
  424MOL0     H57217   6.349   0.148   8.231 -0.7760  1.6353 -1.8897
  424MOL0     H57218   6.144   0.273   8.408  0.5864  0.6726 -0.8810
  424MOL0     H57219   6.152   0.107   8.348  0.4850 -0.0572 -0.6266
  424MOL0     H57220   6.139   0.179   8.110  1.1092  0.2985  1.0492
  424MOL0     H57221   6.119   0.347   8.151  3.6023 -0.9508 -1.4566
  424MOL0     H57222   7.065  -0.183   8.219  0.0142  1.1097 -0.6115
  424MOL0     H57223   7.185  -0.286   8.047  1.3954  0.5998 -0.4241
  424MOL0     H57224   7.266  -0.294   7.657  1.8171  1.0575  0.7163
  424MOL0     H57225   7.461  -0.332   7.516 -0.4232 -0.9689 -3.6346
  424MOL0     H57226   9.343   0.365   7.324  2.3020  1.3464  0.6545
  424MOL0     H57227   9.573   0.345   7.376  2.2312 -1.4951  1.7388
  424MOL0     H57228  10.028   0.231   7.051  1.8788  2.1945  0.4516
  424MOL0     H57229  10.265   0.176   7.097  0.6743 -1.1344 -0.4017
  424MOL0     H57230  10.384  -0.007   7.129  1.1479 -0.0094 -2.0280
  424MOL0     H57231  10.471   0.146   7.169  1.7233 -0.5820  0.3472
  424MOL0     H57232  10.638  -0.027   7.159  0.2391  0.0438 -0.1235
  424MOL0     H57233  10.546  -0.122   7.281  1.3933 -0.0621  0.7133
  424MOL0     H57234  10.573   0.025   7.460  0.5226 -0.7640  0.0205
  424MOL0     H57235  10.636   0.154   7.371  1.7329  0.6589 -0.3774
  424MOL0     H57236  10.762  -0.102   7.465 -0.3875  1.6205  2.1838
  424MOL0     H57237  10.827   0.048   7.498 -0.2788 -0.0382  0.3787
  424MOL0     H57238  11.034   0.046   7.139 -0.6688  1.0802  0.5409
  424MOL0     H57239  10.177   0.029   7.481 -0.6449 -0.0851 -1.0567
  424MOL0     H57240   9.931   0.074   7.449  0.7202 -3.3487 -0.7090
  425MOL0     O57241   9.009  10.284   6.279 -0.2070  0.4666 -0.0369
  425MOL0     C57242   9.041  10.173   6.250 -0.3314 -0.2180 -0.0767
  425MOL0     O57243   8.956  10.082   6.213 -0.7410 -0.3732 -0.4309
  425MOL0     C57244   8.817  10.090   6.201  0.6584 -0.5616  0.0075
  425MOL0     C57245   8.746  10.211   6.178  0.2237  0.6102 -0.7312
  425MOL0     C57246   8.601  10.208   6.171 -0.1022 -0.6350  0.2888
  425MOL0     C57247   8.526  10.094   6.183  0.1052  0.0844  0.1526
  425MOL0     O57248   8.393  10.103   6.189  0.7204  0.6535  0.2059
  425MOL0     C57249   8.325   9.984   6.243 -0.9239  0.5887  0.4614
  425MOL0     C57250   8.188  10.031   6.286 -0.2596  0.1770 -0.8027
  425MOL0     C57251   8.124   9.921   6.367  0.3634 -0.0182 -0.3599
  425MOL0     C57252   7.982   9.939   6.434  0.5949 -0.6084  0.0407
  425MOL0     C57253   7.928   9.808   6.489  0.7819 -0.0078 -0.8499
  425MOL0     C57254   7.806   9.821   6.577  0.4955 -0.8780 -0.5441
  425MOL0     C57255   7.672   9.835   6.497 -0.3937 -0.9156  1.1342
  425MOL0     C57256   7.558   9.832   6.589  0.7804  0.0802  0.5084
  425MOL0     N57257   7.430   9.791   6.519  0.2006  0.1768 -0.1865
  425MOL0     C57258   7.361   9.856   6.425  0.7240 -0.2979 -0.6035
  425MOL0     C57259   7.271   9.764   6.382  0.6201  0.1950 -0.3799
  425MOL0     C57260   7.154   9.788   6.290  0.4851 -0.4362 -0.0447
  425MOL0     C57261   7.056   9.886   6.353  0.1663  0.3873  1.2456
  425MOL0     C57262   6.973   9.957   6.245  0.2660  0.0380  0.1949
  425MOL0     C57263   6.892   9.863   6.152 -0.2351 -0.0753 -0.3869
  425MOL0     O57264   6.832   9.924   6.039 -0.2648 -0.0261  0.2430
  425MOL0     C57265   6.710   9.980   6.052 -0.2651 -0.1815  0.0263
  425MOL0     C57266   6.647  10.011   5.936  0.2477 -0.5136  0.0287
  425MOL0     C57267   6.517  10.064   5.924 -0.0981 -0.0758 -0.6981
  425MOL0     C57268   6.467  10.085   5.790 -1.1119  0.1556 -0.0848
  425MOL0     C57269   6.444  10.097   6.045  0.1996  0.6541 -0.2032
  425MOL0     C57270   6.319  10.175   6.058  0.2971 -0.0565  0.9723
  425MOL0     O57271   6.281  10.258   5.952 -0.2085  0.3120 -0.0665
  425MOL0     C57272   6.152  10.308   5.949  0.2621 -0.5745  0.9497
  425MOL0     C57273   6.132  10.449   5.954  0.0321  0.3598  0.2411
  425MOL0     C57274   6.001  10.499   5.956  0.1707 -0.1187 -0.6434
  425MOL0     C57275   5.886  10.419   5.955 -0.5958 -0.0519 -0.1985
  425MOL0     O57276   5.761  10.470   5.967 -0.2212 -0.5719 -0.6061
  425MOL0     C57277   5.729  10.574   6.062 -0.8933  0.3410  0.0869
  425MOL0     C57278   5.623  10.665   6.016 -0.2057  0.1153  1.1020
  425MOL0     C57279   5.533  10.725   6.124  0.0074 -0.6953  0.1442
  425MOL0     C57280   5.453  10.621   6.194  0.8927  0.2938 -0.0286
  425MOL0     C57281   5.347  10.672   6.286  0.2200 -0.1809 -0.3035
  425MOL0     C57282   5.220  10.708   6.198 -0.6447  0.2594  0.2928
  425MOL0     C57283   5.103  10.770   6.278 -0.1698 -0.0294  0.1571
  425MOL0     C57284   4.995  10.837   6.198 -0.2148  0.3911 -0.2971
  425MOL0    Cl57285   4.854  10.893   6.295 -0.3826  0.3153  0.2224
  425MOL0     C57286   5.914  10.274   5.956 -0.0210  0.0226  0.5802
  425MOL0     C57287   6.043  10.221   5.941 -0.1968 -0.1993  0.3995
  425MOL0     O57288   6.254  10.149   6.157 -0.4072  0.0559  0.2073
  425MOL0     C57289   6.498  10.060   6.167 -0.9846 -0.7381 -0.5799
  425MOL0     C57290   6.627  10.000   6.172 -0.8580  0.3162 -0.0162
  425MOL0     N57291   7.291   9.647   6.449  0.3114  0.8740  0.4828
  425MOL0     N57292   7.393   9.659   6.525 -0.9508 -0.8358  0.0277
  425MOL0     C57293   8.597   9.968   6.188  0.5466  0.0308  0.1955
  425MOL0     C57294   8.736   9.974   6.196 -0.4208  0.3167 -0.3072
  425MOL0     C57295   9.180  10.141   6.218  0.0143  0.7766  0.7525
  425MOL0     C57296   9.259  10.236   6.157  0.0068 -0.3303 -0.0042
  425MOL0     C57297   9.395  10.202   6.120  0.2888 -0.5064 -0.2416
  425MOL0     C57298   9.450  10.079   6.155  0.3959  0.1830 -0.0252
  425MOL0     O57299   9.572  10.052   6.107  0.3349 -0.1271 -0.6820
  425MOL0     C57300   9.640   9.934   6.152 -0.1541  0.4058 -0.2240
  425MOL0     C57301   9.793   9.943   6.126 -0.0751 -0.1376 -0.0550
  425MOL0     C57302   9.849  10.007   6.249 -0.8083  0.0865  0.2765
  425MOL0     C57303  10.003  10.020   6.240  0.6927  0.4888  0.2354
  425MOL0     C57304  10.051  10.067   6.368  0.8283  0.2405 -0.0496
  425MOL0     C57305  10.106  10.116   6.464  0.9645 -0.4663 -0.5776
  425MOL0     C57306   9.362   9.978   6.214  0.4484  0.5966 -0.5065
  425MOL0     C57307   9.227  10.011   6.244  0.0398 -0.3048  0.3253
  425MOL0     H57308   8.801  10.302   6.160 -0.5190  0.7314 -2.6704
  425MOL0     H57309   8.552  10.305   6.168 -0.4355 -0.8254 -2.4095
  425MOL0     H57310   8.325   9.899   6.173  2.2490 -0.0851  1.0912
  425MOL0     H57311   8.386   9.940   6.323 -0.1514 -2.2452 -1.4981
  425MOL0     H57312   8.178  10.126   6.338  2.7947  2.5680 -4.1083
  425MOL0     H57313   8.142  10.040   6.187 -1.5166  1.5821 -0.1260
  425MOL0     H57314   8.109   9.834   6.302 -2.0582 -1.7206  2.2358
  425MOL0     H57315   8.198   9.886   6.439  0.4793  0.8057 -0.0714
  425MOL0     H57316   7.997  10.013   6.513  0.5700  1.3930 -1.7452
  425MOL0     H57317   7.909   9.990   6.371 -0.9482  0.5982  2.6234
  425MOL0     H57318   7.907   9.736   6.410  0.0814 -0.9979  0.2083
  425MOL0     H57319   8.005   9.760   6.549 -1.1801 -0.7687  1.1985
  425MOL0     H57320   7.795   9.732   6.639 -1.2386 -0.6238 -0.4099
  425MOL0     H57321   7.813   9.904   6.648 -1.2945 -2.2324  1.3790
  425MOL0     H57322   7.680   9.934   6.451  4.0739 -1.7379 -0.3448
  425MOL0     H57323   7.663   9.751   6.426  0.8840  1.3584 -1.9320
  425MOL0     H57324   7.544   9.934   6.625 -5.1037  0.6332 -2.1268
  425MOL0     H57325   7.569   9.763   6.674 -3.7404  1.4436  2.5260
  425MOL0     H57326   7.363   9.961   6.396  3.1059  0.1802  1.0013
  425MOL0     H57327   7.196   9.814   6.193  0.5608 -2.7129 -0.6787
  425MOL0     H57328   7.107   9.692   6.267  4.1206 -2.3909 -0.0651
  425MOL0     H57329   7.106   9.962   6.414  0.9202  0.8222  0.1279
  425MOL0     H57330   6.984   9.841   6.421 -1.8116  2.8730  0.9694
  425MOL0     H57331   7.040  10.011   6.178 -0.2260  3.4015  2.1789
  425MOL0     H57332   6.906  10.028   6.294 -1.2971 -2.5804  2.1230
  425MOL0     H57333   6.829   9.801   6.216 -1.7914  3.0430  1.3264
  425MOL0     H57334   6.960   9.787   6.114 -0.7561 -1.9791  2.2667
  425MOL0     H57335   6.695  10.004   5.839  0.9916 -0.7137  0.3977
  425MOL0     H57336   6.552  10.103   5.725 -0.2162 -1.1337  0.6879
  425MOL0     H57337   6.415  10.000   5.745 -1.7680  0.9394 -0.8337
  425MOL0     H57338   6.391  10.164   5.787 -1.0994  0.2589  1.4142
  425MOL0     H57339   6.219  10.513   5.960 -0.3124  0.7612  1.1415
  425MOL0     H57340   5.993  10.606   5.971  3.0041  0.1442 -0.4178
  425MOL0     H57341   5.694  10.513   6.145 -2.1424  1.3763  0.3494
  425MOL0     H57342   5.817  10.637   6.080  0.7436 -0.7866 -3.0254
  425MOL0     H57343   5.677  10.751   5.975  0.6321 -0.2227  1.4763
  425MOL0     H57344   5.566  10.625   5.932  0.2914  1.7893 -0.0805
  425MOL0     H57345   5.477  10.801   6.070  3.5048 -0.1077 -3.0930
  425MOL0     H57346   5.599  10.785   6.188  0.7044  0.4862 -1.5904
  425MOL0     H57347   5.398  10.552   6.128  0.6720 -0.0092  0.4625
  425MOL0     H57348   5.517  10.558   6.257 -0.6750 -0.7479  0.5917
  425MOL0     H57349   5.385  10.753   6.348  1.0984  1.4853 -2.8279
  425MOL0     H57350   5.320  10.588   6.351  2.3251 -0.4370  0.3045
  425MOL0     H57351   5.259  10.775   6.121  0.4989  0.9296  1.4191
  425MOL0     H57352   5.170  10.622   6.152 -1.5168  0.7616  0.2984
  425MOL0     H57353   5.148  10.843   6.346 -0.4580 -0.1524  0.4760
  425MOL0     H57354   5.055  10.690   6.335 -1.1850  0.0291 -0.5875
  425MOL0     H57355   4.966  10.778   6.110 -1.9312  0.9243 -0.1212
  425MOL0     H57356   5.044  10.922   6.148 -0.6955  0.5746 -0.4575
  425MOL0     H57357   5.833  10.205   5.975 -1.2082  1.7186  2.0128
  425MOL0     H57358   6.065  10.116   5.957  2.7767  0.0076 -1.6103
  425MOL0     H57359   6.448  10.087   6.260 -1.3639  0.6123 -1.1561
  425MOL0     H57360   6.658   9.978   6.273  0.8075 -0.4491 -0.6548
  425MOL0     H57361   8.542   9.874   6.189 -2.1707  1.4652 -1.1248
  425MOL0     H57362   8.796   9.884   6.202 -1.3165 -0.3460 -1.0714
  425MOL0     H57363   9.216  10.334   6.136 -2.0628 -0.6835  2.1279
  425MOL0     H57364   9.459  10.269   6.064 -0.5057 -0.0989 -0.6803
  425MOL0     H57365   9.628   9.909   6.258  2.5015 -1.0230 -0.1880
  425MOL0     H57366   9.604   9.847   6.098 -0.3860 -0.6578  1.5740
  425MOL0     H57367   9.809  10.003   6.036 -0.1298 -0.0366  0.0030
  425MOL0     H57368   9.841   9.846   6.107  4.8818  2.1668 -0.8202
  425MOL0     H57369   9.818   9.950   6.337 -1.7851  2.2980  1.4538
  425MOL0     H57370   9.802  10.106   6.241  0.3757  0.5362 -2.2564
  425MOL0     H57371  10.020  10.096   6.163 -2.1122  1.3381  0.3355
  425MOL0     H57372  10.062   9.934   6.206 -0.3298  0.4566 -1.6124
  425MOL0     H57373  10.146  10.154   6.556 -0.6481  0.7586 -0.3238
  425MOL0     H57374   9.401   9.880   6.241 -1.5224  0.7651  3.6760
  425MOL0     H57375   9.152   9.943   6.284  1.6547 -2.2544  0.1923
  426MOL0     O57376   9.312   3.955   9.673 -0.8076 -1.5576 -0.6119
  426MOL0     C57377   9.345   4.071   9.646 -0.3402  1.3632  0.1193
  426MOL0     O57378   9.264   4.169   9.602 -0.8379 -0.1610 -0.2377
  426MOL0     C57379   9.130   4.145   9.625  0.5573 -0.5201  0.2655
  426MOL0     C57380   9.082   4.080   9.744 -0.3072 -0.4720  0.6125
  426MOL0     C57381   8.949   4.069   9.770  0.0232  0.7379 -0.4209
  426MOL0     C57382   8.852   4.125   9.679  0.0535  0.0752  0.2539
  426MOL0     O57383   8.718   4.110   9.697  0.1910  0.2835  0.1168
  426MOL0     C57384   8.670   4.032   9.807  0.1458  0.4858 -0.6200
  426MOL0     C57385   8.516   4.024   9.812  0.9924  0.2422 -0.4704
  426MOL0     C57386   8.462   4.168   9.844 -0.1505 -0.2972  1.2909
  426MOL0     C57387   8.319   4.194   9.800 -0.3224 -0.0579 -0.3736
  426MOL0     C57388   8.215   4.131   9.895  0.2055 -0.1469  0.0366
  426MOL0     C57389   8.084   4.122   9.837 -0.2996 -0.5720  0.2924
  426MOL0     C57390   8.016   4.252   9.808  0.0523 -1.4240  0.0887
  426MOL0     C57391   7.993   4.359   9.916 -0.1861 -0.2135 -0.1100
  426MOL0     N57392   7.884   4.303   9.994 -0.2992 -0.1389  0.7567
  426MOL0     C57393   7.906   4.237  10.111  0.9294  0.4116  1.8743
  426MOL0     C57394   7.776   4.219  10.152  0.0816  0.3152 -0.1678
  426MOL0     C57395   7.739   4.153  10.286 -0.4774  0.1399 -0.1099
  426MOL0     C57396   7.583   4.156  10.308  0.3513  0.4479  0.1979
  426MOL0     C57397   7.536   4.111  10.441  0.8849  0.3562 -0.1643
  426MOL0     C57398   7.387   4.073  10.460  0.6667 -0.8629  0.0294
  426MOL0     O57399   7.357   4.088  10.599  0.6153  0.0796  0.0320
  426MOL0     C57400   7.228   4.085  10.651  0.0071  0.5269  0.6226
  426MOL0     C57401   7.105   4.065  10.583  0.1321 -0.2686  0.1665
  426MOL0     C57402   6.980   4.058  10.649 -0.3744 -0.4286 -0.4886
  426MOL0     C57403   6.863   4.044  10.557 -0.3501  0.1312 -0.1811
  426MOL0     C57404   6.971   4.076  10.790 -0.4884  0.2402 -0.0581
  426MOL0     C57405   6.844   4.061  10.871 -0.6045  0.3337  0.3857
  426MOL0     O57406   6.863   4.092  10.997 -0.2995  0.1957 -0.8799
  426MOL0     C57407   6.758   4.066  11.082  0.4368  0.6065  1.3341
  426MOL0     C57408   6.754   3.942  11.138  0.3096  0.3452  1.1005
  426MOL0     C57409   6.641   3.890  11.204 -0.5572 -0.2837  0.1994
  426MOL0     C57410   6.531   3.977  11.213 -0.4209 -0.0450 -0.4003
  426MOL0     O57411   6.418   3.937  11.287  0.2932 -0.5763  0.0543
  426MOL0     C57412   6.430   3.833  11.380  0.7294  0.4534  0.7503
  426MOL0     C57413   6.330   3.867  11.490  0.0284 -1.2780 -1.1145
  426MOL0     C57414   6.186   3.825  11.451 -0.3693  0.0265  0.4221
  426MOL0     C57415   6.084   3.871  11.554 -0.5689 -0.5326 -0.0411
  426MOL0     C57416   5.958   3.794  11.523  0.5219 -0.7315 -0.0489
  426MOL0     C57417   5.839   3.839  11.611  0.1280  0.0032 -0.5122
  426MOL0     C57418   5.705   3.765  11.579 -0.4855  0.4122 -0.6123
  426MOL0     C57419   5.605   3.785  11.693  0.3664 -0.3513 -0.8152
  426MOL0    Cl57420   5.584   3.957  11.739  0.4578 -0.3010 -0.4794
  426MOL0     C57421   6.541   4.111  11.168  0.8292 -0.4951  0.3766
  426MOL0     C57422   6.649   4.148  11.098 -0.0295 -0.8310  0.2647
  426MOL0     O57423   6.740   4.028  10.822 -0.0647 -0.1143  0.2430
  426MOL0     C57424   7.095   4.082  10.861 -1.2805 -0.1671 -0.8482
  426MOL0     C57425   7.215   4.090  10.791 -0.2939  0.5942  0.1900
  426MOL0     N57426   7.688   4.289  10.063  0.0531  0.1416 -0.1146
  426MOL0     N57427   7.756   4.335   9.966  0.2063 -0.8403  0.1738
  426MOL0     C57428   8.897   4.188   9.564  0.2829  0.8676  0.3081
  426MOL0     C57429   9.031   4.203   9.540 -0.4114 -0.3477 -0.3166
  426MOL0     C57430   9.495   4.106   9.646  0.3764  0.1042  0.6963
  426MOL0     C57431   9.594   4.007   9.670 -0.7460  0.5155 -0.2407
  426MOL0     C57432   9.725   4.045   9.660  0.0168 -0.5047 -0.4024
  426MOL0     C57433   9.768   4.177   9.633  0.1865  0.1618 -0.3152
  426MOL0     O57434   9.902   4.214   9.620 -0.7325  0.5590 -0.1752
  426MOL0     C57435   9.987   4.139   9.709 -0.2691  0.1736  1.0158
  426MOL0     C57436  10.101   4.228   9.765  0.0439  0.4998 -0.7288
  426MOL0     C57437  10.059   4.323   9.873 -0.1963 -0.8427  0.1891
  426MOL0     C57438  10.051   4.463   9.813 -0.3644 -0.1869 -0.0712
  426MOL0     C57439   9.979   4.551   9.906 -0.6427  0.0847 -0.3874
  426MOL0     C57440   9.908   4.620   9.984 -0.1699 -0.1385  1.1504
  426MOL0     C57441   9.672   4.273   9.613 -0.7214 -0.1575 -0.3103
  426MOL0     C57442   9.532   4.241   9.618 -0.8749  0.5597  1.4664
  426MOL0     H57443   9.145   4.047   9.826 -0.5145 -2.5828 -0.0174
  426MOL0     H57444   8.919   4.014   9.859  0.9025 -0.2130 -0.7096
  426MOL0     H57445   8.707   3.930   9.799  1.5830  0.7219  1.9776
  426MOL0     H57446   8.711   4.073   9.900  1.1057  0.8432 -1.1723
  426MOL0     H57447   8.478   3.986   9.717  2.7764  0.4278 -1.3116
  426MOL0     H57448   8.492   3.958   9.896 -2.9529 -0.9497 -2.3189
  426MOL0     H57449   8.476   4.184   9.952 -1.1995  0.3559  1.3423
  426MOL0     H57450   8.530   4.238   9.794 -0.0515  0.1776  2.0663
  426MOL0     H57451   8.306   4.301   9.779 -3.3861 -0.2542 -0.0180
  426MOL0     H57452   8.297   4.147   9.704 -4.3137 -2.9911  1.6536
  426MOL0     H57453   8.243   4.032   9.931 -1.0556 -0.2808  0.6970
  426MOL0     H57454   8.207   4.190   9.987  0.2175  0.2816 -0.2357
  426MOL0     H57455   8.093   4.059   9.749 -1.7216  1.1618 -1.1596
  426MOL0     H57456   8.016   4.071   9.905 -0.2120 -2.0854 -0.7348
  426MOL0     H57457   8.079   4.295   9.729  1.0166 -3.8927 -0.5907
  426MOL0     H57458   7.918   4.227   9.768  0.5693 -1.4357 -1.2134
  426MOL0     H57459   7.961   4.450   9.866 -0.4261  0.8257  1.8226
  426MOL0     H57460   8.083   4.379   9.975  0.0020  0.2404 -0.5459
  426MOL0     H57461   7.997   4.205  10.160  1.2501 -2.0799 -0.1026
  426MOL0     H57462   7.778   4.053  10.307 -0.9849 -0.8891 -3.4160
  426MOL0     H57463   7.779   4.224  10.359  1.1145  0.0240 -0.8435
  426MOL0     H57464   7.543   4.103  10.221  1.4960  2.6187 -1.7592
  426MOL0     H57465   7.531   4.252  10.308  2.7401  1.8613  1.9478
  426MOL0     H57466   7.552   4.202  10.499  2.2644  0.5217 -0.7705
  426MOL0     H57467   7.596   4.027  10.478 -0.7378 -0.2560  1.2138
  426MOL0     H57468   7.380   3.965  10.447 -0.6676 -0.4789 -3.5877
  426MOL0     H57469   7.311   4.130  10.406 -0.3180 -1.0102  1.2224
  426MOL0     H57470   7.097   4.048  10.476  3.3504 -0.0640 -0.2175
  426MOL0     H57471   6.888   3.998  10.461  3.2301  2.7767 -0.7307
  426MOL0     H57472   6.797   3.972  10.606 -0.2179  0.0895 -0.0638
  426MOL0     H57473   6.807   4.136  10.540  0.6005  0.7447 -0.0746
  426MOL0     H57474   6.843   3.880  11.135 -0.3081 -0.5380 -0.0494
  426MOL0     H57475   6.638   3.787  11.240  0.3708  0.7136  3.5769
  426MOL0     H57476   6.404   3.747  11.319 -0.3331  0.9655  0.4537
  426MOL0     H57477   6.530   3.826  11.424  1.0176 -2.3282 -0.1318
  426MOL0     H57478   6.358   3.814  11.581  1.9679  0.1693 -0.8192
  426MOL0     H57479   6.316   3.972  11.516 -0.4345 -1.1034 -2.0238
  426MOL0     H57480   6.192   3.717  11.465  0.7237 -0.4907 -3.0587
  426MOL0     H57481   6.156   3.858  11.351 -1.9105 -1.4025  0.3713
  426MOL0     H57482   6.124   3.844  11.652 -4.3916 -1.2241  1.4873
  426MOL0     H57483   6.062   3.978  11.559 -0.1855 -0.5177  3.6643
  426MOL0     H57484   5.980   3.690  11.550  0.8012 -0.4093  1.0343
  426MOL0     H57485   5.925   3.804  11.419 -3.5231 -0.8300  1.0483
  426MOL0     H57486   5.868   3.826  11.715  0.7073  1.0194 -0.5390
  426MOL0     H57487   5.820   3.947  11.609 -0.5246 -0.0292  1.7867
  426MOL0     H57488   5.717   3.657  11.580  1.0141  0.4694  3.0038
  426MOL0     H57489   5.655   3.796  11.487  0.3616  0.4941 -1.0520
  426MOL0     H57490   5.636   3.743  11.790  0.7911  2.2816  0.2746
  426MOL0     H57491   5.504   3.753  11.664  0.2704 -1.0655  0.2167
  426MOL0     H57492   6.458   4.179  11.184  0.0695 -1.7514  2.0893
  426MOL0     H57493   6.656   4.251  11.064 -2.5315 -0.5615  0.4433
  426MOL0     H57494   7.103   4.083  10.970  1.3528 -1.2449 -0.9373
  426MOL0     H57495   7.296   4.090  10.864 -2.3893 -1.2680  2.7025
  426MOL0     H57496   8.831   4.230   9.488 -0.2779 -1.1122 -0.3642
  426MOL0     H57497   9.067   4.262   9.456  3.8250 -3.0238 -0.7107
  426MOL0     H57498   9.565   3.904   9.687  2.1783  0.0243  2.7302
  426MOL0     H57499   9.811   3.982   9.683  0.7825  0.9889  1.0635
  426MOL0     H57500   9.930   4.101   9.794 -2.5726 -0.1324 -0.5880
  426MOL0     H57501  10.019   4.057   9.645  0.4240  1.8442 -0.8996
  426MOL0     H57502  10.170   4.263   9.688  3.1914 -3.0414  0.2111
  426MOL0     H57503  10.173   4.156   9.802  0.4714  1.4388  0.3364
  426MOL0     H57504  10.139   4.326   9.947  0.9791 -0.2430 -1.0659
  426MOL0     H57505   9.968   4.297   9.928  0.2774 -1.8678  0.5235
  426MOL0     H57506  10.016   4.465   9.709  0.3495  1.5083 -0.3229
  426MOL0     H57507  10.148   4.511   9.799 -1.1559  1.3364 -0.5940
  426MOL0     H57508   9.849   4.691  10.038  0.5020  0.8898  0.5657
  426MOL0     H57509   9.695   4.375   9.586  1.0848  0.0561  1.7149
  426MOL0     H57510   9.450   4.304   9.585 -0.6657 -0.2615 -0.8171
  427MOL0     O57511   2.958  11.094   6.981 -1.7145 -0.4924 -0.5198
  427MOL0     C57512   2.933  10.999   6.915 -1.0570 -0.2555 -0.6719
  427MOL0     O57513   2.806  10.946   6.888 -0.2243  0.0066 -0.3432
  427MOL0     C57514   2.681  11.004   6.914  0.0185  0.6195  0.1460
  427MOL0     C57515   2.569  10.914   6.903 -0.3355 -0.7793 -0.8856
  427MOL0     C57516   2.443  10.970   6.917 -0.0279 -0.6265 -0.1595
  427MOL0     C57517   2.415  11.111   6.930 -0.0802 -0.2886  0.2452
  427MOL0     O57518   2.292  11.172   6.912  0.0204 -0.6043  0.1153
  427MOL0     C57519   2.176  11.080   6.888  0.0194 -0.3712  0.4584
  427MOL0     C57520   2.045  11.153   6.908  0.0754 -0.2284 -0.4244
  427MOL0     C57521   1.935  11.047   6.937  0.0115 -0.2015  0.2080
  427MOL0     C57522   1.798  11.114   6.967  0.2544 -0.1558 -0.5601
  427MOL0     C57523   1.706  11.016   7.045 -0.5312  0.2391  0.2300
  427MOL0     C57524   1.673  10.894   6.971 -0.0167  0.1281  0.2055
  427MOL0     C57525   1.573  10.813   7.049 -0.6629  0.3212  0.1804
  427MOL0     C57526   1.431  10.862   7.021 -0.0377 -1.0746 -0.3042
  427MOL0     N57527   1.331  10.796   7.111 -0.2873  0.1962 -0.0643
  427MOL0     C57528   1.223  10.856   7.172 -0.5142  0.0200  0.1044
  427MOL0     C57529   1.145  10.762   7.228 -0.1459  0.2736  0.3660
  427MOL0     C57530   0.999  10.771   7.273 -0.4417 -0.3063 -0.2762
  427MOL0     C57531   0.935  10.636   7.301 -0.5207 -0.6175  1.3061
  427MOL0     C57532   0.867  10.566   7.177 -0.1522  0.4072  0.2809
  427MOL0     C57533   0.735  10.628   7.143  0.4579  0.1953 -0.0714
  427MOL0     O57534   0.713  10.602   7.003 -0.3574  0.9134  0.0863
  427MOL0     C57535   0.586  10.589   6.947  0.6971  0.3853  0.6888
  427MOL0     C57536   0.579  10.544   6.809 -0.3856  0.2571 -0.0647
  427MOL0     C57537   0.458  10.542   6.735  0.1782  0.4238 -0.2691
  427MOL0     C57538   0.470  10.500   6.594  0.0641 -0.2971  0.2533
  427MOL0     C57539   0.335  10.579   6.800 -0.0671 -0.6946 -0.1324
  427MOL0     C57540   0.202  10.583   6.739 -0.6216 -0.2685 -0.8472
  427MOL0     O57541   0.108  10.530   6.820  0.2747 -0.0319  0.3468
  427MOL0     C57542  -0.006  10.498   6.751  0.1408  0.3023 -0.7368
  427MOL0     C57543  -0.104  10.598   6.722  0.3931  0.5711 -0.5339
  427MOL0     C57544  -0.233  10.562   6.683  0.2160  0.4057 -0.1362
  427MOL0     C57545  -0.267  10.430   6.665 -0.9070  0.1621  0.0100
  427MOL0     O57546  -0.398  10.391   6.641  0.4528 -0.0415 -0.5030
  427MOL0     C57547  -0.495  10.494   6.599  0.8668  0.2293 -0.1663
  427MOL0     C57548  -0.627  10.416   6.599 -0.5283 -1.0208 -0.5511
  427MOL0     C57549  -0.743  10.517   6.569 -0.0548  0.5023 -0.0062
  427MOL0     C57550  -0.872  10.442   6.571  0.5680  1.1320  0.2076
  427MOL0     C57551  -0.995  10.533   6.577 -0.5679 -0.0099  0.1945
  427MOL0     C57552  -1.117  10.447   6.571 -0.5708 -0.7703  0.2682
  427MOL0     C57553  -1.245  10.523   6.604 -0.2929 -0.2352 -0.1757
  427MOL0     C57554  -1.365  10.438   6.580 -0.0100  0.0998 -0.1827
  427MOL0    Cl57555  -1.502  10.527   6.660 -0.1491 -0.3881 -0.3399
  427MOL0     C57556  -0.170  10.333   6.684  0.0972  0.0682  0.2126
  427MOL0     C57557  -0.044  10.367   6.727 -0.2916 -0.3354 -0.5575
  427MOL0     O57558   0.191  10.627   6.628  0.3329 -0.5702  0.1512
  427MOL0     C57559   0.341  10.607   6.941 -0.7524  0.0340 -0.8268
  427MOL0     C57560   0.462  10.619   7.013 -0.7495  0.0747  0.6215
  427MOL0     N57561   1.219  10.652   7.208 -0.1203  0.4914 -0.1754
  427MOL0     N57562   1.327  10.666   7.153 -0.8224 -0.2580  0.2644
  427MOL0     C57563   2.523  11.193   6.943 -0.2068 -0.5340  0.0810
  427MOL0     C57564   2.654  11.139   6.948  0.0424 -0.1375  0.1600
  427MOL0     C57565   3.058  10.941   6.861  0.4287  0.1564 -0.9198
  427MOL0     C57566   3.045  10.823   6.779 -0.0665 -0.2877 -0.4796
  427MOL0     C57567   3.158  10.755   6.732 -0.1354 -0.5506  0.4097
  427MOL0     C57568   3.286  10.802   6.753 -0.1488  0.5246 -0.2473
  427MOL0     O57569   3.387  10.721   6.705 -0.3652  0.1563 -0.4464
  427MOL0     C57570   3.525  10.764   6.722 -0.7361  1.0080 -0.0929
  427MOL0     C57571   3.617  10.683   6.622 -0.3201 -0.0564 -0.3238
  427MOL0     C57572   3.761  10.703   6.664 -0.2069  0.3689 -0.1556
  427MOL0     C57573   3.848  10.710   6.535 -0.4716 -0.7205 -1.2615
  427MOL0     C57574   3.988  10.734   6.587 -0.7507  0.1638  1.3034
  427MOL0     C57575   4.107  10.720   6.621 -0.3032  0.5241 -0.0763
  427MOL0     C57576   3.309  10.914   6.846  1.0533  0.0962  0.3674
  427MOL0     C57577   3.191  10.988   6.895 -0.9442  0.1452 -0.2539
  427MOL0     H57578   2.583  10.809   6.879 -1.5476 -0.7446 -1.8347
  427MOL0     H57579   2.372  10.888   6.907 -0.2520 -0.9094  2.9971
  427MOL0     H57580   2.183  11.041   6.786  0.9473  1.9908 -0.4343
  427MOL0     H57581   2.181  11.001   6.963  2.1214  0.2972  1.0862
  427MOL0     H57582   2.048  11.208   7.002 -1.8392 -1.2122  0.2728
  427MOL0     H57583   2.012  11.223   6.831 -4.0183 -2.5003 -1.0575
  427MOL0     H57584   1.931  10.976   6.854 -2.6040  0.8247 -0.6529
  427MOL0     H57585   1.960  10.991   7.028 -0.2488  1.0704  1.0929
  427MOL0     H57586   1.797  11.200   7.035  3.5052 -2.7290  3.2125
  427MOL0     H57587   1.750  11.147   6.874 -0.0146 -0.1056 -0.4055
  427MOL0     H57588   1.747  10.996   7.144 -2.0392 -0.9071  0.6637
  427MOL0     H57589   1.619  11.078   7.068  0.2855  1.6643 -0.3958
  427MOL0     H57590   1.649  10.914   6.867  3.1542  2.1024 -0.2661
  427MOL0     H57591   1.766  10.836   6.968 -1.3128 -2.0651  0.3534
  427MOL0     H57592   1.585  10.708   7.020  0.8974  1.3611 -3.5830
  427MOL0     H57593   1.606  10.819   7.153  0.4590 -0.8586 -0.0822
  427MOL0     H57594   1.398  10.850   6.917 -2.9867  0.7041  0.3199
  427MOL0     H57595   1.424  10.970   7.032  0.4764 -0.9678 -0.9618
  427MOL0     H57596   1.208  10.962   7.152 -2.5366 -0.3193 -0.3546
  427MOL0     H57597   0.992  10.815   7.373  0.7379 -0.3617 -0.1539
  427MOL0     H57598   0.946  10.835   7.202  0.4572  0.0903 -0.6026
  427MOL0     H57599   0.852  10.639   7.372 -0.9968  2.5386  0.7837
  427MOL0     H57600   1.005  10.565   7.346 -0.1071 -2.0863 -1.4378
  427MOL0     H57601   0.850  10.459   7.191  2.4586  0.0714  1.4485
  427MOL0     H57602   0.927  10.584   7.087  0.6122 -3.3714 -0.1187
  427MOL0     H57603   0.740  10.737   7.158  1.2371  0.0812  0.5487
  427MOL0     H57604   0.654  10.600   7.212  1.6315 -1.6607  0.6240
  427MOL0     H57605   0.678  10.532   6.766  0.6976 -2.2602  2.7612
  427MOL0     H57606   0.448  10.577   6.519  3.7944 -1.7232 -2.5705
  427MOL0     H57607   0.568  10.462   6.564  0.0597  1.6921 -2.7290
  427MOL0     H57608   0.397  10.420   6.581 -0.4076  0.2885 -0.7795
  427MOL0     H57609  -0.077  10.701   6.741 -0.5202  1.4755 -3.5697
  427MOL0     H57610  -0.295  10.651   6.675  1.0482  1.2457  1.9609
  427MOL0     H57611  -0.505  10.579   6.666 -2.1579 -0.9718  1.0876
  427MOL0     H57612  -0.478  10.531   6.497 -0.7019  1.7193  0.0628
  427MOL0     H57613  -0.628  10.336   6.525  0.5782 -0.4281 -1.2381
  427MOL0     H57614  -0.643  10.371   6.697  0.8561 -2.5824 -1.0087
  427MOL0     H57615  -0.726  10.560   6.471  0.6370 -1.0627 -0.6091
  427MOL0     H57616  -0.749  10.592   6.648  0.8918  0.9194 -0.3221
  427MOL0     H57617  -0.883  10.377   6.484 -2.8414  0.2964  1.1013
  427MOL0     H57618  -0.886  10.387   6.665 -0.9030  1.0345 -0.0482
  427MOL0     H57619  -0.991  10.604   6.493  2.3549  0.7408  0.8463
  427MOL0     H57620  -0.979  10.591   6.668 -0.4631  1.9760 -1.0094
  427MOL0     H57621  -1.121  10.403   6.471 -1.4945 -0.6739  0.2532
  427MOL0     H57622  -1.103  10.366   6.643 -0.4351 -0.5728  0.4662
  427MOL0     H57623  -1.245  10.615   6.545 -0.0271 -1.3839 -2.0781
  427MOL0     H57624  -1.240  10.549   6.710  1.8665 -0.3663 -0.1968
  427MOL0     H57625  -1.355  10.339   6.626 -2.3473  0.1794  0.6609
  427MOL0     H57626  -1.382  10.430   6.472  2.0204 -1.4514 -0.4415
  427MOL0     H57627  -0.183  10.226   6.674  1.0653 -0.0209 -0.2292
  427MOL0     H57628   0.031  10.293   6.750  1.3502  0.5775 -2.6847
  427MOL0     H57629   0.250  10.629   6.996 -0.5360  1.4211 -0.9805
  427MOL0     H57630   0.475  10.648   7.117  0.1528 -0.2854  0.6210
  427MOL0     H57631   2.513  11.301   6.944  0.2702 -0.4104 -2.3380
  427MOL0     H57632   2.723  11.221   6.965 -0.3302  0.5916 -1.5578
  427MOL0     H57633   2.950  10.772   6.767 -0.0670 -0.9792  1.9135
  427MOL0     H57634   3.146  10.666   6.671 -1.5715 -0.1099  0.0179
  427MOL0     H57635   3.535  10.869   6.693  1.2698  0.3712 -2.0113
  427MOL0     H57636   3.551  10.741   6.825 -1.4218 -1.5554 -0.4174
  427MOL0     H57637   3.587  10.693   6.517  0.8726  0.2159 -0.6543
  427MOL0     H57638   3.587  10.580   6.644  1.6237 -0.8629 -1.2526
  427MOL0     H57639   3.795  10.617   6.722 -1.4415  0.3435  0.5641
  427MOL0     H57640   3.772  10.800   6.713 -4.1480  1.2996 -0.7911
  427MOL0     H57641   3.824  10.794   6.469  2.6864 -0.6038 -2.4361
  427MOL0     H57642   3.843  10.624   6.467 -0.9849  0.4062 -2.7012
  427MOL0     H57643   4.212  10.723   6.641 -0.3712 -2.7884  1.5357
  427MOL0     H57644   3.410  10.929   6.881  0.9379  0.8707  0.4051
  427MOL0     H57645   3.211  11.068   6.965  0.2641  0.0593 -0.4828
  428MOL0     O57646   5.725   8.451   5.619  0.2663 -0.2345  0.4046
  428MOL0     C57647   5.747   8.546   5.690  0.0143 -0.5901 -0.1228
  428MOL0     O57648   5.666   8.588   5.789 -0.5702 -0.1153  0.1025
  428MOL0     C57649   5.555   8.516   5.817 -0.0836 -0.2757  0.0733
  428MOL0     C57650   5.438   8.528   5.743 -0.1345  0.2350  0.3741
  428MOL0     C57651   5.321   8.467   5.792 -0.4676  0.3586  0.3698
  428MOL0     C57652   5.329   8.389   5.913 -0.8350 -0.5074 -0.7380
  428MOL0     O57653   5.224   8.328   5.972  0.4187 -0.1097 -0.3195
  428MOL0     C57654   5.103   8.311   5.893  0.4761 -0.6995  0.3048
  428MOL0     C57655   5.007   8.236   5.967  0.3357  0.6452 -0.5299
  428MOL0     C57656   4.860   8.284   5.944 -0.1269  1.2293 -0.5524
  428MOL0     C57657   4.823   8.416   6.016  0.4664 -0.1852  0.4203
  428MOL0     C57658   4.668   8.412   6.038 -0.3464  0.8810 -0.9254
  428MOL0     C57659   4.618   8.540   6.093  0.3263  0.2720 -0.0657
  428MOL0     C57660   4.480   8.515   6.155 -0.4238  0.3265 -1.3582
  428MOL0     C57661   4.423   8.641   6.228  0.2230 -0.3191 -0.1505
  428MOL0     N57662   4.283   8.609   6.275 -0.1691 -0.2415 -0.6849
  428MOL0     C57663   4.246   8.529   6.375 -0.5277 -0.2787  0.5450
  428MOL0     C57664   4.112   8.549   6.396  0.8546  0.3322 -0.4263
  428MOL0     C57665   4.031   8.474   6.507  0.2427 -0.9661  0.2688
  428MOL0     C57666   4.030   8.555   6.633  0.0762 -0.4989 -0.4386
  428MOL0     C57667   3.974   8.700   6.616 -0.0480 -0.3982 -0.2226
  428MOL0     C57668   3.935   8.764   6.749 -0.2060  0.0669  0.0335
  428MOL0     O57669   3.861   8.892   6.724 -0.0127  0.7726 -0.1579
  428MOL0     C57670   3.723   8.890   6.721 -0.6129 -1.1241  0.1479
  428MOL0     C57671   3.658   9.024   6.712  0.1148 -0.7209  0.2750
  428MOL0     C57672   3.520   9.040   6.698 -0.1837 -0.4523 -0.5191
  428MOL0     C57673   3.469   9.181   6.700  0.3406 -0.0663 -0.0983
  428MOL0     C57674   3.446   8.924   6.687  0.0801 -0.5542  0.0438
  428MOL0     C57675   3.304   8.925   6.685  0.7588 -0.1527  0.0829
  428MOL0     O57676   3.242   8.851   6.587 -0.3914  0.3697  0.3983
  428MOL0     C57677   3.111   8.857   6.578  0.0701  0.5541  0.2333
  428MOL0     C57678   3.020   8.773   6.654 -0.4444  1.1118  0.8581
  428MOL0     C57679   2.883   8.794   6.637  0.5002  0.4786  1.0029
  428MOL0     C57680   2.833   8.888   6.539  0.1156 -0.3159  0.8568
  428MOL0     O57681   2.694   8.902   6.511  0.1725  0.0594  0.4581
  428MOL0     C57682   2.611   8.883   6.628 -0.6780  0.4530  0.2319
  428MOL0     C57683   2.481   8.947   6.595  0.4340 -0.6630 -0.3232
  428MOL0     C57684   2.384   8.880   6.501 -0.1379 -0.1330 -0.0014
  428MOL0     C57685   2.292   8.993   6.440 -0.0929  0.6233  0.6540
  428MOL0     C57686   2.232   8.935   6.308 -0.0999 -0.2267  0.5658
  428MOL0     C57687   2.169   8.794   6.318  0.2661  0.1051 -0.4650
  428MOL0     C57688   2.058   8.797   6.415 -0.7634 -0.5228 -0.1063
  428MOL0     C57689   1.974   8.673   6.415 -0.0653 -0.8325 -1.1386
  428MOL0    Cl57690   1.875   8.662   6.264 -0.0595 -0.4760 -0.0599
  428MOL0     C57691   2.919   8.968   6.473 -0.1123  0.1289  0.3867
  428MOL0     C57692   3.056   8.950   6.480 -0.3791  0.5060 -1.0932
  428MOL0     O57693   3.245   8.994   6.759  0.7806  0.2619 -0.2718
  428MOL0     C57694   3.504   8.796   6.690  0.9849  0.9130  0.3575
  428MOL0     C57695   3.640   8.780   6.716  0.8265  0.4884 -0.2462
  428MOL0     N57696   4.075   8.649   6.316  0.7306  0.1808 -0.6287
  428MOL0     N57697   4.167   8.670   6.232 -0.2192 -0.0217  0.8042
  428MOL0     C57698   5.451   8.382   5.983  0.8265 -0.0651  0.2762
  428MOL0     C57699   5.561   8.438   5.929 -0.6824 -0.9675 -0.5000
  428MOL0     C57700   5.860   8.632   5.661 -0.5152  0.7586  0.3291
  428MOL0     C57701   5.835   8.766   5.664 -0.4614 -0.6037  1.1607
  428MOL0     C57702   5.949   8.852   5.626 -0.2865  0.8913 -0.1329
  428MOL0     C57703   6.067   8.793   5.586 -0.4399  0.3777  0.4156
  428MOL0     O57704   6.176   8.867   5.545 -0.6499  0.0177  0.3062
  428MOL0     C57705   6.193   9.010   5.551  0.0274 -0.3297 -0.5671
  428MOL0     C57706   6.332   9.064   5.498  0.1534 -0.2751 -0.9710
  428MOL0     C57707   6.330   9.052   5.342 -0.2028  0.4169 -0.1193
  428MOL0     C57708   6.364   8.905   5.302  1.0084 -0.5586  0.5769
  428MOL0     C57709   6.398   8.915   5.154  0.6945  0.0182  0.2969
  428MOL0     C57710   6.397   8.917   5.034 -0.0271 -0.6700 -0.1455
  428MOL0     C57711   6.084   8.662   5.595  0.5202  0.9520 -0.0007
  428MOL0     C57712   5.983   8.566   5.626  1.0679 -0.4049 -0.1635
  428MOL0     H57713   5.433   8.591   5.655 -2.8668  0.6674  0.7311
  428MOL0     H57714   5.227   8.476   5.739 -1.0336 -0.7884  1.1373
  428MOL0     H57715   5.061   8.408   5.865  3.4277  0.6871  0.3203
  428MOL0     H57716   5.125   8.258   5.800  0.3272  0.4243 -0.3862
  428MOL0     H57717   5.009   8.133   5.930 -0.2126  0.4704 -0.0913
  428MOL0     H57718   5.020   8.241   6.075 -2.7069  0.0413 -0.0497
  428MOL0     H57719   4.842   8.303   5.837  4.0047 -2.2575 -2.1530
  428MOL0     H57720   4.795   8.197   5.957  2.5515 -0.8657 -0.4056
  428MOL0     H57721   4.879   8.430   6.110  0.7175  2.2268 -0.0188
  428MOL0     H57722   4.859   8.500   5.955  1.2831 -1.2761 -0.6342
  428MOL0     H57723   4.611   8.383   5.949  0.6279  1.0963 -1.6339
  428MOL0     H57724   4.657   8.337   6.116 -1.5783 -0.1714 -2.0595
  428MOL0     H57725   4.688   8.579   6.168 -0.8668  2.3984  0.0496
  428MOL0     H57726   4.607   8.608   6.008  0.0993  0.4511  0.1040
  428MOL0     H57727   4.416   8.495   6.069 -1.9653  0.2703 -0.2512
  428MOL0     H57728   4.480   8.424   6.216 -0.5976  1.9008  1.1225
  428MOL0     H57729   4.409   8.722   6.156  1.2769 -0.5752 -0.6615
  428MOL0     H57730   4.493   8.679   6.303 -0.8233  1.5453 -0.0508
  428MOL0     H57731   4.312   8.474   6.441 -1.0107 -1.6255 -0.0514
  428MOL0     H57732   3.929   8.457   6.473  1.4276 -2.0723 -3.0828
  428MOL0     H57733   4.078   8.380   6.537  2.3997 -0.2358 -0.6151
  428MOL0     H57734   4.128   8.552   6.680  0.0730 -4.0887 -0.3636
  428MOL0     H57735   3.962   8.498   6.698 -1.5358  0.4329 -1.2295
  428MOL0     H57736   3.886   8.697   6.550  0.7523 -5.0231 -1.4632
  428MOL0     H57737   4.049   8.764   6.569 -2.6479  1.4805 -2.1351
  428MOL0     H57738   4.028   8.788   6.803 -1.1848  0.7384  1.4906
  428MOL0     H57739   3.880   8.688   6.806 -0.1970 -1.6434 -2.1196
  428MOL0     H57740   3.718   9.114   6.706 -0.7772 -0.0704  0.9091
  428MOL0     H57741   3.363   9.187   6.674  0.6120  0.3962 -1.1539
  428MOL0     H57742   3.483   9.227   6.799  3.3518  2.6487 -1.5800
  428MOL0     H57743   3.530   9.244   6.634 -2.7664  2.9066 -0.4491
  428MOL0     H57744   3.049   8.703   6.732  2.2190  1.6894  0.4808
  428MOL0     H57745   2.815   8.723   6.683  1.0291 -1.6532 -1.2608
  428MOL0     H57746   2.599   8.779   6.657 -3.1249  0.6058 -0.0766
  428MOL0     H57747   2.662   8.938   6.708  2.7576 -1.1843 -0.6536
  428MOL0     H57748   2.427   8.965   6.688  1.4981 -0.4943  0.2777
  428MOL0     H57749   2.513   9.040   6.546  1.3221 -1.0869 -0.5671
  428MOL0     H57750   2.325   8.805   6.553  0.0553 -2.2289 -2.5653
  428MOL0     H57751   2.435   8.827   6.419 -1.7205  0.3476 -1.3599
  428MOL0     H57752   2.217   9.012   6.517 -0.1482  0.3122  0.6776
  428MOL0     H57753   2.347   9.082   6.409 -2.3180  0.9639 -3.0376
  428MOL0     H57754   2.304   8.933   6.227 -2.6639 -2.0900 -1.8759
  428MOL0     H57755   2.154   9.003   6.272 -1.0778 -1.7859 -0.4114
  428MOL0     H57756   2.135   8.767   6.218  0.2204  1.9059 -0.9673
  428MOL0     H57757   2.243   8.721   6.355 -0.6525 -0.0425  1.1800
  428MOL0     H57758   2.001   8.885   6.386  0.3213 -0.3079 -1.6764
  428MOL0     H57759   2.092   8.824   6.515 -0.2922  2.2615 -0.9510
  428MOL0     H57760   1.921   8.679   6.510  0.6980  0.7127 -0.7763
  428MOL0     H57761   2.052   8.595   6.417  3.1477  2.0726  2.7351
  428MOL0     H57762   2.890   9.050   6.408 -0.1457  0.0297  0.2763
  428MOL0     H57763   3.110   9.013   6.410 -0.3325  2.3210  0.5133
  428MOL0     H57764   3.444   8.706   6.706 -0.8612  2.4354  2.7151
  428MOL0     H57765   3.673   8.677   6.723 -0.2293  0.2181  1.2236
  428MOL0     H57766   5.465   8.309   6.062 -0.0886 -0.0436  0.4777
  428MOL0     H57767   5.655   8.418   5.980 -1.2693 -2.4858  0.0339
  428MOL0     H57768   5.738   8.810   5.684 -1.3912 -0.9884 -2.0076
  428MOL0     H57769   5.937   8.959   5.611  1.6402  1.1622 -0.0325
  428MOL0     H57770   6.116   9.038   5.478 -0.4076 -0.9042 -0.3299
  428MOL0     H57771   6.158   9.030   5.653 -1.3952 -1.6920 -0.7641
  428MOL0     H57772   6.414   9.007   5.542 -0.4231 -0.3388  0.0466
  428MOL0     H57773   6.350   9.168   5.525  1.0470 -0.2107 -1.7630
  428MOL0     H57774   6.408   9.118   5.304  1.6625 -1.6459 -0.0552
  428MOL0     H57775   6.232   9.081   5.303 -0.8080  0.8420  1.5882
  428MOL0     H57776   6.275   8.843   5.314  0.7328  0.3518  4.8490
  428MOL0     H57777   6.450   8.860   5.352  1.5726 -1.4413 -1.1181
  428MOL0     H57778   6.393   8.908   4.928 -0.8726 -1.8076 -0.0396
  428MOL0     H57779   6.182   8.624   5.568 -0.1771 -0.1917 -0.9708
  428MOL0     H57780   5.985   8.457   5.624 -2.1907 -0.5848 -0.3836
  429MOL0     O57781   1.372   5.173   5.982  0.2963  0.5878  0.7859
  429MOL0     C57782   1.459   5.164   6.061 -0.7936 -0.0001 -0.2657
  429MOL0     O57783   1.445   5.106   6.191 -0.4081  0.4945  0.4241
  429MOL0     C57784   1.315   5.075   6.232  0.1698  0.6875  0.1679
  429MOL0     C57785   1.209   5.162   6.226 -0.9478  0.1739 -0.8341
  429MOL0     C57786   1.088   5.135   6.282 -0.4044 -0.1802  0.2842
  429MOL0     C57787   1.065   5.017   6.338 -0.1961  0.5382 -0.5692
  429MOL0     O57788   0.946   4.988   6.396 -1.1264  0.2165  0.2476
  429MOL0     C57789   0.908   4.858   6.427  0.5094  0.1724 -0.1888
  429MOL0     C57790   0.766   4.862   6.480 -0.4171 -0.8567 -0.5150
  429MOL0     C57791   0.659   4.860   6.366  0.4225  0.4961  0.1820
  429MOL0     C57792   0.524   4.846   6.441 -0.2424  0.0904 -0.3792
  429MOL0     C57793   0.390   4.839   6.363  0.5540 -0.2003  0.5442
  429MOL0     C57794   0.274   4.809   6.461 -0.9630  0.0639 -0.3798
  429MOL0     C57795   0.139   4.850   6.410  1.0861  0.2985 -0.2309
  429MOL0     C57796   0.071   4.753   6.322 -0.6233  0.1175 -0.5562
  429MOL0     N57797  -0.060   4.788   6.283  0.1199 -0.6886  0.1160
  429MOL0     C57798  -0.104   4.905   6.223  0.0840 -0.5338  0.5890
  429MOL0     C57799  -0.243   4.899   6.224 -0.3588  0.3477  0.5946
  429MOL0     C57800  -0.342   4.995   6.157 -0.9312  0.4801  0.2776
  429MOL0     C57801  -0.484   4.938   6.120 -0.3619 -0.2416 -0.2980
  429MOL0     C57802  -0.579   4.934   6.241 -0.3155 -0.1332  0.0722
  429MOL0     C57803  -0.697   4.847   6.220 -0.3053 -0.0710  0.3652
  429MOL0     O57804  -0.774   4.871   6.099 -0.2241  0.1549 -0.3213
  429MOL0     C57805  -0.883   4.945   6.119 -0.0408  0.9017 -0.1545
  429MOL0     C57806  -0.924   5.012   6.236 -0.8439  0.3883  0.7586
  429MOL0     C57807  -1.048   5.076   6.245  0.4171  0.4007 -0.5463
  429MOL0     C57808  -1.074   5.152   6.377 -0.1184 -0.2450  0.1798
  429MOL0     C57809  -1.135   5.081   6.130  0.3479  0.6863  0.4533
  429MOL0     C57810  -1.266   5.156   6.123  0.4962  0.2424  0.8668
  429MOL0     O57811  -1.357   5.113   6.016  0.4331 -0.4031 -0.5618
  429MOL0     C57812  -1.471   5.190   5.997 -0.5593  0.5462 -0.1669
  429MOL0     C57813  -1.510   5.198   5.863 -0.8188  0.6687 -0.1186
  429MOL0     C57814  -1.634   5.247   5.824  0.3169 -0.2909  0.0337
  429MOL0     C57815  -1.727   5.285   5.924 -1.0849 -1.0386  1.1383
  429MOL0     O57816  -1.848   5.337   5.889 -0.4741 -0.3964  0.8148
  429MOL0     C57817  -1.925   5.258   5.795 -0.3765 -0.1868 -0.3447
  429MOL0     C57818  -2.065   5.309   5.806 -0.1546 -0.3124 -0.0389
  429MOL0     C57819  -2.158   5.229   5.715 -0.1154  0.1267 -0.0375
  429MOL0     C57820  -2.303   5.276   5.726 -0.3323 -0.4388  0.0822
  429MOL0     C57821  -2.331   5.413   5.670 -0.7522  0.1000  1.1165
  429MOL0     C57822  -2.478   5.435   5.651 -0.2945  0.6143 -0.3366
  429MOL0     C57823  -2.494   5.585   5.631  0.5556  0.4949  1.1007
  429MOL0     C57824  -2.640   5.618   5.612 -0.4725  0.4050  0.3814
  429MOL0    Cl57825  -2.697   5.556   5.457  0.4596 -0.2049  0.3507
  429MOL0     C57826  -1.689   5.284   6.062  0.0452  1.0280  1.1175
  429MOL0     C57827  -1.560   5.234   6.092  0.3182 -0.0121 -0.8512
  429MOL0     O57828  -1.291   5.245   6.201  0.7557  0.0495 -0.1500
  429MOL0     C57829  -1.104   4.994   6.025  0.4782  0.0860  0.7378
  429MOL0     C57830  -0.979   4.929   6.021  0.4817  0.8996 -0.5529
  429MOL0     N57831  -0.278   4.780   6.287  0.3765  0.2332 -0.0091
  429MOL0     N57832  -0.174   4.718   6.326 -0.4340 -0.6594  0.4278
  429MOL0     C57833   1.165   4.921   6.333 -0.4115  0.6177  0.1910
  429MOL0     C57834   1.288   4.954   6.279  0.7279  0.7294 -0.7638
  429MOL0     C57835   1.582   5.235   6.022 -0.7581 -0.9505 -0.5675
  429MOL0     C57836   1.654   5.307   6.123 -0.9937 -0.1943  0.4371
  429MOL0     C57837   1.761   5.383   6.069 -0.3872 -0.6442 -0.0461
  429MOL0     C57838   1.802   5.388   5.935  0.5338  0.6058  0.3410
  429MOL0     O57839   1.904   5.480   5.912  0.0649 -0.3779 -0.1542
  429MOL0     C57840   1.982   5.446   5.794  0.9592 -0.3146 -0.2957
  429MOL0     C57841   2.124   5.501   5.799  0.6935 -0.0846 -0.0134
  429MOL0     C57842   2.228   5.468   5.916  0.0945  0.0636  0.4186
  429MOL0     C57843   2.168   5.439   6.053  0.0557  0.7168  0.3917
  429MOL0     C57844   2.271   5.401   6.150 -0.0056 -0.1269 -0.2502
  429MOL0     C57845   2.365   5.390   6.236  0.4351 -0.2644  0.0339
  429MOL0     C57846   1.725   5.316   5.838 -0.2982  0.4593 -0.6595
  429MOL0     C57847   1.626   5.238   5.886 -0.2529 -0.5718  0.2127
  429MOL0     H57848   1.221   5.259   6.179 -0.6331  0.9075  0.7238
  429MOL0     H57849   1.011   5.212   6.281 -0.7645 -0.4803  2.1263
  429MOL0     H57850   0.927   4.794   6.341  2.2439  0.2385  0.1030
  429MOL0     H57851   0.977   4.822   6.504  1.7920 -0.6107 -1.6488
  429MOL0     H57852   0.758   4.787   6.560  0.7476 -1.3510 -0.8445
  429MOL0     H57853   0.759   4.956   6.535 -2.1724 -0.2641 -1.6586
  429MOL0     H57854   0.655   4.953   6.307 -0.3793 -0.4156 -1.2558
  429MOL0     H57855   0.676   4.784   6.289  1.3325 -1.0162  1.8060
  429MOL0     H57856   0.524   4.754   6.500 -0.0348  0.6873  0.5695
  429MOL0     H57857   0.517   4.930   6.510 -0.0332  2.0240 -2.5988
  429MOL0     H57858   0.384   4.940   6.322 -0.0682 -0.7092 -0.6677
  429MOL0     H57859   0.400   4.764   6.284  1.4532 -0.2925  0.7384
  429MOL0     H57860   0.261   4.705   6.494  0.3178  0.1396  0.4565
  429MOL0     H57861   0.310   4.856   6.553  0.8418 -0.3213 -0.8421
  429MOL0     H57862   0.078   4.877   6.497  0.9342  2.3836 -0.9158
  429MOL0     H57863   0.153   4.942   6.352  3.0394 -0.5851 -1.2292
  429MOL0     H57864   0.079   4.650   6.359  1.6768  0.4265 -0.0265
  429MOL0     H57865   0.128   4.759   6.229  0.0681 -1.5145 -0.2670
  429MOL0     H57866  -0.037   4.984   6.192 -1.2290  0.5864  0.4881
  429MOL0     H57867  -0.351   5.087   6.215  0.6670  3.7311 -4.0579
  429MOL0     H57868  -0.287   5.027   6.068 -0.1230  0.0759  0.6221
  429MOL0     H57869  -0.475   4.836   6.084 -3.6147 -1.4184  1.7655
  429MOL0     H57870  -0.525   5.000   6.039 -0.7514  0.1254  0.1716
  429MOL0     H57871  -0.614   5.036   6.258  1.5767  0.2719  1.9136
  429MOL0     H57872  -0.535   4.905   6.337  0.8786  0.5929 -0.2391
  429MOL0     H57873  -0.745   4.843   6.318 -0.3345  3.5330  0.6240
  429MOL0     H57874  -0.654   4.748   6.199  2.4100  1.4452 -2.0131
  429MOL0     H57875  -0.851   5.021   6.316 -0.1592  0.6703  0.1154
  429MOL0     H57876  -1.172   5.123   6.417 -1.5629  2.7461 -0.8895
  429MOL0     H57877  -0.992   5.130   6.445  1.9809 -1.0929 -2.4915
  429MOL0     H57878  -1.066   5.260   6.358 -1.5569 -0.2610 -0.6691
  429MOL0     H57879  -1.434   5.177   5.787 -1.6355 -1.1804 -0.4940
  429MOL0     H57880  -1.648   5.258   5.717  1.3906  0.1811 -0.0676
  429MOL0     H57881  -1.891   5.274   5.692 -0.3701  0.3285 -0.2675
  429MOL0     H57882  -1.923   5.155   5.832 -3.9962  0.2419  1.5246
  429MOL0     H57883  -2.102   5.311   5.909 -2.1182  1.4376 -0.7031
  429MOL0     H57884  -2.074   5.411   5.767 -1.6877 -0.1647  0.6317
  429MOL0     H57885  -2.136   5.125   5.741  1.2531  0.7819  1.6616
  429MOL0     H57886  -2.131   5.238   5.610 -0.9203 -1.2198 -0.3844
  429MOL0     H57887  -2.364   5.209   5.664  1.2820  0.3958 -2.5471
  429MOL0     H57888  -2.318   5.271   5.834 -0.1348 -0.7771  0.0970
  429MOL0     H57889  -2.274   5.412   5.577  1.0164 -1.4633  2.1496
  429MOL0     H57890  -2.286   5.496   5.726 -0.5046  1.3646 -0.8630
  429MOL0     H57891  -2.522   5.377   5.570 -0.9928  0.7272 -0.0480
  429MOL0     H57892  -2.529   5.407   5.743  1.1333  0.0896  0.3284
  429MOL0     H57893  -2.433   5.629   5.551 -1.4969  1.9352  0.2489
  429MOL0     H57894  -2.461   5.637   5.722 -2.1014  2.3762  1.0758
  429MOL0     H57895  -2.656   5.726   5.603 -2.8846  0.0620  0.0635
  429MOL0     H57896  -2.691   5.580   5.700  1.9760 -1.6264  1.0446
  429MOL0     H57897  -1.752   5.327   6.139  1.1954  1.6144  1.7543
  429MOL0     H57898  -1.528   5.229   6.196 -0.3937  3.1620 -0.3708
  429MOL0     H57899  -1.169   4.973   5.941  2.8272  0.3118 -1.2363
  429MOL0     H57900  -0.963   4.875   5.928 -1.3658  1.8181 -1.4839
  429MOL0     H57901   1.157   4.819   6.370 -0.3742  0.8320  0.7988
  429MOL0     H57902   1.368   4.883   6.297 -0.3408 -0.5790 -0.9711
  429MOL0     H57903   1.614   5.296   6.223 -1.6908  0.3741  0.2255
  429MOL0     H57904   1.826   5.446   6.130  1.7443 -2.2983 -0.5140
  429MOL0     H57905   2.005   5.339   5.807  0.3201 -0.4622 -0.3311
  429MOL0     H57906   1.927   5.464   5.701 -0.5576  0.3831  0.6947
  429MOL0     H57907   2.125   5.610   5.793  2.6146 -0.0140  0.7829
  429MOL0     H57908   2.164   5.466   5.703 -1.1452  1.0460 -1.2586
  429MOL0     H57909   2.301   5.548   5.933  0.3505 -0.3322  1.2754
  429MOL0     H57910   2.291   5.384   5.885  0.0770 -0.2118  1.1016
  429MOL0     H57911   2.102   5.356   6.025  0.1892  1.5159 -2.5701
  429MOL0     H57912   2.110   5.521   6.095 -1.9288 -0.8345  0.8793
  429MOL0     H57913   2.433   5.365   6.315  0.4193 -1.1018 -0.2139
  429MOL0     H57914   1.740   5.334   5.732  1.0409 -1.1214 -0.7849
  429MOL0     H57915   1.564   5.180   5.818 -3.3325  2.0140  0.5512
  430MOL0     O57916   6.825   1.424   1.594  0.2444 -0.1846 -0.0598
  430MOL0     C57917   6.797   1.486   1.692  0.3031 -0.2981 -0.4678
  430MOL0     O57918   6.680   1.481   1.766  0.5820  0.1178  0.0619
  430MOL0     C57919   6.574   1.408   1.727  0.0660  0.5262  0.9201
  430MOL0     C57920   6.577   1.272   1.669  0.0096  0.0752  0.6557
  430MOL0     C57921   6.462   1.201   1.646 -0.1085 -0.3587  0.9760
  430MOL0     C57922   6.338   1.268   1.659  0.3171  0.7036 -0.4072
  430MOL0     O57923   6.221   1.213   1.628 -0.1373 -0.0548  0.2829
  430MOL0     C57924   6.210   1.069   1.590 -0.4791 -0.2829 -0.3726
  430MOL0     C57925   6.060   1.040   1.572 -0.0554 -1.0111  0.3419
  430MOL0     C57926   6.039   0.900   1.525 -1.3309 -0.4395 -0.2758
  430MOL0     C57927   5.896   0.851   1.540  0.7409 -0.7177  0.5820
  430MOL0     C57928   5.787   0.942   1.459  0.0376  0.0123 -0.1590
  430MOL0     C57929   5.647   0.876   1.442 -0.0224 -0.8360  0.6925
  430MOL0     C57930   5.595   0.839   1.584 -0.1413  0.1479  0.2047
  430MOL0     C57931   5.452   0.888   1.611  1.0400  0.4243 -0.3425
  430MOL0     N57932   5.361   0.835   1.519 -0.4053  0.3496  0.0127
  430MOL0     C57933   5.281   0.911   1.438 -0.0051 -0.2064 -0.0457
  430MOL0     C57934   5.212   0.825   1.359  0.5696 -0.4195  0.3118
  430MOL0     C57935   5.102   0.861   1.259 -0.5801 -0.5458  0.1830
  430MOL0     C57936   4.986   0.941   1.317  0.1760 -0.0256 -0.8937
  430MOL0     C57937   4.910   0.876   1.437 -0.4944 -1.9391 -0.6955
  430MOL0     C57938   4.801   0.772   1.393  0.2186  0.4694  0.3162
  430MOL0     O57939   4.742   0.719   1.516  0.0769  0.3646  0.6638
  430MOL0     C57940   4.639   0.623   1.511 -0.3129  0.2664  0.3366
  430MOL0     C57941   4.593   0.566   1.391 -0.4251 -0.6269  0.5854
  430MOL0     C57942   4.488   0.480   1.388  1.1259  0.3004 -0.0015
  430MOL0     C57943   4.453   0.432   1.255 -0.1044 -0.3121  0.0963
  430MOL0     C57944   4.417   0.454   1.509  0.0604  0.0394 -0.8928
  430MOL0     C57945   4.300   0.367   1.526 -0.3489 -0.9745 -0.6579
  430MOL0     O57946   4.216   0.392   1.634  0.7011 -0.1529  0.2379
  430MOL0     C57947   4.094   0.329   1.636  0.5809  0.4667  0.1144
  430MOL0     C57948   4.070   0.249   1.751  0.0697  0.1364 -0.5663
  430MOL0     C57949   3.944   0.196   1.780  0.4630 -0.1993  0.3648
  430MOL0     C57950   3.832   0.232   1.702  0.3295  0.0641 -0.3143
  430MOL0     O57951   3.711   0.183   1.731 -0.0589 -0.2799 -0.8312
  430MOL0     C57952   3.595   0.251   1.678 -0.3573  0.7506  0.4433
  430MOL0     C57953   3.560   0.196   1.542  0.3402  0.3322  0.5305
  430MOL0     C57954   3.417   0.242   1.496 -0.5822  0.0030 -0.1622
  430MOL0     C57955   3.385   0.147   1.369  0.1157  0.6976 -0.5809
  430MOL0     C57956   3.268   0.202   1.282 -0.2866  0.9171 -0.1572
  430MOL0     C57957   3.137   0.156   1.346 -0.6179  0.0740 -0.7668
  430MOL0     C57958   3.013   0.201   1.269  0.4707 -0.5057  0.0375
  430MOL0     C57959   2.893   0.209   1.362 -0.5013 -0.1982  0.0996
  430MOL0    Cl57960   2.750   0.289   1.276 -0.0402 -0.2215 -0.4326
  430MOL0     C57961   3.854   0.327   1.593 -1.0180 -0.7285  0.7433
  430MOL0     C57962   3.985   0.370   1.561 -0.5634 -0.4048  0.0650
  430MOL0     O57963   4.289   0.274   1.447  0.1255  0.1813  0.4693
  430MOL0     C57964   4.455   0.516   1.625 -0.0433  0.0996 -0.4742
  430MOL0     C57965   4.573   0.589   1.626  0.3385 -0.1415  0.2777
  430MOL0     N57966   5.243   0.693   1.401  0.0068  0.7160  0.4919
  430MOL0     N57967   5.334   0.707   1.491 -0.4838 -0.8090 -0.2981
  430MOL0     C57968   6.330   1.392   1.716 -0.3948  0.1432 -0.2771
  430MOL0     C57969   6.441   1.463   1.751 -0.1879  0.6089  0.5094
  430MOL0     C57970   6.906   1.577   1.737  0.7200 -0.0165  0.1718
  430MOL0     C57971   7.018   1.605   1.661  0.4456  0.2353  0.2478
  430MOL0     C57972   7.118   1.699   1.703 -0.0658 -0.1809 -0.1292
  430MOL0     C57973   7.114   1.765   1.821 -0.5664 -0.8243 -0.8874
  430MOL0     O57974   7.190   1.871   1.864 -0.3124  0.2712  0.5056
  430MOL0     C57975   7.328   1.889   1.823  0.4398 -1.1028  0.0266
  430MOL0     C57976   7.414   1.779   1.882 -0.1195  0.0768  0.1899
  430MOL0     C57977   7.411   1.780   2.041 -0.4211  0.2781 -0.3165
  430MOL0     C57978   7.484   1.651   2.080  0.2174  0.1983  0.2853
  430MOL0     C57979   7.477   1.623   2.223  0.0246  0.2020 -1.0048
  430MOL0     C57980   7.490   1.594   2.345  0.5172  0.5503 -0.3513
  430MOL0     C57981   6.996   1.741   1.886  0.1630  0.1731 -0.8529
  430MOL0     C57982   6.892   1.649   1.853 -0.4630 -0.8521  0.1767
  430MOL0     H57983   6.667   1.212   1.660  0.3060  0.7792 -1.4864
  430MOL0     H57984   6.464   1.096   1.618 -0.4803 -0.5966  1.8064
  430MOL0     H57985   6.266   1.066   1.496  0.5780  1.3720  0.1564
  430MOL0     H57986   6.259   1.007   1.666  0.5787  1.2910  0.2753
  430MOL0     H57987   6.001   1.057   1.663  1.8971  1.1588  1.2741
  430MOL0     H57988   6.022   1.112   1.499 -0.2463 -0.0763  1.3427
  430MOL0     H57989   6.062   0.912   1.419 -0.4068 -0.9309 -0.1435
  430MOL0     H57990   6.099   0.828   1.582 -2.8821 -1.9443 -0.4393
  430MOL0     H57991   5.881   0.745   1.514  0.1864 -0.1099 -1.8087
  430MOL0     H57992   5.877   0.856   1.647  3.6368 -1.1268  1.1865
  430MOL0     H57993   5.772   1.041   1.504 -0.2895 -0.5097  0.9126
  430MOL0     H57994   5.824   0.960   1.358 -0.7785  1.4865 -0.2362
  430MOL0     H57995   5.581   0.955   1.407  2.2763  0.2537 -1.5587
  430MOL0     H57996   5.648   0.802   1.361  1.1030  1.3252 -1.3951
  430MOL0     H57997   5.609   0.731   1.591  0.4519  0.0781 -1.4938
  430MOL0     H57998   5.658   0.885   1.660  1.5363  0.6218 -1.3846
  430MOL0     H57999   5.441   0.996   1.601 -0.3867  0.2499 -0.8204
  430MOL0     H58000   5.422   0.855   1.711  2.0874  2.2049  0.6112
  430MOL0     H58001   5.274   1.019   1.437 -0.0726 -0.0753  3.3380
  430MOL0     H58002   5.137   0.927   1.180 -2.2812  1.2751  0.8563
  430MOL0     H58003   5.080   0.768   1.205  2.8987 -0.9887 -0.7054
  430MOL0     H58004   4.916   0.973   1.240  1.4072  0.3563 -1.8917
  430MOL0     H58005   5.031   1.033   1.357  1.7288 -1.6159  1.2729
  430MOL0     H58006   4.860   0.956   1.492  1.9459 -0.3648 -0.5872
  430MOL0     H58007   4.979   0.829   1.508 -0.8888 -3.8781 -1.5197
  430MOL0     H58008   4.853   0.692   1.338 -0.5006  0.5965 -0.5598
  430MOL0     H58009   4.733   0.821   1.324  1.1213  1.4389  0.0943
  430MOL0     H58010   4.640   0.594   1.297 -1.3126  1.3050  0.6667
  430MOL0     H58011   4.378   0.497   1.209  0.7975  1.3130  0.8576
  430MOL0     H58012   4.537   0.435   1.186  1.5155  0.1882  2.0107
  430MOL0     H58013   4.410   0.331   1.254 -1.4428  0.2202  0.6944
  430MOL0     H58014   4.149   0.225   1.821  1.2009  2.1094 -1.0993
  430MOL0     H58015   3.910   0.133   1.862 -2.5211 -2.8254 -2.5725
  430MOL0     H58016   3.505   0.255   1.740 -0.4581 -0.0978  0.3655
  430MOL0     H58017   3.615   0.358   1.672 -1.3366  0.8688 -1.5021
  430MOL0     H58018   3.636   0.223   1.468 -2.3385  0.3175 -2.4971
  430MOL0     H58019   3.562   0.087   1.544 -0.1206  0.2264 -1.7583
  430MOL0     H58020   3.418   0.350   1.478 -0.5666 -0.2822 -2.0823
  430MOL0     H58021   3.337   0.221   1.567 -1.1027  0.4181 -0.6160
  430MOL0     H58022   3.475   0.132   1.309  1.5498 -1.1837  1.8454
  430MOL0     H58023   3.352   0.050   1.408 -3.8177  2.3159  0.6532
  430MOL0     H58024   3.272   0.165   1.179  1.6247  0.4634  0.0290
  430MOL0     H58025   3.272   0.311   1.278 -0.1555  0.8918 -3.1962
  430MOL0     H58026   3.137   0.050   1.373  0.0442  0.3741  0.5157
  430MOL0     H58027   3.144   0.208   1.442  1.0878  1.4424 -1.5664
  430MOL0     H58028   2.984   0.135   1.187 -0.3860  0.1132 -0.1638
  430MOL0     H58029   3.025   0.301   1.225 -0.1522  0.6534  2.3563
  430MOL0     H58030   2.935   0.274   1.439 -0.5464  2.6779 -2.1547
  430MOL0     H58031   2.850   0.120   1.410  1.2819  0.2513  2.7179
  430MOL0     H58032   3.779   0.372   1.529 -0.3007 -1.1851 -0.4610
  430MOL0     H58033   4.001   0.446   1.485 -0.1059 -0.7636 -0.2003
  430MOL0     H58034   4.395   0.525   1.715  0.5688 -1.6115  0.1419
  430MOL0     H58035   4.604   0.643   1.715  1.9519 -0.0029 -0.3324
  430MOL0     H58036   6.233   1.441   1.718 -0.7841 -0.5462 -1.3608
  430MOL0     H58037   6.436   1.564   1.792  0.4746  1.5866 -1.6680
  430MOL0     H58038   7.026   1.569   1.559 -1.4425  0.0953  0.1044
  430MOL0     H58039   7.194   1.721   1.628  0.4459  2.2268  1.0230
  430MOL0     H58040   7.332   1.895   1.714  0.9848 -0.1860  0.0831
  430MOL0     H58041   7.361   1.981   1.872 -2.5604 -1.3358  2.7537
  430MOL0     H58042   7.518   1.777   1.848  0.1670 -0.6758  1.0358
  430MOL0     H58043   7.361   1.688   1.851 -0.2300  0.5535 -1.0784
  430MOL0     H58044   7.306   1.779   2.070 -0.3143 -0.6509  0.0978
  430MOL0     H58045   7.463   1.868   2.078  0.0158 -0.9850  2.3033
  430MOL0     H58046   7.592   1.656   2.060  0.0076  1.6854 -0.6493
  430MOL0     H58047   7.441   1.567   2.024  2.4825 -1.2023  0.4931
  430MOL0     H58048   7.486   1.560   2.446  2.7952  2.6147  0.5461
  430MOL0     H58049   6.975   1.796   1.977  2.1460 -0.6361  0.1573
  430MOL0     H58050   6.815   1.633   1.927  1.7653 -2.0130  2.4141
  431MOL0     O58051   7.677  10.924  10.488 -0.0835  0.3200  0.0947
  431MOL0     C58052   7.746  10.925  10.580  0.2521 -0.5430  1.1921
  431MOL0     O58053   7.700  10.891  10.705 -0.1480 -0.3048 -0.3282
  431MOL0     C58054   7.578  10.836  10.733 -0.2044  0.4408 -0.8172
  431MOL0     C58055   7.510  10.883  10.846  0.5028  0.3845 -0.1819
  431MOL0     C58056   7.375  10.853  10.867 -0.1285 -0.0072  0.2120
  431MOL0     C58057   7.306  10.758  10.786 -0.1834 -0.7295 -0.3398
  431MOL0     O58058   7.174  10.723  10.790  0.4425  0.0133 -0.1206
  431MOL0     C58059   7.077  10.821  10.840  0.1267  0.3220 -0.6112
  431MOL0     C58060   6.937  10.755  10.827 -0.3119 -0.7463  0.1300
  431MOL0     C58061   6.843  10.838  10.914  0.9102 -0.5529 -0.0285
  431MOL0     C58062   6.704  10.767  10.919 -0.0882  1.4614 -0.5784
  431MOL0     C58063   6.605  10.858  10.986  0.1526  0.4182 -0.4155
  431MOL0     C58064   6.463  10.794  11.010 -0.3806  0.4707  0.1305
  431MOL0     C58065   6.416  10.695  10.898  0.2995  0.2049  0.7612
  431MOL0     C58066   6.283  10.620  10.942 -0.5964  0.2486 -0.1917
  431MOL0     N58067   6.174  10.703  10.959 -0.3417  0.2698 -0.1955
  431MOL0     C58068   6.124  10.735  11.081 -0.3352 -0.3145  0.5266
  431MOL0     C58069   6.034  10.831  11.059  0.6914 -0.2602 -0.1593
  431MOL0     C58070   5.980  10.921  11.156  0.2513  0.2127 -1.9965
  431MOL0     C58071   5.832  10.897  11.151 -0.3039  0.1966  0.2275
  431MOL0     C58072   5.768  10.976  11.039 -0.5292  0.1578 -0.6937
  431MOL0     C58073   5.619  10.999  11.060 -0.0324  0.2446 -0.4802
  431MOL0     O58074   5.597  11.076  10.949 -0.2807 -0.3446 -0.3970
  431MOL0     C58075   5.476  11.129  10.914  0.2131  0.6113 -0.0346
  431MOL0     C58076   5.477  11.186  10.790 -0.1693  0.1069  0.4268
  431MOL0     C58077   5.358  11.254  10.744 -0.5928  0.2598 -0.0063
  431MOL0     C58078   5.373  11.339  10.617  0.8828 -0.4849  0.5235
  431MOL0     C58079   5.234  11.239  10.813 -0.4071 -0.1563  0.0067
  431MOL0     C58080   5.111  11.309  10.777  0.1966  0.2404 -0.2748
  431MOL0     O58081   4.995  11.255  10.822 -0.3120 -0.3562  0.2012
  431MOL0     C58082   4.869  11.291  10.771 -0.2702  0.6014  0.1553
  431MOL0     C58083   4.779  11.361  10.855  0.6745  0.6440  0.5622
  431MOL0     C58084   4.662  11.414  10.805  0.8913  0.0063 -0.0399
  431MOL0     C58085   4.617  11.381  10.669 -0.3391  0.0605 -0.6958
  431MOL0     O58086   4.485  11.413  10.638 -0.0973  0.6123 -0.5049
  431MOL0     C58087   4.447  11.434  10.497 -0.7284  0.1847 -0.6554
  431MOL0     C58088   4.313  11.497  10.486  0.4487  0.4971  0.0887
  431MOL0     C58089   4.315  11.646  10.528  0.1010 -0.7931  0.1611
  431MOL0     C58090   4.205  11.679  10.636  0.5517  0.0417 -0.5279
  431MOL0     C58091   4.212  11.810  10.716  0.7498  0.1664 -1.0736
  431MOL0     C58092   4.217  11.930  10.620 -0.1688 -0.4396 -0.1042
  431MOL0     C58093   4.267  12.064  10.676 -0.2496 -0.4829 -0.2146
  431MOL0     C58094   4.300  12.162  10.569 -0.0250 -0.2176  0.1416
  431MOL0    Cl58095   4.442  12.118  10.468 -0.1026  0.1689  0.2790
  431MOL0     C58096   4.707  11.314  10.585  1.0851 -0.2976 -0.2263
  431MOL0     C58097   4.830  11.275  10.638  0.2597 -0.5353  0.3387
  431MOL0     O58098   5.117  11.411  10.705  0.4081  0.3069 -0.4211
  431MOL0     C58099   5.231  11.150  10.924  0.3678  0.7009  0.3131
  431MOL0     C58100   5.353  11.104  10.980 -0.2496 -0.0430 -0.0830
  431MOL0     N58101   6.034  10.867  10.926 -0.5377  0.5142 -0.4408
  431MOL0     N58102   6.116  10.783  10.864 -0.1014  0.0282 -0.5560
  431MOL0     C58103   7.378  10.697  10.681 -0.4547  0.4849 -1.0908
  431MOL0     C58104   7.507  10.739  10.657  0.7499 -0.2434  0.3657
  431MOL0     C58105   7.885  10.978  10.571 -0.5559 -0.4713  0.9051
  431MOL0     C58106   7.938  11.029  10.455 -0.0679  0.1503  0.3482
  431MOL0     C58107   8.069  11.085  10.447  0.0430  0.3746 -0.4823
  431MOL0     C58108   8.145  11.091  10.562  0.3194 -0.4566 -0.5348
  431MOL0     O58109   8.275  11.137  10.558 -0.3788  0.3180 -0.4812
  431MOL0     C58110   8.358  11.112  10.447  0.7072  0.2529  0.1688
  431MOL0     C58111   8.464  11.217  10.462  0.5718  0.5623  0.2687
  431MOL0     C58112   8.440  11.356  10.405  0.0657 -0.0927 -0.3403
  431MOL0     C58113   8.571  11.441  10.405  0.1238 -0.3177  0.1571
  431MOL0     C58114   8.590  11.503  10.272  0.5240 -0.1028 -0.0118
  431MOL0     C58115   8.619  11.577  10.172  0.8591  0.5688 -0.8287
  431MOL0     C58116   8.096  11.035  10.676  0.4792  0.1172  0.0279
  431MOL0     C58117   7.963  10.982  10.686  0.6439  0.1642  0.1820
  431MOL0     H58118   7.563  10.950  10.913 -3.5576  2.3316  1.4698
  431MOL0     H58119   7.327  10.910  10.946  1.1992  2.8894 -0.9348
  431MOL0     H58120   7.092  10.836  10.947 -3.9796  0.7417  0.0564
  431MOL0     H58121   7.086  10.915  10.785  1.4183  0.0027 -0.9708
  431MOL0     H58122   6.909  10.764  10.721  1.5894  0.7423 -0.3104
  431MOL0     H58123   6.923  10.653  10.864 -3.3295  0.8170  3.9690
  431MOL0     H58124   6.882  10.834  11.016 -1.4241  2.1143  1.0841
  431MOL0     H58125   6.836  10.942  10.881  1.9256 -0.5891 -0.3860
  431MOL0     H58126   6.662  10.748  10.819 -1.1780  0.4451  0.0517
  431MOL0     H58127   6.724  10.682  10.985  1.3935  3.4952  1.7904
  431MOL0     H58128   6.645  10.894  11.081  0.5046  0.8252 -0.7200
  431MOL0     H58129   6.592  10.943  10.919  0.6838 -0.0389 -1.1028
  431MOL0     H58130   6.469  10.752  11.111  0.4444  0.4767  0.0929
  431MOL0     H58131   6.382  10.865  11.027 -0.1580  1.1951 -1.6566
  431MOL0     H58132   6.407  10.768  10.817  0.5920  2.3067  2.5333
  431MOL0     H58133   6.492  10.619  10.880  0.8567  0.9414 -0.0514
  431MOL0     H58134   6.305  10.556  11.027  1.7623 -1.9238 -2.2699
  431MOL0     H58135   6.266  10.557  10.854 -0.9191 -0.4544  0.3618
  431MOL0     H58136   6.166  10.701  11.174  2.2418  2.6089  0.6157
  431MOL0     H58137   6.021  10.892  11.254 -1.7630 -0.2456 -1.2423
  431MOL0     H58138   6.005  11.027  11.142 -0.5716  0.6488 -0.4449
  431MOL0     H58139   5.794  10.933  11.247  0.8754  0.2128  0.7055
  431MOL0     H58140   5.806  10.792  11.139  0.2064 -0.0398  1.1170
  431MOL0     H58141   5.792  10.920  10.947  1.9843 -0.5277  0.2994
  431MOL0     H58142   5.814  11.075  11.031 -0.4185  0.2982  1.3505
  431MOL0     H58143   5.581  11.056  11.146 -0.7594 -1.5858  0.4939
  431MOL0     H58144   5.556  10.909  11.057 -0.6485  0.6255  0.3791
  431MOL0     H58145   5.561  11.185  10.720 -0.5781 -1.0999 -0.0758
  431MOL0     H58146   5.311  11.289  10.542 -0.1081 -0.8744  1.5803
  431MOL0     H58147   5.352  11.446  10.627  0.7578 -0.6933  2.9777
  431MOL0     H58148   5.474  11.342  10.574  0.3811  1.2953 -0.6668
  431MOL0     H58149   4.805  11.379  10.959 -0.8579  2.0064  0.7405
  431MOL0     H58150   4.605  11.486  10.863 -1.2095 -1.3203 -0.3454
  431MOL0     H58151   4.521  11.488  10.437  0.3137 -1.1376 -0.6096
  431MOL0     H58152   4.450  11.335  10.451  1.0968  0.0617 -0.3723
  431MOL0     H58153   4.277  11.496  10.383 -1.4854  1.9995  0.6984
  431MOL0     H58154   4.245  11.425  10.533  1.3518 -0.1981  0.3590
  431MOL0     H58155   4.279  11.713  10.449  1.4134  2.0455  1.8274
  431MOL0     H58156   4.416  11.675  10.557  0.4455 -0.3868 -1.3235
  431MOL0     H58157   4.104  11.668  10.595  0.0790  2.0012 -0.0029
  431MOL0     H58158   4.217  11.595  10.705  4.6230 -0.8509 -2.0018
  431MOL0     H58159   4.312  11.803  10.760  0.4445  2.8667  0.2578
  431MOL0     H58160   4.137  11.819  10.795  0.8377 -2.2695 -0.6413
  431MOL0     H58161   4.278  11.904  10.533  2.5158  2.8629  0.5920
  431MOL0     H58162   4.113  11.948  10.593 -0.3900 -0.1849  0.8821
  431MOL0     H58163   4.358  12.050  10.735  0.7609 -0.7649 -1.7884
  431MOL0     H58164   4.182  12.101  10.733 -1.4644  2.8128 -3.7600
  431MOL0     H58165   4.319  12.263  10.606 -0.3194 -0.2915  0.5029
  431MOL0     H58166   4.212  12.179  10.505  1.0611  1.9272 -0.9034
  431MOL0     H58167   4.692  11.291  10.480  1.0138 -2.5230  0.2135
  431MOL0     H58168   4.902  11.235  10.568 -3.0335 -1.4982 -2.8179
  431MOL0     H58169   5.137  11.123  10.971  0.0701  0.9389 -0.1342
  431MOL0     H58170   5.345  11.046  11.071  1.6451  2.6999  1.9789
  431MOL0     H58171   7.338  10.619  10.616 -1.6822  1.0050 -1.0015
  431MOL0     H58172   7.554  10.697  10.569 -1.8656  0.2419 -1.3549
  431MOL0     H58173   7.879  11.030  10.364 -0.3866 -1.3523  0.4991
  431MOL0     H58174   8.094  11.117  10.346 -4.7690  0.7539 -1.8232
  431MOL0     H58175   8.394  11.009  10.451 -2.6125 -1.0970 -1.0738
  431MOL0     H58176   8.312  11.113  10.348 -1.6842 -2.3212  1.1232
  431MOL0     H58177   8.558  11.169  10.431 -0.8423 -2.2000 -0.0485
  431MOL0     H58178   8.493  11.226  10.568  0.3613 -2.1783  0.6359
  431MOL0     H58179   8.359  11.409  10.456  0.1929  1.4167 -1.6089
  431MOL0     H58180   8.407  11.341  10.302  0.9847  1.5357 -0.9054
  431MOL0     H58181   8.654  11.378  10.440  0.4238  0.4373  0.8552
  431MOL0     H58182   8.554  11.512  10.486 -2.0654 -0.4403 -0.1449
  431MOL0     H58183   8.664  11.628  10.090  2.2079  0.6582 -0.0616
  431MOL0     H58184   8.155  11.019  10.766 -2.6894  2.5521  2.8054
  431MOL0     H58185   7.929  10.943  10.782 -2.3812  0.8236 -0.5041
  432MOL0     O58186   5.779   9.059   2.380  0.8556 -0.9605  0.0217
  432MOL0     C58187   5.806   9.008   2.270  0.3087 -0.7553 -1.1003
  432MOL0     O58188   5.721   9.017   2.159 -0.3878 -0.7161  0.8112
  432MOL0     C58189   5.600   9.085   2.160 -0.0161  0.7477  0.7048
  432MOL0     C58190   5.496   9.045   2.069 -0.1826 -0.1936  0.3003
  432MOL0     C58191   5.377   9.120   2.066 -0.1208 -0.7754  0.7116
  432MOL0     C58192   5.354   9.224   2.148  0.7973 -0.4358  0.1399
  432MOL0     O58193   5.231   9.286   2.123  0.6638  0.1349  0.3057
  432MOL0     C58194   5.200   9.398   2.213  0.4866  0.5190 -0.1565
  432MOL0     C58195   5.087   9.477   2.146 -0.6090  0.2658 -0.5086
  432MOL0     C58196   4.959   9.395   2.127  1.0648 -0.3714 -0.1836
  432MOL0     C58197   4.849   9.488   2.067  0.3981  0.7538 -0.1671
  432MOL0     C58198   4.716   9.414   2.044  0.5042  0.1481 -0.7298
  432MOL0     C58199   4.620   9.403   2.165 -0.1073  0.1428  0.6250
  432MOL0     C58200   4.499   9.326   2.130  0.1082 -0.0549  0.2694
  432MOL0     C58201   4.406   9.305   2.250  0.4811  0.4832  0.6503
  432MOL0     N58202   4.286   9.220   2.213 -0.5636 -0.2172  0.5809
  432MOL0     C58203   4.289   9.089   2.183 -0.6805 -0.8655  0.2153
  432MOL0     C58204   4.168   9.065   2.131  0.7792 -0.3678  0.9926
  432MOL0     C58205   4.112   8.938   2.065 -0.4987 -0.4006 -0.4965
  432MOL0     C58206   3.971   8.905   2.126  0.0597 -0.1558 -0.1115
  432MOL0     C58207   3.863   8.975   2.044  0.3492  0.0750  0.7216
  432MOL0     C58208   3.724   8.937   2.105 -0.4664 -0.2078 -0.1061
  432MOL0     O58209   3.708   8.794   2.105 -0.2185  0.4028  0.4435
  432MOL0     C58210   3.579   8.749   2.107  0.4465 -0.0237  0.3575
  432MOL0     C58211   3.526   8.729   2.231 -0.5064 -0.2617  0.1130
  432MOL0     C58212   3.390   8.689   2.250 -0.5005 -0.3989 -1.0545
  432MOL0     C58213   3.342   8.688   2.396 -0.1245 -0.4158  0.1645
  432MOL0     C58214   3.309   8.660   2.138 -0.4459 -0.6862 -0.2178
  432MOL0     C58215   3.169   8.617   2.141  0.4395  0.6815 -0.0865
  432MOL0     O58216   3.096   8.647   2.247 -0.0436  0.4433  0.2833
  432MOL0     C58217   2.963   8.609   2.263  0.0120  0.0053  0.1512
  432MOL0     C58218   2.919   8.605   2.393  0.1719  0.1990 -0.0809
  432MOL0     C58219   2.780   8.581   2.426  0.0922 -0.5882 -0.0739
  432MOL0     C58220   2.682   8.581   2.331 -0.9968 -0.5460  0.3052
  432MOL0     O58221   2.548   8.575   2.352  0.0234  0.9064  0.5232
  432MOL0     C58222   2.457   8.536   2.247  0.1916  0.5104  0.7048
  432MOL0     C58223   2.326   8.502   2.311 -0.4063 -0.2174 -0.1963
  432MOL0     C58224   2.231   8.464   2.195  0.2623  0.8244  0.4219
  432MOL0     C58225   2.085   8.463   2.235 -0.5196  0.4993 -0.0285
  432MOL0     C58226   2.010   8.378   2.134  0.4210  0.4687  0.3694
  432MOL0     C58227   1.869   8.374   2.177  0.4857  0.3597  0.4508
  432MOL0     C58228   1.787   8.258   2.113  0.4183  0.0195 -1.1720
  432MOL0     C58229   1.737   8.162   2.229  0.2643 -0.6091 -0.3242
  432MOL0    Cl58230   1.632   8.245   2.338 -0.1084 -0.0285  0.0275
  432MOL0     C58231   2.734   8.587   2.194  0.6133 -0.2588  1.2303
  432MOL0     C58232   2.868   8.597   2.162  0.5339 -0.8945  0.2043
  432MOL0     O58233   3.130   8.562   2.041 -0.3145  0.0088  0.0108
  432MOL0     C58234   3.378   8.664   2.013 -0.4382 -0.2998  0.1694
  432MOL0     C58235   3.508   8.711   1.995  0.3217 -0.9329 -0.1461
  432MOL0     N58236   4.093   9.180   2.133  0.3982 -1.0052  0.3762
  432MOL0     N58237   4.167   9.270   2.189 -0.3498 -0.2701 -0.3169
  432MOL0     C58238   5.448   9.262   2.245 -0.7300 -1.0028 -0.0560
  432MOL0     C58239   5.575   9.194   2.244  0.0289 -0.1245  0.1270
  432MOL0     C58240   5.931   8.928   2.255  0.0972  0.3274 -0.0386
  432MOL0     C58241   6.003   8.909   2.372  0.9409  0.5814  0.7970
  432MOL0     C58242   6.119   8.840   2.367  1.0667  0.1958 -0.0247
  432MOL0     C58243   6.158   8.763   2.260 -0.2958 -0.1238  0.5464
  432MOL0     O58244   6.264   8.677   2.261  0.6204 -0.1858  0.2514
  432MOL0     C58245   6.367   8.701   2.352  0.1897  0.0376  0.5107
  432MOL0     C58246   6.481   8.601   2.352  0.5455  0.7488  0.1830
  432MOL0     C58247   6.559   8.606   2.219  0.0922  0.3856 -0.3408
  432MOL0     C58248   6.703   8.552   2.232 -0.4433 -0.0935  0.2101
  432MOL0     C58249   6.710   8.405   2.249 -0.8192 -0.0280 -0.1841
  432MOL0     C58250   6.711   8.273   2.255 -0.2173 -0.8019 -0.4917
  432MOL0     C58251   6.082   8.777   2.141  1.1744 -0.6161  0.0741
  432MOL0     C58252   5.966   8.848   2.143  0.5254  0.2420 -0.0200
  432MOL0     H58253   5.506   8.968   1.993  1.1998  0.6516 -0.4095
  432MOL0     H58254   5.305   9.092   1.988 -0.7054  1.0086  0.5767
  432MOL0     H58255   5.180   9.362   2.315  2.1131 -1.6585 -0.5446
  432MOL0     H58256   5.277   9.475   2.209  0.2070  0.7482 -1.4727
  432MOL0     H58257   5.063   9.561   2.212 -1.5726  0.3519 -0.9447
  432MOL0     H58258   5.126   9.511   2.049  1.8488 -0.6870  0.0850
  432MOL0     H58259   4.983   9.304   2.071 -0.1519 -1.4089  0.9352
  432MOL0     H58260   4.932   9.369   2.229  2.1662 -0.4952  0.0958
  432MOL0     H58261   4.839   9.561   2.148  2.3499  1.8732 -0.8608
  432MOL0     H58262   4.875   9.529   1.969 -1.1659  0.6919 -0.6327
  432MOL0     H58263   4.657   9.456   1.962 -1.7260 -0.6010  0.4050
  432MOL0     H58264   4.727   9.312   2.008 -1.0931 -1.0033  1.7453
  432MOL0     H58265   4.680   9.350   2.240  1.2663 -2.0471 -1.8510
  432MOL0     H58266   4.594   9.496   2.218 -0.4900  0.0063  0.6788
  432MOL0     H58267   4.438   9.379   2.057  0.9246  1.5985  0.7371
  432MOL0     H58268   4.523   9.222   2.103  0.9923  0.7384 -2.2611
  432MOL0     H58269   4.367   9.404   2.276  0.7167  0.3332  1.5997
  432MOL0     H58270   4.450   9.254   2.336 -2.8443 -0.5950  1.8672
  432MOL0     H58271   4.373   9.021   2.180 -0.2057 -0.2549 -0.8054
  432MOL0     H58272   4.120   8.960   1.958  1.5506 -1.5245 -0.6311
  432MOL0     H58273   4.188   8.861   2.086 -1.1288 -0.1111  3.5896
  432MOL0     H58274   3.964   8.943   2.228  0.0899  2.6510 -1.0591
  432MOL0     H58275   3.959   8.797   2.136  1.2918 -0.5730 -2.4293
  432MOL0     H58276   3.870   8.937   1.942  3.1096 -1.9826  1.5495
  432MOL0     H58277   3.872   9.084   2.035  0.4104 -0.0730 -1.5932
  432MOL0     H58278   3.646   8.986   2.047  0.1153  1.6011  0.5719
  432MOL0     H58279   3.714   8.972   2.208 -0.0802 -0.9175  0.1815
  432MOL0     H58280   3.589   8.761   2.313  0.3496  1.6916 -1.2334
  432MOL0     H58281   3.422   8.722   2.462 -2.2556 -0.5336  2.9453
  432MOL0     H58282   3.260   8.758   2.415  0.4076 -0.3232  2.3763
  432MOL0     H58283   3.318   8.585   2.424  0.5507 -0.6871 -0.2054
  432MOL0     H58284   2.989   8.615   2.476 -0.1021  1.7270 -0.0136
  432MOL0     H58285   2.746   8.568   2.529 -0.1338  0.4016 -0.0052
  432MOL0     H58286   2.452   8.617   2.173  1.5109  0.0368  0.0588
  432MOL0     H58287   2.493   8.442   2.205 -1.6955 -0.0498  0.2590
  432MOL0     H58288   2.332   8.425   2.387  1.9268  0.6925  0.6310
  432MOL0     H58289   2.286   8.591   2.362  0.0669  0.2451 -0.6148
  432MOL0     H58290   2.268   8.365   2.169  2.0916  0.7539  2.8849
  432MOL0     H58291   2.247   8.528   2.108  0.4893 -1.6195 -1.4074
  432MOL0     H58292   2.086   8.405   2.328  1.6721 -0.1868 -0.4177
  432MOL0     H58293   2.058   8.568   2.242  3.3975  1.5146  2.5311
  432MOL0     H58294   2.052   8.277   2.129  2.7169  1.3931  0.0652
  432MOL0     H58295   2.020   8.422   2.035  0.5199 -1.5255 -0.5516
  432MOL0     H58296   1.855   8.368   2.285 -0.7361 -4.4273  0.2205
  432MOL0     H58297   1.824   8.469   2.144 -1.6671 -1.3791 -2.0373
  432MOL0     H58298   1.850   8.207   2.039  1.0074 -1.3110  0.1843
  432MOL0     H58299   1.700   8.307   2.069  1.0854  1.8371 -0.5771
  432MOL0     H58300   1.816   8.115   2.287  2.0129  0.6444 -1.5718
  432MOL0     H58301   1.691   8.084   2.167  0.6604 -1.1220  0.0208
  432MOL0     H58302   2.661   8.588   2.113 -0.2397 -1.8241  1.9511
  432MOL0     H58303   2.906   8.609   2.061  0.6203 -1.8532  0.1095
  432MOL0     H58304   3.323   8.626   1.928  0.2462  2.2291 -1.4989
  432MOL0     H58305   3.544   8.723   1.893 -0.1592  0.3742 -0.1791
  432MOL0     H58306   5.434   9.347   2.311  0.5384 -1.1259  0.3967
  432MOL0     H58307   5.648   9.226   2.318  1.5157  0.0911 -1.3626
  432MOL0     H58308   5.986   8.966   2.464  3.2061  1.8103  0.5379
  432MOL0     H58309   6.171   8.838   2.463 -0.4989 -2.1899  0.8547
  432MOL0     H58310   6.402   8.804   2.352  1.3789 -0.3509 -0.2167
  432MOL0     H58311   6.324   8.685   2.451 -0.8231 -2.2730 -0.2338
  432MOL0     H58312   6.426   8.506   2.352  3.2934 -0.9843 -0.3705
  432MOL0     H58313   6.552   8.619   2.433  0.4780  1.7190  0.0346
  432MOL0     H58314   6.566   8.711   2.190 -0.1359  0.1667 -1.2063
  432MOL0     H58315   6.514   8.542   2.142 -0.2636  0.0007  0.1697
  432MOL0     H58316   6.751   8.592   2.322  4.6656 -2.0204 -1.2910
  432MOL0     H58317   6.775   8.571   2.152 -1.2138  1.6691 -0.1010
  432MOL0     H58318   6.722   8.167   2.255 -3.9882 -1.4030  2.0937
  432MOL0     H58319   6.114   8.725   2.051 -0.6655  1.3826 -1.8740
  432MOL0     H58320   5.901   8.850   2.056  2.0635  2.0151 -1.1959
  433MOL0     O58321  10.906   8.922   0.747  0.0002 -0.2918 -0.2284
  433MOL0     C58322  10.970   9.020   0.787 -0.5991 -0.0305 -0.6571
  433MOL0     O58323  10.934   9.153   0.775 -0.4202  0.0410 -0.0558
  433MOL0     C58324  10.805   9.196   0.749 -0.0766 -0.3124  0.2352
  433MOL0     C58325  10.803   9.327   0.701  0.7518  0.5004 -0.5452
  433MOL0     C58326  10.683   9.397   0.683 -0.7990  0.8071  0.0286
  433MOL0     C58327  10.562   9.343   0.727  0.1010  0.3867  0.2240
  433MOL0     O58328  10.460   9.433   0.736 -0.2438  0.5044 -0.2805
  433MOL0     C58329  10.329   9.389   0.787 -0.1260 -0.0818 -0.0126
  433MOL0     C58330  10.225   9.494   0.765  0.7080  0.5577  0.6677
  433MOL0     C58331  10.115   9.492   0.876 -0.0354 -0.2812 -0.2408
  433MOL0     C58332  10.052   9.355   0.896 -0.1520 -0.2132  0.6868
  433MOL0     C58333   9.926   9.344   0.992  0.1798 -0.6377 -0.2718
  433MOL0     C58334   9.797   9.386   0.918  0.9649 -0.1978  0.0776
  433MOL0     C58335   9.663   9.334   0.978  0.4088 -0.4285 -0.3829
  433MOL0     C58336   9.675   9.196   1.048  0.0758  0.3413 -0.6795
  433MOL0     N58337   9.536   9.163   1.076 -0.9793  0.4977  0.6804
  433MOL0     C58338   9.447   9.118   0.986  0.3296  0.1077 -0.4199
  433MOL0     C58339   9.340   9.076   1.061  0.6696 -0.0637 -0.5576
  433MOL0     C58340   9.201   9.056   1.014 -0.1229 -0.6072 -0.0850
  433MOL0     C58341   9.089   9.077   1.118 -0.3221 -0.4135 -0.2881
  433MOL0     C58342   8.956   9.028   1.060 -0.0018  0.1071 -0.5678
  433MOL0     C58343   8.831   9.071   1.134  0.0057 -0.8756  0.1060
  433MOL0     O58344   8.719   9.024   1.066  0.3020  0.2571 -0.8914
  433MOL0     C58345   8.594   9.026   1.131  1.1210  0.5618 -0.6773
  433MOL0     C58346   8.497   8.935   1.098  0.3925  0.5010  0.3408
  433MOL0     C58347   8.372   8.938   1.154  0.1369 -0.9090 -0.3021
  433MOL0     C58348   8.274   8.832   1.112 -0.0982  0.0760 -0.0190
  433MOL0     C58349   8.339   9.045   1.242 -0.0938  0.0863  0.1207
  433MOL0     C58350   8.202   9.068   1.287  0.1982 -0.1931 -0.6128
  433MOL0     O58351   8.098   9.027   1.213  0.0189 -0.4726  0.4290
  433MOL0     C58352   7.966   9.061   1.254 -0.5521  0.0435 -0.1761
  433MOL0     C58353   7.917   9.190   1.238 -0.2955 -0.1602 -0.0075
  433MOL0     C58354   7.782   9.224   1.265  0.1290  0.6803  0.5223
  433MOL0     C58355   7.700   9.121   1.308 -0.0871 -0.6060  0.1517
  433MOL0     O58356   7.577   9.173   1.340  0.1490 -0.0588 -0.4116
  433MOL0     C58357   7.470   9.079   1.351 -0.7367 -0.3175  0.3431
  433MOL0     C58358   7.333   9.142   1.360  0.0553 -0.7597 -1.0269
  433MOL0     C58359   7.226   9.040   1.370 -0.1232 -0.3530  0.0139
  433MOL0     C58360   7.098   9.111   1.379 -0.1620 -0.6240  0.3767
  433MOL0     C58361   6.989   9.007   1.375  0.0389  0.5683 -0.2382
  433MOL0     C58362   6.992   8.902   1.493  0.8531  0.2685  0.6268
  433MOL0     C58363   6.867   8.818   1.489  0.5949 -0.3297  0.2796
  433MOL0     C58364   6.736   8.874   1.532 -0.0675  0.1619  0.1555
  433MOL0    Cl58365   6.738   8.924   1.697  0.3471  0.1583 -0.2908
  433MOL0     C58366   7.746   8.996   1.331 -0.0619  0.3671  0.4931
  433MOL0     C58367   7.877   8.961   1.296  0.3573 -0.5128 -0.2182
  433MOL0     O58368   8.193   9.115   1.399 -0.4832  0.2353  0.0035
  433MOL0     C58369   8.441   9.126   1.291  0.1885 -0.1780  0.6812
  433MOL0     C58370   8.563   9.116   1.229 -0.7855 -1.2909  0.1749
  433MOL0     N58371   9.370   9.107   1.194 -0.3176 -0.5447  0.3952
  433MOL0     N58372   9.484   9.166   1.194  0.4098  0.0438  0.1702
  433MOL0     C58373  10.551   9.203   0.761 -0.8265  0.1454  0.6359
  433MOL0     C58374  10.674   9.136   0.768 -0.5268  0.6999 -0.4666
  433MOL0     C58375  11.108   9.001   0.837  0.2846  0.9520 -0.3935
  433MOL0     C58376  11.177   8.874   0.838  0.0396  0.0843  0.2690
  433MOL0     C58377  11.307   8.868   0.886 -0.9774 -0.2124  1.0644
  433MOL0     C58378  11.380   8.980   0.921  0.0927 -0.9652 -0.5252
  433MOL0     O58379  11.509   8.958   0.977  0.1646 -0.4402  0.3602
  433MOL0     C58380  11.593   9.065   1.002  0.6745 -0.8240 -0.3085
  433MOL0     C58381  11.733   9.024   1.040  0.7608 -0.1417  0.7646
  433MOL0     C58382  11.801   8.961   0.918  0.6650 -0.0650  0.4274
  433MOL0     C58383  11.951   8.959   0.951 -0.6457  0.5580 -0.4285
  433MOL0     C58384  12.018   9.096   0.942  0.1107 -0.2997  0.0287
  433MOL0     C58385  12.066   9.211   0.954 -0.1232  0.3678  0.6244
  433MOL0     C58386  11.319   9.105   0.908 -0.3591  0.1691 -0.6239
  433MOL0     C58387  11.186   9.109   0.870 -0.2387 -0.1921 -0.5078
  433MOL0     H58388  10.891   9.386   0.678  1.2349  0.5445  1.2142
  433MOL0     H58389  10.681   9.500   0.647 -0.2452  0.2274 -1.7667
  433MOL0     H58390  10.303   9.305   0.724  0.9743  0.8036 -1.7246
  433MOL0     H58391  10.338   9.363   0.893 -0.6783 -1.2366 -0.2363
  433MOL0     H58392  10.276   9.590   0.776  0.9584  0.4450  0.5174
  433MOL0     H58393  10.180   9.487   0.665 -2.7640  2.4576  1.9356
  433MOL0     H58394  10.166   9.519   0.969 -1.2890 -0.9000  0.6561
  433MOL0     H58395  10.029   9.560   0.866 -1.4590 -1.6256  2.0750
  433MOL0     H58396  10.027   9.305   0.802 -1.9783  0.8628  0.5460
  433MOL0     H58397  10.128   9.298   0.950 -0.2501 -0.0938  0.9559
  433MOL0     H58398   9.909   9.239   1.019 -0.8840 -0.3809  0.0846
  433MOL0     H58399   9.933   9.400   1.086 -0.1321 -0.7063 -0.2078
  433MOL0     H58400   9.802   9.495   0.910 -2.2420  0.2903  2.5029
  433MOL0     H58401   9.797   9.343   0.817 -0.4320 -1.0506  0.4088
  433MOL0     H58402   9.620   9.399   1.055 -2.7865 -0.1912 -2.1604
  433MOL0     H58403   9.595   9.333   0.891  2.7087  3.2755 -2.5009
  433MOL0     H58404   9.732   9.212   1.140 -0.8005 -1.1775  0.1669
  433MOL0     H58405   9.723   9.116   0.991 -2.0867 -2.0851  0.6848
  433MOL0     H58406   9.450   9.126   0.878 -1.6941 -0.5182 -0.5651
  433MOL0     H58407   9.179   9.129   0.935 -0.9704  0.1959  0.8634
  433MOL0     H58408   9.185   8.956   0.973  0.2146 -2.2001  3.3673
  433MOL0     H58409   9.078   9.186   1.129 -1.8685 -0.5281 -0.4404
  433MOL0     H58410   9.110   9.030   1.214 -1.0646 -1.2768 -0.5325
  433MOL0     H58411   8.960   8.919   1.049  2.0581 -0.2466  2.5956
  433MOL0     H58412   8.944   9.077   0.963 -2.1635  0.6866 -0.0788
  433MOL0     H58413   8.824   9.179   1.150  1.5657 -0.8212  0.6183
  433MOL0     H58414   8.819   9.029   1.234  0.8869  0.2498  0.7110
  433MOL0     H58415   8.520   8.866   1.018 -1.4209  2.4193 -1.9917
  433MOL0     H58416   8.323   8.737   1.087  0.0130  0.1542 -0.1020
  433MOL0     H58417   8.198   8.805   1.185 -1.0035  0.9214 -0.6211
  433MOL0     H58418   8.228   8.865   1.019  2.4625 -2.0692 -2.2649
  433MOL0     H58419   7.986   9.267   1.203 -2.0913  1.6411  0.2401
  433MOL0     H58420   7.747   9.325   1.246 -3.2491 -0.6507 -1.0954
  433MOL0     H58421   7.475   9.010   1.266  0.4430  0.3596 -0.1801
  433MOL0     H58422   7.483   9.026   1.446  1.2649  0.3396  0.4808
  433MOL0     H58423   7.334   9.198   1.453 -1.0300 -0.9223 -0.9092
  433MOL0     H58424   7.313   9.216   1.282  2.3391 -1.4247 -2.3575
  433MOL0     H58425   7.239   8.988   1.465 -2.1211  1.1658  1.1801
  433MOL0     H58426   7.227   8.968   1.288  1.0251 -0.2233 -0.1088
  433MOL0     H58427   7.090   9.180   1.464  0.7784 -1.9458  1.6000
  433MOL0     H58428   7.094   9.162   1.282  3.0025 -0.2580  0.3415
  433MOL0     H58429   7.002   8.940   1.290  2.0973 -1.0364  1.2255
  433MOL0     H58430   6.892   9.057   1.366 -0.2373  0.1225  0.1788
  433MOL0     H58431   7.083   8.841   1.486 -0.8194 -2.8645  3.5065
  433MOL0     H58432   6.994   8.955   1.589  0.9431 -0.3302  0.9603
  433MOL0     H58433   6.888   8.735   1.557 -4.3839 -1.1020  1.2757
  433MOL0     H58434   6.847   8.782   1.387 -2.2044  2.2531 -0.2310
  433MOL0     H58435   6.656   8.801   1.517 -2.6385  2.4487  1.8150
  433MOL0     H58436   6.707   8.966   1.480  0.3524 -0.2000 -0.7323
  433MOL0     H58437   7.688   8.917   1.378 -1.8338  1.9499  1.0910
  433MOL0     H58438   7.917   8.861   1.312  0.9075 -0.2609  0.0434
  433MOL0     H58439   8.425   9.198   1.371 -1.3367  1.6894 -1.2127
  433MOL0     H58440   8.645   9.181   1.260 -1.3064 -0.8910  0.7237
  433MOL0     H58441  10.457   9.150   0.776  0.2142 -2.0746 -0.1939
  433MOL0     H58442  10.670   9.031   0.792 -0.5039  0.2166 -2.4372
  433MOL0     H58443  11.120   8.785   0.815 -1.3929  0.6800  1.3650
  433MOL0     H58444  11.361   8.775   0.901  0.8596  0.1443 -2.2343
  433MOL0     H58445  11.578   9.120   0.908 -1.5603 -0.6861  0.0749
  433MOL0     H58446  11.545   9.129   1.076 -1.4348 -0.3787 -1.9664
  433MOL0     H58447  11.726   8.955   1.124  0.6429 -0.9990  0.0560
  433MOL0     H58448  11.781   9.111   1.087  0.4033 -0.9230  2.6283
  433MOL0     H58449  11.781   9.021   0.829  0.5388  0.9723  1.1352
  433MOL0     H58450  11.769   8.857   0.903 -0.2991  0.3086 -0.2105
  433MOL0     H58451  12.000   8.894   0.878 -0.9574 -1.2284  0.8827
  433MOL0     H58452  11.975   8.903   1.042  0.5043  1.6168 -0.0367
  433MOL0     H58453  12.102   9.310   0.972  2.3107 -0.7250  2.2788
  433MOL0     H58454  11.362   9.199   0.943 -0.1300 -0.7063  1.6175
  433MOL0     H58455  11.147   9.209   0.855 -0.4262 -0.1547  0.2061
  434MOL0     O58456   5.423   8.169   4.287 -0.7277  0.5122  0.3701
  434MOL0     C58457   5.402   8.098   4.387 -0.5546 -0.0274 -0.3677
  434MOL0     O58458   5.300   8.094   4.467  0.0261  0.4853 -0.1089
  434MOL0     C58459   5.209   8.194   4.463 -0.1315 -0.7031 -0.3703
  434MOL0     C58460   5.165   8.240   4.584  0.0682  0.0832 -0.3508
  434MOL0     C58461   5.054   8.336   4.591 -0.4937 -0.3800 -0.5774
  434MOL0     C58462   4.992   8.383   4.478 -0.3736  0.1666 -0.4419
  434MOL0     O58463   4.891   8.473   4.471 -0.7715  0.5079  0.0238
  434MOL0     C58464   4.815   8.505   4.591  0.0927  0.5313  0.1283
  434MOL0     C58465   4.708   8.594   4.536  0.3458  0.2545 -0.3405
  434MOL0     C58466   4.616   8.651   4.642 -0.0374  0.2507 -0.2713
  434MOL0     C58467   4.472   8.684   4.608 -0.2051 -0.1892 -0.6539
  434MOL0     C58468   4.459   8.827   4.555 -0.7191 -0.4884 -0.0980
  434MOL0     C58469   4.470   8.921   4.681  0.3567 -0.7804  0.4382
  434MOL0     C58470   4.462   9.070   4.650 -0.0949  0.3449 -0.4328
  434MOL0     C58471   4.333   9.122   4.600 -0.3389 -0.5991 -0.5248
  434MOL0     N58472   4.230   9.089   4.696  0.0997  0.2459 -0.0143
  434MOL0     C58473   4.133   8.994   4.687  0.7826 -0.2104  0.1988
  434MOL0     C58474   4.053   9.018   4.791  0.3637  0.1973  0.0368
  434MOL0     C58475   3.934   8.929   4.825 -0.4940 -0.2853  0.0518
  434MOL0     C58476   3.883   8.952   4.966  0.2102 -0.0564  0.7352
  434MOL0     C58477   3.781   8.850   5.001  0.5467 -0.2053  0.1211
  434MOL0     C58478   3.728   8.878   5.138  0.6647 -0.1382  0.1695
  434MOL0     O58479   3.644   8.773   5.183 -0.3398  0.7575  0.3346
  434MOL0     C58480   3.509   8.776   5.151 -0.4039  0.2022  0.4902
  434MOL0     C58481   3.429   8.688   5.217  1.3786 -0.0445  0.4925
  434MOL0     C58482   3.292   8.687   5.179 -0.1224  0.7974 -1.2701
  434MOL0     C58483   3.214   8.581   5.258 -0.9127  0.7472  0.4244
  434MOL0     C58484   3.225   8.790   5.097  0.3280  0.5219 -0.6134
  434MOL0     C58485   3.079   8.804   5.083 -0.3739  0.2301  0.1364
  434MOL0     O58486   2.992   8.699   5.055 -0.4237  0.4651 -0.4016
  434MOL0     C58487   2.856   8.719   5.045  0.5013 -0.1253  0.3671
  434MOL0     C58488   2.793   8.778   4.931  0.1857 -0.8623  0.5141
  434MOL0     C58489   2.652   8.808   4.915  0.5851 -0.1747 -0.6076
  434MOL0     C58490   2.570   8.770   5.020  0.3038 -0.8275 -0.0493
  434MOL0     O58491   2.433   8.786   5.030 -0.1063 -0.0947  0.0992
  434MOL0     C58492   2.364   8.873   4.930  0.5092  0.6202 -0.1662
  434MOL0     C58493   2.214   8.864   4.964  0.7439 -0.1430  0.3865
  434MOL0     C58494   2.124   8.959   4.888 -0.4198 -0.3512 -0.4171
  434MOL0     C58495   1.974   8.954   4.940 -0.2456  0.0336  0.2398
  434MOL0     C58496   1.909   9.086   4.888  0.7737  0.4059 -0.7497
  434MOL0     C58497   1.800   9.126   4.987  0.7391  0.3306 -1.0356
  434MOL0     C58498   1.727   9.248   4.934  0.0543  0.2270  0.5894
  434MOL0     C58499   1.592   9.275   4.994  0.0098  0.2043 -0.4373
  434MOL0    Cl58500   1.503   9.384   4.888  0.0823  0.0900  0.0967
  434MOL0     C58501   2.630   8.718   5.138 -0.0269 -0.4769 -0.5289
  434MOL0     C58502   2.769   8.680   5.153 -0.3841 -0.1330  0.7286
  434MOL0     O58503   3.041   8.918   5.109 -0.3084 -0.2701  0.5942
  434MOL0     C58504   3.314   8.870   5.028  0.8284 -0.4256 -0.6169
  434MOL0     C58505   3.449   8.870   5.059  0.4951 -0.1381 -0.9197
  434MOL0     N58506   4.088   9.129   4.859  0.7427 -0.0253 -0.2010
  434MOL0     N58507   4.197   9.172   4.798 -0.0163 -0.0721  0.8793
  434MOL0     C58508   5.041   8.334   4.355  0.4809 -0.7577 -0.6389
  434MOL0     C58509   5.148   8.247   4.351 -0.3905 -0.4976  0.8479
  434MOL0     C58510   5.491   7.995   4.415  0.2363  0.6322 -0.1759
  434MOL0     C58511   5.588   7.960   4.328 -0.7593  0.7010  0.1277
  434MOL0     C58512   5.673   7.854   4.350 -0.4426 -0.1885  0.5899
  434MOL0     C58513   5.671   7.779   4.478  0.5704  0.0745  0.0467
  434MOL0     O58514   5.734   7.657   4.502 -0.7213 -0.4015  0.4227
  434MOL0     C58515   5.863   7.631   4.445  0.4945 -0.0468  0.4286
  434MOL0     C58516   5.931   7.516   4.513 -0.5600 -0.5220  0.5631
  434MOL0     C58517   6.055   7.458   4.434  0.6470  0.1010  0.2974
  434MOL0     C58518   6.144   7.382   4.535 -0.9771  0.3402 -0.5474
  434MOL0     C58519   6.251   7.306   4.471  0.3781  0.3778  0.5848
  434MOL0     C58520   6.328   7.230   4.427  0.1960  0.6308  0.9781
  434MOL0     C58521   5.574   7.825   4.571  0.3521  0.3598  0.3808
  434MOL0     C58522   5.486   7.927   4.544 -0.2406 -0.9753  0.5173
  434MOL0     H58523   5.233   8.205   4.660  0.0387  1.2444  0.2303
  434MOL0     H58524   5.031   8.372   4.691  1.4861 -1.7386  0.4284
  434MOL0     H58525   4.773   8.416   4.638 -1.5371  0.2395 -1.7730
  434MOL0     H58526   4.880   8.557   4.662  0.4227  1.9905 -1.1851
  434MOL0     H58527   4.763   8.669   4.479  0.5264 -0.4234 -1.0813
  434MOL0     H58528   4.648   8.529   4.472 -2.9016  1.7976  0.9149
  434MOL0     H58529   4.613   8.578   4.724 -1.0805 -0.1834 -0.6760
  434MOL0     H58530   4.669   8.741   4.674  1.8570 -1.4653  1.7993
  434MOL0     H58531   4.444   8.611   4.531 -1.3451 -1.1877  0.6597
  434MOL0     H58532   4.406   8.674   4.695  0.1022  2.3704 -0.0527
  434MOL0     H58533   4.538   8.857   4.485 -1.2234  1.4311  0.1024
  434MOL0     H58534   4.367   8.847   4.498 -1.1328  0.2954  0.8151
  434MOL0     H58535   4.388   8.899   4.750 -0.4233  0.7081  0.0361
  434MOL0     H58536   4.566   8.901   4.729  2.4861 -2.4685 -4.0234
  434MOL0     H58537   4.503   9.130   4.731  1.6854  1.4772 -2.0877
  434MOL0     H58538   4.537   9.094   4.574  1.8444 -0.1850  1.2365
  434MOL0     H58539   4.305   9.070   4.508 -2.0915  0.5043 -0.6597
  434MOL0     H58540   4.334   9.231   4.588 -3.5632 -0.3562  0.4370
  434MOL0     H58541   4.121   8.912   4.616 -2.6068  0.3126  0.0302
  434MOL0     H58542   3.851   8.950   4.756 -1.1948  2.2297  1.5340
  434MOL0     H58543   3.965   8.824   4.815  2.7891  0.5664  0.1178
  434MOL0     H58544   3.842   9.053   4.975  1.9089  0.6475  0.9925
  434MOL0     H58545   3.970   8.941   5.031  1.7754  1.0913 -1.0671
  434MOL0     H58546   3.834   8.755   5.001  3.5440  1.3512 -0.6677
  434MOL0     H58547   3.702   8.860   4.926  1.9411 -0.2322 -1.4038
  434MOL0     H58548   3.665   8.968   5.142 -2.0208 -1.8953 -0.3823
  434MOL0     H58549   3.808   8.894   5.211 -0.6723 -0.7581  1.8331
  434MOL0     H58550   3.466   8.631   5.302  1.6937  1.7554  1.6245
  434MOL0     H58551   3.106   8.588   5.240 -1.0128  0.0031  0.7350
  434MOL0     H58552   3.250   8.489   5.212  0.3508  2.2345 -1.7646
  434MOL0     H58553   3.246   8.565   5.361 -0.4700 -1.2683  0.0019
  434MOL0     H58554   2.857   8.806   4.847  0.2797 -0.6596  0.6513
  434MOL0     H58555   2.607   8.848   4.825 -2.3017 -0.2822  0.7003
  434MOL0     H58556   2.385   8.979   4.945 -2.2212  1.0471  1.2309
  434MOL0     H58557   2.385   8.839   4.828  2.1380  0.0334  0.3369
  434MOL0     H58558   2.190   8.768   4.916 -2.2555  1.1968 -1.0097
  434MOL0     H58559   2.202   8.884   5.071  1.2646 -0.3490  0.4896
  434MOL0     H58560   2.140   8.941   4.781  3.5761 -1.9799  0.2684
  434MOL0     H58561   2.171   9.058   4.895  2.1460 -1.3384 -2.1169
  434MOL0     H58562   1.923   8.867   4.899 -2.5050  0.2962  2.2462
  434MOL0     H58563   1.971   8.950   5.050  1.6660 -0.2980  0.3061
  434MOL0     H58564   1.857   9.068   4.794  1.0105 -0.4067 -0.7253
  434MOL0     H58565   1.982   9.168   4.889  0.1510  1.0388 -2.9368
  434MOL0     H58566   1.733   9.044   5.013 -0.3838  1.5180 -0.0347
  434MOL0     H58567   1.852   9.150   5.080  0.6062 -2.1494 -0.2621
  434MOL0     H58568   1.714   9.240   4.825  0.8793 -1.7926  0.6070
  434MOL0     H58569   1.790   9.334   4.957 -0.8643  1.9186 -2.5421
  434MOL0     H58570   1.600   9.315   5.096  0.2713 -0.3486 -0.2395
  434MOL0     H58571   1.538   9.181   5.006 -0.6424  0.4459 -1.3978
  434MOL0     H58572   2.556   8.695   5.214 -0.1574  4.2826  1.1564
  434MOL0     H58573   2.811   8.632   5.240  0.8394 -0.0005  0.2246
  434MOL0     H58574   3.262   8.948   4.973 -1.2961  0.1918  2.0560
  434MOL0     H58575   3.512   8.938   5.002  2.8103  0.1270  1.7346
  434MOL0     H58576   4.991   8.374   4.267  3.9823  0.8246 -2.1171
  434MOL0     H58577   5.174   8.220   4.249  0.3299  0.0577  0.8790
  434MOL0     H58578   5.601   8.013   4.235 -0.4953  2.8130  1.3016
  434MOL0     H58579   5.742   7.814   4.276  0.1663  1.5561  0.1714
  434MOL0     H58580   5.852   7.617   4.337  0.9795 -0.9153  0.4875
  434MOL0     H58581   5.928   7.717   4.465  2.5891 -0.9836 -1.8023
  434MOL0     H58582   5.865   7.430   4.526  1.7295 -2.1928  1.8504
  434MOL0     H58583   5.957   7.564   4.608 -0.5740  1.3378 -0.3315
  434MOL0     H58584   6.114   7.541   4.394  1.0470  0.3107  1.2947
  434MOL0     H58585   6.024   7.385   4.358 -0.5576  0.2904  0.5795
  434MOL0     H58586   6.083   7.319   4.600  0.2599 -0.3934 -0.0666
  434MOL0     H58587   6.190   7.457   4.600 -1.8493  1.6898 -1.4418
  434MOL0     H58588   6.392   7.157   4.383  1.0677  1.4935  0.7804
  434MOL0     H58589   5.556   7.765   4.660 -1.0469  2.4025  1.5372
  434MOL0     H58590   5.399   7.944   4.606 -0.3001  0.8996 -0.0018
  435MOL0     O58591   1.166   6.223   4.524 -0.1831  0.0141  0.0215
  435MOL0     C58592   1.095   6.308   4.572  0.9572  0.6121 -0.0550
  435MOL0     O58593   0.957   6.302   4.578 -0.1678  0.5370 -0.1520
  435MOL0     C58594   0.884   6.199   4.527 -0.9586  0.0897  0.6880
  435MOL0     C58595   0.767   6.235   4.451 -0.3536  0.2546 -0.2927
  435MOL0     C58596   0.690   6.131   4.399  0.0466  0.7632  0.7641
  435MOL0     C58597   0.717   5.999   4.410 -0.1592 -0.1152  0.1989
  435MOL0     O58598   0.614   5.916   4.365  0.3512 -0.1823 -0.2927
  435MOL0     C58599   0.653   5.789   4.320  0.2980  0.4953 -0.4259
  435MOL0     C58600   0.538   5.728   4.235 -0.7674 -0.0846  0.2826
  435MOL0     C58601   0.522   5.797   4.095  0.0403 -0.7151 -0.2612
  435MOL0     C58602   0.414   5.737   4.011  0.5161 -0.6067  0.3522
  435MOL0     C58603   0.295   5.828   4.012 -0.5223 -0.5316 -0.1064
  435MOL0     C58604   0.227   5.856   4.145 -0.1418 -0.1020 -0.1050
  435MOL0     C58605   0.091   5.916   4.130 -0.4451 -0.2826 -0.2378
  435MOL0     C58606   0.024   5.958   4.262  0.9306 -0.6916 -0.7055
  435MOL0     N58607   0.068   6.092   4.319 -0.1792  0.4628 -0.3224
  435MOL0     C58608   0.161   6.104   4.421 -0.5631  0.6742  0.3676
  435MOL0     C58609   0.151   6.233   4.475  0.7838  0.0190 -0.3672
  435MOL0     C58610   0.224   6.284   4.591  0.0387 -0.2570 -0.4287
  435MOL0     C58611   0.341   6.374   4.549 -0.1892  0.4039  0.0801
  435MOL0     C58612   0.412   6.422   4.672 -0.4355 -0.9501  1.4498
  435MOL0     C58613   0.541   6.500   4.640  0.4079 -0.1779 -0.3922
  435MOL0     O58614   0.520   6.602   4.537  0.0902  0.7510  0.0079
  435MOL0     C58615   0.629   6.629   4.463 -0.3489 -0.4442  0.2007
  435MOL0     C58616   0.620   6.662   4.328  0.3012  0.9456 -0.6811
  435MOL0     C58617   0.721   6.697   4.247  0.2637 -0.6533 -0.6688
  435MOL0     C58618   0.689   6.728   4.102 -0.3270 -0.6266 -0.4249
  435MOL0     C58619   0.854   6.700   4.304  0.0418 -0.8437 -0.5339
  435MOL0     C58620   0.973   6.743   4.227  0.4005  0.2157  0.2187
  435MOL0     O58621   1.092   6.761   4.288 -0.4080  0.3818 -0.6026
  435MOL0     C58622   1.191   6.820   4.212 -0.1420 -0.7714 -1.1994
  435MOL0     C58623   1.325   6.785   4.225 -0.1402 -0.2808  0.0977
  435MOL0     C58624   1.431   6.859   4.161  0.1364  0.2693  0.6358
  435MOL0     C58625   1.401   6.964   4.071  0.6798 -0.4958  0.2603
  435MOL0     O58626   1.500   7.033   4.006 -0.2691  0.4590  0.6787
  435MOL0     C58627   1.634   6.971   3.999 -0.5897 -0.6786  0.2057
  435MOL0     C58628   1.719   7.033   3.889  0.1913 -0.0939  0.4138
  435MOL0     C58629   1.867   6.963   3.892 -0.0225  0.0104 -0.3462
  435MOL0     C58630   1.967   7.032   3.795 -0.1395  0.2070  0.8656
  435MOL0     C58631   2.077   6.929   3.763 -0.8464 -0.0542  0.4355
  435MOL0     C58632   2.137   6.876   3.897  0.2770  0.5601 -0.2859
  435MOL0     C58633   2.268   6.800   3.884  0.5232  0.1797 -0.1091
  435MOL0     C58634   2.387   6.891   3.885  0.8169  0.5448  0.6431
  435MOL0    Cl58635   2.524   6.781   3.851  0.5483  0.0379 -0.2973
  435MOL0     C58636   1.268   7.002   4.060 -0.1597  0.0799  0.1198
  435MOL0     C58637   1.171   6.939   4.136  0.0085  0.0879  0.2870
  435MOL0     O58638   0.955   6.748   4.106  0.0618 -0.9545  1.2464
  435MOL0     C58639   0.867   6.677   4.442  0.5249 -0.3296  0.4062
  435MOL0     C58640   0.757   6.637   4.520  0.7597 -0.0348 -0.2775
  435MOL0     N58641   0.047   6.299   4.405 -0.1518  0.3902  0.1457
  435MOL0     N58642   0.002   6.210   4.319  0.3248  0.0558 -0.4770
  435MOL0     C58643   0.848   5.962   4.465 -0.0460 -0.0169 -0.3812
  435MOL0     C58644   0.928   6.059   4.526  0.1452 -0.5491  0.3299
  435MOL0     C58645   1.166   6.420   4.632  0.3287  0.3050 -0.7927
  435MOL0     C58646   1.303   6.427   4.621 -0.6839 -0.3492  0.2425
  435MOL0     C58647   1.373   6.538   4.660  0.7153 -0.2880  0.3114
  435MOL0     C58648   1.316   6.636   4.745 -0.0055 -0.3912  0.1619
  435MOL0     O58649   1.389   6.740   4.803  0.3813  0.5077 -0.0099
  435MOL0     C58650   1.513   6.765   4.740 -0.2130  0.4312  0.7633
  435MOL0     C58651   1.574   6.897   4.780 -0.5008  0.7602 -0.8859
  435MOL0     C58652   1.659   6.890   4.905  0.5142 -0.2565 -0.1817
  435MOL0     C58653   1.739   7.017   4.930  0.4568  0.3581 -0.0021
  435MOL0     C58654   1.863   7.015   4.855  0.0942 -0.3207 -0.0386
  435MOL0     C58655   1.959   7.014   4.780 -0.2156 -0.5507 -0.3171
  435MOL0     C58656   1.175   6.633   4.749  0.0672  0.3022  0.3501
  435MOL0     C58657   1.099   6.534   4.690 -0.9975 -0.4376 -0.5982
  435MOL0     H58658   0.739   6.340   4.447 -0.9323  0.2833  2.5099
  435MOL0     H58659   0.603   6.160   4.339 -0.5377 -1.0362  0.6776
  435MOL0     H58660   0.745   5.780   4.261  0.2470 -3.2148 -0.1966
  435MOL0     H58661   0.671   5.725   4.406  1.5372 -1.1161 -1.7997
  435MOL0     H58662   0.562   5.623   4.220  0.8084  0.0588  1.5742
  435MOL0     H58663   0.445   5.731   4.294 -0.8122 -0.7538  0.2497
  435MOL0     H58664   0.513   5.905   4.112  2.0298 -0.5495 -0.0484
  435MOL0     H58665   0.619   5.781   4.048  1.3507  1.3973  1.4838
  435MOL0     H58666   0.450   5.729   3.908 -1.5375 -0.8494 -0.3908
  435MOL0     H58667   0.398   5.633   4.044  4.5411 -1.8442 -1.0693
  435MOL0     H58668   0.325   5.922   3.965 -1.4702  0.3019  0.8984
  435MOL0     H58669   0.223   5.790   3.939 -2.0454  1.5539  0.2125
  435MOL0     H58670   0.221   5.758   4.192  1.5880 -1.8653 -3.2873
  435MOL0     H58671   0.284   5.937   4.192  1.6788 -1.4298  0.0678
  435MOL0     H58672   0.107   5.986   4.047  1.1653 -3.1401 -2.5416
  435MOL0     H58673   0.025   5.842   4.084 -0.6420 -0.1283 -0.2075
  435MOL0     H58674   0.046   5.872   4.326  1.9813 -1.1215 -1.6068
  435MOL0     H58675  -0.084   5.949   4.247  0.6031 -1.6756  1.7341
  435MOL0     H58676   0.233   6.026   4.444 -0.4091  0.4475 -0.8193
  435MOL0     H58677   0.153   6.334   4.657  1.8045  2.5405 -0.4809
  435MOL0     H58678   0.253   6.195   4.648  1.0956  0.7724  0.7006
  435MOL0     H58679   0.315   6.458   4.483  2.5114  0.0939 -1.5324
  435MOL0     H58680   0.412   6.312   4.494 -1.4144  0.1172 -1.2446
  435MOL0     H58681   0.440   6.335   4.733  2.0062 -1.1880  0.1360
  435MOL0     H58682   0.343   6.486   4.726  0.5147  0.2896  1.2306
  435MOL0     H58683   0.631   6.441   4.621  0.9988  0.4268  0.4241
  435MOL0     H58684   0.564   6.551   4.734  0.0884  1.6462 -1.2647
  435MOL0     H58685   0.519   6.654   4.290 -0.0876  1.5855  0.1841
  435MOL0     H58686   0.745   6.821   4.086 -0.8131 -0.0758  0.8930
  435MOL0     H58687   0.716   6.652   4.028 -0.0311 -2.1908  1.2148
  435MOL0     H58688   0.582   6.748   4.101 -0.1293  0.6097  0.5184
  435MOL0     H58689   1.343   6.706   4.297  1.7667 -1.7007 -1.8027
  435MOL0     H58690   1.535   6.841   4.184  0.1903  0.7607  0.7863
  435MOL0     H58691   1.694   6.975   4.090  1.2738 -1.7706 -0.9224
  435MOL0     H58692   1.629   6.865   3.973 -1.0190 -0.7401  0.5295
  435MOL0     H58693   1.681   7.002   3.791 -1.7229 -2.2789  1.7409
  435MOL0     H58694   1.731   7.141   3.888 -0.1573 -0.0546  0.0538
  435MOL0     H58695   1.859   6.855   3.876 -1.3371  0.5091 -4.0828
  435MOL0     H58696   1.907   6.976   3.993  0.7836 -0.4485 -0.5920
  435MOL0     H58697   1.917   7.062   3.702 -0.2257 -5.7477 -1.4213
  435MOL0     H58698   2.011   7.122   3.839 -0.2083  1.3879 -1.3520
  435MOL0     H58699   2.159   6.962   3.698 -0.3873 -2.3132 -0.2418
  435MOL0     H58700   2.027   6.843   3.717 -0.1523 -0.1082 -0.2470
  435MOL0     H58701   2.156   6.961   3.963 -1.1650  0.5801  0.1573
  435MOL0     H58702   2.070   6.812   3.956 -0.7337  3.2660  1.7512
  435MOL0     H58703   2.266   6.754   3.784  1.7432 -1.0726  0.4060
  435MOL0     H58704   2.287   6.721   3.958  0.6702  0.1783 -0.1475
  435MOL0     H58705   2.394   6.954   3.974  0.7949 -0.7791  1.6187
  435MOL0     H58706   2.380   6.954   3.795  3.1967 -1.4167 -1.0513
  435MOL0     H58707   1.242   7.089   4.000  3.4616  1.8476  0.8053
  435MOL0     H58708   1.070   6.979   4.125  0.5791  1.0342 -2.3059
  435MOL0     H58709   0.968   6.692   4.480  1.2335 -2.6600 -0.3322
  435MOL0     H58710   0.764   6.630   4.628 -2.0314 -2.6339 -0.1112
  435MOL0     H58711   0.877   5.858   4.470  1.9201  0.5474  1.4788
  435MOL0     H58712   1.025   6.028   4.563 -0.4147 -1.9266  0.7076
  435MOL0     H58713   1.365   6.348   4.580  0.5722  1.1815 -0.9505
  435MOL0     H58714   1.481   6.538   4.650  0.6066  1.7802 -1.8431
  435MOL0     H58715   1.578   6.677   4.750 -3.3661 -2.6169 -2.6743
  435MOL0     H58716   1.496   6.774   4.633  1.5049  2.2081  0.5945
  435MOL0     H58717   1.495   6.973   4.784  0.8593  2.2354 -1.0221
  435MOL0     H58718   1.634   6.920   4.692 -3.5226  0.3107 -3.2116
  435MOL0     H58719   1.720   6.800   4.914 -1.4916 -1.5522  1.4848
  435MOL0     H58720   1.593   6.889   4.993  0.5187 -0.4946 -0.1798
  435MOL0     H58721   1.757   7.019   5.038 -0.9812 -1.4761  0.3202
  435MOL0     H58722   1.684   7.107   4.899 -2.3201 -0.2454  2.6994
  435MOL0     H58723   2.052   6.990   4.733 -0.9593 -0.8129 -1.7111
  435MOL0     H58724   1.127   6.711   4.807 -2.1132  2.1600 -3.5820
  435MOL0     H58725   0.992   6.544   4.704 -0.8670 -0.9202  1.0087
  436MOL0     O58726  11.028   9.188   3.865  0.2653 -0.3806  0.1840
  436MOL0     C58727  11.061   9.183   3.745 -0.2556  0.4798 -0.5907
  436MOL0     O58728  10.976   9.160   3.646  0.1945  0.6032  0.2513
  436MOL0     C58729  10.839   9.185   3.660  0.3342 -1.2688 -0.1283
  436MOL0     C58730  10.756   9.095   3.588 -0.6236 -0.9471 -0.4323
  436MOL0     C58731  10.618   9.119   3.614 -0.0157 -0.1727  0.8028
  436MOL0     C58732  10.562   9.211   3.696 -0.2772  0.3210 -0.9411
  436MOL0     O58733  10.429   9.202   3.733 -0.0361 -0.2925 -0.2220
  436MOL0     C58734  10.398   9.260   3.864 -0.1200  0.0647  1.1693
  436MOL0     C58735  10.266   9.206   3.915 -0.0369 -0.6704  0.6067
  436MOL0     C58736  10.152   9.248   3.817  0.6718  0.9721  0.1679
  436MOL0     C58737  10.017   9.178   3.860 -0.9506  0.0286  0.6360
  436MOL0     C58738   9.946   9.268   3.960 -0.0524 -0.7975 -0.3746
  436MOL0     C58739   9.807   9.198   3.981 -1.3581 -0.3518  0.5376
  436MOL0     C58740   9.726   9.256   4.095 -0.5297  0.1430 -0.3183
  436MOL0     C58741   9.773   9.211   4.234 -0.3255  0.1324  0.0633
  436MOL0     N58742   9.670   9.258   4.331 -0.0910 -0.0667  0.4458
  436MOL0     C58743   9.682   9.338   4.441  0.3633  0.3153  0.3675
  436MOL0     C58744   9.555   9.347   4.488  0.1830 -0.6236 -0.1951
  436MOL0     C58745   9.531   9.438   4.607  1.0307  1.3223  0.3570
  436MOL0     C58746   9.394   9.511   4.597 -0.3471 -0.6173 -0.2211
  436MOL0     C58747   9.382   9.630   4.697  0.0040 -0.1659  0.5467
  436MOL0     C58748   9.237   9.643   4.733  0.3104 -0.7337 -0.1298
  436MOL0     O58749   9.183   9.546   4.818  0.3928  0.7306 -0.8234
  436MOL0     C58750   9.047   9.518   4.813 -1.1198 -0.3747 -0.1939
  436MOL0     C58751   8.991   9.464   4.696 -0.4956  0.5864 -0.3673
  436MOL0     C58752   8.849   9.440   4.691 -0.8687  0.1943 -0.0107
  436MOL0     C58753   8.791   9.376   4.562  0.8219  0.1494  0.1613
  436MOL0     C58754   8.771   9.459   4.806  0.2621 -0.6049  0.1323
  436MOL0     C58755   8.634   9.411   4.823 -0.0850 -0.4592  0.0064
  436MOL0     O58756   8.549   9.494   4.883 -0.3158  0.1738  0.7002
  436MOL0     C58757   8.415   9.460   4.889 -0.5602 -1.0033  0.3404
  436MOL0     C58758   8.332   9.450   4.777 -0.3291  0.6111 -0.2346
  436MOL0     C58759   8.198   9.422   4.792  0.2633 -0.7717  0.0095
  436MOL0     C58760   8.140   9.417   4.921  1.0774  0.4219  0.6332
  436MOL0     O58761   8.002   9.404   4.944 -0.8402  0.9835  0.6850
  436MOL0     C58762   7.916   9.416   4.830  0.3906 -0.8295  0.1489
  436MOL0     C58763   7.770   9.401   4.868  0.2189 -0.2399 -0.4661
  436MOL0     C58764   7.734   9.252   4.897 -0.0717 -0.8461  0.1861
  436MOL0     C58765   7.580   9.261   4.921  0.1303  0.1672  0.0231
  436MOL0     C58766   7.522   9.130   4.952 -0.8140 -0.1392  0.3998
  436MOL0     C58767   7.372   9.139   4.948 -0.3442 -0.2907  0.2625
  436MOL0     C58768   7.317   9.178   5.076 -0.2639 -0.1218 -0.2128
  436MOL0     C58769   7.167   9.189   5.074 -0.5417  0.2464  0.0754
  436MOL0    Cl58770   7.106   9.284   4.929  0.0932 -0.1107 -0.0331
  436MOL0     C58771   8.226   9.428   5.034  1.1200  0.4265  0.1682
  436MOL0     C58772   8.363   9.448   5.020  0.6375  1.0228 -0.7003
  436MOL0     O58773   8.609   9.294   4.784 -0.0686  0.4011 -0.3124
  436MOL0     C58774   8.825   9.519   4.920 -0.1120 -0.6002  0.2115
  436MOL0     C58775   8.961   9.546   4.921  0.1939  0.0585 -0.6374
  436MOL0     N58776   9.466   9.285   4.418  0.2063  0.2428 -0.1178
  436MOL0     N58777   9.537   9.221   4.329 -0.3256 -0.8187 -0.0762
  436MOL0     C58778  10.657   9.302   3.753  0.4168  0.2916 -0.3300
  436MOL0     C58779  10.796   9.293   3.737  0.0738  0.0939  0.3180
  436MOL0     C58780  11.208   9.199   3.711 -0.1351  0.1033  0.8936
  436MOL0     C58781  11.242   9.168   3.576  0.3379 -0.3801 -0.1418
  436MOL0     C58782  11.375   9.172   3.535 -0.2513  0.9310  0.5555
  436MOL0     C58783  11.475   9.217   3.616 -0.2177 -0.2417 -1.1613
  436MOL0     O58784  11.603   9.246   3.565  0.3340 -0.3356  0.2295
  436MOL0     C58785  11.699   9.326   3.641 -0.3158 -0.4357  0.1742
  436MOL0     C58786  11.671   9.472   3.666 -0.9138  0.4005 -0.1656
  436MOL0     C58787  11.621   9.546   3.541 -0.5591  0.4104  0.2440
  436MOL0     C58788  11.615   9.703   3.548 -0.0272 -0.2021  0.1853
  436MOL0     C58789  11.751   9.767   3.526 -0.5826 -0.0688  0.2138
  436MOL0     C58790  11.852   9.832   3.496 -0.5162 -0.3169 -0.1456
  436MOL0     C58791  11.435   9.266   3.749 -0.1065 -0.0163  0.4214
  436MOL0     C58792  11.309   9.240   3.795 -0.0753 -0.2302 -0.1422
  436MOL0     H58793  10.797   9.019   3.522  2.6721  0.6262 -0.4232
  436MOL0     H58794  10.547   9.053   3.564  0.9567 -1.1903  0.7187
  436MOL0     H58795  10.472   9.247   3.944 -1.0321  1.4065  2.2847
  436MOL0     H58796  10.387   9.369   3.853  0.0694 -0.1560 -2.3988
  436MOL0     H58797  10.272   9.097   3.919 -1.3081 -0.7605  0.4429
  436MOL0     H58798  10.245   9.241   4.016 -0.0031  2.3592 -0.3120
  436MOL0     H58799  10.147   9.357   3.814  2.5288  1.0703 -1.3761
  436MOL0     H58800  10.183   9.211   3.719  0.1897 -0.9415  0.6948
  436MOL0     H58801   9.957   9.180   3.768 -1.8808 -1.0673  1.1984
  436MOL0     H58802  10.041   9.077   3.894  4.8339  0.0723 -2.0896
  436MOL0     H58803   9.999   9.272   4.056  0.3913 -2.3869 -0.5140
  436MOL0     H58804   9.954   9.370   3.924  0.6428 -0.2228  1.2937
  436MOL0     H58805   9.748   9.197   3.888  2.0785 -1.6645 -1.8670
  436MOL0     H58806   9.834   9.095   4.005  0.8937  0.6046  2.3667
  436MOL0     H58807   9.725   9.365   4.092  1.5096  0.2396  0.8011
  436MOL0     H58808   9.624   9.225   4.071 -1.1044  2.2869 -0.8236
  436MOL0     H58809   9.871   9.244   4.271 -0.1375 -0.9482  0.5802
  436MOL0     H58810   9.787   9.103   4.224  3.1761  0.3005  1.5799
  436MOL0     H58811   9.775   9.377   4.480  0.9796 -0.3549 -0.4035
  436MOL0     H58812   9.531   9.374   4.696  2.1527  1.6323  0.6027
  436MOL0     H58813   9.614   9.507   4.622  0.3608  1.8899  1.6748
  436MOL0     H58814   9.308   9.445   4.607  0.8106 -2.5662 -2.0904
  436MOL0     H58815   9.390   9.561   4.499  0.5224  2.1249  1.0492
  436MOL0     H58816   9.424   9.720   4.652  0.7106 -1.5369 -1.6800
  436MOL0     H58817   9.438   9.610   4.788  1.7128 -1.5513 -0.7439
  436MOL0     H58818   9.178   9.651   4.641  1.3615 -1.1187 -0.8591
  436MOL0     H58819   9.221   9.733   4.793 -0.4872 -0.6547 -0.4385
  436MOL0     H58820   9.045   9.437   4.606 -2.3432  3.0058 -2.3610
  436MOL0     H58821   8.687   9.345   4.576  0.3167  0.9327 -1.5331
  436MOL0     H58822   8.772   9.451   4.484 -2.7454 -2.1231 -1.4066
  436MOL0     H58823   8.848   9.290   4.527 -0.5942 -0.4788 -0.6893
  436MOL0     H58824   8.374   9.472   4.679  1.1858 -0.9102  0.0235
  436MOL0     H58825   8.143   9.417   4.698 -0.4017  0.0902  0.3367
  436MOL0     H58826   7.928   9.515   4.786  2.2223 -0.2478  1.8229
  436MOL0     H58827   7.934   9.337   4.756  1.1652 -1.4586  0.9730
  436MOL0     H58828   7.753   9.459   4.959  0.0233 -0.0110 -0.6487
  436MOL0     H58829   7.711   9.459   4.796  1.4706  3.8263  1.5107
  436MOL0     H58830   7.782   9.210   4.986  0.1718 -1.0990 -0.0653
  436MOL0     H58831   7.742   9.190   4.808 -1.0809 -1.4195  0.4758
  436MOL0     H58832   7.561   9.327   5.005  2.8308 -0.1282  0.9612
  436MOL0     H58833   7.534   9.301   4.829  2.0487  0.8926 -0.6573
  436MOL0     H58834   7.569   9.094   5.044  0.5124 -1.0867 -0.6112
  436MOL0     H58835   7.553   9.065   4.870 -2.0234 -1.9632  1.3334
  436MOL0     H58836   7.334   9.195   4.862  2.0610  1.0795 -0.0006
  436MOL0     H58837   7.336   9.038   4.929  2.5404 -0.9158 -2.7642
  436MOL0     H58838   7.360   9.278   5.090 -1.3024  0.3353 -0.1664
  436MOL0     H58839   7.348   9.117   5.161 -0.9231 -0.8657 -0.4926
  436MOL0     H58840   7.138   9.247   5.162 -1.4266 -1.1554  0.7585
  436MOL0     H58841   7.118   9.091   5.084 -2.7257  1.2902  0.3021
  436MOL0     H58842   8.173   9.417   5.128 -0.8077  2.5592 -0.5835
  436MOL0     H58843   8.438   9.439   5.098  0.1905  1.4385 -0.2133
  436MOL0     H58844   8.766   9.528   5.011 -2.3153 -1.6048 -1.0376
  436MOL0     H58845   9.000   9.593   5.011  0.2843  0.2916 -0.7968
  436MOL0     H58846  10.620   9.379   3.821  3.2280  1.7532 -0.2771
  436MOL0     H58847  10.851   9.372   3.787 -0.2308  0.5967 -0.1260
  436MOL0     H58848  11.165   9.147   3.503  0.5287 -0.3350 -0.3567
  436MOL0     H58849  11.409   9.160   3.432 -0.6457  4.2996 -0.0927
  436MOL0     H58850  11.707   9.283   3.741 -1.0479  0.0261  0.4370
  436MOL0     H58851  11.799   9.319   3.597  1.0050  2.4268  2.4138
  436MOL0     H58852  11.763   9.521   3.698 -0.9563  0.7292 -0.5325
  436MOL0     H58853  11.608   9.483   3.755  1.4207 -1.4392  1.8369
  436MOL0     H58854  11.520   9.505   3.532 -1.3972  1.8478  2.3196
  436MOL0     H58855  11.689   9.513   3.462  0.5900  0.5606  1.1316
  436MOL0     H58856  11.579   9.739   3.645 -1.8223  1.7631 -1.1430
  436MOL0     H58857  11.544   9.748   3.478 -0.7728  2.8913  2.7083
  436MOL0     H58858  11.936   9.892   3.468 -2.9993  2.5743 -2.0917
  436MOL0     H58859  11.507   9.295   3.825 -0.1246  0.4488  0.2610
  436MOL0     H58860  11.287   9.258   3.899 -0.0120 -0.7846 -0.0292
  437MOL0     O58861   2.239   4.837   9.732  0.3255 -0.7369  0.4863
  437MOL0     C58862   2.321   4.754   9.773  0.0693 -0.3394  0.5492
  437MOL0     O58863   2.290   4.660   9.864  0.4679 -0.5440 -0.6369
  437MOL0     C58864   2.165   4.646   9.916  0.1765 -0.0046 -0.0097
  437MOL0     C58865   2.113   4.717  10.029 -0.3308  0.1379  0.4279
  437MOL0     C58866   1.987   4.690  10.084 -0.1763  0.0473  0.2831
  437MOL0     C58867   1.902   4.599  10.018  0.1328 -0.8843 -0.5933
  437MOL0     O58868   1.774   4.572  10.056 -0.1870 -0.0753 -0.1680
  437MOL0     C58869   1.730   4.628  10.181 -0.2461 -0.0677  0.1160
  437MOL0     C58870   1.581   4.609  10.181  0.7669  1.0160 -0.3320
  437MOL0     C58871   1.545   4.455  10.222  0.4880 -0.1802  0.5538
  437MOL0     C58872   1.585   4.349  10.114  0.2440  0.1080 -0.5430
  437MOL0     C58873   1.505   4.219  10.123 -0.2314 -0.5639  0.2655
  437MOL0     C58874   1.376   4.235  10.042  0.4660  0.4925 -0.0772
  437MOL0     C58875   1.257   4.135  10.082 -0.1946 -0.1551 -0.2656
  437MOL0     C58876   1.305   3.987  10.079 -0.5432  1.0297  0.4039
  437MOL0     N58877   1.188   3.895  10.083 -0.7247 -0.0242  0.2519
  437MOL0     C58878   1.093   3.857   9.985 -0.6246 -0.3176 -0.1927
  437MOL0     C58879   1.030   3.746  10.029 -0.0173  0.0506  0.6786
  437MOL0     C58880   0.900   3.692   9.948 -0.2838  0.0367  0.3000
  437MOL0     C58881   0.770   3.724  10.027 -0.2904  0.5862 -0.9659
  437MOL0     C58882   0.645   3.697   9.947  0.5305  0.3329 -0.3489
  437MOL0     C58883   0.525   3.739  10.035 -0.1946  0.6882 -0.3796
  437MOL0     O58884   0.519   3.880  10.043  0.3302  0.0838  0.4896
  437MOL0     C58885   0.415   3.931  10.108  1.1861 -0.2231 -0.3392
  437MOL0     C58886   0.338   3.859  10.205  0.9703  0.1972  0.6604
  437MOL0     C58887   0.221   3.917  10.265  0.2081 -0.2075 -1.1697
  437MOL0     C58888   0.143   3.824  10.365  0.1223 -0.2014 -0.6995
  437MOL0     C58889   0.179   4.051  10.228 -1.0539  0.1599  0.5626
  437MOL0     C58890   0.051   4.121  10.264 -0.3422  0.2232 -0.7246
  437MOL0     O58891  -0.008   4.076  10.374 -0.0584 -0.4287 -0.1691
  437MOL0     C58892  -0.100   4.156  10.442 -0.0753  0.0912  0.0536
  437MOL0     C58893  -0.103   4.296  10.462  0.7155 -0.0261  0.0453
  437MOL0     C58894  -0.201   4.358  10.539 -0.3328  0.3668 -0.8745
  437MOL0     C58895  -0.302   4.283  10.601  0.2769 -0.4194 -0.6195
  437MOL0     O58896  -0.400   4.347  10.678 -0.0176 -0.5394  0.6301
  437MOL0     C58897  -0.532   4.285  10.684 -0.4223  0.0240  0.2419
  437MOL0     C58898  -0.633   4.398  10.708 -0.3689  0.4067 -0.0722
  437MOL0     C58899  -0.779   4.357  10.719  0.5278  0.1356  0.3486
  437MOL0     C58900  -0.873   4.473  10.707 -0.0070  0.5975  0.1103
  437MOL0     C58901  -1.015   4.433  10.689  0.5900 -0.9560  0.0483
  437MOL0     C58902  -1.101   4.549  10.645  0.0002 -0.1845  0.7956
  437MOL0     C58903  -1.249   4.493  10.659 -0.0720  0.3042  0.6337
  437MOL0     C58904  -1.305   4.459  10.520  0.2518  0.0409  0.5596
  437MOL0    Cl58905  -1.337   4.608  10.417 -0.1604  0.0082  0.2209
  437MOL0     C58906  -0.297   4.141  10.583 -0.6758  0.1214 -0.0924
  437MOL0     C58907  -0.201   4.081  10.504  0.7286 -0.3458  0.0336
  437MOL0     O58908   0.004   4.209  10.187 -0.2854 -0.2650 -0.0539
  437MOL0     C58909   0.262   4.113  10.128 -0.1172 -0.6361  0.2575
  437MOL0     C58910   0.373   4.056  10.071 -1.0189  0.3034  1.0941
  437MOL0     N58911   1.066   3.723  10.157  0.0663  0.1093  0.0728
  437MOL0     N58912   1.154   3.820  10.195  0.2262 -0.6692 -0.2282
  437MOL0     C58913   1.949   4.525   9.910 -0.7125 -0.4556  0.4515
  437MOL0     C58914   2.075   4.546   9.861  0.2253  1.0157 -0.5721
  437MOL0     C58915   2.451   4.751   9.695 -0.1076  0.1927  0.5115
  437MOL0     C58916   2.513   4.630   9.681  0.5662 -0.0694  0.8093
  437MOL0     C58917   2.616   4.615   9.598  0.2262  1.1047  0.3873
  437MOL0     C58918   2.675   4.724   9.531  1.0206 -0.1343 -0.1720
  437MOL0     O58919   2.791   4.697   9.467 -0.5525  0.1297  0.5498
  437MOL0     C58920   2.870   4.810   9.434 -0.1107 -0.6112  0.4228
  437MOL0     C58921   2.990   4.758   9.368  0.0440  0.5438  0.2370
  437MOL0     C58922   3.103   4.718   9.463  0.6291  0.6350  0.4592
  437MOL0     C58923   3.241   4.715   9.390 -0.0840 -0.0103 -0.7463
  437MOL0     C58924   3.296   4.842   9.351 -0.5734 -0.1734  0.8914
  437MOL0     C58925   3.334   4.942   9.298 -0.1514 -0.3795 -0.4344
  437MOL0     C58926   2.615   4.847   9.540  0.4063 -0.4689 -1.2366
  437MOL0     C58927   2.496   4.858   9.621 -0.2116 -0.2483  0.1066
  437MOL0     H58928   2.187   4.776  10.083 -0.0865  0.2788 -0.0476
  437MOL0     H58929   1.965   4.761  10.163  0.8687 -1.9649  2.5431
  437MOL0     H58930   1.787   4.587  10.265 -0.5216  0.1188  0.3991
  437MOL0     H58931   1.746   4.736  10.179 -2.8327  0.4003  0.6465
  437MOL0     H58932   1.539   4.671  10.260  0.1734  1.6935 -1.1629
  437MOL0     H58933   1.531   4.636  10.088 -0.0201  3.7115  0.7852
  437MOL0     H58934   1.587   4.423  10.318  1.9374 -1.2608 -0.3897
  437MOL0     H58935   1.437   4.449  10.237  0.0027  2.9968 -0.8643
  437MOL0     H58936   1.562   4.377  10.011 -1.2703 -0.6287 -0.4329
  437MOL0     H58937   1.692   4.326  10.113 -0.1005 -1.9289  1.5817
  437MOL0     H58938   1.549   4.130  10.078 -0.4489 -0.7502  0.4213
  437MOL0     H58939   1.489   4.190  10.227 -0.3148 -0.6731  0.2209
  437MOL0     H58940   1.334   4.334  10.063 -0.3862  1.2449 -4.4195
  437MOL0     H58941   1.397   4.239   9.934  0.9860  3.8025  0.0341
  437MOL0     H58942   1.210   4.154  10.179 -5.5655 -0.3514 -2.4616
  437MOL0     H58943   1.174   4.149  10.012  1.3985  2.2704 -1.8103
  437MOL0     H58944   1.357   3.953  10.169 -0.8115 -1.3097 -0.2536
  437MOL0     H58945   1.374   3.964   9.997  0.1956 -0.3208  1.3745
  437MOL0     H58946   1.082   3.929   9.904  4.7500  0.5253 -0.5482
  437MOL0     H58947   0.895   3.750   9.856 -2.7489  0.5791  0.6951
  437MOL0     H58948   0.907   3.585   9.927  0.6643  0.3052 -0.8017
  437MOL0     H58949   0.781   3.828  10.059  0.2173 -0.0170  0.9821
  437MOL0     H58950   0.750   3.669  10.120 -1.5852  1.3050 -0.7833
  437MOL0     H58951   0.639   3.592   9.919  0.3868  0.2025  0.1640
  437MOL0     H58952   0.636   3.757   9.856 -1.5639 -0.1240 -0.4881
  437MOL0     H58953   0.536   3.695  10.134 -2.0315  3.6270  1.2872
  437MOL0     H58954   0.436   3.697   9.989 -0.2331 -0.1454  0.4372
  437MOL0     H58955   0.375   3.764  10.242  0.5537 -0.9127 -1.5741
  437MOL0     H58956   0.035   3.840  10.359 -0.0215 -1.3803 -1.8171
  437MOL0     H58957   0.162   3.722  10.331  0.3740  0.0925 -1.4709
  437MOL0     H58958   0.174   3.836  10.469  0.1469  1.1139 -0.8371
  437MOL0     H58959  -0.021   4.355  10.423  0.0700  0.0126 -1.3331
  437MOL0     H58960  -0.185   4.461  10.569 -1.6446 -0.2895  2.6864
  437MOL0     H58961  -0.556   4.247  10.584 -1.1280  0.4941  0.2265
  437MOL0     H58962  -0.530   4.209  10.762  1.5455  0.4123  0.6275
  437MOL0     H58963  -0.602   4.444  10.802  1.2088  1.0894 -0.8923
  437MOL0     H58964  -0.626   4.472  10.628 -2.0301  2.8148  1.8721
  437MOL0     H58965  -0.794   4.311  10.817  0.5297 -0.8154 -0.0754
  437MOL0     H58966  -0.804   4.283  10.641  0.6500 -0.6746  1.0594
  437MOL0     H58967  -0.863   4.533  10.798  0.9396 -0.9835  1.1027
  437MOL0     H58968  -0.856   4.536  10.619 -0.7683  0.5133 -0.1032
  437MOL0     H58969  -1.052   4.389  10.782  1.3187  0.9830  1.3328
  437MOL0     H58970  -1.034   4.364  10.607 -4.3620 -0.3323  0.3944
  437MOL0     H58971  -1.088   4.639  10.706 -0.0350 -1.6451  3.1112
  437MOL0     H58972  -1.062   4.574  10.546 -0.3785 -2.0748  0.1388
  437MOL0     H58973  -1.312   4.571  10.702 -0.4200  1.3674 -1.6212
  437MOL0     H58974  -1.259   4.408  10.727 -1.9850  0.1376  0.1947
  437MOL0     H58975  -1.402   4.410  10.535 -0.2672  1.5856  2.9584
  437MOL0     H58976  -1.226   4.397  10.478  1.4935  0.9635  1.4456
  437MOL0     H58977  -0.366   4.072  10.630  0.8517 -0.8313  0.8183
  437MOL0     H58978  -0.191   3.973  10.502 -2.1861 -0.8991  3.9834
  437MOL0     H58979   0.229   4.211  10.095  1.4697 -0.7347 -1.8273
  437MOL0     H58980   0.439   4.108  10.002  0.2661 -1.3423  1.0244
  437MOL0     H58981   1.894   4.441   9.868 -2.6092  0.1790  1.5499
  437MOL0     H58982   2.112   4.485   9.779  0.2280 -1.2740  1.0514
  437MOL0     H58983   2.475   4.543   9.735  0.4888 -0.4688  0.1285
  437MOL0     H58984   2.655   4.514   9.584 -0.8857  0.9810 -2.2889
  437MOL0     H58985   2.822   4.875   9.360  1.3173  0.9245  0.7759
  437MOL0     H58986   2.892   4.871   9.522 -0.6778  0.5414 -0.2042
  437MOL0     H58987   3.027   4.834   9.299  0.0420  0.9817  0.7180
  437MOL0     H58988   2.950   4.688   9.294 -0.9387  1.3659 -0.0272
  437MOL0     H58989   3.088   4.616   9.500  0.4637 -0.5471 -2.6279
  437MOL0     H58990   3.105   4.780   9.554 -0.7006  1.7993 -0.2738
  437MOL0     H58991   3.244   4.658   9.296 -1.3115  2.3678 -2.3216
  437MOL0     H58992   3.323   4.673   9.449 -1.0165  0.4902  0.9370
  437MOL0     H58993   3.357   5.028   9.240 -1.6271  3.2199  3.7710
  437MOL0     H58994   2.653   4.941   9.500  2.2056  0.2766  1.8788
  437MOL0     H58995   2.454   4.958   9.620  3.3216  1.3994  0.2896
  438MOL0     O58996   1.091  10.445   9.283 -0.7349  0.1755 -0.6905
  438MOL0     C58997   1.072  10.340   9.213 -0.0860  0.6779  0.0538
  438MOL0     O58998   1.152  10.230   9.199  0.5581 -0.0130 -0.5273
  438MOL0     C58999   1.281  10.237   9.250  0.2729 -0.5246 -0.0518
  438MOL0     C59000   1.374  10.324   9.184  0.5148 -0.0777  0.6201
  438MOL0     C59001   1.496  10.337   9.252 -0.4895 -0.0848  0.1991
  438MOL0     C59002   1.522  10.292   9.384 -0.3509 -0.3071 -0.0498
  438MOL0     O59003   1.649  10.299   9.434 -0.4460  0.2912 -0.4154
  438MOL0     C59004   1.729  10.177   9.436 -0.9362  0.5520  0.0608
  438MOL0     C59005   1.876  10.226   9.475  0.2263  0.5633  0.0207
  438MOL0     C59006   1.976  10.236   9.366 -0.5057  0.4702  0.5413
  438MOL0     C59007   1.939  10.352   9.277 -0.0931  0.7665  0.0499
  438MOL0     C59008   2.000  10.483   9.319 -0.0029 -0.3248  0.3272
  438MOL0     C59009   1.941  10.605   9.242 -0.1924 -0.8530  0.6547
  438MOL0     C59010   2.026  10.736   9.271  0.5849 -0.3861  0.3599
  438MOL0     C59011   2.152  10.751   9.192  0.2354 -0.3929  0.0259
  438MOL0     N59012   2.128  10.765   9.047 -0.4306  0.0546  0.3591
  438MOL0     C59013   2.159  10.671   8.952 -0.0943  0.5161  0.2762
  438MOL0     C59014   2.126  10.729   8.841  0.1758 -0.1195  0.6793
  438MOL0     C59015   2.141  10.676   8.700  0.7380 -0.7656 -0.3937
  438MOL0     C59016   2.055  10.556   8.678  0.9062 -0.4568 -0.5211
  438MOL0     C59017   1.906  10.593   8.630  0.5669 -0.0732  0.2649
  438MOL0     C59018   1.881  10.628   8.483  0.4164 -0.6414 -0.4072
  438MOL0     O59019   1.781  10.538   8.421 -0.3110 -0.8290  0.5028
  438MOL0     C59020   1.646  10.553   8.427 -0.0552  0.9463  0.0782
  438MOL0     C59021   1.572  10.453   8.365  0.2121 -0.5246  0.1569
  438MOL0     C59022   1.431  10.456   8.362 -0.2622  0.2261  0.1061
  438MOL0     C59023   1.355  10.349   8.282 -0.4651  0.1116  0.6544
  438MOL0     C59024   1.359  10.560   8.434 -0.3314  0.1830 -0.1685
  438MOL0     C59025   1.218  10.588   8.423 -0.1222  0.2175  0.0154
  438MOL0     O59026   1.175  10.669   8.516  0.1448  0.2930  0.2614
  438MOL0     C59027   1.052  10.730   8.513  0.1657  0.1642  0.1362
  438MOL0     C59028   0.934  10.663   8.457 -0.1260 -0.4920 -0.0187
  438MOL0     C59029   0.816  10.732   8.461  0.3392 -0.8355  1.5140
  438MOL0     C59030   0.811  10.858   8.522  0.8692  0.4755  0.0015
  438MOL0     O59031   0.692  10.938   8.533  0.5211  0.0817 -0.3597
  438MOL0     C59032   0.567  10.882   8.499 -0.0157  0.5176 -0.1520
  438MOL0     C59033   0.460  10.981   8.494 -0.7521 -0.4267  0.3942
  438MOL0     C59034   0.324  10.919   8.462  0.9121 -0.7326 -0.3055
  438MOL0     C59035   0.197  11.011   8.445  0.0434  0.3755 -0.2843
  438MOL0     C59036   0.084  10.928   8.385  0.4112 -0.4441 -0.4674
  438MOL0     C59037   0.099  10.885   8.232  0.5902 -0.3600 -0.7007
  438MOL0     C59038   0.101  11.010   8.137 -0.4264  0.6632 -0.0701
  438MOL0     C59039   0.042  10.981   7.998 -0.0241  0.2008 -0.1951
  438MOL0    Cl59040   0.036  11.145   7.927  0.2411  0.3199  0.3544
  438MOL0     C59041   0.924  10.916   8.577  0.3992 -0.1914  0.2115
  438MOL0     C59042   1.043  10.855   8.573 -0.6981 -0.6444  0.7496
  438MOL0     O59043   1.154  10.545   8.322 -0.8414 -0.6624  0.6033
  438MOL0     C59044   1.438  10.651   8.505  0.6744  1.0326 -0.8963
  438MOL0     C59045   1.573  10.646   8.501 -0.0566 -0.7659  0.8106
  438MOL0     N59046   2.059  10.852   8.868  0.0116 -0.1849  0.5709
  438MOL0     N59047   2.061  10.876   8.992  0.2261 -0.2365 -0.2957
  438MOL0     C59048   1.429  10.213   9.441 -0.1882 -1.1179  0.0451
  438MOL0     C59049   1.310  10.184   9.375  0.3040 -0.2222  0.0520
  438MOL0     C59050   0.932  10.325   9.152 -0.0877  0.6353 -0.0937
  438MOL0     C59051   0.856  10.439   9.145 -0.1858 -0.2017  0.4752
  438MOL0     C59052   0.726  10.437   9.104  1.2892 -0.2376 -0.0335
  438MOL0     C59053   0.673  10.311   9.062 -0.5376  0.1261  0.1059
  438MOL0     O59054   0.553  10.284   9.007 -0.2651  0.0574 -0.4711
  438MOL0     C59055   0.440  10.367   9.041 -0.0932 -0.0529  0.7691
  438MOL0     C59056   0.332  10.327   8.937 -0.3571  0.0267  0.2635
  438MOL0     C59057   0.246  10.200   8.971  0.3504  0.4777 -0.1816
  438MOL0     C59058   0.097  10.217   9.002  0.9655 -0.6036 -0.7643
  438MOL0     C59059   0.015  10.243   8.879 -1.1896 -0.4897 -0.1323
  438MOL0     C59060  -0.040  10.264   8.773 -0.0487  0.4966 -0.0542
  438MOL0     C59061   0.758  10.196   9.049 -0.6108  0.0431 -0.6207
  438MOL0     C59062   0.885  10.203   9.099 -0.1150 -0.7360  0.0387
  438MOL0     H59063   1.351  10.379   9.093  1.7300  2.1339  1.5706
  438MOL0     H59064   1.578  10.393   9.209 -0.6450  0.2314  0.3128
  438MOL0     H59065   1.697  10.108   9.514  3.2349 -2.2372 -0.3815
  438MOL0     H59066   1.711  10.137   9.336  0.8782  0.1897 -0.1609
  438MOL0     H59067   1.876  10.315   9.538 -2.9913 -0.0659  1.0744
  438MOL0     H59068   1.924  10.145   9.532  2.0194 -0.8256 -3.1554
  438MOL0     H59069   2.077  10.255   9.404  0.0916 -1.2645 -0.0654
  438MOL0     H59070   1.971  10.144   9.307  1.6769 -0.0952  1.1311
  438MOL0     H59071   1.976  10.344   9.174 -0.6821 -0.5102 -0.0778
  438MOL0     H59072   1.831  10.364   9.275  0.0300  1.9771 -0.1827
  438MOL0     H59073   1.995  10.499   9.427  0.5643 -0.9824  0.4556
  438MOL0     H59074   2.106  10.478   9.293  0.0383  1.0466  0.1415
  438MOL0     H59075   1.951  10.572   9.138  1.9977 -0.6736  0.7541
  438MOL0     H59076   1.840  10.621   9.282 -0.3953  0.9022 -0.4323
  438MOL0     H59077   1.967  10.826   9.248  4.5326  1.5638 -3.5323
  438MOL0     H59078   2.043  10.747   9.379 -0.1631  1.2290  0.3577
  438MOL0     H59079   2.220  10.667   9.207  1.0762  0.5947  2.2602
  438MOL0     H59080   2.199  10.842   9.230 -0.2571 -0.6010  1.1868
  438MOL0     H59081   2.214  10.577   8.959  1.0845  1.0269 -1.4424
  438MOL0     H59082   2.117  10.764   8.639  0.3869  0.4175  1.3970
  438MOL0     H59083   2.245  10.649   8.677  0.5866 -2.7533  1.0505
  438MOL0     H59084   2.050  10.501   8.772 -0.2259 -1.9444 -1.3917
  438MOL0     H59085   2.110  10.493   8.607  2.7647 -0.4498  0.8416
  438MOL0     H59086   1.866  10.676   8.689  0.6410  0.7076 -0.7621
  438MOL0     H59087   1.835  10.512   8.653  0.6980 -0.8262 -1.7660
  438MOL0     H59088   1.970  10.633   8.420 -0.5559  1.4451 -1.7131
  438MOL0     H59089   1.832  10.725   8.473 -1.9165 -1.5987  0.9875
  438MOL0     H59090   1.622  10.370   8.316  1.0364 -1.8790  3.1030
  438MOL0     H59091   1.277  10.292   8.333 -0.6163 -1.8610 -1.6121
  438MOL0     H59092   1.299  10.392   8.198  0.5101 -2.2688 -1.3391
  438MOL0     H59093   1.424  10.276   8.239  0.5707  0.7811  1.1160
  438MOL0     H59094   0.934  10.556   8.440  3.6442 -0.6107 -0.0620
  438MOL0     H59095   0.730  10.677   8.424  1.2873 -1.7122  0.5565
  438MOL0     H59096   0.570  10.833   8.401 -0.1247 -0.1891  0.1888
  438MOL0     H59097   0.543  10.799   8.566 -1.3092  1.0487  0.0633
  438MOL0     H59098   0.444  11.034   8.588  0.6256 -0.6864  0.7929
  438MOL0     H59099   0.484  11.061   8.423 -1.0413 -0.5777  0.1228
  438MOL0     H59100   0.295  10.846   8.538 -1.4710 -1.1390 -1.4814
  438MOL0     H59101   0.331  10.864   8.367  1.3870 -0.0111 -0.6983
  438MOL0     H59102   0.161  11.031   8.546  3.1440 -0.0411  1.0136
  438MOL0     H59103   0.214  11.099   8.381  3.8591  0.6147  0.8109
  438MOL0     H59104  -0.011  10.982   8.381  1.5708  2.0073  1.5653
  438MOL0     H59105   0.082  10.836   8.444  0.7598  0.6550  1.3407
  438MOL0     H59106   0.181  10.816   8.210 -0.2758 -1.1524 -1.5755
  438MOL0     H59107   0.019  10.814   8.210  1.3140 -1.6278  0.6024
  438MOL0     H59108   0.207  11.037   8.133 -0.7057  1.6629 -2.5790
  438MOL0     H59109   0.037  11.094   8.165 -1.4654 -0.9736  2.8825
  438MOL0     H59110  -0.056  10.933   8.002 -0.1355  0.3982 -0.5192
  438MOL0     H59111   0.098  10.905   7.942  0.6068  0.9724 -0.6402
  438MOL0     H59112   0.925  11.013   8.626  1.7621  0.5347 -1.1651
  438MOL0     H59113   1.136  10.895   8.613  0.7411 -1.5729 -1.4501
  438MOL0     H59114   1.397  10.734   8.562  0.2845  0.2458  0.0008
  438MOL0     H59115   1.624  10.726   8.553  3.6291  1.4486 -5.1754
  438MOL0     H59116   1.448  10.169   9.538 -0.3396 -0.8963  0.1755
  438MOL0     H59117   1.238  10.121   9.426 -0.8049 -0.1026 -1.3047
  438MOL0     H59118   0.897  10.539   9.161 -1.1535  0.6621 -2.0242
  438MOL0     H59119   0.671  10.531   9.106  0.6045 -0.5772 -1.3740
  438MOL0     H59120   0.399  10.359   9.142 -0.7561 -1.4509  0.4184
  438MOL0     H59121   0.456  10.473   9.021 -2.3189  0.3162  0.6938
  438MOL0     H59122   0.377  10.296   8.842 -0.6668  0.1099  0.0869
  438MOL0     H59123   0.262  10.410   8.920 -0.4650 -0.0242  0.4567
  438MOL0     H59124   0.294  10.148   9.055  0.3400  0.5390 -0.1381
  438MOL0     H59125   0.251  10.136   8.883  0.7457 -1.8882  1.4739
  438MOL0     H59126   0.089  10.304   9.067  1.0238 -0.9006 -0.3514
  438MOL0     H59127   0.046  10.131   9.047 -1.5461  1.1949  0.0464
  438MOL0     H59128  -0.104  10.278   8.688  0.1032  4.4521  0.2965
  438MOL0     H59129   0.713  10.102   9.017  0.1881 -0.3119 -0.7276
  438MOL0     H59130   0.961  10.126   9.101  0.0101 -0.6070  1.3479
  439MOL0     O59131   4.586   7.378   4.848  0.5567 -0.2470  0.0530
  439MOL0     C59132   4.670   7.392   4.765  0.3435 -0.6569  0.2956
  439MOL0     O59133   4.664   7.460   4.639 -0.1926 -0.1963 -0.5798
  439MOL0     C59134   4.545   7.535   4.628 -0.1160  0.0947 -1.2319
  439MOL0     C59135   4.419   7.471   4.630  0.1492 -0.3968 -0.1202
  439MOL0     C59136   4.296   7.541   4.598  0.4455  0.7828  0.2950
  439MOL0     C59137   4.304   7.681   4.594  0.2404  0.2335 -0.3808
  439MOL0     O59138   4.191   7.766   4.571 -0.4149  0.2842 -0.1884
  439MOL0     C59139   4.069   7.707   4.531  0.4419 -0.1069  0.4365
  439MOL0     C59140   4.059   7.665   4.384  0.8510  0.8288  0.5210
  439MOL0     C59141   3.925   7.592   4.366  0.3586  0.4017  0.7477
  439MOL0     C59142   3.897   7.518   4.232  0.2406  0.7190  0.5262
  439MOL0     C59143   3.762   7.440   4.225  0.0865 -0.6919 -0.5267
  439MOL0     C59144   3.719   7.414   4.076  0.1666 -0.0429 -0.4839
  439MOL0     C59145   3.574   7.367   4.072  0.5524  0.7992  0.1101
  439MOL0     C59146   3.481   7.495   4.057  0.0263  0.4140  0.5897
  439MOL0     N59147   3.477   7.540   3.917  0.7583 -0.7060 -0.2411
  439MOL0     C59148   3.407   7.477   3.816 -0.2510  0.5167  0.1658
  439MOL0     C59149   3.432   7.547   3.703  0.5451  0.4940  0.8328
  439MOL0     C59150   3.408   7.508   3.550 -0.4809 -0.9836 -0.1166
  439MOL0     C59151   3.258   7.498   3.516  0.3121 -0.3411 -0.5655
  439MOL0     C59152   3.220   7.411   3.398 -0.2292  0.9731 -0.0775
  439MOL0     C59153   3.073   7.414   3.374 -0.0284 -0.5234  0.1603
  439MOL0     O59154   3.050   7.343   3.253  0.0327  0.6840  0.0495
  439MOL0     C59155   2.921   7.288   3.216 -0.8245 -0.6459 -0.5879
  439MOL0     C59156   2.925   7.219   3.101  1.1691  0.0927 -0.5155
  439MOL0     C59157   2.820   7.156   3.038  0.7408  0.1010  0.3754
  439MOL0     C59158   2.836   7.109   2.890  0.0341 -0.7021  0.1300
  439MOL0     C59159   2.696   7.144   3.111  0.9495  0.6819  0.8240
  439MOL0     C59160   2.575   7.087   3.050 -0.1438  0.7290 -0.2327
  439MOL0     O59161   2.580   6.994   2.950  0.2780  0.1972  0.4446
  439MOL0     C59162   2.478   6.913   2.921  0.1680 -0.5376 -0.7106
  439MOL0     C59163   2.439   6.808   3.015 -0.2614  0.1250  0.1072
  439MOL0     C59164   2.337   6.726   2.983  0.3152  0.2122 -0.1597
  439MOL0     C59165   2.278   6.732   2.854 -0.1240  0.4178  0.4900
  439MOL0     O59166   2.189   6.652   2.791 -0.0477  0.2770  0.6755
  439MOL0     C59167   2.132   6.544   2.861  0.1020 -0.0758 -0.1277
  439MOL0     C59168   2.221   6.423   2.848 -0.6253 -0.6177  0.6213
  439MOL0     C59169   2.263   6.360   2.982  0.8330  1.0905 -0.2887
  439MOL0     C59170   2.146   6.287   3.049 -0.0058  0.4220 -0.0112
  439MOL0     C59171   2.183   6.242   3.193  0.4969 -0.1129 -0.9850
  439MOL0     C59172   2.065   6.139   3.231 -0.7408  0.2683  0.1295
  439MOL0     C59173   2.072   6.100   3.383  0.6091 -0.0978  0.4570
  439MOL0     C59174   1.928   6.094   3.440  0.2895  0.5238 -0.4342
  439MOL0    Cl59175   1.845   6.246   3.424 -0.3476  0.0362 -0.4931
  439MOL0     C59176   2.304   6.841   2.765  0.3097  0.1675 -0.0557
  439MOL0     C59177   2.403   6.931   2.800  0.0374 -0.1313  0.2281
  439MOL0     O59178   2.467   7.116   3.107  0.1872  0.6474 -0.3058
  439MOL0     C59179   2.693   7.217   3.238 -0.0040 -0.1299 -0.2768
  439MOL0     C59180   2.800   7.292   3.291 -0.8334  0.0949  0.8060
  439MOL0     N59181   3.517   7.649   3.742  0.2913  0.7223 -0.2106
  439MOL0     N59182   3.547   7.641   3.864  0.2400  0.3009  0.0367
  439MOL0     C59183   4.423   7.743   4.608  0.1200  0.2825 -1.1746
  439MOL0     C59184   4.542   7.670   4.630  0.4335  0.2649  0.3890
  439MOL0     C59185   4.791   7.314   4.791 -0.1159 -0.1024 -0.1026
  439MOL0     C59186   4.791   7.179   4.833 -0.3542  0.0660  0.6493
  439MOL0     C59187   4.895   7.101   4.877 -0.5475 -0.3170 -0.0881
  439MOL0     C59188   5.027   7.160   4.894 -0.0891 -0.1569  0.2687
  439MOL0     O59189   5.120   7.076   4.951 -0.1853  0.3064  0.8614
  439MOL0     C59190   5.252   7.137   4.970  0.1642 -0.3202  0.4657
  439MOL0     C59191   5.340   7.027   5.043 -0.3662 -0.3335  0.1440
  439MOL0     C59192   5.486   7.081   5.090 -0.3986  0.4429  0.3080
  439MOL0     C59193   5.549   6.980   5.182 -0.2392 -0.1640 -0.2813
  439MOL0     C59194   5.687   7.004   5.217  0.7234 -0.4794  0.0392
  439MOL0     C59195   5.797   7.028   5.254 -0.4834 -0.0522  0.4048
  439MOL0     C59196   5.034   7.301   4.852  0.0104  0.8300 -0.3183
  439MOL0     C59197   4.917   7.369   4.805 -0.6513  0.0358 -0.1500
  439MOL0     H59198   4.417   7.363   4.637 -0.2669 -0.6898 -3.3509
  439MOL0     H59199   4.207   7.480   4.587  1.8198 -1.0923 -0.8795
  439MOL0     H59200   4.036   7.628   4.600 -2.5579  1.8799  1.4883
  439MOL0     H59201   3.991   7.782   4.550  0.3802 -0.0873  0.1143
  439MOL0     H59202   4.073   7.742   4.308  2.0320 -1.1404 -1.3730
  439MOL0     H59203   4.144   7.598   4.369  1.7771  1.0670  4.0357
  439MOL0     H59204   3.916   7.518   4.446 -2.2701  1.6459  1.7152
  439MOL0     H59205   3.844   7.662   4.387  1.5159  1.4881  1.7676
  439MOL0     H59206   3.906   7.590   4.150  4.2301  2.3394  2.1043
  439MOL0     H59207   3.971   7.438   4.221 -0.1666 -0.0766  2.9534
  439MOL0     H59208   3.766   7.353   4.292  0.5031  1.7076  2.7930
  439MOL0     H59209   3.690   7.517   4.255  1.5625 -0.0651  1.5719
  439MOL0     H59210   3.745   7.497   4.010  1.0237  0.7598  0.8282
  439MOL0     H59211   3.785   7.331   4.049 -1.7414 -2.1023  0.7672
  439MOL0     H59212   3.563   7.299   3.987  5.1353 -2.3092  1.6119
  439MOL0     H59213   3.548   7.309   4.161  0.5371  0.3121 -0.2077
  439MOL0     H59214   3.510   7.578   4.122  0.2044  0.5369  0.3544
  439MOL0     H59215   3.378   7.474   4.089 -0.2823  1.7752  0.5425
  439MOL0     H59216   3.344   7.389   3.831 -3.2076  2.2521 -1.0477
  439MOL0     H59217   3.459   7.585   3.492  0.3128  0.5795  2.4463
  439MOL0     H59218   3.456   7.412   3.530 -1.5431 -1.1826 -1.8981
  439MOL0     H59219   3.217   7.597   3.493 -0.8353 -0.7434 -0.3413
  439MOL0     H59220   3.203   7.446   3.596 -1.1587  1.1348 -0.5649
  439MOL0     H59221   3.250   7.308   3.421 -2.3765 -0.1034 -1.7461
  439MOL0     H59222   3.276   7.431   3.306  2.5053 -0.3366  1.1877
  439MOL0     H59223   3.029   7.514   3.365  1.7446  0.3803  0.9869
  439MOL0     H59224   3.020   7.360   3.453 -0.4527 -1.5589 -0.8166
  439MOL0     H59225   3.021   7.224   3.051  1.1059 -3.3019 -1.2152
  439MOL0     H59226   2.914   7.167   2.840  1.1170 -0.1595  2.3209
  439MOL0     H59227   2.869   7.005   2.891 -0.4438 -0.8657  1.9473
  439MOL0     H59228   2.747   7.127   2.829  1.2740  0.0260 -1.5342
  439MOL0     H59229   2.500   6.808   3.105  0.3627 -4.8162 -0.0302
  439MOL0     H59230   2.301   6.651   3.052 -1.2094 -0.6526 -1.7990
  439MOL0     H59231   2.105   6.576   2.962 -0.1567  0.3913 -0.3369
  439MOL0     H59232   2.033   6.520   2.820  0.3082  0.1194 -0.7432
  439MOL0     H59233   2.180   6.351   2.776  1.6577 -2.1319  0.7266
  439MOL0     H59234   2.312   6.463   2.802 -1.7536  3.3305  1.4527
  439MOL0     H59235   2.294   6.433   3.057 -0.3800  1.7884 -0.4394
  439MOL0     H59236   2.345   6.291   2.959 -0.0590  0.2233 -0.9378
  439MOL0     H59237   2.061   6.355   3.057  0.9838  1.5102  1.5980
  439MOL0     H59238   2.123   6.198   2.989  2.4440  0.7273 -1.5175
  439MOL0     H59239   2.189   6.328   3.261 -3.0566 -1.5375  1.3931
  439MOL0     H59240   2.278   6.187   3.195  0.6552  0.1553 -1.0002
  439MOL0     H59241   1.967   6.178   3.201  0.5767  5.3136  1.5252
  439MOL0     H59242   2.072   6.047   3.171 -3.2503  1.8269 -2.8478
  439MOL0     H59243   2.124   6.170   3.450 -1.2880  1.0838  0.7881
  439MOL0     H59244   2.111   5.999   3.400 -3.8679 -1.8134  1.9727
  439MOL0     H59245   1.938   6.073   3.547 -4.5915  1.8760  0.5274
  439MOL0     H59246   1.868   6.016   3.393  0.3827  0.7455 -0.9294
  439MOL0     H59247   2.242   6.849   2.676  1.9322  2.0966 -1.1085
  439MOL0     H59248   2.449   6.999   2.729  4.5667 -2.9220  0.1067
  439MOL0     H59249   2.598   7.231   3.289 -0.2324  2.4588 -1.2533
  439MOL0     H59250   2.806   7.349   3.383  1.7344  0.8051  0.2832
  439MOL0     H59251   4.435   7.850   4.612  2.7214  0.0012  1.7420
  439MOL0     H59252   4.636   7.723   4.628  0.1596  0.7772  0.8616
  439MOL0     H59253   4.697   7.125   4.829  0.5112 -1.7248  2.3843
  439MOL0     H59254   4.881   6.998   4.906  2.3653 -0.5165  0.9194
  439MOL0     H59255   5.295   7.156   4.871 -1.6665 -0.4816 -0.4069
  439MOL0     H59256   5.247   7.233   5.022 -1.4457  0.8076 -1.6103
  439MOL0     H59257   5.359   6.951   4.967 -1.3341 -0.6485  0.1986
  439MOL0     H59258   5.288   6.986   5.130  0.8620  3.3530  2.8857
  439MOL0     H59259   5.469   7.166   5.158 -0.1693  2.1666 -1.6792
  439MOL0     H59260   5.542   7.105   5.000 -1.6595 -1.1413 -0.9622
  439MOL0     H59261   5.536   6.881   5.137 -0.0090 -0.7840  0.9760
  439MOL0     H59262   5.491   6.984   5.275  0.8023  1.0451  0.3506
  439MOL0     H59263   5.897   7.062   5.273 -0.4058 -0.3067  0.4621
  439MOL0     H59264   5.124   7.357   4.874  1.7676 -1.7936 -0.3951
  439MOL0     H59265   4.927   7.474   4.779  2.6777  0.2779  1.5752
  440MOL0     O59266   7.214   6.966   7.255 -0.6854  0.0823  0.5770
  440MOL0     C59267   7.217   6.945   7.131  0.1716  1.0303 -0.4051
  440MOL0     O59268   7.109   6.903   7.051 -0.4879 -0.7577 -0.1873
  440MOL0     C59269   6.983   6.896   7.103  0.1569 -0.1285 -0.2168
  440MOL0     C59270   6.923   6.772   7.090  0.7586 -0.0720 -0.2291
  440MOL0     C59271   6.786   6.748   7.133  0.3562 -0.3238  1.1750
  440MOL0     C59272   6.716   6.856   7.189  0.5474  0.1623 -0.2637
  440MOL0     O59273   6.586   6.848   7.221 -0.1645  0.5276 -0.2636
  440MOL0     C59274   6.513   6.720   7.241  0.3622 -0.5988  0.1402
  440MOL0     C59275   6.397   6.745   7.319  0.1499 -0.2287  1.1605
  440MOL0     C59276   6.286   6.646   7.272  0.1527  1.2859 -0.1369
  440MOL0     C59277   6.144   6.667   7.332 -0.7725  0.1606  0.5357
  440MOL0     C59278   6.043   6.595   7.240 -0.9049  0.2221  0.6810
  440MOL0     C59279   5.910   6.578   7.306  0.4335 -0.1154 -0.6351
  440MOL0     C59280   5.824   6.472   7.250  0.7354  1.3141 -0.2608
  440MOL0     C59281   5.750   6.517   7.118 -0.8044 -0.3060 -0.3853
  440MOL0     N59282   5.648   6.428   7.092  0.1260 -0.7254  0.6617
  440MOL0     C59283   5.646   6.289   7.110  0.1110  0.2756  0.6223
  440MOL0     C59284   5.529   6.249   7.050 -0.1688  0.5472 -0.4473
  440MOL0     C59285   5.487   6.104   7.054  0.3013 -0.0532  0.1645
  440MOL0     C59286   5.339   6.079   7.007  0.0917  0.1587 -0.1014
  440MOL0     C59287   5.317   6.099   6.860  0.3193  0.2331  0.0191
  440MOL0     C59288   5.173   6.147   6.834 -0.5324 -0.3698 -0.8974
  440MOL0     O59289   5.144   6.141   6.687 -0.3004 -0.0321 -0.1801
  440MOL0     C59290   5.034   6.205   6.636  0.5693  0.4583  0.0130
  440MOL0     C59291   5.007   6.187   6.501  0.4971  0.0219  0.5012
  440MOL0     C59292   4.884   6.242   6.441 -0.2560  0.5312 -0.2713
  440MOL0     C59293   4.839   6.201   6.304  0.2064  0.0997 -0.1559
  440MOL0     C59294   4.801   6.321   6.526  0.1155  0.1823 -0.3006
  440MOL0     C59295   4.669   6.357   6.479  0.0909  0.6040  0.3751
  440MOL0     O59296   4.567   6.326   6.569  0.0198  0.3810 -0.2489
  440MOL0     C59297   4.436   6.309   6.517 -0.2534 -0.2598  0.4963
  440MOL0     C59298   4.391   6.295   6.389 -0.0984  0.5582  0.0265
  440MOL0     C59299   4.253   6.285   6.358  0.0225  1.1635 -0.5951
  440MOL0     C59300   4.162   6.252   6.458  0.0646  0.0246 -0.9362
  440MOL0     O59301   4.034   6.231   6.411 -0.3617  0.1613 -0.5006
  440MOL0     C59302   3.921   6.224   6.508 -0.6901 -0.1591  0.1992
  440MOL0     C59303   3.793   6.264   6.438 -0.3746  0.5678  0.0372
  440MOL0     C59304   3.695   6.322   6.546  0.3188  0.6173  0.2498
  440MOL0     C59305   3.566   6.342   6.472 -1.2301 -0.6656  0.7093
  440MOL0     C59306   3.469   6.371   6.585  0.0328 -0.0558 -0.4054
  440MOL0     C59307   3.337   6.398   6.530  0.3234 -0.7445  0.6821
  440MOL0     C59308   3.219   6.399   6.640 -0.6686 -0.5866 -0.1101
  440MOL0     C59309   3.084   6.459   6.602 -0.2499 -0.3998  0.5596
  440MOL0    Cl59310   3.107   6.611   6.516  0.3087  0.3193 -0.3793
  440MOL0     C59311   4.211   6.259   6.586  0.8235 -0.3692  0.5810
  440MOL0     C59312   4.342   6.294   6.621  1.0440  1.1741  0.6233
  440MOL0     O59313   4.663   6.440   6.386 -0.1284  0.1319  0.2157
  440MOL0     C59314   4.841   6.343   6.663 -0.0460  0.1466 -0.5730
  440MOL0     C59315   4.956   6.288   6.712  0.0620  0.6570 -0.6889
  440MOL0     N59316   5.473   6.359   6.995  0.3563 -0.0077  0.0128
  440MOL0     N59317   5.543   6.464   7.008  0.0856  0.3220 -1.2125
  440MOL0     C59318   6.787   6.974   7.218 -0.3370 -0.3659  0.6319
  440MOL0     C59319   6.920   6.993   7.178 -0.0236  0.4796 -0.1180
  440MOL0     C59320   7.348   6.958   7.060  0.0676 -1.0054 -1.1428
  440MOL0     C59321   7.468   6.993   7.128 -0.3639  0.0905 -0.0473
  440MOL0     C59322   7.587   7.015   7.058  0.1823  0.2580  0.3736
  440MOL0     C59323   7.587   6.993   6.918  0.4715  0.7738 -0.5102
  440MOL0     O59324   7.693   7.022   6.830 -0.4450 -0.3584  0.1821
  440MOL0     C59325   7.805   7.085   6.886  0.4610  0.2387 -0.5291
  440MOL0     C59326   7.918   7.062   6.777 -0.4224  0.4231 -0.1493
  440MOL0     C59327   7.879   7.101   6.631 -0.5106  0.1036 -0.1450
  440MOL0     C59328   7.943   7.010   6.526  0.0322 -0.1895  0.7651
  440MOL0     C59329   8.085   7.036   6.527 -0.5002 -0.8025  1.0653
  440MOL0     C59330   8.203   7.072   6.540 -0.2599  0.0632  0.4839
  440MOL0     C59331   7.469   6.959   6.849  0.3733  0.2844 -0.3970
  440MOL0     C59332   7.348   6.946   6.923 -0.7514  1.0920  0.3109
  440MOL0     H59333   6.985   6.690   7.057  3.0090  0.3054  2.6473
  440MOL0     H59334   6.737   6.652   7.124  0.8436 -0.3880 -1.7587
  440MOL0     H59335   6.489   6.673   7.145  0.9478 -0.2509 -0.1923
  440MOL0     H59336   6.587   6.647   7.275  1.6597 -0.7671 -2.7034
  440MOL0     H59337   6.407   6.726   7.426  0.6064 -0.2450  1.1151
  440MOL0     H59338   6.358   6.847   7.306 -1.7139 -0.9275  0.8946
  440MOL0     H59339   6.271   6.643   7.164 -0.1681 -0.7085 -0.0780
  440MOL0     H59340   6.325   6.545   7.287 -5.5427 -1.3719 -0.5967
  440MOL0     H59341   6.159   6.639   7.436  1.1521 -0.0267  0.2537
  440MOL0     H59342   6.122   6.774   7.336  0.1577  0.3560  0.7397
  440MOL0     H59343   6.048   6.647   7.144 -1.1383  0.6160  0.8788
  440MOL0     H59344   6.080   6.496   7.214  1.2226  1.4270 -1.2027
  440MOL0     H59345   5.914   6.552   7.412  0.2946  0.4260 -0.4918
  440MOL0     H59346   5.864   6.677   7.307  1.9852  0.7077  2.3699
  440MOL0     H59347   5.890   6.389   7.225 -2.0071 -1.3233  0.6065
  440MOL0     H59348   5.752   6.444   7.328  4.1441  1.2624  3.1821
  440MOL0     H59349   5.817   6.516   7.031  1.5427  1.7949  1.2670
  440MOL0     H59350   5.709   6.618   7.134  1.8918  1.1811 -2.0025
  440MOL0     H59351   5.724   6.226   7.151 -0.9929  1.1983  4.5625
  440MOL0     H59352   5.559   6.047   6.995  1.8436  3.4809 -1.6697
  440MOL0     H59353   5.482   6.085   7.162  0.1518 -1.3230 -0.0490
  440MOL0     H59354   5.266   6.148   7.050 -1.7601 -1.9010  0.2475
  440MOL0     H59355   5.320   5.973   7.026  0.4791  0.0382 -0.3802
  440MOL0     H59356   5.323   6.004   6.805 -2.0298  0.1453 -0.1878
  440MOL0     H59357   5.391   6.173   6.826  0.1748  0.3971  0.0617
  440MOL0     H59358   5.166   6.253   6.859 -0.2765 -0.7565  0.9734
  440MOL0     H59359   5.099   6.088   6.891  2.6196 -0.5347  3.5574
  440MOL0     H59360   5.070   6.120   6.444  1.0243  0.1102  0.9755
  440MOL0     H59361   4.732   6.218   6.291  0.5150  1.5191 -1.0284
  440MOL0     H59362   4.891   6.254   6.224  0.4666  0.2615  0.1188
  440MOL0     H59363   4.860   6.094   6.291  4.8256  0.5691  1.4216
  440MOL0     H59364   4.458   6.298   6.304  1.0584 -1.7104  0.7935
  440MOL0     H59365   4.222   6.276   6.254  0.9153  4.8275 -1.3192
  440MOL0     H59366   3.921   6.123   6.552 -1.2753  0.3312  1.3726
  440MOL0     H59367   3.938   6.285   6.597  0.7499  1.0737 -0.8677
  440MOL0     H59368   3.817   6.335   6.359 -0.1200 -2.3975 -2.7675
  440MOL0     H59369   3.759   6.175   6.384  0.8907  0.1568 -0.1176
  440MOL0     H59370   3.734   6.421   6.572  1.8529 -0.0156  0.4881
  440MOL0     H59371   3.690   6.269   6.642  0.3235  0.2924  0.0710
  440MOL0     H59372   3.572   6.437   6.418  0.2878 -0.9710  0.2721
  440MOL0     H59373   3.535   6.251   6.419 -1.1456  0.1510 -0.8010
  440MOL0     H59374   3.507   6.455   6.643  2.9922 -1.1238 -0.6472
  440MOL0     H59375   3.454   6.287   6.653 -0.0837 -0.8016 -1.3398
  440MOL0     H59376   3.336   6.497   6.482 -0.2113  0.3743  2.8499
  440MOL0     H59377   3.309   6.323   6.456 -0.1629  0.0262  0.0747
  440MOL0     H59378   3.255   6.452   6.729  1.8285 -1.0710 -0.7576
  440MOL0     H59379   3.201   6.295   6.668 -2.4947 -0.2835 -0.0270
  440MOL0     H59380   3.023   6.484   6.689  0.3358  1.2436  0.5371
  440MOL0     H59381   3.033   6.388   6.536 -2.0434 -1.0098  2.5031
  440MOL0     H59382   4.139   6.223   6.659 -0.2263  1.3890  0.4824
  440MOL0     H59383   4.378   6.299   6.723 -0.7913  4.1416  1.2297
  440MOL0     H59384   4.785   6.402   6.735  0.7307 -1.3208  1.3283
  440MOL0     H59385   4.972   6.293   6.819  0.9791  1.8256 -0.8565
  440MOL0     H59386   6.743   7.065   7.255 -0.4249  1.0955 -2.7153
  440MOL0     H59387   6.956   7.093   7.198 -1.2464  0.8193  0.4910
  440MOL0     H59388   7.474   6.989   7.237  0.8814  1.0587 -0.0572
  440MOL0     H59389   7.677   7.033   7.117  0.9634 -0.6296 -0.4964
  440MOL0     H59390   7.794   7.193   6.903  3.0042  0.5513 -0.4489
  440MOL0     H59391   7.839   7.038   6.979  0.2878 -0.5089 -0.8438
  440MOL0     H59392   7.937   6.955   6.775  0.6238  0.6139 -1.3884
  440MOL0     H59393   8.007   7.116   6.809 -0.2446 -0.7584  1.4971
  440MOL0     H59394   7.896   7.207   6.609 -0.0104  0.6148  2.3846
  440MOL0     H59395   7.771   7.092   6.615 -0.5166  0.4405 -0.3103
  440MOL0     H59396   7.889   7.035   6.434 -0.2129 -2.6429  0.1885
  440MOL0     H59397   7.915   6.906   6.543 -2.9600  0.0841 -1.6082
  440MOL0     H59398   8.307   7.091   6.558 -0.1979 -1.2684  1.7311
  440MOL0     H59399   7.469   6.959   6.741 -1.0289 -0.1384 -0.4093
  440MOL0     H59400   7.261   6.910   6.868  0.3823  1.9522 -2.1778
  441MOL0     O59401   6.755   6.776   8.211 -0.5286  0.2465 -0.3278
  441MOL0     C59402   6.798   6.819   8.320  0.0987 -0.0854  0.9934
  441MOL0     O59403   6.725   6.870   8.428  0.3737 -0.1288  0.9609
  441MOL0     C59404   6.586   6.853   8.433 -0.8906 -0.7677 -0.0231
  441MOL0     C59405   6.502   6.777   8.350 -0.0917  0.6370  0.6602
  441MOL0     C59406   6.366   6.790   8.350  1.0022 -0.2085  0.1081
  441MOL0     C59407   6.292   6.872   8.439  1.0941  0.1057  0.1031
  441MOL0     O59408   6.154   6.891   8.451  0.3138 -0.3714  0.3863
  441MOL0     C59409   6.066   6.801   8.387  0.4540 -0.2797 -0.1436
  441MOL0     C59410   6.036   6.857   8.242 -0.0214 -0.4244  0.0568
  441MOL0     C59411   5.924   6.772   8.176 -0.1887 -0.4948 -0.2816
  441MOL0     C59412   5.785   6.818   8.210  0.6969  0.3694  0.7385
  441MOL0     C59413   5.672   6.714   8.174 -1.2521  0.0471 -0.4107
  441MOL0     C59414   5.538   6.777   8.215 -0.1233  0.0653  0.3850
  441MOL0     C59415   5.430   6.666   8.204 -0.2957  0.1273  0.1713
  441MOL0     C59416   5.294   6.715   8.220 -1.1738 -0.4687 -0.3689
  441MOL0     N59417   5.194   6.608   8.233 -0.7755 -0.0564 -0.7988
  441MOL0     C59418   5.219   6.473   8.273  0.3566 -0.2675  0.4195
  441MOL0     C59419   5.092   6.428   8.306 -0.2052 -0.5974  0.2420
  441MOL0     C59420   5.073   6.285   8.347  0.5271  0.3026  0.0702
  441MOL0     C59421   4.937   6.229   8.301  0.6498 -1.2398  0.6758
  441MOL0     C59422   4.941   6.080   8.251  0.5618  0.0820 -0.3939
  441MOL0     C59423   4.834   6.044   8.148 -0.5914  0.2593  0.3691
  441MOL0     O59424   4.713   6.089   8.197  0.9930  0.3115 -0.3763
  441MOL0     C59425   4.606   6.091   8.114  0.5834  0.1694  0.3002
  441MOL0     C59426   4.604   6.048   7.981  0.6636 -0.1866 -0.1038
  441MOL0     C59427   4.491   6.059   7.904  0.4362  0.7051  0.1100
  441MOL0     C59428   4.500   6.025   7.753  0.2270  0.5409  0.9616
  441MOL0     C59429   4.376   6.111   7.962  0.7048 -0.3447 -0.6991
  441MOL0     C59430   4.246   6.107   7.884 -0.8323 -0.5519 -0.0788
  441MOL0     O59431   4.220   5.991   7.818 -0.8929 -0.6560  0.6999
  441MOL0     C59432   4.110   5.970   7.745  0.1150  0.0553 -0.7659
  441MOL0     C59433   4.029   6.065   7.696  0.5099 -0.1791  0.0482
  441MOL0     C59434   3.928   6.035   7.603  0.3568  1.1756 -0.0863
  441MOL0     C59435   3.901   5.898   7.574  0.3332 -0.1212  0.8579
  441MOL0     O59436   3.806   5.844   7.491 -0.1983 -0.4583  0.0143
  441MOL0     C59437   3.754   5.933   7.391 -0.3328 -0.7227 -0.4194
  441MOL0     C59438   3.666   5.848   7.296 -0.2205 -0.6783 -0.2329
  441MOL0     C59439   3.553   5.777   7.370 -0.4257  1.3425 -0.1549
  441MOL0     C59440   3.446   5.868   7.421  0.0588 -0.3204 -0.9201
  441MOL0     C59441   3.327   5.785   7.455  0.2886 -0.5170  0.3171
  441MOL0     C59442   3.201   5.871   7.457  0.5525 -0.1431  0.0816
  441MOL0     C59443   3.079   5.787   7.491 -0.0115 -0.1351  0.2394
  441MOL0     C59444   2.944   5.850   7.464 -0.4388  0.3167 -0.5012
  441MOL0    Cl59445   2.806   5.744   7.496 -0.4833  0.0848 -0.0043
  441MOL0     C59446   3.985   5.801   7.625  0.1761 -0.1344 -1.1559
  441MOL0     C59447   4.087   5.832   7.710 -0.0678  0.1471 -0.7622
  441MOL0     O59448   4.168   6.200   7.908 -0.2066 -0.3905  0.1438
  441MOL0     C59449   4.377   6.165   8.088 -0.3793 -0.3468  0.1238
  441MOL0     C59450   4.495   6.158   8.160 -0.2525 -0.0537 -0.4359
  441MOL0     N59451   4.995   6.525   8.287 -0.4067  0.7270 -0.1382
  441MOL0     N59452   5.056   6.631   8.237 -0.9609  0.3656 -0.3273
  441MOL0     C59453   6.368   6.944   8.528 -0.0588  0.8222 -0.1581
  441MOL0     C59454   6.512   6.942   8.527 -0.5562 -0.0684 -0.2111
  441MOL0     C59455   6.943   6.809   8.337 -0.4109 -0.6133 -0.6973
  441MOL0     C59456   7.000   6.798   8.462  0.6783  0.4920 -0.0383
  441MOL0     C59457   7.138   6.794   8.481 -0.0478 -0.3513  0.5191
  441MOL0     C59458   7.222   6.782   8.369  0.4988  0.0557 -0.0538
  441MOL0     O59459   7.355   6.760   8.377 -0.8481 -0.7819 -0.5772
  441MOL0     C59460   7.412   6.637   8.319  0.4492 -0.2298  0.4129
  441MOL0     C59461   7.555   6.671   8.273 -0.1789 -0.4675 -0.6472
  441MOL0     C59462   7.640   6.547   8.245 -0.4742 -0.9850  0.3006
  441MOL0     C59463   7.786   6.589   8.210 -0.4858  0.5816 -0.7062
  441MOL0     C59464   7.852   6.644   8.327 -0.0923 -0.4786 -1.2937
  441MOL0     C59465   7.893   6.688   8.433  0.0953 -0.0000  0.4452
  441MOL0     C59466   7.162   6.792   8.236 -0.4170 -0.1479 -0.5002
  441MOL0     C59467   7.025   6.803   8.226 -0.1243 -0.0086 -0.4709
  441MOL0     H59468   6.534   6.706   8.274 -0.2248 -0.6914  1.7965
  441MOL0     H59469   6.302   6.739   8.278 -1.9873 -0.9618  3.0408
  441MOL0     H59470   6.106   6.699   8.395 -1.5491 -0.9774  2.9316
  441MOL0     H59471   5.972   6.795   8.444 -0.6582 -0.8676 -1.9445
  441MOL0     H59472   6.002   6.960   8.258  2.5765  0.3634  1.0319
  441MOL0     H59473   6.115   6.861   8.166 -2.1607  1.8853 -2.2744
  441MOL0     H59474   5.931   6.771   8.066  2.7348  0.5426 -0.1866
  441MOL0     H59475   5.936   6.666   8.201 -2.0262 -0.9673 -1.1818
  441MOL0     H59476   5.779   6.838   8.317  0.8882 -3.8328  1.6964
  441MOL0     H59477   5.775   6.916   8.161 -1.2655 -0.4906 -0.7546
  441MOL0     H59478   5.678   6.694   8.067  0.6549 -1.4885 -0.0677
  441MOL0     H59479   5.688   6.621   8.230 -2.8736 -0.5124 -0.8065
  441MOL0     H59480   5.551   6.818   8.315  3.9283 -4.4416  2.1260
  441MOL0     H59481   5.509   6.853   8.143 -1.5328 -1.8893 -1.2234
  441MOL0     H59482   5.441   6.617   8.107  2.6953  1.2468 -0.1667
  441MOL0     H59483   5.452   6.585   8.275 -1.1955 -0.7442 -0.5211
  441MOL0     H59484   5.261   6.783   8.141  0.6164  0.6171 -0.2211
  441MOL0     H59485   5.289   6.777   8.310 -2.1243 -0.3944 -0.4664
  441MOL0     H59486   5.310   6.419   8.296  0.3973 -1.4654 -2.1794
  441MOL0     H59487   5.149   6.227   8.294 -0.6434  0.4631 -1.9007
  441MOL0     H59488   5.093   6.265   8.452  1.1978 -0.4400 -0.1853
  441MOL0     H59489   4.897   6.283   8.215 -2.3701 -3.2240  0.6722
  441MOL0     H59490   4.864   6.216   8.382 -0.0516 -0.6172  0.1500
  441MOL0     H59491   4.927   6.008   8.332 -0.6880 -0.0955 -0.7399
  441MOL0     H59492   5.038   6.055   8.209  0.2630  1.5689 -2.0988
  441MOL0     H59493   4.837   5.937   8.124  1.7741 -0.1076  1.8879
  441MOL0     H59494   4.849   6.098   8.054 -0.7935  0.4726  0.4586
  441MOL0     H59495   4.684   6.007   7.921  1.3048 -0.2652  0.7807
  441MOL0     H59496   4.434   5.942   7.725 -2.9155  3.3047 -0.3989
  441MOL0     H59497   4.469   6.111   7.694 -1.7403 -1.0645 -0.4993
  441MOL0     H59498   4.597   6.007   7.705 -1.9507 -0.0348 -3.8693
  441MOL0     H59499   4.043   6.172   7.713 -3.3657  0.8248 -1.7752
  441MOL0     H59500   3.868   6.111   7.552  0.3985  0.1729 -1.6799
  441MOL0     H59501   3.696   6.012   7.440  1.6821  0.7914 -0.3425
  441MOL0     H59502   3.832   5.970   7.324  0.7274 -4.8618 -1.7711
  441MOL0     H59503   3.625   5.921   7.225  1.9232  1.3496  0.4646
  441MOL0     H59504   3.735   5.782   7.244  1.0983 -0.3425  1.0373
  441MOL0     H59505   3.600   5.729   7.456 -0.0273  1.4174 -0.3250
  441MOL0     H59506   3.522   5.693   7.307 -1.2220  1.0887  0.5617
  441MOL0     H59507   3.474   5.932   7.506 -0.9627  0.0530 -0.8527
  441MOL0     H59508   3.429   5.948   7.348 -0.7659  0.5428  0.1736
  441MOL0     H59509   3.344   5.735   7.551 -2.2408  0.0829  1.1308
  441MOL0     H59510   3.313   5.710   7.377  0.4145 -0.2921  0.0748
  441MOL0     H59511   3.220   5.954   7.527 -0.6010  2.3073 -2.3412
  441MOL0     H59512   3.168   5.911   7.361  0.1767 -0.4979  0.0601
  441MOL0     H59513   3.072   5.752   7.595 -0.0074 -1.2375 -0.1315
  441MOL0     H59514   3.080   5.701   7.425  1.5445  1.3748 -1.8372
  441MOL0     H59515   2.941   5.878   7.359  2.2692 -0.4397 -0.8529
  441MOL0     H59516   2.931   5.938   7.528  1.1922 -0.9721  1.7556
  441MOL0     H59517   3.963   5.697   7.606  0.4426 -0.2855 -0.6555
  441MOL0     H59518   4.149   5.746   7.734  1.2265  0.9795 -0.9870
  441MOL0     H59519   4.288   6.210   8.130 -0.8713  0.0569 -1.3075
  441MOL0     H59520   4.501   6.199   8.261 -1.4601  0.6250 -0.6305
  441MOL0     H59521   6.327   6.999   8.612 -1.2521 -0.1461 -0.0852
  441MOL0     H59522   6.573   7.003   8.592 -1.4979  0.1641  0.4676
  441MOL0     H59523   6.934   6.800   8.548 -0.0841 -0.8174 -0.5565
  441MOL0     H59524   7.182   6.794   8.580  1.2824 -1.5933 -0.0448
  441MOL0     H59525   7.405   6.558   8.394 -0.4493 -0.2394  0.3215
  441MOL0     H59526   7.362   6.603   8.228 -1.4210 -0.5963  1.5210
  441MOL0     H59527   7.603   6.730   8.352 -2.3055  3.3182 -1.9000
  441MOL0     H59528   7.559   6.737   8.185 -1.5388  0.4468 -0.0708
  441MOL0     H59529   7.606   6.495   8.155  0.0471 -1.3214  0.2947
  441MOL0     H59530   7.640   6.471   8.324 -2.2323 -0.9090  0.4209
  441MOL0     H59531   7.790   6.673   8.140 -5.4533  2.0252  0.3131
  441MOL0     H59532   7.831   6.498   8.171 -1.8345 -0.6078  0.4122
  441MOL0     H59533   7.929   6.728   8.525  1.0224 -0.3771  0.2630
  441MOL0     H59534   7.236   6.789   8.156  3.1329  1.3596  2.4250
  441MOL0     H59535   6.989   6.800   8.124  1.3338 -1.0123 -0.9928
  442MOL0     O59536   0.439   4.230   7.398 -0.1512  0.0231  0.4817
  442MOL0     C59537   0.501   4.223   7.288  0.9845  0.0535 -0.5403
  442MOL0     O59538   0.435   4.246   7.167 -0.7832  0.0930 -0.8811
  442MOL0     C59539   0.307   4.287   7.159  0.2087 -0.0928  0.1191
  442MOL0     C59540   0.279   4.403   7.082 -0.3722  0.3659 -0.6950
  442MOL0     C59541   0.147   4.446   7.069  0.2929  0.3336 -0.6112
  442MOL0     C59542   0.040   4.369   7.111  0.4713  0.1857 -0.2330
  442MOL0     O59543  -0.088   4.410   7.094 -0.5572 -0.5918 -0.8459
  442MOL0     C59544  -0.126   4.415   6.960  0.2283  0.1587 -0.1507
  442MOL0     C59545  -0.227   4.529   6.951 -0.0681  0.3253 -0.1965
  442MOL0     C59546  -0.181   4.661   6.990  0.5489 -0.0936 -0.0724
  442MOL0     C59547  -0.276   4.775   6.935  0.3738 -0.1330 -0.7223
  442MOL0     C59548  -0.203   4.906   6.950  0.9921 -0.0482  0.1461
  442MOL0     C59549  -0.316   5.013   6.945  0.3202  0.0551  0.1765
  442MOL0     C59550  -0.244   5.147   6.921 -0.0932  0.2818 -0.2658
  442MOL0     C59551  -0.347   5.254   6.891 -0.2737 -0.6104  1.0291
  442MOL0     N59552  -0.298   5.390   6.919 -0.4706  0.2234  0.0898
  442MOL0     C59553  -0.264   5.490   6.832  0.1797 -0.5846  0.3202
  442MOL0     C59554  -0.212   5.597   6.910 -0.4031  0.3468  0.8432
  442MOL0     C59555  -0.162   5.729   6.869  0.8922  0.5581 -0.1933
  442MOL0     C59556  -0.008   5.717   6.858  0.1312 -0.7927 -0.3303
  442MOL0     C59557   0.028   5.642   6.724  0.3462  0.0885  1.0855
  442MOL0     C59558   0.175   5.644   6.682 -0.9722 -0.3138  0.0104
  442MOL0     O59559   0.241   5.614   6.802  0.0350 -0.2873 -0.2042
  442MOL0     C59560   0.378   5.629   6.812  0.2377 -0.0769 -0.5178
  442MOL0     C59561   0.441   5.588   6.928 -0.3475  0.8667 -0.7139
  442MOL0     C59562   0.576   5.602   6.951 -0.4345 -1.4133  1.7872
  442MOL0     C59563   0.626   5.550   7.077 -0.2828  0.6915 -0.3199
  442MOL0     C59564   0.653   5.676   6.851 -0.3737  0.0971 -0.0219
  442MOL0     C59565   0.797   5.699   6.842 -1.2093  0.5122 -0.3849
  442MOL0     O59566   0.844   5.761   6.729  0.5817  0.3893  0.3627
  442MOL0     C59567   0.977   5.779   6.710 -0.6148  0.2692  0.0676
  442MOL0     C59568   1.059   5.838   6.806  0.4103 -0.0156 -0.2657
  442MOL0     C59569   1.203   5.852   6.785 -0.1794 -0.0373  0.0598
  442MOL0     C59570   1.263   5.803   6.674 -0.1956 -0.7419 -0.4626
  442MOL0     O59571   1.402   5.809   6.670 -0.2342  0.4127  1.1698
  442MOL0     C59572   1.455   5.781   6.539  0.1907 -0.7658 -0.5422
  442MOL0     C59573   1.605   5.790   6.534 -0.0890  0.2037 -0.1058
  442MOL0     C59574   1.668   5.672   6.460  0.0449 -0.2556  0.7823
  442MOL0     C59575   1.818   5.703   6.433 -0.3087  1.0252 -0.4457
  442MOL0     C59576   1.892   5.583   6.382  0.2117  0.6712 -0.3801
  442MOL0     C59577   2.041   5.585   6.382 -1.1242 -0.4343 -0.1939
  442MOL0     C59578   2.104   5.622   6.522 -0.1873  0.1512  0.4065
  442MOL0     C59579   2.258   5.647   6.506  0.1110  0.3917  0.7625
  442MOL0    Cl59580   2.278   5.782   6.389 -0.0887 -0.3132 -0.0330
  442MOL0     C59581   1.175   5.756   6.573 -0.1442  1.2778  0.3071
  442MOL0     C59582   1.033   5.748   6.590 -0.4647 -0.0954 -0.3022
  442MOL0     O59583   0.868   5.656   6.932 -0.8906  0.1060 -0.0125
  442MOL0     C59584   0.582   5.729   6.743  0.8560  0.0147 -0.2231
  442MOL0     C59585   0.448   5.702   6.719  0.4832  0.0739 -0.5805
  442MOL0     N59586  -0.224   5.554   7.044 -0.6525 -0.8283 -0.6043
  442MOL0     N59587  -0.274   5.432   7.047 -0.1794  0.3689  0.0459
  442MOL0     C59588   0.072   4.251   7.185 -0.8870 -1.1822 -0.6642
  442MOL0     C59589   0.206   4.211   7.204  0.7913 -0.2986 -0.6606
  442MOL0     C59590   0.649   4.196   7.279  0.0488 -0.3578 -0.1097
  442MOL0     C59591   0.705   4.144   7.161  0.1479  0.6713  0.8299
  442MOL0     C59592   0.838   4.094   7.152 -1.3377 -0.2436  0.7582
  442MOL0     C59593   0.909   4.081   7.270 -0.8931  0.2725 -0.1043
  442MOL0     O59594   1.043   4.035   7.254  0.0089 -0.0879  0.0231
  442MOL0     C59595   1.108   3.982   7.373 -0.3882 -0.1393 -0.2480
  442MOL0     C59596   1.227   3.897   7.313 -0.1675  0.9813  0.2715
  442MOL0     C59597   1.324   3.984   7.227 -0.0007  0.4078 -0.4547
  442MOL0     C59598   1.455   3.917   7.214 -0.6983 -0.2024  0.5596
  442MOL0     C59599   1.550   4.016   7.156  0.1769  0.2614 -0.0414
  442MOL0     C59600   1.612   4.105   7.102  0.7716 -0.1564 -0.9663
  442MOL0     C59601   0.864   4.148   7.384 -0.0374 -0.1113 -0.3547
  442MOL0     C59602   0.730   4.203   7.395  0.8575  0.1810  0.5593
  442MOL0     H59603   0.355   4.464   7.035 -1.2109 -0.0241 -2.6516
  442MOL0     H59604   0.138   4.536   7.009  0.3451  1.0110  0.3728
  442MOL0     H59605  -0.041   4.434   6.894  1.1909  1.8554  1.4734
  442MOL0     H59606  -0.175   4.321   6.932 -0.4285 -0.0495  1.5748
  442MOL0     H59607  -0.261   4.526   6.847  0.4671  0.9750 -0.4015
  442MOL0     H59608  -0.317   4.502   7.006 -1.6155  1.8321 -1.8483
  442MOL0     H59609  -0.168   4.654   7.098  2.4118 -3.6968 -0.3667
  442MOL0     H59610  -0.080   4.678   6.952  0.0259  0.2936 -1.3349
  442MOL0     H59611  -0.309   4.755   6.833 -0.5673  1.5050 -0.7668
  442MOL0     H59612  -0.367   4.781   6.995 -1.3440  0.0990 -3.1995
  442MOL0     H59613  -0.156   4.903   7.049  3.9001  1.0777 -1.0891
  442MOL0     H59614  -0.118   4.917   6.882  0.4897  0.1279 -0.4722
  442MOL0     H59615  -0.385   5.000   6.862  1.1712  0.9023 -0.6922
  442MOL0     H59616  -0.372   5.010   7.039  0.2442  0.2720  0.1387
  442MOL0     H59617  -0.192   5.169   7.015 -1.5496  3.5059 -0.0855
  442MOL0     H59618  -0.168   5.151   6.842 -1.0799 -0.0605 -1.2538
  442MOL0     H59619  -0.444   5.229   6.934  0.0815 -1.4968  1.3369
  442MOL0     H59620  -0.361   5.253   6.782  2.7525 -1.3025  0.5332
  442MOL0     H59621  -0.270   5.488   6.724  3.6017 -0.4481 -0.0004
  442MOL0     H59622  -0.209   5.774   6.782 -1.1003  0.6311  0.8698
  442MOL0     H59623  -0.179   5.800   6.950  0.3285  1.6380 -1.2330
  442MOL0     H59624   0.028   5.675   6.952  0.1423  1.2201  0.6131
  442MOL0     H59625   0.038   5.815   6.866  0.0986 -0.8334  0.3761
  442MOL0     H59626  -0.031   5.691   6.647 -1.8872 -1.3054  1.8123
  442MOL0     H59627  -0.007   5.539   6.733 -2.9522  1.1169  1.2156
  442MOL0     H59628   0.205   5.742   6.643 -1.9346 -1.1813 -3.2009
  442MOL0     H59629   0.202   5.572   6.604 -2.1682 -0.4635 -0.2876
  442MOL0     H59630   0.376   5.533   6.995 -2.0251  3.4612 -0.0876
  442MOL0     H59631   0.606   5.443   7.091  1.3195  0.3137 -0.7909
  442MOL0     H59632   0.735   5.551   7.083 -0.2394 -1.2251 -0.1619
  442MOL0     H59633   0.574   5.600   7.160 -2.6440  0.6120 -1.6457
  442MOL0     H59634   1.015   5.869   6.900 -0.3015 -2.5657  0.3301
  442MOL0     H59635   1.262   5.904   6.860  0.2198 -0.6862  0.1986
  442MOL0     H59636   1.419   5.682   6.509 -1.7506 -0.5618  0.9153
  442MOL0     H59637   1.418   5.859   6.471 -0.7545 -1.0392 -0.3603
  442MOL0     H59638   1.642   5.880   6.484 -1.4022  0.8968  0.1354
  442MOL0     H59639   1.643   5.787   6.637  3.3372 -0.6099 -1.2652
  442MOL0     H59640   1.613   5.665   6.366  2.2555 -2.9597 -0.4768
  442MOL0     H59641   1.661   5.578   6.516 -0.2850 -0.0936  1.0188
  442MOL0     H59642   1.832   5.784   6.360 -1.2731  3.0716  1.5334
  442MOL0     H59643   1.850   5.743   6.530 -3.0830  2.2451  0.0510
  442MOL0     H59644   1.863   5.569   6.277  2.7732 -2.7942 -0.8200
  442MOL0     H59645   1.868   5.495   6.443  2.7790 -0.4634 -0.8444
  442MOL0     H59646   2.069   5.485   6.347 -0.1337 -0.4178  0.4924
  442MOL0     H59647   2.077   5.657   6.308 -2.5412 -0.9665 -1.4428
  442MOL0     H59648   2.092   5.544   6.597  1.9614 -1.2960 -0.6276
  442MOL0     H59649   2.060   5.719   6.548  0.3602  0.0580  1.7518
  442MOL0     H59650   2.304   5.558   6.462 -0.3733  0.1631  0.7019
  442MOL0     H59651   2.299   5.672   6.604  0.4896  0.6302  0.5446
  442MOL0     H59652   1.218   5.731   6.477 -0.1799 -0.2335  0.6588
  442MOL0     H59653   0.979   5.705   6.507 -3.2828  0.8462  0.9207
  442MOL0     H59654   0.635   5.786   6.667  1.7625 -0.6986 -0.1360
  442MOL0     H59655   0.408   5.727   6.622 -0.6708  0.8779  0.0848
  442MOL0     H59656  -0.007   4.192   7.229  0.7311 -2.3657  0.8241
  442MOL0     H59657   0.223   4.119   7.260  1.3073  0.4944  0.5271
  442MOL0     H59658   0.641   4.127   7.075 -0.2740  1.4859  0.9676
  442MOL0     H59659   0.884   4.044   7.068 -2.0073 -1.2317  0.9641
  442MOL0     H59660   1.149   4.060   7.437 -0.2185 -0.0199 -0.4986
  442MOL0     H59661   1.035   3.922   7.428 -1.3527  1.8184  0.6971
  442MOL0     H59662   1.178   3.818   7.255 -0.9209  0.9309  0.9685
  442MOL0     H59663   1.269   3.856   7.405 -0.1109  0.9020  0.2104
  442MOL0     H59664   1.328   4.079   7.280  0.1657 -0.7602  1.7365
  442MOL0     H59665   1.278   3.995   7.129 -0.6824 -0.6677 -0.2674
  442MOL0     H59666   1.440   3.822   7.162  2.8877  0.0379 -1.2301
  442MOL0     H59667   1.498   3.894   7.312 -1.2990 -4.4306  0.0019
  442MOL0     H59668   1.666   4.192   7.070  0.6833  0.0082 -0.6738
  442MOL0     H59669   0.932   4.150   7.469 -0.5948  1.3379  0.1038
  442MOL0     H59670   0.692   4.240   7.489 -2.4475  2.5774 -1.4987
  443MOL0     O59671   2.631  10.750   1.721  0.0743 -0.6026 -0.0705
  443MOL0     C59672   2.695  10.840   1.762  0.4018 -0.7801 -0.6388
  443MOL0     O59673   2.642  10.959   1.803 -0.5117 -0.1978 -0.2314
  443MOL0     C59674   2.511  10.983   1.817  0.2959 -0.4244  1.5393
  443MOL0     C59675   2.460  11.027   1.937 -0.0731 -0.6496 -0.1995
  443MOL0     C59676   2.323  11.053   1.954  0.1111  0.9506 -0.2292
  443MOL0     C59677   2.233  11.006   1.849  0.2764 -0.4036 -0.8056
  443MOL0     O59678   2.094  11.003   1.853  0.2295  0.7606  0.3488
  443MOL0     C59679   2.025  11.082   1.952 -0.1740  0.4120 -0.3449
  443MOL0     C59680   1.876  11.089   1.910  0.3638 -0.0145 -0.1401
  443MOL0     C59681   1.859  11.143   1.768  0.7350 -0.4265 -0.0186
  443MOL0     C59682   1.711  11.149   1.725 -0.2086  0.4314  0.4194
  443MOL0     C59683   1.711  11.178   1.577 -0.5140  0.6009 -0.7675
  443MOL0     C59684   1.578  11.142   1.500  0.2853  1.2716 -0.1946
  443MOL0     C59685   1.580  11.165   1.355 -0.1939  0.2676 -0.8120
  443MOL0     C59686   1.486  11.073   1.265  0.2650 -0.4092 -0.9932
  443MOL0     N59687   1.357  11.049   1.327 -0.0993  0.4938  0.4751
  443MOL0     C59688   1.264  11.147   1.358 -0.0585  0.3168  0.3388
  443MOL0     C59689   1.158  11.082   1.412  0.1750 -0.4972  0.5480
  443MOL0     C59690   1.026  11.143   1.459  0.3125 -0.2664  0.2100
  443MOL0     C59691   0.907  11.061   1.405 -0.2376  0.6867 -0.5321
  443MOL0     C59692   0.765  11.104   1.465  0.0204  0.0346  0.3481
  443MOL0     C59693   0.656  11.016   1.406  0.1327 -0.4189 -0.5810
  443MOL0     O59694   0.572  10.992   1.518 -0.8789 -0.2928 -0.2840
  443MOL0     C59695   0.459  10.923   1.515 -0.1224 -0.3263  0.0174
  443MOL0     C59696   0.376  10.902   1.401  0.0852  0.8849 -0.5196
  443MOL0     C59697   0.248  10.843   1.411 -0.7325  0.7163  0.4467
  443MOL0     C59698   0.174  10.809   1.279 -0.5313 -0.1003 -0.5399
  443MOL0     C59699   0.199  10.813   1.538 -0.4562  0.2423  0.0102
  443MOL0     C59700   0.063  10.762   1.561  0.3560 -0.5857  0.1211
  443MOL0     O59701   0.033  10.719   1.690 -0.3451  0.3536 -0.3931
  443MOL0     C59702  -0.095  10.690   1.720 -0.3709 -0.1931  0.4548
  443MOL0     C59703  -0.165  10.780   1.798 -0.1715  0.3154 -0.4570
  443MOL0     C59704  -0.295  10.757   1.833 -0.6740 -0.4042  0.2305
  443MOL0     C59705  -0.361  10.639   1.802  0.2426  0.4344 -0.1623
  443MOL0     O59706  -0.487  10.599   1.852 -0.1283  0.4737  0.8901
  443MOL0     C59707  -0.576  10.704   1.879  0.1591  0.0283  0.6423
  443MOL0     C59708  -0.709  10.633   1.902 -0.1691  0.0123 -1.1945
  443MOL0     C59709  -0.822  10.726   1.946 -0.2100 -0.1655 -0.3173
  443MOL0     C59710  -0.938  10.666   2.017  0.1231  0.1401  0.6265
  443MOL0     C59711  -1.054  10.771   2.034 -0.4632 -0.1383  0.0832
  443MOL0     C59712  -1.168  10.699   2.106 -0.6266 -0.7210 -0.4511
  443MOL0     C59713  -1.301  10.782   2.084 -0.1342 -0.1294 -0.0698
  443MOL0     C59714  -1.413  10.695   2.129  0.4958 -0.5740  0.4321
  443MOL0    Cl59715  -1.566  10.791   2.121  0.2223  0.3756 -0.2099
  443MOL0     C59716  -0.289  10.552   1.721  0.0254 -0.3063  0.2220
  443MOL0     C59717  -0.155  10.570   1.685 -0.0915  0.0056  0.3815
  443MOL0     O59718  -0.026  10.776   1.476  0.0600  0.7074 -0.2033
  443MOL0     C59719   0.277  10.841   1.650 -0.3678  0.1453 -0.3098
  443MOL0     C59720   0.409  10.893   1.639 -0.1268  0.7181  0.1190
  443MOL0     N59721   1.186  10.945   1.409 -0.5190 -0.0828 -0.1357
  443MOL0     N59722   1.304  10.929   1.364 -0.9652  0.0095 -0.5125
  443MOL0     C59723   2.283  10.957   1.732 -0.5303 -0.0002  0.2735
  443MOL0     C59724   2.419  10.929   1.717  1.1307  0.1689  0.5279
  443MOL0     C59725   2.842  10.824   1.768  0.5079  0.1327  0.4374
  443MOL0     C59726   2.929  10.934   1.803  0.1431  0.0544 -0.3404
  443MOL0     C59727   3.068  10.916   1.806 -0.5010  0.3897 -0.1967
  443MOL0     C59728   3.118  10.788   1.782 -0.0678  0.1845  0.1246
  443MOL0     O59729   3.255  10.757   1.790  0.4508  1.1651 -0.2266
  443MOL0     C59730   3.362  10.853   1.790  0.2241  0.2581  0.5726
  443MOL0     C59731   3.499  10.783   1.825  0.2867 -0.0964  0.0413
  443MOL0     C59732   3.618  10.877   1.835  0.6803  0.2675  0.8854
  443MOL0     C59733   3.753  10.808   1.829  0.3725 -0.4804 -0.3886
  443MOL0     C59734   3.792  10.806   1.689 -0.4549 -0.1886 -0.1992
  443MOL0     C59735   3.816  10.790   1.571 -0.4873 -0.2216  0.0035
  443MOL0     C59736   3.035  10.685   1.730 -0.5538 -0.3160 -0.1818
  443MOL0     C59737   2.902  10.702   1.726  0.4160 -0.2706  0.2839
  443MOL0     H59738   2.522  11.049   2.023  0.8353  4.0191 -1.7420
  443MOL0     H59739   2.279  11.097   2.043  1.2222  2.3137 -0.3223
  443MOL0     H59740   2.040  11.034   2.049 -0.0965  2.2248  0.5848
  443MOL0     H59741   2.054  11.188   1.955 -2.8883  1.4068 -3.5424
  443MOL0     H59742   1.821  10.995   1.917  1.7962 -0.8876 -0.2336
  443MOL0     H59743   1.829  11.166   1.972 -0.3492 -0.6131  0.0794
  443MOL0     H59744   1.893  11.247   1.763  0.8325 -0.4699 -0.2763
  443MOL0     H59745   1.925  11.089   1.700  3.5109  3.6963 -0.9223
  443MOL0     H59746   1.677  11.046   1.735  2.5180 -0.9705 -2.7885
  443MOL0     H59747   1.648  11.216   1.785 -0.4485 -0.8735  1.6840
  443MOL0     H59748   1.732  11.286   1.576 -1.2845  0.7624 -0.4702
  443MOL0     H59749   1.787  11.124   1.521 -0.9433  1.3854 -2.1777
  443MOL0     H59750   1.559  11.035   1.516 -0.9775  1.2687 -1.5370
  443MOL0     H59751   1.495  11.203   1.537  0.7501  2.8413 -1.6269
  443MOL0     H59752   1.566  11.270   1.330  3.5115  1.5110  1.4905
  443MOL0     H59753   1.681  11.144   1.318 -0.1240  1.9337 -1.6294
  443MOL0     H59754   1.543  10.983   1.240  0.4860 -0.3252 -0.7997
  443MOL0     H59755   1.471  11.122   1.168 -3.6747  1.0836  0.2031
  443MOL0     H59756   1.271  11.255   1.345  0.7012  0.2336  0.0027
  443MOL0     H59757   1.031  11.143   1.568  2.1238  1.7607  0.1782
  443MOL0     H59758   1.029  11.247   1.425  0.8265  0.7432  3.0922
  443MOL0     H59759   0.935  10.961   1.441  0.6984  1.6127  1.5346
  443MOL0     H59760   0.906  11.069   1.296 -1.7382  1.6069 -0.4853
  443MOL0     H59761   0.739  11.208   1.444 -1.3348 -0.1132  1.1611
  443MOL0     H59762   0.778  11.101   1.573  3.0849 -1.2267  0.0307
  443MOL0     H59763   0.706  10.924   1.375 -2.3123 -2.1251  0.2916
  443MOL0     H59764   0.607  11.062   1.319 -2.0725 -2.9664 -0.7973
  443MOL0     H59765   0.397  10.937   1.301  0.3369 -1.2897 -1.2837
  443MOL0     H59766   0.170  10.699   1.278 -0.0671 -0.2343  2.7888
  443MOL0     H59767   0.078  10.857   1.260 -1.3774 -1.8574 -0.9530
  443MOL0     H59768   0.240  10.831   1.195  1.0502 -1.0789  0.3879
  443MOL0     H59769  -0.116  10.873   1.826 -0.4992  0.3588 -0.0140
  443MOL0     H59770  -0.352  10.827   1.893 -0.4249  2.7184 -2.8351
  443MOL0     H59771  -0.558  10.758   1.973  0.4405  2.4669 -0.7340
  443MOL0     H59772  -0.595  10.768   1.792 -2.8387 -0.5135  0.7691
  443MOL0     H59773  -0.740  10.586   1.808 -0.4643  1.0992 -1.6507
  443MOL0     H59774  -0.694  10.557   1.980  2.9270 -1.7830 -3.3095
  443MOL0     H59775  -0.858  10.785   1.861  0.8791  0.4810 -0.3526
  443MOL0     H59776  -0.782  10.804   2.011 -0.1949 -1.4167  1.2146
  443MOL0     H59777  -0.963  10.592   1.940  0.6506  0.0544  0.5319
  443MOL0     H59778  -0.904  10.612   2.106 -0.3003 -0.4772  0.4210
  443MOL0     H59779  -1.090  10.814   1.939  1.3697  2.0967  0.3190
  443MOL0     H59780  -1.019  10.848   2.102 -0.9682 -2.4060  3.1269
  443MOL0     H59781  -1.178  10.594   2.079  0.9425 -0.8419 -0.6779
  443MOL0     H59782  -1.151  10.699   2.214 -0.3563 -3.1690 -0.4559
  443MOL0     H59783  -1.320  10.802   1.978 -0.3389 -1.3779 -0.2918
  443MOL0     H59784  -1.315  10.874   2.141 -2.9242 -1.1000  0.9385
  443MOL0     H59785  -1.406  10.680   2.237 -1.8128  1.0746  0.8793
  443MOL0     H59786  -1.423  10.597   2.081 -1.1680  0.0596 -0.5870
  443MOL0     H59787  -0.343  10.462   1.693  0.7962 -0.9016  0.5961
  443MOL0     H59788  -0.116  10.498   1.613 -0.8341 -0.9692  0.9306
  443MOL0     H59789   0.234  10.839   1.750 -1.9048  1.7708 -0.8923
  443MOL0     H59790   0.468  10.917   1.727  1.3919 -1.8358 -0.0809
  443MOL0     H59791   2.218  10.941   1.646  0.9017 -4.3020 -0.2175
  443MOL0     H59792   2.448  10.873   1.629  0.5742 -0.2965  0.6357
  443MOL0     H59793   2.884  11.026   1.837 -0.0354 -0.0514 -0.2885
  443MOL0     H59794   3.131  10.995   1.847 -2.1390  0.9815  1.3180
  443MOL0     H59795   3.355  10.890   1.687  1.8989 -1.4987 -0.2422
  443MOL0     H59796   3.341  10.932   1.862 -0.3099  0.7254 -0.0793
  443MOL0     H59797   3.529  10.698   1.763 -1.7985 -0.9578  0.1444
  443MOL0     H59798   3.487  10.740   1.925 -0.9499  1.8683  0.8025
  443MOL0     H59799   3.605  10.945   1.920  0.4051  2.3089 -0.6896
  443MOL0     H59800   3.616  10.938   1.744  0.5691  0.2405  0.8713
  443MOL0     H59801   3.743  10.706   1.867 -0.1988  0.1457  1.2361
  443MOL0     H59802   3.841  10.851   1.878  0.6497 -1.3050 -0.1349
  443MOL0     H59803   3.842  10.792   1.467  2.8413  1.3676  0.7393
  443MOL0     H59804   3.087  10.594   1.704  2.7519  0.9038  1.6559
  443MOL0     H59805   2.843  10.616   1.694 -1.0069 -0.9243  4.1476
  444MOL0     O59806   3.809   5.647   9.589  0.1089 -0.5439 -0.2642
  444MOL0     C59807   3.840   5.672   9.705  0.5985 -0.8752  0.1657
  444MOL0     O59808   3.756   5.709   9.804 -1.0126 -0.0899 -0.3650
  444MOL0     C59809   3.617   5.711   9.798 -0.6835  1.0421 -0.3994
  444MOL0     C59810   3.551   5.807   9.878 -0.4838 -0.4328 -0.3732
  444MOL0     C59811   3.412   5.813   9.882  0.3768  0.0812 -0.1031
  444MOL0     C59812   3.336   5.713   9.820  0.2934  0.6551 -0.6240
  444MOL0     O59813   3.196   5.722   9.833  0.4968  0.3794  0.3302
  444MOL0     C59814   3.106   5.603   9.811 -0.4311  0.1224 -0.0830
  444MOL0     C59815   2.997   5.583   9.917  0.4231 -0.4381 -0.1677
  444MOL0     C59816   2.888   5.678   9.904  0.5982 -0.3293 -0.1757
  444MOL0     C59817   2.791   5.655  10.022  0.9161 -0.1408 -0.3558
  444MOL0     C59818   2.672   5.751  10.016  0.4522 -0.3964 -0.4506
  444MOL0     C59819   2.575   5.737   9.899  0.1615  0.1493  0.5720
  444MOL0     C59820   2.433   5.764   9.943  1.0088  1.1461 -0.3154
  444MOL0     C59821   2.321   5.777   9.831  0.2614  0.2543 -0.8820
  444MOL0     N59822   2.187   5.807   9.882 -0.3377  0.0763 -0.0065
  444MOL0     C59823   2.153   5.899   9.982 -0.7880 -0.7610  0.6513
  444MOL0     C59824   2.024   5.879  10.006  0.2175 -0.6836 -0.0757
  444MOL0     C59825   1.941   5.942  10.110 -0.6845 -0.0831 -1.6980
  444MOL0     C59826   1.920   6.086  10.085 -0.2848  0.4634  0.0891
  444MOL0     C59827   1.810   6.122   9.983 -0.0033  0.5617 -0.4472
  444MOL0     C59828   1.667   6.081  10.021  0.0977 -0.2110 -0.1153
  444MOL0     O59829   1.578   6.152   9.940  0.3237 -0.6405 -0.3555
  444MOL0     C59830   1.440   6.127   9.959 -0.2118  1.0146 -0.2591
  444MOL0     C59831   1.351   6.151   9.855 -0.1140  0.1809  0.9729
  444MOL0     C59832   1.214   6.129   9.872 -0.1496 -0.5808  0.8037
  444MOL0     C59833   1.139   6.138   9.736  0.1003 -0.6141 -0.2604
  444MOL0     C59834   1.164   6.092   9.996 -0.7063  0.4043  0.0597
  444MOL0     C59835   1.016   6.075  10.017  1.3548  0.1379 -0.3296
  444MOL0     O59836   0.968   6.005  10.122  0.0553 -0.1499 -0.6238
  444MOL0     C59837   0.837   5.970  10.129 -0.0374  0.3980  0.2146
  444MOL0     C59838   0.788   5.927  10.254  0.4126  0.0261  0.4916
  444MOL0     C59839   0.652   5.900  10.283  0.2741  0.4346 -0.0073
  444MOL0     C59840   0.559   5.894  10.180 -0.8908  0.4227 -0.3951
  444MOL0     O59841   0.428   5.860  10.199 -0.2116  0.0452 -0.4505
  444MOL0     C59842   0.388   5.785  10.311  0.3587  0.2796  0.1996
  444MOL0     C59843   0.255   5.722  10.263  0.1363  0.9947 -0.6254
  444MOL0     C59844   0.220   5.589  10.333 -0.3191 -0.1063  0.7036
  444MOL0     C59845   0.097   5.519  10.266  0.1917 -0.6626  1.0519
  444MOL0     C59846   0.059   5.397  10.341  0.5052 -0.2676 -0.1269
  444MOL0     C59847  -0.066   5.340  10.295  0.5050  0.1013 -0.2062
  444MOL0     C59848  -0.063   5.312  10.147  0.0473 -0.0828  0.2007
  444MOL0     C59849  -0.186   5.229  10.103  0.1208 -0.1296  0.0669
  444MOL0    Cl59850  -0.342   5.318  10.095  0.2276  0.0471 -0.1178
  444MOL0     C59851   0.610   5.931  10.049  0.2481  0.5287 -0.6815
  444MOL0     C59852   0.739   5.968  10.023 -0.0829 -0.1869 -0.0950
  444MOL0     O59853   0.950   6.155   9.949 -0.1413  0.4889 -0.5612
  444MOL0     C59854   1.250   6.061  10.101 -1.1257  0.1551 -0.0480
  444MOL0     C59855   1.386   6.084  10.079 -1.1405 -0.8091  0.6005
  444MOL0     N59856   1.976   5.784   9.921 -0.4040  0.1603 -0.2236
  444MOL0     N59857   2.071   5.748   9.844 -0.2730  0.3388  0.8444
  444MOL0     C59858   3.404   5.624   9.737  0.8324  0.0762 -0.2232
  444MOL0     C59859   3.540   5.624   9.722  0.6363  0.2298  0.1243
  444MOL0     C59860   3.976   5.653   9.741  0.5108  1.3341 -0.2415
  444MOL0     C59861   4.066   5.605   9.645 -0.2392  0.0289  0.5719
  444MOL0     C59862   4.197   5.575   9.677  0.4688 -0.3707 -0.4112
  444MOL0     C59863   4.248   5.585   9.805  0.2301 -0.0528 -0.1854
  444MOL0     O59864   4.386   5.556   9.823  0.0684 -0.2450 -0.2367
  444MOL0     C59865   4.438   5.560   9.959  0.2306  0.2367 -0.3727
  444MOL0     C59866   4.589   5.522   9.973  0.8755 -0.4921 -0.8406
  444MOL0     C59867   4.668   5.617   9.886  0.6561  0.0266 -0.4536
  444MOL0     C59868   4.823   5.597   9.903  0.4222  0.1564 -0.0943
  444MOL0     C59869   4.898   5.702   9.823  0.9771 -0.1057 -0.5733
  444MOL0     C59870   4.963   5.781   9.759  0.2093 -0.1427  0.2240
  444MOL0     C59871   4.153   5.627   9.906 -0.3283 -0.8124 -0.1858
  444MOL0     C59872   4.023   5.666   9.875 -0.3847 -0.7131 -0.2268
  444MOL0     H59873   3.613   5.872   9.939 -1.1036  0.3910 -0.5931
  444MOL0     H59874   3.367   5.879   9.956  0.7579 -1.9958  2.1274
  444MOL0     H59875   3.056   5.602   9.714 -1.3236  0.5717  0.3608
  444MOL0     H59876   3.168   5.513   9.813  0.2931  0.3209 -4.2105
  444MOL0     H59877   2.971   5.477   9.921  0.7129 -0.4787  1.9383
  444MOL0     H59878   3.045   5.606  10.012  1.2036 -0.3028 -0.5871
  444MOL0     H59879   2.921   5.781   9.922  0.9256 -0.6258  1.0960
  444MOL0     H59880   2.835   5.671   9.809  0.1822  0.6890 -0.0372
  444MOL0     H59881   2.749   5.554  10.017 -0.6190  0.4398  0.1515
  444MOL0     H59882   2.848   5.680  10.112  1.3569 -1.0314 -0.3760
  444MOL0     H59883   2.622   5.751  10.113 -1.2523  0.7186 -1.2968
  444MOL0     H59884   2.718   5.850  10.005 -0.2666  0.2697  1.8908
  444MOL0     H59885   2.604   5.804   9.817 -1.1243  0.9562  0.7540
  444MOL0     H59886   2.580   5.632   9.868  2.2532  0.4577 -0.3287
  444MOL0     H59887   2.402   5.688  10.015  4.7487 -0.8944 -0.6399
  444MOL0     H59888   2.430   5.863   9.990  1.0785  1.0386 -0.0847
  444MOL0     H59889   2.314   5.688   9.766  1.0194  0.3614 -1.1203
  444MOL0     H59890   2.356   5.856   9.764  0.0029 -0.3310 -1.7321
  444MOL0     H59891   2.219   5.960  10.043  0.9843 -2.0306  0.0951
  444MOL0     H59892   1.844   5.893  10.122 -0.2390 -1.7919 -4.3502
  444MOL0     H59893   1.991   5.931  10.207 -0.3803  0.6780 -1.7621
  444MOL0     H59894   2.018   6.129  10.058 -1.7548  2.4958 -2.6305
  444MOL0     H59895   1.889   6.132  10.179  0.3892  1.7032 -0.2622
  444MOL0     H59896   1.829   6.070   9.889  1.1364 -1.6585  0.9315
  444MOL0     H59897   1.814   6.229   9.961 -0.6050  1.0362  1.5349
  444MOL0     H59898   1.666   6.116  10.125  1.1513  0.0795 -0.1855
  444MOL0     H59899   1.653   5.973  10.018  1.3487 -0.4899  1.8958
  444MOL0     H59900   1.391   6.186   9.761 -1.5399 -1.5537 -0.3526
  444MOL0     H59901   1.191   6.097   9.649  0.5233 -1.9661  0.6000
  444MOL0     H59902   1.049   6.076   9.737  0.3836 -1.1592 -2.5968
  444MOL0     H59903   1.132   6.247   9.725  2.5018 -0.4672 -0.9009
  444MOL0     H59904   0.855   5.920  10.339  0.6069 -1.2349  0.2591
  444MOL0     H59905   0.633   5.875  10.387 -0.4489  0.8231 -0.0361
  444MOL0     H59906   0.463   5.708  10.327  0.8267  0.3069 -1.5656
  444MOL0     H59907   0.370   5.836  10.406 -0.2627  0.0479  0.2124
  444MOL0     H59908   0.172   5.791  10.276 -0.3576  0.2292  0.5254
  444MOL0     H59909   0.247   5.692  10.158  0.1834 -3.6545  0.4702
  444MOL0     H59910   0.185   5.621  10.431 -0.2276  2.9895 -0.1516
  444MOL0     H59911   0.306   5.522  10.340  0.6728  0.5714 -2.9296
  444MOL0     H59912   0.015   5.585  10.239 -0.2792 -1.6154  0.0657
  444MOL0     H59913   0.123   5.476  10.169  0.7117 -0.1588  0.9639
  444MOL0     H59914   0.053   5.426  10.447 -0.3371 -0.2056 -0.1833
  444MOL0     H59915   0.139   5.324  10.334  0.3351 -0.6192  1.2661
  444MOL0     H59916  -0.089   5.252  10.356 -1.8952 -0.2088 -1.4270
  444MOL0     H59917  -0.155   5.403  10.303  0.4971  0.2019 -0.9576
  444MOL0     H59918   0.032   5.270  10.114  0.1120  2.6970 -3.9130
  444MOL0     H59919  -0.066   5.410  10.099  0.4854  1.2487  2.6996
  444MOL0     H59920  -0.190   5.131  10.151  1.7215 -0.1331  0.2480
  444MOL0     H59921  -0.167   5.211   9.996 -0.7239 -0.2308 -0.0757
  444MOL0     H59922   0.532   5.940   9.975  1.7647 -5.0186 -3.4981
  444MOL0     H59923   0.766   5.984   9.919 -0.7565 -1.2911 -0.4618
  444MOL0     H59924   1.209   6.031  10.197 -0.4588  2.0170  0.8889
  444MOL0     H59925   1.451   6.060  10.163 -2.5020  0.0628  1.9680
  444MOL0     H59926   3.351   5.547   9.683 -0.4218 -1.6855  3.2144
  444MOL0     H59927   3.587   5.555   9.651 -1.3629  0.7292 -1.7850
  444MOL0     H59928   4.041   5.589   9.541 -1.7019 -0.2088  0.9256
  444MOL0     H59929   4.256   5.529   9.599  0.0273 -1.0473 -0.3508
  444MOL0     H59930   4.428   5.661  10.000 -0.8804 -0.4154  1.0712
  444MOL0     H59931   4.384   5.495  10.028 -0.0163  3.1518  2.4080
  444MOL0     H59932   4.591   5.420   9.933 -0.8570 -0.4636 -1.0721
  444MOL0     H59933   4.617   5.537  10.078 -1.0925  2.4124 -0.6239
  444MOL0     H59934   4.648   5.719   9.922  1.4243 -0.6765  2.1524
  444MOL0     H59935   4.647   5.615   9.778  3.2903  1.3306 -1.0780
  444MOL0     H59936   4.845   5.503   9.852  2.7529  2.0499 -2.8853
  444MOL0     H59937   4.846   5.606  10.010  2.9390 -1.1945 -0.4450
  444MOL0     H59938   5.019   5.853   9.703  1.0123 -0.7527  0.2150
  444MOL0     H59939   4.191   5.638  10.008  2.0919  0.4094 -1.1414
  444MOL0     H59940   3.969   5.706   9.960  1.1667  1.7974 -0.3266
  445MOL0     O59941   7.495   3.264   8.117 -0.4673 -0.1486  0.0490
  445MOL0     C59942   7.521   3.242   8.238  0.5218 -0.8029  0.2772
  445MOL0     O59943   7.426   3.217   8.335 -0.1375  0.3955  0.4009
  445MOL0     C59944   7.296   3.268   8.310 -0.5701  0.5182 -0.3023
  445MOL0     C59945   7.182   3.187   8.324 -1.2892 -1.4017  0.8804
  445MOL0     C59946   7.049   3.234   8.304 -0.0292 -0.2123  0.3645
  445MOL0     C59947   7.028   3.365   8.275 -0.3354 -0.5236  0.1389
  445MOL0     O59948   6.897   3.391   8.274  0.7554  0.2405  0.4450
  445MOL0     C59949   6.851   3.519   8.236  0.0947  0.3074 -0.4642
  445MOL0     C59950   6.874   3.615   8.358  0.7370  0.3466  0.1933
  445MOL0     C59951   6.795   3.566   8.481 -1.0356  0.2054 -0.2596
  445MOL0     C59952   6.794   3.667   8.592  0.0888 -0.1760  0.6226
  445MOL0     C59953   6.703   3.617   8.702 -0.3187 -0.5178  0.6105
  445MOL0     C59954   6.729   3.688   8.837 -0.7036 -0.9780  0.4882
  445MOL0     C59955   6.677   3.614   8.960  0.0279 -0.9351  0.7896
  445MOL0     C59956   6.524   3.609   8.964  0.2707 -0.3641  0.4333
  445MOL0     N59957   6.460   3.744   8.959  0.6000 -0.1280  0.2010
  445MOL0     C59958   6.384   3.790   8.850  0.9000  0.5749  0.7023
  445MOL0     C59959   6.345   3.914   8.891  0.1804 -0.7126 -0.0199
  445MOL0     C59960   6.251   4.023   8.826 -0.7438  0.3685  0.2642
  445MOL0     C59961   6.111   4.021   8.887 -0.4597 -0.1110 -0.3383
  445MOL0     C59962   6.015   4.131   8.836 -0.2309  0.0838 -0.4433
  445MOL0     C59963   6.009   4.160   8.684 -0.0463  0.2420 -0.2889
  445MOL0     O59964   5.967   4.049   8.608  0.2218  0.0427 -0.0284
  445MOL0     C59965   5.831   4.041   8.565 -0.7173  0.1539 -0.4053
  445MOL0     C59966   5.728   4.057   8.657  0.9152  0.5695  0.4006
  445MOL0     C59967   5.587   4.061   8.619 -0.6087  0.3287  0.6865
  445MOL0     C59968   5.479   4.074   8.733  0.0269 -0.9812 -0.9736
  445MOL0     C59969   5.553   4.042   8.479 -0.1151 -0.0825 -0.1777
  445MOL0     C59970   5.416   4.049   8.422 -0.4567  0.1449  0.3416
  445MOL0     O59971   5.314   4.055   8.513  0.2906 -0.1165  0.6050
  445MOL0     C59972   5.197   4.010   8.457  0.0443  0.6542 -0.5965
  445MOL0     C59973   5.122   4.092   8.373 -0.1643 -0.3641  0.2146
  445MOL0     C59974   5.006   4.039   8.314  0.1965  0.1614  0.2173
  445MOL0     C59975   4.976   3.899   8.335 -0.2527  0.1890 -0.8776
  445MOL0     O59976   4.865   3.838   8.277 -0.6114  0.0682  1.2806
  445MOL0     C59977   4.748   3.906   8.248  0.5316 -0.0064 -0.5467
  445MOL0     C59978   4.636   3.795   8.217 -0.6677 -0.2383  0.6095
  445MOL0     C59979   4.611   3.697   8.336  0.1748 -0.1250 -0.0593
  445MOL0     C59980   4.551   3.763   8.455 -0.2555 -0.0181 -0.2403
  445MOL0     C59981   4.418   3.817   8.424  0.2345  0.7089 -0.0572
  445MOL0     C59982   4.307   3.719   8.367  0.5773  0.4037 -0.1736
  445MOL0     C59983   4.163   3.785   8.358  0.0783 -0.3017 -0.2416
  445MOL0     C59984   4.056   3.732   8.466  0.2471 -0.4360 -0.7255
  445MOL0    Cl59985   4.114   3.752   8.637 -0.0472  0.3545 -0.2928
  445MOL0     C59986   5.057   3.822   8.416  0.0682  0.0559  0.3878
  445MOL0     C59987   5.161   3.882   8.488 -0.5236  0.1748  0.2412
  445MOL0     O59988   5.408   4.035   8.300  0.1613 -0.0499 -0.3513
  445MOL0     C59989   5.663   4.027   8.387 -0.0567  0.4022  0.4036
  445MOL0     C59990   5.796   4.028   8.427 -0.4041  0.0377 -0.6779
  445MOL0     N59991   6.417   3.942   9.003 -0.0502  0.9386  0.8786
  445MOL0     N59992   6.488   3.839   9.045 -0.3099 -1.1551 -0.4582
  445MOL0     C59993   7.144   3.448   8.259 -0.4364 -0.0529 -0.9582
  445MOL0     C59994   7.279   3.405   8.285  0.2105 -0.3515 -0.1552
  445MOL0     C59995   7.658   3.231   8.286 -0.2102  0.0036 -0.7058
  445MOL0     C59996   7.772   3.262   8.205  0.1143  0.2768  0.1240
  445MOL0     C59997   7.899   3.245   8.247  0.3109 -0.5228  0.4601
  445MOL0     C59998   7.918   3.205   8.380 -1.1848 -0.6122  0.4922
  445MOL0     O59999   8.045   3.170   8.432  0.4451 -0.3410  0.2677
  445MOL0     C60000   8.162   3.192   8.352  0.4987 -0.6633 -0.4672
  445MOL0     C60001   8.285   3.127   8.421 -0.2384  0.6155  0.8069
  445MOL0     C60002   8.293   3.162   8.572 -0.1089  0.2322  0.8347
  445MOL0     C60003   8.386   3.061   8.650  0.8559 -0.9780 -0.3101
  445MOL0     C60004   8.522   3.068   8.604  0.6591 -0.2167  0.6187
  445MOL0     C60005   8.639   3.070   8.562  0.5186  0.4400 -0.0230
  445MOL0     C60006   7.812   3.175   8.463 -0.1109  0.0089  0.4517
  445MOL0     C60007   7.682   3.184   8.419  0.4368 -0.7068 -0.6399
  445MOL0     H60008   7.203   3.083   8.350 -1.7785 -1.8294 -0.3659
  445MOL0     H60009   6.961   3.174   8.324 -1.3423  0.8834 -1.7406
  445MOL0     H60010   6.913   3.554   8.152  0.7739  1.1739  0.3703
  445MOL0     H60011   6.745   3.523   8.211  0.0646  1.0910 -0.2279
  445MOL0     H60012   6.981   3.623   8.374  1.4578 -1.3984 -2.8534
  445MOL0     H60013   6.823   3.705   8.325 -0.3764 -1.0115 -2.0197
  445MOL0     H60014   6.695   3.531   8.455 -1.6148  0.8705  1.0003
  445MOL0     H60015   6.854   3.485   8.525 -3.1956 -0.9043  0.7351
  445MOL0     H60016   6.896   3.684   8.629  0.3216 -2.9097  1.4100
  445MOL0     H60017   6.753   3.758   8.546 -0.6609 -0.8251 -0.0123
  445MOL0     H60018   6.601   3.607   8.664  0.8209 -0.9923 -2.6103
  445MOL0     H60019   6.737   3.517   8.731  0.1780  0.2933  3.0651
  445MOL0     H60020   6.838   3.690   8.849 -0.4828 -0.1339 -1.3103
  445MOL0     H60021   6.705   3.795   8.831  0.0565 -0.8747 -1.3425
  445MOL0     H60022   6.726   3.517   8.949  3.6480  0.9017 -0.9147
  445MOL0     H60023   6.719   3.664   9.048  0.7915  0.9958 -0.6101
  445MOL0     H60024   6.499   3.577   9.065 -2.3414  3.7874  1.3431
  445MOL0     H60025   6.478   3.541   8.891  1.8406 -1.0978  0.0746
  445MOL0     H60026   6.349   3.735   8.763 -0.9411  1.4260  0.8586
  445MOL0     H60027   6.306   4.117   8.837  2.9359 -1.5739 -0.0991
  445MOL0     H60028   6.242   3.988   8.723 -0.0988  0.6767  0.0973
  445MOL0     H60029   6.117   4.031   8.996 -1.2361  0.4225 -0.3328
  445MOL0     H60030   6.065   3.922   8.872 -1.1621  0.0047  0.8909
  445MOL0     H60031   6.042   4.226   8.881  0.4402  0.0259 -0.7092
  445MOL0     H60032   5.920   4.110   8.887  1.8089  1.9979  4.7976
  445MOL0     H60033   6.112   4.187   8.662 -0.0976 -2.2256 -4.8290
  445MOL0     H60034   5.951   4.250   8.658  1.9686  2.0786  1.1869
  445MOL0     H60035   5.742   4.071   8.764 -1.4160  3.1107  0.5084
  445MOL0     H60036   5.529   4.081   8.830  0.3009  0.3810 -1.1943
  445MOL0     H60037   5.427   4.169   8.718  0.8106 -0.5121 -0.7946
  445MOL0     H60038   5.406   3.993   8.734 -0.2120 -0.7706  0.1941
  445MOL0     H60039   5.170   4.185   8.346  1.5037 -1.4858 -0.9675
  445MOL0     H60040   4.943   4.109   8.261 -1.9618 -1.3034  0.7091
  445MOL0     H60041   4.712   3.974   8.326  1.8830 -0.1549  0.2301
  445MOL0     H60042   4.766   3.964   8.156 -1.1564 -0.3243 -1.1243
  445MOL0     H60043   4.541   3.835   8.182  0.2699  1.8299  0.2758
  445MOL0     H60044   4.689   3.731   8.146  0.5224  0.5122  0.7972
  445MOL0     H60045   4.709   3.654   8.356  0.2377  0.5411  1.2232
  445MOL0     H60046   4.547   3.613   8.311  0.4700 -0.4957  0.4073
  445MOL0     H60047   4.543   3.690   8.536  2.0323 -0.1420 -0.0822
  445MOL0     H60048   4.610   3.850   8.484 -0.6459  0.5301 -1.0528
  445MOL0     H60049   4.430   3.892   8.345  0.2631 -2.2029 -3.0208
  445MOL0     H60050   4.378   3.869   8.512  0.8768  2.9307 -0.9949
  445MOL0     H60051   4.347   3.695   8.268 -1.4555  1.7134 -1.3737
  445MOL0     H60052   4.302   3.630   8.430  2.6023 -0.8895 -1.6804
  445MOL0     H60053   4.129   3.757   8.258  0.6605  3.3328 -1.6219
  445MOL0     H60054   4.181   3.893   8.349  1.2335 -0.5558 -1.3554
  445MOL0     H60055   4.038   3.626   8.446  1.8395 -0.8133 -0.2343
  445MOL0     H60056   3.966   3.788   8.439 -0.3224 -0.5680  0.8289
  445MOL0     H60057   5.039   3.715   8.412  1.7355 -0.2104 -2.4543
  445MOL0     H60058   5.219   3.814   8.550 -0.5620  1.7291  2.0475
  445MOL0     H60059   5.654   4.021   8.279 -2.2715  1.0842  0.4935
  445MOL0     H60060   5.880   4.019   8.359 -0.3730  0.6614 -0.7315
  445MOL0     H60061   7.133   3.552   8.230 -1.4808 -0.2524 -1.3217
  445MOL0     H60062   7.363   3.473   8.289  0.1282 -0.1291 -1.5419
  445MOL0     H60063   7.754   3.309   8.108  2.1448 -0.5596 -0.7007
  445MOL0     H60064   7.987   3.261   8.185 -0.0204  2.8361  0.6587
  445MOL0     H60065   8.149   3.152   8.251 -2.3682 -0.4605 -0.2721
  445MOL0     H60066   8.175   3.301   8.344 -1.0249 -0.4979 -1.0405
  445MOL0     H60067   8.373   3.168   8.372 -0.3568  0.6687  0.6383
  445MOL0     H60068   8.284   3.019   8.407  2.0768  0.2171  2.9770
  445MOL0     H60069   8.196   3.161   8.623 -0.5138 -0.2653  0.0847
  445MOL0     H60070   8.321   3.268   8.579  0.1771  0.1874  0.3879
  445MOL0     H60071   8.357   2.957   8.637  0.8408 -1.0952  0.5864
  445MOL0     H60072   8.387   3.088   8.756  1.9100 -1.5941 -0.1514
  445MOL0     H60073   8.738   3.078   8.522  0.8745  0.7918  0.8943
  445MOL0     H60074   7.841   3.119   8.552 -0.7385 -0.5984  0.2857
  445MOL0     H60075   7.601   3.156   8.485 -0.3605  2.2085 -0.2699
  446MOL0     O60076   9.523   0.848   1.018  0.5205  0.0311  0.3861
  446MOL0     C60077   9.522   0.777   1.120 -0.3194  0.1309  2.1034
  446MOL0     O60078   9.415   0.711   1.165 -0.1629  0.4167 -0.2934
  446MOL0     C60079   9.285   0.724   1.120  0.1962  0.0523  0.0388
  446MOL0     C60080   9.229   0.832   1.052  0.3253 -0.1203  0.6810
  446MOL0     C60081   9.107   0.835   0.993 -0.3406 -0.2971  0.6526
  446MOL0     C60082   9.021   0.726   0.996 -0.3170 -0.4895 -0.2209
  446MOL0     O60083   8.884   0.730   0.958  0.1705 -0.4778 -0.5629
  446MOL0     C60084   8.821   0.863   0.965 -0.7621  0.5916  0.5581
  446MOL0     C60085   8.682   0.835   0.940 -0.2127  0.2508 -0.8510
  446MOL0     C60086   8.655   0.820   0.791 -0.7904  0.5340  0.1669
  446MOL0     C60087   8.503   0.821   0.780  0.0824 -0.4563  0.2000
  446MOL0     C60088   8.449   0.842   0.641  0.0297  0.5490  0.1093
  446MOL0     C60089   8.311   0.794   0.625  0.8140 -0.1280 -0.0665
  446MOL0     C60090   8.267   0.810   0.478 -0.9070  1.6222 -0.3246
  446MOL0     C60091   8.122   0.815   0.469  0.1380  0.1256 -0.7063
  446MOL0     N60092   8.066   0.835   0.336  0.3250  0.2746  0.0144
  446MOL0     C60093   7.957   0.771   0.290  0.0424  0.2675 -0.5797
  446MOL0     C60094   7.937   0.807   0.162 -0.0889 -0.9231 -0.7895
  446MOL0     C60095   7.834   0.753   0.066  0.4115 -0.7297 -0.2784
  446MOL0     C60096   7.687   0.779   0.105 -0.0099  0.6814 -0.1865
  446MOL0     C60097   7.583   0.720   0.012 -0.2998 -0.2041 -0.2006
  446MOL0     C60098   7.582   0.777  -0.124 -0.5001 -0.2265  0.0848
  446MOL0     O60099   7.543   0.919  -0.118  0.0391 -0.1221 -0.0767
  446MOL0     C60100   7.572   1.000  -0.228 -0.6532 -0.7751  0.2181
  446MOL0     C60101   7.574   1.136  -0.198 -0.1903 -0.4288 -0.2095
  446MOL0     C60102   7.579   1.232  -0.299  0.2112 -0.0343 -0.0766
  446MOL0     C60103   7.565   1.376  -0.266  0.3764 -0.5892 -0.2549
  446MOL0     C60104   7.611   1.196  -0.429  0.3594 -0.0960  0.0263
  446MOL0     C60105   7.662   1.285  -0.532 -0.0254  0.2136 -0.1533
  446MOL0     O60106   7.638   1.249  -0.662  0.5166 -0.6724  0.4398
  446MOL0     C60107   7.701   1.325  -0.761  0.7970  0.0583  0.4674
  446MOL0     C60108   7.652   1.452  -0.788 -0.2307  0.0012 -0.5686
  446MOL0     C60109   7.714   1.519  -0.892  0.4606  0.6942  0.3565
  446MOL0     C60110   7.809   1.457  -0.968 -0.4016  0.5699  0.1075
  446MOL0     O60111   7.853   1.504  -1.088  0.0657  0.1725  0.1212
  446MOL0     C60112   7.842   1.648  -1.119 -0.1523 -0.0833  0.3899
  446MOL0     C60113   7.925   1.665  -1.251  0.5784 -0.1191 -0.3607
  446MOL0     C60114   7.951   1.819  -1.279 -0.0632  0.1170  0.2384
  446MOL0     C60115   7.835   1.889  -1.325  0.0269  0.2214  0.1932
  446MOL0     C60116   7.862   2.017  -1.403  0.1576  1.0970 -0.0924
  446MOL0     C60117   7.726   2.071  -1.428 -0.4593  0.0347 -0.1336
  446MOL0     C60118   7.733   2.205  -1.502  0.2487 -0.4246 -0.2837
  446MOL0     C60119   7.595   2.267  -1.548 -0.0814 -0.2017  0.1724
  446MOL0    Cl60120   7.602   2.442  -1.585 -0.2266 -0.5160 -0.0771
  446MOL0     C60121   7.841   1.321  -0.948 -0.0186 -0.4331  0.1792
  446MOL0     C60122   7.782   1.259  -0.842 -1.5960  0.3693 -0.8625
  446MOL0     O60123   7.722   1.390  -0.498  0.3334  0.1905  0.2865
  446MOL0     C60124   7.617   1.061  -0.455  0.3415  0.3839  0.8213
  446MOL0     C60125   7.593   0.957  -0.361  0.5899  0.3554  0.5154
  446MOL0     N60126   8.032   0.898   0.128  0.0398  0.2735  0.6305
  446MOL0     N60127   8.110   0.916   0.232 -0.0310  0.7279  0.2160
  446MOL0     C60128   9.079   0.612   1.046  0.4451 -0.1734  0.5693
  446MOL0     C60129   9.203   0.609   1.109 -0.2682 -0.1232  0.2137
  446MOL0     C60130   9.649   0.747   1.187 -0.1954 -0.1761  0.0852
  446MOL0     C60131   9.659   0.628   1.267  0.3267  0.2618 -1.1746
  446MOL0     C60132   9.778   0.584   1.328 -0.7013 -0.2565  0.6521
  446MOL0     C60133   9.893   0.660   1.312 -0.7703 -0.0900  0.4265
  446MOL0     O60134  10.011   0.641   1.373 -0.7299 -0.4662  0.2298
  446MOL0     C60135  10.011   0.609   1.515 -0.4772 -1.2774  0.0676
  446MOL0     C60136  10.070   0.713   1.606  0.4376 -0.5871 -0.0781
  446MOL0     C60137  10.217   0.692   1.639  0.2722 -0.1876 -0.9303
  446MOL0     C60138  10.285   0.812   1.699 -0.9379  0.0430  0.0408
  446MOL0     C60139  10.418   0.773   1.746 -0.4758  0.0863 -0.0386
  446MOL0     C60140  10.515   0.734   1.784 -0.4487  0.0180  0.6202
  446MOL0     C60141   9.883   0.782   1.246  0.3072  0.5145  0.5710
  446MOL0     C60142   9.770   0.819   1.169  0.4061  0.3236 -0.1485
  446MOL0     H60143   9.293   0.919   1.062  0.0243  0.2205 -0.2040
  446MOL0     H60144   9.076   0.932   0.957  0.3410  0.2453  1.4893
  446MOL0     H60145   8.831   0.915   1.061 -0.1334 -0.6274  1.1832
  446MOL0     H60146   8.859   0.918   0.879 -1.5638 -2.6403 -2.0610
  446MOL0     H60147   8.649   0.749   0.999  1.3145 -0.0651 -0.3953
  446MOL0     H60148   8.628   0.916   0.988 -1.1288 -2.8712  4.0532
  446MOL0     H60149   8.697   0.905   0.736 -0.5252 -0.4752 -1.2507
  446MOL0     H60150   8.691   0.736   0.731 -1.1029  1.9089 -2.0685
  446MOL0     H60151   8.456   0.725   0.807  2.1888 -2.4384 -2.5538
  446MOL0     H60152   8.459   0.898   0.843  3.5825  1.1528  0.9316
  446MOL0     H60153   8.461   0.946   0.610 -0.2317  0.6022  0.1822
  446MOL0     H60154   8.509   0.778   0.576  0.2287 -0.7397  1.5023
  446MOL0     H60155   8.304   0.690   0.659 -0.4174  0.1100  0.4431
  446MOL0     H60156   8.253   0.854   0.696  2.6647 -0.4317  1.8059
  446MOL0     H60157   8.321   0.898   0.442 -1.3444  1.7916 -0.5680
  446MOL0     H60158   8.297   0.723   0.417 -1.5858  1.6376 -0.6838
  446MOL0     H60159   8.089   0.893   0.538  1.5676 -1.4129  1.8914
  446MOL0     H60160   8.072   0.723   0.501 -0.6709  0.5971 -0.5649
  446MOL0     H60161   7.901   0.695   0.344 -2.2541  3.0525  1.2344
  446MOL0     H60162   7.848   0.813  -0.025  3.7990  0.2743  0.7910
  446MOL0     H60163   7.850   0.646   0.051  1.7269 -0.5325 -0.3626
  446MOL0     H60164   7.679   0.887   0.122  0.6817  0.8270 -0.7505
  446MOL0     H60165   7.667   0.736   0.204 -3.1069 -2.0548 -1.7720
  446MOL0     H60166   7.485   0.726   0.061  0.3399  0.9461  1.0033
  446MOL0     H60167   7.611   0.615   0.007  1.3208 -0.0455  2.9208
  446MOL0     H60168   7.509   0.715  -0.175  2.3387 -3.6981 -0.1711
  446MOL0     H60169   7.673   0.754  -0.180 -0.6633 -1.8391  0.4122
  446MOL0     H60170   7.567   1.167  -0.095  0.0675 -1.7645  0.2291
  446MOL0     H60171   7.516   1.424  -0.351 -3.0324 -1.0536  1.2655
  446MOL0     H60172   7.504   1.385  -0.175  3.1143 -0.0871  1.6292
  446MOL0     H60173   7.661   1.422  -0.241  0.2019 -1.2906  1.8860
  446MOL0     H60174   7.571   1.498  -0.733 -0.3072  1.6093 -1.9397
  446MOL0     H60175   7.690   1.620  -0.923 -0.1889  0.6167  0.5891
  446MOL0     H60176   7.738   1.681  -1.134  0.1259  1.7974  2.2302
  446MOL0     H60177   7.876   1.718  -1.043 -1.1100 -0.6706  1.3905
  446MOL0     H60178   8.024   1.619  -1.242  1.7013  1.7315 -2.2952
  446MOL0     H60179   7.878   1.625  -1.342 -1.4139  1.1200  0.0792
  446MOL0     H60180   8.032   1.821  -1.352  0.1895 -1.4059  0.4425
  446MOL0     H60181   7.987   1.862  -1.185  1.9018 -1.0792  0.0919
  446MOL0     H60182   7.764   1.830  -1.384  0.3489 -0.5659  0.5857
  446MOL0     H60183   7.777   1.909  -1.234 -0.0571 -2.1159  0.7274
  446MOL0     H60184   7.916   1.974  -1.488  2.4886  1.4570  1.1098
  446MOL0     H60185   7.924   2.088  -1.348 -0.1265 -0.0433  1.7898
  446MOL0     H60186   7.673   1.997  -1.487  4.1739 -1.3325 -3.1591
  446MOL0     H60187   7.681   2.087  -1.330 -0.9765 -0.5663 -0.2685
  446MOL0     H60188   7.801   2.199  -1.588  1.3370 -0.8532  0.5831
  446MOL0     H60189   7.784   2.272  -1.432  0.2111  1.3174 -1.8465
  446MOL0     H60190   7.532   2.265  -1.458  0.6751  1.4623  0.7826
  446MOL0     H60191   7.547   2.215  -1.632 -2.2090  2.5708 -0.4889
  446MOL0     H60192   7.915   1.268  -1.007 -0.0038 -1.8897  1.4474
  446MOL0     H60193   7.816   1.161  -0.810 -1.5829  1.0161  1.2684
  446MOL0     H60194   7.626   1.021  -0.556 -3.3719  1.2157  0.0122
  446MOL0     H60195   7.600   0.854  -0.394  3.0804  0.0539  1.7325
  446MOL0     H60196   9.021   0.520   1.052 -0.8318  0.5550 -0.0769
  446MOL0     H60197   9.224   0.514   1.157 -2.4783 -0.9527 -0.3157
  446MOL0     H60198   9.568   0.569   1.275  0.4138  0.2779  0.2075
  446MOL0     H60199   9.778   0.499   1.397 -2.0159  0.2102  1.2686
  446MOL0     H60200   9.911   0.595   1.557  0.1044  1.0705  2.4655
  446MOL0     H60201  10.067   0.515   1.522 -2.4545 -2.5610 -0.5336
  446MOL0     H60202  10.004   0.724   1.693 -1.4182 -0.9361 -1.3767
  446MOL0     H60203  10.052   0.806   1.550  0.9642  0.0685  0.8129
  446MOL0     H60204  10.270   0.675   1.544  2.4009  2.2572 -0.2992
  446MOL0     H60205  10.227   0.610   1.711 -1.5543  0.5316  0.2135
  446MOL0     H60206  10.222   0.855   1.778  0.5108  0.7176  0.8628
  446MOL0     H60207  10.308   0.889   1.625  1.0368 -0.1987  0.3515
  446MOL0     H60208  10.608   0.694   1.819 -0.6657 -0.0546  1.1190
  446MOL0     H60209   9.972   0.843   1.241 -0.1949  1.2950  1.0952
  446MOL0     H60210   9.784   0.907   1.108  1.1656  1.2985  1.3672
  447MOL0     O60211   2.025   9.591   7.919  0.0700 -1.0125 -0.6197
  447MOL0     C60212   2.011   9.685   7.998 -0.2507 -0.7212  0.6504
  447MOL0     O60213   1.909   9.768   8.013  0.2556  0.8309 -0.0904
  447MOL0     C60214   1.792   9.721   7.952  0.1603  0.1303  0.3380
  447MOL0     C60215   1.733   9.800   7.853 -0.5008  0.2837 -0.5538
  447MOL0     C60216   1.614   9.760   7.795  0.5888 -1.4121  0.2953
  447MOL0     C60217   1.547   9.641   7.829  1.0185 -0.2533  0.2381
  447MOL0     O60218   1.426   9.622   7.752 -0.3676 -0.3571 -0.6832
  447MOL0     C60219   1.333   9.539   7.812  0.2454 -0.1194  0.2258
  447MOL0     C60220   1.189   9.572   7.780 -1.0273  0.5701  0.0843
  447MOL0     C60221   1.075   9.496   7.855 -0.8095 -0.5359  0.0582
  447MOL0     C60222   0.936   9.551   7.817 -0.2379 -0.0941  0.5203
  447MOL0     C60223   0.816   9.488   7.882 -0.1250  0.2904 -0.0118
  447MOL0     C60224   0.699   9.505   7.795 -0.0136  0.5393 -0.2078
  447MOL0     C60225   0.580   9.492   7.886  0.4783  0.3405  0.0793
  447MOL0     C60226   0.459   9.512   7.804  0.1261 -0.1217  0.1880
  447MOL0     N60227   0.441   9.420   7.686  0.2351  0.3390  0.6168
  447MOL0     C60228   0.432   9.276   7.702  0.3676  0.3924  0.2491
  447MOL0     C60229   0.375   9.236   7.578 -0.6680 -0.5088  0.3740
  447MOL0     C60230   0.342   9.094   7.542  0.0003  0.6165  0.0202
  447MOL0     C60231   0.205   9.047   7.604  0.6370  0.3390  0.4122
  447MOL0     C60232   0.079   9.110   7.537 -0.8557 -0.7121 -0.8246
  447MOL0     C60233  -0.046   9.027   7.571  0.4923 -0.5188 -0.2959
  447MOL0     O60234  -0.081   9.048   7.710  0.4621 -0.1242  0.2680
  447MOL0     C60235  -0.209   9.030   7.730  0.4209 -0.5817 -1.0003
  447MOL0     C60236  -0.276   9.145   7.763 -0.0737  0.5490  0.7895
  447MOL0     C60237  -0.410   9.147   7.804 -0.5952  0.1058 -0.3773
  447MOL0     C60238  -0.461   9.282   7.829  0.9403 -0.2971  0.8413
  447MOL0     C60239  -0.479   9.023   7.824 -0.0706  0.1965  0.7323
  447MOL0     C60240  -0.620   9.013   7.870  0.6387  0.1206 -1.4494
  447MOL0     O60241  -0.691   8.914   7.811 -0.0930  0.2464  0.7464
  447MOL0     C60242  -0.822   8.893   7.815  0.1918 -0.2722 -0.0016
  447MOL0     C60243  -0.912   8.951   7.912  0.2527 -0.6971  0.1273
  447MOL0     C60244  -1.044   8.916   7.915 -0.1459  0.2650  0.4544
  447MOL0     C60245  -1.087   8.814   7.828 -0.5240 -0.5275  0.0619
  447MOL0     O60246  -1.208   8.760   7.830  0.3929 -0.0708  0.1087
  447MOL0     C60247  -1.300   8.808   7.933  0.1827 -0.6460  0.4181
  447MOL0     C60248  -1.424   8.725   7.917  0.4539  0.9533 -0.0943
  447MOL0     C60249  -1.401   8.576   7.938 -0.2339  0.7410  0.1570
  447MOL0     C60250  -1.527   8.483   7.911 -0.3023  0.8990  0.7365
  447MOL0     C60251  -1.650   8.542   7.985  0.8477  0.0904  0.0615
  447MOL0     C60252  -1.746   8.424   7.992  0.6399  1.0603  0.1587
  447MOL0     C60253  -1.880   8.462   8.064 -0.2001  0.4457  0.2637
  447MOL0     C60254  -1.983   8.352   8.069 -0.5830 -0.2347 -0.2885
  447MOL0    Cl60255  -2.038   8.294   7.913 -0.1204  0.4995  0.0510
  447MOL0     C60256  -0.998   8.768   7.722 -0.6441  0.0626 -0.3626
  447MOL0     C60257  -0.865   8.804   7.720 -0.3198  0.5828  0.1862
  447MOL0     O60258  -0.660   9.082   7.971 -0.0834 -0.1776 -0.5342
  447MOL0     C60259  -0.419   8.908   7.775  0.1571  0.5775 -0.4311
  447MOL0     C60260  -0.290   8.907   7.726 -0.3099 -0.3222 -0.3003
  447MOL0     N60261   0.369   9.349   7.491 -0.0194  0.2814 -0.2576
  447MOL0     N60262   0.401   9.447   7.560  0.6112 -0.7244  0.6754
  447MOL0     C60263   1.604   9.563   7.928  0.1300  0.2736  0.3770
  447MOL0     C60264   1.728   9.597   7.986 -0.9830 -0.7651 -0.6759
  447MOL0     C60265   2.137   9.727   8.077  0.3333 -0.3172 -0.3014
  447MOL0     C60266   2.144   9.821   8.191  0.6865  0.7071  0.8638
  447MOL0     C60267   2.268   9.844   8.257  0.2373 -0.1794  0.6076
  447MOL0     C60268   2.383   9.784   8.211 -0.4331  0.1927  0.3644
  447MOL0     O60269   2.505   9.808   8.270 -0.0194  0.6922  0.0559
  447MOL0     C60270   2.503   9.885   8.394 -0.2538 -0.2586 -0.5734
  447MOL0     C60271   2.639   9.877   8.452 -0.1642  0.3100 -1.1346
  447MOL0     C60272   2.691   9.725   8.463 -0.4312 -0.6174 -0.6538
  447MOL0     C60273   2.772   9.674   8.345 -0.0421  0.1000  0.2352
  447MOL0     C60274   2.914   9.690   8.376  0.8412 -0.3325  0.8779
  447MOL0     C60275   3.030   9.707   8.397  0.3373  0.5284  0.6986
  447MOL0     C60276   2.375   9.701   8.097 -0.5904 -0.1386 -0.8404
  447MOL0     C60277   2.259   9.676   8.032  0.7923  0.1489 -0.3182
  447MOL0     H60278   1.789   9.889   7.826 -0.6388  0.6219  0.2697
  447MOL0     H60279   1.583   9.828   7.716  0.5405 -3.4787 -1.5431
  447MOL0     H60280   1.351   9.433   7.789  0.9559 -0.0946  0.6435
  447MOL0     H60281   1.347   9.551   7.920 -0.8135 -3.8244  0.9426
  447MOL0     H60282   1.176   9.678   7.806 -0.8303  0.8529 -0.9257
  447MOL0     H60283   1.177   9.559   7.672  2.6183  4.1243 -1.0129
  447MOL0     H60284   1.073   9.392   7.821 -0.2811 -0.5221 -0.0310
  447MOL0     H60285   1.094   9.502   7.963  0.4089  0.7329 -0.1913
  447MOL0     H60286   0.930   9.655   7.850 -3.3502 -1.1012  3.8096
  447MOL0     H60287   0.924   9.531   7.710 -1.8435  0.0086  0.6538
  447MOL0     H60288   0.834   9.383   7.908  1.1396  1.2586  3.5927
  447MOL0     H60289   0.801   9.539   7.977  0.0671  0.1152  0.1132
  447MOL0     H60290   0.694   9.601   7.743 -0.6555  0.9940  0.6800
  447MOL0     H60291   0.706   9.426   7.720  0.8939  1.8377 -1.5463
  447MOL0     H60292   0.575   9.395   7.937  2.8711 -2.4000 -4.2996
  447MOL0     H60293   0.590   9.572   7.960  1.9756  1.3460 -1.1505
  447MOL0     H60294   0.445   9.615   7.770 -0.1820 -0.3143 -0.2807
  447MOL0     H60295   0.378   9.499   7.876  1.3969 -0.1033  1.6793
  447MOL0     H60296   0.459   9.221   7.792  1.5013 -0.9308 -0.8361
  447MOL0     H60297   0.332   9.068   7.436 -2.3567 -3.5684  1.0252
  447MOL0     H60298   0.415   9.024   7.586  0.8210  1.1992 -0.3778
  447MOL0     H60299   0.199   9.066   7.711 -1.3959 -0.4576  0.4944
  447MOL0     H60300   0.201   8.938   7.596  0.4310  0.3138  0.8217
  447MOL0     H60301   0.084   9.105   7.428  2.1751 -1.8624 -0.7134
  447MOL0     H60302   0.065   9.215   7.567 -0.0739  0.1055 -3.1097
  447MOL0     H60303  -0.042   8.920   7.547  0.4131 -0.1918 -1.8414
  447MOL0     H60304  -0.127   9.068   7.511 -1.3331 -3.0466  0.2901
  447MOL0     H60305  -0.222   9.238   7.756 -0.5295  1.4129  5.4901
  447MOL0     H60306  -0.448   9.316   7.932 -2.4638 -1.5125  1.8324
  447MOL0     H60307  -0.431   9.362   7.761 -3.4079  1.0271  0.1123
  447MOL0     H60308  -0.569   9.277   7.810  0.6563  0.4029  2.0970
  447MOL0     H60309  -0.882   9.011   7.998 -0.2022 -0.1099 -0.1123
  447MOL0     H60310  -1.117   8.950   7.987 -2.9512 -2.4825 -0.8406
  447MOL0     H60311  -1.263   8.794   8.035  0.5313  1.6958  0.6547
  447MOL0     H60312  -1.322   8.915   7.926  1.4416 -0.4687 -4.0567
  447MOL0     H60313  -1.500   8.760   7.987 -0.2910 -0.2956 -0.2485
  447MOL0     H60314  -1.461   8.744   7.816 -0.6668 -0.2915  0.0577
  447MOL0     H60315  -1.388   8.577   8.047 -0.9359  0.8622  0.2486
  447MOL0     H60316  -1.314   8.534   7.886 -0.8670  1.1970 -1.3322
  447MOL0     H60317  -1.544   8.475   7.803  1.3725 -1.1605  0.5461
  447MOL0     H60318  -1.513   8.380   7.946 -3.0705  0.0608 -0.3737
  447MOL0     H60319  -1.694   8.622   7.926 -1.6450  0.2992  2.0023
  447MOL0     H60320  -1.632   8.584   8.084 -0.8112  1.0578 -0.0166
  447MOL0     H60321  -1.773   8.396   7.889 -0.8593  0.7396  0.6140
  447MOL0     H60322  -1.707   8.337   8.045 -2.9290 -0.8588 -0.0134
  447MOL0     H60323  -1.919   8.547   8.008  0.2877  0.8186  0.4875
  447MOL0     H60324  -1.854   8.491   8.166 -0.2242  0.5846  0.2305
  447MOL0     H60325  -2.075   8.389   8.116 -2.0275 -0.4808 -2.7043
  447MOL0     H60326  -1.956   8.262   8.125  3.4399  2.8204  3.3539
  447MOL0     H60327  -1.028   8.690   7.653  1.5345 -0.8521 -0.3517
  447MOL0     H60328  -0.792   8.757   7.654 -0.9316 -0.9541  0.5650
  447MOL0     H60329  -0.472   8.815   7.790  2.8142 -0.8527  0.8903
  447MOL0     H60330  -0.237   8.813   7.709  0.0579 -0.4812  1.5080
  447MOL0     H60331   1.546   9.476   7.957 -0.5342  0.4656 -0.3645
  447MOL0     H60332   1.783   9.532   8.054  1.5248 -0.2835 -2.1033
  447MOL0     H60333   2.054   9.869   8.229 -0.2191  0.4743 -0.8956
  447MOL0     H60334   2.256   9.917   8.336 -1.7007 -0.9537  1.0826
  447MOL0     H60335   2.477   9.989   8.377  1.0897  0.3332  0.7643
  447MOL0     H60336   2.426   9.844   8.461  0.0125  0.6148  0.2861
  447MOL0     H60337   2.629   9.909   8.556 -0.9691  1.2992 -1.4980
  447MOL0     H60338   2.704   9.942   8.392  0.4899 -0.5351 -1.3507
  447MOL0     H60339   2.615   9.648   8.479 -1.0013  0.0207 -0.2442
  447MOL0     H60340   2.762   9.726   8.547 -0.4592  1.7815 -0.5743
  447MOL0     H60341   2.758   9.720   8.247  1.2717 -2.6400 -1.3374
  447MOL0     H60342   2.754   9.567   8.331 -4.0946  0.4603  1.5049
  447MOL0     H60343   3.136   9.715   8.411  0.2796  0.2519  1.3496
  447MOL0     H60344   2.469   9.660   8.061  0.9338  1.3380  1.1830
  447MOL0     H60345   2.267   9.619   7.940  0.8219 -0.1388 -0.1382
  448MOL0     O60346  10.528   1.757   1.300  0.3269 -0.0861  0.9762
  448MOL0     C60347  10.528   1.867   1.351 -0.1979  0.3693 -0.5206
  448MOL0     O60348  10.424   1.952   1.376  0.1601 -0.5714 -0.3669
  448MOL0     C60349  10.300   1.949   1.319 -0.6280 -0.0827  0.2013
  448MOL0     C60350  10.215   2.043   1.367  0.6718 -0.5090 -0.3204
  448MOL0     C60351  10.084   2.065   1.321  0.1962 -0.4207  0.0189
  448MOL0     C60352  10.040   1.988   1.210  0.7001  0.2498  0.2438
  448MOL0     O60353   9.914   2.010   1.158  0.1775  0.0230  0.5218
  448MOL0     C60354   9.836   2.125   1.204  0.5815 -0.4288  1.1369
  448MOL0     C60355   9.706   2.142   1.130 -0.0886 -0.8143  0.5132
  448MOL0     C60356   9.727   2.198   0.992 -0.1919 -0.5855 -0.3904
  448MOL0     C60357   9.593   2.234   0.932 -0.2134 -0.0199  0.0759
  448MOL0     C60358   9.539   2.369   0.987 -0.1379  0.0304 -0.7189
  448MOL0     C60359   9.389   2.365   0.948  0.3515 -0.4075  0.3013
  448MOL0     C60360   9.312   2.502   0.960 -0.3019  0.0757 -0.0541
  448MOL0     C60361   9.168   2.499   0.909  0.1488 -0.5912  0.1601
  448MOL0     N60362   9.077   2.606   0.961  0.0896  0.4857 -0.3088
  448MOL0     C60363   8.965   2.644   0.898 -0.3323 -0.9885  0.7272
  448MOL0     C60364   8.917   2.746   0.972  1.2396  0.8206 -0.6235
  448MOL0     C60365   8.795   2.824   0.955  0.3110 -0.5099 -0.1063
  448MOL0     C60366   8.674   2.759   1.013 -0.0634  1.4709 -0.9283
  448MOL0     C60367   8.544   2.807   0.947 -0.6879  0.4480  0.3601
  448MOL0     C60368   8.411   2.771   1.020 -0.9046 -0.0705 -0.2485
  448MOL0     O60369   8.365   2.648   0.968 -0.5301 -0.4753 -0.6423
  448MOL0     C60370   8.230   2.615   0.995  0.3341 -0.4043 -0.0195
  448MOL0     C60371   8.141   2.702   1.068  0.4367  0.2509  0.1900
  448MOL0     C60372   8.001   2.684   1.067  0.5013  0.2872  0.6350
  448MOL0     C60373   7.918   2.788   1.144 -0.3615 -0.0115 -0.1752
  448MOL0     C60374   7.950   2.566   1.004  0.1987  0.2571 -0.6820
  448MOL0     C60375   7.803   2.538   1.002  0.1565  0.4311 -0.7223
  448MOL0     O60376   7.713   2.644   0.998  0.4488  0.7466 -0.0600
  448MOL0     C60377   7.586   2.621   1.051 -0.3633 -0.0176  0.5425
  448MOL0     C60378   7.513   2.510   1.008 -0.2570  0.2025  0.5438
  448MOL0     C60379   7.385   2.482   1.064  0.3053  0.2202 -0.2881
  448MOL0     C60380   7.324   2.576   1.145 -0.2920 -0.0792  1.1140
  448MOL0     O60381   7.200   2.561   1.195 -0.2957  0.5202 -0.2573
  448MOL0     C60382   7.103   2.462   1.151 -0.3849 -0.5076 -0.2620
  448MOL0     C60383   6.996   2.445   1.260 -0.0565 -0.4375  0.4455
  448MOL0     C60384   6.876   2.367   1.212 -0.2517 -0.9878 -0.9019
  448MOL0     C60385   6.778   2.347   1.332 -0.2111 -0.4970 -0.7445
  448MOL0     C60386   6.657   2.265   1.297 -0.0008 -0.1535 -0.5200
  448MOL0     C60387   6.567   2.247   1.419  0.5017 -0.0772 -0.0131
  448MOL0     C60388   6.503   2.378   1.478  0.4918  0.2221  0.8007
  448MOL0     C60389   6.397   2.378   1.592 -0.1276  0.9252  0.6417
  448MOL0    Cl60390   6.467   2.335   1.752 -0.3274  0.1673 -0.2902
  448MOL0     C60391   7.391   2.693   1.179 -0.4875  0.4727 -0.4989
  448MOL0     C60392   7.521   2.715   1.131  0.8877  0.3805  0.5383
  448MOL0     O60393   7.782   2.419   1.024 -0.1842 -0.0707 -0.5238
  448MOL0     C60394   8.041   2.472   0.950  0.3863 -0.6637  0.3590
  448MOL0     C60395   8.173   2.503   0.937 -1.2531 -0.6827  0.5230
  448MOL0     N60396   8.995   2.770   1.082  0.2227 -0.7014  1.0349
  448MOL0     N60397   9.090   2.687   1.066  0.8438 -0.2360 -0.5568
  448MOL0     C60398  10.125   1.883   1.159 -0.3498 -0.0634 -0.0999
  448MOL0     C60399  10.251   1.862   1.216  0.3311  0.4859 -0.0683
  448MOL0     C60400  10.670   1.911   1.377 -0.6172  0.2099  0.2609
  448MOL0     C60401  10.697   2.006   1.481  0.4904 -0.1207  0.4027
  448MOL0     C60402  10.822   2.046   1.507 -0.0785 -0.2274 -0.1298
  448MOL0     C60403  10.931   1.993   1.443  0.1677 -0.7257  0.1379
  448MOL0     O60404  11.062   2.028   1.482 -0.3189 -0.6069 -0.4245
  448MOL0     C60405  11.183   1.968   1.432  0.6868  0.8144 -0.2594
  448MOL0     C60406  11.309   2.009   1.511  0.5872  0.0665 -0.1303
  448MOL0     C60407  11.431   1.927   1.485 -0.5345 -0.4644 -0.0256
  448MOL0     C60408  11.524   1.895   1.602  0.1772 -0.3851 -0.1332
  448MOL0     C60409  11.628   1.799   1.560 -0.2238 -0.0071 -0.1685
  448MOL0     C60410  11.704   1.719   1.514  0.2382  0.4995 -0.3193
  448MOL0     C60411  10.910   1.884   1.354 -0.4090  0.4985 -1.1613
  448MOL0     C60412  10.783   1.838   1.325 -0.2080  0.0930  0.1800
  448MOL0     H60413  10.248   2.118   1.439  1.8816  0.9142 -2.2592
  448MOL0     H60414  10.014   2.133   1.369 -0.4141 -1.6976  0.9830
  448MOL0     H60415   9.812   2.111   1.309  2.0312  1.8144  1.8322
  448MOL0     H60416   9.902   2.211   1.196  0.8513 -0.5974  1.5022
  448MOL0     H60417   9.646   2.050   1.135 -1.4302 -0.0707 -1.0303
  448MOL0     H60418   9.648   2.215   1.186 -1.7011 -2.3079  0.8669
  448MOL0     H60419   9.793   2.283   1.008 -0.5493 -0.7140  2.0170
  448MOL0     H60420   9.790   2.127   0.936  1.1669 -1.6384  2.2987
  448MOL0     H60421   9.607   2.256   0.825 -1.3277  2.5481  0.3785
  448MOL0     H60422   9.525   2.156   0.966 -0.0490  0.8240  2.5371
  448MOL0     H60423   9.553   2.386   1.094  1.5539 -0.3005 -0.8560
  448MOL0     H60424   9.583   2.455   0.935  1.5923  0.5986  1.5273
  448MOL0     H60425   9.372   2.331   0.845 -3.3242 -1.1640  1.0073
  448MOL0     H60426   9.341   2.291   1.013 -0.7569 -1.0371 -1.1779
  448MOL0     H60427   9.305   2.546   1.060 -1.9961  2.5352 -1.1470
  448MOL0     H60428   9.362   2.574   0.894 -0.9675  0.8099  0.2284
  448MOL0     H60429   9.130   2.398   0.928  0.1986 -0.4375  1.1471
  448MOL0     H60430   9.163   2.510   0.801 -3.5129 -1.8721  0.0708
  448MOL0     H60431   8.924   2.615   0.802  4.7601 -0.5366 -1.9331
  448MOL0     H60432   8.827   2.917   1.003  0.6448 -0.6452 -0.0678
  448MOL0     H60433   8.783   2.846   0.849 -2.3483 -0.4601  0.1417
  448MOL0     H60434   8.661   2.782   1.119 -2.7508  1.0714 -1.0943
  448MOL0     H60435   8.681   2.650   1.008 -3.6082  1.0000  1.0499
  448MOL0     H60436   8.536   2.767   0.845 -1.3100 -0.4493  0.7494
  448MOL0     H60437   8.557   2.915   0.940  0.4420  0.3018 -0.1188
  448MOL0     H60438   8.332   2.843   0.998 -3.2379 -0.4706  5.1910
  448MOL0     H60439   8.417   2.767   1.129 -0.6878  2.1584 -0.1267
  448MOL0     H60440   8.192   2.771   1.134  0.9335 -1.2466  1.4281
  448MOL0     H60441   7.824   2.748   1.182 -2.2002  3.2508 -0.8822
  448MOL0     H60442   7.980   2.824   1.226  1.3050 -0.6030 -1.1322
  448MOL0     H60443   7.888   2.871   1.078  1.5641  2.0466  1.3790
  448MOL0     H60444   7.553   2.431   0.945 -0.0631  1.0922 -0.4862
  448MOL0     H60445   7.324   2.400   1.028 -0.6190  0.5813  0.4204
  448MOL0     H60446   7.045   2.492   1.064 -1.9679  0.4821  1.0897
  448MOL0     H60447   7.154   2.365   1.142 -1.7399 -1.1373 -1.4728
  448MOL0     H60448   7.045   2.405   1.349  0.9906  3.4787  1.8465
  448MOL0     H60449   6.957   2.546   1.278 -1.1935 -0.7749  0.0053
  448MOL0     H60450   6.906   2.272   1.167 -0.8411 -1.4652 -0.3103
  448MOL0     H60451   6.828   2.424   1.131 -3.2474 -2.6470 -0.4684
  448MOL0     H60452   6.838   2.313   1.417  3.2763  1.3616 -2.2792
  448MOL0     H60453   6.736   2.444   1.360  0.4703 -0.1802 -0.8070
  448MOL0     H60454   6.691   2.164   1.270  0.5378 -0.6139  1.7056
  448MOL0     H60455   6.599   2.303   1.213 -0.3351  0.7198  0.0933
  448MOL0     H60456   6.485   2.186   1.380 -0.4832  0.7277  0.7649
  448MOL0     H60457   6.626   2.198   1.498  0.4791 -0.4925 -0.2502
  448MOL0     H60458   6.457   2.437   1.397 -1.1316  0.5563  1.9149
  448MOL0     H60459   6.591   2.437   1.504 -1.8856  2.9999  3.3434
  448MOL0     H60460   6.330   2.297   1.561  1.0288  0.3789 -0.5293
  448MOL0     H60461   6.347   2.475   1.595  1.3878  1.7443  0.5427
  448MOL0     H60462   7.352   2.746   1.265 -1.0009 -2.8562  1.5148
  448MOL0     H60463   7.570   2.806   1.162 -0.8009  2.1122 -1.5472
  448MOL0     H60464   8.010   2.377   0.906 -0.3951  0.7464 -2.3518
  448MOL0     H60465   8.237   2.430   0.888  0.7008  1.3122 -0.0417
  448MOL0     H60466  10.080   1.821   1.082 -0.5826 -2.2211  1.6541
  448MOL0     H60467  10.317   1.785   1.175  0.4561  1.5476 -1.9866
  448MOL0     H60468  10.612   2.061   1.520  0.7234  0.0716  0.6414
  448MOL0     H60469  10.848   2.123   1.579 -0.1683 -1.3993  1.1837
  448MOL0     H60470  11.175   1.859   1.432 -1.5465  0.8806 -2.5614
  448MOL0     H60471  11.189   2.000   1.328 -0.0200  0.5993 -0.3701
  448MOL0     H60472  11.298   2.004   1.619  0.8215 -1.2268 -0.1559
  448MOL0     H60473  11.343   2.111   1.489 -1.1162  0.2250 -2.3868
  448MOL0     H60474  11.486   1.976   1.403 -2.0524  0.5950 -0.4475
  448MOL0     H60475  11.406   1.831   1.439 -1.2850 -0.1128 -0.3699
  448MOL0     H60476  11.457   1.852   1.678 -0.3353  0.7211  0.0574
  448MOL0     H60477  11.572   1.985   1.643  0.9683 -0.1760 -1.4725
  448MOL0     H60478  11.768   1.649   1.464  1.8333  1.1976  0.6338
  448MOL0     H60479  10.995   1.832   1.311  1.3663  2.4225 -0.1855
  448MOL0     H60480  10.775   1.744   1.272 -0.8390 -0.3420  1.0278
  449MOL0     O60481   3.452  11.114   2.368  0.2490 -0.1957 -0.3961
  449MOL0     C60482   3.468  11.026   2.281  0.2928  0.5251  0.3278
  449MOL0     O60483   3.372  10.981   2.190 -0.0320  0.2347 -0.3498
  449MOL0     C60484   3.245  11.034   2.170  0.1176 -1.2603  0.0954
  449MOL0     C60485   3.219  11.172   2.182  0.4540 -0.0845 -0.3425
  449MOL0     C60486   3.088  11.224   2.174 -0.2267  0.2922  0.3802
  449MOL0     C60487   2.984  11.133   2.146  0.1963  0.1949  0.4005
  449MOL0     O60488   2.870  11.195   2.130  0.3803  0.1721 -0.4179
  449MOL0     C60489   2.779  11.185   2.246 -0.4460 -0.1554 -0.1107
  449MOL0     C60490   2.662  11.281   2.238  0.0890  0.2313  0.1857
  449MOL0     C60491   2.697  11.431   2.227 -0.2055 -0.6307  0.0516
  449MOL0     C60492   2.574  11.521   2.238 -0.4578 -0.1634  0.3807
  449MOL0     C60493   2.530  11.548   2.381 -0.3109  0.0547 -0.6688
  449MOL0     C60494   2.398  11.616   2.389  0.7181 -0.7908  0.3166
  449MOL0     C60495   2.363  11.728   2.285 -1.0136  0.2422 -0.1771
  449MOL0     C60496   2.226  11.794   2.325  0.1582  0.3807 -0.6860
  449MOL0     N60497   2.110  11.701   2.321 -0.0889 -0.5758  0.0329
  449MOL0     C60498   2.038  11.676   2.215 -0.5766  1.1106  0.2749
  449MOL0     C60499   1.934  11.587   2.258 -0.3169  0.4572  0.0472
  449MOL0     C60500   1.835  11.530   2.158  0.1618  0.9194  0.2049
  449MOL0     C60501   1.694  11.603   2.168 -0.5543 -0.3593  0.4524
  449MOL0     C60502   1.603  11.559   2.278 -0.0644 -0.0505 -0.1339
  449MOL0     C60503   1.460  11.616   2.258 -1.1119 -0.4813 -0.7434
  449MOL0     O60504   1.406  11.539   2.150  0.0841  0.0161 -0.2506
  449MOL0     C60505   1.274  11.550   2.137  0.0014  0.3912  0.8839
  449MOL0     C60506   1.217  11.655   2.073 -0.6689 -0.3842 -0.6536
  449MOL0     C60507   1.081  11.649   2.042  0.8253  0.3638 -0.2245
  449MOL0     C60508   1.026  11.759   1.950  0.2575 -0.1492 -0.5790
  449MOL0     C60509   0.999  11.542   2.087  1.0723 -0.1667  1.4672
  449MOL0     C60510   0.851  11.526   2.070  0.1052  0.2665 -0.2111
  449MOL0     O60511   0.785  11.635   2.018  0.1718  0.8993  0.2020
  449MOL0     C60512   0.653  11.637   1.985  0.6047 -0.5247 -0.5125
  449MOL0     C60513   0.606  11.731   1.897  0.2283  0.2604  0.1081
  449MOL0     C60514   0.471  11.751   1.861  0.7381 -0.3488 -0.5918
  449MOL0     C60515   0.365  11.683   1.920 -0.2251 -0.0361  0.7656
  449MOL0     O60516   0.229  11.707   1.901 -0.9146 -0.4768  0.7450
  449MOL0     C60517   0.196  11.809   1.801  0.2939  0.9279  0.2846
  449MOL0     C60518   0.038  11.810   1.801  0.8973  0.4247  0.3084
  449MOL0     C60519  -0.036  11.851   1.941 -0.5265  0.1873  1.1225
  449MOL0     C60520  -0.181  11.860   1.899  0.2199 -0.0825  0.2474
  449MOL0     C60521  -0.250  11.940   2.006  0.4758  0.0178 -0.2876
  449MOL0     C60522  -0.395  11.983   1.971  0.0889 -0.5907 -0.2364
  449MOL0     C60523  -0.450  12.084   2.067  0.1381 -0.4387 -0.7068
  449MOL0     C60524  -0.594  12.149   2.034 -0.1404 -0.9941  0.0338
  449MOL0    Cl60525  -0.691  12.202   2.169  0.0826  0.0814  0.1056
  449MOL0     C60526   0.414  11.590   2.015  0.6349 -0.1379 -0.3217
  449MOL0     C60527   0.547  11.563   2.048 -0.0795  0.9840  0.2357
  449MOL0     O60528   0.804  11.418   2.095 -0.2492  0.5981 -0.2481
  449MOL0     C60529   1.060  11.439   2.151  0.5752 -0.0066 -0.7648
  449MOL0     C60530   1.194  11.450   2.180  0.6888  0.6965 -0.4746
  449MOL0     N60531   1.963  11.558   2.387 -0.5813  0.2902 -0.4785
  449MOL0     N60532   2.059  11.628   2.426  0.2069 -0.2833  0.6024
  449MOL0     C60533   3.011  11.005   2.115 -0.3261  0.8654 -0.0999
  449MOL0     C60534   3.142  10.956   2.136 -0.1990  0.5615  0.1742
  449MOL0     C60535   3.599  10.955   2.288 -0.2552  0.7780  0.5376
  449MOL0     C60536   3.704  11.012   2.365 -0.3558 -0.1678 -0.5575
  449MOL0     C60537   3.828  10.945   2.363 -1.1018 -0.6509  0.7032
  449MOL0     C60538   3.849  10.839   2.279 -0.9285 -0.3579  0.4792
  449MOL0     O60539   3.975  10.794   2.262 -0.1265  0.6794  0.6261
  449MOL0     C60540   4.017  10.677   2.188  0.1806 -0.0446 -0.5505
  449MOL0     C60541   4.165  10.651   2.216 -0.1071 -1.1055 -0.5469
  449MOL0     C60542   4.186  10.621   2.370 -0.6342  0.1259  0.2554
  449MOL0     C60543   4.330  10.570   2.398  0.2409  0.4060 -1.0838
  449MOL0     C60544   4.404  10.647   2.503  0.1430  0.5540 -0.5455
  449MOL0     C60545   4.463  10.710   2.581  0.0753  0.1311 -0.0259
  449MOL0     C60546   3.746  10.781   2.215  0.0711 -1.0006  0.2159
  449MOL0     C60547   3.617  10.830   2.218  0.3959  0.0001  0.1528
  449MOL0     H60548   3.298  11.245   2.199  0.3651  0.0081 -0.3240
  449MOL0     H60549   3.074  11.327   2.203  4.8678  1.4690 -0.2930
  449MOL0     H60550   2.740  11.088   2.277 -0.1360  0.1173  1.2334
  449MOL0     H60551   2.835  11.220   2.334  1.6211  1.0829 -1.8319
  449MOL0     H60552   2.598  11.253   2.154 -0.7953 -1.2636  1.3212
  449MOL0     H60553   2.606  11.263   2.330 -0.7587  1.3793 -0.0766
  449MOL0     H60554   2.772  11.462   2.301  0.4117 -3.9698  0.9997
  449MOL0     H60555   2.747  11.443   2.130  1.7340  2.9690  1.2988
  449MOL0     H60556   2.600  11.617   2.194 -3.5701  0.0809 -1.2260
  449MOL0     H60557   2.493  11.477   2.179  0.6093  0.7248 -1.8393
  449MOL0     H60558   2.531  11.459   2.443  0.8961  0.4518 -0.0748
  449MOL0     H60559   2.604  11.607   2.436  1.9789 -3.0706 -0.1204
  449MOL0     H60560   2.318  11.547   2.359 -0.7813  0.6139  0.8981
  449MOL0     H60561   2.386  11.660   2.489  3.4414  2.3267 -0.5452
  449MOL0     H60562   2.437  11.808   2.290  0.9987 -1.6080  2.6332
  449MOL0     H60563   2.357  11.694   2.181  1.0597 -1.9154  0.3475
  449MOL0     H60564   2.207  11.872   2.252 -0.8712  0.5880 -0.2195
  449MOL0     H60565   2.227  11.845   2.422 -0.7487 -2.0961  0.7282
  449MOL0     H60566   2.059  11.710   2.114 -0.7948 -0.5502 -0.3650
  449MOL0     H60567   1.878  11.536   2.058 -3.2311  0.2998 -1.4475
  449MOL0     H60568   1.817  11.425   2.183  2.4939  0.6928  1.1388
  449MOL0     H60569   1.650  11.580   2.071  0.3837  2.3142 -0.6929
  449MOL0     H60570   1.698  11.712   2.164 -0.9634 -0.3278  0.7942
  449MOL0     H60571   1.644  11.599   2.372 -2.3246  1.6076  0.2079
  449MOL0     H60572   1.594  11.450   2.283 -1.0786 -0.0372 -1.3370
  449MOL0     H60573   1.455  11.724   2.242  1.1532  0.0035  1.2051
  449MOL0     H60574   1.407  11.599   2.353 -1.3991  2.1419 -0.3665
  449MOL0     H60575   1.279  11.740   2.048 -0.4115 -0.0063  1.0886
  449MOL0     H60576   0.943  11.815   1.994  0.1623 -1.3434  0.8498
  449MOL0     H60577   1.097  11.826   1.901  0.2301 -1.8952 -3.2309
  449MOL0     H60578   0.970  11.708   1.871  4.3121 -2.3911 -2.2986
  449MOL0     H60579   0.684  11.793   1.855  0.9509 -0.3874  0.4884
  449MOL0     H60580   0.444  11.823   1.784 -0.5386 -2.1000 -1.8571
  449MOL0     H60581   0.227  11.912   1.822  1.0779  0.7196  0.1616
  449MOL0     H60582   0.229  11.767   1.706 -2.4861  2.5343 -1.5219
  449MOL0     H60583   0.005  11.874   1.719 -2.0518 -1.3985 -0.0973
  449MOL0     H60584   0.006  11.706   1.785  4.0472 -0.4637 -1.0539
  449MOL0     H60585   0.002  11.948   1.973  0.2489  0.6388 -1.0244
  449MOL0     H60586  -0.009  11.779   2.019 -0.7047 -0.9184  0.1899
  449MOL0     H60587  -0.179  11.924   1.810 -2.3342  2.0470  1.5726
  449MOL0     H60588  -0.225  11.762   1.880 -1.1650  0.6250 -0.2865
  449MOL0     H60589  -0.199  12.035   2.026  1.1739 -0.2514 -0.7849
  449MOL0     H60590  -0.261  11.871   2.090 -1.3641 -1.8188 -1.9488
  449MOL0     H60591  -0.393  12.027   1.871 -0.5374  1.0079  0.4220
  449MOL0     H60592  -0.456  11.892   1.976 -0.7259 -0.0611 -0.3105
  449MOL0     H60593  -0.381  12.163   2.095 -0.0846  0.0454 -1.4967
  449MOL0     H60594  -0.464  12.018   2.153  0.2631 -0.2260 -0.5223
  449MOL0     H60595  -0.656  12.064   2.003 -0.0243 -1.1948  0.3452
  449MOL0     H60596  -0.582  12.229   1.961 -0.7500  2.0273  3.0262
  449MOL0     H60597   0.342  11.537   2.077  1.5072  2.0246  2.8022
  449MOL0     H60598   0.579  11.487   2.119  0.7663 -2.7253 -3.6591
  449MOL0     H60599   1.013  11.350   2.189  3.0847 -0.4220  1.7030
  449MOL0     H60600   1.244  11.366   2.227  0.8182  0.6807 -0.6377
  449MOL0     H60601   2.925  10.945   2.087 -1.2990  1.4641  1.4624
  449MOL0     H60602   3.149  10.847   2.133 -1.3204  0.4985 -2.0905
  449MOL0     H60603   3.691  11.107   2.416 -0.3517 -0.0855 -0.7100
  449MOL0     H60604   3.903  10.998   2.421 -1.0515  1.7911 -1.4613
  449MOL0     H60605   3.967  10.590   2.231  1.0360  0.2179  1.0397
  449MOL0     H60606   3.997  10.687   2.080 -1.8197  5.1290 -0.0218
  449MOL0     H60607   4.229  10.735   2.190 -0.9303  0.0229  0.9342
  449MOL0     H60608   4.199  10.560   2.165  5.4573  0.5063 -0.3982
  449MOL0     H60609   4.124  10.540   2.408  0.2297 -0.4044  0.5466
  449MOL0     H60610   4.170  10.714   2.426  0.6582  1.2808 -1.2345
  449MOL0     H60611   4.384  10.564   2.303 -1.1795 -4.4749 -1.8189
  449MOL0     H60612   4.323  10.465   2.428 -0.5048  0.9039  0.6116
  449MOL0     H60613   4.511  10.757   2.664  2.7453  0.2785 -1.5441
  449MOL0     H60614   3.765  10.690   2.159 -1.5510 -0.6368 -1.0140
  449MOL0     H60615   3.541  10.778   2.161  0.5983  1.2365 -1.3119
  450MOL0     O60616   4.557   8.188   3.273  0.1685 -0.2550 -0.1349
  450MOL0     C60617   4.553   8.082   3.335 -0.3779 -0.9222  0.5773
  450MOL0     O60618   4.437   8.031   3.390 -0.1993 -0.1633 -0.2387
  450MOL0     C60619   4.324   8.105   3.371  0.3668 -1.0307  0.1705
  450MOL0     C60620   4.234   8.060   3.276  1.1818 -0.5145 -0.0979
  450MOL0     C60621   4.121   8.132   3.241  0.4056  0.3012 -0.3251
  450MOL0     C60622   4.096   8.257   3.290  0.7493 -0.0899 -0.3619
  450MOL0     O60623   3.984   8.329   3.247  0.0147  0.4428  0.2058
  450MOL0     C60624   3.954   8.456   3.299 -0.0355  0.4066  0.5630
  450MOL0     C60625   3.823   8.527   3.248 -0.3571  0.2210 -0.3413
  450MOL0     C60626   3.697   8.476   3.311  0.2450  0.2416 -0.4510
  450MOL0     C60627   3.589   8.559   3.256 -0.2357  0.7321 -0.2585
  450MOL0     C60628   3.446   8.517   3.302  0.2335 -0.5259 -0.3490
  450MOL0     C60629   3.404   8.370   3.288 -0.2890  0.0615  0.0947
  450MOL0     C60630   3.259   8.360   3.343 -1.2597 -0.4141 -0.7866
  450MOL0     C60631   3.151   8.417   3.254  0.8887 -0.5780  0.3821
  450MOL0     N60632   3.014   8.374   3.281  0.5347  1.0396 -0.1140
  450MOL0     C60633   2.921   8.374   3.181 -0.5927  0.0842  1.1070
  450MOL0     C60634   2.810   8.306   3.227  0.3534 -0.0759  0.5880
  450MOL0     C60635   2.670   8.284   3.167 -0.2053  0.0906 -0.3135
  450MOL0     C60636   2.563   8.246   3.269 -0.1145 -0.3167 -0.1377
  450MOL0     C60637   2.424   8.240   3.206 -0.1160 -0.1957  1.1474
  450MOL0     C60638   2.312   8.275   3.305  0.2987  0.6696  0.1520
  450MOL0     O60639   2.184   8.256   3.234  0.1014  0.5433  0.0722
  450MOL0     C60640   2.069   8.235   3.306  0.2347 -0.1670  0.1960
  450MOL0     C60641   1.952   8.240   3.233 -0.7858  0.4694 -0.8062
  450MOL0     C60642   1.826   8.210   3.283  0.3431  0.0656 -0.2101
  450MOL0     C60643   1.707   8.219   3.179  0.1361  0.2436 -0.1036
  450MOL0     C60644   1.812   8.185   3.426 -0.2971 -0.3351  0.1275
  450MOL0     C60645   1.682   8.169   3.481  0.9592  0.0496 -0.5476
  450MOL0     O60646   1.577   8.149   3.404  0.1183  0.3734 -0.0495
  450MOL0     C60647   1.460   8.109   3.473 -0.7162 -0.5532  0.4468
  450MOL0     C60648   1.372   8.213   3.514  0.2221 -0.2447 -0.5716
  450MOL0     C60649   1.251   8.191   3.576 -0.1806  0.2006  0.6156
  450MOL0     C60650   1.216   8.057   3.605  0.3586  0.5488  0.2998
  450MOL0     O60651   1.091   8.015   3.644 -0.2039  0.2629 -0.1186
  450MOL0     C60652   0.969   8.085   3.611 -1.0767  1.1848 -0.5526
  450MOL0     C60653   0.864   7.981   3.590  0.2894  0.2799  0.0993
  450MOL0     C60654   0.822   7.924   3.720 -0.0718 -0.1493  0.4099
  450MOL0     C60655   0.708   7.825   3.699  1.0890  0.3579 -0.2909
  450MOL0     C60656   0.637   7.785   3.827 -0.7063 -0.7469 -0.9166
  450MOL0     C60657   0.500   7.729   3.806 -0.6439  0.0331 -0.1412
  450MOL0     C60658   0.439   7.688   3.940 -0.2799  0.3781 -0.1667
  450MOL0     C60659   0.294   7.646   3.920  0.4754 -0.6312  0.0596
  450MOL0    Cl60660   0.279   7.545   3.773  0.4864  0.3142 -0.1072
  450MOL0     C60661   1.314   7.954   3.585  0.3022  1.5240 -0.6931
  450MOL0     C60662   1.435   7.980   3.515  0.3761 -0.2541  0.1350
  450MOL0     O60663   1.676   8.184   3.601  0.0060  0.4075  0.3644
  450MOL0     C60664   1.932   8.179   3.506  0.7852  0.0814 -0.3473
  450MOL0     C60665   2.059   8.194   3.443 -0.3317  0.1158  0.3694
  450MOL0     N60666   2.847   8.270   3.354 -0.2213 -0.0794 -0.0303
  450MOL0     N60667   2.973   8.295   3.378 -0.2807 -0.3906 -0.1653
  450MOL0     C60668   4.187   8.305   3.387 -0.8333  0.7350 -0.6621
  450MOL0     C60669   4.299   8.231   3.426 -0.1314  0.0729 -0.1703
  450MOL0     C60670   4.675   7.992   3.338 -0.5134 -0.5030 -1.1750
  450MOL0     C60671   4.672   7.885   3.430  0.3811 -0.9683  0.3498
  450MOL0     C60672   4.786   7.797   3.444  0.9535  0.2603  0.2707
  450MOL0     C60673   4.892   7.804   3.353 -0.2146 -0.6024  0.1112
  450MOL0     O60674   5.003   7.726   3.365 -0.7484  0.1504 -0.6954
  450MOL0     C60675   5.077   7.705   3.489  0.0545  0.0649  0.1017
  450MOL0     C60676   5.131   7.840   3.536 -0.2264 -0.2917 -0.8046
  450MOL0     C60677   5.249   7.882   3.453 -0.2626 -0.3953 -0.3641
  450MOL0     C60678   5.320   8.008   3.508  0.4058  0.4019 -0.0655
  450MOL0     C60679   5.234   8.119   3.525 -1.1552 -0.0581  0.7403
  450MOL0     C60680   5.170   8.219   3.528  0.1807  0.7210 -1.2452
  450MOL0     C60681   4.891   7.910   3.249  0.7957  0.7625 -0.4787
  450MOL0     C60682   4.786   8.007   3.256  0.1141  0.1375 -0.4381
  450MOL0     H60683   4.248   7.962   3.232  3.0572  0.1681 -1.1262
  450MOL0     H60684   4.055   8.105   3.159 -4.0350  1.1007  2.6299
  450MOL0     H60685   3.957   8.451   3.408 -0.3264  2.7916  0.7230
  450MOL0     H60686   4.032   8.525   3.265 -0.3902 -0.3298 -1.9920
  450MOL0     H60687   3.833   8.634   3.267  2.0077  0.1029 -0.6605
  450MOL0     H60688   3.819   8.523   3.139 -1.8435  1.4707 -0.3768
  450MOL0     H60689   3.690   8.368   3.291 -0.3957 -0.6568  3.7369
  450MOL0     H60690   3.699   8.489   3.419  1.1556  1.0150 -0.5531
  450MOL0     H60691   3.610   8.661   3.288 -2.2994  0.5196  2.1036
  450MOL0     H60692   3.584   8.556   3.147  0.3402  2.8192 -0.3796
  450MOL0     H60693   3.437   8.539   3.408  0.2311 -0.7865 -0.2955
  450MOL0     H60694   3.364   8.574   3.256  1.6260  0.2662 -1.9882
  450MOL0     H60695   3.393   8.346   3.182 -5.2897 -1.1368  0.5954
  450MOL0     H60696   3.478   8.305   3.335 -1.8315 -1.6964  0.2519
  450MOL0     H60697   3.232   8.255   3.357 -0.8984 -0.9309 -3.4173
  450MOL0     H60698   3.245   8.406   3.441  0.2699 -0.1875 -0.6589
  450MOL0     H60699   3.180   8.386   3.153  1.9295 -1.5471  0.9504
  450MOL0     H60700   3.146   8.526   3.249  0.5007 -0.3917  3.3696
  450MOL0     H60701   2.923   8.428   3.088  0.6645 -2.1597 -0.2530
  450MOL0     H60702   2.640   8.363   3.098 -2.4058 -0.7379 -0.4059
  450MOL0     H60703   2.687   8.189   3.115 -0.4275 -1.9734  3.0696
  450MOL0     H60704   2.567   8.320   3.349 -1.8134 -2.4223  1.9974
  450MOL0     H60705   2.592   8.158   3.326 -0.0791  0.5545  1.2525
  450MOL0     H60706   2.405   8.143   3.160 -0.6241  0.6879 -0.5977
  450MOL0     H60707   2.417   8.311   3.123 -0.4125 -2.4861 -0.9200
  450MOL0     H60708   2.323   8.371   3.356  2.2388 -0.6674  2.4739
  450MOL0     H60709   2.319   8.200   3.384  1.6820  0.3139 -0.2834
  450MOL0     H60710   1.964   8.270   3.130  0.0437  1.6262 -0.3899
  450MOL0     H60711   1.743   8.252   3.081 -0.1273  0.0555 -0.2658
  450MOL0     H60712   1.654   8.124   3.168  0.3661  0.1753 -0.6626
  450MOL0     H60713   1.627   8.279   3.223  1.7107  0.9679  1.9133
  450MOL0     H60714   1.394   8.316   3.490 -1.3349 -0.2517 -2.2678
  450MOL0     H60715   1.183   8.272   3.597  0.3664  0.9683 -0.4894
  450MOL0     H60716   0.941   8.145   3.697  0.2883 -0.3496  1.0372
  450MOL0     H60717   0.977   8.147   3.521  1.4924 -0.7900 -1.8239
  450MOL0     H60718   0.791   8.026   3.522  2.2020  1.2704 -1.3883
  450MOL0     H60719   0.916   7.898   3.541  0.4659  0.4017  0.0801
  450MOL0     H60720   0.775   7.996   3.789 -1.5139 -3.1783  2.8507
  450MOL0     H60721   0.911   7.877   3.761 -0.4784 -1.1355  0.1801
  450MOL0     H60722   0.629   7.870   3.637  2.1805  0.7471 -1.4448
  450MOL0     H60723   0.747   7.739   3.643 -0.4554 -0.5794  0.0054
  450MOL0     H60724   0.628   7.869   3.898  1.0541 -1.1920 -0.1116
  450MOL0     H60725   0.702   7.714   3.879  0.8845  0.8940 -0.5666
  450MOL0     H60726   0.431   7.798   3.755  0.5806  0.0950 -1.8308
  450MOL0     H60727   0.521   7.647   3.737 -0.6722  0.5951 -0.8461
  450MOL0     H60728   0.448   7.766   4.015 -1.6529  1.0667 -0.6882
  450MOL0     H60729   0.494   7.611   3.995  1.7297  1.7802 -0.1118
  450MOL0     H60730   0.219   7.723   3.903  0.3600 -0.6839  0.3209
  450MOL0     H60731   0.261   7.596   4.012  1.7403  0.9070  1.4310
  450MOL0     H60732   1.280   7.856   3.618 -2.3386  2.7415  0.5338
  450MOL0     H60733   1.512   7.910   3.486 -1.1489 -0.8975 -2.7078
  450MOL0     H60734   1.919   8.147   3.609 -0.4123 -1.6180 -0.9645
  450MOL0     H60735   2.148   8.175   3.502 -0.9088 -1.2762  0.8234
  450MOL0     H60736   4.177   8.395   3.446  0.2572  0.2673  0.2905
  450MOL0     H60737   4.360   8.263   3.510 -1.5513  1.3522  0.4194
  450MOL0     H60738   4.591   7.867   3.499  2.7488 -2.1854  3.0095
  450MOL0     H60739   4.786   7.734   3.532 -0.2772  1.2891  1.0405
  450MOL0     H60740   5.013   7.650   3.558  0.8189 -1.2586 -0.2107
  450MOL0     H60741   5.156   7.632   3.471 -1.5136 -1.9001  0.7773
  450MOL0     H60742   5.169   7.836   3.639 -3.7703  1.8693  0.7633
  450MOL0     H60743   5.049   7.911   3.530 -0.1789 -0.1149  0.3346
  450MOL0     H60744   5.216   7.891   3.349 -3.4695  2.3255  0.6887
  450MOL0     H60745   5.317   7.798   3.468  0.2399 -0.0322 -0.5867
  450MOL0     H60746   5.397   8.030   3.434 -1.1193 -0.6929 -2.0823
  450MOL0     H60747   5.374   7.976   3.597  0.3953  2.6321  0.8144
  450MOL0     H60748   5.122   8.314   3.529 -0.1818  0.5787  1.0332
  450MOL0     H60749   4.970   7.932   3.179  2.5335 -1.3452  0.6925
  450MOL0     H60750   4.781   8.082   3.178  1.4633 -1.6771 -2.3933
  451MOL0     O60751   5.730   0.799   7.457 -0.0223 -0.1477 -0.7026
  451MOL0     C60752   5.787   0.861   7.371 -0.4828  0.3033  0.3772
  451MOL0     O60753   5.732   0.932   7.270  0.3873  0.2619 -0.1780
  451MOL0     C60754   5.600   0.954   7.247 -0.4217  0.1353 -0.2095
  451MOL0     C60755   5.504   0.859   7.271 -0.0330 -0.6076  0.8749
  451MOL0     C60756   5.371   0.875   7.234  0.9682  0.7044  0.4149
  451MOL0     C60757   5.328   0.993   7.179  0.6346  0.5209  0.6263
  451MOL0     O60758   5.189   1.002   7.155  0.7573  0.0122  0.5674
  451MOL0     C60759   5.155   1.108   7.057 -0.3789  0.4237  0.0876
  451MOL0     C60760   5.010   1.081   7.015 -0.2117 -0.5951  0.5449
  451MOL0     C60761   4.911   1.072   7.133 -0.4122 -0.9275 -0.9807
  451MOL0     C60762   4.770   1.097   7.074  0.0724  0.0900  0.4532
  451MOL0     C60763   4.658   1.094   7.179 -0.4674 -0.6239  0.5901
  451MOL0     C60764   4.519   1.087   7.114  0.2115 -0.2738 -0.0076
  451MOL0     C60765   4.486   1.183   6.998 -0.4117 -0.8115 -0.0275
  451MOL0     C60766   4.332   1.198   6.976  0.0558 -0.1347  0.7689
  451MOL0     N60767   4.276   1.061   6.958  0.3148  0.3663 -0.8256
  451MOL0     C60768   4.211   0.983   7.048 -0.4767  0.0367  0.7999
  451MOL0     C60769   4.210   0.862   6.995  0.3579 -0.1379  0.0656
  451MOL0     C60770   4.154   0.738   7.067 -0.0981  0.2555 -0.3178
  451MOL0     C60771   4.018   0.753   7.138  0.5989 -0.6968  0.2257
  451MOL0     C60772   3.909   0.789   7.036  0.5592 -0.9683 -1.6844
  451MOL0     C60773   3.776   0.812   7.105  0.8877 -1.1969 -0.3912
  451MOL0     O60774   3.776   0.939   7.185  1.2931 -0.5906 -0.2368
  451MOL0     C60775   3.660   0.977   7.252  0.9211  0.7133 -0.7509
  451MOL0     C60776   3.545   0.884   7.254  1.4822 -0.8704  0.0018
  451MOL0     C60777   3.430   0.920   7.328  0.5012  0.0107 -0.8372
  451MOL0     C60778   3.322   0.823   7.333  0.1087 -0.4796  0.7899
  451MOL0     C60779   3.422   1.051   7.392  0.6448 -0.4527  0.4537
  451MOL0     C60780   3.306   1.095   7.474  0.1129  0.7542 -0.3735
  451MOL0     O60781   3.184   1.119   7.410 -0.6254 -0.0346  0.2012
  451MOL0     C60782   3.083   1.146   7.497 -0.5144  0.1165 -0.2146
  451MOL0     C60783   2.989   1.233   7.449 -0.5315 -0.6658  0.4048
  451MOL0     C60784   2.871   1.257   7.521  0.1539 -0.5617 -0.3407
  451MOL0     C60785   2.835   1.194   7.639  0.1511  0.6585  0.3553
  451MOL0     O60786   2.718   1.213   7.710 -0.6304 -0.1753  0.0316
  451MOL0     C60787   2.677   1.351   7.737  0.9338  0.0398  0.2498
  451MOL0     C60788   2.614   1.355   7.873  0.7986 -0.3105 -0.1175
  451MOL0     C60789   2.650   1.233   7.965 -1.0091 -0.3267  0.1003
  451MOL0     C60790   2.631   1.260   8.115  0.2299  0.4363  0.5087
  451MOL0     C60791   2.685   1.136   8.184 -0.2016 -0.3636  0.6520
  451MOL0     C60792   2.666   1.141   8.334  0.8149  0.4171  0.0008
  451MOL0     C60793   2.706   1.011   8.407  0.2688 -0.1383  0.8723
  451MOL0     C60794   2.745   1.034   8.548  0.1591  0.5765 -0.8637
  451MOL0    Cl60795   2.600   1.101   8.641 -0.4226 -0.0660  0.0315
  451MOL0     C60796   2.931   1.112   7.692  0.4667 -0.5986 -0.3229
  451MOL0     C60797   3.051   1.086   7.625  0.2138 -0.3168  0.1105
  451MOL0     O60798   3.328   1.127   7.595 -0.7049 -0.0267  0.9040
  451MOL0     C60799   3.522   1.141   7.379 -0.3484 -0.1017 -0.3904
  451MOL0     C60800   3.640   1.101   7.312 -0.2251 -0.7622 -0.1986
  451MOL0     N60801   4.255   0.868   6.863  0.0196 -0.1321 -0.4506
  451MOL0     N60802   4.302   0.985   6.853 -0.0160  0.2181 -0.1181
  451MOL0     C60803   5.426   1.082   7.135 -0.3146 -0.2250  0.4922
  451MOL0     C60804   5.559   1.072   7.178 -0.2359  0.0025  0.3550
  451MOL0     C60805   5.940   0.846   7.359 -0.6524 -0.3815 -0.0069
  451MOL0     C60806   6.004   0.879   7.230  0.2595 -0.7402 -1.0428
  451MOL0     C60807   6.144   0.883   7.236  0.3179 -0.3529 -0.7508
  451MOL0     C60808   6.225   0.846   7.349  0.7245  0.2326 -0.6005
  451MOL0     O60809   6.364   0.846   7.353 -0.6204 -0.2865  0.5676
  451MOL0     C60810   6.446   0.887   7.237  0.7211 -0.9332  0.8511
  451MOL0     C60811   6.592   0.850   7.243 -0.1036 -0.0935  0.1542
  451MOL0     C60812   6.663   0.946   7.334 -0.4297  1.3969 -0.3614
  451MOL0     C60813   6.821   0.944   7.316 -0.1977  0.4807 -0.5845
  451MOL0     C60814   6.870   0.810   7.324 -0.5037  0.3889  0.0294
  451MOL0     C60815   6.912   0.699   7.336  0.0663 -0.3270 -0.4881
  451MOL0     C60816   6.156   0.804   7.463 -0.4728  1.1595 -0.4803
  451MOL0     C60817   6.017   0.808   7.475 -0.2794  0.6629 -0.6423
  451MOL0     H60818   5.516   0.780   7.345 -0.0429  1.0426  2.7218
  451MOL0     H60819   5.304   0.793   7.257  1.5722 -0.7351 -2.4968
  451MOL0     H60820   5.161   1.206   7.105 -0.0033 -0.0661  1.0749
  451MOL0     H60821   5.223   1.112   6.971 -0.9555  3.0577 -0.3299
  451MOL0     H60822   4.976   1.161   6.949 -3.1545 -1.4802  0.8219
  451MOL0     H60823   5.003   0.989   6.957 -4.6019 -0.6902  0.8690
  451MOL0     H60824   4.921   0.984   7.198 -3.8690 -0.4367  0.4100
  451MOL0     H60825   4.925   1.157   7.201 -1.8971 -1.5852  0.1960
  451MOL0     H60826   4.775   1.190   7.017  3.1265 -1.1606 -1.5449
  451MOL0     H60827   4.760   1.011   7.007  0.1098  1.0205 -0.7781
  451MOL0     H60828   4.670   1.006   7.243  1.4976 -0.5723  0.3342
  451MOL0     H60829   4.667   1.181   7.246  1.8570  0.2932 -0.8027
  451MOL0     H60830   4.502   0.985   7.079 -2.5159  0.1077 -0.0106
  451MOL0     H60831   4.449   1.095   7.198  1.0724  0.8747  0.6339
  451MOL0     H60832   4.519   1.284   7.025 -3.0155  1.0364 -3.0506
  451MOL0     H60833   4.525   1.160   6.899 -1.2659  0.5677 -0.7063
  451MOL0     H60834   4.307   1.255   6.886  1.8252  0.0171  0.3348
  451MOL0     H60835   4.300   1.270   7.053  1.8222  3.2471 -1.3827
  451MOL0     H60836   4.180   1.016   7.147  1.3468  1.2010  1.0337
  451MOL0     H60837   4.148   0.656   6.996  0.6547  1.5804 -1.9717
  451MOL0     H60838   4.228   0.715   7.144 -2.9195 -0.8543  2.2863
  451MOL0     H60839   4.029   0.833   7.212  2.3613  0.0374 -0.8011
  451MOL0     H60840   3.988   0.665   7.196  0.3048  0.2997  1.6400
  451MOL0     H60841   3.892   0.707   6.966  3.6384 -0.1241 -3.6302
  451MOL0     H60842   3.932   0.885   6.988 -2.7942  1.0082  0.2381
  451MOL0     H60843   3.752   0.728   7.170 -3.2196 -2.4739 -3.2026
  451MOL0     H60844   3.705   0.819   7.022  2.9482 -1.1344 -2.2607
  451MOL0     H60845   3.553   0.788   7.203  2.4575  0.1983 -1.9757
  451MOL0     H60846   3.301   0.798   7.437  1.2875 -0.0478  1.1548
  451MOL0     H60847   3.234   0.877   7.295  1.8218  0.4450 -2.2512
  451MOL0     H60848   3.342   0.733   7.274  2.5550  0.6702 -0.3010
  451MOL0     H60849   3.009   1.292   7.360 -1.8525  0.1444  0.6291
  451MOL0     H60850   2.795   1.325   7.483  1.0810  0.8670  0.2888
  451MOL0     H60851   2.769   1.411   7.735  1.5684 -0.9069 -0.9430
  451MOL0     H60852   2.612   1.392   7.659  1.2165 -1.0108 -0.5612
  451MOL0     H60853   2.637   1.449   7.924 -3.4585 -0.4433  2.5648
  451MOL0     H60854   2.506   1.361   7.857  0.8043 -1.6480 -0.7503
  451MOL0     H60855   2.752   1.208   7.936  1.0124  4.1556  2.3982
  451MOL0     H60856   2.587   1.146   7.947  0.1187 -1.0565 -0.4454
  451MOL0     H60857   2.676   1.352   8.152  1.3982 -0.3102  0.9977
  451MOL0     H60858   2.525   1.275   8.137 -0.1467 -0.5096 -0.5289
  451MOL0     H60859   2.793   1.135   8.168 -0.4273 -0.5839 -1.0482
  451MOL0     H60860   2.657   1.041   8.139 -0.1986  0.4890 -1.2518
  451MOL0     H60861   2.730   1.224   8.365  1.7829 -0.5011  0.5627
  451MOL0     H60862   2.560   1.162   8.351  0.7292 -1.2617  2.0011
  451MOL0     H60863   2.802   0.987   8.360  1.4184  4.2905  0.4802
  451MOL0     H60864   2.635   0.929   8.398 -0.9633  0.5676  3.3358
  451MOL0     H60865   2.831   1.102   8.543  2.2019 -1.6127  1.4066
  451MOL0     H60866   2.766   0.938   8.595  1.3696  0.3332 -1.8440
  451MOL0     H60867   2.908   1.063   7.787  2.8055 -0.2426  0.5015
  451MOL0     H60868   3.118   1.017   7.676 -2.0555 -1.3559  1.8728
  451MOL0     H60869   3.511   1.240   7.423 -0.3971 -0.0776 -0.4558
  451MOL0     H60870   3.708   1.185   7.308  0.5302 -1.3880 -0.8185
  451MOL0     H60871   5.405   1.177   7.086 -1.5676 -1.3294 -1.2319
  451MOL0     H60872   5.634   1.148   7.163 -2.7370  2.2374 -1.8944
  451MOL0     H60873   5.950   0.914   7.143 -3.9045  0.8941  1.8367
  451MOL0     H60874   6.195   0.926   7.151 -1.0051 -0.3802 -1.5815
  451MOL0     H60875   6.406   0.836   7.149  0.0727  2.2285 -0.8193
  451MOL0     H60876   6.439   0.994   7.219 -0.1216 -1.1694 -0.3964
  451MOL0     H60877   6.640   0.866   7.146 -0.0253 -0.6168  0.1011
  451MOL0     H60878   6.594   0.743   7.267 -1.0743  0.0143  0.7648
  451MOL0     H60879   6.629   0.912   7.433 -0.9690 -0.0771 -1.0159
  451MOL0     H60880   6.624   1.048   7.332  0.7125  1.8619  0.3847
  451MOL0     H60881   6.875   1.013   7.381 -1.0419  1.3847 -0.8073
  451MOL0     H60882   6.849   0.984   7.218 -0.9097 -1.4015 -1.6248
  451MOL0     H60883   6.952   0.602   7.356  0.1712 -0.4056 -1.0674
  451MOL0     H60884   6.211   0.753   7.541 -2.8843  0.3340  0.7835
  451MOL0     H60885   5.972   0.783   7.570 -1.6046  2.2088 -0.8275
  452MOL0     O60886   6.943   5.501   5.626 -0.7830 -1.0537 -0.1349
  452MOL0     C60887   6.961   5.386   5.592  0.9115  0.6304 -0.2180
  452MOL0     O60888   6.874   5.312   5.518 -0.3313 -0.5061  0.2913
  452MOL0     C60889   6.755   5.364   5.487 -0.7708 -0.3258  0.4280
  452MOL0     C60890   6.670   5.422   5.579  0.2342  0.0733 -0.1815
  452MOL0     C60891   6.539   5.464   5.548 -0.3677  0.7753  0.3591
  452MOL0     C60892   6.502   5.445   5.415 -0.0910 -0.7004 -0.0912
  452MOL0     O60893   6.377   5.487   5.380  0.5235  0.2130 -0.5160
  452MOL0     C60894   6.260   5.437   5.443  0.4849 -0.7786  0.1593
  452MOL0     C60895   6.204   5.566   5.507 -0.4289 -0.1219 -0.1003
  452MOL0     C60896   6.061   5.524   5.558  0.4428 -0.5011 -0.7587
  452MOL0     C60897   5.975   5.639   5.618  0.7571 -0.0759 -0.3979
  452MOL0     C60898   5.841   5.603   5.659  0.1290  0.1323  0.5487
  452MOL0     C60899   5.768   5.710   5.728 -1.5051  0.3927 -0.5231
  452MOL0     C60900   5.794   5.716   5.877  0.1542 -0.1171  0.0764
  452MOL0     C60901   5.685   5.799   5.949 -0.2391 -0.2060 -0.3523
  452MOL0     N60902   5.549   5.736   5.945  0.2718  0.1303 -0.8348
  452MOL0     C60903   5.514   5.625   6.023  0.3941 -0.3438  0.3902
  452MOL0     C60904   5.396   5.585   5.985  0.8269 -0.6412 -0.3523
  452MOL0     C60905   5.311   5.477   6.046  0.1650 -0.3264  0.3004
  452MOL0     C60906   5.155   5.517   6.070  0.1606  0.4236  0.2752
  452MOL0     C60907   5.067   5.558   5.943  0.9917 -0.1472  0.2126
  452MOL0     C60908   4.922   5.548   5.976  0.2540  0.1593  0.1980
  452MOL0     O60909   4.839   5.515   5.864  0.0762 -0.1602  0.3424
  452MOL0     C60910   4.706   5.513   5.887  0.2687  0.7036 -0.0362
  452MOL0     C60911   4.636   5.506   6.011  0.0125  0.2415 -0.0851
  452MOL0     C60912   4.503   5.464   6.027 -0.0598 -0.4571 -0.5342
  452MOL0     C60913   4.443   5.452   6.161 -0.0775  0.0717 -0.1601
  452MOL0     C60914   4.429   5.466   5.908 -0.0033  0.5989  0.2214
  452MOL0     C60915   4.276   5.443   5.904 -0.8172 -0.5836  0.2400
  452MOL0     O60916   4.232   5.400   5.781  0.6234 -0.3579  0.3598
  452MOL0     C60917   4.107   5.351   5.754 -0.0236 -0.2305  0.3607
  452MOL0     C60918   4.014   5.316   5.847  0.4472  0.4505 -0.2338
  452MOL0     C60919   3.882   5.279   5.806 -0.3898 -0.0018  0.6215
  452MOL0     C60920   3.838   5.276   5.669  0.3055 -0.3012 -0.4509
  452MOL0     O60921   3.710   5.252   5.625 -0.9796 -0.8110  0.0218
  452MOL0     C60922   3.616   5.207   5.719  0.7946  0.4601 -0.2864
  452MOL0     C60923   3.489   5.140   5.647 -1.0720 -0.4891 -0.2374
  452MOL0     C60924   3.401   5.060   5.751  0.9632  0.7438 -0.3946
  452MOL0     C60925   3.358   5.133   5.880  0.3007  0.4219 -0.1195
  452MOL0     C60926   3.291   5.052   5.983  0.1584  0.1118 -0.1577
  452MOL0     C60927   3.285   5.111   6.126 -0.2453  0.0770 -0.4024
  452MOL0     C60928   3.196   5.241   6.142  0.2325  0.1701  0.7219
  452MOL0     C60929   3.046   5.218   6.125  0.0950 -0.1341  0.2336
  452MOL0    Cl60930   2.967   5.141   6.268 -0.2775 -0.2571 -0.0724
  452MOL0     C60931   3.933   5.299   5.574 -0.3483 -0.3900  1.3412
  452MOL0     C60932   4.061   5.332   5.615  0.6978 -0.4027  0.0828
  452MOL0     O60933   4.205   5.471   6.003 -0.0005 -0.0736  0.6878
  452MOL0     C60934   4.495   5.478   5.788  0.4466 -0.2375  0.5681
  452MOL0     C60935   4.625   5.508   5.774  0.0150  0.0901 -0.0891
  452MOL0     N60936   5.363   5.674   5.882 -0.3716  0.4895  0.0002
  452MOL0     N60937   5.450   5.760   5.857 -0.6917  0.1501  0.0099
  452MOL0     C60938   6.587   5.402   5.319  0.6099  1.0215  0.6306
  452MOL0     C60939   6.712   5.359   5.351 -1.4347  0.1005 -0.8441
  452MOL0     C60940   7.087   5.325   5.628  0.4672 -0.1163  0.0704
  452MOL0     C60941   7.195   5.407   5.680  0.4891 -0.4377  0.6118
  452MOL0     C60942   7.313   5.341   5.727  0.1323 -0.3529 -0.5963
  452MOL0     C60943   7.321   5.204   5.731  0.8152  0.4544  0.0769
  452MOL0     O60944   7.431   5.151   5.787  0.4282  0.1875 -0.6885
  452MOL0     C60945   7.407   5.025   5.856  0.9782 -1.0374 -0.3463
  452MOL0     C60946   7.519   4.977   5.942  0.2076  0.0288  0.3928
  452MOL0     C60947   7.578   5.080   6.042 -0.7054  0.3843 -0.1116
  452MOL0     C60948   7.701   5.036   6.124  0.1963 -0.2613  0.4529
  452MOL0     C60949   7.691   5.129   6.237 -1.2241  0.6788 -0.6537
  452MOL0     C60950   7.696   5.197   6.334 -1.2697  0.2946 -0.2946
  452MOL0     C60951   7.212   5.117   5.673 -0.7350  0.1394 -0.0842
  452MOL0     C60952   7.103   5.185   5.619 -0.4340  0.0173  0.2244
  452MOL0     H60953   6.705   5.423   5.682  1.5606 -2.1363 -0.5448
  452MOL0     H60954   6.470   5.489   5.629 -3.0020  0.5126 -1.6445
  452MOL0     H60955   6.196   5.388   5.369 -1.4660 -1.7093  2.3362
  452MOL0     H60956   6.271   5.360   5.520 -1.9058 -0.1798  1.1929
  452MOL0     H60957   6.263   5.592   5.595 -0.6487 -0.7074  0.2244
  452MOL0     H60958   6.190   5.651   5.440  0.1525  0.1539  0.1208
  452MOL0     H60959   6.010   5.491   5.467  0.8524 -2.0281 -0.4633
  452MOL0     H60960   6.066   5.452   5.640  1.0352  1.9861  1.5220
  452MOL0     H60961   6.013   5.671   5.715 -5.4095 -0.3047  2.5485
  452MOL0     H60962   5.968   5.722   5.546  2.5776 -0.3534 -0.9594
  452MOL0     H60963   5.786   5.565   5.572 -0.4922 -0.0758  1.0307
  452MOL0     H60964   5.860   5.520   5.727  0.1501 -0.5173 -0.2401
  452MOL0     H60965   5.796   5.804   5.680 -0.0763  0.9483  1.3031
  452MOL0     H60966   5.663   5.695   5.699 -1.0580  0.0540 -2.0431
  452MOL0     H60967   5.782   5.616   5.920 -0.0666  0.1234  0.5802
  452MOL0     H60968   5.887   5.765   5.906 -1.1825  2.0546  0.9662
  452MOL0     H60969   5.690   5.898   5.904 -0.5441 -0.6850 -1.4804
  452MOL0     H60970   5.718   5.812   6.053  2.8171  0.1570 -1.2474
  452MOL0     H60971   5.584   5.593   6.100  0.2872  0.0334  0.6460
  452MOL0     H60972   5.307   5.381   5.993  2.1614 -0.4095  0.1964
  452MOL0     H60973   5.359   5.471   6.144  1.2197 -0.4009 -0.1989
  452MOL0     H60974   5.150   5.607   6.132 -0.3195  0.9308 -0.4792
  452MOL0     H60975   5.102   5.440   6.126 -0.0220  1.3875  1.4797
  452MOL0     H60976   5.087   5.479   5.871 -3.9269 -1.0875 -0.4990
  452MOL0     H60977   5.093   5.654   5.897 -1.0096  0.0522 -0.6067
  452MOL0     H60978   4.901   5.648   6.016 -2.6644  0.9044 -2.7655
  452MOL0     H60979   4.911   5.466   6.048 -1.4885  1.2548  1.2562
  452MOL0     H60980   4.695   5.525   6.100  0.6297  1.9603 -0.8009
  452MOL0     H60981   4.383   5.361   6.174 -2.4869  1.7236  1.0345
  452MOL0     H60982   4.513   5.445   6.245  0.0581 -1.3864 -0.3765
  452MOL0     H60983   4.394   5.547   6.185  0.1705 -0.0990  1.1084
  452MOL0     H60984   4.030   5.324   5.955 -0.9234 -2.3326  0.2674
  452MOL0     H60985   3.802   5.266   5.878  0.5211 -1.0732  1.4718
  452MOL0     H60986   3.649   5.126   5.784  0.7530  0.5121 -0.2004
  452MOL0     H60987   3.576   5.294   5.773  0.2969 -1.4011  2.5594
  452MOL0     H60988   3.432   5.219   5.598 -1.2677 -0.7421 -0.4154
  452MOL0     H60989   3.530   5.071   5.572  0.1528 -0.4075  0.3305
  452MOL0     H60990   3.465   4.976   5.780 -0.6895  0.5056  2.9670
  452MOL0     H60991   3.316   5.009   5.704  1.3945 -0.3234 -0.0488
  452MOL0     H60992   3.446   5.181   5.925  0.4904 -0.6347  0.6971
  452MOL0     H60993   3.292   5.214   5.849 -0.4540 -0.8893 -2.1110
  452MOL0     H60994   3.353   4.962   5.976 -1.4758 -1.1080  0.4446
  452MOL0     H60995   3.193   5.012   5.955 -0.2672  0.6484  0.5456
  452MOL0     H60996   3.264   5.045   6.211  0.5344 -2.7759 -2.2868
  452MOL0     H60997   3.384   5.149   6.152 -1.5950  2.1476  2.1397
  452MOL0     H60998   3.237   5.324   6.083  0.0217  0.9515  1.6514
  452MOL0     H60999   3.201   5.272   6.247  0.2332  1.6627  0.3067
  452MOL0     H61000   3.029   5.154   6.038 -2.1832 -1.6583  1.6952
  452MOL0     H61001   2.989   5.308   6.098 -1.4296 -1.0363  0.3186
  452MOL0     H61002   3.898   5.298   5.472  1.2549 -0.8376  0.7595
  452MOL0     H61003   4.133   5.349   5.536  0.6101  2.5461  0.5210
  452MOL0     H61004   4.437   5.472   5.697 -0.4040 -2.0804  1.1733
  452MOL0     H61005   4.667   5.531   5.676  1.6109  3.8679  1.2827
  452MOL0     H61006   6.559   5.415   5.214  0.7097 -2.7973 -0.0184
  452MOL0     H61007   6.786   5.335   5.276  3.4861 -1.8502  3.9597
  452MOL0     H61008   7.188   5.514   5.694  3.0867 -0.5993  4.7486
  452MOL0     H61009   7.391   5.405   5.768 -1.0237  0.7792 -0.0817
  452MOL0     H61010   7.324   5.046   5.925 -0.9604  2.7881 -3.4270
  452MOL0     H61011   7.373   4.948   5.787  1.2173  0.2506 -1.9676
  452MOL0     H61012   7.594   4.940   5.871  0.5736  0.6329  0.4589
  452MOL0     H61013   7.476   4.892   5.995  2.9614 -0.8401  1.4011
  452MOL0     H61014   7.496   5.102   6.111 -0.0435 -1.5760  1.3914
  452MOL0     H61015   7.594   5.171   5.984  0.6373 -0.2425 -0.7855
  452MOL0     H61016   7.788   5.052   6.059 -0.9793  0.3599 -1.0342
  452MOL0     H61017   7.694   4.933   6.160 -0.9449 -0.8764 -1.3951
  452MOL0     H61018   7.709   5.256   6.423  0.9768  1.4277 -1.3035
  452MOL0     H61019   7.211   5.009   5.679 -1.6328  0.2076  1.1910
  452MOL0     H61020   7.022   5.121   5.585 -0.6753  1.5408 -2.2584
  453MOL0     O61021   7.469   6.488   1.181  0.1720 -0.4930 -0.0462
  453MOL0     C61022   7.518   6.526   1.283 -0.4992 -0.3127  0.8090
  453MOL0     O61023   7.470   6.614   1.373  1.0088  0.2334 -0.2650
  453MOL0     C61024   7.360   6.693   1.349 -0.8507 -0.4137 -0.1401
  453MOL0     C61025   7.272   6.726   1.456 -0.8631 -0.4103 -0.5520
  453MOL0     C61026   7.158   6.795   1.429  0.0247  0.3721 -0.0252
  453MOL0     C61027   7.134   6.846   1.305  0.4776 -0.8965  0.0716
  453MOL0     O61028   7.012   6.913   1.280 -0.4569 -0.3417 -0.3878
  453MOL0     C61029   6.896   6.909   1.370  0.1242 -0.2388  0.5191
  453MOL0     C61030   6.784   6.978   1.282  0.0203 -0.4644 -1.2475
  453MOL0     C61031   6.650   6.985   1.360 -1.1458 -0.3695 -0.2260
  453MOL0     C61032   6.536   7.045   1.280 -0.3560 -0.1223  0.8262
  453MOL0     C61033   6.402   7.058   1.352 -0.4746  0.4404  0.0817
  453MOL0     C61034   6.341   6.914   1.368  0.4608 -0.2460  0.1581
  453MOL0     C61035   6.197   6.931   1.418  0.0971 -0.0880  0.1797
  453MOL0     C61036   6.096   6.912   1.305  0.4036  0.3837  0.0741
  453MOL0     N61037   5.966   6.966   1.350  0.2164  0.1896  0.6204
  453MOL0     C61038   5.929   7.053   1.450  0.1372  0.6834  0.0274
  453MOL0     C61039   5.794   7.070   1.441 -0.4574 -0.5890  0.4584
  453MOL0     C61040   5.713   7.147   1.535 -0.7948  0.3623 -1.2195
  453MOL0     C61041   5.599   7.225   1.480 -0.7176 -0.7705  1.0622
  453MOL0     C61042   5.483   7.128   1.434  0.5651 -0.9455 -0.5082
  453MOL0     C61043   5.366   7.219   1.395 -0.3325  0.0744 -0.4309
  453MOL0     O61044   5.318   7.289   1.504  0.3297 -0.0401 -0.4349
  453MOL0     C61045   5.179   7.276   1.531 -0.4353 -0.0257 -0.2232
  453MOL0     C61046   5.133   7.322   1.657  0.0703 -0.2381 -0.1565
  453MOL0     C61047   4.996   7.313   1.696 -0.2694  0.4569  0.9123
  453MOL0     C61048   4.972   7.352   1.840 -0.4760  0.3235  0.4501
  453MOL0     C61049   4.902   7.256   1.610  0.0535  0.6905 -0.4351
  453MOL0     C61050   4.750   7.238   1.648 -0.1807 -0.6464  0.1696
  453MOL0     O61051   4.670   7.159   1.570 -0.0047  0.5253  0.7202
  453MOL0     C61052   4.543   7.144   1.620 -0.2494  0.0452  0.1560
  453MOL0     C61053   4.434   7.207   1.558 -0.6324  0.2588 -0.0164
  453MOL0     C61054   4.300   7.193   1.605 -0.2093  0.1330 -0.0652
  453MOL0     C61055   4.278   7.109   1.720 -0.1895  0.4452 -0.5470
  453MOL0     O61056   4.152   7.101   1.768  0.3654  0.4738  0.0728
  453MOL0     C61057   4.137   7.061   1.908 -0.5244  0.2179  0.4200
  453MOL0     C61058   3.995   7.063   1.972 -0.4734 -0.5597 -0.6486
  453MOL0     C61059   3.927   7.193   1.959 -0.0030 -0.6875 -0.3145
  453MOL0     C61060   3.802   7.196   2.054 -0.2542 -0.2290 -1.1063
  453MOL0     C61061   3.692   7.096   2.034 -0.5041  1.1164  0.1216
  453MOL0     C61062   3.642   7.097   1.880 -0.4378 -0.4835  0.9899
  453MOL0     C61063   3.534   6.993   1.850 -0.0556  0.1436 -0.3992
  453MOL0     C61064   3.404   7.016   1.932  0.7518  0.8292 -0.6015
  453MOL0    Cl61065   3.355   7.178   1.878 -0.2714 -0.1369 -0.0749
  453MOL0     C61066   4.387   7.045   1.777 -0.6125 -0.2007 -0.7759
  453MOL0     C61067   4.514   7.060   1.731 -0.7347  0.2161  0.3629
  453MOL0     O61068   4.705   7.319   1.726 -0.2396 -0.1434  0.3635
  453MOL0     C61069   4.944   7.209   1.486 -0.7507 -0.1595  0.4490
  453MOL0     C61070   5.078   7.228   1.444  0.4961 -1.0089 -0.6760
  453MOL0     N61071   5.756   6.997   1.329  0.3978 -0.6362  0.2472
  453MOL0     N61072   5.857   6.933   1.285 -0.0008 -0.4535 -0.1230
  453MOL0     C61073   7.227   6.836   1.202  0.0822  0.3293  0.0797
  453MOL0     C61074   7.335   6.749   1.223  0.2483  0.0225  0.7689
  453MOL0     C61075   7.650   6.468   1.310  0.3309  0.4538 -0.4426
  453MOL0     C61076   7.738   6.525   1.399 -0.8695 -0.2097 -1.1075
  453MOL0     C61077   7.871   6.485   1.407  0.7692  0.1031  0.0214
  453MOL0     C61078   7.923   6.383   1.328  0.5436  0.3263 -0.2457
  453MOL0     O61079   8.046   6.331   1.336 -0.2277  0.6562 -0.2064
  453MOL0     C61080   8.154   6.418   1.381 -0.5432  0.8273 -0.2980
  453MOL0     C61081   8.298   6.360   1.359 -0.9273 -0.1892 -0.5339
  453MOL0     C61082   8.324   6.246   1.449  0.4765  0.3463  0.4267
  453MOL0     C61083   8.458   6.235   1.505 -0.0325 -0.2757  0.0530
  453MOL0     C61084   8.472   6.122   1.595 -0.4338 -0.0308 -0.8962
  453MOL0     C61085   8.496   6.028   1.668 -0.7478 -0.4878  0.2687
  453MOL0     C61086   7.831   6.318   1.248 -0.0823  0.8055  0.6421
  453MOL0     C61087   7.705   6.365   1.236  0.6567 -0.2367 -0.4699
  453MOL0     H61088   7.307   6.685   1.551 -1.7672 -2.1990 -0.9477
  453MOL0     H61089   7.096   6.800   1.518 -2.7640 -0.9628 -1.7482
  453MOL0     H61090   6.859   6.806   1.377 -2.1989  0.3950 -1.0258
  453MOL0     H61091   6.916   6.945   1.471 -3.3349  0.4671  1.0905
  453MOL0     H61092   6.810   7.076   1.241  1.0019 -0.3786 -0.4484
  453MOL0     H61093   6.777   6.915   1.193  0.7712 -0.9365 -0.9858
  453MOL0     H61094   6.622   6.883   1.388  1.6511 -0.9126  0.8942
  453MOL0     H61095   6.661   7.042   1.453 -2.7457  0.1826 -0.3438
  453MOL0     H61096   6.575   7.141   1.247  2.3781 -2.0653 -2.1576
  453MOL0     H61097   6.530   6.985   1.189 -3.0415 -1.9664  2.0649
  453MOL0     H61098   6.409   7.098   1.453  1.3065  0.6680 -0.0986
  453MOL0     H61099   6.327   7.117   1.299 -0.6277  1.0853  0.9907
  453MOL0     H61100   6.333   6.870   1.269 -0.4485 -1.7360  0.8583
  453MOL0     H61101   6.403   6.854   1.435  1.2694  0.4304  0.0363
  453MOL0     H61102   6.184   6.863   1.503 -2.3748  0.0721  0.0204
  453MOL0     H61103   6.189   7.038   1.436  0.4118  0.1123 -0.8288
  453MOL0     H61104   6.083   6.809   1.268 -3.5851  2.1311 -4.3389
  453MOL0     H61105   6.138   6.965   1.220  1.0111 -0.0634  0.0835
  453MOL0     H61106   5.987   7.096   1.530  0.3580 -0.2036  0.3618
  453MOL0     H61107   5.680   7.074   1.610  3.6436  0.1300  0.8155
  453MOL0     H61108   5.781   7.214   1.588 -0.4384 -0.2264 -0.9153
  453MOL0     H61109   5.636   7.271   1.388  0.5936 -2.7036  0.5692
  453MOL0     H61110   5.561   7.304   1.545  0.6169  0.9173 -0.1139
  453MOL0     H61111   5.467   7.054   1.513  1.1673  1.0722  1.6308
  453MOL0     H61112   5.519   7.071   1.348  1.3900 -0.0797 -0.7542
  453MOL0     H61113   5.301   7.145   1.346 -0.7985 -0.7948  1.4105
  453MOL0     H61114   5.400   7.296   1.325 -1.2088 -0.1544 -1.1428
  453MOL0     H61115   5.210   7.355   1.726  0.0701 -0.1352 -0.2058
  453MOL0     H61116   5.066   7.382   1.888 -0.7040  0.0069  1.1075
  453MOL0     H61117   4.896   7.429   1.855 -1.7158 -0.4873 -1.3698
  453MOL0     H61118   4.949   7.258   1.892  0.6012 -0.5808 -0.6591
  453MOL0     H61119   4.446   7.253   1.460 -3.7224 -0.3625 -0.7846
  453MOL0     H61120   4.215   7.229   1.547 -1.6462 -0.0833  1.8037
  453MOL0     H61121   4.180   6.960   1.912 -0.7718  0.0493 -0.6824
  453MOL0     H61122   4.198   7.121   1.976  0.5380 -0.3527 -0.0076
  453MOL0     H61123   3.940   6.982   1.923  1.3829 -3.0359  1.0979
  453MOL0     H61124   4.003   7.038   2.078 -0.6648  2.3808  0.1504
  453MOL0     H61125   3.895   7.221   1.858 -0.9785 -0.3509  0.0757
  453MOL0     H61126   3.995   7.275   1.984 -1.2766 -0.0589  1.2510
  453MOL0     H61127   3.828   7.182   2.159  0.7704  2.9393 -0.8369
  453MOL0     H61128   3.755   7.294   2.041  1.1728  0.8570  1.2911
  453MOL0     H61129   3.615   7.113   2.110  1.4828  1.0312  2.2834
  453MOL0     H61130   3.722   6.996   2.065  0.4461  1.4379  0.2926
  453MOL0     H61131   3.604   7.196   1.854 -0.0178 -0.3536  0.8672
  453MOL0     H61132   3.726   7.064   1.818  1.0733  1.7678  1.7286
  453MOL0     H61133   3.570   6.892   1.872 -2.7714 -1.1837 -1.5605
  453MOL0     H61134   3.512   6.995   1.743  1.7014  0.4528 -0.7825
  453MOL0     H61135   3.416   7.006   2.040  0.2088  0.7234 -0.5480
  453MOL0     H61136   3.330   6.937   1.919  1.8229 -0.2607 -0.3638
  453MOL0     H61137   4.386   6.980   1.864  1.2941  1.3951  0.5082
  453MOL0     H61138   4.600   7.002   1.762 -0.1665  0.1604 -1.1910
  453MOL0     H61139   4.868   7.177   1.416 -1.7971  0.2041  1.3821
  453MOL0     H61140   5.108   7.205   1.343  1.1833 -0.5480 -0.5822
  453MOL0     H61141   7.212   6.872   1.101  1.1213  0.6638  0.0395
  453MOL0     H61142   7.411   6.742   1.147  1.3835 -0.7641  1.9258
  453MOL0     H61143   7.706   6.607   1.462  2.4864  0.6756 -0.3897
  453MOL0     H61144   7.941   6.541   1.468 -0.4914 -1.7654  3.3931
  453MOL0     H61145   8.135   6.516   1.337 -1.8327 -0.6109 -3.2524
  453MOL0     H61146   8.139   6.425   1.489 -2.7944 -4.8433  0.1138
  453MOL0     H61147   8.376   6.436   1.370 -1.5358  0.6088 -1.5190
  453MOL0     H61148   8.308   6.321   1.258  2.2353  1.4408 -0.9869
  453MOL0     H61149   8.305   6.160   1.384 -0.4574  1.7836 -1.2940
  453MOL0     H61150   8.251   6.237   1.531 -1.3187  5.4225 -0.2497
  453MOL0     H61151   8.489   6.324   1.559  0.8191 -0.3857 -0.2321
  453MOL0     H61152   8.533   6.226   1.426  0.9610  0.2815  0.9182
  453MOL0     H61153   8.511   5.956   1.746 -0.9713  0.2083  0.9781
  453MOL0     H61154   7.866   6.234   1.189 -2.3094 -0.1168  0.5468
  453MOL0     H61155   7.644   6.322   1.158 -2.4647 -0.4721  1.9191
  454MOL0     O61156   8.808   5.876   2.531 -0.3725 -0.1492  0.0948
  454MOL0     C61157   8.913   5.909   2.481 -0.3290 -0.1957 -0.5046
  454MOL0     O61158   8.947   5.906   2.350  0.1367 -0.1856  0.0675
  454MOL0     C61159   8.854   5.881   2.262  0.5748 -0.9190  0.0750
  454MOL0     C61160   8.814   5.748   2.242 -0.3852 -0.7807 -0.2898
  454MOL0     C61161   8.710   5.717   2.154  0.5947 -0.8328  0.2220
  454MOL0     C61162   8.635   5.822   2.095 -0.6503 -0.0971 -0.7300
  454MOL0     O61163   8.533   5.803   2.006 -0.6973  0.1415  0.7569
  454MOL0     C61164   8.459   5.682   2.041  0.0343  0.0886  0.2839
  454MOL0     C61165   8.317   5.705   1.997  0.6445  0.5001  0.6091
  454MOL0     C61166   8.306   5.727   1.849  0.6592 -0.3843 -0.3566
  454MOL0     C61167   8.160   5.768   1.808 -0.0116  0.4335 -0.1217
  454MOL0     C61168   8.157   5.846   1.674  0.6300 -0.0463 -0.8909
  454MOL0     C61169   8.017   5.899   1.640  0.8497  0.1456 -0.1122
  454MOL0     C61170   8.019   5.977   1.501  0.4906 -0.5466  0.3482
  454MOL0     C61171   7.881   6.042   1.462 -1.3691  0.0938 -0.0132
  454MOL0     N61172   7.782   5.936   1.444 -0.4157 -0.1459  0.2588
  454MOL0     C61173   7.796   5.808   1.392  0.0379 -0.7504  1.0340
  454MOL0     C61174   7.674   5.759   1.371  1.2711  0.0098 -0.2673
  454MOL0     C61175   7.634   5.638   1.289  0.2422  0.6972  0.3668
  454MOL0     C61176   7.544   5.532   1.364 -0.3314 -0.7309 -0.0192
  454MOL0     C61177   7.536   5.390   1.311  0.1161 -0.1024  0.3135
  454MOL0     C61178   7.423   5.313   1.377 -0.2179 -0.4578  0.1599
  454MOL0     O61179   7.295   5.357   1.331 -0.0991  0.0036  0.1815
  454MOL0     C61180   7.194   5.412   1.411 -0.8336  0.0022 -0.5624
  454MOL0     C61181   7.214   5.468   1.535 -0.8134  0.3491  0.0509
  454MOL0     C61182   7.104   5.506   1.616  0.0084 -0.1707 -0.6133
  454MOL0     C61183   7.126   5.576   1.739 -0.2185  0.1112  0.2091
  454MOL0     C61184   6.973   5.480   1.573 -0.1854 -0.8171  0.2378
  454MOL0     C61185   6.846   5.497   1.646  1.3906  0.4647 -0.4328
  454MOL0     O61186   6.814   5.589   1.749 -0.7774 -0.2019 -0.0574
  454MOL0     C61187   6.703   5.573   1.822 -0.8717  0.2191  0.0982
  454MOL0     C61188   6.572   5.552   1.768 -0.0545 -0.4792 -0.3540
  454MOL0     C61189   6.460   5.540   1.850 -0.3354 -0.1913  1.2289
  454MOL0     C61190   6.466   5.572   1.985  0.0270 -0.2143  0.6247
  454MOL0     O61191   6.355   5.573   2.069 -0.4880  0.4098  0.1153
  454MOL0     C61192   6.377   5.553   2.214 -0.0052  0.4640  0.1877
  454MOL0     C61193   6.246   5.532   2.289  0.7604  0.6444 -0.2406
  454MOL0     C61194   6.144   5.443   2.215  1.0415  1.1065 -0.7305
  454MOL0     C61195   6.001   5.458   2.280 -0.3037 -0.0782 -0.2385
  454MOL0     C61196   5.912   5.350   2.205 -1.3941 -0.0045  0.0514
  454MOL0     C61197   5.788   5.319   2.282  0.0179  0.8882 -0.3764
  454MOL0     C61198   5.731   5.186   2.217  0.0148 -0.9982 -0.9853
  454MOL0     C61199   5.591   5.171   2.279 -0.7295 -1.1087  0.5903
  454MOL0    Cl61200   5.479   5.083   2.178  0.6376  0.1033  0.3663
  454MOL0     C61201   6.596   5.617   2.032  0.1484  0.4916 -0.4043
  454MOL0     C61202   6.717   5.609   1.961  0.5049  0.3120  0.7157
  454MOL0     O61203   6.771   5.412   1.618 -0.1923  0.4823  0.2197
  454MOL0     C61204   6.958   5.414   1.447  0.2853 -0.3516 -1.0883
  454MOL0     C61205   7.062   5.395   1.361 -0.3072 -0.1429 -1.3727
  454MOL0     N61206   7.583   5.856   1.409  0.4546 -0.0055 -0.4777
  454MOL0     N61207   7.652   5.961   1.447  0.2008 -0.0417 -0.4859
  454MOL0     C61208   8.674   5.955   2.115 -0.8677  0.4945 -1.0343
  454MOL0     C61209   8.781   5.982   2.200  0.4838  0.0549 -0.4667
  454MOL0     C61210   9.005   5.978   2.572 -0.2266  0.0593 -0.5614
  454MOL0     C61211   8.994   5.974   2.719  0.0186 -0.2088  0.1705
  454MOL0     C61212   9.064   6.063   2.800 -0.1217  1.1489  0.7198
  454MOL0     C61213   9.145   6.160   2.740 -0.1349 -0.8137  0.6160
  454MOL0     O61214   9.223   6.254   2.802  0.2250  1.0054  0.0504
  454MOL0     C61215   9.267   6.221   2.934 -0.2961  1.2618 -0.3559
  454MOL0     C61216   9.382   6.116   2.932  0.2809 -0.7598  0.1947
  454MOL0     C61217   9.463   6.116   3.065 -0.0029 -0.9302  0.0367
  454MOL0     C61218   9.575   6.013   3.045  0.9892 -0.1038  0.2331
  454MOL0     C61219   9.532   5.871   3.029  0.1993 -0.0628  0.5496
  454MOL0     C61220   9.512   5.747   3.015 -0.3098 -0.4460  0.1985
  454MOL0     C61221   9.167   6.167   2.601  0.7542 -0.8473 -0.0460
  454MOL0     C61222   9.097   6.074   2.522  0.5064  0.1899 -0.5642
  454MOL0     H61223   8.870   5.666   2.287 -1.6722 -0.5626  1.8565
  454MOL0     H61224   8.691   5.611   2.142  0.8564 -1.0571  1.6707
  454MOL0     H61225   8.501   5.594   1.992 -2.1828 -0.4220 -0.8384
  454MOL0     H61226   8.459   5.673   2.150  0.1353  2.4402  0.5329
  454MOL0     H61227   8.260   5.614   2.020  0.0005  0.1309 -2.0809
  454MOL0     H61228   8.279   5.791   2.052  0.4127  1.0062 -0.3222
  454MOL0     H61229   8.363   5.815   1.820  2.1612 -0.5576  1.8342
  454MOL0     H61230   8.329   5.637   1.791  0.7996 -0.6820  0.1501
  454MOL0     H61231   8.086   5.687   1.802 -0.5890  1.0327 -3.0972
  454MOL0     H61232   8.122   5.824   1.894 -2.1407 -1.0894  0.0397
  454MOL0     H61233   8.221   5.934   1.687 -0.0462  0.5044 -1.2014
  454MOL0     H61234   8.198   5.789   1.590  0.2407  1.6510 -2.2856
  454MOL0     H61235   7.939   5.822   1.639  0.4833  0.3730  2.8487
  454MOL0     H61236   7.987   5.968   1.720  1.6684 -2.1468  2.3135
  454MOL0     H61237   8.093   6.057   1.513  0.8256 -0.9514  1.0180
  454MOL0     H61238   8.050   5.907   1.423 -0.0471  2.4143 -2.7423
  454MOL0     H61239   7.901   6.079   1.361  0.1748  1.3067  0.7136
  454MOL0     H61240   7.838   6.119   1.527  0.6958  0.8410  0.5492
  454MOL0     H61241   7.888   5.764   1.355 -1.6223 -0.2822 -4.6178
  454MOL0     H61242   7.570   5.670   1.206 -0.4654 -3.9355 -1.1689
  454MOL0     H61243   7.723   5.591   1.246 -1.3872  1.1635 -3.9989
  454MOL0     H61244   7.447   5.579   1.382 -0.4016 -1.6992  2.5381
  454MOL0     H61245   7.585   5.524   1.465 -1.4683  1.9130  0.7589
  454MOL0     H61246   7.635   5.346   1.324  1.1985  1.6761 -1.4904
  454MOL0     H61247   7.511   5.375   1.205 -0.6707  0.5229  0.3969
  454MOL0     H61248   7.425   5.324   1.486 -0.1353  1.1442  0.0251
  454MOL0     H61249   7.437   5.208   1.353  0.0086 -1.7884  5.0316
  454MOL0     H61250   7.318   5.482   1.563  0.0109 -1.6149 -1.7118
  454MOL0     H61251   7.110   5.518   1.830  0.8814  1.2633  1.1709
  454MOL0     H61252   7.233   5.597   1.744  0.0025 -1.1851  2.1355
  454MOL0     H61253   7.064   5.665   1.744 -1.6486 -0.4938 -3.3906
  454MOL0     H61254   6.558   5.545   1.661  1.4725 -2.8507 -0.4568
  454MOL0     H61255   6.372   5.500   1.799  0.9673 -1.4283 -0.1763
  454MOL0     H61256   6.445   5.470   2.235  1.9362  2.7868  4.3041
  454MOL0     H61257   6.416   5.646   2.256 -0.5482 -0.3144  2.6049
  454MOL0     H61258   6.270   5.500   2.391  0.2154 -1.3905 -0.7090
  454MOL0     H61259   6.193   5.626   2.303 -3.4907 -1.6117  0.3214
  454MOL0     H61260   6.184   5.342   2.216  0.9837  1.0379 -2.2062
  454MOL0     H61261   6.128   5.468   2.109 -0.8244  2.6483 -0.1379
  454MOL0     H61262   6.006   5.439   2.388  0.5603  1.2590 -0.0036
  454MOL0     H61263   5.976   5.564   2.271 -0.8118 -0.0913  0.8517
  454MOL0     H61264   5.972   5.258   2.206 -1.2803  0.0736  1.0645
  454MOL0     H61265   5.879   5.376   2.104  3.7767 -0.7135 -2.1356
  454MOL0     H61266   5.811   5.313   2.389 -2.7891  5.6594  0.7807
  454MOL0     H61267   5.711   5.396   2.278 -2.0596 -0.9096  1.8575
  454MOL0     H61268   5.786   5.094   2.240  1.9685 -0.1601 -2.0685
  454MOL0     H61269   5.725   5.200   2.108  1.1459  3.9675 -0.6341
  454MOL0     H61270   5.540   5.267   2.274  0.0520 -0.7386 -1.4853
  454MOL0     H61271   5.598   5.135   2.382 -0.4834 -0.8450  0.6672
  454MOL0     H61272   6.601   5.648   2.136 -0.8084  0.2454 -0.2749
  454MOL0     H61273   6.814   5.642   1.997  0.1178  2.5417 -0.1343
  454MOL0     H61274   6.862   5.386   1.406 -0.5387  0.4885  0.2024
  454MOL0     H61275   7.046   5.351   1.263  0.3128 -2.2779 -0.5775
  454MOL0     H61276   8.619   6.037   2.071 -0.3836  1.4940  0.1288
  454MOL0     H61277   8.796   6.088   2.217 -4.1027  0.6151  1.7982
  454MOL0     H61278   8.930   5.913   2.782 -0.0489  1.5512  1.9128
  454MOL0     H61279   9.047   6.057   2.907  0.8886  1.0024  0.8874
  454MOL0     H61280   9.314   6.309   2.980  4.8384 -1.3544  0.1799
  454MOL0     H61281   9.183   6.194   2.998  0.9672 -0.3473  0.7223
  454MOL0     H61282   9.453   6.139   2.852  0.5465  0.9290  0.8704
  454MOL0     H61283   9.337   6.019   2.909 -0.9874  0.3250 -2.3006
  454MOL0     H61284   9.399   6.092   3.151  1.0952 -0.7935  0.9114
  454MOL0     H61285   9.512   6.210   3.094 -0.4662 -0.9345  0.8613
  454MOL0     H61286   9.655   6.016   3.119  2.5551  2.8888 -1.3816
  454MOL0     H61287   9.631   6.038   2.954 -0.8640 -1.0954 -1.2494
  454MOL0     H61288   9.512   5.644   2.984 -0.6432 -0.3218 -0.2100
  454MOL0     H61289   9.230   6.240   2.552 -0.6679 -1.8102 -3.6148
  454MOL0     H61290   9.103   6.084   2.414 -1.7088 -1.4274 -0.9063
  455MOL0     O61291   8.027   5.041   2.219  0.3632 -1.2077 -0.3566
  455MOL0     C61292   8.015   4.920   2.221  0.8062  0.0477  0.7957
  455MOL0     O61293   7.894   4.852   2.223 -0.1252 -0.2551  0.4513
  455MOL0     C61294   7.765   4.908   2.197  0.4553  0.0061  0.5150
  455MOL0     C61295   7.647   4.835   2.231 -0.5888  0.7662  0.5261
  455MOL0     C61296   7.516   4.885   2.199 -0.4319 -0.4380  0.4689
  455MOL0     C61297   7.495   5.005   2.125  0.2550  0.3346  0.1574
  455MOL0     O61298   7.375   5.058   2.086  0.3379 -0.6055  0.4798
  455MOL0     C61299   7.257   4.983   2.135 -0.1364 -0.4408  1.3756
  455MOL0     C61300   7.223   5.013   2.278 -0.5186  0.1455 -1.2287
  455MOL0     C61301   7.081   4.958   2.300  0.3131 -0.6212  0.2541
  455MOL0     C61302   7.007   5.023   2.427 -0.3758  0.3112  0.2038
  455MOL0     C61303   6.888   4.940   2.472  0.3860  0.5374  0.1210
  455MOL0     C61304   6.797   5.019   2.563  0.2247  0.7013  0.3109
  455MOL0     C61305   6.672   4.930   2.593 -0.4702  0.2741  0.0133
  455MOL0     C61306   6.573   5.020   2.662  0.4138  0.0175 -0.3369
  455MOL0     N61307   6.453   4.939   2.699  0.1146  0.2206 -0.2365
  455MOL0     C61308   6.402   4.935   2.834 -0.8057  0.2266  0.6029
  455MOL0     C61309   6.322   4.833   2.841 -0.2381 -0.0250  1.0163
  455MOL0     C61310   6.265   4.784   2.965 -0.4681  0.5737 -0.7147
  455MOL0     C61311   6.214   4.891   3.055  0.5655  0.4471 -0.6585
  455MOL0     C61312   6.178   4.834   3.198 -0.1214 -0.4043  0.0510
  455MOL0     C61313   6.147   4.947   3.305 -0.0814  0.3543 -0.3604
  455MOL0     O61314   6.103   4.880   3.424 -0.5727  1.3842 -0.5481
  455MOL0     C61315   5.972   4.900   3.461  0.7082  0.3969 -1.2362
  455MOL0     C61316   5.956   4.909   3.604  0.9059  0.0794 -0.2965
  455MOL0     C61317   5.831   4.941   3.656 -0.2178 -0.3771  0.0160
  455MOL0     C61318   5.822   4.961   3.806 -0.1791  0.1043 -0.0886
  455MOL0     C61319   5.715   4.951   3.566 -1.1291 -0.3977 -0.4672
  455MOL0     C61320   5.585   5.004   3.619  0.4254  0.2219  1.0087
  455MOL0     O61321   5.481   4.958   3.550  0.0632  0.3917  0.7021
  455MOL0     C61322   5.368   4.989   3.602  1.1548  0.1472  0.2065
  455MOL0     C61323   5.286   5.085   3.531  0.7570  0.5696  0.2718
  455MOL0     C61324   5.167   5.120   3.595  0.4934  0.8806  0.1352
  455MOL0     C61325   5.113   5.064   3.714 -0.0834 -0.5004  0.8488
  455MOL0     O61326   4.996   5.119   3.755  0.2541 -0.9345 -0.1665
  455MOL0     C61327   4.957   5.124   3.898  0.5119 -0.3482  0.8664
  455MOL0     C61328   5.027   5.226   3.986  0.5079 -0.1882  0.1728
  455MOL0     C61329   5.180   5.210   4.019 -0.4034  0.0675  0.0559
  455MOL0     C61330   5.202   5.079   4.106  0.1467 -0.2704 -0.4628
  455MOL0     C61331   5.325   5.101   4.192  0.5690  1.4669 -0.2067
  455MOL0     C61332   5.450   5.107   4.106 -0.4568  0.0476  0.1609
  455MOL0     C61333   5.571   5.102   4.186 -0.0703  0.3565 -0.3867
  455MOL0     C61334   5.686   5.141   4.103 -1.4235  0.2040 -0.0853
  455MOL0    Cl61335   5.833   5.128   4.211 -0.6232  0.2103 -0.2245
  455MOL0     C61336   5.195   4.956   3.766  0.4164 -0.1121 -0.5623
  455MOL0     C61337   5.317   4.923   3.710 -0.6401 -0.3624 -0.4817
  455MOL0     O61338   5.578   5.099   3.704  0.6536  0.5726  0.8251
  455MOL0     C61339   5.736   4.936   3.429 -0.2282  0.0343  0.6341
  455MOL0     C61340   5.862   4.909   3.377 -0.4095  0.0258  0.2763
  455MOL0     N61341   6.324   4.763   2.717 -0.3040  0.0452  0.4849
  455MOL0     N61342   6.403   4.831   2.634  0.3680  0.2416  0.3983
  455MOL0     C61343   7.616   5.068   2.080 -0.0868  1.2033  0.0401
  455MOL0     C61344   7.746   5.026   2.114 -0.3987 -1.0584 -0.6640
  455MOL0     C61345   8.143   4.835   2.210  1.0284 -0.7859  0.2717
  455MOL0     C61346   8.247   4.890   2.135 -0.1854 -0.4300 -0.0383
  455MOL0     C61347   8.362   4.815   2.117  0.4405 -0.4521 -0.5897
  455MOL0     C61348   8.366   4.689   2.169  0.0140  0.9100  0.0943
  455MOL0     O61349   8.476   4.608   2.192 -0.5067  0.8049 -0.6294
  455MOL0     C61350   8.603   4.656   2.142  0.1621 -0.0393 -1.0059
  455MOL0     C61351   8.701   4.531   2.163 -0.4285  0.0249 -0.2241
  455MOL0     C61352   8.848   4.541   2.108 -0.2936 -0.2064 -0.1384
  455MOL0     C61353   8.867   4.429   2.013  0.2918  0.3641 -0.1804
  455MOL0     C61354   8.774   4.440   1.896 -0.0739  0.2208  0.1285
  455MOL0     C61355   8.697   4.445   1.799  0.9486  0.2160  0.0269
  455MOL0     C61356   8.257   4.627   2.230 -0.1483  0.5771 -0.4091
  455MOL0     C61357   8.146   4.706   2.260  0.2009  0.3316 -0.4327
  455MOL0     H61358   7.658   4.732   2.267  0.5677 -0.3922 -2.7673
  455MOL0     H61359   7.431   4.820   2.218 -0.6210 -0.4371 -0.3640
  455MOL0     H61360   7.174   5.018   2.072 -3.1354 -1.9942  4.1643
  455MOL0     H61361   7.259   4.874   2.126 -0.0439 -0.4604  1.6239
  455MOL0     H61362   7.297   4.962   2.340  0.1683 -0.5658 -2.5888
  455MOL0     H61363   7.228   5.121   2.293 -1.9852 -0.0030  0.5968
  455MOL0     H61364   7.013   4.984   2.218 -0.3162  3.0406  1.7343
  455MOL0     H61365   7.106   4.852   2.303  0.1767 -0.7568 -1.8278
  455MOL0     H61366   7.086   5.013   2.502 -0.8281 -0.6114  0.5724
  455MOL0     H61367   6.985   5.129   2.419  0.3377  0.5327  1.0121
  455MOL0     H61368   6.837   4.902   2.383 -0.7066 -1.8988  1.7096
  455MOL0     H61369   6.925   4.852   2.524  1.0293 -0.6781 -2.2696
  455MOL0     H61370   6.846   5.036   2.659 -0.6578 -4.3702  1.9816
  455MOL0     H61371   6.765   5.111   2.513  2.1262  1.4242  0.3460
  455MOL0     H61372   6.628   4.889   2.501  1.1418 -1.0951 -0.1909
  455MOL0     H61373   6.705   4.846   2.654 -1.0916  0.1595  0.1891
  455MOL0     H61374   6.548   5.100   2.591  1.8080 -0.6568 -1.6522
  455MOL0     H61375   6.604   5.075   2.751 -1.4573 -0.5166  0.7109
  455MOL0     H61376   6.444   4.991   2.917  0.5272 -1.2875  1.0206
  455MOL0     H61377   6.180   4.721   2.939  1.0812 -1.1934 -1.7558
  455MOL0     H61378   6.334   4.722   3.023 -2.6792 -0.5207  0.9170
  455MOL0     H61379   6.119   4.934   3.023 -0.0130 -1.1834 -1.2316
  455MOL0     H61380   6.289   4.970   3.065  2.4045 -1.0271 -2.0910
  455MOL0     H61381   6.260   4.773   3.237  1.3733  1.6749  0.2896
  455MOL0     H61382   6.093   4.764   3.199 -0.1409 -0.3727  1.0009
  455MOL0     H61383   6.071   5.018   3.268  2.6335  2.1058 -3.0242
  455MOL0     H61384   6.230   5.011   3.336 -0.3467  1.9356 -2.5955
  455MOL0     H61385   6.044   4.901   3.665  1.2636  0.2643 -0.7784
  455MOL0     H61386   5.727   4.913   3.832  0.0776 -1.1557 -1.3923
  455MOL0     H61387   5.897   4.906   3.863  1.1111  0.2172 -1.6286
  455MOL0     H61388   5.823   5.068   3.831  0.2801  0.5131 -1.7636
  455MOL0     H61389   5.307   5.138   3.439  1.2891  1.4237  0.8631
  455MOL0     H61390   5.112   5.199   3.544 -0.0359  1.3970  1.4784
  455MOL0     H61391   4.854   5.161   3.900  1.1681  1.5697  1.1262
  455MOL0     H61392   4.952   5.022   3.937 -0.5218 -1.3588 -1.6449
  455MOL0     H61393   5.017   5.325   3.940 -0.9880 -0.1719  0.4785
  455MOL0     H61394   4.968   5.248   4.076 -0.5408 -0.6470 -0.3907
  455MOL0     H61395   5.209   5.299   4.077 -1.0248  0.5083 -0.3002
  455MOL0     H61396   5.245   5.198   3.933  1.2745 -0.4742  1.3423
  455MOL0     H61397   5.106   5.062   4.156  0.9234 -0.4121  1.0119
  455MOL0     H61398   5.211   4.995   4.038  1.7939 -2.3773  2.1751
  455MOL0     H61399   5.339   5.027   4.272  1.9906  2.5326  0.5848
  455MOL0     H61400   5.315   5.191   4.253 -0.0489 -0.2429  2.4350
  455MOL0     H61401   5.463   5.027   4.033  1.1543  0.3793  0.0462
  455MOL0     H61402   5.441   5.197   4.044  0.6393  1.6319  2.1758
  455MOL0     H61403   5.601   5.005   4.226  2.9600  1.2287 -0.3055
  455MOL0     H61404   5.560   5.176   4.266  0.5843 -0.8453  0.8502
  455MOL0     H61405   5.683   5.244   4.065 -1.7662  0.0634 -0.4505
  455MOL0     H61406   5.695   5.065   4.025 -1.9836  1.8384 -1.8410
  455MOL0     H61407   5.158   4.897   3.849 -1.5282  0.5154 -0.9154
  455MOL0     H61408   5.379   4.859   3.772 -1.6674  1.5741  2.7960
  455MOL0     H61409   5.649   4.948   3.365  1.0912  1.3330 -1.0024
  455MOL0     H61410   5.866   4.889   3.270 -1.4605 -2.0867  0.5831
  455MOL0     H61411   7.612   5.153   2.012 -0.3130  0.9034 -0.3282
  455MOL0     H61412   7.832   5.073   2.067 -1.5726  1.1030 -0.7529
  455MOL0     H61413   8.249   4.989   2.090  3.6474 -1.2134 -2.0024
  455MOL0     H61414   8.452   4.855   2.072  0.0252 -0.0866 -1.1140
  455MOL0     H61415   8.596   4.675   2.034 -0.9891  0.6551 -0.8239
  455MOL0     H61416   8.641   4.751   2.182  1.2677 -1.6715  2.0932
  455MOL0     H61417   8.657   4.437   2.126  1.1423 -0.0458 -2.0851
  455MOL0     H61418   8.702   4.518   2.271 -0.9392  3.6789  0.3289
  455MOL0     H61419   8.930   4.522   2.178  0.5809  1.4263 -0.6862
  455MOL0     H61420   8.871   4.640   2.070  4.3374 -1.1170 -0.2073
  455MOL0     H61421   8.856   4.335   2.068  4.4387 -1.6342 -2.3169
  455MOL0     H61422   8.971   4.429   1.979  0.4503  1.4742  0.2820
  455MOL0     H61423   8.633   4.454   1.714 -0.6166 -2.8939  0.7418
  455MOL0     H61424   8.256   4.530   2.277  4.1962  1.5024  2.1288
  455MOL0     H61425   8.061   4.668   2.316  1.0377  0.6370  1.0643
  456MOL0     O61426   2.387   5.109   3.833  0.1596  0.3221  0.1292
  456MOL0     C61427   2.466   5.174   3.905  0.4987 -0.1406  0.0856
  456MOL0     O61428   2.428   5.268   3.998 -0.4403 -0.4134  0.0390
  456MOL0     C61429   2.306   5.326   3.992 -0.2945 -0.1457  0.1608
  456MOL0     C61430   2.279   5.406   4.103  1.0339 -0.0302  0.2710
  456MOL0     C61431   2.156   5.476   4.105  0.8737  0.9415  0.0971
  456MOL0     C61432   2.056   5.469   4.001  0.0487 -1.1900 -0.1249
  456MOL0     O61433   1.942   5.537   4.028  0.1885 -0.5085  0.0626
  456MOL0     C61434   1.831   5.527   3.934 -0.0249  0.4205 -0.7102
  456MOL0     C61435   1.710   5.599   3.996  0.3712  0.3155  0.5445
  456MOL0     C61436   1.615   5.650   3.891  0.2393  0.1052 -0.1376
  456MOL0     C61437   1.547   5.533   3.819 -0.7664 -0.0015 -0.2760
  456MOL0     C61438   1.434   5.575   3.727 -0.6161  0.1787  0.5572
  456MOL0     C61439   1.411   5.460   3.629  0.6483 -0.0044  0.5485
  456MOL0     C61440   1.302   5.495   3.528  0.6895  0.8967 -0.4031
  456MOL0     C61441   1.169   5.550   3.590 -0.3982 -0.4782  0.0100
  456MOL0     N61442   1.054   5.582   3.498  0.1363 -0.2396  0.0868
  456MOL0     C61443   0.936   5.511   3.504 -0.2515 -0.2255  0.0054
  456MOL0     C61444   0.866   5.562   3.398  0.9894 -1.1198  1.1366
  456MOL0     C61445   0.730   5.516   3.365  0.3165  0.1848 -0.0029
  456MOL0     C61446   0.628   5.633   3.374 -0.0122  0.6354  0.4490
  456MOL0     C61447   0.596   5.678   3.519 -0.5219  0.3284  0.8254
  456MOL0     C61448   0.520   5.573   3.597 -0.3203  0.8672  0.0559
  456MOL0     O61449   0.429   5.495   3.518 -0.3528  0.0451  0.8189
  456MOL0     C61450   0.299   5.548   3.487 -0.5417  1.0619  0.4149
  456MOL0     C61451   0.228   5.647   3.559 -0.1777 -0.7725 -0.3736
  456MOL0     C61452   0.089   5.676   3.532 -0.2525  0.3292 -0.2642
  456MOL0     C61453   0.041   5.794   3.603  0.8053 -0.6859 -0.4512
  456MOL0     C61454   0.014   5.593   3.441 -0.1674 -1.9265  0.3827
  456MOL0     C61455  -0.131   5.603   3.419  0.9917  0.2863  0.8021
  456MOL0     O61456  -0.205   5.605   3.538 -0.1189  0.4009 -0.0551
  456MOL0     C61457  -0.339   5.633   3.526  0.9983 -0.6815  0.3886
  456MOL0     C61458  -0.384   5.756   3.475  0.8050  0.1408  0.0411
  456MOL0     C61459  -0.527   5.768   3.466  0.0393  0.3240 -0.0941
  456MOL0     C61460  -0.611   5.676   3.517  1.2455  0.6677 -0.5162
  456MOL0     O61461  -0.751   5.698   3.516 -0.1855  0.1472  0.1012
  456MOL0     C61462  -0.808   5.769   3.402  0.0581  0.4384  0.4443
  456MOL0     C61463  -0.960   5.766   3.423 -0.5527  0.4001 -0.1418
  456MOL0     C61464  -1.037   5.837   3.310 -1.0964 -0.1312 -0.1008
  456MOL0     C61465  -1.077   5.736   3.207 -0.2034  0.5218  0.3317
  456MOL0     C61466  -1.125   5.818   3.086 -0.0640 -0.1645  0.4277
  456MOL0     C61467  -1.146   5.722   2.970 -0.2173 -0.1106 -0.3073
  456MOL0     C61468  -1.179   5.797   2.841 -0.3267  0.2901  0.1034
  456MOL0     C61469  -1.057   5.857   2.763  0.3375 -0.8461  0.4455
  456MOL0    Cl61470  -1.101   5.925   2.595  0.1241 -0.0949  0.0877
  456MOL0     C61471  -0.566   5.560   3.568 -0.3784  0.0474 -0.7645
  456MOL0     C61472  -0.431   5.536   3.585 -0.7996  0.7620  0.6815
  456MOL0     O61473  -0.179   5.592   3.302  0.0011  0.0884  0.1510
  456MOL0     C61474   0.104   5.509   3.358  0.4396 -1.1278  0.0815
  456MOL0     C61475   0.233   5.482   3.390 -0.2742 -0.7194  0.4509
  456MOL0     N61476   0.933   5.668   3.341  0.4326  0.5880 -0.4562
  456MOL0     N61477   1.047   5.675   3.397  0.1053 -0.3566 -0.7983
  456MOL0     C61478   2.095   5.402   3.891  0.6688 -1.2349  0.6524
  456MOL0     C61479   2.216   5.330   3.888  0.2606 -0.1684  0.4627
  456MOL0     C61480   2.608   5.147   3.898  0.8377  0.1157 -1.0759
  456MOL0     C61481   2.664   5.048   3.821  0.0085  0.6291  0.1829
  456MOL0     C61482   2.809   5.031   3.816 -0.0960  0.2983 -0.6895
  456MOL0     C61483   2.887   5.127   3.879  0.3774  0.1372 -0.2504
  456MOL0     O61484   3.019   5.138   3.864  0.4231  0.2354  0.4521
  456MOL0     C61485   3.083   5.021   3.803 -0.8916 -0.5878  0.0244
  456MOL0     C61486   3.236   5.029   3.825 -0.5252 -0.5237 -0.4189
  456MOL0     C61487   3.287   5.161   3.777 -0.1726  1.0945 -0.5915
  456MOL0     C61488   3.440   5.159   3.785 -0.6894  0.2299  0.8116
  456MOL0     C61489   3.505   5.292   3.755  0.2105 -1.1686 -0.1153
  456MOL0     C61490   3.554   5.397   3.717 -0.5541  0.6205  0.1360
  456MOL0     C61491   2.829   5.235   3.952 -0.2418 -0.3543 -0.4281
  456MOL0     C61492   2.696   5.242   3.958  1.6528 -0.0467  0.0072
  456MOL0     H61493   2.353   5.421   4.181  1.7186  2.2252 -0.7308
  456MOL0     H61494   2.135   5.547   4.185  0.2713 -0.2720  1.0401
  456MOL0     H61495   1.861   5.568   3.837 -0.5080  0.1004 -1.0004
  456MOL0     H61496   1.806   5.421   3.923  2.5772 -0.4336  0.7108
  456MOL0     H61497   1.658   5.526   4.058  1.6258 -1.7502 -0.6842
  456MOL0     H61498   1.758   5.671   4.062 -1.5167  1.2515  0.9339
  456MOL0     H61499   1.540   5.714   3.938  1.2273  0.6269  0.7612
  456MOL0     H61500   1.678   5.718   3.834  2.8923  0.1664  2.5719
  456MOL0     H61501   1.619   5.476   3.759 -1.4109 -0.2561 -0.8134
  456MOL0     H61502   1.500   5.473   3.897  1.5043  0.4227  1.5584
  456MOL0     H61503   1.344   5.594   3.786 -0.3011 -0.7011  1.3369
  456MOL0     H61504   1.467   5.667   3.677  3.5598  0.7602  3.7912
  456MOL0     H61505   1.507   5.424   3.592  0.3247  0.2630 -0.5618
  456MOL0     H61506   1.380   5.377   3.694  0.8698  0.0448  0.7155
  456MOL0     H61507   1.340   5.560   3.449 -0.8251 -0.5739 -2.4740
  456MOL0     H61508   1.276   5.404   3.473 -0.2469 -0.1609  1.6565
  456MOL0     H61509   1.192   5.650   3.626  2.3136 -0.1217 -2.4119
  456MOL0     H61510   1.132   5.491   3.675  0.0506  1.5374  1.6672
  456MOL0     H61511   0.904   5.431   3.570 -0.8284 -1.2913 -1.5229
  456MOL0     H61512   0.733   5.467   3.267  0.2424 -0.9150  0.5294
  456MOL0     H61513   0.702   5.428   3.423 -0.2558 -0.4995 -1.2830
  456MOL0     H61514   0.539   5.596   3.322 -0.1646  0.7314  0.6399
  456MOL0     H61515   0.673   5.716   3.319  0.3900 -0.3293 -0.7297
  456MOL0     H61516   0.540   5.770   3.503 -0.6928 -0.0159 -0.8087
  456MOL0     H61517   0.689   5.702   3.571  0.4624 -0.6933 -0.3823
  456MOL0     H61518   0.465   5.616   3.681 -4.1695 -0.0029 -1.7422
  456MOL0     H61519   0.586   5.503   3.648 -1.7616  1.3956  2.8603
  456MOL0     H61520   0.275   5.705   3.638  1.7394 -1.1474 -1.1863
  456MOL0     H61521  -0.067   5.804   3.590  1.1371  2.0801 -1.7933
  456MOL0     H61522   0.074   5.792   3.707  1.6562  1.2562 -0.6523
  456MOL0     H61523   0.090   5.887   3.574  0.5050 -0.0125  1.1090
  456MOL0     H61524  -0.318   5.831   3.432 -0.3325  0.2406 -1.6597
  456MOL0     H61525  -0.556   5.862   3.421 -2.9647 -0.5123 -0.0780
  456MOL0     H61526  -0.764   5.868   3.392 -3.1497  1.9788  0.3171
  456MOL0     H61527  -0.801   5.712   3.309  0.8484 -0.3710  0.9876
  456MOL0     H61528  -0.991   5.662   3.440  1.0816 -0.0164  0.5173
  456MOL0     H61529  -0.972   5.825   3.513  0.7713  0.0145  0.3207
  456MOL0     H61530  -0.963   5.904   3.266 -0.2071 -0.1232  1.3204
  456MOL0     H61531  -1.126   5.882   3.356 -2.3622 -1.9568 -0.6168
  456MOL0     H61532  -0.998   5.672   3.167 -2.2804  0.3100 -4.0217
  456MOL0     H61533  -1.159   5.673   3.243 -0.2506  2.1194  3.2961
  456MOL0     H61534  -1.052   5.892   3.051  1.4455 -1.0528  1.5399
  456MOL0     H61535  -1.225   5.858   3.104 -1.9185 -3.6315 -1.1615
  456MOL0     H61536  -1.057   5.660   2.954  0.1579 -0.0141  1.2710
  456MOL0     H61537  -1.231   5.661   3.001 -1.9989  1.3955 -1.9792
  456MOL0     H61538  -1.251   5.876   2.867 -1.4013 -1.1334  1.6392
  456MOL0     H61539  -1.234   5.727   2.778 -0.6572 -1.5927  2.3566
  456MOL0     H61540  -0.990   5.771   2.752  0.0739 -0.9307 -0.6766
  456MOL0     H61541  -1.010   5.938   2.819  0.3485 -0.0941 -0.6108
  456MOL0     H61542  -0.640   5.483   3.592  2.9829 -2.3999  3.1005
  456MOL0     H61543  -0.392   5.440   3.618 -2.3458 -0.7185 -1.5754
  456MOL0     H61544   0.062   5.455   3.273 -1.4017  1.5392 -0.8578
  456MOL0     H61545   0.288   5.415   3.325  0.4235  1.6780 -1.5836
  456MOL0     H61546   2.041   5.407   3.798  1.4389 -1.3525  0.1892
  456MOL0     H61547   2.243   5.289   3.791  2.6186  2.2260  0.0278
  456MOL0     H61548   2.594   4.985   3.767  0.0631  1.2008 -0.5647
  456MOL0     H61549   2.847   4.956   3.747  1.1814  0.1812  0.1120
  456MOL0     H61550   3.049   4.934   3.859  0.6593 -1.6995 -0.7013
  456MOL0     H61551   3.067   5.019   3.695  1.7079  1.5185 -0.4944
  456MOL0     H61552   3.283   4.948   3.769 -3.4792 -1.8125 -1.2569
  456MOL0     H61553   3.258   5.029   3.932  0.3297 -0.8908 -0.5916
  456MOL0     H61554   3.248   5.245   3.836 -0.2349  0.0569  0.9298
  456MOL0     H61555   3.260   5.176   3.672 -2.0778 -0.5005 -0.3846
  456MOL0     H61556   3.478   5.093   3.707 -2.9629 -0.8628  0.5757
  456MOL0     H61557   3.466   5.134   3.889 -0.4464  0.1591  0.7345
  456MOL0     H61558   3.600   5.492   3.695 -1.7649  1.1792 -0.0819
  456MOL0     H61559   2.880   5.310   4.013 -1.4150  1.9096 -2.0796
  456MOL0     H61560   2.658   5.325   4.017 -3.3120 -0.0205 -2.7235
  457MOL0     O61561   9.110   1.162   2.173 -0.0555 -0.5884  0.6311
  457MOL0     C61562   9.142   1.045   2.191 -0.6785  0.4147 -0.2142
  457MOL0     O61563   9.068   0.935   2.177  0.7870  0.5262 -0.6220
  457MOL0     C61564   8.946   0.949   2.109 -0.2695  0.4024  0.0849
  457MOL0     C61565   8.941   0.875   1.988  0.5335 -0.0977 -0.8051
  457MOL0     C61566   8.828   0.886   1.904 -0.6058  0.7124  0.0201
  457MOL0     C61567   8.727   0.974   1.935  0.2187 -0.0490 -0.0264
  457MOL0     O61568   8.613   0.978   1.857 -0.0936 -0.1659 -0.2635
  457MOL0     C61569   8.562   0.871   1.780 -0.2797 -1.2534  0.6391
  457MOL0     C61570   8.426   0.906   1.714 -0.7643  0.4186 -0.4749
  457MOL0     C61571   8.304   0.869   1.806 -0.1137  0.6978  0.5824
  457MOL0     C61572   8.317   0.956   1.934  0.5120  0.4530  0.1559
  457MOL0     C61573   8.182   0.965   2.006 -0.6931  0.9789 -0.1993
  457MOL0     C61574   8.193   1.068   2.113  0.6138  0.1965  0.6449
  457MOL0     C61575   8.078   1.071   2.219  1.1414  0.1867 -0.0100
  457MOL0     C61576   8.064   0.939   2.303 -0.6966  0.1291 -0.0370
  457MOL0     N61577   7.951   0.947   2.402 -0.1558  0.1240 -0.0913
  457MOL0     C61578   7.972   0.979   2.532 -1.2677  0.6114  0.2770
  457MOL0     C61579   7.856   0.958   2.594  0.3547 -0.3116 -0.9541
  457MOL0     C61580   7.832   0.980   2.734 -0.0057 -0.3010 -0.6414
  457MOL0     C61581   7.891   0.869   2.840  0.6015 -0.0833 -0.1500
  457MOL0     C61582   7.847   0.723   2.834 -0.1322 -0.0426  1.1231
  457MOL0     C61583   7.699   0.682   2.797  0.1603 -0.6042 -0.1097
  457MOL0     O61584   7.616   0.673   2.914 -0.3749  0.4049 -0.3801
  457MOL0     C61585   7.482   0.661   2.913  0.1044 -0.2606  0.4131
  457MOL0     C61586   7.419   0.650   3.041  0.7344  0.0160 -0.7104
  457MOL0     C61587   7.280   0.632   3.047 -0.8889 -0.4514  0.3914
  457MOL0     C61588   7.228   0.619   3.186 -0.0601 -0.5475 -0.2523
  457MOL0     C61589   7.193   0.627   2.929 -0.0663  0.1420  0.3947
  457MOL0     C61590   7.047   0.610   2.924  0.0025  0.5524  0.3622
  457MOL0     O61591   6.985   0.664   2.814  0.3940 -0.7625  0.8009
  457MOL0     C61592   6.846   0.672   2.803 -0.0670  0.5793  0.4463
  457MOL0     C61593   6.785   0.745   2.896  0.1451 -0.1592 -0.8258
  457MOL0     C61594   6.645   0.771   2.892 -0.1359  0.5294 -0.0949
  457MOL0     C61595   6.567   0.716   2.788  0.3935  0.5314 -0.1322
  457MOL0     O61596   6.439   0.758   2.780  0.2520 -0.4839  0.2628
  457MOL0     C61597   6.328   0.670   2.741 -0.6891  0.7769 -0.5947
  457MOL0     C61598   6.205   0.760   2.712  0.3640  0.2632 -0.4002
  457MOL0     C61599   6.166   0.824   2.841  0.1665 -0.8187  0.1832
  457MOL0     C61600   6.062   0.938   2.827 -0.3739 -0.0935 -0.3774
  457MOL0     C61601   5.953   0.946   2.920  0.1968 -0.0851  0.0869
  457MOL0     C61602   5.864   1.070   2.901 -0.1976 -0.1632  0.1511
  457MOL0     C61603   5.764   1.073   3.008  0.6917 -0.8168  0.3687
  457MOL0     C61604   5.648   0.987   2.960  0.9680  0.8022 -0.7975
  457MOL0    Cl61605   5.545   1.075   2.846  0.1423  0.1550  0.2515
  457MOL0     C61606   6.626   0.621   2.704  0.8920  0.2759  0.3644
  457MOL0     C61607   6.768   0.607   2.716  0.0811  0.3339 -0.0925
  457MOL0     O61608   6.994   0.550   3.018 -0.2281 -0.1913  0.2904
  457MOL0     C61609   7.257   0.643   2.804 -0.4276 -0.1875 -0.1754
  457MOL0     C61610   7.401   0.659   2.795 -0.3544 -0.6677 -0.4344
  457MOL0     N61611   7.762   0.920   2.502  0.0400  0.3303 -0.5848
  457MOL0     N61612   7.818   0.919   2.385  0.5100 -0.3079 -0.5058
  457MOL0     C61613   8.729   1.046   2.050 -0.2372 -0.2677 -0.1404
  457MOL0     C61614   8.837   1.036   2.140 -0.1435  0.1728  0.8327
  457MOL0     C61615   9.286   1.033   2.245  0.6544 -0.5272 -0.2136
  457MOL0     C61616   9.333   0.904   2.304  0.8196  0.1599  0.6719
  457MOL0     C61617   9.466   0.891   2.344 -0.9952 -0.0466  0.3877
  457MOL0     C61618   9.559   0.992   2.326  0.8434 -1.0093  0.7939
  457MOL0     O61619   9.688   0.966   2.356  0.0680 -0.5471  0.3961
  457MOL0     C61620   9.785   1.066   2.385 -0.4874  0.2975  0.2680
  457MOL0     C61621   9.759   1.127   2.521 -0.0746 -0.2339  0.5475
  457MOL0     C61622   9.766   1.026   2.635 -0.3629 -0.3160 -0.2237
  457MOL0     C61623   9.762   1.102   2.773 -0.6851 -0.6817 -0.8400
  457MOL0     C61624   9.895   1.147   2.805 -0.0403 -0.6224 -0.9074
  457MOL0     C61625  10.013   1.172   2.829 -0.6402  0.4065 -0.7335
  457MOL0     C61626   9.509   1.122   2.275 -0.6432  0.4751 -0.3017
  457MOL0     C61627   9.378   1.137   2.232  0.1590  0.0933 -0.4798
  457MOL0     H61628   9.021   0.805   1.964  0.1212  0.0296 -2.6944
  457MOL0     H61629   8.831   0.818   1.820 -0.8340 -1.7495  1.8756
  457MOL0     H61630   8.635   0.847   1.702  0.2087 -1.7433  1.2397
  457MOL0     H61631   8.546   0.782   1.841 -2.2844 -2.0451 -0.9470
  457MOL0     H61632   8.412   1.011   1.687 -1.0498  0.8480  1.2610
  457MOL0     H61633   8.414   0.846   1.623 -0.9726  1.7432 -1.3505
  457MOL0     H61634   8.211   0.891   1.753 -2.2368 -2.3088  2.7415
  457MOL0     H61635   8.319   0.765   1.836  2.4267  0.4761 -1.1723
  457MOL0     H61636   8.395   0.914   1.999  0.1811  0.5110  0.5936
  457MOL0     H61637   8.346   1.058   1.909  0.6549  1.1764  2.9395
  457MOL0     H61638   8.103   0.998   1.938  0.0490  0.2960 -1.4268
  457MOL0     H61639   8.151   0.869   2.049 -1.8361  2.0578  1.5282
  457MOL0     H61640   8.288   1.048   2.162  2.3266 -1.0993 -2.8638
  457MOL0     H61641   8.199   1.170   2.073 -0.2304 -0.0360 -0.1166
  457MOL0     H61642   8.084   1.152   2.292 -0.1442  0.9808 -0.7412
  457MOL0     H61643   7.987   1.085   2.160  1.3066  1.5352  0.0183
  457MOL0     H61644   8.154   0.910   2.357 -0.8924  3.9935  2.8252
  457MOL0     H61645   8.030   0.863   2.231  0.1238  0.5530 -0.8892
  457MOL0     H61646   8.062   1.020   2.577 -2.3207  1.2250  1.9590
  457MOL0     H61647   7.879   1.074   2.762 -0.7584 -0.6474  2.1086
  457MOL0     H61648   7.727   0.999   2.758  0.6626 -0.1888  2.6016
  457MOL0     H61649   7.874   0.902   2.943 -2.3267 -2.5150  0.2957
  457MOL0     H61650   7.998   0.868   2.819  0.6857  2.6764 -0.2579
  457MOL0     H61651   7.871   0.663   2.922 -2.8540 -1.5836  0.9340
  457MOL0     H61652   7.888   0.673   2.745 -1.8745  0.8667 -0.2655
  457MOL0     H61653   7.707   0.587   2.745 -1.5874 -1.7342  1.5414
  457MOL0     H61654   7.651   0.754   2.729  2.8224  0.0403 -1.4151
  457MOL0     H61655   7.468   0.661   3.137 -0.9751 -0.5741  0.2912
  457MOL0     H61656   7.128   0.664   3.188 -0.8891 -2.2870 -0.9425
  457MOL0     H61657   7.216   0.512   3.204  0.7551 -0.7351 -0.7501
  457MOL0     H61658   7.283   0.672   3.264 -0.9786 -0.7956  0.5735
  457MOL0     H61659   6.841   0.793   2.976  1.7721 -1.3189 -1.1950
  457MOL0     H61660   6.595   0.825   2.972  0.3702 -1.5770  1.7465
  457MOL0     H61661   6.339   0.598   2.660  2.5858  0.6831 -0.1912
  457MOL0     H61662   6.314   0.603   2.827 -0.1245  1.8660  0.3793
  457MOL0     H61663   6.233   0.832   2.634 -2.6797  0.2440 -1.6263
  457MOL0     H61664   6.121   0.702   2.673  0.2126 -0.6045  1.1242
  457MOL0     H61665   6.257   0.869   2.883  0.8529 -2.1415  0.1727
  457MOL0     H61666   6.131   0.746   2.909 -3.1553  1.8208  1.7934
  457MOL0     H61667   6.117   1.033   2.835  1.5990 -1.2894  1.3306
  457MOL0     H61668   6.024   0.934   2.725 -0.2334  2.2003 -0.5841
  457MOL0     H61669   5.997   0.959   3.019  1.2061 -2.4570  0.0149
  457MOL0     H61670   5.898   0.851   2.927 -2.3055  1.2216 -0.6869
  457MOL0     H61671   5.938   1.150   2.909  0.9451 -0.9049 -2.0252
  457MOL0     H61672   5.807   1.079   2.808  0.5381  2.1961 -0.1225
  457MOL0     H61673   5.736   1.177   3.024  2.2816 -0.4952  1.3809
  457MOL0     H61674   5.801   1.039   3.105 -3.5922 -0.3138  2.3988
  457MOL0     H61675   5.595   0.960   3.052  3.0219 -0.7282  0.0020
  457MOL0     H61676   5.686   0.896   2.911  0.7531  0.3761 -0.1836
  457MOL0     H61677   6.568   0.562   2.635  2.9410 -3.2582  1.4329
  457MOL0     H61678   6.805   0.537   2.641 -1.1618 -1.3344  0.7800
  457MOL0     H61679   7.201   0.637   2.711  2.1843  1.6398 -2.0020
  457MOL0     H61680   7.447   0.675   2.698 -0.2247  1.9571 -0.0103
  457MOL0     H61681   8.639   1.107   2.054 -0.0938 -0.0477 -0.2879
  457MOL0     H61682   8.836   1.095   2.232 -0.5967  3.8534 -1.3220
  457MOL0     H61683   9.271   0.815   2.309  2.6346 -1.4019 -2.0022
  457MOL0     H61684   9.492   0.806   2.406  0.4166 -0.8014 -1.1829
  457MOL0     H61685   9.879   1.010   2.389 -2.5525 -3.4485  0.4680
  457MOL0     H61686   9.785   1.143   2.307 -0.1191  0.8402  0.7903
  457MOL0     H61687   9.659   1.172   2.523 -0.7639 -1.2928 -2.9715
  457MOL0     H61688   9.834   1.206   2.533 -0.2674 -0.0950  0.8337
  457MOL0     H61689   9.863   0.976   2.624  1.2935  2.3454  1.2873
  457MOL0     H61690   9.676   0.963   2.634  0.8249 -2.3148 -4.1525
  457MOL0     H61691   9.727   1.026   2.844 -0.0242  0.2722  0.5543
  457MOL0     H61692   9.683   1.176   2.770 -0.7360 -0.5931  1.1005
  457MOL0     H61693  10.117   1.195   2.841 -0.5742 -0.0757 -0.3572
  457MOL0     H61694   9.582   1.200   2.256  0.3912 -0.7129 -1.3693
  457MOL0     H61695   9.354   1.226   2.174  0.7332 -0.0041 -0.8671
  458MOL0     O61696   7.282   2.217  10.052  0.7830  0.3210  0.4942
  458MOL0     C61697   7.261   2.147  10.149 -0.1839  0.0042 -0.0164
  458MOL0     O61698   7.196   2.183  10.266  0.1872  0.8565  0.3732
  458MOL0     C61699   7.147   2.308  10.277  0.5934 -0.5515 -0.0530
  458MOL0     C61700   7.211   2.394  10.369  1.1590  0.0641  0.1459
  458MOL0     C61701   7.159   2.517  10.403 -0.0230 -0.0485 -0.0936
  458MOL0     C61702   7.041   2.569  10.340  0.8772  0.3365 -0.0998
  458MOL0     O61703   6.976   2.686  10.360 -0.1616  0.0422 -0.3403
  458MOL0     C61704   7.019   2.766  10.472 -0.6762  0.0858  0.1783
  458MOL0     C61705   6.967   2.913  10.450  0.4334 -0.6158  0.1010
  458MOL0     C61706   6.820   2.941  10.454 -0.8392 -0.3020  0.4566
  458MOL0     C61707   6.742   2.863  10.557  0.7721 -0.7131 -0.0456
  458MOL0     C61708   6.590   2.915  10.576 -0.1843 -0.1284  0.5005
  458MOL0     C61709   6.515   2.866  10.444 -0.3347 -0.3027 -0.0403
  458MOL0     C61710   6.362   2.874  10.468 -0.9953 -0.4096  0.1580
  458MOL0     C61711   6.305   2.814  10.340  0.1432  0.3860  0.1348
  458MOL0     N61712   6.156   2.815  10.345 -0.6060  0.1005 -0.2323
  458MOL0     C61713   6.076   2.718  10.402 -0.0368 -0.4881 -0.5784
  458MOL0     C61714   5.947   2.765  10.384 -0.4923  0.4264 -0.3592
  458MOL0     C61715   5.821   2.684  10.407  0.8889 -0.1624 -0.3399
  458MOL0     C61716   5.737   2.749  10.513  1.3964  0.7960  0.3121
  458MOL0     C61717   5.600   2.681  10.538 -0.1513 -0.8475  0.5531
  458MOL0     C61718   5.605   2.541  10.604  0.0100  0.3767  0.5531
  458MOL0     O61719   5.639   2.537  10.739  0.1130  0.8158 -0.6756
  458MOL0     C61720   5.531   2.555  10.825 -0.6316  0.3505  0.4946
  458MOL0     C61721   5.470   2.440  10.879 -0.1551  0.2117  1.2220
  458MOL0     C61722   5.358   2.449  10.961  0.3769  0.2221  0.5058
  458MOL0     C61723   5.288   2.321  11.009  0.2989 -0.6974  0.3998
  458MOL0     C61724   5.308   2.576  11.004  0.2307 -0.4884 -0.7317
  458MOL0     C61725   5.182   2.601  11.088  0.1644  0.0467 -0.6580
  458MOL0     O61726   5.071   2.525  11.063 -0.3655  0.0412 -0.1158
  458MOL0     C61727   4.956   2.588  11.089 -0.4264 -0.1251  0.6957
  458MOL0     C61728   4.879   2.542  11.199  1.4692  0.1874 -0.2998
  458MOL0     C61729   4.748   2.589  11.219 -0.5775 -0.4454  0.3610
  458MOL0     C61730   4.696   2.688  11.132  0.2315 -0.0837 -0.0083
  458MOL0     O61731   4.564   2.720  11.132  0.2879  0.4327  0.2408
  458MOL0     C61732   4.512   2.793  11.244 -0.1141  0.5278  0.5977
  458MOL0     C61733   4.365   2.791  11.218 -0.2678 -0.4375  0.3800
  458MOL0     C61734   4.310   2.656  11.180  0.0243  0.4383  0.4436
  458MOL0     C61735   4.160   2.644  11.213 -0.7455  0.6259  0.3825
  458MOL0     C61736   4.095   2.527  11.152  0.3343 -0.1080 -0.5561
  458MOL0     C61737   3.944   2.535  11.195 -0.3137 -0.0725  0.1055
  458MOL0     C61738   3.872   2.415  11.134  0.9154  0.5802 -0.4280
  458MOL0     C61739   3.723   2.431  11.159 -0.7115  0.1008 -0.1692
  458MOL0    Cl61740   3.651   2.574  11.069  0.0690  0.1568  0.4489
  458MOL0     C61741   4.769   2.723  11.025  0.2067 -1.1964 -0.3105
  458MOL0     C61742   4.905   2.682  11.002  0.5451  0.3725  0.1351
  458MOL0     O61743   5.193   2.702  11.163  0.6510  0.4284 -0.2619
  458MOL0     C61744   5.386   2.686  10.957  0.3017  0.8434  0.7251
  458MOL0     C61745   5.501   2.678  10.876  0.1988  0.0342  1.1231
  458MOL0     N61746   5.956   2.886  10.316  0.6274  0.5186 -0.5641
  458MOL0     N61747   6.077   2.918  10.310 -0.3815 -0.2232  0.4715
  458MOL0     C61748   6.990   2.489  10.228 -0.3999 -0.9268 -0.2700
  458MOL0     C61749   7.037   2.355  10.195  0.1112 -0.2618  0.8884
  458MOL0     C61750   7.311   2.007  10.135  0.7971  0.3220  0.5776
  458MOL0     C61751   7.244   1.901  10.195 -0.1380  0.5331  0.2379
  458MOL0     C61752   7.282   1.773  10.177  0.3888  0.6431  0.5458
  458MOL0     C61753   7.398   1.734  10.102 -0.0981 -0.1250  0.1238
  458MOL0     O61754   7.441   1.605  10.081 -0.0548 -0.8303 -0.2414
  458MOL0     C61755   7.343   1.513  10.084  0.5574 -0.6506 -0.6495
  458MOL0     C61756   7.398   1.373  10.060  0.3040 -0.5486 -0.0181
  458MOL0     C61757   7.491   1.334  10.169  0.6959  0.2144 -0.1976
  458MOL0     C61758   7.586   1.223  10.126 -0.7426  0.2075 -1.2228
  458MOL0     C61759   7.678   1.244  10.011  0.0268  0.7078 -0.2360
  458MOL0     C61760   7.768   1.257   9.930  0.2234 -0.8334 -0.1361
  458MOL0     C61761   7.468   1.838  10.049 -0.0667  0.0915 -0.2460
  458MOL0     C61762   7.423   1.972  10.064 -0.9564  0.8251 -0.0203
  458MOL0     H61763   7.294   2.348  10.423 -2.2474 -2.1464  4.0532
  458MOL0     H61764   7.207   2.571  10.484  0.7590 -1.1668  0.2147
  458MOL0     H61765   6.990   2.720  10.567  1.0043 -1.2950  0.0653
  458MOL0     H61766   7.128   2.772  10.477 -0.5203 -1.1626 -1.0559
  458MOL0     H61767   7.024   2.973  10.522  1.1601  1.1600 -1.8387
  458MOL0     H61768   6.995   2.943  10.349 -0.0142  0.8659  0.3926
  458MOL0     H61769   6.801   3.049  10.466  2.0017  0.1035  2.3449
  458MOL0     H61770   6.777   2.930  10.354  0.1570  3.7642 -0.6341
  458MOL0     H61771   6.749   2.756  10.534 -1.0020 -1.1792  1.2837
  458MOL0     H61772   6.796   2.878  10.651 -1.4066 -0.8706  1.3248
  458MOL0     H61773   6.547   2.874  10.667 -0.8766 -0.1662  0.1625
  458MOL0     H61774   6.589   3.025  10.580  1.7375  0.0807 -1.9116
  458MOL0     H61775   6.553   2.922  10.358  2.0457 -0.8051  0.6274
  458MOL0     H61776   6.552   2.764  10.427  1.0006  0.0155  0.8304
  458MOL0     H61777   6.334   2.832  10.565  0.5072 -0.6275  0.5234
  458MOL0     H61778   6.325   2.977  10.467 -2.9947 -1.0782  0.1670
  458MOL0     H61779   6.345   2.715  10.315 -1.8663 -0.1828 -0.9744
  458MOL0     H61780   6.329   2.878  10.255 -0.2553 -0.5442 -0.6961
  458MOL0     H61781   6.102   2.625  10.451 -0.6481 -1.1382 -1.4552
  458MOL0     H61782   5.767   2.676  10.312  0.4239  3.1961 -0.4728
  458MOL0     H61783   5.847   2.582  10.437  0.9583 -0.2813 -0.7930
  458MOL0     H61784   5.722   2.856  10.493 -0.4137  0.3238 -1.0201
  458MOL0     H61785   5.787   2.746  10.611  0.1111  0.8146  0.9856
  458MOL0     H61786   5.545   2.664  10.445 -1.3174 -0.7170  1.2111
  458MOL0     H61787   5.541   2.753  10.595  2.1404  0.9282  0.8338
  458MOL0     H61788   5.677   2.489  10.540  0.0895  0.2900  0.7117
  458MOL0     H61789   5.510   2.489  10.588  0.6119 -0.3336 -0.9227
  458MOL0     H61790   5.515   2.346  10.848 -2.1965  0.4352 -3.1237
  458MOL0     H61791   5.352   2.232  11.004  0.0554 -0.8400 -0.2747
  458MOL0     H61792   5.244   2.342  11.106  0.3211 -0.9489  0.4659
  458MOL0     H61793   5.199   2.305  10.948 -0.6687  1.0554  1.2953
  458MOL0     H61794   4.928   2.461  11.252 -0.4648 -0.7135  0.1796
  458MOL0     H61795   4.689   2.549  11.301  1.2255 -0.5512  1.6847
  458MOL0     H61796   4.523   2.737  11.337 -2.9253 -1.9496 -0.3982
  458MOL0     H61797   4.542   2.898  11.247 -1.4193  1.1209 -2.9676
  458MOL0     H61798   4.322   2.816  11.316  0.8195 -0.4884  0.8923
  458MOL0     H61799   4.345   2.860  11.136 -1.8505 -0.2293  0.9014
  458MOL0     H61800   4.366   2.572  11.223 -0.1814 -0.7754 -1.5138
  458MOL0     H61801   4.312   2.647  11.071 -2.8768  2.7368  0.0717
  458MOL0     H61802   4.142   2.642  11.321  0.8397  1.0865  0.6786
  458MOL0     H61803   4.104   2.729  11.173 -0.2537  0.1483 -1.4331
  458MOL0     H61804   4.135   2.431  11.187 -1.0913 -1.2273 -1.9016
  458MOL0     H61805   4.107   2.538  11.044 -3.0218  1.1933 -0.8974
  458MOL0     H61806   3.930   2.546  11.303  0.9002 -0.5413  0.3242
  458MOL0     H61807   3.910   2.626  11.145  1.9247  0.6424 -0.2676
  458MOL0     H61808   3.907   2.320  11.174 -1.5899 -0.5617 -0.7712
  458MOL0     H61809   3.886   2.422  11.025 -1.4662  3.2200 -0.6979
  458MOL0     H61810   3.712   2.454  11.266  2.4834 -0.3858  0.3737
  458MOL0     H61811   3.669   2.336  11.149  0.2176 -0.7702  2.1812
  458MOL0     H61812   4.719   2.776  10.945  1.4489  1.9372  0.8466
  458MOL0     H61813   4.957   2.712  10.911  0.0716  0.9022  0.0354
  458MOL0     H61814   5.350   2.785  10.981  0.5301  0.7962  1.2734
  458MOL0     H61815   5.555   2.770  10.853  0.9096 -0.7403 -0.4506
  458MOL0     H61816   6.907   2.524  10.167  0.2071 -0.1726 -0.6791
  458MOL0     H61817   6.990   2.300  10.114  2.7743 -1.4640  0.0554
  458MOL0     H61818   7.161   1.916  10.263  2.4634  1.1589  3.5625
  458MOL0     H61819   7.220   1.697  10.224  0.0139 -0.9270 -2.3010
  458MOL0     H61820   7.291   1.511  10.180 -0.3934  2.7935 -0.9639
  458MOL0     H61821   7.264   1.535  10.011 -1.1626  1.8944  1.7740
  458MOL0     H61822   7.465   1.381   9.974  0.5671  0.2904  0.2514
  458MOL0     H61823   7.309   1.315  10.037 -0.0472  0.2002 -0.6014
  458MOL0     H61824   7.436   1.287  10.252 -1.1877 -0.2089 -1.6220
  458MOL0     H61825   7.552   1.421  10.196 -1.1838  1.8267 -0.9062
  458MOL0     H61826   7.538   1.129  10.097  1.1976 -1.4371  0.5921
  458MOL0     H61827   7.648   1.205  10.214  1.9726  0.5325 -2.9492
  458MOL0     H61828   7.841   1.281   9.855 -0.2412  0.5050 -0.1795
  458MOL0     H61829   7.555   1.806   9.993 -1.0653 -2.8933 -0.2823
  458MOL0     H61830   7.481   2.046  10.010 -1.0654 -0.5689 -2.1720
  459MOL0     O61831   1.425   5.829   0.616  0.7501 -1.0013 -0.0941
  459MOL0     C61832   1.467   5.881   0.515  0.4455  0.7486 -0.2971
  459MOL0     O61833   1.386   5.940   0.427  0.3176 -0.1072  0.3292
  459MOL0     C61834   1.245   5.935   0.432 -0.1217  0.4093 -0.0231
  459MOL0     C61835   1.174   5.831   0.484  0.0534  0.6348  0.1049
  459MOL0     C61836   1.043   5.851   0.522 -0.1043 -0.1206  0.5590
  459MOL0     C61837   0.965   5.960   0.495  0.0131  0.7211  0.5994
  459MOL0     O61838   0.831   5.964   0.534  0.3777  0.0599 -0.3116
  459MOL0     C61839   0.768   6.083   0.521  0.3293 -0.2085  0.7032
  459MOL0     C61840   0.637   6.094   0.599  0.5580 -0.6477 -0.1645
  459MOL0     C61841   0.510   6.050   0.523 -0.0601 -0.1131  0.3710
  459MOL0     C61842   0.391   6.036   0.614  0.0311 -0.3506 -0.0458
  459MOL0     C61843   0.346   6.168   0.679 -0.1251 -0.1799 -0.0716
  459MOL0     C61844   0.274   6.155   0.815  0.2993 -0.3634 -0.6758
  459MOL0     C61845   0.378   6.137   0.925 -0.1077 -0.7291 -0.6453
  459MOL0     C61846   0.300   6.120   1.063  0.7302 -0.3786 -0.0476
  459MOL0     N61847   0.236   6.240   1.113  0.0646  0.3675 -0.4170
  459MOL0     C61848   0.301   6.341   1.176  0.3126 -0.6667 -0.0151
  459MOL0     C61849   0.205   6.439   1.187 -0.6763 -1.2150 -0.2102
  459MOL0     C61850   0.216   6.580   1.252  0.4520  1.0908 -0.6838
  459MOL0     C61851   0.316   6.671   1.183 -0.0166 -0.1150 -0.7789
  459MOL0     C61852   0.460   6.621   1.210  0.2867 -0.2086  0.1301
  459MOL0     C61853   0.556   6.738   1.207 -0.2284 -0.0731 -0.1527
  459MOL0     O61854   0.688   6.681   1.214  0.1146  0.0977 -0.1949
  459MOL0     C61855   0.800   6.757   1.236 -0.3592  0.1595  0.2057
  459MOL0     C61856   0.805   6.882   1.286 -0.7053 -0.6062 -0.8645
  459MOL0     C61857   0.929   6.953   1.312 -0.0919 -0.3205 -0.0720
  459MOL0     C61858   0.918   7.100   1.361  0.3611 -0.6165 -0.0177
  459MOL0     C61859   1.053   6.894   1.286  0.3478 -0.1005  0.3343
  459MOL0     C61860   1.185   6.959   1.300  0.8247  0.2618 -0.3254
  459MOL0     O61861   1.293   6.905   1.231 -0.3946 -0.5881  0.0700
  459MOL0     C61862   1.414   6.952   1.273  0.2431 -0.8096 -0.1961
  459MOL0     C61863   1.485   7.067   1.226  0.2626 -0.8194 -0.3816
  459MOL0     C61864   1.623   7.077   1.258 -0.1207 -0.4707  0.0444
  459MOL0     C61865   1.687   6.989   1.343 -0.5705  0.9183 -0.1383
  459MOL0     O61866   1.823   7.006   1.351  0.1216  0.0205 -0.1233
  459MOL0     C61867   1.910   6.895   1.335  0.1313 -0.2581 -0.1526
  459MOL0     C61868   2.053   6.927   1.377  0.3253 -0.3544  0.1293
  459MOL0     C61869   2.151   6.830   1.316  0.5830  0.1312  0.1515
  459MOL0     C61870   2.291   6.857   1.378 -0.2902  0.5801 -0.1184
  459MOL0     C61871   2.397   6.812   1.274 -0.1921 -0.4003 -0.3226
  459MOL0     C61872   2.537   6.873   1.311 -0.5317 -0.1099  0.1920
  459MOL0     C61873   2.635   6.828   1.208  0.0154  0.5722 -0.2150
  459MOL0     C61874   2.765   6.899   1.217 -0.2080 -0.2401  0.2543
  459MOL0    Cl61875   2.849   6.852   1.371 -0.3180 -0.5992 -0.2649
  459MOL0     C61876   1.616   6.879   1.400 -0.5129  0.2237  0.1012
  459MOL0     C61877   1.487   6.853   1.342  0.1208 -0.6616 -0.0845
  459MOL0     O61878   1.188   7.035   1.394  0.6807 -0.8736 -0.4630
  459MOL0     C61879   1.047   6.760   1.238 -0.2565 -0.6452 -0.4419
  459MOL0     C61880   0.922   6.692   1.224 -0.1648  0.2359 -0.4499
  459MOL0     N61881   0.092   6.399   1.119  0.8093 -0.2439  0.4842
  459MOL0     N61882   0.114   6.288   1.069 -0.3665  0.0889 -0.3908
  459MOL0     C61883   1.034   6.055   0.412 -0.2894  0.1287  0.2638
  459MOL0     C61884   1.171   6.043   0.388 -0.6663 -0.3018  0.0359
  459MOL0     C61885   1.613   5.877   0.491 -0.2300  0.1765 -0.0299
  459MOL0     C61886   1.696   5.806   0.582  0.4565  1.0291 -0.5614
  459MOL0     C61887   1.833   5.796   0.563  0.7403  1.1753  0.2263
  459MOL0     C61888   1.895   5.842   0.448  0.4445  0.2593  1.2059
  459MOL0     O61889   2.034   5.832   0.442 -0.6427  0.8868  0.0624
  459MOL0     C61890   2.084   5.803   0.311 -0.6319 -0.2397  0.5614
  459MOL0     C61891   2.241   5.761   0.302  0.2685 -0.0526  0.9585
  459MOL0     C61892   2.340   5.876   0.308 -0.3150  1.5137  0.0552
  459MOL0     C61893   2.344   5.947   0.443 -0.1923 -0.4713  0.6218
  459MOL0     C61894   2.483   5.995   0.469  0.0979 -1.0816 -0.3546
  459MOL0     C61895   2.589   6.053   0.486  0.3688 -0.0468 -0.5216
  459MOL0     C61896   1.811   5.919   0.358 -0.1970  0.4187  0.5526
  459MOL0     C61897   1.675   5.934   0.380 -0.3282  0.5736 -0.5577
  459MOL0     H61898   1.233   5.742   0.507  1.8965  1.4089 -1.3826
  459MOL0     H61899   0.998   5.771   0.581  1.3458 -0.5684  1.0878
  459MOL0     H61900   0.839   6.163   0.544  2.7071 -1.9937 -0.0561
  459MOL0     H61901   0.754   6.097   0.414  1.2831 -1.5598  0.3691
  459MOL0     H61902   0.635   6.044   0.697 -2.2861 -0.3946 -0.0153
  459MOL0     H61903   0.632   6.199   0.627 -0.6860 -0.3699 -1.3562
  459MOL0     H61904   0.481   6.113   0.438 -1.0228  1.1424  1.5737
  459MOL0     H61905   0.522   5.946   0.491 -4.3760 -0.3742 -1.0817
  459MOL0     H61906   0.306   5.994   0.560  1.7284 -2.5575 -1.1626
  459MOL0     H61907   0.416   5.959   0.687  0.9189 -1.4170 -1.4348
  459MOL0     H61908   0.430   6.237   0.686 -0.8713  0.8577 -0.9054
  459MOL0     H61909   0.290   6.222   0.602  1.6101  1.7312 -0.0701
  459MOL0     H61910   0.220   6.248   0.834  2.2384  1.2319 -2.4598
  459MOL0     H61911   0.214   6.064   0.809  3.9957 -3.0551 -0.5734
  459MOL0     H61912   0.443   6.052   0.903 -2.1268 -2.3678 -0.6569
  459MOL0     H61913   0.445   6.223   0.930  1.0057 -1.5366 -1.2679
  459MOL0     H61914   0.360   6.063   1.134 -2.2225 -2.5926  0.8730
  459MOL0     H61915   0.224   6.044   1.042 -0.1754 -0.3187  2.6144
  459MOL0     H61916   0.396   6.345   1.229  0.1154  0.7445  0.2787
  459MOL0     H61917   0.117   6.624   1.237  0.4450  0.6089 -2.2127
  459MOL0     H61918   0.244   6.573   1.358 -0.7056 -3.3258 -0.4589
  459MOL0     H61919   0.303   6.770   1.228  2.6372 -0.6323  1.3490
  459MOL0     H61920   0.296   6.686   1.076  0.8854  0.5827 -0.8601
  459MOL0     H61921   0.477   6.547   1.132 -0.6098 -0.9697  0.6313
  459MOL0     H61922   0.474   6.579   1.310 -0.3326 -2.0800 -0.5400
  459MOL0     H61923   0.533   6.801   1.293 -3.0998 -0.8528 -0.2411
  459MOL0     H61924   0.536   6.797   1.117  0.0096 -1.9674 -1.5036
  459MOL0     H61925   0.710   6.931   1.304 -2.3791 -2.9649 -2.6857
  459MOL0     H61926   0.943   7.108   1.467 -0.5770  0.7962  0.1246
  459MOL0     H61927   0.985   7.170   1.310 -2.0267  1.2220 -0.7880
  459MOL0     H61928   0.819   7.143   1.343  1.5948  1.2906 -2.9457
  459MOL0     H61929   1.443   7.144   1.162  1.9902 -0.4885 -1.1768
  459MOL0     H61930   1.679   7.153   1.205 -0.0620 -0.3223  0.3213
  459MOL0     H61931   1.882   6.811   1.400 -2.2942  0.9340  0.4605
  459MOL0     H61932   1.907   6.875   1.227 -1.4216  1.7497 -0.5290
  459MOL0     H61933   2.066   7.032   1.347 -0.2975 -0.0793  0.7898
  459MOL0     H61934   2.069   6.921   1.485  2.4736  1.6876  0.0058
  459MOL0     H61935   2.146   6.838   1.207 -0.8703 -2.5502 -0.0731
  459MOL0     H61936   2.123   6.728   1.344  0.5897  0.1940  0.3890
  459MOL0     H61937   2.299   6.963   1.406  0.8366  0.0081  1.8494
  459MOL0     H61938   2.305   6.803   1.471  0.9218 -1.1978 -1.2751
  459MOL0     H61939   2.364   6.855   1.179 -0.4082  0.4245  0.1131
  459MOL0     H61940   2.408   6.705   1.257  4.3936 -0.1606 -0.1556
  459MOL0     H61941   2.524   6.981   1.310 -3.3153 -0.3402 -1.6248
  459MOL0     H61942   2.555   6.846   1.416  0.5172  0.3883  0.1469
  459MOL0     H61943   2.591   6.826   1.108 -0.7754  0.5423  0.1298
  459MOL0     H61944   2.664   6.727   1.240 -0.7690  0.0713 -1.0274
  459MOL0     H61945   2.739   7.005   1.210 -2.9924 -0.9129 -1.0103
  459MOL0     H61946   2.832   6.875   1.135 -0.8424  1.3410 -0.7745
  459MOL0     H61947   1.657   6.791   1.447 -1.1953 -1.8188 -2.8347
  459MOL0     H61948   1.427   6.769   1.377  0.5274 -1.6439 -1.6568
  459MOL0     H61949   1.142   6.712   1.216  0.5140 -0.3282  1.8541
  459MOL0     H61950   0.922   6.592   1.181 -0.6615  0.9978 -2.2831
  459MOL0     H61951   0.973   6.139   0.379 -0.9548 -0.3753  0.1990
  459MOL0     H61952   1.215   6.127   0.336 -0.3581  0.4151  1.4045
  459MOL0     H61953   1.651   5.751   0.665  1.5010 -0.9166 -1.2315
  459MOL0     H61954   1.887   5.727   0.626  0.6204 -1.6494 -2.5004
  459MOL0     H61955   2.026   5.723   0.266 -1.3874  0.3127  0.5280
  459MOL0     H61956   2.066   5.888   0.245 -0.6746 -0.2157  0.6044
  459MOL0     H61957   2.267   5.716   0.205 -0.0527 -1.1097  1.3507
  459MOL0     H61958   2.256   5.678   0.371 -0.9046 -0.2017  1.0593
  459MOL0     H61959   2.327   5.950   0.228 -2.4984  1.7546  0.5641
  459MOL0     H61960   2.434   5.822   0.307 -2.1810 -2.1679 -3.0060
  459MOL0     H61961   2.324   5.869   0.516 -2.6709 -0.9527 -0.4378
  459MOL0     H61962   2.264   6.022   0.441 -0.4245 -0.6880 -2.0621
  459MOL0     H61963   2.677   6.114   0.496 -1.1696  2.1866  0.0636
  459MOL0     H61964   1.865   5.957   0.272  1.1256  0.6690  1.4528
  459MOL0     H61965   1.621   6.004   0.317 -0.5170  0.5916 -0.3773
  460MOL0     O61966   6.958   7.044  10.743 -0.2438  0.1849  0.2395
  460MOL0     C61967   7.061   7.105  10.762 -0.1859  0.0198  0.0249
  460MOL0     O61968   7.078   7.223  10.846  0.3006  0.0552  0.6125
  460MOL0     C61969   6.962   7.256  10.913 -0.0637 -0.9923 -0.7790
  460MOL0     C61970   6.975   7.292  11.054  0.4105  0.6509  0.5521
  460MOL0     C61971   6.867   7.347  11.127  0.8616  0.1885 -0.2779
  460MOL0     C61972   6.743   7.373  11.066  0.1655  0.6605 -1.3948
  460MOL0     O61973   6.644   7.416  11.148 -0.5341  0.2069  0.3562
  460MOL0     C61974   6.529   7.344  11.151 -0.3594 -0.3582 -0.6010
  460MOL0     C61975   6.548   7.218  11.230  0.8915  0.1783  0.5025
  460MOL0     C61976   6.417   7.139  11.245 -0.7909 -0.4623 -0.2993
  460MOL0     C61977   6.430   7.029  11.353 -0.2141  0.3483  0.1243
  460MOL0     C61978   6.289   6.980  11.396 -0.2278 -0.3578  0.3726
  460MOL0     C61979   6.210   7.074  11.488 -0.1662 -0.0581 -0.4025
  460MOL0     C61980   6.058   7.058  11.461 -0.0202  0.2769 -0.3180
  460MOL0     C61981   5.975   7.163  11.529 -0.2911 -0.2863 -0.2039
  460MOL0     N61982   6.000   7.304  11.479  0.6756 -0.4621  0.0098
  460MOL0     C61983   5.995   7.416  11.553 -0.1032 -0.3877 -0.3223
  460MOL0     C61984   6.026   7.519  11.464 -0.0537 -0.0436  0.1187
  460MOL0     C61985   6.024   7.669  11.493 -0.1189  0.3716  0.5363
  460MOL0     C61986   6.181   7.703  11.503  0.5966  0.9172 -0.3708
  460MOL0     C61987   6.201   7.853  11.533  0.2328 -0.0017  0.5390
  460MOL0     C61988   6.349   7.889  11.540  0.0553  0.1466  1.0082
  460MOL0     O61989   6.400   7.838  11.662 -0.1992  0.4256  0.0325
  460MOL0     C61990   6.535   7.836  11.686  0.0749 -0.4043  0.1972
  460MOL0     C61991   6.572   7.779  11.808  0.5755 -0.4441 -0.7337
  460MOL0     C61992   6.707   7.780  11.846 -0.6394 -0.4081 -0.4042
  460MOL0     C61993   6.740   7.722  11.981  0.4806 -0.0023 -0.0445
  460MOL0     C61994   6.809   7.842  11.765  1.2172 -0.7696  0.4669
  460MOL0     C61995   6.953   7.840  11.796  0.4419 -0.2280 -0.5335
  460MOL0     O61996   7.033   7.889  11.693  0.5270 -0.1506 -0.2491
  460MOL0     C61997   7.162   7.897  11.714  0.1425  0.1967 -0.3922
  460MOL0     C61998   7.212   8.015  11.766 -0.1574 -0.0776 -0.5901
  460MOL0     C61999   7.352   8.032  11.779  0.1576 -0.0181  0.0045
  460MOL0     C62000   7.448   7.937  11.731 -0.7698 -0.8208  0.3648
  460MOL0     O62001   7.584   7.960  11.731  0.5594  0.1147 -0.2880
  460MOL0     C62002   7.638   8.085  11.774  0.1165  0.6505  0.6080
  460MOL0     C62003   7.794   8.068  11.788  0.1029 -0.5730  0.2805
  460MOL0     C62004   7.867   8.206  11.810  0.2952 -0.1706  0.0010
  460MOL0     C62005   8.009   8.188  11.793 -0.5804  0.6404 -0.7251
  460MOL0     C62006   8.075   8.331  11.799 -0.9365  0.3218 -0.5798
  460MOL0     C62007   8.217   8.295  11.761 -0.5838  0.7222  0.2841
  460MOL0     C62008   8.304   8.422  11.744 -0.5295  0.6007  0.2654
  460MOL0     C62009   8.446   8.380  11.714  0.3270 -0.1322 -0.1185
  460MOL0    Cl62010   8.529   8.332  11.871 -0.5689 -0.1166 -0.0311
  460MOL0     C62011   7.395   7.820  11.669  0.0553 -1.0032 -0.5904
  460MOL0     C62012   7.256   7.805  11.662  0.1622  0.6895  0.4639
  460MOL0     O62013   6.996   7.786  11.898  0.0050 -0.2220  0.4949
  460MOL0     C62014   6.773   7.896  11.643 -0.6417  0.5019  0.4452
  460MOL0     C62015   6.637   7.885  11.606  0.3755 -0.9166  0.0105
  460MOL0     N62016   6.044   7.468  11.340  0.5422 -0.3540  0.2020
  460MOL0     N62017   6.031   7.337  11.353 -0.4198  0.0894 -0.2203
  460MOL0     C62018   6.726   7.330  10.932 -0.5554 -0.1449  0.5352
  460MOL0     C62019   6.839   7.282  10.859  0.5848 -1.1631  0.2997
  460MOL0     C62020   7.186   7.060  10.694 -0.6507  0.0709 -0.9927
  460MOL0     C62021   7.300   7.148  10.681 -0.6184 -0.3896 -0.2873
  460MOL0     C62022   7.419   7.101  10.620  0.1263  0.0381  0.3094
  460MOL0     C62023   7.428   6.971  10.572 -0.0530 -0.2611 -0.3368
  460MOL0     O62024   7.541   6.938  10.511  0.2429  0.3790 -0.4052
  460MOL0     C62025   7.573   6.801  10.503  0.0081 -0.4583 -0.5016
  460MOL0     C62026   7.726   6.784  10.483  0.2157 -0.8782 -0.1462
  460MOL0     C62027   7.799   6.859  10.592  0.0678  0.4880  0.2706
  460MOL0     C62028   7.946   6.826  10.589  0.5067 -0.0135  0.8169
  460MOL0     C62029   8.005   6.852  10.723 -0.2933 -0.0561 -0.4227
  460MOL0     C62030   8.052   6.888  10.833 -0.6598  0.3203  0.9033
  460MOL0     C62031   7.324   6.881  10.593  0.4507 -0.0938 -0.0964
  460MOL0     C62032   7.204   6.928  10.649 -0.4847  0.3173 -0.1855
  460MOL0     H62033   7.072   7.275  11.100  0.4603 -1.9484 -0.3680
  460MOL0     H62034   6.868   7.365  11.234  0.5559 -1.4591  0.0349
  460MOL0     H62035   6.452   7.402  11.202  1.6491  2.1999 -0.2253
  460MOL0     H62036   6.493   7.313  11.052 -2.5596 -1.2207  0.4124
  460MOL0     H62037   6.631   7.157  11.191  2.2289  3.0239 -1.4065
  460MOL0     H62038   6.572   7.248  11.333 -0.3136 -0.2192  0.9164
  460MOL0     H62039   6.328   7.199  11.266 -0.1596  1.6013 -2.9121
  460MOL0     H62040   6.397   7.087  11.150 -0.9903 -2.1638  0.6454
  460MOL0     H62041   6.489   6.946  11.315  2.2879  2.9246 -2.1131
  460MOL0     H62042   6.483   7.068  11.441  2.0362 -0.0929 -0.9626
  460MOL0     H62043   6.232   6.959  11.306  2.4231 -1.8027 -1.1040
  460MOL0     H62044   6.292   6.882  11.446 -1.2192  0.1824  1.5491
  460MOL0     H62045   6.237   7.050  11.591  3.6917  0.6370 -1.1187
  460MOL0     H62046   6.232   7.177  11.459  1.8048 -0.3146  0.0450
  460MOL0     H62047   6.045   7.069  11.353  2.2308  0.1036 -0.6397
  460MOL0     H62048   6.016   6.962  11.493 -4.2243  1.5715 -1.2180
  460MOL0     H62049   5.987   7.161  11.637  1.1535 -0.1915 -0.3414
  460MOL0     H62050   5.870   7.134  11.518 -1.1305  1.9473  1.2882
  460MOL0     H62051   5.970   7.429  11.657  0.0985  1.1053 -0.4381
  460MOL0     H62052   5.954   7.722  11.429 -2.5604 -0.1680  2.6140
  460MOL0     H62053   5.987   7.693  11.593  0.6717  0.6422  0.7789
  460MOL0     H62054   6.228   7.680  11.407 -0.3699 -1.0734 -0.4200
  460MOL0     H62055   6.229   7.637  11.577  1.0894  2.3922  0.6602
  460MOL0     H62056   6.162   7.877  11.632 -0.3393  0.1278  0.2896
  460MOL0     H62057   6.145   7.904  11.454 -0.7263 -4.0429 -1.6772
  460MOL0     H62058   6.361   7.997  11.535  1.6634 -0.0272  0.7036
  460MOL0     H62059   6.410   7.846  11.460  2.2033  0.2138  2.5239
  460MOL0     H62060   6.497   7.729  11.870 -0.4113  1.4285 -0.3354
  460MOL0     H62061   6.654   7.674  12.028  0.5109  0.0757  0.0909
  460MOL0     H62062   6.821   7.651  11.966 -0.1422 -0.3220 -2.2228
  460MOL0     H62063   6.780   7.798  12.048 -0.2323 -1.7384  2.4867
  460MOL0     H62064   7.142   8.092  11.798  1.7288  1.4396  0.1170
  460MOL0     H62065   7.392   8.115  11.836 -1.3346  1.7850 -1.4655
  460MOL0     H62066   7.628   8.168  11.703  1.6850  1.0451  0.8147
  460MOL0     H62067   7.600   8.125  11.869  0.8575  1.7966  0.4461
  460MOL0     H62068   7.812   8.009  11.878 -0.3080  1.3507  1.6986
  460MOL0     H62069   7.818   8.037  11.686 -2.3939  2.4234 -1.4224
  460MOL0     H62070   7.848   8.247  11.909  1.3549  1.5355 -0.4468
  460MOL0     H62071   7.822   8.284  11.749 -1.5059 -1.6877 -0.7028
  460MOL0     H62072   8.046   8.119  11.869 -2.9078 -0.9566 -0.9191
  460MOL0     H62073   8.022   8.124  11.705 -0.6872 -0.6940  0.2026
  460MOL0     H62074   8.072   8.363  11.903 -2.0716 -2.5774  0.3956
  460MOL0     H62075   8.032   8.401  11.727 -2.8193  1.2290  1.3188
  460MOL0     H62076   8.270   8.239  11.838 -1.0156 -0.5708 -0.3309
  460MOL0     H62077   8.215   8.231  11.672  0.5493 -0.8324  1.3222
  460MOL0     H62078   8.298   8.497  11.823 -1.9174  1.1390 -0.3199
  460MOL0     H62079   8.276   8.470  11.650  1.8325  0.7272 -0.4464
  460MOL0     H62080   8.502   8.460  11.665 -1.4972  0.0105 -2.0831
  460MOL0     H62081   8.461   8.295  11.646  2.8169  0.3632 -0.2792
  460MOL0     H62082   7.462   7.742  11.633 -0.1384 -0.8452 -1.3112
  460MOL0     H62083   7.206   7.715  11.627  1.4445  0.2267 -0.2786
  460MOL0     H62084   6.843   7.946  11.577 -1.7107  1.3579 -0.0697
  460MOL0     H62085   6.605   7.921  11.509 -2.0821 -1.7198  0.4317
  460MOL0     H62086   6.636   7.347  10.873 -0.5919  2.4863  1.2144
  460MOL0     H62087   6.825   7.279  10.751  0.9717  1.3166  0.1361
  460MOL0     H62088   7.288   7.245  10.728 -0.4219  0.8354 -2.5770
  460MOL0     H62089   7.496   7.178  10.616 -0.5987  0.7996  0.8394
  460MOL0     H62090   7.540   6.745  10.590  1.2172  1.0770  1.0013
  460MOL0     H62091   7.516   6.758  10.420 -2.1260  0.9342  0.1608
  460MOL0     H62092   7.742   6.823  10.382  1.9734 -2.7991 -0.6842
  460MOL0     H62093   7.749   6.678  10.469 -0.2093 -0.8265 -1.3348
  460MOL0     H62094   7.752   6.828  10.686 -0.1277  1.8851  0.6460
  460MOL0     H62095   7.776   6.965  10.584  1.2645  0.8438  1.2390
  460MOL0     H62096   8.003   6.889  10.520 -1.9804  0.2156 -1.1876
  460MOL0     H62097   7.958   6.723  10.552  1.3386  1.5870 -4.2385
  460MOL0     H62098   8.095   6.920  10.925 -1.6591 -1.4618  2.0620
  460MOL0     H62099   7.336   6.776  10.568  1.2470  0.0181 -0.2176
  460MOL0     H62100   7.127   6.854  10.663 -0.2646  0.5334  2.7160
  461MOL0     O62101   6.912   7.280   3.632  0.0271  0.6130 -0.1442
  461MOL0     C62102   6.907   7.292   3.752  0.2147  0.4197 -0.4247
  461MOL0     O62103   6.799   7.362   3.818 -0.3509  0.3396 -0.0332
  461MOL0     C62104   6.691   7.405   3.741 -0.1488  1.0647  0.0326
  461MOL0     C62105   6.630   7.346   3.632  0.6918  0.5352  0.1834
  461MOL0     C62106   6.507   7.408   3.582  0.0105  0.8942  0.4021
  461MOL0     C62107   6.450   7.515   3.635  0.1433 -0.5824 -0.7356
  461MOL0     O62108   6.315   7.553   3.594  0.7595  0.1822 -0.0776
  461MOL0     C62109   6.262   7.671   3.656 -0.2085 -0.9712 -0.2333
  461MOL0     C62110   6.130   7.697   3.603  0.1427  0.0084  0.0349
  461MOL0     C62111   6.071   7.832   3.656 -0.1899 -0.2660  0.1508
  461MOL0     C62112   5.919   7.847   3.627 -0.0774  0.7260  0.3270
  461MOL0     C62113   5.892   7.995   3.639  0.5433  0.1272  0.0621
  461MOL0     C62114   5.747   8.023   3.600 -0.3536  0.3775  0.7892
  461MOL0     C62115   5.708   8.165   3.633 -0.3042 -0.3301  0.1821
  461MOL0     C62116   5.563   8.197   3.590 -0.5987 -0.4087 -0.0108
  461MOL0     N62117   5.538   8.342   3.608 -0.5770 -0.3998  0.4193
  461MOL0     C62118   5.482   8.425   3.509 -0.0346 -0.3245 -0.6049
  461MOL0     C62119   5.498   8.554   3.560 -0.1601 -0.4039 -0.1696
  461MOL0     C62120   5.449   8.679   3.502 -0.6225 -0.1628 -0.5916
  461MOL0     C62121   5.361   8.769   3.584 -0.0913 -0.4328  0.2982
  461MOL0     C62122   5.218   8.721   3.587 -0.4274  0.3901  0.1130
  461MOL0     C62123   5.131   8.830   3.651  0.2015 -0.2535  0.8773
  461MOL0     O62124   5.001   8.771   3.683 -0.7220 -0.5437  0.6401
  461MOL0     C62125   4.893   8.852   3.679  0.1017  0.3796 -0.1706
  461MOL0     C62126   4.878   8.963   3.603  0.0514 -0.4969  0.7329
  461MOL0     C62127   4.762   9.046   3.612 -0.6397 -0.5448 -0.5067
  461MOL0     C62128   4.756   9.172   3.526  0.2264 -0.2791 -0.2944
  461MOL0     C62129   4.659   9.009   3.702 -0.9072  0.1864 -0.0438
  461MOL0     C62130   4.533   9.091   3.737 -0.2347 -0.7101 -0.5896
  461MOL0     O62131   4.426   9.033   3.798 -0.0158  0.0831  0.4009
  461MOL0     C62132   4.300   9.088   3.811  0.4537  0.4364 -0.4252
  461MOL0     C62133   4.275   9.230   3.833 -0.8811 -0.3072  0.0009
  461MOL0     C62134   4.145   9.267   3.848  0.1204  0.1522  0.0284
  461MOL0     C62135   4.034   9.177   3.854  0.2328 -0.4063 -0.0096
  461MOL0     O62136   3.906   9.229   3.882 -0.7910  0.1564  0.3550
  461MOL0     C62137   3.797   9.151   3.828 -0.0851 -0.5349 -0.5321
  461MOL0     C62138   3.664   9.215   3.845  0.5264 -0.4583 -0.7142
  461MOL0     C62139   3.628   9.327   3.743 -1.1595 -0.0663  0.3926
  461MOL0     C62140   3.485   9.387   3.755  0.5887 -0.0528  0.2482
  461MOL0     C62141   3.467   9.499   3.640 -0.0924  0.4714 -0.9025
  461MOL0     C62142   3.343   9.586   3.685 -0.1335 -0.1988  0.8415
  461MOL0     C62143   3.321   9.692   3.583 -0.0626  0.2828 -0.2730
  461MOL0     C62144   3.185   9.768   3.609 -0.2967 -0.1420  0.7708
  461MOL0    Cl62145   3.060   9.656   3.524 -0.2320  0.6017 -0.0627
  461MOL0     C62146   4.065   9.038   3.834 -0.3685 -0.5282 -1.2559
  461MOL0     C62147   4.198   8.995   3.810  0.8322  0.1583  0.6226
  461MOL0     O62148   4.526   9.200   3.690 -0.2247 -0.4241 -0.4420
  461MOL0     C62149   4.669   8.887   3.764  0.3642  0.0324  0.1960
  461MOL0     C62150   4.786   8.813   3.755  0.0455 -1.0669  0.0296
  461MOL0     N62151   5.546   8.545   3.686 -0.7786 -0.2454  0.4100
  461MOL0     N62152   5.562   8.421   3.714 -0.1369 -0.0849 -0.5769
  461MOL0     C62153   6.520   7.570   3.746 -0.2349 -0.9704  0.5982
  461MOL0     C62154   6.634   7.514   3.794 -0.3026  0.3120  0.0274
  461MOL0     C62155   7.012   7.229   3.841 -0.6356 -0.8811  0.0954
  461MOL0     C62156   6.989   7.233   3.976 -0.3896  0.3716  0.1794
  461MOL0     C62157   7.069   7.156   4.063 -0.7004 -0.2268  0.2439
  461MOL0     C62158   7.176   7.082   4.014 -0.1521 -0.2570  0.3418
  461MOL0     O62159   7.247   6.993   4.086  0.0507  0.4287  0.1800
  461MOL0     C62160   7.260   7.016   4.224 -0.3209  0.3177  0.3121
  461MOL0     C62161   7.395   6.962   4.283  0.0766  0.0395  0.3189
  461MOL0     C62162   7.518   7.031   4.237 -0.7107  0.4699  0.0127
  461MOL0     C62163   7.621   6.924   4.213  1.0089  1.2708 -0.2518
  461MOL0     C62164   7.754   6.980   4.218 -0.5283 -0.1714 -0.0880
  461MOL0     C62165   7.859   7.034   4.243 -0.1644 -0.3063 -1.0940
  461MOL0     C62166   7.212   7.105   3.887  0.0824 -0.0969 -0.0838
  461MOL0     C62167   7.129   7.170   3.794 -0.0673  0.4335  0.4084
  461MOL0     H62168   6.674   7.255   3.594  1.1183  0.8362 -0.0499
  461MOL0     H62169   6.464   7.354   3.498  0.1954  0.7226  0.4167
  461MOL0     H62170   6.254   7.652   3.763 -2.1708 -0.3654 -0.2361
  461MOL0     H62171   6.332   7.749   3.626 -0.0917 -0.4970  1.1992
  461MOL0     H62172   6.137   7.703   3.494  1.7889 -1.5375  0.0194
  461MOL0     H62173   6.066   7.610   3.621  1.7271 -0.8915  1.6257
  461MOL0     H62174   6.083   7.839   3.764  1.5131  1.1003 -0.0867
  461MOL0     H62175   6.131   7.908   3.606 -1.9997  0.1934 -1.4473
  461MOL0     H62176   5.910   7.814   3.523 -0.3148  1.2805  0.1697
  461MOL0     H62177   5.854   7.783   3.688  2.2755 -2.5919 -0.3656
  461MOL0     H62178   5.919   8.021   3.741  2.4867 -5.9266  1.5086
  461MOL0     H62179   5.947   8.057   3.567  0.8772 -1.0757 -0.7499
  461MOL0     H62180   5.744   7.999   3.493  0.9748  0.1586  0.7895
  461MOL0     H62181   5.683   7.947   3.648 -1.4373  0.0975 -0.9982
  461MOL0     H62182   5.709   8.181   3.741 -3.7553 -0.1040  0.2879
  461MOL0     H62183   5.775   8.236   3.584 -1.7732  1.9278  1.2758
  461MOL0     H62184   5.489   8.147   3.654  0.8661 -0.4006  1.7565
  461MOL0     H62185   5.545   8.159   3.489  0.5771 -0.7070 -0.1199
  461MOL0     H62186   5.447   8.396   3.410  0.9635 -2.4129 -0.4137
  461MOL0     H62187   5.540   8.730   3.468 -0.5035 -0.1848 -0.3073
  461MOL0     H62188   5.408   8.644   3.406  2.4464 -4.1106 -0.7002
  461MOL0     H62189   5.358   8.875   3.560  0.8454 -0.1094  1.5448
  461MOL0     H62190   5.403   8.764   3.684  1.0761  3.2822  0.1374
  461MOL0     H62191   5.209   8.623   3.634  0.7689  0.9600  1.6374
  461MOL0     H62192   5.187   8.710   3.483  2.2200 -1.4378 -0.5805
  461MOL0     H62193   5.138   8.922   3.592  1.1370 -0.9166 -0.0941
  461MOL0     H62194   5.185   8.858   3.742  1.9625 -1.0537  0.1375
  461MOL0     H62195   4.947   8.976   3.519  0.0292 -1.0670  0.6215
  461MOL0     H62196   4.760   9.259   3.592 -1.3196  2.2181 -3.2557
  461MOL0     H62197   4.841   9.186   3.459 -0.3921  1.2074 -0.8151
  461MOL0     H62198   4.667   9.165   3.463  1.2530 -2.7707 -1.6004
  461MOL0     H62199   4.358   9.300   3.838 -0.4224 -0.7976 -0.5669
  461MOL0     H62200   4.124   9.373   3.859 -0.8975 -0.2815  3.4550
  461MOL0     H62201   3.800   9.131   3.721 -2.0118  0.9797 -0.9378
  461MOL0     H62202   3.794   9.053   3.875 -1.2732  0.4135  1.5464
  461MOL0     H62203   3.587   9.137   3.843 -0.7239  0.6188  1.5296
  461MOL0     H62204   3.661   9.252   3.948  3.6230 -0.3548 -0.5659
  461MOL0     H62205   3.645   9.288   3.642  2.2192  2.2085 -0.0885
  461MOL0     H62206   3.702   9.407   3.754  0.8705 -1.8668  0.6503
  461MOL0     H62207   3.412   9.306   3.750  0.3117  0.2203 -0.2235
  461MOL0     H62208   3.477   9.429   3.856  2.4146  1.0616 -0.0113
  461MOL0     H62209   3.452   9.450   3.544 -0.3201  2.0502 -1.7004
  461MOL0     H62210   3.550   9.569   3.625 -0.3938  0.4550 -2.7932
  461MOL0     H62211   3.251   9.529   3.702 -1.0752  1.6899  2.5137
  461MOL0     H62212   3.359   9.629   3.784  0.9474  1.3185  0.0495
  461MOL0     H62213   3.326   9.648   3.483 -0.1983  0.2332 -0.2585
  461MOL0     H62214   3.400   9.767   3.595  1.2425 -1.2698  1.4612
  461MOL0     H62215   3.185   9.869   3.567  1.4167  0.6379  2.5249
  461MOL0     H62216   3.162   9.780   3.715 -1.6631 -0.4509  0.5291
  461MOL0     H62217   3.985   8.964   3.842  0.5194 -1.3911  0.2616
  461MOL0     H62218   4.223   8.890   3.799 -0.9046 -0.2169 -0.1030
  461MOL0     H62219   4.580   8.850   3.814 -1.5289 -0.4327 -3.1783
  461MOL0     H62220   4.797   8.714   3.799 -0.3424 -1.3732 -0.5532
  461MOL0     H62221   6.473   7.652   3.801  1.7238  0.3129  0.4423
  461MOL0     H62222   6.683   7.547   3.886  0.5175 -0.6866 -0.0222
  461MOL0     H62223   6.917   7.301   4.020 -1.8433  0.8229 -2.6772
  461MOL0     H62224   7.046   7.157   4.169 -1.5502  4.0703  0.1700
  461MOL0     H62225   7.253   7.121   4.257  0.6961  0.0915  1.2795
  461MOL0     H62226   7.167   6.972   4.261 -0.9007  1.6908  0.5535
  461MOL0     H62227   7.402   6.856   4.255 -0.3562 -0.1802  1.0243
  461MOL0     H62228   7.376   6.969   4.390 -0.4796  1.2274  0.1574
  461MOL0     H62229   7.551   7.108   4.308 -1.7268  0.2471  0.7656
  461MOL0     H62230   7.508   7.079   4.139  2.2441 -1.5074 -1.3863
  461MOL0     H62231   7.600   6.863   4.125  1.5738 -0.8777  1.0308
  461MOL0     H62232   7.622   6.856   4.298  2.0483 -0.4225 -1.5664
  461MOL0     H62233   7.954   7.079   4.262 -0.1544 -1.3312  1.7160
  461MOL0     H62234   7.303   7.056   3.853 -0.9072 -0.6529 -2.1186
  461MOL0     H62235   7.160   7.165   3.690  2.4416  2.1990  0.9771
  462MOL0     O62236   6.781   9.411   9.764  0.1628  0.1359 -0.4067
  462MOL0     C62237   6.890   9.449   9.712 -0.1884 -0.0417  0.2856
  462MOL0     O62238   6.899   9.545   9.612 -0.9823 -0.5938 -0.1135
  462MOL0     C62239   6.791   9.615   9.580 -0.0886 -0.0575  0.1621
  462MOL0     C62240   6.690   9.551   9.508  0.2136 -0.2569 -1.1234
  462MOL0     C62241   6.578   9.621   9.458  0.9295  0.5965 -0.1405
  462MOL0     C62242   6.563   9.748   9.487  0.1980  0.0013  0.8149
  462MOL0     O62243   6.457   9.811   9.425 -0.2002 -0.1427 -0.2002
  462MOL0     C62244   6.423   9.944   9.468 -0.3523  0.4057  0.0741
  462MOL0     C62245   6.298   9.995   9.390  0.0609  0.4999 -0.0979
  462MOL0     C62246   6.177   9.909   9.406 -0.6283  0.8478  0.6390
  462MOL0     C62247   6.045   9.976   9.405 -0.1731 -0.3309 -0.4836
  462MOL0     C62248   5.930   9.872   9.389  0.3448 -0.4943 -0.0574
  462MOL0     C62249   5.803   9.955   9.380  0.0235  0.4372 -0.5182
  462MOL0     C62250   5.678   9.866   9.350  1.0358  0.0426 -0.8357
  462MOL0     C62251   5.562   9.958   9.315 -0.7535  0.4501  0.0719
  462MOL0     N62252   5.472   9.901   9.220  0.2781  0.0577 -0.1623
  462MOL0     C62253   5.397   9.786   9.232 -0.7726 -0.1477  0.9273
  462MOL0     C62254   5.351   9.774   9.107  0.4393 -0.1962  0.3547
  462MOL0     C62255   5.267   9.660   9.058  0.1260 -0.7820 -0.0059
  462MOL0     C62256   5.127   9.701   9.049 -0.2544 -0.0396  0.0118
  462MOL0     C62257   5.035   9.586   9.018 -0.3810  0.0109 -0.0588
  462MOL0     C62258   4.897   9.612   9.050  0.8836  0.3095 -0.0546
  462MOL0     O62259   4.863   9.742   8.988 -0.5428  0.0945 -0.7840
  462MOL0     C62260   4.732   9.777   8.958 -1.2610  0.2803 -0.5991
  462MOL0     C62261   4.705   9.879   8.875  0.0253 -0.0921  0.5895
  462MOL0     C62262   4.577   9.917   8.842  0.3356 -0.1411 -0.1425
  462MOL0     C62263   4.550  10.004   8.716  0.6401  0.4136  0.9004
  462MOL0     C62264   4.465   9.853   8.896 -0.7641  0.0032 -0.4517
  462MOL0     C62265   4.327   9.888   8.872  0.5601  0.0912  0.0529
  462MOL0     O62266   4.239   9.792   8.900  0.2533  0.3379 -0.0370
  462MOL0     C62267   4.105   9.818   8.916 -0.5959  0.7520 -0.4622
  462MOL0     C62268   4.062   9.931   8.995  0.2007  0.3773  0.0788
  462MOL0     C62269   3.927   9.954   9.015 -0.0922  0.1151  0.2437
  462MOL0     C62270   3.833   9.867   8.966 -0.1632 -0.0354  0.4361
  462MOL0     O62271   3.700   9.904   8.978  0.1864  0.4461  0.2531
  462MOL0     C62272   3.580   9.832   8.931 -0.6654 -0.8407 -0.4807
  462MOL0     C62273   3.523   9.744   9.044 -0.4176 -0.1243 -0.2666
  462MOL0     C62274   3.412   9.653   8.981  0.3225 -0.3559  0.1210
  462MOL0     C62275   3.336   9.564   9.086  0.4870  0.0088 -0.5359
  462MOL0     C62276   3.229   9.474   9.013 -0.0369 -0.1430  0.5641
  462MOL0     C62277   3.124   9.551   8.923 -0.0869  0.5916 -0.1293
  462MOL0     C62278   3.031   9.437   8.860  1.5808 -0.5274 -1.5489
  462MOL0     C62279   2.934   9.499   8.765  0.1605 -0.6856 -0.1349
  462MOL0    Cl62280   2.805   9.385   8.680 -0.4726 -0.4161  0.0023
  462MOL0     C62281   3.878   9.754   8.892  0.6450  0.0792 -0.2077
  462MOL0     C62282   4.010   9.729   8.870 -0.3886 -0.0028  0.0056
  462MOL0     O62283   4.296  10.003   8.839  0.1035 -0.2792  0.1994
  462MOL0     C62284   4.485   9.734   8.975 -0.4926  0.2050  0.5466
  462MOL0     C62285   4.622   9.703   9.003 -0.0910  0.0891  0.1507
  462MOL0     N62286   5.394   9.878   9.025  0.3699 -0.2553  0.5915
  462MOL0     N62287   5.456   9.963   9.094 -0.2378  0.1336  0.0073
  462MOL0     C62288   6.663   9.815   9.551 -0.2698 -0.6232  0.5652
  462MOL0     C62289   6.778   9.750   9.601 -0.3682 -1.1572  0.3280
  462MOL0     C62290   7.017   9.386   9.752  0.5500 -0.6945  0.1531
  462MOL0     C62291   7.142   9.443   9.714  0.0236  0.1090 -0.2192
  462MOL0     C62292   7.262   9.387   9.763  0.2759 -0.5862 -0.2452
  462MOL0     C62293   7.263   9.279   9.849 -1.1732  0.0444  0.2963
  462MOL0     O62294   7.378   9.239   9.910 -0.2502  0.0426 -0.3660
  462MOL0     C62295   7.437   9.117   9.866 -0.8796  1.0044  0.5418
  462MOL0     C62296   7.518   9.125   9.736 -0.2273 -0.7499 -0.4494
  462MOL0     C62297   7.621   9.238   9.740  0.0723  0.3169  0.2750
  462MOL0     C62298   7.710   9.227   9.618  0.9747 -0.4185  0.6655
  462MOL0     C62299   7.782   9.353   9.581  0.1438 -0.0477 -0.1310
  462MOL0     C62300   7.865   9.440   9.568  0.5591 -1.0504 -0.1395
  462MOL0     C62301   7.143   9.217   9.875 -0.4541 -0.4319 -0.7633
  462MOL0     C62302   7.020   9.264   9.826 -0.2257 -0.6222 -0.7463
  462MOL0     H62303   6.704   9.446   9.485 -1.2406 -0.6140 -0.5205
  462MOL0     H62304   6.497   9.562   9.419  0.5799  0.7486  0.3515
  462MOL0     H62305   6.388   9.942   9.572 -3.0426 -3.2039 -0.6932
  462MOL0     H62306   6.508  10.009   9.450 -1.0446  0.4528 -4.0524
  462MOL0     H62307   6.279  10.094   9.433 -2.2577 -0.8800  2.2992
  462MOL0     H62308   6.325  10.000   9.284 -1.4907 -0.3418 -0.5611
  462MOL0     H62309   6.176   9.846   9.316  1.0693 -0.0929  1.2380
  462MOL0     H62310   6.193   9.845   9.494 -1.9633 -1.1317 -0.4878
  462MOL0     H62311   6.017  10.013   9.504 -0.4034 -0.0290 -0.6587
  462MOL0     H62312   6.042  10.058   9.333  1.9618 -0.3059 -0.6164
  462MOL0     H62313   5.948   9.818   9.296  2.1838 -1.9400  1.0696
  462MOL0     H62314   5.925   9.802   9.473 -1.9880  2.7208  2.8185
  462MOL0     H62315   5.787  10.015   9.471  0.5397  0.9817 -0.7788
  462MOL0     H62316   5.815  10.031   9.301  1.0045  2.7735  1.7219
  462MOL0     H62317   5.692   9.807   9.259 -1.5320  0.0248 -1.2809
  462MOL0     H62318   5.655   9.798   9.432  0.4820  0.7135 -0.4292
  462MOL0     H62319   5.600  10.050   9.269 -0.6626  0.2862 -0.1811
  462MOL0     H62320   5.503   9.991   9.402  0.0205  0.2898  0.6677
  462MOL0     H62321   5.384   9.730   9.323 -1.8866  2.1181  2.2678
  462MOL0     H62322   5.300   9.638   8.956 -0.9053 -0.5768 -0.3935
  462MOL0     H62323   5.274   9.573   9.125 -2.8387 -1.8567 -0.9326
  462MOL0     H62324   5.127   9.779   8.974  0.4702  0.8209  0.8788
  462MOL0     H62325   5.109   9.764   9.137  1.6720  0.7474 -0.1001
  462MOL0     H62326   5.074   9.498   9.070  0.3624  0.8842  0.9315
  462MOL0     H62327   5.039   9.560   8.912  1.5486 -0.2632  0.0347
  462MOL0     H62328   4.869   9.615   9.156 -0.7352  0.8043 -0.4744
  462MOL0     H62329   4.830   9.538   9.004 -0.7235  1.4837  0.3205
  462MOL0     H62330   4.793   9.925   8.832  0.3468  0.5781  1.8982
  462MOL0     H62331   4.484   9.948   8.649 -0.8749  1.7635  1.2137
  462MOL0     H62332   4.497  10.098   8.734  0.1809 -0.1123  2.4594
  462MOL0     H62333   4.646  10.021   8.667  1.0486 -1.4118  0.9730
  462MOL0     H62334   4.138  10.004   9.023  2.2326 -2.2078  1.9183
  462MOL0     H62335   3.904  10.041   9.075 -5.0600 -0.3009 -0.6096
  462MOL0     H62336   3.494   9.893   8.902  0.9849  1.1900 -1.3802
  462MOL0     H62337   3.599   9.780   8.836 -1.9700 -0.4438 -0.9858
  462MOL0     H62338   3.606   9.689   9.090 -1.8460 -0.8929  1.5138
  462MOL0     H62339   3.476   9.805   9.121 -0.1563 -1.0542  0.6501
  462MOL0     H62340   3.467   9.589   8.911 -1.9063 -2.2503 -0.0126
  462MOL0     H62341   3.333   9.717   8.941 -0.6085  0.1643  2.6322
  462MOL0     H62342   3.417   9.513   9.140  0.6850  0.9389  0.0775
  462MOL0     H62343   3.285   9.628   9.158 -0.6300  2.1646 -3.0620
  462MOL0     H62344   3.186   9.408   9.090 -0.7537 -1.2985 -0.7869
  462MOL0     H62345   3.285   9.409   8.945 -3.0314 -1.4796 -0.7884
  462MOL0     H62346   3.066   9.611   8.993 -0.3983  1.7559 -1.3438
  462MOL0     H62347   3.166   9.620   8.849 -1.6823  4.2738  2.1177
  462MOL0     H62348   2.975   9.401   8.947 -0.1404 -0.0407 -2.4119
  462MOL0     H62349   3.078   9.355   8.805 -3.2440 -4.3118 -0.7548
  462MOL0     H62350   2.993   9.555   8.693  1.3745  3.0007  3.3490
  462MOL0     H62351   2.878   9.574   8.821  1.2801 -0.4095  0.6398
  462MOL0     H62352   3.816   9.679   8.844  0.1969 -0.7739  1.6309
  462MOL0     H62353   4.052   9.652   8.806 -1.0338  1.2178 -1.9616
  462MOL0     H62354   4.413   9.666   9.020  1.2680 -0.8596  1.8664
  462MOL0     H62355   4.637   9.618   9.070  0.8188 -1.1222 -1.5001
  462MOL0     H62356   6.654   9.922   9.565 -1.6418 -0.5241 -0.8005
  462MOL0     H62357   6.856   9.790   9.666 -1.8126 -1.1411  2.1270
  462MOL0     H62358   7.141   9.525   9.644 -0.9783  0.7034  0.4590
  462MOL0     H62359   7.350   9.436   9.721  0.0075 -0.4539 -0.6563
  462MOL0     H62360   7.511   9.084   9.939 -1.2411 -1.8833 -0.2697
  462MOL0     H62361   7.366   9.036   9.850  0.8386 -0.3209 -0.7236
  462MOL0     H62362   7.443   9.136   9.658 -4.1333 -1.3898  2.8698
  462MOL0     H62363   7.570   9.028   9.732  0.6205 -0.2886 -0.9330
  462MOL0     H62364   7.687   9.236   9.827  1.9057  0.0696 -1.0526
  462MOL0     H62365   7.565   9.332   9.742 -0.8900 -0.2570  2.1319
  462MOL0     H62366   7.646   9.196   9.536  0.3169  1.5304  0.3787
  462MOL0     H62367   7.780   9.145   9.636  0.8672 -1.0521 -1.5916
  462MOL0     H62368   7.955   9.499   9.567  1.4050 -2.2589  0.8652
  462MOL0     H62369   7.143   9.124   9.931 -0.7825 -1.1961 -1.9914
  462MOL0     H62370   6.929   9.210   9.853  0.0151 -0.0041  1.4911
  463MOL0     O62371   1.465   5.240  11.110  0.1588 -0.6879 -0.2913
  463MOL0     C62372   1.511   5.145  11.049  0.6118 -0.2462  1.0214
  463MOL0     O62373   1.446   5.025  11.027  0.7141  0.7619 -0.6846
  463MOL0     C62374   1.311   5.017  11.048  0.6881 -0.1748 -0.0303
  463MOL0     C62375   1.274   4.884  11.061  0.2993  0.0767  0.7221
  463MOL0     C62376   1.137   4.854  11.076 -0.7439  0.0406 -1.0927
  463MOL0     C62377   1.045   4.953  11.079 -0.9594  0.6393 -0.8609
  463MOL0     O62378   0.914   4.915  11.098  0.4065  0.6774 -0.1410
  463MOL0     C62379   0.860   4.976  11.220  0.1553  0.3735 -0.2568
  463MOL0     C62380   0.700   4.983  11.224 -0.7819 -0.1123 -0.2149
  463MOL0     C62381   0.650   4.972  11.369 -0.8045  0.8475  0.5122
  463MOL0     C62382   0.504   4.939  11.371  0.8389  0.6550 -0.3840
  463MOL0     C62383   0.468   4.882  11.514 -0.6319 -0.3073 -1.0231
  463MOL0     C62384   0.321   4.830  11.510  0.7294 -0.0800 -0.0434
  463MOL0     C62385   0.255   4.799  11.647  0.3720  0.0535  0.6992
  463MOL0     C62386   0.114   4.736  11.619 -0.2218 -0.8167 -0.7251
  463MOL0     N62387   0.030   4.742  11.739 -0.7860  1.0911  0.7139
  463MOL0     C62388  -0.072   4.654  11.762  0.5699 -0.2952  0.1178
  463MOL0     C62389  -0.139   4.704  11.867 -0.7280 -0.4596 -0.0457
  463MOL0     C62390  -0.256   4.641  11.935 -0.9121  0.2069 -0.0714
  463MOL0     C62391  -0.387   4.716  11.918 -0.4908 -0.1424 -0.1806
  463MOL0     C62392  -0.493   4.671  12.019 -0.6066  0.2085  0.5606
  463MOL0     C62393  -0.639   4.672  11.969  0.5298 -0.1375 -0.5793
  463MOL0     O62394  -0.661   4.577  11.859 -0.2616 -0.6856 -0.4795
  463MOL0     C62395  -0.779   4.586  11.793  0.0645 -0.2228  0.1776
  463MOL0     C62396  -0.901   4.547  11.855 -0.3301  1.1008  0.7193
  463MOL0     C62397  -1.024   4.553  11.783  0.8755 -0.0825  0.0678
  463MOL0     C62398  -1.146   4.489  11.848  0.0146 -0.4125  0.1421
  463MOL0     C62399  -1.026   4.596  11.653 -0.6250 -0.2563 -0.0484
  463MOL0     C62400  -1.147   4.593  11.563 -0.1634 -0.0979  0.7541
  463MOL0     O62401  -1.147   4.670  11.455 -0.0339 -0.5608  0.0040
  463MOL0     C62402  -1.255   4.733  11.400 -0.8935  0.3935  0.2019
  463MOL0     C62403  -1.258   4.745  11.264  1.1419 -0.3341  0.0635
  463MOL0     C62404  -1.365   4.815  11.199 -0.1067  0.0507  0.2203
  463MOL0     C62405  -1.469   4.856  11.274  0.5725  0.3291 -0.3362
  463MOL0     O62406  -1.585   4.907  11.221 -0.2049  0.2717  0.1018
  463MOL0     C62407  -1.576   4.981  11.101 -0.0240  0.1351  0.1238
  463MOL0     C62408  -1.692   5.085  11.080  0.0958 -0.7446  0.7508
  463MOL0     C62409  -1.715   5.139  10.938 -0.4657  0.1392  0.5589
  463MOL0     C62410  -1.826   5.247  10.949  0.1402 -0.3475  0.5368
  463MOL0     C62411  -1.852   5.317  10.823  0.2181  0.3596 -0.2476
  463MOL0     C62412  -1.969   5.409  10.842  0.1820  0.0374  1.5420
  463MOL0     C62413  -2.000   5.493  10.713 -1.0533 -0.0005  0.1027
  463MOL0     C62414  -2.106   5.606  10.734 -0.3688 -0.2878  0.4492
  463MOL0    Cl62415  -2.072   5.726  10.591  0.1451  0.2027 -0.0288
  463MOL0     C62416  -1.460   4.848  11.413  0.6260 -0.7242  0.2025
  463MOL0     C62417  -1.357   4.787  11.478  0.1313 -0.6627 -0.0390
  463MOL0     O62418  -1.248   4.534  11.596  0.3316 -0.1258 -0.8078
  463MOL0     C62419  -0.906   4.648  11.597 -0.2954  0.3487 -0.7302
  463MOL0     C62420  -0.779   4.633  11.663  0.2169 -0.2717  0.6768
  463MOL0     N62421  -0.081   4.809  11.924 -0.5658  0.7749  0.0932
  463MOL0     N62422   0.013   4.834  11.833  0.4555 -0.1343 -0.2062
  463MOL0     C62423   1.082   5.080  11.054 -0.6219 -0.2960  0.4180
  463MOL0     C62424   1.214   5.117  11.033 -1.1084 -0.1548  0.8403
  463MOL0     C62425   1.649   5.160  11.003 -1.1020 -0.3726 -0.4649
  463MOL0     C62426   1.710   5.284  10.988  0.5057  0.4863 -0.3864
  463MOL0     C62427   1.848   5.294  10.941 -0.3927 -0.2434 -0.3465
  463MOL0     C62428   1.915   5.178  10.902  0.5720 -0.5160 -0.2257
  463MOL0     O62429   2.039   5.202  10.842 -0.3116  0.6124  0.3113
  463MOL0     C62430   2.132   5.089  10.826  0.8834 -0.1272 -0.0761
  463MOL0     C62431   2.253   5.101  10.730 -0.5102 -0.0121  0.3610
  463MOL0     C62432   2.367   5.178  10.790 -0.1086 -0.0276 -0.8738
  463MOL0     C62433   2.492   5.160  10.693  0.5728 -0.2729  0.4141
  463MOL0     C62434   2.591   5.263  10.716  0.2206 -0.0216 -0.3745
  463MOL0     C62435   2.670   5.355  10.735 -0.5954 -0.8303 -0.0015
  463MOL0     C62436   1.856   5.054  10.928 -0.0919 -0.2516 -0.3840
  463MOL0     C62437   1.726   5.047  10.977  0.7945 -0.3188  0.2541
  463MOL0     H62438   1.352   4.809  11.074  1.7920  1.6739  1.3268
  463MOL0     H62439   1.102   4.755  11.105  1.0695  0.0450  1.3109
  463MOL0     H62440   0.893   4.910  11.300  1.0916  2.3301  1.0572
  463MOL0     H62441   0.893   5.080  11.221 -1.6352  1.0221  2.4593
  463MOL0     H62442   0.650   5.064  11.170 -0.9106  1.0061  1.4840
  463MOL0     H62443   0.674   4.889  11.175  4.7107 -1.6575 -0.8985
  463MOL0     H62444   0.696   4.894  11.430 -1.4034  1.3484  1.6465
  463MOL0     H62445   0.658   5.067  11.422  0.6989  2.5098 -2.4255
  463MOL0     H62446   0.454   5.034  11.352 -0.1644  0.4681  1.1256
  463MOL0     H62447   0.471   4.873  11.289 -2.5482 -1.2243  2.2062
  463MOL0     H62448   0.542   4.808  11.546 -0.2659  0.1181 -0.8783
  463MOL0     H62449   0.465   4.962  11.588 -0.0984 -1.3830  0.2093
  463MOL0     H62450   0.258   4.889  11.443  1.7590 -0.6381 -1.5571
  463MOL0     H62451   0.318   4.727  11.472 -1.1193 -0.8487  1.9421
  463MOL0     H62452   0.318   4.720  11.688 -0.7721 -1.8782 -1.1152
  463MOL0     H62453   0.252   4.889  11.710  1.6961 -0.7795  2.0196
  463MOL0     H62454   0.130   4.637  11.575  0.7812  0.1264 -2.6399
  463MOL0     H62455   0.065   4.796  11.541 -0.0604 -2.7007 -2.3650
  463MOL0     H62456  -0.105   4.567  11.707  2.7084  0.1483 -2.0848
  463MOL0     H62457  -0.272   4.541  11.893  1.6348 -1.2024  1.9402
  463MOL0     H62458  -0.227   4.621  12.039 -1.0922  0.6645  0.0713
  463MOL0     H62459  -0.417   4.691  11.815  3.4218  0.2724 -1.5905
  463MOL0     H62460  -0.365   4.822  11.934 -2.0806 -0.2502  3.6529
  463MOL0     H62461  -0.486   4.737  12.106  1.9545 -0.1867  0.7084
  463MOL0     H62462  -0.476   4.571  12.060  0.7242  0.7443  1.3583
  463MOL0     H62463  -0.675   4.771  11.938 -0.5124 -0.4637 -0.4515
  463MOL0     H62464  -0.712   4.642  12.045  2.2991 -0.9120  0.8857
  463MOL0     H62465  -0.880   4.507  11.953  0.1746 -0.8556 -0.1450
  463MOL0     H62466  -1.217   4.568  11.874  1.3791  0.9146 -0.0158
  463MOL0     H62467  -1.176   4.413  11.776  0.9480 -1.9114  1.2724
  463MOL0     H62468  -1.133   4.441  11.945  0.1181 -0.1669  0.2523
  463MOL0     H62469  -1.179   4.700  11.205 -0.2364 -0.0317 -2.1224
  463MOL0     H62470  -1.373   4.808  11.091 -0.8924  1.1773  0.1929
  463MOL0     H62471  -1.477   5.024  11.084 -0.0996  0.6981  1.0550
  463MOL0     H62472  -1.588   4.904  11.024  0.3137  0.9670 -0.7901
  463MOL0     H62473  -1.792   5.053  11.109 -0.4259 -0.0651 -0.2543
  463MOL0     H62474  -1.663   5.169  11.144  0.9261 -0.9318  0.6287
  463MOL0     H62475  -1.755   5.068  10.865  0.6744 -2.1086  1.9818
  463MOL0     H62476  -1.620   5.179  10.901 -0.4125 -1.2086 -0.8396
  463MOL0     H62477  -1.921   5.212  10.990 -1.1222  1.5398 -0.6302
  463MOL0     H62478  -1.795   5.324  11.020  0.1985 -0.3793  0.5461
  463MOL0     H62479  -1.864   5.239  10.747  1.2685 -1.3299  1.2465
  463MOL0     H62480  -1.766   5.372  10.783 -0.0115 -0.1909 -1.5791
  463MOL0     H62481  -2.051   5.338  10.860  1.7340 -2.2634  0.1498
  463MOL0     H62482  -1.967   5.470  10.932 -2.2415  1.1238  0.9398
  463MOL0     H62483  -2.023   5.425  10.630  1.9915 -0.3348 -0.5702
  463MOL0     H62484  -1.910   5.543  10.676 -0.6438 -2.2088 -2.1614
  463MOL0     H62485  -2.079   5.642  10.834 -2.3884 -1.0675  1.3389
  463MOL0     H62486  -2.205   5.562  10.749 -0.3310  0.4141  3.7110
  463MOL0     H62487  -1.535   4.897  11.474  0.8120 -2.2196  1.6997
  463MOL0     H62488  -1.350   4.789  11.587 -4.3085 -1.4454  0.4562
  463MOL0     H62489  -0.890   4.695  11.501  0.6971  2.1125  0.2428
  463MOL0     H62490  -0.687   4.660  11.611 -1.1185  1.6188 -0.8572
  463MOL0     H62491   1.005   5.156  11.042 -1.0019 -0.8378 -0.7780
  463MOL0     H62492   1.240   5.217  11.000 -1.4556 -0.4384 -0.3542
  463MOL0     H62493   1.665   5.382  10.998 -0.4096  0.0126  0.3699
  463MOL0     H62494   1.883   5.393  10.912 -0.2476 -0.8020 -2.1763
  463MOL0     H62495   2.176   5.068  10.924 -1.8715  0.3431  1.3452
  463MOL0     H62496   2.080   5.000  10.792  2.8245 -0.0540 -3.8320
  463MOL0     H62497   2.216   5.145  10.636 -3.4783 -2.0130  0.4902
  463MOL0     H62498   2.287   4.999  10.712  2.5643  1.3591 -2.9900
  463MOL0     H62499   2.395   5.142  10.890 -0.0151 -0.4190 -1.0365
  463MOL0     H62500   2.336   5.282  10.798 -3.0203 -0.7977 -0.8398
  463MOL0     H62501   2.457   5.157  10.590 -0.3354  1.6023  0.6318
  463MOL0     H62502   2.538   5.064  10.720 -1.0603 -1.3592 -0.5568
  463MOL0     H62503   2.733   5.441  10.749  1.4460 -2.3588  0.7012
  463MOL0     H62504   1.906   4.963  10.897  1.7042  0.7194 -0.4628
  463MOL0     H62505   1.666   4.957  10.990  0.4189  0.1919  2.2982
  464MOL0     O62506   0.385   5.435   1.385 -0.8478  0.5995 -0.3521
  464MOL0     C62507   0.437   5.343   1.319 -0.7409  0.0324  0.3999
  464MOL0     O62508   0.378   5.220   1.291 -0.0993 -0.7091  0.3448
  464MOL0     C62509   0.252   5.184   1.328 -0.2777  0.4632  0.1697
  464MOL0     C62510   0.154   5.205   1.237  0.1793  1.0222 -0.0051
  464MOL0     C62511   0.022   5.178   1.283  0.0492 -0.0910 -0.4663
  464MOL0     C62512  -0.006   5.122   1.416 -0.9575  0.0967  0.6503
  464MOL0     O62513  -0.133   5.090   1.455  0.0360  0.2563 -0.2938
  464MOL0     C62514  -0.142   4.972   1.534 -0.8528  0.7601 -0.3507
  464MOL0     C62515  -0.272   4.903   1.524  0.3270 -0.5589 -0.5698
  464MOL0     C62516  -0.316   4.873   1.384 -0.1351 -0.8635 -0.6568
  464MOL0     C62517  -0.467   4.859   1.381  0.1896  0.3337 -0.6107
  464MOL0     C62518  -0.508   4.716   1.425 -0.1092 -0.7270  0.0303
  464MOL0     C62519  -0.656   4.690   1.445  0.4953 -0.4322  0.3370
  464MOL0     C62520  -0.677   4.551   1.503 -0.0119 -0.6015  0.0277
  464MOL0     C62521  -0.825   4.510   1.473  0.1840 -0.0389 -0.2398
  464MOL0     N62522  -0.937   4.581   1.545  0.3483  0.7966 -0.1156
  464MOL0     C62523  -1.033   4.531   1.629 -0.7935 -0.4385 -0.0589
  464MOL0     C62524  -1.095   4.635   1.699 -0.1839 -0.3757 -0.5528
  464MOL0     C62525  -1.197   4.634   1.815 -0.5530  0.1924 -0.6030
  464MOL0     C62526  -1.332   4.706   1.807 -0.1562  0.6931 -0.0062
  464MOL0     C62527  -1.320   4.853   1.789  0.0106 -0.1684  0.0119
  464MOL0     C62528  -1.463   4.907   1.794 -0.2551 -0.5182 -0.0732
  464MOL0     O62529  -1.512   4.891   1.930 -0.8890 -0.0942  0.4129
  464MOL0     C62530  -1.617   4.965   1.973  0.7145  0.9071  0.2006
  464MOL0     C62531  -1.711   5.031   1.889  0.6157 -0.0797 -0.0315
  464MOL0     C62532  -1.814   5.110   1.944 -0.1923  0.2008 -0.3437
  464MOL0     C62533  -1.918   5.164   1.853 -0.1316 -0.2000  0.3780
  464MOL0     C62534  -1.843   5.114   2.091  0.1438  0.2474  0.0136
  464MOL0     C62535  -1.959   5.176   2.162  0.2350 -0.1692  0.2323
  464MOL0     O62536  -1.987   5.146   2.297 -0.6839 -0.4138 -0.1890
  464MOL0     C62537  -2.106   5.189   2.350  0.4837 -0.9451 -0.4485
  464MOL0     C62538  -2.227   5.172   2.280  0.1882  0.2810  0.0194
  464MOL0     C62539  -2.343   5.221   2.343 -0.1971  0.3339 -0.3925
  464MOL0     C62540  -2.339   5.285   2.466 -0.1894 -0.1677 -0.3763
  464MOL0     O62541  -2.452   5.348   2.523  0.1078  0.3069 -0.8607
  464MOL0     C62542  -2.584   5.318   2.477  0.3971 -0.1102 -0.2111
  464MOL0     C62543  -2.636   5.411   2.371 -0.4631 -0.0384  0.2654
  464MOL0     C62544  -2.767   5.349   2.304 -0.5264  0.2586 -0.2773
  464MOL0     C62545  -2.887   5.371   2.399  0.5896  0.0060 -1.2876
  464MOL0     C62546  -3.023   5.343   2.321  0.5200  0.4848  0.0831
  464MOL0     C62547  -3.136   5.422   2.389 -0.2105 -0.0284  0.2600
  464MOL0     C62548  -3.268   5.355   2.352 -0.2268 -0.9753 -0.3329
  464MOL0     C62549  -3.374   5.449   2.409 -0.0994  0.6209 -0.6737
  464MOL0    Cl62550  -3.381   5.592   2.302  0.0813 -0.1709 -0.1003
  464MOL0     C62551  -2.228   5.288   2.543 -0.0297 -0.3947  0.5426
  464MOL0     C62552  -2.109   5.248   2.482  0.5411 -0.3243  0.5086
  464MOL0     O62553  -2.011   5.269   2.104 -0.9947  0.6064 -0.3644
  464MOL0     C62554  -1.744   5.046   2.161 -0.9845  0.6252 -0.6900
  464MOL0     C62555  -1.631   4.979   2.111  0.9333  0.0505  0.0571
  464MOL0     N62556  -1.050   4.743   1.620 -0.7160  0.7701 -0.4113
  464MOL0     N62557  -0.965   4.710   1.528  0.6993 -0.6411 -0.1698
  464MOL0     C62558   0.110   5.108   1.500  0.0149  0.1030  0.5599
  464MOL0     C62559   0.237   5.140   1.459 -0.3938 -0.5772  0.2430
  464MOL0     C62560   0.565   5.365   1.266  0.2025  0.0349  1.0323
  464MOL0     C62561   0.622   5.262   1.188 -0.3914  0.3393  0.2008
  464MOL0     C62562   0.753   5.270   1.148  0.1102  1.1091 -0.4114
  464MOL0     C62563   0.824   5.384   1.175  0.0118  0.0701 -0.1264
  464MOL0     O62564   0.954   5.390   1.146 -0.9738 -0.4170  0.1609
  464MOL0     C62565   1.034   5.291   1.222 -0.1628 -0.1515 -0.6173
  464MOL0     C62566   1.170   5.271   1.166 -0.4044 -0.1895 -0.5290
  464MOL0     C62567   1.188   5.182   1.050 -0.6543 -0.2332  0.5951
  464MOL0     C62568   1.318   5.214   0.976  0.0177  0.1073 -0.3435
  464MOL0     C62569   1.439   5.208   1.071 -0.1275  1.0764  0.3625
  464MOL0     C62570   1.528   5.210   1.158  0.2643 -0.4214 -0.0247
  464MOL0     C62571   0.769   5.490   1.249 -0.4661  0.3536  0.8188
  464MOL0     C62572   0.639   5.479   1.296 -0.0348  0.9621  1.3972
  464MOL0     H62573   0.168   5.242   1.136 -2.9437  0.7479 -0.6450
  464MOL0     H62574  -0.053   5.205   1.208  0.2298 -1.3597 -1.1322
  464MOL0     H62575  -0.066   4.898   1.509 -3.2423 -3.0641  2.6560
  464MOL0     H62576  -0.120   4.992   1.639 -0.1526  2.1481 -0.7320
  464MOL0     H62577  -0.274   4.805   1.573  0.4001  0.6020  1.9266
  464MOL0     H62578  -0.343   4.965   1.579  0.0877 -1.6543  0.3748
  464MOL0     H62579  -0.277   4.942   1.308  0.8059 -0.7421 -0.0811
  464MOL0     H62580  -0.263   4.779   1.364  1.8236  0.2018 -0.7623
  464MOL0     H62581  -0.523   4.933   1.440  1.7271 -0.2220  1.7057
  464MOL0     H62582  -0.480   4.864   1.273 -0.8140  1.9350 -0.4512
  464MOL0     H62583  -0.467   4.654   1.345  1.5490 -0.9156  0.9760
  464MOL0     H62584  -0.461   4.689   1.520  1.2814  1.6127  0.0787
  464MOL0     H62585  -0.700   4.771   1.504  1.0178  0.7415 -0.8425
  464MOL0     H62586  -0.709   4.694   1.350 -0.5233 -1.9870  0.7981
  464MOL0     H62587  -0.608   4.485   1.449 -1.3064 -1.5567 -0.5296
  464MOL0     H62588  -0.650   4.556   1.608  0.8343 -0.1630 -0.2058
  464MOL0     H62589  -0.829   4.406   1.507  2.6145  0.5329  2.1809
  464MOL0     H62590  -0.844   4.524   1.366 -0.8726  3.2401  0.2804
  464MOL0     H62591  -1.055   4.426   1.647 -1.2426 -0.2588  0.4731
  464MOL0     H62592  -1.222   4.529   1.835 -1.8407  0.7930  1.1560
  464MOL0     H62593  -1.142   4.668   1.903  0.6798 -3.4201  0.2106
  464MOL0     H62594  -1.397   4.689   1.892 -4.1640  0.6463 -2.8004
  464MOL0     H62595  -1.377   4.661   1.718 -0.2796  1.4162 -0.3248
  464MOL0     H62596  -1.275   4.882   1.694 -2.2377  1.5910 -0.5998
  464MOL0     H62597  -1.260   4.901   1.867  0.1228 -0.8230  0.3349
  464MOL0     H62598  -1.533   4.849   1.734  0.0818 -1.8153  0.7606
  464MOL0     H62599  -1.472   5.008   1.751 -0.7254 -0.9172 -0.9466
  464MOL0     H62600  -1.706   5.020   1.782 -0.2053  1.3242 -0.2428
  464MOL0     H62601  -1.939   5.269   1.876  1.3750  0.1431  0.2693
  464MOL0     H62602  -1.891   5.165   1.746  1.2560  2.9112  0.6520
  464MOL0     H62603  -2.006   5.100   1.865 -1.7933  1.2901 -2.5462
  464MOL0     H62604  -2.225   5.106   2.194  1.2702 -2.9650  2.3577
  464MOL0     H62605  -2.432   5.211   2.282 -1.2963  0.4312  1.1415
  464MOL0     H62606  -2.586   5.221   2.427 -0.5225  1.7651 -4.2178
  464MOL0     H62607  -2.657   5.317   2.559  1.9671  1.5904  1.2884
  464MOL0     H62608  -2.638   5.509   2.419  0.0569 -0.2821  0.7988
  464MOL0     H62609  -2.563   5.411   2.290 -0.8955 -2.1070 -0.1856
  464MOL0     H62610  -2.751   5.247   2.266  1.0262  1.0482 -1.8523
  464MOL0     H62611  -2.793   5.412   2.219  4.2242  2.0421 -0.6872
  464MOL0     H62612  -2.894   5.320   2.495 -2.3380  2.0353 -0.2845
  464MOL0     H62613  -2.888   5.476   2.430 -1.0400 -0.5833  0.8861
  464MOL0     H62614  -3.038   5.235   2.314 -0.8457  0.7219 -1.0145
  464MOL0     H62615  -3.012   5.372   2.217 -0.3633 -1.5976 -0.6468
  464MOL0     H62616  -3.122   5.412   2.497  2.6580  0.0312 -0.0160
  464MOL0     H62617  -3.124   5.523   2.351  1.0675  0.6537  2.3041
  464MOL0     H62618  -3.285   5.254   2.389 -1.6556 -0.3306  0.8729
  464MOL0     H62619  -3.282   5.353   2.244 -0.5935  1.3590 -0.3912
  464MOL0     H62620  -3.344   5.472   2.512 -0.9735 -4.2899  0.9465
  464MOL0     H62621  -3.466   5.395   2.432  1.4064 -1.1017  1.9380
  464MOL0     H62622  -2.223   5.340   2.639  2.0667  1.9062 -0.7064
  464MOL0     H62623  -2.011   5.255   2.528  1.9260  1.5029 -2.4295
  464MOL0     H62624  -1.752   5.040   2.269  0.8736 -1.9893 -0.6004
  464MOL0     H62625  -1.554   4.956   2.185  1.8218  1.7119 -0.3132
  464MOL0     H62626   0.097   5.073   1.602  1.4034  2.9561  1.8222
  464MOL0     H62627   0.321   5.130   1.527 -1.3022 -1.8408  1.2321
  464MOL0     H62628   0.567   5.174   1.159 -1.2711  0.6645  0.8257
  464MOL0     H62629   0.796   5.184   1.098 -0.3357  0.3141  0.5542
  464MOL0     H62630   1.058   5.337   1.318  2.0681 -3.2441  0.4789
  464MOL0     H62631   0.983   5.197   1.246  0.1312 -0.0486  0.4703
  464MOL0     H62632   1.236   5.237   1.246 -0.9754  0.0719  0.0657
  464MOL0     H62633   1.213   5.368   1.138  1.7806 -0.7577  0.6508
  464MOL0     H62634   1.109   5.197   0.976  0.2359 -3.2320 -1.1463
  464MOL0     H62635   1.187   5.076   1.081 -0.1253 -0.0612  1.2339
  464MOL0     H62636   1.325   5.317   0.939  4.0572  0.5538  1.1780
  464MOL0     H62637   1.324   5.151   0.887 -0.9213  2.1567 -1.9308
  464MOL0     H62638   1.597   5.230   1.237 -3.4282  4.2514  2.5473
  464MOL0     H62639   0.838   5.571   1.270  1.8806 -0.9237 -1.3097
  464MOL0     H62640   0.586   5.564   1.339 -1.1065  0.9019  0.2605
  465MOL0     O62641   2.938   1.247   9.228 -0.4917  0.5269 -0.5348
  465MOL0     C62642   3.041   1.214   9.168  0.4533  0.4016  0.8125
  465MOL0     O62643   3.058   1.094   9.101  0.3429 -0.6919 -0.2767
  465MOL0     C62644   2.949   1.012   9.090  0.5898 -0.5731  0.1287
  465MOL0     C62645   2.850   1.041   8.991  0.7342 -0.3649  0.1074
  465MOL0     C62646   2.747   0.948   8.965  0.7285 -0.8890 -0.3306
  465MOL0     C62647   2.726   0.843   9.038  0.9632 -0.4787  0.6429
  465MOL0     O62648   2.625   0.761   8.992  0.5337 -0.0224  0.8630
  465MOL0     C62649   2.615   0.631   9.044  0.2441  0.2521  0.0201
  465MOL0     C62650   2.505   0.562   8.976  0.6359  0.5108 -0.5059
  465MOL0     C62651   2.487   0.408   8.994  0.2648  0.2602  0.9246
  465MOL0     C62652   2.484   0.352   9.131  0.5938 -0.4051  0.2393
  465MOL0     C62653   2.374   0.408   9.214 -0.8999 -1.2295 -0.0008
  465MOL0     C62654   2.369   0.348   9.354 -0.6159  0.3610  0.0419
  465MOL0     C62655   2.469   0.400   9.462 -0.5337 -0.0674 -0.1047
  465MOL0     C62656   2.609   0.339   9.466  0.1758 -0.0656  0.1557
  465MOL0     N62657   2.718   0.422   9.515 -0.0384  0.4921 -0.4255
  465MOL0     C62658   2.778   0.409   9.640 -0.5117  0.0566 -0.7552
  465MOL0     C62659   2.891   0.479   9.628 -0.0121  0.6649  0.0070
  465MOL0     C62660   2.998   0.482   9.731  0.2602 -0.2963  0.1944
  465MOL0     C62661   2.948   0.515   9.874  0.1398  0.4814  0.5814
  465MOL0     C62662   2.938   0.669   9.892  0.0412  0.2932  0.6619
  465MOL0     C62663   2.883   0.713  10.017  0.2250 -0.1879  0.1547
  465MOL0     O62664   2.902   0.849  10.052  0.0213  0.5992  0.1007
  465MOL0     C62665   3.038   0.887  10.052  0.9480 -0.8988 -0.5950
  465MOL0     C62666   3.073   0.999   9.984  0.5029 -0.3970 -0.2547
  465MOL0     C62667   3.208   1.025   9.948 -0.1016 -0.4497  0.0781
  465MOL0     C62668   3.226   1.138   9.853  0.1283 -0.2637  0.3960
  465MOL0     C62669   3.315   0.955  10.012  0.0655 -0.0682  0.7770
  465MOL0     C62670   3.460   0.968   9.975  0.3382  0.7337  0.0406
  465MOL0     O62671   3.554   0.959  10.075 -0.0415 -0.0286  0.3076
  465MOL0     C62672   3.679   1.007  10.037  0.1355 -0.3763 -0.2641
  465MOL0     C62673   3.770   0.911   9.997 -0.3527  0.1781 -0.0835
  465MOL0     C62674   3.894   0.954   9.959  0.1970 -0.1863  0.2121
  465MOL0     C62675   3.936   1.088   9.956  0.7755  0.4900  0.6216
  465MOL0     O62676   4.050   1.127   9.887  0.3634  0.8178  0.1919
  465MOL0     C62677   4.165   1.159   9.973 -0.2319 -0.7547 -0.7834
  465MOL0     C62678   4.268   1.227   9.883  0.3614 -0.1441 -0.4230
  465MOL0     C62679   4.402   1.276   9.939 -0.3857 -0.2721  0.2205
  465MOL0     C62680   4.479   1.169  10.004 -0.4306  0.4317 -0.1737
  465MOL0     C62681   4.627   1.217  10.044  0.0246 -0.6496  0.1949
  465MOL0     C62682   4.719   1.215   9.922 -0.5813 -0.1187  0.3835
  465MOL0     C62683   4.868   1.234   9.960  0.8503 -0.4163  0.1877
  465MOL0     C62684   4.958   1.254   9.831 -0.6358 -0.5836 -0.7398
  465MOL0    Cl62685   5.131   1.243   9.863  0.3311  0.0572 -0.2563
  465MOL0     C62686   3.834   1.180   9.995 -0.4458 -0.1932 -0.2311
  465MOL0     C62687   3.710   1.138  10.037 -0.7687 -0.9479  0.1740
  465MOL0     O62688   3.488   0.973   9.853 -0.9187 -0.1387  0.2431
  465MOL0     C62689   3.280   0.843  10.091  0.9178 -0.1072 -0.8361
  465MOL0     C62690   3.137   0.812  10.108  0.7569 -0.2207 -0.6456
  465MOL0     N62691   2.904   0.521   9.501  0.1813 -0.2798  0.2303
  465MOL0     N62692   2.803   0.486   9.441  0.1489 -0.2242  0.1904
  465MOL0     C62693   2.814   0.818   9.144 -0.2600  1.1518  0.8786
  465MOL0     C62694   2.917   0.908   9.179 -0.4444  0.3294  0.4340
  465MOL0     C62695   3.147   1.311   9.149  0.3035 -0.3161 -0.1760
  465MOL0     C62696   3.278   1.270   9.140  0.3027 -0.2445 -0.4968
  465MOL0     C62697   3.381   1.362   9.125  0.1029 -0.9549  0.6708
  465MOL0     C62698   3.357   1.506   9.110 -0.4424 -0.3805 -0.7819
  465MOL0     O62699   3.457   1.603   9.097  0.9941  0.4276 -0.1810
  465MOL0     C62700   3.588   1.555   9.078  0.2313 -0.5541 -0.2984
  465MOL0     C62701   3.671   1.665   9.137  0.1024 -0.4893 -0.3748
  465MOL0     C62702   3.821   1.618   9.129  0.4028  0.3288  1.0033
  465MOL0     C62703   3.914   1.718   9.198  0.3294 -0.2190 -0.5701
  465MOL0     C62704   3.874   1.732   9.341 -0.0622 -0.5204 -0.0736
  465MOL0     C62705   3.854   1.726   9.464  0.7208  0.6385 -0.4258
  465MOL0     C62706   3.223   1.549   9.125  0.1901 -0.0956 -0.1243
  465MOL0     C62707   3.115   1.454   9.144  0.2423 -0.1553 -0.0618
  465MOL0     H62708   2.859   1.128   8.926 -2.2296  0.5102  0.6892
  465MOL0     H62709   2.684   0.957   8.877  0.7590 -0.8455 -0.3488
  465MOL0     H62710   2.707   0.577   9.024  0.0127 -0.1349 -0.0194
  465MOL0     H62711   2.586   0.640   9.150 -2.3069 -1.3088 -0.4582
  465MOL0     H62712   2.411   0.614   8.997 -0.7100 -2.1163  0.4631
  465MOL0     H62713   2.513   0.587   8.870  4.2095  1.5326 -0.1220
  465MOL0     H62714   2.390   0.389   8.948 -0.4881  2.9749  1.1981
  465MOL0     H62715   2.570   0.353   8.949  0.9819 -0.3757  2.9018
  465MOL0     H62716   2.490   0.243   9.141 -2.9509 -0.6245  1.2497
  465MOL0     H62717   2.584   0.373   9.170  0.7550  0.5411 -0.6628
  465MOL0     H62718   2.402   0.514   9.221 -0.5498 -1.1333 -2.2253
  465MOL0     H62719   2.281   0.388   9.161 -0.6812 -2.4375  0.0484
  465MOL0     H62720   2.270   0.366   9.395 -0.0904  0.2011  1.4348
  465MOL0     H62721   2.385   0.241   9.339  0.1997  0.3292  1.0304
  465MOL0     H62722   2.473   0.508   9.445 -3.9770  0.1924  0.0048
  465MOL0     H62723   2.414   0.400   9.556  1.0452  0.0231  0.8500
  465MOL0     H62724   2.641   0.324   9.363  2.9463  1.8722  0.5987
  465MOL0     H62725   2.624   0.241   9.512 -0.5480  0.6308  1.9844
  465MOL0     H62726   2.733   0.359   9.725  0.9724 -0.4679 -0.2458
  465MOL0     H62727   3.038   0.380   9.731 -1.1750 -0.9344  2.4275
  465MOL0     H62728   3.077   0.551   9.702 -0.5064  0.8628  0.7845
  465MOL0     H62729   3.011   0.469   9.951  0.2528 -4.5042 -2.0861
  465MOL0     H62730   2.853   0.466   9.896  0.3530  0.1790  0.8331
  465MOL0     H62731   2.879   0.724   9.817  0.3222  0.1378  0.3238
  465MOL0     H62732   3.038   0.707   9.870  0.3485 -2.0670 -2.6533
  465MOL0     H62733   2.921   0.652  10.100  1.5044  1.2279  0.6441
  465MOL0     H62734   2.780   0.681   9.997  1.0044 -2.5185 -0.4674
  465MOL0     H62735   2.991   1.054   9.938  0.0771  0.1838  1.1590
  465MOL0     H62736   3.183   1.126   9.753 -0.5726 -0.3749  0.7076
  465MOL0     H62737   3.194   1.234   9.896  3.2552 -0.2311  2.9776
  465MOL0     H62738   3.334   1.156   9.849  0.0481  0.1691  0.0706
  465MOL0     H62739   3.748   0.805   9.998  1.4014 -0.2325 -0.5470
  465MOL0     H62740   3.971   0.886   9.924  2.2417  0.9136  2.3266
  465MOL0     H62741   4.130   1.235  10.043 -2.9565 -0.6703 -2.0924
  465MOL0     H62742   4.207   1.073  10.026  1.8278 -1.0513 -2.7338
  465MOL0     H62743   4.287   1.167   9.794 -0.9158 -0.3651 -0.5628
  465MOL0     H62744   4.204   1.308   9.848 -0.7660 -1.5765 -1.8190
  465MOL0     H62745   4.387   1.350  10.018  0.7929  0.5045 -0.2498
  465MOL0     H62746   4.470   1.316   9.863  3.3911 -2.1678  2.2803
  465MOL0     H62747   4.439   1.126  10.096 -0.0892 -0.8031 -0.5850
  465MOL0     H62748   4.497   1.086   9.935 -0.9733  0.0376  0.1577
  465MOL0     H62749   4.661   1.146  10.119  0.6552  0.1267  0.6620
  465MOL0     H62750   4.631   1.311  10.100  0.7733 -1.2151  1.1138
  465MOL0     H62751   4.708   1.130   9.854 -1.7296  0.4729 -0.2107
  465MOL0     H62752   4.679   1.303   9.871  0.4243 -0.2758 -0.7102
  465MOL0     H62753   4.901   1.138  10.001 -0.0687 -1.6368 -1.7762
  465MOL0     H62754   4.874   1.317  10.031  1.6786 -1.3285  1.2184
  465MOL0     H62755   4.938   1.343   9.770 -0.2927  0.7077  0.9776
  465MOL0     H62756   4.945   1.161   9.775  1.4749 -0.6352 -1.2596
  465MOL0     H62757   3.853   1.287   9.995 -1.4898  0.0981  3.0462
  465MOL0     H62758   3.643   1.216  10.072  0.4393  0.6771 -0.9795
  465MOL0     H62759   3.354   0.784  10.145  3.1194  3.7917  0.7847
  465MOL0     H62760   3.106   0.730  10.173  2.0803  0.6254  1.1329
  465MOL0     H62761   2.807   0.734   9.213 -0.0677  0.3428 -0.0773
  465MOL0     H62762   2.991   0.888   9.256 -0.5115  1.1552  0.7203
  465MOL0     H62763   3.320   1.169   9.141  2.0118  0.4430 -0.0987
  465MOL0     H62764   3.483   1.325   9.130  0.7279  0.5053 -0.5588
  465MOL0     H62765   3.605   1.469   9.142  0.0512 -1.5127 -1.4947
  465MOL0     H62766   3.618   1.536   8.974 -0.8562  0.5168 -0.8420
  465MOL0     H62767   3.651   1.679   9.243 -0.4388 -0.4362 -0.4837
  465MOL0     H62768   3.657   1.755   9.076  2.1086 -0.4170 -0.8093
  465MOL0     H62769   3.849   1.613   9.024 -1.0436  1.8095  0.4972
  465MOL0     H62770   3.846   1.517   9.163  1.3109 -0.4288 -1.6813
  465MOL0     H62771   3.909   1.817   9.152  1.3873  0.0290 -0.1865
  465MOL0     H62772   4.010   1.667   9.187 -0.9200 -2.1821 -3.7193
  465MOL0     H62773   3.828   1.734   9.567 -4.3831  3.7240 -1.6234
  465MOL0     H62774   3.212   1.656   9.112  0.7553  0.4537  2.9852
  465MOL0     H62775   3.012   1.486   9.146 -0.1590 -1.3940 -0.2461
  466MOL0     O62776   4.313   3.192   6.294 -0.3845  0.1189  0.3023
  466MOL0     C62777   4.372   3.098   6.346 -0.5485  0.1633  0.3231
  466MOL0     O62778   4.326   3.025   6.446  0.2565 -0.1153  0.1718
  466MOL0     C62779   4.186   3.008   6.469 -0.2239 -0.0225  0.5165
  466MOL0     C62780   4.128   3.045   6.591 -0.6032 -0.0916  0.0203
  466MOL0     C62781   3.998   3.022   6.631 -0.6956  0.2288  0.1993
  466MOL0     C62782   3.913   2.947   6.544 -0.0109  0.6742 -0.0590
  466MOL0     O62783   3.790   2.900   6.576 -0.5025  0.5378 -0.4932
  466MOL0     C62784   3.752   2.914   6.717  0.3949  0.5432  0.2636
  466MOL0     C62785   3.622   2.831   6.750 -0.3160 -0.0824  0.5763
  466MOL0     C62786   3.631   2.765   6.884 -0.4758 -0.1151  0.5388
  466MOL0     C62787   3.512   2.670   6.904 -0.2496 -0.1290  0.0068
  466MOL0     C62788   3.519   2.632   7.043  0.4138  1.1238 -1.3819
  466MOL0     C62789   3.400   2.541   7.091  0.4646 -0.1546 -0.3647
  466MOL0     C62790   3.382   2.418   6.995 -0.7488 -1.0819  1.0521
  466MOL0     C62791   3.266   2.329   7.036  0.2294 -0.4331 -0.6347
  466MOL0     N62792   3.147   2.407   7.055  0.0792 -0.3274 -0.0423
  466MOL0     C62793   3.076   2.455   6.949 -0.1685 -0.1379 -0.2053
  466MOL0     C62794   2.962   2.491   7.004  0.3852  0.4812  1.0351
  466MOL0     C62795   2.847   2.555   6.937  1.0642 -0.8719 -1.1533
  466MOL0     C62796   2.812   2.497   6.799 -0.9598  0.0762  0.2961
  466MOL0     C62797   2.770   2.353   6.801 -0.1109  0.3324 -0.0632
  466MOL0     C62798   2.799   2.287   6.669  0.2783 -0.0495  0.0530
  466MOL0     O62799   2.728   2.163   6.648 -0.5449  0.1967 -0.0142
  466MOL0     C62800   2.591   2.164   6.613 -0.6030 -0.3446  0.1860
  466MOL0     C62801   2.506   2.272   6.599  0.4739  0.5278 -0.2087
  466MOL0     C62802   2.365   2.270   6.595 -0.9074  0.5384 -0.4162
  466MOL0     C62803   2.291   2.391   6.599 -0.1158 -0.1556 -0.1351
  466MOL0     C62804   2.298   2.138   6.592 -0.7814 -0.3370 -0.9640
  466MOL0     C62805   2.152   2.119   6.609 -0.2510  0.3480 -0.3804
  466MOL0     O62806   2.086   2.009   6.564  0.0850  0.6529 -0.7909
  466MOL0     C62807   1.956   1.986   6.584 -1.1806  0.9212 -0.0863
  466MOL0     C62808   1.926   1.861   6.651 -0.8772 -0.0776  0.1069
  466MOL0     C62809   1.791   1.834   6.682  0.7172 -0.1189 -0.1331
  466MOL0     C62810   1.686   1.913   6.632  0.6610 -0.6929 -0.4954
  466MOL0     O62811   1.563   1.875   6.673  0.0037  0.6895 -0.0047
  466MOL0     C62812   1.453   1.958   6.629 -0.0194  0.5535  0.1320
  466MOL0     C62813   1.341   1.862   6.609 -0.4806  0.0725 -0.7492
  466MOL0     C62814   1.213   1.909   6.542 -0.2120 -0.3546  0.6608
  466MOL0     C62815   1.119   1.967   6.646  0.3559 -1.4196  0.3305
  466MOL0     C62816   1.033   2.084   6.577 -0.3803  0.1076  0.2126
  466MOL0     C62817   0.939   2.014   6.471  0.5627 -0.4244 -0.4058
  466MOL0     C62818   0.850   2.121   6.407 -0.4639 -0.2777 -0.0963
  466MOL0     C62819   0.942   2.201   6.315 -0.6797 -0.1150 -0.0785
  466MOL0    Cl62820   0.871   2.358   6.262 -0.0382  0.5647  0.1818
  466MOL0     C62821   1.714   2.034   6.567 -0.2327 -0.1009 -0.0974
  466MOL0     C62822   1.853   2.067   6.535  0.7841 -0.2409  0.7029
  466MOL0     O62823   2.095   2.203   6.671 -0.8455  0.2992 -0.0786
  466MOL0     C62824   2.383   2.023   6.596 -0.3310  0.0009 -0.3840
  466MOL0     C62825   2.528   2.038   6.616 -0.0408  0.0606  0.1132
  466MOL0     N62826   2.974   2.463   7.143 -0.6003  0.4372 -0.2601
  466MOL0     N62827   3.083   2.402   7.173  0.2375 -0.2493 -0.1356
  466MOL0     C62828   3.965   2.904   6.421  0.4363 -0.2848  0.2347
  466MOL0     C62829   4.091   2.949   6.375  0.1197  0.2667 -0.3034
  466MOL0     C62830   4.512   3.075   6.302  0.1713 -0.1235  0.5452
  466MOL0     C62831   4.562   3.149   6.191  0.5236 -0.6649 -0.4448
  466MOL0     C62832   4.695   3.125   6.156  0.2707 -0.4742  0.2531
  466MOL0     C62833   4.772   3.032   6.223  0.0502 -0.6389  0.2625
  466MOL0     O62834   4.903   3.011   6.177 -0.2417 -0.1081  0.9523
  466MOL0     C62835   5.006   2.943   6.252 -0.3405 -0.0293 -0.4942
  466MOL0     C62836   5.148   2.975   6.206 -0.2189  0.7838 -0.2378
  466MOL0     C62837   5.255   2.895   6.279  0.0439  0.0004  0.2107
  466MOL0     C62838   5.270   2.938   6.428 -0.1741  0.2076  0.1396
  466MOL0     C62839   5.359   2.846   6.493  0.4082 -0.0555  0.3559
  466MOL0     C62840   5.434   2.762   6.539  0.3833 -0.3406 -0.3766
  466MOL0     C62841   4.726   2.977   6.342 -0.4780 -0.3034  0.2301
  466MOL0     C62842   4.590   2.991   6.376  0.5337  0.1843  0.0878
  466MOL0     H62843   4.200   3.085   6.661 -1.8276 -1.3255  2.0730
  466MOL0     H62844   3.962   3.069   6.722  2.9765  0.1649  1.8422
  466MOL0     H62845   3.829   2.876   6.784 -0.9127  1.2954  2.2779
  466MOL0     H62846   3.726   3.017   6.744  0.9878  0.4889  1.0452
  466MOL0     H62847   3.536   2.898   6.743  0.0433  0.3683  0.3966
  466MOL0     H62848   3.611   2.755   6.671 -1.8486  0.4507  0.2364
  466MOL0     H62849   3.727   2.713   6.884  1.0058  2.4705  0.1554
  466MOL0     H62850   3.635   2.845   6.958  3.2866  0.8358 -0.5142
  466MOL0     H62851   3.430   2.739   6.881  2.6653  2.9150 -2.2176
  466MOL0     H62852   3.506   2.585   6.836 -1.3760  1.3392 -1.8066
  466MOL0     H62853   3.602   2.560   7.039 -0.8172 -0.3347 -1.8163
  466MOL0     H62854   3.540   2.717   7.109 -0.6423  1.3246 -1.2976
  466MOL0     H62855   3.411   2.506   7.194 -1.0589 -1.5708 -0.6452
  466MOL0     H62856   3.307   2.599   7.093 -0.3658 -1.3546  2.9576
  466MOL0     H62857   3.362   2.449   6.892 -0.1849 -1.9398  0.6755
  466MOL0     H62858   3.471   2.355   6.994  1.0035  1.1778  2.9149
  466MOL0     H62859   3.296   2.279   7.129  0.6544  2.2643  0.7812
  466MOL0     H62860   3.242   2.250   6.963 -1.7181  0.4671 -1.0218
  466MOL0     H62861   3.111   2.471   6.847  0.2794  2.6097  0.3186
  466MOL0     H62862   2.759   2.536   6.999  0.3568  0.5363 -1.6758
  466MOL0     H62863   2.861   2.662   6.924  0.4227 -0.7626 -0.9784
  466MOL0     H62864   2.904   2.517   6.744 -1.5300  2.9949  0.2366
  466MOL0     H62865   2.734   2.561   6.757  2.3454  3.2095 -1.7350
  466MOL0     H62866   2.664   2.339   6.821 -0.3139 -0.7559 -1.6787
  466MOL0     H62867   2.827   2.302   6.880  2.7983  0.9403 -1.5987
  466MOL0     H62868   2.905   2.266   6.648  0.3141 -1.1284  1.1665
  466MOL0     H62869   2.766   2.357   6.592 -2.0816 -0.4412  0.6458
  466MOL0     H62870   2.542   2.374   6.605 -1.1994  1.0662  2.2905
  466MOL0     H62871   2.351   2.477   6.568 -2.7403  1.2115 -1.7930
  466MOL0     H62872   2.212   2.393   6.524  2.6489 -1.5258 -3.3908
  466MOL0     H62873   2.259   2.402   6.703  0.3816 -1.7722  0.2281
  466MOL0     H62874   2.010   1.797   6.673  0.4810  0.6827 -2.4019
  466MOL0     H62875   1.761   1.739   6.725 -3.2427  0.0989 -1.9828
  466MOL0     H62876   1.414   2.033   6.698  1.8937 -1.3115  3.5116
  466MOL0     H62877   1.479   2.008   6.536  1.1098 -1.8771 -0.9544
  466MOL0     H62878   1.387   1.785   6.546  0.7505 -1.8208  2.2601
  466MOL0     H62879   1.313   1.814   6.703 -1.5083 -0.0996 -1.1267
  466MOL0     H62880   1.154   1.825   6.505  0.2337 -1.3855  2.1754
  466MOL0     H62881   1.234   1.979   6.461 -2.7156  1.9516  1.8628
  466MOL0     H62882   1.043   1.898   6.683 -1.5604  1.7146  2.7702
  466MOL0     H62883   1.172   2.010   6.731  3.7287 -1.4969 -1.5603
  466MOL0     H62884   1.111   2.148   6.536 -0.7014 -1.2897 -2.8477
  466MOL0     H62885   0.966   2.119   6.655 -1.0501 -1.8161  0.5613
  466MOL0     H62886   1.010   1.977   6.396  3.4087  2.1539  0.8305
  466MOL0     H62887   0.881   1.932   6.516 -2.0398  0.2477 -2.2380
  466MOL0     H62888   0.798   2.176   6.486 -1.6789 -1.4779 -0.0279
  466MOL0     H62889   0.782   2.066   6.342 -0.5699  0.9827 -1.0967
  466MOL0     H62890   0.945   2.156   6.216 -6.0984  1.0940 -1.0823
  466MOL0     H62891   1.040   2.212   6.364 -1.3553 -1.1776  1.5868
  466MOL0     H62892   1.642   2.107   6.531 -4.0606 -2.2281  2.5163
  466MOL0     H62893   1.882   2.166   6.500  1.6475 -1.1301 -1.2857
  466MOL0     H62894   2.333   1.929   6.619  0.2596 -0.0699  0.6771
  466MOL0     H62895   2.592   1.952   6.629 -0.1384 -0.0684 -0.2624
  466MOL0     H62896   3.901   2.849   6.352 -0.3416 -0.4348  1.0593
  466MOL0     H62897   4.134   2.904   6.286  1.1769  0.3847  0.1337
  466MOL0     H62898   4.486   3.203   6.135 -0.0663 -0.8948  0.1363
  466MOL0     H62899   4.730   3.166   6.062 -0.9088 -0.8807 -0.3837
  466MOL0     H62900   4.992   2.970   6.357  0.4525  1.3453 -0.7134
  466MOL0     H62901   4.988   2.836   6.239  0.1907 -0.0592 -1.0304
  466MOL0     H62902   5.157   3.084   6.206  1.0487  0.8485  3.9563
  466MOL0     H62903   5.160   2.952   6.099 -0.2517 -0.8654  0.0814
  466MOL0     H62904   5.349   2.900   6.224  0.8173  1.6771  1.5468
  466MOL0     H62905   5.228   2.790   6.264  0.4221  0.2510 -2.6994
  466MOL0     H62906   5.178   2.961   6.483 -0.3705 -0.4707  0.1031
  466MOL0     H62907   5.305   3.042   6.424  1.7173 -0.4284 -1.4518
  466MOL0     H62908   5.496   2.690   6.589  0.7146 -0.3159 -0.7506
  466MOL0     H62909   4.800   2.913   6.389  2.2181  1.4242 -1.3609
  466MOL0     H62910   4.563   2.917   6.451  3.8973 -2.6892 -1.2822
  467MOL0     O62911   2.611   7.679   6.201 -0.4407 -0.2471 -0.2515
  467MOL0     C62912   2.614   7.560   6.172 -0.2901  0.1062 -0.5294
  467MOL0     O62913   2.504   7.488   6.133 -0.1429 -0.1215 -0.0042
  467MOL0     C62914   2.373   7.536   6.162 -0.8503 -0.6111  0.2355
  467MOL0     C62915   2.342   7.578   6.286  0.6533 -0.7113 -0.4862
  467MOL0     C62916   2.212   7.623   6.323 -0.0771 -0.3395 -0.5335
  467MOL0     C62917   2.113   7.628   6.230  0.0599 -0.7504 -0.5196
  467MOL0     O62918   1.984   7.677   6.257  0.7789  0.2915  0.3185
  467MOL0     C62919   1.889   7.651   6.158 -0.0533 -0.2852 -0.1091
  467MOL0     C62920   1.746   7.689   6.223 -0.1636 -0.8629  0.1370
  467MOL0     C62921   1.643   7.682   6.115 -0.1117 -0.5059  0.4977
  467MOL0     C62922   1.502   7.678   6.181 -0.1071 -0.3623  0.8545
  467MOL0     C62923   1.401   7.653   6.058  0.3160  0.8774  0.2420
  467MOL0     C62924   1.271   7.630   6.131 -0.1459  0.5223  0.2395
  467MOL0     C62925   1.147   7.629   6.036  0.4804  0.1215  0.4263
  467MOL0     C62926   1.102   7.497   5.986 -0.1377 -0.9031 -0.2196
  467MOL0     N62927   1.027   7.503   5.865  0.5918  0.0163  0.3172
  467MOL0     C62928   0.900   7.555   5.848 -0.6202  0.3136 -0.7609
  467MOL0     C62929   0.866   7.536   5.720 -0.2310  0.5624  0.1894
  467MOL0     C62930   0.731   7.562   5.652  0.4768  0.0480  0.3060
  467MOL0     C62931   0.629   7.468   5.720  0.4371 -0.1499 -0.0286
  467MOL0     C62932   0.653   7.311   5.713  0.4906  0.0597 -0.2169
  467MOL0     C62933   0.523   7.239   5.747 -0.8508 -0.7989 -0.0711
  467MOL0     O62934   0.406   7.269   5.661 -0.4734 -0.2859 -0.1719
  467MOL0     C62935   0.278   7.236   5.705 -0.1367 -0.0036  0.1600
  467MOL0     C62936   0.250   7.166   5.816 -0.6458  0.3724 -1.1304
  467MOL0     C62937   0.128   7.131   5.863 -0.1569 -0.4467  0.1850
  467MOL0     C62938   0.108   7.080   6.001 -0.1992 -0.0855 -0.0975
  467MOL0     C62939   0.018   7.162   5.786 -0.3290  0.1846  0.2337
  467MOL0     C62940  -0.121   7.108   5.814  0.3414 -0.2223 -0.4075
  467MOL0     O62941  -0.140   6.988   5.880 -0.0632  0.5788  0.4067
  467MOL0     C62942  -0.270   6.940   5.903  0.1329  0.1164  0.3630
  467MOL0     C62943  -0.348   6.885   5.798  0.8375 -0.5058 -0.4182
  467MOL0     C62944  -0.482   6.848   5.828 -0.9299  0.7147  0.1836
  467MOL0     C62945  -0.529   6.854   5.962 -1.5142 -0.1870 -0.4942
  467MOL0     O62946  -0.649   6.809   6.004  0.3252 -0.5477 -0.4251
  467MOL0     C62947  -0.757   6.825   5.917  0.8837  0.1703  0.2098
  467MOL0     C62948  -0.882   6.801   6.003 -0.1779 -0.6038 -0.1221
  467MOL0     C62949  -1.014   6.857   5.938  0.0390  1.0875 -0.0285
  467MOL0     C62950  -1.137   6.831   6.038  0.2006 -0.3383  0.3257
  467MOL0     C62951  -1.264   6.875   5.963  0.0328  0.5953 -0.4709
  467MOL0     C62952  -1.381   6.829   6.054 -0.3902 -1.0605 -0.2411
  467MOL0     C62953  -1.516   6.857   5.979 -0.4846 -0.3774  0.5980
  467MOL0     C62954  -1.641   6.832   6.064 -0.0933  0.8696 -0.4391
  467MOL0    Cl62955  -1.798   6.816   5.982  0.4686  0.7227 -0.6473
  467MOL0     C62956  -0.447   6.915   6.057 -0.3590 -0.2687  0.2411
  467MOL0     C62957  -0.314   6.949   6.032  0.1935  0.0941 -0.2042
  467MOL0     O62958  -0.215   7.178   5.769 -0.7270  0.0172  0.3275
  467MOL0     C62959   0.041   7.228   5.660 -0.5962 -0.1763 -0.7162
  467MOL0     C62960   0.169   7.259   5.627 -0.1033 -0.3116  1.6427
  467MOL0     N62961   0.972   7.470   5.666 -0.3460  1.1278  0.2023
  467MOL0     N62962   1.063   7.442   5.754 -0.1622 -0.1593  1.2577
  467MOL0     C62963   2.146   7.576   6.101 -0.3461  0.0804  0.3123
  467MOL0     C62964   2.274   7.534   6.070 -0.5667 -0.6712  0.6010
  467MOL0     C62965   2.739   7.499   6.163  0.6415 -0.2385  0.7396
  467MOL0     C62966   2.850   7.564   6.229 -0.3035  0.9962  0.9032
  467MOL0     C62967   2.986   7.515   6.213  0.0880  0.0588 -0.5812
  467MOL0     C62968   3.011   7.412   6.127 -0.6558  0.9929 -0.1604
  467MOL0     O62969   3.145   7.377   6.100  0.9288 -0.2518  1.1376
  467MOL0     C62970   3.172   7.277   5.996  0.0772  0.8635 -0.3538
  467MOL0     C62971   3.324   7.284   5.976 -0.5062  0.2272 -0.3655
  467MOL0     C62972   3.395   7.249   6.104 -0.3959  0.5468  0.4874
  467MOL0     C62973   3.546   7.242   6.091  0.1869  0.4818 -0.2771
  467MOL0     C62974   3.604   7.221   6.217 -0.4604  0.4539  0.7054
  467MOL0     C62975   3.662   7.205   6.321  0.4220 -0.7858  0.3864
  467MOL0     C62976   2.904   7.352   6.060 -0.6773 -0.5158 -0.8201
  467MOL0     C62977   2.768   7.391   6.076 -0.1921 -0.0591  0.1776
  467MOL0     H62978   2.411   7.582   6.369 -0.4334 -0.5866  0.4419
  467MOL0     H62979   2.189   7.670   6.418 -0.3059  0.1640 -0.8378
  467MOL0     H62980   1.910   7.699   6.062  0.9867 -1.0020 -0.2604
  467MOL0     H62981   1.883   7.543   6.141  0.3753 -0.5763  1.4115
  467MOL0     H62982   1.712   7.627   6.306 -0.9379  0.6662  0.9944
  467MOL0     H62983   1.747   7.795   6.250  0.2764 -0.4414 -1.3992
  467MOL0     H62984   1.645   7.761   6.040 -0.1394 -1.4596 -0.5392
  467MOL0     H62985   1.664   7.587   6.065 -3.5778 -1.2451  0.2175
  467MOL0     H62986   1.498   7.596   6.253 -1.7727 -1.7605 -0.7171
  467MOL0     H62987   1.467   7.769   6.231 -1.8087 -1.1507  1.1537
  467MOL0     H62988   1.400   7.743   5.996 -1.0990  0.1587 -0.8229
  467MOL0     H62989   1.422   7.566   5.994 -1.3194  1.2043 -0.8133
  467MOL0     H62990   1.268   7.536   6.188  3.9044 -0.4527 -0.8552
  467MOL0     H62991   1.263   7.711   6.204  2.3980 -0.0970  1.3221
  467MOL0     H62992   1.062   7.665   6.096  0.0848  0.1643 -0.1447
  467MOL0     H62993   1.167   7.707   5.963  1.9657 -1.5762 -1.0798
  467MOL0     H62994   1.040   7.440   6.056  0.4137 -0.2073  0.8652
  467MOL0     H62995   1.186   7.427   5.974 -2.7652 -4.3584 -0.0521
  467MOL0     H62996   0.833   7.599   5.921  0.4266  2.1766 -0.8527
  467MOL0     H62997   0.699   7.666   5.658  1.1629  0.3823 -1.4121
  467MOL0     H62998   0.745   7.526   5.550 -0.3545 -2.7548  1.0744
  467MOL0     H62999   0.528   7.490   5.685 -0.4779 -0.8137  2.0447
  467MOL0     H63000   0.615   7.504   5.822 -1.7145 -0.7066 -0.0902
  467MOL0     H63001   0.728   7.284   5.787 -1.4945 -3.3769  0.7876
  467MOL0     H63002   0.690   7.284   5.614  1.0359 -0.4266  0.1176
  467MOL0     H63003   0.501   7.272   5.849 -1.2315  2.1663 -1.0265
  467MOL0     H63004   0.555   7.134   5.754  1.6171 -0.0684  0.4329
  467MOL0     H63005   0.329   7.154   5.890 -1.8948  1.2311  0.4129
  467MOL0     H63006   0.041   7.139   6.063  0.7159 -0.9390  1.7814
  467MOL0     H63007   0.057   6.984   5.987 -1.1348  0.1771  1.3283
  467MOL0     H63008   0.201   7.075   6.059  0.3758 -1.5547 -1.0696
  467MOL0     H63009  -0.308   6.886   5.697  1.6011 -0.0904 -0.1130
  467MOL0     H63010  -0.548   6.812   5.750  0.9970  0.1918 -1.2831
  467MOL0     H63011  -0.770   6.930   5.887  1.1648  0.8897  2.3680
  467MOL0     H63012  -0.754   6.748   5.840 -0.1992 -1.5763  1.8400
  467MOL0     H63013  -0.909   6.701   6.039 -2.0216  0.0491  0.4226
  467MOL0     H63014  -0.864   6.862   6.092 -1.0899  1.1138 -1.0880
  467MOL0     H63015  -1.035   6.814   5.839 -2.7452  0.3406  0.7732
  467MOL0     H63016  -0.991   6.962   5.921 -0.2809  1.0071 -1.0437
  467MOL0     H63017  -1.151   6.730   6.077 -2.9556  1.0296  3.2135
  467MOL0     H63018  -1.120   6.905   6.117 -1.5625  2.0279 -1.3340
  467MOL0     H63019  -1.272   6.827   5.865  0.0435 -0.3098 -0.0401
  467MOL0     H63020  -1.264   6.983   5.951  0.6039  0.5573 -0.8555
  467MOL0     H63021  -1.383   6.724   6.082  0.4418 -1.0232 -0.0060
  467MOL0     H63022  -1.365   6.884   6.148  2.8235  0.1850 -1.3594
  467MOL0     H63023  -1.531   6.805   5.884 -3.2158  2.6782 -0.8062
  467MOL0     H63024  -1.517   6.964   5.961  1.3902 -0.3168  0.6832
  467MOL0     H63025  -1.646   6.911   6.140 -1.0818  0.5742 -0.1851
  467MOL0     H63026  -1.617   6.736   6.109 -0.1149  1.0038 -0.1437
  467MOL0     H63027  -0.477   6.927   6.161  0.9434  1.8851  0.4252
  467MOL0     H63028  -0.252   7.004   6.102  1.0154 -0.3438 -0.5819
  467MOL0     H63029  -0.033   7.246   5.583  0.5687  1.5434 -1.4887
  467MOL0     H63030   0.182   7.316   5.535 -0.4777 -0.5663  1.4293
  467MOL0     H63031   2.078   7.584   6.016  1.9905  2.6771 -1.4778
  467MOL0     H63032   2.297   7.503   5.969  1.3473  0.2325  0.7178
  467MOL0     H63033   2.841   7.642   6.304 -0.8584 -0.1396  2.0809
  467MOL0     H63034   3.069   7.567   6.262 -0.1836 -0.0135 -0.0295
  467MOL0     H63035   3.136   7.179   6.028 -1.1787  1.9086  1.7194
  467MOL0     H63036   3.124   7.299   5.900  1.6945  3.1078 -0.7220
  467MOL0     H63037   3.355   7.385   5.949 -0.4120  1.2375  3.0605
  467MOL0     H63038   3.353   7.218   5.894  0.4313  1.9135 -1.4266
  467MOL0     H63039   3.374   7.147   6.138  3.8483 -0.5427  0.4224
  467MOL0     H63040   3.364   7.320   6.182 -2.9345  0.5540 -0.4431
  467MOL0     H63041   3.586   7.325   6.033  2.1416 -1.4963 -1.9812
  467MOL0     H63042   3.568   7.149   6.037 -1.1338  0.3154 -0.5416
  467MOL0     H63043   3.700   7.167   6.414  1.2205  0.3888  0.5582
  467MOL0     H63044   2.929   7.281   5.981 -1.1463 -2.0108  0.3275
  467MOL0     H63045   2.691   7.341   6.019 -0.2682  1.8363 -1.4972
  468MOL0     O63046   8.682   2.889   9.409  0.5986 -0.4161  0.2273
  468MOL0     C63047   8.775   2.941   9.341  0.7740 -0.0076  0.1523
  468MOL0     O63048   8.766   3.048   9.264 -0.0200  0.8407  0.0519
  468MOL0     C63049   8.646   3.111   9.253 -0.6768 -0.0065  0.0567
  468MOL0     C63050   8.621   3.209   9.343 -0.0877 -1.0032 -0.0229
  468MOL0     C63051   8.494   3.276   9.344 -0.1930 -0.2271  0.3480
  468MOL0     C63052   8.397   3.249   9.247  1.3186 -0.0041 -0.5188
  468MOL0     O63053   8.274   3.321   9.243  0.5046 -0.0137 -0.0759
  468MOL0     C63054   8.247   3.417   9.345  0.0163  0.0996  0.0946
  468MOL0     C63055   8.114   3.474   9.309 -0.1288 -1.1240  0.0058
  468MOL0     C63056   7.997   3.386   9.353 -0.3879 -0.1388 -0.7030
  468MOL0     C63057   7.866   3.468   9.339 -0.1625  0.6022 -0.3801
  468MOL0     C63058   7.734   3.383   9.348  0.0959 -0.3313  0.1683
  468MOL0     C63059   7.617   3.474   9.376 -0.6378 -0.8107  0.3821
  468MOL0     C63060   7.485   3.400   9.388  0.5360  0.7356  0.1380
  468MOL0     C63061   7.481   3.258   9.326  0.2033  0.0244  0.5970
  468MOL0     N63062   7.357   3.194   9.364  0.4335 -0.1802  0.6662
  468MOL0     C63063   7.319   3.164   9.496  0.1995 -0.6982  0.0941
  468MOL0     C63064   7.190   3.112   9.485  0.5720 -0.0742  0.1655
  468MOL0     C63065   7.125   3.057   9.605  0.4954 -0.2555  0.2145
  468MOL0     C63066   6.968   3.090   9.597 -0.0563  0.4267  0.0295
  468MOL0     C63067   6.930   3.238   9.620 -0.3331  0.1878 -0.1429
  468MOL0     C63068   6.779   3.267   9.611 -0.5641  0.6619  0.1900
  468MOL0     O63069   6.703   3.171   9.683 -0.7739  0.3310 -0.4062
  468MOL0     C63070   6.573   3.155   9.655  0.0929  0.8184 -0.0208
  468MOL0     C63071   6.495   3.231   9.559  0.1213 -0.1777  0.4087
  468MOL0     C63072   6.355   3.212   9.530  0.4927  1.0336  0.1223
  468MOL0     C63073   6.291   3.302   9.436  0.8373 -0.2906 -0.3618
  468MOL0     C63074   6.287   3.117   9.609  1.2613 -0.2761  0.5991
  468MOL0     C63075   6.140   3.092   9.598  0.7363 -0.2832  0.6810
  468MOL0     O63076   6.075   3.043   9.708 -0.5688 -0.5687  0.2618
  468MOL0     C63077   5.942   3.003   9.688 -0.2545 -0.7472  0.4961
  468MOL0     C63078   5.912   2.873   9.671  0.0013 -0.2978 -0.5826
  468MOL0     C63079   5.779   2.825   9.654  0.7744  0.9613  0.4134
  468MOL0     C63080   5.675   2.919   9.639 -1.2677 -0.1329 -0.6442
  468MOL0     O63081   5.544   2.898   9.610 -0.0818  0.5586  0.6898
  468MOL0     C63082   5.489   2.805   9.695 -0.0539  0.0027  0.2493
  468MOL0     C63083   5.340   2.792   9.684  0.2493 -0.1434 -0.1524
  468MOL0     C63084   5.267   2.917   9.728  0.3963 -0.2733 -0.5791
  468MOL0     C63085   5.118   2.899   9.725 -0.5162 -0.2580  0.4058
  468MOL0     C63086   5.057   2.906   9.590 -0.4537  0.1196  0.7761
  468MOL0     C63087   4.909   2.864   9.593  0.0151  0.4105  0.3490
  468MOL0     C63088   4.840   2.837   9.460 -0.8299  0.1609  0.2593
  468MOL0     C63089   4.829   2.962   9.367  0.3908  0.2825  0.3330
  468MOL0    Cl63090   4.747   3.107   9.452 -0.4656  0.2794  0.0820
  468MOL0     C63091   5.715   3.057   9.632 -0.1270 -0.6343 -0.7027
  468MOL0     C63092   5.846   3.099   9.660  0.1170  0.0076 -1.0268
  468MOL0     O63093   6.092   3.102   9.486  0.5066 -0.5876 -0.4868
  468MOL0     C63094   6.361   3.036   9.697 -0.4740  0.3231 -0.2954
  468MOL0     C63095   6.498   3.053   9.716 -0.4232 -0.2461  0.0638
  468MOL0     N63096   7.145   3.106   9.352 -0.0300  0.0321  0.1659
  468MOL0     N63097   7.255   3.152   9.284 -0.2523 -0.0338  0.1126
  468MOL0     C63098   8.418   3.151   9.157  0.4251  0.9768 -0.0222
  468MOL0     C63099   8.543   3.078   9.162  0.4256  0.2654  0.6244
  468MOL0     C63100   8.899   2.873   9.364  1.0106 -0.0553 -0.6954
  468MOL0     C63101   9.016   2.946   9.336  0.4078  0.0216 -0.9139
  468MOL0     C63102   9.140   2.875   9.348  0.8817 -0.4132  0.6012
  468MOL0     C63103   9.145   2.742   9.392  0.6409  0.9838 -0.1688
  468MOL0     O63104   9.260   2.675   9.424  0.7624  0.2237 -0.0225
  468MOL0     C63105   9.377   2.734   9.449 -0.5646 -0.5853  0.4486
  468MOL0     C63106   9.478   2.623   9.480  0.1567 -0.3947  0.5749
  468MOL0     C63107   9.533   2.574   9.346  0.0056  0.6643  0.2179
  468MOL0     C63108   9.437   2.488   9.252  0.0150 -0.4843 -0.0948
  468MOL0     C63109   9.522   2.454   9.134 -0.6557 -0.2470  0.2691
  468MOL0     C63110   9.588   2.406   9.042 -0.3774 -0.0260 -1.0635
  468MOL0     C63111   9.023   2.670   9.420 -0.1017 -0.0155 -0.5311
  468MOL0     C63112   8.901   2.733   9.407  0.0208 -1.0751 -0.0627
  468MOL0     H63113   8.694   3.246   9.413 -0.3689 -1.5849  0.5863
  468MOL0     H63114   8.481   3.356   9.416  2.2926 -0.3031  0.9805
  468MOL0     H63115   8.244   3.365   9.442  0.1683 -1.6128 -0.7868
  468MOL0     H63116   8.323   3.496   9.344  2.1608 -1.5455 -5.7455
  468MOL0     H63117   8.090   3.569   9.357  2.1534 -1.7657  2.6103
  468MOL0     H63118   8.109   3.477   9.199 -0.8186 -1.2999  0.0244
  468MOL0     H63119   7.995   3.291   9.298 -0.5899  0.2560 -1.3894
  468MOL0     H63120   8.000   3.366   9.460 -1.7335  0.3334 -0.5509
  468MOL0     H63121   7.878   3.558   9.399  0.4899 -0.3296  0.9325
  468MOL0     H63122   7.872   3.499   9.234 -0.2174  0.0468 -0.5522
  468MOL0     H63123   7.713   3.320   9.262  0.6076 -0.5325  0.1878
  468MOL0     H63124   7.742   3.317   9.434  1.6814  2.2905  2.2019
  468MOL0     H63125   7.627   3.526   9.472 -1.1463 -0.3975  0.2159
  468MOL0     H63126   7.605   3.550   9.298 -2.0098  0.8457  2.0963
  468MOL0     H63127   7.459   3.395   9.494 -0.4089 -1.2000 -0.1517
  468MOL0     H63128   7.408   3.465   9.345 -0.6583  0.5820  1.9369
  468MOL0     H63129   7.570   3.210   9.368  1.1019  1.4342  0.3888
  468MOL0     H63130   7.491   3.261   9.217 -1.6476  1.3136  0.3989
  468MOL0     H63131   7.372   3.177   9.590  0.9684  1.6730 -0.6061
  468MOL0     H63132   7.156   2.953   9.620  2.5408  0.4662  1.4245
  468MOL0     H63133   7.167   3.111   9.690  0.2745 -0.4998  0.4809
  468MOL0     H63134   6.927   3.035   9.682 -1.4865 -0.0074 -0.9137
  468MOL0     H63135   6.925   3.056   9.502 -1.0695 -0.2162  0.7081
  468MOL0     H63136   6.980   3.306   9.550  0.0440 -0.8091 -0.8605
  468MOL0     H63137   6.967   3.263   9.720  0.9062  1.1642 -0.8093
  468MOL0     H63138   6.761   3.238   9.507 -0.6688  1.6892 -0.0860
  468MOL0     H63139   6.750   3.370   9.633 -2.3999  0.5121 -1.2767
  468MOL0     H63140   6.546   3.312   9.507  0.7012 -1.2961 -0.8218
  468MOL0     H63141   6.185   3.323   9.454  0.9513 -1.6946  2.3495
  468MOL0     H63142   6.347   3.396   9.437  1.2818 -0.5504  0.7285
  468MOL0     H63143   6.302   3.255   9.337 -1.6653  1.8905 -1.8208
  468MOL0     H63144   5.999   2.810   9.659  0.6890  0.4306  0.4782
  468MOL0     H63145   5.756   2.722   9.629  1.2138  1.7848 -4.1525
  468MOL0     H63146   5.536   2.707   9.685 -1.6010 -0.9985  2.2080
  468MOL0     H63147   5.502   2.841   9.797  1.8524 -0.8592  0.3338
  468MOL0     H63148   5.306   2.756   9.586 -0.0730 -1.5703  0.4658
  468MOL0     H63149   5.315   2.716   9.758  2.1261 -0.9857 -0.3141
  468MOL0     H63150   5.284   3.007   9.669 -1.5375  0.7468  0.3323
  468MOL0     H63151   5.295   2.938   9.832 -1.6943 -3.5747  0.8250
  468MOL0     H63152   5.103   2.797   9.763 -0.5751 -0.8947 -1.2210
  468MOL0     H63153   5.071   2.962   9.801 -0.3069 -1.4182  1.5353
  468MOL0     H63154   5.117   2.848   9.519 -2.1773  0.0113 -0.6733
  468MOL0     H63155   5.065   3.009   9.555  0.8800 -0.3760 -0.4993
  468MOL0     H63156   4.897   2.767   9.643 -3.0429 -1.0640 -2.8031
  468MOL0     H63157   4.855   2.939   9.654 -2.2987 -1.0652  0.2410
  468MOL0     H63158   4.746   2.788   9.489  0.9830 -2.4470  2.2525
  468MOL0     H63159   4.904   2.765   9.410 -3.2808 -2.4836  0.6514
  468MOL0     H63160   4.768   2.930   9.283  1.6821 -2.4147  0.3238
  468MOL0     H63161   4.932   2.980   9.333  0.6814 -2.7298 -0.6715
  468MOL0     H63162   5.643   3.137   9.617 -1.2120 -1.4279  0.0594
  468MOL0     H63163   5.880   3.202   9.660  0.6001 -0.1078  0.9431
  468MOL0     H63164   6.302   2.969   9.759  0.1958  0.9827  1.0871
  468MOL0     H63165   6.543   2.986   9.788  0.6694  1.5816  1.1451
  468MOL0     H63166   8.337   3.122   9.090 -2.0487  1.8464  2.4035
  468MOL0     H63167   8.548   3.001   9.086 -2.8865  3.0209 -2.8187
  468MOL0     H63168   9.012   3.049   9.302  4.1865  0.8687  0.6586
  468MOL0     H63169   9.229   2.937   9.347 -0.7281  2.0304 -0.5056
  468MOL0     H63170   9.408   2.785   9.358  0.8823 -4.5606 -1.5244
  468MOL0     H63171   9.372   2.808   9.530 -1.3542 -1.0327  0.8279
  468MOL0     H63172   9.431   2.540   9.533 -1.8418  0.5570  0.3776
  468MOL0     H63173   9.564   2.659   9.537  1.5304 -2.5399 -0.0255
  468MOL0     H63174   9.606   2.502   9.384 -0.2999 -0.0119 -0.4474
  468MOL0     H63175   9.591   2.660   9.310  0.7221  0.2999  0.4901
  468MOL0     H63176   9.344   2.542   9.232 -0.3557 -1.0032  0.2106
  468MOL0     H63177   9.406   2.399   9.307 -1.3234  1.3046  2.2676
  468MOL0     H63178   9.651   2.363   8.966  2.2144 -0.6091  1.2279
  468MOL0     H63179   9.033   2.565   9.447  3.3247  0.1522 -0.7530
  468MOL0     H63180   8.811   2.674   9.419 -0.2818 -0.4889  0.6664
  469MOL0     O63181   7.524   1.677   5.836 -0.0579 -0.0077  0.0196
  469MOL0     C63182   7.609   1.611   5.897 -0.2649  0.8747 -0.7194
  469MOL0     O63183   7.587   1.522   6.007  0.3809  0.0685 -0.3119
  469MOL0     C63184   7.461   1.490   6.059  0.0117  0.1105  0.0747
  469MOL0     C63185   7.346   1.578   6.046 -0.6488  0.2960 -0.0184
  469MOL0     C63186   7.229   1.543   6.098 -0.3466 -0.6656 -0.1173
  469MOL0     C63187   7.202   1.422   6.160 -0.8806 -0.0009 -0.1482
  469MOL0     O63188   7.089   1.374   6.217 -0.8543 -0.4623 -0.5345
  469MOL0     C63189   6.965   1.416   6.166  0.6807  0.3543  0.9019
  469MOL0     C63190   6.870   1.439   6.291  0.4081  0.7029 -0.5556
  469MOL0     C63191   6.726   1.491   6.266 -0.4786  0.3966  0.1693
  469MOL0     C63192   6.743   1.628   6.220  0.7972  0.3646  0.7694
  469MOL0     C63193   6.599   1.693   6.216 -1.1566 -0.1891 -0.2493
  469MOL0     C63194   6.522   1.663   6.086  0.5952 -0.2876 -0.6695
  469MOL0     C63195   6.387   1.744   6.092 -0.4465 -0.2983 -0.4990
  469MOL0     C63196   6.288   1.716   6.205 -0.3994  0.2128  0.0856
  469MOL0     N63197   6.158   1.773   6.180 -0.1257 -0.7239  0.4352
  469MOL0     C63198   6.118   1.895   6.238  0.2165  0.1357  0.0583
  469MOL0     C63199   5.993   1.927   6.195  0.5037 -0.1931  0.3546
  469MOL0     C63200   5.910   2.052   6.241 -0.1700  0.7374 -0.2186
  469MOL0     C63201   5.781   2.014   6.321 -0.2138  0.3222 -0.4651
  469MOL0     C63202   5.707   2.143   6.356  0.6508  0.2818  0.0987
  469MOL0     C63203   5.627   2.191   6.236  0.5603  0.9779 -0.1644
  469MOL0     O63204   5.541   2.303   6.265 -0.2001 -0.2175  0.1962
  469MOL0     C63205   5.416   2.297   6.316 -0.1591  0.0015 -0.7870
  469MOL0     C63206   5.332   2.186   6.329  1.2680  0.1521 -0.0493
  469MOL0     C63207   5.195   2.200   6.370  0.4055 -0.2667  0.9491
  469MOL0     C63208   5.111   2.066   6.375  0.1382 -0.2814 -0.3217
  469MOL0     C63209   5.143   2.330   6.403  0.4006 -0.1078  0.0574
  469MOL0     C63210   5.001   2.359   6.444 -0.3344  0.6159  0.6785
  469MOL0     O63211   4.935   2.466   6.391 -0.6901  0.3208  0.0490
  469MOL0     C63212   4.825   2.523   6.452  1.0072 -0.8401 -0.2806
  469MOL0     C63213   4.691   2.478   6.457 -0.1934 -0.0058 -0.7420
  469MOL0     C63214   4.600   2.550   6.523  0.4923  0.3597 -0.3167
  469MOL0     C63215   4.630   2.678   6.584  0.2533 -0.4752  0.6980
  469MOL0     O63216   4.538   2.755   6.651  0.0200  0.0492  0.1801
  469MOL0     C63217   4.430   2.685   6.721 -0.1474 -0.5520  0.9910
  469MOL0     C63218   4.308   2.677   6.633 -0.1044 -0.8426 -0.6104
  469MOL0     C63219   4.190   2.614   6.704 -1.1038 -0.5534 -0.4520
  469MOL0     C63220   4.080   2.574   6.606 -0.0927  0.4106 -0.3927
  469MOL0     C63221   3.956   2.532   6.687 -0.0568 -0.0566 -0.5893
  469MOL0     C63222   3.871   2.440   6.612 -0.7641 -0.2417  0.2305
  469MOL0     C63223   3.754   2.405   6.707 -0.6206 -0.3327 -0.4212
  469MOL0     C63224   3.789   2.322   6.828  0.9147  0.9715 -0.5959
  469MOL0    Cl63225   3.919   2.198   6.801 -0.0521  0.0699 -0.0026
  469MOL0     C63226   4.760   2.735   6.566 -0.2519  0.2449 -0.2679
  469MOL0     C63227   4.858   2.654   6.506  0.3819 -0.1317 -0.1402
  469MOL0     O63228   4.956   2.283   6.528 -0.3782  0.1176  0.1802
  469MOL0     C63229   5.233   2.434   6.393 -0.6487  0.5422 -0.2250
  469MOL0     C63230   5.368   2.425   6.351  0.0709  0.5163  0.4056
  469MOL0     N63231   5.952   1.824   6.113 -0.5530 -0.2514  0.0888
  469MOL0     N63232   6.044   1.727   6.111 -0.3181 -0.4566 -0.7476
  469MOL0     C63233   7.318   1.334   6.174 -0.0087 -0.5611 -0.4005
  469MOL0     C63234   7.442   1.371   6.124  0.0184 -0.1774 -0.3010
  469MOL0     C63235   7.758   1.615   5.855  0.6538 -0.2996  1.4602
  469MOL0     C63236   7.808   1.700   5.750  0.4076 -0.2926 -0.1380
  469MOL0     C63237   7.946   1.710   5.725 -0.3379  0.1425  0.1178
  469MOL0     C63238   8.043   1.640   5.795  0.9155 -0.1918 -0.8691
  469MOL0     O63239   8.179   1.672   5.774 -0.2173  0.5029  0.4647
  469MOL0     C63240   8.275   1.587   5.849  0.3475  0.5828  1.1148
  469MOL0     C63241   8.409   1.614   5.782 -0.2681  0.3862  0.3456
  469MOL0     C63242   8.516   1.580   5.885 -0.8663 -0.0071 -0.1173
  469MOL0     C63243   8.657   1.568   5.822  0.2894 -0.0057 -0.2509
  469MOL0     C63244   8.734   1.469   5.898  0.2191 -0.0975  0.0912
  469MOL0     C63245   8.817   1.415   5.973  0.1864  0.5440 -0.7326
  469MOL0     C63246   7.992   1.546   5.889  0.2583  0.0238 -0.3411
  469MOL0     C63247   7.855   1.541   5.923 -0.4776 -0.1521  0.0260
  469MOL0     H63248   7.353   1.675   5.997 -2.4247  0.1142 -0.6819
  469MOL0     H63249   7.149   1.614   6.081  2.3190  2.6508  0.3330
  469MOL0     H63250   6.957   1.500   6.097 -1.9870 -1.5546 -1.3414
  469MOL0     H63251   6.927   1.340   6.097  0.4717  0.4249  0.9392
  469MOL0     H63252   6.864   1.350   6.355 -1.8839  2.3559  1.7213
  469MOL0     H63253   6.926   1.512   6.351  1.5897 -0.8416  0.3052
  469MOL0     H63254   6.667   1.417   6.211 -1.5091  1.4704 -0.2080
  469MOL0     H63255   6.677   1.493   6.363  0.7061 -0.3607  0.7948
  469MOL0     H63256   6.813   1.690   6.278  0.8073 -0.9844  2.2643
  469MOL0     H63257   6.771   1.604   6.117  0.1536 -1.0895  0.9104
  469MOL0     H63258   6.547   1.680   6.311  0.9101  0.7961  1.0915
  469MOL0     H63259   6.628   1.799   6.213  0.9105 -0.7160 -0.0023
  469MOL0     H63260   6.581   1.680   5.996  0.3286 -3.4605 -1.5316
  469MOL0     H63261   6.495   1.557   6.086  0.6527 -0.3123  0.0386
  469MOL0     H63262   6.413   1.850   6.089  0.1614 -0.2977  2.1653
  469MOL0     H63263   6.335   1.727   5.997 -0.9405 -2.4563  0.1060
  469MOL0     H63264   6.331   1.749   6.300 -1.7063 -2.9684  1.9331
  469MOL0     H63265   6.291   1.606   6.209  2.4478  0.2206  0.6007
  469MOL0     H63266   6.183   1.954   6.302  1.1765 -0.7292 -0.0928
  469MOL0     H63267   5.980   2.120   6.290  0.3352  1.2349 -1.5852
  469MOL0     H63268   5.873   2.107   6.154 -1.4545  1.6416  0.8537
  469MOL0     H63269   5.812   1.962   6.413 -1.1322  0.9175  0.1940
  469MOL0     H63270   5.721   1.948   6.258  0.2466  0.4476 -1.0369
  469MOL0     H63271   5.770   2.223   6.396  0.5153  0.8455 -0.7904
  469MOL0     H63272   5.635   2.115   6.434  0.2541  3.0301  0.8316
  469MOL0     H63273   5.573   2.105   6.195  1.9332 -0.6698  1.3385
  469MOL0     H63274   5.708   2.238   6.180  4.0689 -0.2051  3.4870
  469MOL0     H63275   5.365   2.085   6.309  2.0073  0.3093  0.3438
  469MOL0     H63276   5.120   2.020   6.474 -0.5795  0.4549  0.0951
  469MOL0     H63277   5.009   2.097   6.348  0.6130 -1.0378 -3.3326
  469MOL0     H63278   5.153   1.997   6.302 -2.1459 -0.5026 -1.5219
  469MOL0     H63279   4.658   2.386   6.409 -2.2736  0.3705 -0.1539
  469MOL0     H63280   4.496   2.519   6.513  0.8676 -0.6076 -1.5334
  469MOL0     H63281   4.462   2.587   6.755  2.4942  0.6000  2.1089
  469MOL0     H63282   4.395   2.735   6.812  1.8508  1.2502  0.8367
  469MOL0     H63283   4.296   2.780   6.598  1.4124 -0.7022 -0.7769
  469MOL0     H63284   4.335   2.605   6.556 -1.2804 -1.4042 -0.5288
  469MOL0     H63285   4.151   2.687   6.775 -0.5855  1.7151 -2.3783
  469MOL0     H63286   4.239   2.529   6.752 -0.0047  0.2005 -0.1996
  469MOL0     H63287   4.066   2.650   6.529  2.3480 -0.3719 -1.7140
  469MOL0     H63288   4.113   2.488   6.547 -0.2893  0.6800 -0.8993
  469MOL0     H63289   3.899   2.624   6.703  1.3035  1.0140 -1.7058
  469MOL0     H63290   3.990   2.492   6.783 -2.1648  1.3300  0.8264
  469MOL0     H63291   3.837   2.500   6.527 -3.4229  0.9753  1.9964
  469MOL0     H63292   3.933   2.357   6.578  0.9804  1.0980  0.0168
  469MOL0     H63293   3.681   2.344   6.653 -1.2335 -0.3223  0.3737
  469MOL0     H63294   3.708   2.500   6.735  0.5571 -0.0233  0.5488
  469MOL0     H63295   3.693   2.281   6.861  0.6053  0.0903 -2.4791
  469MOL0     H63296   3.829   2.385   6.908 -0.5394  1.1947 -0.0031
  469MOL0     H63297   4.778   2.833   6.609 -0.2390  0.9657 -1.8483
  469MOL0     H63298   4.964   2.678   6.509  1.1059 -2.8000 -1.2588
  469MOL0     H63299   5.186   2.533   6.395 -1.1016  0.4235 -2.3509
  469MOL0     H63300   5.432   2.509   6.324  0.4506  0.8258  2.1319
  469MOL0     H63301   7.321   1.242   6.232  0.4496 -1.2030 -1.4082
  469MOL0     H63302   7.528   1.307   6.145 -1.2520 -1.7331  0.4066
  469MOL0     H63303   7.738   1.753   5.685 -1.5813 -0.9060  1.3830
  469MOL0     H63304   7.984   1.785   5.656  2.4672 -1.1044  0.1577
  469MOL0     H63305   8.269   1.617   5.954 -0.2319  0.6839  1.0579
  469MOL0     H63306   8.241   1.483   5.839 -2.7262  1.6535 -1.2240
  469MOL0     H63307   8.417   1.718   5.749 -1.7368  0.3812 -0.0963
  469MOL0     H63308   8.412   1.548   5.694 -2.1157 -0.9252  1.2084
  469MOL0     H63309   8.495   1.486   5.936 -0.3149 -1.2178 -2.0386
  469MOL0     H63310   8.521   1.658   5.962 -2.0511 -1.5079  1.5525
  469MOL0     H63311   8.701   1.667   5.833 -0.2986  0.5598 -2.5626
  469MOL0     H63312   8.652   1.536   5.718 -0.3062 -1.6589  0.2401
  469MOL0     H63313   8.871   1.372   6.054 -2.5055 -0.8667  0.4671
  469MOL0     H63314   8.059   1.479   5.941  0.4966 -0.6537 -1.4969
  469MOL0     H63315   7.823   1.473   6.001 -0.8648 -1.2054 -1.0146
  470MOL0     O63316   4.901   4.608   3.222 -0.2097 -0.4367 -0.9927
  470MOL0     C63317   4.925   4.645   3.111  0.0432  0.4464  0.5118
  470MOL0     O63318   4.852   4.736   3.033  0.5453  0.3490 -0.0712
  470MOL0     C63319   4.747   4.793   3.097 -0.1125 -0.3393 -0.0196
  470MOL0     C63320   4.628   4.729   3.080  0.5634  0.3402  0.5452
  470MOL0     C63321   4.513   4.787   3.127  0.1092 -0.5692  0.2394
  470MOL0     C63322   4.514   4.912   3.185  0.3252  0.4566 -0.4213
  470MOL0     O63323   4.398   4.964   3.236  0.2538 -0.1340 -0.6187
  470MOL0     C63324   4.396   5.095   3.293 -0.4268  0.0519  0.9600
  470MOL0     C63325   4.268   5.158   3.289  0.5302 -0.3295 -0.0076
  470MOL0     C63326   4.182   5.112   3.407  0.6540 -0.1490 -0.0792
  470MOL0     C63327   4.028   5.125   3.397  0.6403  1.1404  0.2532
  470MOL0     C63328   3.979   5.258   3.363 -0.7412  0.6505 -0.4999
  470MOL0     C63329   3.830   5.270   3.390  0.1958 -0.6826  0.5550
  470MOL0     C63330   3.781   5.411   3.339 -0.0758  0.7524 -0.1806
  470MOL0     C63331   3.748   5.406   3.188 -0.3782  0.2358  0.2547
  470MOL0     N63332   3.622   5.475   3.145  0.0948  0.3725  0.4982
  470MOL0     C63333   3.613   5.562   3.038 -0.7592 -0.9714 -0.2953
  470MOL0     C63334   3.497   5.624   3.056  0.9624  0.1385 -0.6486
  470MOL0     C63335   3.441   5.738   2.964  0.1316  0.4759 -0.2066
  470MOL0     C63336   3.359   5.689   2.839  0.2768  0.1888  0.9517
  470MOL0     C63337   3.242   5.785   2.794 -0.5673  0.4483 -0.8934
  470MOL0     C63338   3.140   5.710   2.714 -0.3412 -0.9753  0.4401
  470MOL0     O63339   3.054   5.809   2.654  0.0390  0.5671  0.4196
  470MOL0     C63340   2.958   5.752   2.577  0.0349 -0.1412  0.1510
  470MOL0     C63341   2.920   5.622   2.568 -0.0509 -0.4282  0.1731
  470MOL0     C63342   2.810   5.579   2.492 -0.1152  0.1410  0.7191
  470MOL0     C63343   2.785   5.423   2.483 -0.0718 -0.0364 -0.1961
  470MOL0     C63344   2.747   5.666   2.403 -0.4315 -0.7197  0.3384
  470MOL0     C63345   2.637   5.639   2.302 -0.0619  0.1043  0.8085
  470MOL0     O63346   2.592   5.751   2.228  1.0110 -0.0263  0.2088
  470MOL0     C63347   2.472   5.734   2.165  0.1857  0.1385 -0.0918
  470MOL0     C63348   2.467   5.678   2.045 -0.1901  0.8299  0.3223
  470MOL0     C63349   2.354   5.661   1.972 -0.0930  0.1609 -0.3640
  470MOL0     C63350   2.238   5.735   2.007 -0.1042 -0.6467 -0.0681
  470MOL0     O63351   2.126   5.749   1.928 -0.0077 -0.0611 -0.1940
  470MOL0     C63352   2.130   5.708   1.793  0.3961  0.4153  0.2763
  470MOL0     C63353   1.983   5.716   1.742  0.6808 -0.0917 -0.6504
  470MOL0     C63354   1.877   5.632   1.823 -0.3346 -0.1630  0.1300
  470MOL0     C63355   1.761   5.581   1.731 -0.4524 -0.3223  1.4343
  470MOL0     C63356   1.667   5.705   1.675  0.6941  0.4766  0.1534
  470MOL0     C63357   1.555   5.646   1.584 -0.0398  1.3018  0.0788
  470MOL0     C63358   1.604   5.548   1.473 -0.2743  0.5723 -0.1241
  470MOL0     C63359   1.521   5.573   1.345 -0.3467  0.0825  1.0605
  470MOL0    Cl63360   1.345   5.549   1.370  0.3156  0.1782 -0.8203
  470MOL0     C63361   2.243   5.798   2.137  0.0106  0.2334  0.5031
  470MOL0     C63362   2.355   5.798   2.209 -0.0126  0.3593 -0.7805
  470MOL0     O63363   2.575   5.529   2.304  0.5769 -0.3362  0.3469
  470MOL0     C63364   2.791   5.799   2.415  0.3525 -0.0006  0.7879
  470MOL0     C63365   2.888   5.844   2.499  0.0986 -0.6187 -0.6042
  470MOL0     N63366   3.434   5.573   3.166  0.2982  0.2791  0.0188
  470MOL0     N63367   3.502   5.473   3.219  0.2362  0.6669 -0.2269
  470MOL0     C63368   4.640   4.980   3.199  0.1123 -0.1119  0.2558
  470MOL0     C63369   4.756   4.915   3.157 -0.3471 -0.3140  0.1522
  470MOL0     C63370   5.057   4.613   3.045 -0.2806  0.0786 -0.4041
  470MOL0     C63371   5.129   4.498   3.082 -0.3686  0.4126 -0.1847
  470MOL0     C63372   5.258   4.477   3.023 -0.8791 -0.3911 -0.3414
  470MOL0     C63373   5.309   4.566   2.927 -0.0172 -0.1970  0.2215
  470MOL0     O63374   5.428   4.552   2.862 -0.6005 -0.9387  0.5857
  470MOL0     C63375   5.519   4.457   2.923 -0.0134  0.5586  0.0056
  470MOL0     C63376   5.669   4.476   2.904 -0.5921 -0.7002 -0.1158
  470MOL0     C63377   5.721   4.613   2.968 -0.0603  0.1025  0.5903
  470MOL0     C63378   5.873   4.607   2.990 -0.4369  0.0971 -0.7139
  470MOL0     C63379   5.936   4.640   2.860 -0.2108  0.2834 -0.2009
  470MOL0     C63380   5.988   4.647   2.751  0.1342  0.3744  0.5476
  470MOL0     C63381   5.237   4.690   2.904 -0.0037  0.1727  0.7043
  470MOL0     C63382   5.116   4.712   2.968  0.7923 -0.2866 -0.1121
  470MOL0     H63383   4.624   4.640   3.018 -0.2478  1.4102 -1.0045
  470MOL0     H63384   4.416   4.739   3.135 -0.1138  0.0666  1.7035
  470MOL0     H63385   4.428   5.098   3.398  2.6751  1.3013  0.1028
  470MOL0     H63386   4.465   5.163   3.242 -2.5175  0.7630 -1.0972
  470MOL0     H63387   4.278   5.267   3.283 -1.0740 -0.2335 -2.2738
  470MOL0     H63388   4.226   5.132   3.191  2.5161  2.8149 -1.8894
  470MOL0     H63389   4.219   5.012   3.430  1.3002 -0.7668 -3.3346
  470MOL0     H63390   4.209   5.172   3.495 -1.0353 -0.2718  0.5593
  470MOL0     H63391   3.990   5.054   3.323  0.4121 -0.9509  2.2640
  470MOL0     H63392   3.980   5.095   3.491 -1.7387  1.3708 -0.8070
  470MOL0     H63393   4.030   5.338   3.418  1.5016 -1.1434  0.1806
  470MOL0     H63394   4.004   5.277   3.258  0.0984  4.1733  0.2209
  470MOL0     H63395   3.766   5.193   3.347 -0.4534 -0.2805  0.7925
  470MOL0     H63396   3.812   5.281   3.497 -1.4327  3.1677  0.0579
  470MOL0     H63397   3.692   5.440   3.395  2.4923  3.3305  2.9594
  470MOL0     H63398   3.857   5.489   3.352 -0.7700  1.4077  0.0413
  470MOL0     H63399   3.735   5.299   3.167  0.3031  0.0242  0.8750
  470MOL0     H63400   3.834   5.438   3.129  1.1518  1.2961  2.8821
  470MOL0     H63401   3.696   5.588   2.974  0.2254 -3.0559  0.0522
  470MOL0     H63402   3.375   5.796   3.030 -2.7160 -1.7957 -0.8516
  470MOL0     H63403   3.517   5.807   2.928  0.1206 -0.1243 -1.4241
  470MOL0     H63404   3.324   5.587   2.851  1.0337 -0.0922  0.8439
  470MOL0     H63405   3.427   5.688   2.753  1.1760 -0.8412  1.6497
  470MOL0     H63406   3.282   5.873   2.742 -2.6070  1.2709 -1.1729
  470MOL0     H63407   3.187   5.825   2.880 -0.9153  2.2198 -1.8886
  470MOL0     H63408   3.080   5.645   2.778  0.4929  0.7063  3.0969
  470MOL0     H63409   3.195   5.647   2.644 -0.1356  1.1344 -1.4019
  470MOL0     H63410   2.973   5.551   2.631  0.2030 -0.6428 -0.2776
  470MOL0     H63411   2.820   5.375   2.391 -0.8455 -3.0342  0.9524
  470MOL0     H63412   2.839   5.371   2.563  0.6193 -1.0869 -1.3084
  470MOL0     H63413   2.682   5.390   2.493  0.0999 -0.1381  1.5059
  470MOL0     H63414   2.560   5.631   2.015 -0.0655 -2.2850  4.6537
  470MOL0     H63415   2.364   5.617   1.873  2.0460  2.5454 -1.3322
  470MOL0     H63416   2.199   5.775   1.741  2.6108 -2.7691 -1.1983
  470MOL0     H63417   2.158   5.603   1.778  0.9069  0.6332 -0.3046
  470MOL0     H63418   1.948   5.819   1.737  0.8065  0.1068  1.4660
  470MOL0     H63419   1.987   5.676   1.641 -0.6876 -1.5960 -0.1554
  470MOL0     H63420   1.832   5.695   1.900 -0.3076  0.2057 -0.1545
  470MOL0     H63421   1.925   5.546   1.872 -1.6745 -0.4690  0.9545
  470MOL0     H63422   1.810   5.529   1.648 -0.2807 -0.2166  1.4695
  470MOL0     H63423   1.700   5.510   1.787 -0.9354 -0.9038  0.2261
  470MOL0     H63424   1.732   5.778   1.625  0.3894  1.8880  1.6971
  470MOL0     H63425   1.614   5.761   1.753 -0.5144  0.4091 -0.6063
  470MOL0     H63426   1.485   5.590   1.647 -1.5554  1.2027 -1.5830
  470MOL0     H63427   1.491   5.724   1.542 -0.1044  1.6504  0.8130
  470MOL0     H63428   1.578   5.449   1.509  2.6682 -0.6200 -0.9867
  470MOL0     H63429   1.709   5.554   1.442 -0.8712  0.7159 -2.2293
  470MOL0     H63430   1.551   5.496   1.273  0.9745  0.3574  1.2931
  470MOL0     H63431   1.531   5.673   1.302  3.2449 -0.6364 -0.1195
  470MOL0     H63432   2.158   5.859   2.163  0.8376  1.1915  1.0162
  470MOL0     H63433   2.351   5.846   2.306  0.1812 -0.0705 -0.5563
  470MOL0     H63434   2.755   5.873   2.344  0.2755 -0.7091  0.0815
  470MOL0     H63435   2.922   5.947   2.494 -1.0024 -0.1310  1.1596
  470MOL0     H63436   4.649   5.081   3.239 -0.8698  1.2756 -2.6926
  470MOL0     H63437   4.849   4.968   3.178 -0.7282 -0.5076  2.6344
  470MOL0     H63438   5.090   4.420   3.146 -0.5124  0.2142 -0.5080
  470MOL0     H63439   5.307   4.386   3.056  2.8578  1.5987  0.2019
  470MOL0     H63440   5.515   4.448   3.032  2.1315 -0.3830  0.0500
  470MOL0     H63441   5.493   4.359   2.883  0.1282  1.0443 -1.3070
  470MOL0     H63442   5.703   4.482   2.800  1.3359  0.9400  0.5245
  470MOL0     H63443   5.718   4.393   2.954  2.5733  0.2437 -1.3471
  470MOL0     H63444   5.672   4.626   3.065 -3.7401  2.6417 -1.3745
  470MOL0     H63445   5.697   4.688   2.892 -1.4271 -1.6572 -0.8142
  470MOL0     H63446   5.905   4.514   3.037  3.7852  0.8667 -1.6433
  470MOL0     H63447   5.903   4.686   3.059 -0.5862  0.5891 -1.2080
  470MOL0     H63448   6.040   4.662   2.658 -1.9830  0.7905 -0.6265
  470MOL0     H63449   5.280   4.766   2.839  0.4361 -0.8458 -0.2347
  470MOL0     H63450   5.071   4.809   2.949 -1.7256 -1.9809 -4.0066
  471MOL0     O63451   5.655   6.190  10.997 -0.3278  1.2016  0.1899
  471MOL0     C63452   5.641   6.099  10.912  0.5253  0.3361  0.1291
  471MOL0     O63453   5.560   6.106  10.803 -0.5863  0.0929 -0.1003
  471MOL0     C63454   5.466   6.203  10.804  0.6935 -1.0057 -0.1861
  471MOL0     C63455   5.433   6.277  10.696 -0.5400 -0.5730 -0.5351
  471MOL0     C63456   5.332   6.369  10.696  0.8694  0.3220 -0.1501
  471MOL0     C63457   5.256   6.389  10.810  0.1649  0.0930  0.8102
  471MOL0     O63458   5.156   6.476  10.796 -0.0368  0.2635 -0.6270
  471MOL0     C63459   5.047   6.464  10.891 -0.0148  0.2673  1.1192
  471MOL0     C63460   4.945   6.562  10.843  0.2355  0.6796 -0.4191
  471MOL0     C63461   4.861   6.614  10.964 -0.6566 -0.5123 -0.3095
  471MOL0     C63462   4.772   6.732  10.919  0.0261  0.1152  0.2860
  471MOL0     C63463   4.667   6.775  11.020 -0.1063 -0.5483 -0.7613
  471MOL0     C63464   4.565   6.877  10.983 -0.6873 -0.1280 -0.2944
  471MOL0     C63465   4.453   6.904  11.088  0.4232 -0.2287 -0.5819
  471MOL0     C63466   4.352   6.784  11.108 -0.0299 -0.3450  0.4015
  471MOL0     N63467   4.265   6.750  10.995  0.3454 -0.2096 -0.1381
  471MOL0     C63468   4.240   6.832  10.888  0.3925 -0.1389 -0.3217
  471MOL0     C63469   4.137   6.767  10.832  0.2108  0.4765  0.0602
  471MOL0     C63470   4.073   6.811  10.703 -1.1168  0.4151 -0.0887
  471MOL0     C63471   3.966   6.915  10.725  0.9682  0.4162  0.2329
  471MOL0     C63472   3.832   6.859  10.771 -0.1312 -0.7596  0.4839
  471MOL0     C63473   3.730   6.970  10.806  0.9723 -0.0256 -0.1393
  471MOL0     O63474   3.686   7.016  10.675  0.1175 -0.0928 -0.3013
  471MOL0     C63475   3.555   7.049  10.661 -0.0797  0.8819 -0.0592
  471MOL0     C63476   3.506   7.008  10.537  0.5958 -0.0640 -0.5645
  471MOL0     C63477   3.372   7.023  10.502  1.0859  0.3283 -0.0654
  471MOL0     C63478   3.335   6.969  10.362  0.6476 -0.2657 -0.3871
  471MOL0     C63479   3.278   7.079  10.599 -0.0370 -0.0724  0.0978
  471MOL0     C63480   3.133   7.073  10.574 -0.1979  0.0964 -0.3407
  471MOL0     O63481   3.065   7.180  10.625 -0.8283 -0.9936 -0.3689
  471MOL0     C63482   2.928   7.167  10.647 -0.1074 -0.0297  0.7097
  471MOL0     C63483   2.851   7.277  10.637  0.2947  0.0923  0.3681
  471MOL0     C63484   2.707   7.270  10.646 -0.3139  0.2389  0.4577
  471MOL0     C63485   2.650   7.163  10.701  0.2240  0.0668  0.0095
  471MOL0     O63486   2.519   7.176  10.726  0.3104 -0.2452  0.4959
  471MOL0     C63487   2.444   7.090  10.638 -0.1185  0.1677 -0.4947
  471MOL0     C63488   2.365   7.163  10.534  0.4602 -0.2749 -0.5297
  471MOL0     C63489   2.264   7.256  10.609 -0.3426 -1.1624 -0.4270
  471MOL0     C63490   2.172   7.185  10.717  0.5576 -0.5479  0.5872
  471MOL0     C63491   2.064   7.277  10.769 -0.0293  0.5760  0.7117
  471MOL0     C63492   1.965   7.314  10.653 -0.2160  0.1938 -0.8370
  471MOL0     C63493   1.846   7.397  10.712  0.2555 -0.1709 -0.9728
  471MOL0     C63494   1.751   7.316  10.803 -0.2324 -0.6035  0.5090
  471MOL0    Cl63495   1.607   7.405  10.843 -0.4234  0.1514 -0.2078
  471MOL0     C63496   2.728   7.051  10.723 -0.1170  0.0376  0.3876
  471MOL0     C63497   2.864   7.050  10.696  0.0694  0.5597 -0.2945
  471MOL0     O63498   3.087   6.975  10.517 -0.3751 -0.2440  0.0751
  471MOL0     C63499   3.327   7.112  10.729 -0.2449  0.6730  0.4472
  471MOL0     C63500   3.465   7.096  10.758  0.5707  0.4666 -0.2020
  471MOL0     N63501   4.112   6.646  10.890  0.4767  0.1971  0.3845
  471MOL0     N63502   4.190   6.637  10.991  0.2096  0.3298  0.4858
  471MOL0     C63503   5.293   6.318  10.921  0.5769 -0.3467 -0.1849
  471MOL0     C63504   5.387   6.220  10.918  0.7115  0.0455  0.0071
  471MOL0     C63505   5.729   5.976  10.911 -0.1425 -0.1163  0.5374
  471MOL0     C63506   5.758   5.908  10.790 -0.8272  0.3152 -0.1342
  471MOL0     C63507   5.851   5.808  10.791  0.0179  0.4803 -0.5820
  471MOL0     C63508   5.916   5.768  10.906 -0.3770 -0.5377  0.2760
  471MOL0     O63509   6.003   5.654  10.897  0.3079  0.1845 -0.0524
  471MOL0     C63510   6.054   5.605  11.012 -0.4016  0.2852 -0.3677
  471MOL0     C63511   6.121   5.464  10.978  0.3587  0.0742 -1.0194
  471MOL0     C63512   6.011   5.371  10.921  0.0929  0.7434  0.3295
  471MOL0     C63513   6.077   5.239  10.867  0.5260  0.3413  0.3633
  471MOL0     C63514   6.145   5.162  10.972  0.9899  0.4061  0.3933
  471MOL0     C63515   6.204   5.098  11.058 -0.8863 -0.4343  0.9119
  471MOL0     C63516   5.881   5.837  11.022 -0.0227  0.3841  0.1309
  471MOL0     C63517   5.791   5.943  11.026  0.1734  0.2622 -1.1418
  471MOL0     H63518   5.496   6.264  10.608  0.1098  1.6791 -0.4577
  471MOL0     H63519   5.312   6.433  10.610  1.5678  1.1756  0.3025
  471MOL0     H63520   5.005   6.364  10.904  0.7619 -0.0388  1.3352
  471MOL0     H63521   5.083   6.485  10.992 -0.2732  0.2484  1.2159
  471MOL0     H63522   4.995   6.637  10.780 -1.5796  1.7439 -0.6627
  471MOL0     H63523   4.876   6.508  10.778  0.4818 -0.7855  0.4915
  471MOL0     H63524   4.799   6.535  11.007 -2.1472  1.4494  1.3704
  471MOL0     H63525   4.927   6.656  11.041 -0.4404 -1.0023 -0.2279
  471MOL0     H63526   4.827   6.825  10.907  0.8562 -0.3201  0.6311
  471MOL0     H63527   4.736   6.710  10.818  0.7217 -1.1294  0.2938
  471MOL0     H63528   4.617   6.682  11.047 -4.5548  2.1733  1.6619
  471MOL0     H63529   4.706   6.806  11.117 -1.5823  1.9462 -0.8555
  471MOL0     H63530   4.625   6.967  10.967  0.3291 -0.9271 -1.1237
  471MOL0     H63531   4.510   6.856  10.890  1.1726 -2.0165 -1.0535
  471MOL0     H63532   4.498   6.933  11.183 -1.8082 -0.6135  0.6413
  471MOL0     H63533   4.387   6.987  11.062  1.1373 -0.1964 -2.5009
  471MOL0     H63534   4.294   6.797  11.200  0.6685  1.9944  0.5852
  471MOL0     H63535   4.423   6.704  11.128  2.0772  0.7893 -1.9915
  471MOL0     H63536   4.293   6.922  10.858  0.0218  0.4184  0.6674
  471MOL0     H63537   4.148   6.849  10.634 -0.3591 -0.7204  0.0718
  471MOL0     H63538   4.025   6.725  10.656  1.8070 -0.9396 -0.7817
  471MOL0     H63539   3.948   6.960  10.627  0.0695 -2.5335 -1.0931
  471MOL0     H63540   4.000   6.989  10.797  1.6497 -0.7018  1.0990
  471MOL0     H63541   3.841   6.782  10.848 -1.2344 -0.2724  1.1317
  471MOL0     H63542   3.791   6.810  10.683  3.5496 -0.3531 -1.6579
  471MOL0     H63543   3.765   7.055  10.866  0.1366 -1.2456  2.2171
  471MOL0     H63544   3.651   6.910  10.853  1.6172 -0.1565  0.8131
  471MOL0     H63545   3.575   6.956  10.472  3.2061  1.7659  0.5782
  471MOL0     H63546   3.234   6.990  10.328 -0.9430 -2.7539  2.2996
  471MOL0     H63547   3.397   7.030  10.295 -0.9547 -0.2839 -1.9677
  471MOL0     H63548   3.352   6.862  10.347  1.8670 -0.1282 -0.1085
  471MOL0     H63549   2.885   7.373  10.598  1.9320 -1.5003 -2.5267
  471MOL0     H63550   2.647   7.357  10.620  0.9291  1.1764  0.5876
  471MOL0     H63551   2.510   7.014  10.594 -0.2273 -0.0562 -0.2769
  471MOL0     H63552   2.370   7.030  10.693 -0.1689  1.2490  0.6325
  471MOL0     H63553   2.440   7.221  10.480  1.0138  1.6097  2.0500
  471MOL0     H63554   2.313   7.096  10.465 -1.3836 -0.7880  1.2492
  471MOL0     H63555   2.206   7.314  10.536  0.1626 -0.7021 -0.4677
  471MOL0     H63556   2.323   7.333  10.659  1.2462 -1.4898 -1.7193
  471MOL0     H63557   2.126   7.100  10.666  1.0555 -0.5952  0.2130
  471MOL0     H63558   2.230   7.146  10.801 -0.4838  0.2891  1.7429
  471MOL0     H63559   2.106   7.372  10.802 -3.6897  2.8401 -0.5301
  471MOL0     H63560   2.000   7.236  10.847  0.4977  2.5244  2.2478
  471MOL0     H63561   2.018   7.370  10.576  3.4568  0.1067  1.4293
  471MOL0     H63562   1.925   7.221  10.611  2.0049 -1.2156  0.0315
  471MOL0     H63563   1.790   7.436  10.627  0.0840  1.1076 -0.2992
  471MOL0     H63564   1.891   7.478  10.771 -0.4820  1.4386 -2.5238
  471MOL0     H63565   1.807   7.291  10.894  1.0777 -0.0985 -0.1250
  471MOL0     H63566   1.722   7.227  10.747 -0.1896 -0.5413  0.3869
  471MOL0     H63567   2.685   6.960  10.763  1.1619 -0.8811 -0.2384
  471MOL0     H63568   2.923   6.958  10.699  1.4301  1.3473 -1.3606
  471MOL0     H63569   3.261   7.150  10.805 -1.4741  0.1942 -0.3512
  471MOL0     H63570   3.502   7.130  10.855  0.1864  0.3276 -0.0051
  471MOL0     H63571   5.236   6.332  11.013  2.2794 -1.6451  1.1200
  471MOL0     H63572   5.398   6.150  11.000  0.6051  0.9208  0.7912
  471MOL0     H63573   5.719   5.931  10.692  0.9394  0.3116 -0.8632
  471MOL0     H63574   5.880   5.741  10.711  0.0015 -0.9924  0.5924
  471MOL0     H63575   6.133   5.669  11.052  0.9896 -2.0541  0.8453
  471MOL0     H63576   5.977   5.578  11.085 -1.1827 -3.8086 -2.3607
  471MOL0     H63577   6.161   5.410  11.065  0.6180  0.7517 -0.7091
  471MOL0     H63578   6.202   5.487  10.909  0.1931  2.1058 -0.5934
  471MOL0     H63579   5.949   5.421  10.846 -0.9001 -0.5804  0.2209
  471MOL0     H63580   5.942   5.332  10.997 -0.6389  0.9980 -0.1927
  471MOL0     H63581   6.140   5.260  10.780 -1.6081 -2.1428 -1.9951
  471MOL0     H63582   5.999   5.171  10.830  0.7067  0.9397 -1.1617
  471MOL0     H63583   6.262   5.039  11.127 -1.9238 -1.3065  1.0747
  471MOL0     H63584   5.942   5.819  11.111 -1.4858 -2.5832  0.6773
  471MOL0     H63585   5.753   5.971  11.123 -1.0847 -2.9278 -0.5891
  472MOL0     O63586   1.582   2.159   3.692 -0.0276 -0.3467 -0.0403
  472MOL0     C63587   1.602   2.196   3.807  1.0450 -0.0529 -0.4408
  472MOL0     O63588   1.508   2.203   3.908 -0.3500  0.0004  0.8834
  472MOL0     C63589   1.373   2.170   3.877 -0.0324  0.2147  0.0783
  472MOL0     C63590   1.298   2.235   3.776 -0.0641 -1.5977 -1.1457
  472MOL0     C63591   1.164   2.211   3.760 -0.5939  0.6583  0.3322
  472MOL0     C63592   1.096   2.123   3.841 -0.3662 -0.4961  0.3701
  472MOL0     O63593   0.969   2.097   3.806 -0.1173 -0.2890 -0.3190
  472MOL0     C63594   0.920   1.974   3.867  0.4498  0.2967  0.0413
  472MOL0     C63595   0.784   1.937   3.807  0.1324 -0.5275 -0.1482
  472MOL0     C63596   0.746   1.795   3.845 -0.1685 -0.0838 -0.0933
  472MOL0     C63597   0.830   1.674   3.777 -0.2498 -0.1757 -0.1986
  472MOL0     C63598   0.769   1.538   3.832 -0.5018 -0.2215 -0.1519
  472MOL0     C63599   0.625   1.519   3.811  0.6592  0.1703  0.2895
  472MOL0     C63600   0.581   1.523   3.667 -1.2260  0.0757  0.2989
  472MOL0     C63601   0.440   1.482   3.655 -1.0419  0.1982 -0.6685
  472MOL0     N63602   0.413   1.341   3.683  0.1979  0.5678 -0.2529
  472MOL0     C63603   0.410   1.243   3.584 -0.5426 -0.2738  1.0562
  472MOL0     C63604   0.397   1.124   3.653  0.6055  0.3485  0.1253
  472MOL0     C63605   0.394   0.981   3.587 -0.0330 -0.0183 -0.7151
  472MOL0     C63606   0.247   0.950   3.551 -0.1840 -0.1370  0.4046
  472MOL0     C63607   0.237   0.806   3.505  0.4680 -0.2367  0.4179
  472MOL0     C63608   0.088   0.775   3.480  0.0285  0.6250  0.8734
  472MOL0     O63609   0.050   0.857   3.369  0.1150 -0.0845 -1.2204
  472MOL0     C63610  -0.080   0.888   3.371 -0.3086  0.4412 -0.2786
  472MOL0     C63611  -0.126   0.971   3.468  1.4035  0.1709 -0.3365
  472MOL0     C63612  -0.261   0.998   3.478 -0.0017 -1.0962 -0.5102
  472MOL0     C63613  -0.316   1.087   3.591 -0.3308 -0.5073 -0.3099
  472MOL0     C63614  -0.356   0.946   3.384 -0.4617 -0.6338  0.1907
  472MOL0     C63615  -0.506   0.968   3.383 -0.3237  1.0378  0.5531
  472MOL0     O63616  -0.576   0.869   3.319  0.2330 -0.1079 -0.1842
  472MOL0     C63617  -0.717   0.884   3.292 -0.2374 -0.0713  0.2632
  472MOL0     C63618  -0.755   0.964   3.190  0.0958 -0.5085 -0.1471
  472MOL0     C63619  -0.895   0.970   3.152 -1.0550  0.3125 -0.6933
  472MOL0     C63620  -0.991   0.899   3.230  0.1914 -0.7802  0.8691
  472MOL0     O63621  -1.126   0.906   3.207 -0.4997 -0.0363  0.5177
  472MOL0     C63622  -1.190   1.015   3.147 -0.3161 -0.8526  0.1625
  472MOL0     C63623  -1.187   1.141   3.241  0.5994 -0.2449 -0.4519
  472MOL0     C63624  -1.263   1.266   3.181 -0.5576 -0.3548 -0.1959
  472MOL0     C63625  -1.418   1.241   3.176 -0.5134 -0.2593 -0.2133
  472MOL0     C63626  -1.502   1.364   3.145 -0.3906  0.4785  0.1980
  472MOL0     C63627  -1.652   1.334   3.173 -0.3005  0.1978 -0.7151
  472MOL0     C63628  -1.727   1.274   3.055  1.0170 -0.0484  0.0480
  472MOL0     C63629  -1.881   1.272   3.082 -0.5220 -0.4029 -0.1262
  472MOL0    Cl63630  -1.967   1.432   3.096 -0.1511  0.1244  0.4519
  472MOL0     C63631  -0.951   0.822   3.332 -0.3478  0.1936 -0.0440
  472MOL0     C63632  -0.814   0.822   3.362  0.3585  0.1353  0.1347
  472MOL0     O63633  -0.562   1.074   3.430 -0.6984 -0.2098  0.3651
  472MOL0     C63634  -0.300   0.867   3.279  0.5790 -0.7144  0.7534
  472MOL0     C63635  -0.161   0.835   3.267  0.2941 -0.4578 -0.0158
  472MOL0     N63636   0.393   1.151   3.790  0.2880  1.2981 -0.1559
  472MOL0     N63637   0.390   1.279   3.802  0.5388  0.4188  0.1350
  472MOL0     C63638   1.166   2.059   3.943 -0.6642 -0.3396 -0.6850
  472MOL0     C63639   1.303   2.080   3.956  0.4613  0.1110 -0.1399
  472MOL0     C63640   1.732   2.249   3.839  0.0048 -0.1510 -0.3347
  472MOL0     C63641   1.813   2.309   3.740  0.0120  0.2405  0.3059
  472MOL0     C63642   1.931   2.379   3.778 -0.3687 -0.0223  0.0036
  472MOL0     C63643   1.971   2.389   3.911  0.1609 -0.1230  0.3796
  472MOL0     O63644   2.080   2.460   3.963 -0.3404 -0.1055 -0.3688
  472MOL0     C63645   2.168   2.536   3.874  0.1228 -0.4400 -0.2461
  472MOL0     C63646   2.308   2.559   3.939  0.2543 -0.1461 -0.1614
  472MOL0     C63647   2.376   2.671   3.853  0.2962 -0.3322 -0.2348
  472MOL0     C63648   2.522   2.684   3.905 -0.6797  0.6116 -0.6452
  472MOL0     C63649   2.612   2.753   3.808 -0.3938  0.6219  0.2039
  472MOL0     C63650   2.696   2.803   3.738  0.3088 -0.2375 -0.1628
  472MOL0     C63651   1.892   2.331   4.005  0.2077 -0.1637  0.3023
  472MOL0     C63652   1.769   2.268   3.972 -0.0788 -0.2810 -0.8436
  472MOL0     H63653   1.351   2.299   3.706 -2.2238  0.0985 -1.3595
  472MOL0     H63654   1.112   2.253   3.675  3.1339  2.8537 -1.0592
  472MOL0     H63655   0.988   1.889   3.854  2.1013  1.1844  2.2096
  472MOL0     H63656   0.905   1.992   3.973  1.5092  1.8364 -0.0446
  472MOL0     H63657   0.710   2.006   3.850  1.8536 -0.4417  2.9948
  472MOL0     H63658   0.780   1.937   3.698 -0.0133  1.0805 -0.1798
  472MOL0     H63659   0.754   1.785   3.954 -3.1138 -2.1828  0.0576
  472MOL0     H63660   0.638   1.790   3.831 -0.4148  0.6291  1.3675
  472MOL0     H63661   0.820   1.692   3.670  1.5323  0.3156 -0.3160
  472MOL0     H63662   0.936   1.669   3.803 -0.2662 -0.7012 -0.2125
  472MOL0     H63663   0.834   1.464   3.784  1.3006  2.4110 -2.0784
  472MOL0     H63664   0.798   1.529   3.937  0.0449  1.3101 -0.1481
  472MOL0     H63665   0.606   1.416   3.843  1.3481 -0.2376 -0.5842
  472MOL0     H63666   0.565   1.578   3.881  0.7530  0.8306 -0.1805
  472MOL0     H63667   0.594   1.624   3.626  0.7102  0.2543  1.2339
  472MOL0     H63668   0.639   1.459   3.600  1.5210  2.3992  0.2324
  472MOL0     H63669   0.414   1.502   3.550  0.6896  2.8342 -0.7014
  472MOL0     H63670   0.377   1.548   3.715 -1.1051  0.5427 -1.1041
  472MOL0     H63671   0.416   1.277   3.481 -1.4160 -0.2462  1.0009
  472MOL0     H63672   0.450   0.989   3.494 -2.0758 -0.9328 -2.0952
  472MOL0     H63673   0.420   0.906   3.662 -1.6657  2.8052  3.0643
  472MOL0     H63674   0.206   1.016   3.474 -2.6594  0.4521  2.0792
  472MOL0     H63675   0.185   0.963   3.641  0.0152 -2.8278  1.0198
  472MOL0     H63676   0.285   0.731   3.569  1.6145 -0.9965 -1.2522
  472MOL0     H63677   0.295   0.800   3.412  2.4926 -1.6376  1.6827
  472MOL0     H63678   0.032   0.793   3.572  1.0040  0.9012  1.4314
  472MOL0     H63679   0.078   0.674   3.440 -2.4597  1.7146 -1.6368
  472MOL0     H63680  -0.054   1.024   3.529  0.9674 -0.3440  0.6366
  472MOL0     H63681  -0.333   1.184   3.543 -1.2376 -0.7477 -0.5058
  472MOL0     H63682  -0.409   1.044   3.630  0.3658 -0.6217  1.2914
  472MOL0     H63683  -0.250   1.095   3.677 -1.0465  1.7614  0.1012
  472MOL0     H63684  -0.677   1.026   3.148 -1.2264  1.9804  0.8191
  472MOL0     H63685  -0.928   1.030   3.068 -1.1343  3.0298  1.1224
  472MOL0     H63686  -1.141   1.033   3.051  4.8053 -0.6192  2.4847
  472MOL0     H63687  -1.294   0.990   3.123 -1.0321  1.6999  0.2849
  472MOL0     H63688  -1.235   1.119   3.337  2.8512  1.8174  1.2797
  472MOL0     H63689  -1.084   1.170   3.265  0.8656 -1.2912 -0.2433
  472MOL0     H63690  -1.232   1.282   3.077  0.8462  2.0377  0.5136
  472MOL0     H63691  -1.241   1.366   3.221 -2.1248  0.4977 -1.3170
  472MOL0     H63692  -1.430   1.164   3.098 -0.0759 -1.3786  0.8051
  472MOL0     H63693  -1.453   1.200   3.271 -0.1083  1.6851  0.8235
  472MOL0     H63694  -1.476   1.383   3.040  1.4744 -3.7977 -0.3140
  472MOL0     H63695  -1.471   1.455   3.198 -0.3178  1.0952 -0.8731
  472MOL0     H63696  -1.665   1.275   3.264  0.6508  2.2525  0.8431
  472MOL0     H63697  -1.694   1.432   3.196  1.2795  0.8113 -0.3025
  472MOL0     H63698  -1.679   1.178   3.036  2.1051 -0.2951  3.3568
  472MOL0     H63699  -1.716   1.341   2.969  0.2487 -3.4375 -2.9239
  472MOL0     H63700  -1.901   1.214   3.173 -0.3232  3.6159  2.7489
  472MOL0     H63701  -1.924   1.215   2.999 -0.7968  0.1686 -0.3796
  472MOL0     H63702  -1.020   0.765   3.394  2.0615 -3.6193 -0.5552
  472MOL0     H63703  -0.794   0.771   3.456 -0.3390 -1.1723 -0.3920
  472MOL0     H63704  -0.346   0.823   3.191  0.2768  0.0910  0.4996
  472MOL0     H63705  -0.115   0.768   3.195 -1.5869 -0.1604 -1.5769
  472MOL0     H63706   1.127   1.979   4.006 -1.2212  0.0534 -0.5199
  472MOL0     H63707   1.366   2.022   4.022  0.3452 -0.6346 -0.6662
  472MOL0     H63708   1.776   2.307   3.638  0.2103  0.3595  0.2328
  472MOL0     H63709   1.986   2.428   3.699  0.0860  1.9168  1.4583
  472MOL0     H63710   2.178   2.487   3.777  0.5232 -0.8115 -0.0162
  472MOL0     H63711   2.123   2.634   3.853  0.5464  0.0523  1.0540
  472MOL0     H63712   2.366   2.466   3.943  2.1874  1.0286  2.6822
  472MOL0     H63713   2.287   2.592   4.041  0.6655 -1.3380  0.3281
  472MOL0     H63714   2.335   2.771   3.870  0.3569 -0.4392  0.6064
  472MOL0     H63715   2.372   2.633   3.751  3.0454 -1.9254  0.1394
  472MOL0     H63716   2.565   2.585   3.926  2.0137  1.5230 -1.5259
  472MOL0     H63717   2.533   2.744   3.995  2.1689  0.9472 -1.1367
  472MOL0     H63718   2.764   2.851   3.670 -1.0632  1.7071 -0.2552
  472MOL0     H63719   1.925   2.323   4.108 -2.6177 -0.5290  1.2548
  472MOL0     H63720   1.709   2.228   4.053 -0.5010 -0.9850 -1.4781
  473MOL0     O63721   6.974   4.253   5.661 -0.6759 -0.2730 -0.2711
  473MOL0     C63722   7.006   4.270   5.546  0.6369 -0.0818  0.7223
  473MOL0     O63723   6.918   4.299   5.442 -0.2159  0.3491  0.0283
  473MOL0     C63724   6.786   4.329   5.453 -0.5666  0.2198  0.2922
  473MOL0     C63725   6.693   4.292   5.345  0.5948  0.3430 -0.2015
  473MOL0     C63726   6.557   4.303   5.365  0.5318  0.2112 -0.6646
  473MOL0     C63727   6.513   4.359   5.488  0.5120  0.1463  0.7131
  473MOL0     O63728   6.385   4.369   5.520  0.8155 -0.4444  0.8848
  473MOL0     C63729   6.330   4.502   5.548  0.8010 -0.8005 -0.0692
  473MOL0     C63730   6.181   4.503   5.492 -0.0552 -0.3737 -0.6097
  473MOL0     C63731   6.090   4.617   5.558  0.4768  0.4850  0.7407
  473MOL0     C63732   5.973   4.633   5.462  0.4123  0.5804  0.5270
  473MOL0     C63733   5.854   4.705   5.529 -0.0834  0.2931 -0.9157
  473MOL0     C63734   5.730   4.697   5.444 -0.1653  0.0932 -0.7562
  473MOL0     C63735   5.738   4.787   5.317 -0.4051  0.3085  0.1137
  473MOL0     C63736   5.623   4.734   5.224 -0.7075 -0.8930  0.5497
  473MOL0     N63737   5.481   4.785   5.261  0.0049 -0.2701  0.4562
  473MOL0     C63738   5.452   4.911   5.310 -0.7732  0.2225 -0.6270
  473MOL0     C63739   5.331   4.897   5.359  0.1869 -0.1750 -0.7102
  473MOL0     C63740   5.254   5.001   5.434 -0.6971  0.5266  0.3705
  473MOL0     C63741   5.127   5.052   5.357 -0.4437  0.4691  0.0609
  473MOL0     C63742   5.016   5.053   5.461 -0.5536 -0.2697  0.3956
  473MOL0     C63743   4.874   5.054   5.396  0.2882 -0.3273  0.3668
  473MOL0     O63744   4.839   5.194   5.364  0.5775  0.9109  0.8686
  473MOL0     C63745   4.702   5.228   5.349  0.3136 -0.3978  0.2007
  473MOL0     C63746   4.612   5.145   5.280  0.0965  0.0636 -0.2472
  473MOL0     C63747   4.487   5.190   5.235 -0.1111  0.2656  0.1407
  473MOL0     C63748   4.410   5.089   5.155 -0.1590  0.8568  0.3307
  473MOL0     C63749   4.442   5.320   5.274  0.4889  0.3636  0.0335
  473MOL0     C63750   4.304   5.372   5.238  0.2326  0.5834 -0.5566
  473MOL0     O63751   4.213   5.303   5.169  0.1557  0.1843 -0.7684
  473MOL0     C63752   4.086   5.335   5.140  0.1275  0.2846 -0.0311
  473MOL0     C63753   4.001   5.417   5.209  0.3308 -0.0568  0.0470
  473MOL0     C63754   3.871   5.444   5.162  0.7477 -0.6785  0.6291
  473MOL0     C63755   3.823   5.375   5.054 -0.3452 -0.2083  0.2748
  473MOL0     O63756   3.703   5.408   4.999  0.6758 -0.3312  0.3606
  473MOL0     C63757   3.640   5.325   4.898 -0.2572  0.8311  0.3598
  473MOL0     C63758   3.504   5.391   4.856 -0.4610  0.4152 -0.0570
  473MOL0     C63759   3.396   5.391   4.967  0.1390  0.5287 -0.0187
  473MOL0     C63760   3.294   5.278   4.956  0.7536  0.7399 -0.4781
  473MOL0     C63761   3.164   5.323   4.885  0.4228  0.5703 -0.1281
  473MOL0     C63762   3.072   5.400   4.983 -0.5407  0.0799 -0.1336
  473MOL0     C63763   2.957   5.452   4.901  1.2831  0.0879  0.7570
  473MOL0     C63764   2.866   5.524   4.995 -0.5182  1.0382 -0.3886
  473MOL0    Cl63765   2.722   5.562   4.891  0.1702  0.1483  0.3265
  473MOL0     C63766   3.907   5.287   4.985 -0.1675  0.1920 -0.0052
  473MOL0     C63767   4.039   5.267   5.029  0.3327  0.0889  0.3309
  473MOL0     O63768   4.288   5.487   5.271  0.2287  0.2800 -0.3177
  473MOL0     C63769   4.533   5.399   5.342 -0.0022 -0.8102  0.4439
  473MOL0     C63770   4.656   5.354   5.381 -0.0237  0.0479  0.4030
  473MOL0     N63771   5.296   4.766   5.355 -0.3484 -0.5098  0.6709
  473MOL0     N63772   5.387   4.699   5.284  0.6089  0.2533  0.0758
  473MOL0     C63773   6.600   4.394   5.586  0.2254  0.2791 -0.1570
  473MOL0     C63774   6.735   4.389   5.565 -0.1284 -0.5986 -0.1285
  473MOL0     C63775   7.144   4.267   5.508 -0.6985  0.5368 -0.2725
  473MOL0     C63776   7.192   4.277   5.378  0.7776  0.3925 -0.9313
  473MOL0     C63777   7.326   4.271   5.341  0.0557 -0.3958  1.4547
  473MOL0     C63778   7.427   4.266   5.436  0.1046 -0.5261  0.2117
  473MOL0     O63779   7.549   4.294   5.384  0.3495  0.9215 -0.3731
  473MOL0     C63780   7.667   4.292   5.463  0.4392 -0.5365  0.7419
  473MOL0     C63781   7.767   4.390   5.399  0.1822  0.1028  0.1671
  473MOL0     C63782   7.716   4.535   5.360  0.2364 -0.4672 -0.2156
  473MOL0     C63783   7.652   4.535   5.220 -0.2495  0.2292 -0.2674
  473MOL0     C63784   7.602   4.669   5.192  0.3542  0.2029  0.2488
  473MOL0     C63785   7.564   4.786   5.172  0.1578  0.3213  0.8763
  473MOL0     C63786   7.384   4.258   5.567  0.0074 -1.1170 -0.5287
  473MOL0     C63787   7.252   4.251   5.603  0.5176 -0.0974 -0.2186
  473MOL0     H63788   6.723   4.251   5.249  3.3671  1.3855  0.1344
  473MOL0     H63789   6.483   4.284   5.288 -2.0414 -1.2058  1.9588
  473MOL0     H63790   6.334   4.517   5.656 -1.2463 -1.3935  0.1234
  473MOL0     H63791   6.387   4.576   5.491 -0.1092 -0.9174 -1.1501
  473MOL0     H63792   6.199   4.513   5.384  3.0016 -3.9522 -0.5937
  473MOL0     H63793   6.129   4.411   5.520  0.8902 -0.4990  0.8068
  473MOL0     H63794   6.039   4.579   5.646 -2.3228 -1.0586 -1.3903
  473MOL0     H63795   6.143   4.712   5.574 -2.1545  1.7536  2.5826
  473MOL0     H63796   6.000   4.701   5.381 -0.1512  0.3556  0.1493
  473MOL0     H63797   5.947   4.539   5.413 -1.0918  0.5606  1.3250
  473MOL0     H63798   5.834   4.653   5.623 -0.6899 -1.6759 -2.0825
  473MOL0     H63799   5.891   4.808   5.535 -1.7361  0.8383  0.8393
  473MOL0     H63800   5.714   4.591   5.420  1.5323 -0.9895  2.3120
  473MOL0     H63801   5.644   4.741   5.494 -0.2102  1.2592 -1.8182
  473MOL0     H63802   5.728   4.893   5.340  0.0659  0.1255  1.2110
  473MOL0     H63803   5.836   4.771   5.270 -0.7045  1.2127 -0.8585
  473MOL0     H63804   5.603   4.626   5.217 -1.7278 -0.8371  2.1453
  473MOL0     H63805   5.647   4.767   5.122 -1.3195 -2.4655 -0.1430
  473MOL0     H63806   5.519   4.994   5.325 -0.4455 -0.2769  0.8608
  473MOL0     H63807   5.230   4.965   5.534 -0.1206 -0.2268  0.2459
  473MOL0     H63808   5.329   5.075   5.463  2.6710 -0.2735 -4.8190
  473MOL0     H63809   5.094   4.999   5.267 -1.2634  0.0288  0.6165
  473MOL0     H63810   5.143   5.154   5.319 -2.7589  1.3669  1.3042
  473MOL0     H63811   5.043   5.146   5.512  0.3392  0.5712 -1.5457
  473MOL0     H63812   5.021   4.964   5.525 -2.1531  0.8141  2.1357
  473MOL0     H63813   4.804   5.005   5.465  1.7903 -2.3300  0.5572
  473MOL0     H63814   4.884   4.991   5.307  0.9106 -0.3540  0.4517
  473MOL0     H63815   4.653   5.047   5.257 -0.2408 -0.2254  0.3406
  473MOL0     H63816   4.347   5.133   5.077 -2.2482 -3.5747 -0.7807
  473MOL0     H63817   4.475   5.014   5.108  0.5207  1.6819 -0.0859
  473MOL0     H63818   4.344   5.045   5.230 -0.1796  1.1388  0.4790
  473MOL0     H63819   4.036   5.471   5.297  1.7119 -0.9534  0.0878
  473MOL0     H63820   3.802   5.513   5.209 -0.8498 -2.7060  1.4288
  473MOL0     H63821   3.696   5.317   4.805 -1.5787 -1.6266 -0.2999
  473MOL0     H63822   3.631   5.223   4.936 -0.1442 -0.2750 -2.3537
  473MOL0     H63823   3.518   5.495   4.826 -2.9044  0.8200  0.0145
  473MOL0     H63824   3.467   5.328   4.775  0.1244  0.9467 -0.7463
  473MOL0     H63825   3.353   5.491   4.972 -0.6631  0.1706  0.5590
  473MOL0     H63826   3.447   5.383   5.064  0.4887  1.8878 -0.0697
  473MOL0     H63827   3.332   5.190   4.904 -2.6078 -1.1731 -0.0272
  473MOL0     H63828   3.270   5.246   5.058  1.0800  3.3316  0.4846
  473MOL0     H63829   3.110   5.233   4.855  2.1697 -0.3525 -0.6049
  473MOL0     H63830   3.187   5.370   4.788 -1.6976 -0.6068 -1.2838
  473MOL0     H63831   3.035   5.330   5.058 -1.2602  0.5122 -0.0796
  473MOL0     H63832   3.114   5.489   5.031 -0.5063  0.9205 -1.6797
  473MOL0     H63833   2.915   5.369   4.843 -1.4914  2.8050 -1.5795
  473MOL0     H63834   2.987   5.525   4.825 -1.9317  1.1154  0.2965
  473MOL0     H63835   2.901   5.622   5.028  0.3837  1.1244 -1.5592
  473MOL0     H63836   2.840   5.465   5.084  1.5349  1.8526  0.8370
  473MOL0     H63837   3.875   5.220   4.906  2.1774 -3.6631  2.0034
  473MOL0     H63838   4.095   5.207   4.958 -1.2958  0.9690 -1.8253
  473MOL0     H63839   4.512   5.503   5.367 -0.4429 -0.2369 -2.0593
  473MOL0     H63840   4.721   5.417   5.441 -0.9743 -1.2593  2.9395
  473MOL0     H63841   6.570   4.438   5.680  2.1275  1.2408  0.0648
  473MOL0     H63842   6.798   4.404   5.652  0.5000 -0.2735 -0.6368
  473MOL0     H63843   7.125   4.283   5.292 -0.6272  0.4969  0.1196
  473MOL0     H63844   7.368   4.279   5.242 -0.3445 -1.4095  1.1878
  473MOL0     H63845   7.654   4.343   5.559  0.7502  1.2502 -0.1301
  473MOL0     H63846   7.693   4.189   5.488 -1.3185 -0.4588  3.3649
  473MOL0     H63847   7.809   4.341   5.311  0.1544  0.1739  0.1148
  473MOL0     H63848   7.854   4.395   5.465 -0.5925 -0.5361  1.2972
  473MOL0     H63849   7.802   4.602   5.360  0.7870 -1.0552  2.7793
  473MOL0     H63850   7.637   4.568   5.429  1.2406  0.3978  0.5666
  473MOL0     H63851   7.566   4.467   5.220  0.8224 -1.1637 -0.4723
  473MOL0     H63852   7.719   4.502   5.140 -1.1454 -2.3452 -0.0420
  473MOL0     H63853   7.529   4.885   5.148  2.2362  1.0425  0.6073
  473MOL0     H63854   7.461   4.257   5.644  0.1600  0.9440 -0.5902
  473MOL0     H63855   7.221   4.253   5.707  2.2876 -0.2477  0.3432
  474MOL0     O63856   6.713  10.481   9.421  0.2181 -0.0830 -0.4023
  474MOL0     C63857   6.821  10.490   9.376  0.5637  0.6109 -0.7274
  474MOL0     O63858   6.886  10.603   9.373 -0.8872  0.6278  0.5914
  474MOL0     C63859   6.817  10.723   9.382  0.1995 -0.0048 -0.3315
  474MOL0     C63860   6.743  10.777   9.282  0.8939 -0.4611  0.2167
  474MOL0     C63861   6.672  10.889   9.306 -0.2474  1.7303  0.3668
  474MOL0     C63862   6.671  10.946   9.434 -0.2803 -0.2172 -0.5613
  474MOL0     O63863   6.595  11.058   9.458 -0.2173  0.5679  0.1215
  474MOL0     C63864   6.537  11.088   9.583  0.2874 -0.1829  0.4910
  474MOL0     C63865   6.504  11.234   9.599  0.0233 -0.4558  0.4361
  474MOL0     C63866   6.450  11.261   9.735  0.3417 -0.2472  0.1573
  474MOL0     C63867   6.391  11.395   9.747 -0.1906 -1.1115 -0.4173
  474MOL0     C63868   6.269  11.403   9.837  0.0483  0.1106  0.0126
  474MOL0     C63869   6.219  11.547   9.839  0.8522  0.3381 -0.1024
  474MOL0     C63870   6.088  11.564   9.919 -0.9290  0.3056  0.3747
  474MOL0     C63871   6.133  11.551  10.065  0.2499 -0.5968 -0.8732
  474MOL0     N63872   6.005  11.562  10.153 -0.4805  0.4947 -0.5761
  474MOL0     C63873   5.893  11.484  10.128 -0.0238 -0.3990  0.0281
  474MOL0     C63874   5.838  11.462  10.250  0.2557  0.2730  0.3625
  474MOL0     C63875   5.708  11.394  10.277  0.0431 -0.0501  0.0975
  474MOL0     C63876   5.600  11.486  10.331  0.3490 -0.9145  0.5060
  474MOL0     C63877   5.532  11.562  10.217  0.4076 -0.2183 -0.1191
  474MOL0     C63878   5.420  11.660  10.272 -0.1043  0.1505  0.2564
  474MOL0     O63879   5.474  11.775  10.336 -0.3480 -0.1421 -0.0627
  474MOL0     C63880   5.407  11.853  10.431  0.1246 -0.7636  0.2064
  474MOL0     C63881   5.479  11.950  10.506 -0.0496  0.2671  0.4102
  474MOL0     C63882   5.411  12.032  10.597  0.1571  0.8396 -0.9187
  474MOL0     C63883   5.503  12.123  10.666 -0.2531 -0.0704  0.1323
  474MOL0     C63884   5.275  12.005  10.636  0.1229 -1.2865 -0.6944
  474MOL0     C63885   5.212  12.070  10.748  0.4969  0.1066  0.3701
  474MOL0     O63886   5.248  12.196  10.776  0.6875 -0.4520 -0.5294
  474MOL0     C63887   5.228  12.261  10.884  0.7117 -0.1593  0.1158
  474MOL0     C63888   5.276  12.224  11.010 -0.1666 -0.2368  0.6736
  474MOL0     C63889   5.238  12.310  11.118  1.0551 -0.7099  0.6075
  474MOL0     C63890   5.156  12.428  11.103  0.2930  0.4119  0.0800
  474MOL0     O63891   5.122  12.500  11.217  0.0650  0.1167 -0.4480
  474MOL0     C63892   5.040  12.614  11.211  0.1388  0.4426  0.1379
  474MOL0     C63893   5.011  12.670  11.353 -0.0880 -0.3349  0.3671
  474MOL0     C63894   4.897  12.587  11.407  0.1473 -0.0809  0.3379
  474MOL0     C63895   4.852  12.642  11.548  0.8334 -0.0735 -1.0953
  474MOL0     C63896   4.776  12.546  11.648  0.0766  0.7297  0.2996
  474MOL0     C63897   4.624  12.572  11.660  0.4989 -0.7109  0.0559
  474MOL0     C63898   4.560  12.500  11.780  0.6597 -0.2476  0.1182
  474MOL0     C63899   4.410  12.527  11.783 -0.2964  0.3115 -0.5383
  474MOL0    Cl63900   4.344  12.486  11.938  0.2047  0.3151 -0.3123
  474MOL0     C63901   5.115  12.468  10.969  0.7355 -0.6355  0.5869
  474MOL0     C63902   5.147  12.376  10.862  0.5148 -0.9410  0.1496
  474MOL0     O63903   5.116  12.016  10.797 -0.6898 -0.4649  0.2609
  474MOL0     C63904   5.214  11.901  10.568 -1.2569  0.8581  0.4173
  474MOL0     C63905   5.273  11.836  10.460  0.2608 -0.6710 -0.0332
  474MOL0     N63906   5.916  11.529  10.340 -0.0753  0.2874  0.3177
  474MOL0     N63907   6.014  11.587  10.286 -0.1385 -0.5447  0.2404
  474MOL0     C63908   6.763  10.898   9.531  0.0715  1.1663 -1.0733
  474MOL0     C63909   6.834  10.783   9.505 -0.0401  0.3104 -0.3175
  474MOL0     C63910   6.892  10.363   9.325 -0.2087  0.4077 -0.5294
  474MOL0     C63911   7.031  10.352   9.299  0.5002  0.1061  0.5489
  474MOL0     C63912   7.085  10.239   9.230 -0.1104  0.2538 -0.2851
  474MOL0     C63913   7.000  10.132   9.211 -0.0547  0.2411 -0.6557
  474MOL0     O63914   7.039  10.018   9.148  0.0180  0.0607  0.5990
  474MOL0     C63915   7.140  10.024   9.041 -1.3718  0.4294  0.1454
  474MOL0     C63916   7.256   9.936   9.082 -0.0075  0.1707  0.4603
  474MOL0     C63917   7.343   9.863   8.972  0.3355 -0.9471  0.7434
  474MOL0     C63918   7.445   9.768   9.042  0.5266  0.3066  0.7400
  474MOL0     C63919   7.557   9.850   9.093 -0.9597 -0.1628 -0.4017
  474MOL0     C63920   7.655   9.913   9.131  0.0772 -0.1435 -0.2475
  474MOL0     C63921   6.870  10.135   9.264  0.1906  0.4585  0.1709
  474MOL0     C63922   6.813  10.251   9.311  0.1857 -0.3846 -0.0328
  474MOL0     H63923   6.727  10.720   9.191 -0.2799  1.1368 -0.6230
  474MOL0     H63924   6.616  10.945   9.231 -0.2769  1.8432  0.4713
  474MOL0     H63925   6.448  11.027   9.604  0.5816  0.4588  4.4491
  474MOL0     H63926   6.607  11.057   9.662 -1.1913  2.2422  2.9039
  474MOL0     H63927   6.591  11.299   9.587 -2.1181  2.4994 -0.1664
  474MOL0     H63928   6.433  11.258   9.520 -1.0795  1.9414  2.0841
  474MOL0     H63929   6.382  11.181   9.763  1.1727 -1.6520 -1.6293
  474MOL0     H63930   6.530  11.247   9.808  1.4154 -2.5198 -1.3297
  474MOL0     H63931   6.463  11.472   9.776  1.5887 -2.7857 -0.1018
  474MOL0     H63932   6.352  11.418   9.648  1.6674  1.8663 -0.5785
  474MOL0     H63933   6.189  11.344   9.791 -1.7952  3.9146 -2.1225
  474MOL0     H63934   6.298  11.372   9.938 -0.0336  1.0426  0.3275
  474MOL0     H63935   6.283  11.624   9.884 -0.3737  0.5173  1.3813
  474MOL0     H63936   6.200  11.590   9.741  1.8269  0.9735 -0.0309
  474MOL0     H63937   6.049  11.665   9.904 -1.0036  0.3120  0.6139
  474MOL0     H63938   6.016  11.488   9.887 -0.3054 -0.6151  1.0854
  474MOL0     H63939   6.210  11.624  10.093  1.0037 -1.3126 -1.0629
  474MOL0     H63940   6.179  11.455  10.086 -2.0091 -1.9487 -1.7518
  474MOL0     H63941   5.861  11.430  10.040  1.1191 -0.2812 -0.4760
  474MOL0     H63942   5.679  11.343  10.184 -0.1656  0.3756 -0.0719
  474MOL0     H63943   5.737  11.308  10.339  2.1347 -0.6486 -1.5866
  474MOL0     H63944   5.639  11.561  10.400 -1.0436  3.1354 -2.7569
  474MOL0     H63945   5.523  11.424  10.379 -0.2358  0.6623  1.6838
  474MOL0     H63946   5.475  11.486  10.163  0.5302  0.1050 -0.7157
  474MOL0     H63947   5.608  11.605  10.151  0.1524 -1.9606 -1.6235
  474MOL0     H63948   5.360  11.599  10.340 -1.6200 -1.2248 -2.1699
  474MOL0     H63949   5.346  11.693  10.198  0.7894 -0.5366 -0.9988
  474MOL0     H63950   5.585  11.957  10.485 -0.2548  1.3744 -0.3143
  474MOL0     H63951   5.467  12.131  10.769  0.2120 -0.2612  0.3131
  474MOL0     H63952   5.605  12.083  10.665 -1.3880 -3.3133 -0.9405
  474MOL0     H63953   5.494  12.225  10.628 -0.8673  0.1556  0.8618
  474MOL0     H63954   5.332  12.132  11.024  2.0289  0.3605 -2.8452
  474MOL0     H63955   5.274  12.293  11.218  0.4371 -1.1011  0.7653
  474MOL0     H63956   5.095  12.693  11.158  0.0913 -0.9052 -2.0414
  474MOL0     H63957   4.951  12.591  11.153  0.7821 -1.4339 -0.1945
  474MOL0     H63958   5.105  12.682  11.408  0.4541 -0.9889 -0.3931
  474MOL0     H63959   4.959  12.764  11.336 -1.2474 -1.3097 -2.0410
  474MOL0     H63960   4.945  12.489  11.419  1.4531  0.6290  1.2386
  474MOL0     H63961   4.808  12.580  11.344  0.1603  4.5336 -0.5354
  474MOL0     H63962   4.944  12.665  11.604  0.6848 -0.9596 -0.4588
  474MOL0     H63963   4.796  12.735  11.536  1.0301  0.4698  1.6226
  474MOL0     H63964   4.817  12.553  11.749  3.6102 -0.0878 -0.9500
  474MOL0     H63965   4.777  12.445  11.607  0.6882  0.1578  1.6616
  474MOL0     H63966   4.614  12.680  11.673  1.0355 -0.8218  1.4892
  474MOL0     H63967   4.582  12.542  11.563  1.8884  0.2089 -0.8752
  474MOL0     H63968   4.625  12.518  11.866  0.9298  1.3893 -0.3923
  474MOL0     H63969   4.564  12.392  11.764 -0.7355 -0.3077  0.0206
  474MOL0     H63970   4.359  12.469  11.706 -1.2824  1.2144 -0.5988
  474MOL0     H63971   4.391  12.634  11.765 -2.5395  0.2088  0.8002
  474MOL0     H63972   5.066  12.562  10.949 -2.3262 -2.3641 -0.8070
  474MOL0     H63973   5.124  12.406  10.760  1.7075  0.2797  0.2264
  474MOL0     H63974   5.114  11.877  10.604  0.2504 -2.3029  2.9830
  474MOL0     H63975   5.206  11.773  10.403 -1.2252 -0.5920  1.5360
  474MOL0     H63976   6.762  10.950   9.627  0.1453 -1.3370  0.3640
  474MOL0     H63977   6.896  10.741   9.583 -2.1177 -1.7073  0.3584
  474MOL0     H63978   7.072  10.445   9.337 -1.1901  1.0643  0.1297
  474MOL0     H63979   7.191  10.243   9.207  1.0409  2.5037  4.1607
  474MOL0     H63980   7.095   9.983   8.950 -2.6887 -0.4476  1.1501
  474MOL0     H63981   7.169  10.127   9.021  0.4294  0.4025  2.2438
  474MOL0     H63982   7.209   9.851   9.133 -1.0718 -1.2742 -2.6291
  474MOL0     H63983   7.318   9.992   9.152 -0.8615  1.6915  0.0374
  474MOL0     H63984   7.391   9.936   8.906 -1.7044  0.5305  0.8067
  474MOL0     H63985   7.282   9.800   8.906 -1.0717  0.3529  0.7593
  474MOL0     H63986   7.468   9.686   8.974 -3.2303  0.5775 -1.1161
  474MOL0     H63987   7.401   9.718   9.128 -0.1177 -0.5611 -0.0648
  474MOL0     H63988   7.745   9.965   9.158 -0.3054  1.6600 -2.2127
  474MOL0     H63989   6.800  10.052   9.260  1.1968 -0.4558  0.9133
  474MOL0     H63990   6.711  10.234   9.343  1.1132 -2.3061  2.2616
  475MOL0     O63991   2.270   5.802   1.334  1.1027 -0.2252 -0.0206
  475MOL0     C63992   2.259   5.724   1.428 -0.8592  0.1455 -0.1057
  475MOL0     O63993   2.154   5.641   1.450 -0.4714  0.3193 -0.0791
  475MOL0     C63994   2.061   5.656   1.355  0.2506 -0.2170  0.1806
  475MOL0     C63995   1.962   5.755   1.358 -0.2506 -0.2013  1.2751
  475MOL0     C63996   1.853   5.761   1.266 -0.2823 -0.1807 -0.1785
  475MOL0     C63997   1.844   5.668   1.167  0.9245  0.1516  0.4139
  475MOL0     O63998   1.736   5.680   1.094 -0.0504 -0.3278  0.1564
  475MOL0     C63999   1.697   5.580   1.001 -0.1624 -1.1259 -0.1926
  475MOL0     C64000   1.577   5.629   0.914  0.0766  0.4488 -0.4391
  475MOL0     C64001   1.445   5.594   0.988  0.5920  0.6159  0.0171
  475MOL0     C64002   1.325   5.672   0.929 -0.2287 -0.3300 -0.0982
  475MOL0     C64003   1.193   5.614   0.970  0.7373  0.2565 -0.0365
  475MOL0     C64004   1.073   5.674   0.885  0.6261 -0.5200 -0.3711
  475MOL0     C64005   0.933   5.651   0.959  0.1732  1.0034  0.5238
  475MOL0     C64006   0.832   5.755   0.909 -0.1858  0.8359  1.0514
  475MOL0     N64007   0.695   5.726   0.949  0.4627 -0.0884 -0.2860
  475MOL0     C64008   0.631   5.768   1.068 -0.0819 -0.4876  0.5703
  475MOL0     C64009   0.508   5.719   1.059  0.1820  0.4798  0.4904
  475MOL0     C64010   0.406   5.729   1.175 -0.3094  0.0455 -0.1866
  475MOL0     C64011   0.258   5.691   1.128 -0.5960 -0.0407 -0.5527
  475MOL0     C64012   0.154   5.710   1.243  0.9007  0.3974 -0.3790
  475MOL0     C64013   0.135   5.851   1.285 -1.0333 -0.7695  0.1089
  475MOL0     O64014   0.036   5.878   1.377 -0.4846 -0.4609 -0.7915
  475MOL0     C64015  -0.083   5.925   1.325  0.1187 -0.1748 -0.1489
  475MOL0     C64016  -0.092   6.011   1.210  0.8724  0.8837  0.7713
  475MOL0     C64017  -0.216   6.055   1.165 -0.5255 -0.3251  0.1738
  475MOL0     C64018  -0.215   6.154   1.040 -0.1971  0.2325 -0.2994
  475MOL0     C64019  -0.341   6.008   1.226  0.5122  0.0570  0.2241
  475MOL0     C64020  -0.484   6.014   1.172 -1.0954  0.0496 -0.2375
  475MOL0     O64021  -0.580   5.930   1.232  0.8284  0.3815  0.3550
  475MOL0     C64022  -0.709   5.918   1.189  0.2662 -0.8321  0.1827
  475MOL0     C64023  -0.794   5.850   1.270  0.6447 -0.2755 -0.4331
  475MOL0     C64024  -0.920   5.810   1.231  0.0023 -0.2007 -0.1746
  475MOL0     C64025  -0.976   5.856   1.113  0.0475  0.1847  1.0676
  475MOL0     O64026  -1.102   5.815   1.076 -0.2787 -0.4210  0.2442
  475MOL0     C64027  -1.174   5.926   1.015 -0.2915  0.0987 -0.5320
  475MOL0     C64028  -1.324   5.926   1.060 -0.6552  0.1052  0.2331
  475MOL0     C64029  -1.397   5.785   1.030 -0.4405 -0.9673  1.3510
  475MOL0     C64030  -1.532   5.757   1.102 -0.4558  0.3565  0.2271
  475MOL0     C64031  -1.634   5.860   1.044 -0.8203  0.2313 -0.1726
  475MOL0     C64032  -1.781   5.820   1.084 -0.8547  0.2919 -0.1066
  475MOL0     C64033  -1.794   5.845   1.235  0.4629  0.0212  0.5009
  475MOL0     C64034  -1.932   5.797   1.284  0.1883  0.7976  0.1767
  475MOL0    Cl64035  -1.954   5.632   1.243 -0.2179  0.2357 -0.3281
  475MOL0     C64036  -0.896   5.932   1.025 -0.2493  0.6538  0.4699
  475MOL0     C64037  -0.759   5.955   1.064  0.1525  0.1149  0.3973
  475MOL0     O64038  -0.493   6.089   1.078  0.3248  0.0029 -0.0900
  475MOL0     C64039  -0.325   5.920   1.343 -0.5440 -0.1444  0.8306
  475MOL0     C64040  -0.200   5.892   1.393 -0.0925  0.1059  1.2652
  475MOL0     N64041   0.491   5.648   0.936  1.0572  0.3902 -0.1408
  475MOL0     N64042   0.601   5.652   0.876  0.2784 -0.0332  0.0302
  475MOL0     C64043   1.955   5.576   1.148 -0.3098 -0.6206  1.1309
  475MOL0     C64044   2.056   5.568   1.247  0.1062  0.0021 -0.1326
  475MOL0     C64045   2.378   5.691   1.513 -0.2235 -0.3550 -0.5944
  475MOL0     C64046   2.493   5.770   1.499  0.8000 -0.1437 -0.3093
  475MOL0     C64047   2.607   5.733   1.571  0.0097 -0.6312  0.1246
  475MOL0     C64048   2.614   5.619   1.655  0.0937  0.0974  0.0256
  475MOL0     O64049   2.723   5.566   1.718 -0.4406 -0.0259  0.3077
  475MOL0     C64050   2.834   5.653   1.753 -0.3754 -0.8031 -0.0645
  475MOL0     C64051   2.812   5.723   1.891 -0.1076  0.0395 -0.1085
  475MOL0     C64052   2.937   5.790   1.956 -0.2909  0.1819  0.5735
  475MOL0     C64053   2.904   5.853   2.096 -0.0298  0.3770 -0.2256
  475MOL0     C64054   3.020   5.931   2.141 -0.2713 -0.4249 -0.1809
  475MOL0     C64055   3.106   6.011   2.163 -0.0187 -0.1177  0.1160
  475MOL0     C64056   2.502   5.543   1.659 -0.2133 -0.1031 -0.0472
  475MOL0     C64057   2.387   5.579   1.591 -0.5747 -0.1251  1.0398
  475MOL0     H64058   1.966   5.829   1.437  2.0868  1.3649 -0.1819
  475MOL0     H64059   1.771   5.829   1.286 -0.8200 -1.4070  2.1513
  475MOL0     H64060   1.778   5.545   0.937  1.8632  2.2440  0.2771
  475MOL0     H64061   1.664   5.488   1.051  2.3566 -1.6250  0.6688
  475MOL0     H64062   1.586   5.738   0.904 -1.8276  0.7121  0.2705
  475MOL0     H64063   1.581   5.579   0.816 -2.9749  0.1413 -0.5199
  475MOL0     H64064   1.425   5.487   0.984 -0.3074  0.7270  1.0011
  475MOL0     H64065   1.445   5.620   1.094 -2.9093  0.7786  0.1135
  475MOL0     H64066   1.329   5.780   0.947  1.5606 -0.1518 -1.2881
  475MOL0     H64067   1.315   5.661   0.821 -0.2509 -0.6817 -0.0616
  475MOL0     H64068   1.195   5.506   0.956 -0.0854  0.4497 -1.8843
  475MOL0     H64069   1.189   5.632   1.078 -1.3462  0.6528 -0.1376
  475MOL0     H64070   1.093   5.780   0.867  3.0646 -0.9114 -0.2693
  475MOL0     H64071   1.083   5.632   0.785  3.7870 -1.2786  0.1621
  475MOL0     H64072   0.889   5.552   0.942  0.7032  0.8532 -0.0441
  475MOL0     H64073   0.953   5.656   1.066  0.3175 -0.4882  0.5862
  475MOL0     H64074   0.834   5.758   0.799  1.2618 -2.9154  0.8472
  475MOL0     H64075   0.861   5.851   0.954  2.2574  0.2730  0.8328
  475MOL0     H64076   0.668   5.832   1.147  1.6122 -0.6195 -0.0637
  475MOL0     H64077   0.425   5.643   1.241 -2.9979 -0.0835  0.5160
  475MOL0     H64078   0.419   5.824   1.226  2.6681 -1.4471  2.2066
  475MOL0     H64079   0.253   5.590   1.086  0.9819  0.4700 -2.0957
  475MOL0     H64080   0.231   5.749   1.039  0.7352  1.4520 -0.0297
  475MOL0     H64081   0.166   5.638   1.325  2.8959  1.2096  0.0883
  475MOL0     H64082   0.061   5.675   1.197  0.7179 -0.1659  0.3877
  475MOL0     H64083   0.133   5.905   1.190  1.2761 -0.3106  0.2687
  475MOL0     H64084   0.227   5.879   1.337 -1.7998  2.6151 -0.1163
  475MOL0     H64085  -0.005   6.041   1.153 -0.1078 -0.4889 -1.5887
  475MOL0     H64086  -0.226   6.256   1.077  2.7266  0.4678  0.1862
  475MOL0     H64087  -0.118   6.151   0.988 -0.4320 -0.4829 -0.7205
  475MOL0     H64088  -0.280   6.123   0.958  1.5868 -2.6863 -0.7807
  475MOL0     H64089  -0.762   5.809   1.365 -2.0319 -2.2634 -0.2693
  475MOL0     H64090  -0.976   5.738   1.291 -4.8518  1.2438 -2.4348
  475MOL0     H64091  -1.135   6.026   1.038  4.4984 -1.6981  0.3175
  475MOL0     H64092  -1.159   5.910   0.908  0.1258  1.2613 -0.6580
  475MOL0     H64093  -1.327   5.947   1.168  0.3752  1.0268  0.0982
  475MOL0     H64094  -1.370   6.010   1.007 -1.3065 -1.5095 -1.8887
  475MOL0     H64095  -1.329   5.706   1.063 -1.0523 -2.9721 -1.7112
  475MOL0     H64096  -1.402   5.775   0.921 -1.7833 -0.1469  1.3157
  475MOL0     H64097  -1.570   5.657   1.078 -0.1746  0.5571 -1.1518
  475MOL0     H64098  -1.525   5.763   1.211  0.9691 -0.5601  0.2222
  475MOL0     H64099  -1.638   5.856   0.935  2.9127  1.6746 -0.5142
  475MOL0     H64100  -1.607   5.962   1.071  1.7936  0.0444 -1.7379
  475MOL0     H64101  -1.855   5.878   1.027 -0.3128  0.1297 -0.9901
  475MOL0     H64102  -1.800   5.714   1.064 -1.4517  0.6547 -1.6543
  475MOL0     H64103  -1.788   5.953   1.255 -3.0927  0.2391  0.9851
  475MOL0     H64104  -1.726   5.776   1.286  0.9308 -0.4292 -0.6888
  475MOL0     H64105  -2.016   5.848   1.235 -0.3074  2.9408  2.9884
  475MOL0     H64106  -1.936   5.796   1.393  0.0599 -0.9393  0.1710
  475MOL0     H64107  -0.930   5.963   0.927  1.8008  0.7106 -0.2599
  475MOL0     H64108  -0.702   6.019   0.998  0.1456  0.0257  0.3049
  475MOL0     H64109  -0.418   5.890   1.389 -1.1606 -2.7747 -1.7881
  475MOL0     H64110  -0.182   5.833   1.482  1.1421 -2.3103 -0.4703
  475MOL0     H64111   1.952   5.499   1.072 -1.8190 -0.6677  1.2169
  475MOL0     H64112   2.136   5.496   1.248  0.3318  0.0349  3.9935
  475MOL0     H64113   2.490   5.863   1.443  2.3191  0.7200  0.9608
  475MOL0     H64114   2.694   5.798   1.567 -0.3498  0.0712  2.3516
  475MOL0     H64115   2.930   5.601   1.753 -0.2640 -0.6046  0.3158
  475MOL0     H64116   2.858   5.729   1.679 -0.4572 -0.2502  0.4631
  475MOL0     H64117   2.780   5.648   1.964  1.2884  0.2277  0.7384
  475MOL0     H64118   2.736   5.800   1.873  0.0149 -0.1414 -1.5195
  475MOL0     H64119   2.966   5.875   1.892 -1.9814  0.5855  0.2915
  475MOL0     H64120   3.019   5.718   1.957 -1.0712 -0.7655 -0.5722
  475MOL0     H64121   2.886   5.769   2.164  0.9156 -1.9420 -2.6767
  475MOL0     H64122   2.811   5.910   2.098  0.6922  1.5978  2.2692
  475MOL0     H64123   3.188   6.081   2.167 -0.5043  0.4806 -0.1996
  475MOL0     H64124   2.506   5.449   1.713 -0.5507 -1.2179 -1.8652
  475MOL0     H64125   2.300   5.516   1.578 -0.6564  0.0902  0.4998
  476MOL0     O64126   9.569   2.743   6.641  0.1099 -0.1163  0.3065
  476MOL0     C64127   9.595   2.784   6.523 -0.2137  0.3646 -0.1398
  476MOL0     O64128   9.539   2.896   6.459  0.1446 -0.1321 -0.5414
  476MOL0     C64129   9.418   2.947   6.504 -0.3495 -0.4200  0.9929
  476MOL0     C64130   9.325   2.975   6.402 -0.1519 -0.4899  0.2309
  476MOL0     C64131   9.202   3.018   6.436  0.1562 -0.6093  0.3872
  476MOL0     C64132   9.175   3.060   6.565  0.2246  0.4459  0.6641
  476MOL0     O64133   9.047   3.099   6.590  0.1234  0.1733  0.0182
  476MOL0     C64134   9.029   3.213   6.674 -0.5460 -0.0425 -0.9266
  476MOL0     C64135   8.891   3.270   6.639 -0.3728 -0.6686  0.1633
  476MOL0     C64136   8.866   3.407   6.700 -0.5219 -0.6594 -1.0412
  476MOL0     C64137   8.727   3.453   6.668 -0.1061 -0.0567 -0.4609
  476MOL0     C64138   8.713   3.602   6.701  0.9883  0.3340  0.9338
  476MOL0     C64139   8.560   3.630   6.706 -0.2374  0.0490  0.4517
  476MOL0     C64140   8.535   3.757   6.786  0.3683  0.4355  0.6992
  476MOL0     C64141   8.393   3.796   6.789  0.8529 -1.1509 -0.0874
  476MOL0     N64142   8.382   3.931   6.833 -0.2805  0.0454  0.1590
  476MOL0     C64143   8.337   4.033   6.754 -0.3693 -0.3994  0.5554
  476MOL0     C64144   8.351   4.141   6.831  0.2383 -1.2307  0.8283
  476MOL0     C64145   8.299   4.286   6.802  0.4601  1.5516 -0.1154
  476MOL0     C64146   8.150   4.304   6.814 -0.1998  0.7168 -0.2622
  476MOL0     C64147   8.097   4.434   6.748  0.3558  0.0115 -0.2162
  476MOL0     C64148   7.952   4.470   6.773 -0.4004 -0.3492 -0.1549
  476MOL0     O64149   7.911   4.601   6.751  0.2594 -0.2625  0.0627
  476MOL0     C64150   7.778   4.633   6.752 -0.3647 -0.7650 -0.8222
  476MOL0     C64151   7.758   4.756   6.695  0.1697  0.5613  1.4823
  476MOL0     C64152   7.632   4.809   6.665  0.2584 -0.3813  0.3889
  476MOL0     C64153   7.631   4.956   6.608 -0.0494  0.6861  0.8252
  476MOL0     C64154   7.520   4.732   6.707  0.3945  0.6262 -0.3782
  476MOL0     C64155   7.384   4.784   6.688  0.4537 -0.0388  0.4430
  476MOL0     O64156   7.284   4.720   6.761 -0.8523 -0.6290  0.2899
  476MOL0     C64157   7.152   4.764   6.746  0.2908  0.2257  0.5066
  476MOL0     C64158   7.053   4.690   6.688 -0.4168 -0.7809  0.1293
  476MOL0     C64159   6.925   4.743   6.666  0.3974  0.1686 -0.3063
  476MOL0     C64160   6.889   4.869   6.720 -0.3103 -0.3927  0.1326
  476MOL0     O64161   6.762   4.910   6.694  0.5473 -0.6552  0.1745
  476MOL0     C64162   6.664   4.813   6.724  0.3021  0.5804  0.5087
  476MOL0     C64163   6.547   4.896   6.755 -0.3285 -0.0709 -0.0451
  476MOL0     C64164   6.425   4.813   6.801 -0.2313 -0.2268  0.4096
  476MOL0     C64165   6.294   4.897   6.818 -0.1379  0.4797  0.3443
  476MOL0     C64166   6.170   4.810   6.855 -0.1195 -1.0065  0.2996
  476MOL0     C64167   6.044   4.889   6.825  0.0978 -0.1632  0.1796
  476MOL0     C64168   6.038   5.022   6.896  0.2538  0.1785  0.1329
  476MOL0     C64169   5.907   5.089   6.858  0.0063  0.9083 -0.2396
  476MOL0    Cl64170   5.910   5.248   6.935  0.1100 -0.1476  0.0042
  476MOL0     C64171   6.987   4.942   6.778 -0.3030 -0.4591  0.8837
  476MOL0     C64172   7.116   4.887   6.798  0.7614 -0.7897 -0.1217
  476MOL0     O64173   7.362   4.868   6.604  0.5009 -0.7618  0.2608
  476MOL0     C64174   7.541   4.609   6.776 -0.6618 -0.1187  0.4051
  476MOL0     C64175   7.672   4.564   6.796  0.1615 -0.2931 -0.1524
  476MOL0     N64176   8.399   4.109   6.951 -0.3911  0.6626  0.0842
  476MOL0     N64177   8.415   3.977   6.954 -0.1186  1.0312  0.2497
  476MOL0     C64178   9.268   3.048   6.671  0.1413  0.0326 -0.1117
  476MOL0     C64179   9.388   2.987   6.637 -0.1908 -0.1884 -0.1845
  476MOL0     C64180   9.702   2.706   6.451 -0.1997 -0.0883  1.2099
  476MOL0     C64181   9.793   2.621   6.519  0.3566 -0.4607  0.0435
  476MOL0     C64182   9.865   2.520   6.449 -0.6775  0.1414  0.8329
  476MOL0     C64183   9.861   2.521   6.306 -0.7129  0.1807 -0.6865
  476MOL0     O64184   9.934   2.429   6.227 -0.2726  0.5383 -0.9910
  476MOL0     C64185   9.963   2.294   6.272  0.1295  0.2402  0.5559
  476MOL0     C64186  10.001   2.218   6.152  0.0966 -0.1362 -0.1218
  476MOL0     C64187   9.952   2.078   6.181 -0.2102 -0.1365  0.5395
  476MOL0     C64188  10.025   1.986   6.075 -0.2780 -0.3045 -0.1018
  476MOL0     C64189  10.172   1.982   6.109  0.1016 -0.5564  0.6401
  476MOL0     C64190  10.287   1.952   6.140 -0.0186  0.4791 -0.0371
  476MOL0     C64191   9.776   2.615   6.246  0.7867  0.2090 -0.2356
  476MOL0     C64192   9.702   2.707   6.309  0.5168 -0.1655 -0.8492
  476MOL0     H64193   9.340   2.977   6.295 -0.1701  3.9970  0.1619
  476MOL0     H64194   9.128   3.037   6.359 -1.5334 -2.4863  1.4385
  476MOL0     H64195   9.027   3.178   6.778  0.4116 -1.8570 -1.4796
  476MOL0     H64196   9.108   3.288   6.665  0.8450 -0.8542  2.6186
  476MOL0     H64197   8.891   3.287   6.531  1.5493  1.7149  0.4390
  476MOL0     H64198   8.813   3.200   6.672 -1.5343  0.5041  0.0170
  476MOL0     H64199   8.887   3.406   6.808  2.7879 -1.0024 -1.5849
  476MOL0     H64200   8.944   3.472   6.659  0.3837 -1.7652 -1.1200
  476MOL0     H64201   8.700   3.436   6.564  0.2368  1.5618 -0.8413
  476MOL0     H64202   8.666   3.378   6.719  2.2707 -3.2347 -1.9241
  476MOL0     H64203   8.760   3.602   6.800 -0.5040 -0.1304  1.6776
  476MOL0     H64204   8.765   3.666   6.629 -0.3557  1.3004  0.7775
  476MOL0     H64205   8.525   3.635   6.602  1.1189  0.3781 -0.0189
  476MOL0     H64206   8.507   3.542   6.743  3.1492 -2.1483  0.4715
  476MOL0     H64207   8.568   3.755   6.891  0.4765  0.7300  0.6726
  476MOL0     H64208   8.590   3.832   6.729  1.9810 -1.0081  0.2640
  476MOL0     H64209   8.342   3.725   6.855  1.8925 -0.6251  1.3127
  476MOL0     H64210   8.358   3.782   6.686 -0.9864 -2.6994  0.6826
  476MOL0     H64211   8.281   4.024   6.662  0.8134 -0.5833 -0.1590
  476MOL0     H64212   8.349   4.358   6.867  1.1309 -0.1847  1.3688
  476MOL0     H64213   8.336   4.307   6.700 -0.2656 -1.1457 -1.0004
  476MOL0     H64214   8.127   4.307   6.921  1.3621  3.6639  0.0763
  476MOL0     H64215   8.098   4.217   6.772  2.7446 -0.9415 -0.7692
  476MOL0     H64216   8.111   4.430   6.640 -0.6458 -0.3535 -0.3420
  476MOL0     H64217   8.142   4.522   6.794 -2.8355  0.5584  2.2258
  476MOL0     H64218   7.933   4.454   6.879 -3.0399  1.0973 -0.3288
  476MOL0     H64219   7.888   4.402   6.715  1.9259 -2.3537 -0.5324
  476MOL0     H64220   7.839   4.816   6.657  0.1052  0.1533  0.6866
  476MOL0     H64221   7.569   5.022   6.670 -2.2130  0.0188 -0.5381
  476MOL0     H64222   7.736   4.986   6.606  0.4810 -1.0693  0.8321
  476MOL0     H64223   7.589   4.964   6.508 -2.6473 -3.4891  1.3608
  476MOL0     H64224   7.089   4.593   6.654 -0.0327 -1.5036  2.4565
  476MOL0     H64225   6.854   4.682   6.611 -0.2832  0.1348  0.5893
  476MOL0     H64226   6.646   4.754   6.634  0.3947  1.8484 -0.3716
  476MOL0     H64227   6.683   4.743   6.805 -0.8695  0.1413  0.4237
  476MOL0     H64228   6.575   4.965   6.835 -1.5566 -0.7847  1.0382
  476MOL0     H64229   6.513   4.944   6.662 -0.7071  0.4562  0.3612
  476MOL0     H64230   6.448   4.768   6.899  1.9891 -0.0790  0.0241
  476MOL0     H64231   6.403   4.737   6.726  3.7898 -0.3865 -0.8760
  476MOL0     H64232   6.315   4.975   6.893  0.4222 -0.8067  1.5738
  476MOL0     H64233   6.266   4.940   6.721 -0.2613  0.9761  0.5960
  476MOL0     H64234   6.180   4.784   6.961  2.7168 -1.0989  0.0895
  476MOL0     H64235   6.160   4.719   6.795  1.3041 -1.8483  1.2799
  476MOL0     H64236   6.027   4.896   6.718  1.5946 -1.4619 -0.1874
  476MOL0     H64237   5.956   4.830   6.852 -1.0536 -0.3756 -3.5790
  476MOL0     H64238   6.117   5.083   6.851  1.8020 -2.3414 -0.8054
  476MOL0     H64239   6.049   5.006   7.004 -0.3536  0.5673  0.2543
  476MOL0     H64240   5.827   5.026   6.897  2.0477 -1.0531  1.0537
  476MOL0     H64241   5.905   5.097   6.749  3.6519  0.5710 -0.4564
  476MOL0     H64242   6.982   5.043   6.818  0.6047 -0.2296  0.4534
  476MOL0     H64243   7.191   4.946   6.849  1.4309 -1.2300 -0.5748
  476MOL0     H64244   7.456   4.546   6.802 -1.3098  0.3898 -0.4154
  476MOL0     H64245   7.690   4.470   6.848  4.5040  0.5929  0.3594
  476MOL0     H64246   9.251   3.097   6.766  1.5882  1.3865 -0.5124
  476MOL0     H64247   9.454   2.990   6.724 -0.6571 -1.2000  0.2248
  476MOL0     H64248   9.800   2.632   6.627 -0.7737 -0.3310  0.1164
  476MOL0     H64249   9.926   2.445   6.498 -0.6796 -1.5137 -1.5354
  476MOL0     H64250  10.050   2.298   6.338  1.6048  1.2362 -1.3364
  476MOL0     H64251   9.873   2.256   6.322  1.9438 -0.8903  3.1634
  476MOL0     H64252  10.107   2.222   6.127  0.0698  0.4495 -0.1463
  476MOL0     H64253   9.940   2.255   6.069  2.3450 -3.2493 -3.4639
  476MOL0     H64254   9.843   2.068   6.172 -0.4509  2.7946 -0.7961
  476MOL0     H64255   9.982   2.056   6.283  1.2068  3.0407  0.9063
  476MOL0     H64256  10.010   2.023   5.974 -0.5481  1.9443  0.6923
  476MOL0     H64257   9.987   1.884   6.081  1.7459 -1.0415  1.3447
  476MOL0     H64258  10.391   1.929   6.150 -0.3317 -0.1021  2.6734
  476MOL0     H64259   9.776   2.604   6.138  0.5862 -2.5308 -0.0158
  476MOL0     H64260   9.629   2.765   6.254 -0.5997 -2.4139 -1.8649
  477MOL0     O64261   8.161   7.940   4.925  0.6223  1.1901  0.2991
  477MOL0     C64262   8.145   7.867   4.828  0.7836  0.6345  0.2586
  477MOL0     O64263   8.026   7.828   4.775 -0.0343 -0.5370 -0.4646
  477MOL0     C64264   7.914   7.869   4.833  0.1277 -0.2136 -1.2891
  477MOL0     C64265   7.826   7.961   4.773 -0.9818  0.1525 -0.4430
  477MOL0     C64266   7.706   8.003   4.831  0.1628 -1.8179  0.4371
  477MOL0     C64267   7.669   7.952   4.958  0.3768  0.2560  0.0043
  477MOL0     O64268   7.554   7.984   5.024 -0.4202  0.1364  0.0324
  477MOL0     C64269   7.495   8.113   5.009 -0.9157  0.7870  0.3561
  477MOL0     C64270   7.413   8.127   5.136 -0.2201  0.6938  0.1669
  477MOL0     C64271   7.497   8.142   5.270  0.0563 -0.4353  0.5624
  477MOL0     C64272   7.414   8.208   5.382  0.3115  0.3534 -0.1407
  477MOL0     C64273   7.504   8.208   5.507  0.3245 -0.7383  0.1194
  477MOL0     C64274   7.492   8.073   5.580 -0.3688 -0.2309 -0.1788
  477MOL0     C64275   7.542   8.064   5.729  0.7737 -0.2516 -0.3046
  477MOL0     C64276   7.530   7.921   5.787  0.2863  0.8483 -0.1471
  477MOL0     N64277   7.394   7.869   5.819  0.2730 -0.1088 -0.1577
  477MOL0     C64278   7.323   7.902   5.931  0.0519  0.1152  0.0316
  477MOL0     C64279   7.227   7.803   5.940 -0.5083 -0.7792  0.0596
  477MOL0     C64280   7.114   7.780   6.038 -0.0883 -0.1927 -0.4694
  477MOL0     C64281   7.161   7.784   6.188 -0.3905 -0.2976 -0.6302
  477MOL0     C64282   7.052   7.768   6.303 -0.9257  0.6281 -0.7067
  477MOL0     C64283   6.958   7.649   6.294 -0.5835 -0.1381  0.0070
  477MOL0     O64284   6.873   7.660   6.180 -0.0219  0.6024  0.2425
  477MOL0     C64285   6.737   7.658   6.202 -0.0249  0.3223 -1.2128
  477MOL0     C64286   6.663   7.548   6.167  1.1303 -0.8134  0.7282
  477MOL0     C64287   6.518   7.546   6.183 -0.2989  0.2622  0.3892
  477MOL0     C64288   6.462   7.411   6.142 -0.5722  0.2029 -0.5990
  477MOL0     C64289   6.454   7.668   6.230  0.6274 -0.7747  0.8842
  477MOL0     C64290   6.311   7.683   6.243 -0.0186  0.5475  0.8431
  477MOL0     O64291   6.263   7.810   6.232 -0.1945 -0.2224 -0.3620
  477MOL0     C64292   6.128   7.828   6.230  0.5373  0.6539  0.4208
  477MOL0     C64293   6.062   7.774   6.123 -0.0253 -0.0967  0.4266
  477MOL0     C64294   5.932   7.809   6.104  0.3193  0.2984  0.0218
  477MOL0     C64295   5.859   7.893   6.196  0.6450  0.0304  0.2466
  477MOL0     O64296   5.727   7.922   6.169 -0.0961 -0.2394 -0.2949
  477MOL0     C64297   5.650   8.011   6.255  0.2087  0.7617  0.7259
  477MOL0     C64298   5.517   8.032   6.178 -0.3402  0.1524 -0.1467
  477MOL0     C64299   5.441   7.904   6.138  0.6497  0.2800  0.1724
  477MOL0     C64300   5.302   7.951   6.094  0.2256 -0.7445 -0.0430
  477MOL0     C64301   5.225   7.824   6.091  0.2252  0.1457 -0.2958
  477MOL0     C64302   5.069   7.861   6.075  0.0506  0.4186  0.4256
  477MOL0     C64303   4.980   7.742   6.112 -0.5737  0.7691  0.5542
  477MOL0     C64304   4.837   7.786   6.133  0.3889  0.8632 -0.3540
  477MOL0    Cl64305   4.765   7.870   5.985  0.1010 -0.3603  0.0425
  477MOL0     C64306   5.928   7.935   6.311 -0.0184  0.5940 -0.8085
  477MOL0     C64307   6.065   7.895   6.329  0.3726 -0.3209  0.5218
  477MOL0     O64308   6.242   7.583   6.266  0.3421 -0.0548  0.2386
  477MOL0     C64309   6.531   7.784   6.265 -0.5300 -0.2640  0.0812
  477MOL0     C64310   6.672   7.776   6.258 -0.2615 -0.0030 -0.4831
  477MOL0     N64311   7.245   7.715   5.833  0.5472  0.1734  0.1745
  477MOL0     N64312   7.338   7.763   5.755  1.0185 -0.4307 -0.4000
  477MOL0     C64313   7.759   7.859   5.018  1.2292  1.4531  0.0692
  477MOL0     C64314   7.882   7.825   4.961 -0.0252 -0.5396 -1.1572
  477MOL0     C64315   8.268   7.833   4.755  0.3957 -0.0807  0.2408
  477MOL0     C64316   8.252   7.764   4.628 -0.2559  0.0097  0.5279
  477MOL0     C64317   8.361   7.723   4.557  0.1925  1.4137 -0.1669
  477MOL0     C64318   8.489   7.749   4.602 -0.5338  0.3953 -0.3092
  477MOL0     O64319   8.594   7.732   4.519 -0.7142  0.5536 -1.0524
  477MOL0     C64320   8.722   7.718   4.586 -0.0863 -0.1996  0.4562
  477MOL0     C64321   8.834   7.674   4.486 -0.2325  0.9003  0.1556
  477MOL0     C64322   8.876   7.790   4.392  0.4732  0.7249 -0.6383
  477MOL0     C64323   8.955   7.735   4.275 -0.5032 -0.3111  0.0577
  477MOL0     C64324   9.077   7.665   4.311  0.0251 -0.1253 -0.2086
  477MOL0     C64325   9.192   7.635   4.348 -0.4384  0.1248 -0.0297
  477MOL0     C64326   8.503   7.822   4.725 -0.4884 -0.6324 -0.0642
  477MOL0     C64327   8.393   7.858   4.802 -0.3247  0.1048  0.0321
  477MOL0     H64328   7.852   7.995   4.673  1.9162 -1.8716 -0.4870
  477MOL0     H64329   7.654   8.087   4.786  3.2780 -0.4911 -0.9694
  477MOL0     H64330   7.563   8.197   4.993 -1.6510  1.0280 -1.8052
  477MOL0     H64331   7.435   8.111   4.918  1.3654 -2.9350 -1.3059
  477MOL0     H64332   7.353   8.216   5.115  0.2060  1.0780  0.5618
  477MOL0     H64333   7.344   8.043   5.138 -1.2519  1.4687 -1.1825
  477MOL0     H64334   7.534   8.042   5.294 -2.0448 -2.6534 -4.1375
  477MOL0     H64335   7.583   8.208   5.252 -1.2469  1.1307 -0.1801
  477MOL0     H64336   7.391   8.313   5.361  0.4523 -0.0103 -2.3832
  477MOL0     H64337   7.316   8.165   5.402  0.1847  2.3185  4.8006
  477MOL0     H64338   7.611   8.218   5.490  0.7069 -3.6604  0.3340
  477MOL0     H64339   7.470   8.286   5.576  0.2415  0.2859 -1.0481
  477MOL0     H64340   7.392   8.033   5.564 -0.0118 -0.6993 -1.3692
  477MOL0     H64341   7.539   7.994   5.522 -1.3535 -2.7605  2.2570
  477MOL0     H64342   7.646   8.098   5.735  0.1937  1.4332  1.1382
  477MOL0     H64343   7.492   8.135   5.796  0.7581 -2.9109  2.7304
  477MOL0     H64344   7.584   7.903   5.880 -1.1849 -6.0347 -0.1425
  477MOL0     H64345   7.587   7.859   5.718  0.8622  0.4550  0.6729
  477MOL0     H64346   7.335   7.991   5.992  0.6564 -0.6396  1.0469
  477MOL0     H64347   7.054   7.870   6.024  4.4925  3.5183  1.0174
  477MOL0     H64348   7.072   7.681   6.017  1.6446 -1.4081  1.3935
  477MOL0     H64349   7.217   7.876   6.210 -1.2486 -0.1157  0.9093
  477MOL0     H64350   7.234   7.702   6.191 -1.3081 -1.1044  0.9571
  477MOL0     H64351   6.996   7.860   6.320  0.0125  1.0538  0.1980
  477MOL0     H64352   7.111   7.761   6.395 -0.5315  3.3726 -0.6414
  477MOL0     H64353   6.903   7.640   6.388  2.0840  0.2180  1.7058
  477MOL0     H64354   7.027   7.564   6.286 -1.0562 -0.6619  1.3460
  477MOL0     H64355   6.715   7.460   6.133 -0.9594 -1.5537 -0.7489
  477MOL0     H64356   6.368   7.393   6.195  0.0634 -1.1381  0.1464
  477MOL0     H64357   6.445   7.415   6.034  0.6315 -1.8325 -0.9174
  477MOL0     H64358   6.529   7.329   6.171 -3.5646 -2.9850 -1.9277
  477MOL0     H64359   6.124   7.722   6.050  1.9618  0.4522  1.6434
  477MOL0     H64360   5.877   7.777   6.016 -1.1868  3.0817 -0.1651
  477MOL0     H64361   5.637   7.964   6.353 -0.2884 -0.1434  0.2449
  477MOL0     H64362   5.712   8.099   6.274  1.2398 -0.4131  3.2575
  477MOL0     H64363   5.464   8.102   6.244  1.4935 -0.2988  1.9464
  477MOL0     H64364   5.537   8.085   6.085  1.4034  0.4420  0.3651
  477MOL0     H64365   5.431   7.845   6.230 -0.5465 -3.2506 -1.9935
  477MOL0     H64366   5.495   7.842   6.065  0.7364  2.9274 -2.2011
  477MOL0     H64367   5.270   8.027   6.165  1.6742  1.4979 -1.6335
  477MOL0     H64368   5.299   8.003   5.998 -1.5378  1.8672  1.3147
  477MOL0     H64369   5.248   7.771   6.184  4.5888  2.4677  0.2166
  477MOL0     H64370   5.253   7.764   6.004 -2.8327 -0.8033 -0.7549
  477MOL0     H64371   5.040   7.930   6.155  1.2500 -0.6684  1.8665
  477MOL0     H64372   5.054   7.910   5.978  1.8961  0.2020 -0.0189
  477MOL0     H64373   5.024   7.693   6.199  0.3800  1.4320  0.4493
  477MOL0     H64374   4.973   7.674   6.026  0.6176  1.1951  0.1035
  477MOL0     H64375   4.837   7.855   6.218  1.3558  1.8412 -1.1256
  477MOL0     H64376   4.792   7.687   6.143  0.8920  0.8340  3.1684
  477MOL0     H64377   5.892   8.009   6.382 -1.3601 -1.4013  0.7017
  477MOL0     H64378   6.126   7.923   6.414  0.2649  0.9795  0.1837
  477MOL0     H64379   6.493   7.872   6.315  0.6210  0.6374 -0.5841
  477MOL0     H64380   6.735   7.857   6.293  0.7048 -1.9099  2.5200
  477MOL0     H64381   7.737   7.832   5.120  2.6708 -0.3940 -0.0443
  477MOL0     H64382   7.948   7.751   5.006 -0.5354  0.7549  1.9969
  477MOL0     H64383   8.150   7.746   4.594  0.2717 -0.6889 -0.7546
  477MOL0     H64384   8.353   7.680   4.458  2.3470  0.8648 -0.1448
  477MOL0     H64385   8.753   7.816   4.624  0.9019 -0.3018 -0.0392
  477MOL0     H64386   8.705   7.647   4.668 -3.1057 -0.1838 -0.0576
  477MOL0     H64387   8.803   7.586   4.429  0.5888  0.9823 -0.4449
  477MOL0     H64388   8.919   7.645   4.549  0.8423 -3.3245 -2.8388
  477MOL0     H64389   8.932   7.863   4.452  1.7321  0.3806 -1.3535
  477MOL0     H64390   8.791   7.845   4.352  0.1222  1.7034  1.3265
  477MOL0     H64391   8.988   7.820   4.215 -3.4560  2.5696  2.1548
  477MOL0     H64392   8.901   7.670   4.206  1.5554 -0.2579 -1.7129
  477MOL0     H64393   9.297   7.623   4.364 -0.6493  0.0527  1.3890
  477MOL0     H64394   8.601   7.861   4.753 -1.1222 -0.3795  1.9219
  477MOL0     H64395   8.412   7.910   4.895  0.3419 -0.2875  0.1249
  478MOL0     O64396   5.377   7.167   5.815 -0.8283  0.0017 -0.1347
  478MOL0     C64397   5.421   7.051   5.812 -0.4144 -0.9201 -0.0498
  478MOL0     O64398   5.350   6.930   5.801 -0.2680 -0.5837 -0.0943
  478MOL0     C64399   5.217   6.904   5.782 -0.3032 -0.2921  0.5950
  478MOL0     C64400   5.176   6.768   5.806  0.5239 -0.5667 -0.2062
  478MOL0     C64401   5.049   6.729   5.776 -0.2978  0.8891  0.2685
  478MOL0     C64402   4.958   6.812   5.708  0.9607 -1.5752  0.1645
  478MOL0     O64403   4.828   6.781   5.672  0.3075  0.0756  0.3774
  478MOL0     C64404   4.763   6.689   5.759 -0.3046 -0.2367  0.0486
  478MOL0     C64405   4.618   6.736   5.764  0.0353 -0.1057 -0.1953
  478MOL0     C64406   4.541   6.713   5.634 -0.1635 -0.6763  0.2744
  478MOL0     C64407   4.475   6.574   5.640  0.4086 -0.1923  0.7444
  478MOL0     C64408   4.386   6.552   5.515  0.3818  0.6750  0.0411
  478MOL0     C64409   4.259   6.619   5.514  0.2408 -0.4114  0.6887
  478MOL0     C64410   4.165   6.565   5.404 -0.2091 -0.3825 -0.1108
  478MOL0     C64411   4.207   6.609   5.265 -0.1796 -0.0592  0.4941
  478MOL0     N64412   4.103   6.576   5.167 -0.4246  0.2140 -0.2514
  478MOL0     C64413   4.061   6.447   5.147 -0.6657  0.2146 -0.9672
  478MOL0     C64414   3.973   6.457   5.042 -0.1393  0.6450 -0.4619
  478MOL0     C64415   3.897   6.352   4.972  1.1177  0.4487  0.3549
  478MOL0     C64416   3.744   6.339   5.011 -0.1341  0.1641 -0.0171
  478MOL0     C64417   3.657   6.459   4.972 -0.0062 -0.3661  0.7790
  478MOL0     C64418   3.511   6.435   5.016  0.4552 -0.1783  0.0896
  478MOL0     O64419   3.507   6.435   5.156  0.1253  0.2086 -0.3967
  478MOL0     C64420   3.391   6.387   5.222  0.9077  1.1901  0.1125
  478MOL0     C64421   3.388   6.394   5.365 -0.2243 -0.3878  0.4799
  478MOL0     C64422   3.276   6.360   5.444  0.1586 -0.4609  0.7171
  478MOL0     C64423   3.289   6.384   5.594  0.0911  0.8235  0.0955
  478MOL0     C64424   3.156   6.305   5.382 -0.3450  0.3194 -0.3001
  478MOL0     C64425   3.031   6.255   5.454 -0.5871  0.4705 -0.6167
  478MOL0     O64426   2.912   6.255   5.372 -0.0022  0.7804  0.1585
  478MOL0     C64427   2.798   6.222   5.438  0.0877  0.5776  0.4822
  478MOL0     C64428   2.784   6.120   5.536  0.7014 -0.0426 -0.5134
  478MOL0     C64429   2.650   6.085   5.584 -0.9845  0.0706  0.1392
  478MOL0     C64430   2.541   6.158   5.541 -1.3852  0.0645  0.0577
  478MOL0     O64431   2.421   6.130   5.597  0.2702  0.1131 -0.4708
  478MOL0     C64432   2.339   6.242   5.642  0.9786 -0.6621 -0.1366
  478MOL0     C64433   2.211   6.184   5.702 -0.4121  0.7120 -0.3323
  478MOL0     C64434   2.112   6.148   5.592 -0.0699 -0.0507 -0.3938
  478MOL0     C64435   1.986   6.101   5.650 -0.1305  0.1915  0.5906
  478MOL0     C64436   1.868   6.079   5.543 -0.0614 -0.7566 -0.1815
  478MOL0     C64437   1.740   5.997   5.589  0.5736 -0.3912  0.7545
  478MOL0     C64438   1.626   6.088   5.631 -0.0275 -0.3728 -0.0230
  478MOL0     C64439   1.505   6.010   5.679 -0.7115  0.8388  0.1215
  478MOL0    Cl64440   1.421   6.087   5.814  0.4842 -0.2240 -0.3264
  478MOL0     C64441   2.556   6.255   5.447  0.1950 -1.0215 -1.2357
  478MOL0     C64442   2.681   6.285   5.397 -0.7229 -0.6527  0.3632
  478MOL0     O64443   3.041   6.214   5.573  0.2653  0.2897  0.4734
  478MOL0     C64444   3.164   6.289   5.242 -0.8558 -0.0553  0.3802
  478MOL0     C64445   3.273   6.335   5.165  0.7653 -0.5221 -0.0169
  478MOL0     N64446   3.968   6.589   5.002 -0.1062  0.8056 -0.7158
  478MOL0     N64447   4.041   6.665   5.079 -0.5150  0.0396 -0.5437
  478MOL0     C64448   4.989   6.948   5.678 -0.8741  0.0118  0.7698
  478MOL0     C64449   5.123   6.989   5.722  1.3279 -0.7113  0.2308
  478MOL0     C64450   5.573   7.047   5.815  0.1187 -1.0315  0.2319
  478MOL0     C64451   5.629   6.927   5.858 -0.0223  0.6761  1.1694
  478MOL0     C64452   5.769   6.908   5.852 -0.5388  1.2626 -0.3252
  478MOL0     C64453   5.857   7.004   5.809  0.0494  0.1840  0.0910
  478MOL0     O64454   5.989   6.979   5.829 -0.2393  0.4812  0.4359
  478MOL0     C64455   6.085   7.058   5.765  0.6603 -0.1452 -0.6794
  478MOL0     C64456   6.096   7.025   5.615 -0.2464  0.4213  0.6099
  478MOL0     C64457   6.194   7.128   5.549  1.2662 -0.5241 -0.9591
  478MOL0     C64458   6.203   7.095   5.398  0.1035  0.8544 -0.0985
  478MOL0     C64459   6.271   7.200   5.325 -0.6040  0.1229  0.0711
  478MOL0     C64460   6.331   7.277   5.242  0.7681  0.1226 -0.3621
  478MOL0     C64461   5.801   7.127   5.762  0.3683 -0.7300 -0.5565
  478MOL0     C64462   5.661   7.144   5.764 -0.1365  0.7952 -0.3689
  478MOL0     H64463   5.245   6.701   5.855 -1.8403  0.5168  5.4097
  478MOL0     H64464   5.022   6.628   5.805 -1.0882  0.5076 -1.6465
  478MOL0     H64465   4.767   6.584   5.728  0.6770  0.3234 -1.9009
  478MOL0     H64466   4.796   6.706   5.862 -3.2400  2.5852  0.7102
  478MOL0     H64467   4.562   6.694   5.848 -0.8337  1.6066  0.1189
  478MOL0     H64468   4.624   6.844   5.776  1.8591 -0.3322  1.4547
  478MOL0     H64469   4.461   6.788   5.634 -0.4485 -0.9717  1.2356
  478MOL0     H64470   4.598   6.730   5.542  1.1585 -1.2645  0.9563
  478MOL0     H64471   4.553   6.497   5.647 -2.1626 -3.2405 -1.1129
  478MOL0     H64472   4.415   6.575   5.731 -0.2542  4.3183  0.4857
  478MOL0     H64473   4.449   6.570   5.427 -0.9659 -0.1075 -1.1382
  478MOL0     H64474   4.358   6.447   5.522 -0.7883  0.9576 -0.1527
  478MOL0     H64475   4.215   6.590   5.609  1.8244 -1.3544  1.1745
  478MOL0     H64476   4.265   6.728   5.503 -0.6735 -0.4838 -0.8831
  478MOL0     H64477   4.159   6.456   5.410  0.5227 -0.3969  0.5351
  478MOL0     H64478   4.069   6.612   5.425  0.5752  0.4285  2.0082
  478MOL0     H64479   4.296   6.553   5.236  0.2139  0.4905  0.6273
  478MOL0     H64480   4.231   6.715   5.256  1.2946 -0.3475  0.7572
  478MOL0     H64481   4.086   6.351   5.191  1.7593  0.4046 -1.7354
  478MOL0     H64482   3.912   6.367   4.864  1.9961  1.3351  0.5839
  478MOL0     H64483   3.935   6.253   4.996 -1.3255 -0.1674  1.9546
  478MOL0     H64484   3.739   6.332   5.120  2.4328 -0.5233  0.1263
  478MOL0     H64485   3.706   6.246   4.968  0.5005  0.1652 -0.6067
  478MOL0     H64486   3.648   6.470   4.864 -0.4833  1.2731  0.9509
  478MOL0     H64487   3.686   6.559   5.007 -3.6734 -0.0174  3.3662
  478MOL0     H64488   3.477   6.336   4.981 -0.2067  0.1239 -0.1425
  478MOL0     H64489   3.445   6.510   4.972 -2.0865 -0.1300  3.5338
  478MOL0     H64490   3.467   6.442   5.421 -0.5796  2.5084 -1.2907
  478MOL0     H64491   3.281   6.283   5.636 -0.9913  0.9008  0.0948
  478MOL0     H64492   3.386   6.429   5.614  0.7666 -1.0145  1.2395
  478MOL0     H64493   3.211   6.453   5.625  0.1135 -0.5541  3.7363
  478MOL0     H64494   2.866   6.062   5.578  0.8164 -1.6606 -2.7523
  478MOL0     H64495   2.633   6.003   5.653 -2.0618  0.8333  0.8319
  478MOL0     H64496   2.406   6.296   5.708  2.0984 -2.4433  0.2703
  478MOL0     H64497   2.312   6.313   5.564 -2.7933  0.7370  2.1763
  478MOL0     H64498   2.243   6.094   5.755  1.6670  1.4706 -0.1856
  478MOL0     H64499   2.161   6.247   5.775 -0.0528 -0.8147  1.3122
  478MOL0     H64500   2.154   6.061   5.540 -0.7108 -1.4652  1.3597
  478MOL0     H64501   2.094   6.229   5.521 -1.4059  0.0071 -0.0096
  478MOL0     H64502   1.998   6.008   5.705 -0.9869  0.4947  1.3086
  478MOL0     H64503   1.948   6.176   5.719 -1.5828 -0.3549  0.4180
  478MOL0     H64504   1.912   6.029   5.456 -1.7158 -0.0727 -1.4719
  478MOL0     H64505   1.834   6.172   5.498 -3.4983 -0.6296  2.2871
  478MOL0     H64506   1.709   5.939   5.501  3.6332  0.6834 -1.2213
  478MOL0     H64507   1.761   5.918   5.661  2.4610 -3.0071 -2.3779
  478MOL0     H64508   1.600   6.158   5.551  1.2813 -2.6303 -2.5612
  478MOL0     H64509   1.657   6.131   5.727 -0.8491 -3.0028  1.5171
  478MOL0     H64510   1.544   5.910   5.705 -1.1879  0.6443  0.0904
  478MOL0     H64511   1.436   5.990   5.597  0.7312  1.2822 -1.2455
  478MOL0     H64512   2.481   6.330   5.428  0.1851 -0.3024  1.2572
  478MOL0     H64513   2.690   6.362   5.321  1.1332 -0.1990  0.9864
  478MOL0     H64514   3.077   6.241   5.199 -0.9851 -0.8863  1.5284
  478MOL0     H64515   3.274   6.330   5.057 -0.0307 -0.5868 -0.0270
  478MOL0     H64516   4.926   7.021   5.628 -1.0334 -0.9814 -0.5398
  478MOL0     H64517   5.156   7.091   5.705  0.6149 -0.5662 -0.3440
  478MOL0     H64518   5.572   6.838   5.883  0.2653  1.3154  4.6033
  478MOL0     H64519   5.811   6.824   5.907 -0.2742  1.3051 -0.4590
  478MOL0     H64520   6.052   7.162   5.770  0.0867 -0.3284  4.4140
  478MOL0     H64521   6.181   7.051   5.818  0.3165  1.9122  0.2852
  478MOL0     H64522   6.001   7.028   5.561 -0.8846 -0.7260  1.6202
  478MOL0     H64523   6.125   6.920   5.618 -5.2403 -1.1530  3.1041
  478MOL0     H64524   6.295   7.132   5.589  0.6205  2.0767  0.7009
  478MOL0     H64525   6.154   7.229   5.565  0.7316 -1.1119  1.8627
  478MOL0     H64526   6.109   7.068   5.349  0.5023 -1.3035  0.2550
  478MOL0     H64527   6.274   7.012   5.390  0.8923  1.3863  0.9722
  478MOL0     H64528   6.381   7.341   5.172  3.2078 -1.1013  0.1900
  478MOL0     H64529   5.860   7.210   5.725 -0.7251 -0.2482 -1.2797
  478MOL0     H64530   5.624   7.236   5.719 -2.8845 -0.6207 -1.2606
  479MOL0     O64531   0.859   5.190   2.133 -0.0938  0.5738  0.1775
  479MOL0     C64532   0.877   5.217   2.256 -0.4874 -0.2056  0.3169
  479MOL0     O64533   0.802   5.181   2.364  0.9375  0.0904  0.4426
  479MOL0     C64534   0.736   5.063   2.361  0.2277  0.3068 -0.4983
  479MOL0     C64535   0.614   5.058   2.427 -0.1252  0.5239 -0.3817
  479MOL0     C64536   0.533   4.942   2.420 -0.5406  0.1555 -0.4356
  479MOL0     C64537   0.573   4.834   2.341 -0.3481 -1.0194  0.3046
  479MOL0     O64538   0.493   4.727   2.323 -0.5884 -0.4655  0.6708
  479MOL0     C64539   0.359   4.712   2.371  0.3753  0.3314 -0.4934
  479MOL0     C64540   0.302   4.582   2.302 -0.4719  0.0839 -0.5304
  479MOL0     C64541   0.159   4.554   2.351  0.5836 -0.0926 -0.1864
  479MOL0     C64542   0.090   4.424   2.302 -0.4435  0.3956  0.8042
  479MOL0     C64543  -0.061   4.444   2.277 -0.2320 -0.0221  1.0278
  479MOL0     C64544  -0.134   4.453   2.416 -0.2070  0.6848 -0.0111
  479MOL0     C64545  -0.284   4.474   2.401 -0.0063  0.3711 -0.1614
  479MOL0     C64546  -0.359   4.492   2.532 -0.4757 -0.8567 -0.1809
  479MOL0     N64547  -0.365   4.385   2.628  0.3499  0.3879  0.1750
  479MOL0     C64548  -0.457   4.289   2.627  0.9456  0.7571 -1.2141
  479MOL0     C64549  -0.411   4.196   2.716  0.5474  0.0176  0.3605
  479MOL0     C64550  -0.470   4.056   2.753  0.3320 -0.7916  0.9249
  479MOL0     C64551  -0.617   4.034   2.750  0.4131 -0.0536 -0.0811
  479MOL0     C64552  -0.677   3.932   2.850  0.2138 -1.1831 -0.4825
  479MOL0     C64553  -0.822   3.901   2.827 -0.1306 -0.0582  0.5071
  479MOL0     O64554  -0.860   3.840   2.950 -0.7591 -0.3024  0.6558
  479MOL0     C64555  -0.982   3.786   2.939 -0.0448 -0.0154  0.2174
  479MOL0     C64556  -1.002   3.667   2.872  0.5372 -0.1608 -0.3170
  479MOL0     C64557  -1.126   3.601   2.870  0.3197 -0.6508  0.5854
  479MOL0     C64558  -1.148   3.487   2.766 -0.4792  0.6599  0.1207
  479MOL0     C64559  -1.238   3.667   2.936  0.3490  0.1243  0.0493
  479MOL0     C64560  -1.375   3.602   2.939 -0.6730 -0.4847 -0.7734
  479MOL0     O64561  -1.478   3.688   2.968 -0.1122  0.5358  0.5862
  479MOL0     C64562  -1.601   3.636   3.003  0.7943  0.5349 -0.8260
  479MOL0     C64563  -1.658   3.691   3.125  0.6222  0.1950  0.8087
  479MOL0     C64564  -1.791   3.673   3.158  0.1352  0.2016 -1.9403
  479MOL0     C64565  -1.873   3.591   3.080 -0.0769  0.7022  0.1388
  479MOL0     O64566  -2.004   3.561   3.099 -0.5598  0.1098  0.0829
  479MOL0     C64567  -2.078   3.629   3.205 -0.5945 -0.2708  0.0524
  479MOL0     C64568  -2.216   3.582   3.227  0.5629  0.1841 -0.0174
  479MOL0     C64569  -2.313   3.673   3.145 -0.1768 -0.3598  0.0417
  479MOL0     C64570  -2.453   3.613   3.163 -0.1832 -0.6701 -0.3495
  479MOL0     C64571  -2.565   3.682   3.077  0.6086  0.0105 -0.0403
  479MOL0     C64572  -2.701   3.625   3.101 -0.1350  0.6521  0.0551
  479MOL0     C64573  -2.804   3.656   2.988 -0.1134 -0.6761  0.7571
  479MOL0     C64574  -2.940   3.700   3.036 -1.2372 -0.5042 -0.7749
  479MOL0    Cl64575  -2.917   3.866   3.106  0.1629  0.1863  0.5151
  479MOL0     C64576  -1.813   3.529   2.967 -0.0940  0.1107 -0.0585
  479MOL0     C64577  -1.678   3.555   2.922 -0.4039  0.1426 -0.6281
  479MOL0     O64578  -1.380   3.483   2.939 -0.0167 -0.2830 -0.1564
  479MOL0     C64579  -1.219   3.779   3.007 -0.1487 -1.4192  0.1138
  479MOL0     C64580  -1.091   3.833   3.008  0.3821 -0.0700 -0.1080
  479MOL0     N64581  -0.299   4.251   2.775  0.0562  0.3118 -0.3940
  479MOL0     N64582  -0.261   4.356   2.714 -0.1438 -1.0753 -0.4871
  479MOL0     C64583   0.703   4.838   2.282  0.0260  0.0571 -0.0993
  479MOL0     C64584   0.779   4.949   2.292 -0.1616  0.6466 -0.3142
  479MOL0     C64585   0.985   5.303   2.287  0.5931 -0.3207  0.1482
  479MOL0     C64586   1.049   5.378   2.186  0.1619 -0.8283  0.4201
  479MOL0     C64587   1.138   5.478   2.219 -0.2754  0.5481  0.4136
  479MOL0     C64588   1.162   5.515   2.355  0.2596  0.5045 -0.1862
  479MOL0     O64589   1.252   5.614   2.394 -0.7691  0.5141 -0.2715
  479MOL0     C64590   1.314   5.689   2.288 -0.4027  0.2025  0.3778
  479MOL0     C64591   1.415   5.797   2.335  0.0657 -0.4282 -0.0889
  479MOL0     C64592   1.549   5.741   2.388  0.7232 -0.2816  0.0694
  479MOL0     C64593   1.647   5.853   2.419 -0.2858  0.7652  0.5760
  479MOL0     C64594   1.591   5.961   2.505  0.3402 -0.0901 -0.0073
  479MOL0     C64595   1.553   6.044   2.584  0.5481 -0.4334  0.0270
  479MOL0     C64596   1.101   5.441   2.454 -0.1011  0.0342 -0.2398
  479MOL0     C64597   1.016   5.338   2.418 -0.3442  0.2604  0.3649
  479MOL0     H64598   0.578   5.144   2.482 -2.4763 -0.8060  0.2848
  479MOL0     H64599   0.447   4.950   2.486  0.2896  2.3816  0.4656
  479MOL0     H64600   0.373   4.692   2.478 -0.1668 -1.5589 -0.7407
  479MOL0     H64601   0.281   4.787   2.360 -0.2176  0.1510  1.8770
  479MOL0     H64602   0.300   4.604   2.195 -2.3786  0.7685 -0.3939
  479MOL0     H64603   0.361   4.491   2.317  0.3019  0.7126  0.4120
  479MOL0     H64604   0.163   4.550   2.460 -0.8893 -0.1705 -0.1136
  479MOL0     H64605   0.095   4.633   2.309  0.6211  0.6935  1.1864
  479MOL0     H64606   0.131   4.407   2.202 -1.6025  1.0560  0.1801
  479MOL0     H64607   0.116   4.336   2.361  1.4172  0.4665  0.1486
  479MOL0     H64608  -0.086   4.532   2.217  0.5645 -2.0041 -2.5071
  479MOL0     H64609  -0.104   4.358   2.225  2.7826 -0.9660 -0.1319
  479MOL0     H64610  -0.125   4.352   2.456 -0.6682  0.3909 -0.6319
  479MOL0     H64611  -0.089   4.531   2.478 -0.1957  1.2203 -0.6734
  479MOL0     H64612  -0.306   4.563   2.342 -1.2409  2.3698  3.0070
  479MOL0     H64613  -0.327   4.389   2.347 -0.4465  1.8453 -2.2362
  479MOL0     H64614  -0.457   4.532   2.505 -0.6136 -1.3378 -0.4013
  479MOL0     H64615  -0.308   4.569   2.590  2.5390 -3.5120  1.0209
  479MOL0     H64616  -0.550   4.274   2.573 -0.1410  1.7444  0.3169
  479MOL0     H64617  -0.424   3.986   2.682  2.9084 -0.0051  1.7044
  479MOL0     H64618  -0.439   4.036   2.856 -0.6766 -2.4778  0.9543
  479MOL0     H64619  -0.626   3.984   2.654  1.8472 -0.0532 -0.2371
  479MOL0     H64620  -0.664   4.133   2.748 -1.8517 -0.9915  1.7349
  479MOL0     H64621  -0.681   3.984   2.946 -5.1423  0.3170 -1.2262
  479MOL0     H64622  -0.613   3.844   2.860 -1.4050 -2.3478 -0.2236
  479MOL0     H64623  -0.843   3.846   2.735  1.6701  0.0340  0.0008
  479MOL0     H64624  -0.881   3.993   2.823 -0.7792 -0.5123 -1.4141
  479MOL0     H64625  -0.923   3.622   2.812  1.7284 -0.7323  1.5988
  479MOL0     H64626  -1.246   3.506   2.721  0.0879  1.9708 -0.6008
  479MOL0     H64627  -1.075   3.499   2.686 -2.4848 -1.3401 -2.1796
  479MOL0     H64628  -1.143   3.384   2.804 -1.7843 -0.1398 -1.7166
  479MOL0     H64629  -1.593   3.751   3.187  1.2770  0.5471 -0.1859
  479MOL0     H64630  -1.849   3.715   3.240 -0.7824 -0.5220 -2.1994
  479MOL0     H64631  -2.028   3.626   3.303  0.4375 -1.1315 -0.4802
  479MOL0     H64632  -2.085   3.731   3.166 -3.5668 -1.1465 -2.0683
  479MOL0     H64633  -2.221   3.479   3.189  0.4256  0.0684  0.3098
  479MOL0     H64634  -2.235   3.586   3.335 -1.3658  2.6927 -0.3602
  479MOL0     H64635  -2.293   3.677   3.038 -1.6473 -1.0040 -0.2817
  479MOL0     H64636  -2.314   3.774   3.186  0.4200  0.3471 -1.6082
  479MOL0     H64637  -2.453   3.506   3.142 -2.4702 -0.8257  0.1125
  479MOL0     H64638  -2.486   3.621   3.267 -1.2105  0.3331 -0.7258
  479MOL0     H64639  -2.539   3.666   2.972 -2.3067 -0.4703 -0.7871
  479MOL0     H64640  -2.562   3.790   3.093 -0.6943 -0.2984  2.9533
  479MOL0     H64641  -2.692   3.517   3.113 -0.8356  0.8183  2.5669
  479MOL0     H64642  -2.735   3.665   3.197  2.9579 -0.4163  1.7463
  479MOL0     H64643  -2.819   3.566   2.926  1.1094  0.6023 -1.5358
  479MOL0     H64644  -2.769   3.736   2.922 -1.4252  2.0462  3.1480
  479MOL0     H64645  -2.980   3.622   3.101 -0.9130 -1.3170 -1.5285
  479MOL0     H64646  -3.007   3.715   2.951 -0.7214  1.0160 -0.9557
  479MOL0     H64647  -1.884   3.477   2.904  0.9825 -0.3044 -0.9523
  479MOL0     H64648  -1.640   3.508   2.832  2.7862  0.5324  0.3923
  479MOL0     H64649  -1.290   3.829   3.072  2.5222  2.2054  0.5564
  479MOL0     H64650  -1.074   3.922   3.067  0.5638  0.9155 -1.5923
  479MOL0     H64651   0.735   4.748   2.232  0.7885  0.5238 -0.4727
  479MOL0     H64652   0.875   4.953   2.242  1.0150 -2.9941  1.3200
  479MOL0     H64653   1.035   5.347   2.083  1.6327 -1.8804  0.5050
  479MOL0     H64654   1.192   5.517   2.132 -2.5876 -0.2086 -1.4581
  479MOL0     H64655   1.361   5.621   2.217  1.9050  0.2644  1.7467
  479MOL0     H64656   1.227   5.746   2.254 -2.1497 -0.8143  2.8895
  479MOL0     H64657   1.360   5.854   2.410 -2.1140 -1.8455 -0.5306
  479MOL0     H64658   1.422   5.860   2.245  0.4932  1.1108  0.9685
  479MOL0     H64659   1.587   5.665   2.319  1.2374 -0.6044  0.7070
  479MOL0     H64660   1.522   5.694   2.483  0.0267  0.9608  0.5053
  479MOL0     H64661   1.677   5.906   2.328  0.0218  1.0286  0.8279
  479MOL0     H64662   1.737   5.803   2.457 -1.6199 -2.1626  0.1570
  479MOL0     H64663   1.509   6.122   2.642  1.0799 -0.1990  0.1162
  479MOL0     H64664   1.139   5.469   2.551 -1.1732  1.8100 -0.3022
  479MOL0     H64665   0.959   5.294   2.500 -2.9265  0.1274 -1.3904
  480MOL0     O64666   6.912   3.281  10.320  0.5387 -0.7915 -0.3576
  480MOL0     C64667   6.907   3.384  10.389  0.7193  0.2328 -0.0132
  480MOL0     O64668   6.795   3.458  10.411 -0.2421  0.5863 -0.0266
  480MOL0     C64669   6.665   3.414  10.388  0.2877  0.1527 -0.0317
  480MOL0     C64670   6.619   3.293  10.342  0.4713  0.4909 -0.8300
  480MOL0     C64671   6.481   3.276  10.322 -0.2453  0.2054  0.1122
  480MOL0     C64672   6.383   3.376  10.349 -0.3327  0.0480  0.2956
  480MOL0     O64673   6.245   3.349  10.325  0.5337 -0.4013  0.1299
  480MOL0     C64674   6.146   3.424  10.393  0.1621  0.2231  1.0622
  480MOL0     C64675   6.018   3.328  10.382 -0.2081 -0.4534 -0.2674
  480MOL0     C64676   5.895   3.416  10.372 -0.0104  0.1210  0.3434
  480MOL0     C64677   5.766   3.322  10.360 -0.1858 -0.0908  0.3346
  480MOL0     C64678   5.627   3.393  10.335  0.0820 -0.2406 -1.4867
  480MOL0     C64679   5.594   3.480  10.467  0.5712  0.6115  0.0363
  480MOL0     C64680   5.438   3.514  10.465 -0.5355  0.1518  0.5741
  480MOL0     C64681   5.350   3.396  10.504 -0.5074 -0.3957  0.2187
  480MOL0     N64682   5.212   3.441  10.493  0.1065  0.2636  0.3508
  480MOL0     C64683   5.138   3.449  10.381  0.2524 -0.8798 -1.0485
  480MOL0     C64684   5.010   3.464  10.435 -0.5422 -0.0570  0.0858
  480MOL0     C64685   4.889   3.485  10.353  0.1692  0.6461  0.2846
  480MOL0     C64686   4.792   3.364  10.341  0.2338 -0.4248 -0.3524
  480MOL0     C64687   4.765   3.292  10.474  0.1315 -0.4516 -0.4083
  480MOL0     C64688   4.688   3.370  10.580 -0.0306  0.0146  0.3231
  480MOL0     O64689   4.551   3.369  10.553  0.7875  0.5549 -0.0965
  480MOL0     C64690   4.494   3.483  10.505 -0.5711  0.0019 -0.3197
  480MOL0     C64691   4.536   3.612  10.548 -0.2203  0.2503  0.2193
  480MOL0     C64692   4.483   3.724  10.489  0.1764 -0.0228  0.2807
  480MOL0     C64693   4.547   3.857  10.520  0.4295  0.6556  0.6609
  480MOL0     C64694   4.377   3.706  10.393 -0.2100 -0.3313  0.4362
  480MOL0     C64695   4.312   3.817  10.312 -0.5463 -0.0363 -0.3298
  480MOL0     O64696   4.233   3.785  10.209  0.4714  0.0147 -0.3235
  480MOL0     C64697   4.205   3.888  10.120  0.1261 -0.1448  0.4121
  480MOL0     C64698   4.080   3.960  10.114 -0.6412  1.1363 -0.1269
  480MOL0     C64699   4.062   4.062  10.016  0.4344 -0.0250  1.2134
  480MOL0     C64700   4.166   4.094   9.928  0.3532  0.1002  0.7722
  480MOL0     O64701   4.166   4.211   9.851  0.2119  0.0612 -0.2873
  480MOL0     C64702   4.084   4.324   9.878 -0.1917 -0.4982  0.0007
  480MOL0     C64703   4.142   4.457   9.820 -0.9157  0.1803 -0.7381
  480MOL0     C64704   4.276   4.494   9.893 -0.4457 -0.2670  1.1312
  480MOL0     C64705   4.274   4.512  10.047 -0.3390 -0.5892  0.0793
  480MOL0     C64706   4.408   4.559  10.099  0.0908 -0.6161 -0.7845
  480MOL0     C64707   4.456   4.698  10.035  0.0859  0.7358 -0.4424
  480MOL0     C64708   4.595   4.732  10.091  0.3873 -0.3263  0.1568
  480MOL0     C64709   4.622   4.873  10.093  0.1036  0.1030 -0.5379
  480MOL0    Cl64710   4.797   4.880  10.132 -0.0679  0.4909  0.3895
  480MOL0     C64711   4.281   4.019   9.918  0.3762  0.1528 -0.1579
  480MOL0     C64712   4.301   3.911  10.014  0.4604 -0.7585  0.6445
  480MOL0     O64713   4.342   3.933  10.341 -0.3516  0.0048 -0.1022
  480MOL0     C64714   4.324   3.578  10.380  0.0967 -0.8246  0.2290
  480MOL0     C64715   4.385   3.471  10.420  0.3341  0.5208  0.4373
  480MOL0     N64716   5.018   3.478  10.572  0.8540 -0.3991  1.4782
  480MOL0     N64717   5.147   3.475  10.606  0.6805 -0.2632 -0.4333
  480MOL0     C64718   6.436   3.498  10.400 -0.8289 -0.8013  0.2681
  480MOL0     C64719   6.574   3.520  10.409 -0.2065 -0.9872  0.7804
  480MOL0     C64720   7.036   3.453  10.416 -0.4264  0.0464  0.2946
  480MOL0     C64721   7.038   3.584  10.467  1.5396 -0.2111 -0.6514
  480MOL0     C64722   7.155   3.647  10.490  0.1906 -0.3505  0.5577
  480MOL0     C64723   7.272   3.587  10.466 -0.0399  0.3637 -0.5592
  480MOL0     O64724   7.381   3.669  10.492  0.0790 -0.0349  0.3166
  480MOL0     C64725   7.510   3.611  10.513 -0.3145 -0.3222 -0.0996
  480MOL0     C64726   7.612   3.723  10.525 -0.1180  0.9442 -0.0456
  480MOL0     C64727   7.737   3.663  10.584 -0.2367  0.3705 -0.0817
  480MOL0     C64728   7.866   3.741  10.579 -0.4616  0.1499 -0.3834
  480MOL0     C64729   7.876   3.875  10.630  0.0382 -0.7017  0.5835
  480MOL0     C64730   7.894   3.984  10.684 -0.7373  0.3766 -0.0590
  480MOL0     C64731   7.272   3.452  10.426 -0.1772 -0.8090  0.7681
  480MOL0     C64732   7.157   3.388  10.405  1.0386  0.3325 -0.8561
  480MOL0     H64733   6.681   3.204  10.331 -0.5597 -1.1879  4.2111
  480MOL0     H64734   6.443   3.177  10.296 -2.0525  0.8833  0.0603
  480MOL0     H64735   6.171   3.455  10.495 -0.2680  2.1856  0.6054
  480MOL0     H64736   6.133   3.518  10.339 -1.2916 -0.3138  0.4407
  480MOL0     H64737   6.012   3.265  10.293  0.4034  0.4050 -0.9381
  480MOL0     H64738   6.031   3.263  10.469  1.1955 -0.5566 -0.5373
  480MOL0     H64739   5.898   3.485  10.457  1.3541  1.3649 -0.6501
  480MOL0     H64740   5.891   3.475  10.280 -0.5776  1.1251  0.9836
  480MOL0     H64741   5.781   3.245  10.283 -1.9695 -1.7537  1.5845
  480MOL0     H64742   5.759   3.270  10.456 -1.2004  1.3643  1.0880
  480MOL0     H64743   5.635   3.457  10.246  0.5711 -0.7106 -1.7801
  480MOL0     H64744   5.549   3.318  10.321 -0.9723  0.5208 -0.0408
  480MOL0     H64745   5.613   3.430  10.563  0.4427  3.1838  1.4931
  480MOL0     H64746   5.650   3.574  10.470 -1.2023  1.7614 -0.9207
  480MOL0     H64747   5.416   3.598  10.531 -0.1172 -1.2586  2.6108
  480MOL0     H64748   5.416   3.547  10.363  1.7408 -0.9049 -0.3179
  480MOL0     H64749   5.370   3.362  10.606  0.9657 -2.8494 -0.8085
  480MOL0     H64750   5.368   3.314  10.434  2.3244 -0.3955  0.8146
  480MOL0     H64751   5.178   3.439  10.281  0.0871 -4.2086 -0.9072
  480MOL0     H64752   4.827   3.565  10.395 -1.4058 -0.3215 -0.1214
  480MOL0     H64753   4.915   3.533  10.258  0.9991  3.6555  1.8809
  480MOL0     H64754   4.843   3.302  10.267  0.5278  0.2958 -0.7652
  480MOL0     H64755   4.693   3.390  10.302  0.5444  0.2052 -0.7516
  480MOL0     H64756   4.864   3.273  10.517  0.9859  1.5818 -1.3704
  480MOL0     H64757   4.715   3.197  10.451 -1.3822  0.7157 -2.2043
  480MOL0     H64758   4.736   3.465  10.604  1.5713 -1.0104  1.4089
  480MOL0     H64759   4.707   3.306  10.666 -1.1464 -2.0121 -0.8487
  480MOL0     H64760   4.603   3.628  10.631 -0.6189 -0.3904  0.6766
  480MOL0     H64761   4.472   3.918  10.572  0.0092 -0.1408  1.0136
  480MOL0     H64762   4.638   3.857  10.581  1.4194  0.6520 -0.7858
  480MOL0     H64763   4.564   3.907  10.424 -0.9192  0.6898  0.4231
  480MOL0     H64764   4.008   3.926  10.187 -0.8326 -0.5216 -1.0306
  480MOL0     H64765   3.976   4.127  10.026  1.7535  1.9333  0.4435
  480MOL0     H64766   3.989   4.308   9.825  0.7630 -0.5893 -1.7512
  480MOL0     H64767   4.065   4.344   9.984 -1.4963  1.4229 -0.5240
  480MOL0     H64768   4.172   4.447   9.715  1.9673  1.5643 -0.1503
  480MOL0     H64769   4.066   4.535   9.830  0.8877  2.0246 -0.6658
  480MOL0     H64770   4.308   4.586   9.843  2.2210 -1.4154  0.5634
  480MOL0     H64771   4.346   4.412   9.874 -1.4500 -1.5653  2.8361
  480MOL0     H64772   4.189   4.576  10.074  0.9183  0.6152  1.3608
  480MOL0     H64773   4.254   4.417  10.097  1.3804 -0.5695  0.8845
  480MOL0     H64774   4.480   4.478  10.083  0.3347 -0.9101  1.4242
  480MOL0     H64775   4.400   4.570  10.208  0.8548 -1.6592 -0.6027
  480MOL0     H64776   4.463   4.699   9.926  1.4548 -2.6503 -0.5047
  480MOL0     H64777   4.379   4.770  10.063 -1.8712 -1.7620  1.0026
  480MOL0     H64778   4.672   4.669  10.046  1.7070  1.7854 -0.6934
  480MOL0     H64779   4.606   4.697  10.193 -1.0044  0.3159  0.5638
  480MOL0     H64780   4.559   4.928  10.165  1.4269  1.5848 -0.4553
  480MOL0     H64781   4.609   4.916   9.993  0.9906 -0.5182 -0.9270
  480MOL0     H64782   4.352   4.046   9.840  0.6463  2.4929  0.8096
  480MOL0     H64783   4.393   3.855  10.023  0.4730 -0.8270  0.1082
  480MOL0     H64784   4.235   3.559  10.321  0.5049 -1.5945 -0.1493
  480MOL0     H64785   4.349   3.376  10.382  0.4151  1.9552 -3.7490
  480MOL0     H64786   6.369   3.579  10.427 -0.0770  0.4526 -1.4872
  480MOL0     H64787   6.616   3.616  10.437  0.5719 -1.4981  1.4426
  480MOL0     H64788   6.948   3.636  10.499  1.8633  0.9476 -1.5670
  480MOL0     H64789   7.149   3.751  10.522 -1.4418 -0.3111  0.1826
  480MOL0     H64790   7.503   3.544  10.599  0.7302 -2.2454 -1.4611
  480MOL0     H64791   7.528   3.549  10.425 -3.1940 -1.3411 -0.0720
  480MOL0     H64792   7.584   3.805  10.593 -0.2725  1.0417 -0.2248
  480MOL0     H64793   7.625   3.759  10.423 -0.4194 -0.0393 -0.4400
  480MOL0     H64794   7.756   3.573  10.525 -0.4252  0.4322 -0.2387
  480MOL0     H64795   7.711   3.645  10.689 -1.5978  3.4341  0.2176
  480MOL0     H64796   7.896   3.726  10.475 -3.0495 -2.4563 -0.8885
  480MOL0     H64797   7.944   3.689  10.636  0.0400  2.0453  0.7301
  480MOL0     H64798   7.913   4.075  10.737  1.7198  0.4508 -0.9629
  480MOL0     H64799   7.364   3.398  10.403  0.1427  0.8558 -2.5136
  480MOL0     H64800   7.160   3.282  10.381  0.9367 -0.3832  1.8715
  481MOL0     O64801   4.906   9.122   2.623 -0.3276  0.8135  0.4319
  481MOL0     C64802   4.995   9.148   2.541 -0.1434 -0.4223 -0.5960
  481MOL0     O64803   4.997   9.118   2.406 -0.1569  0.5200 -0.2549
  481MOL0     C64804   4.897   9.075   2.322 -0.1899 -0.2815  1.2376
  481MOL0     C64805   4.759   9.053   2.357  0.3724  0.3881 -0.0096
  481MOL0     C64806   4.668   9.015   2.263  0.0353  0.5093  0.1073
  481MOL0     C64807   4.705   9.009   2.127  0.1454  0.0398 -0.0885
  481MOL0     O64808   4.612   8.964   2.035 -0.4122 -0.5647 -0.5552
  481MOL0     C64809   4.639   8.924   1.903  0.1008 -0.0946  0.6778
  481MOL0     C64810   4.521   8.859   1.832  1.0991  0.0529 -0.6336
  481MOL0     C64811   4.390   8.943   1.821  0.7014 -0.9343  0.9645
  481MOL0     C64812   4.420   9.050   1.715 -0.4979 -0.6476  0.4846
  481MOL0     C64813   4.359   9.179   1.763 -0.1768  0.2086  0.5017
  481MOL0     C64814   4.361   9.277   1.641  0.4109  0.4734 -0.7013
  481MOL0     C64815   4.495   9.339   1.609 -0.8958  0.1338 -0.4566
  481MOL0     C64816   4.522   9.458   1.697  0.1695 -0.2394  0.3742
  481MOL0     N64817   4.434   9.569   1.661  0.1466 -0.6615  1.5300
  481MOL0     C64818   4.349   9.623   1.750  0.5043 -0.1543  0.1112
  481MOL0     C64819   4.263   9.701   1.685 -1.4579 -0.8023  0.4143
  481MOL0     C64820   4.144   9.753   1.751  1.2190  0.1254 -0.0525
  481MOL0     C64821   4.143   9.786   1.900  0.1716 -0.8882 -0.0534
  481MOL0     C64822   4.088   9.659   1.977  0.5699 -0.0119  0.7968
  481MOL0     C64823   3.934   9.638   1.994 -0.0168  0.6437 -0.0283
  481MOL0     O64824   3.873   9.595   1.870  0.3447 -0.1082  0.1111
  481MOL0     C64825   3.733   9.601   1.865  0.2135  0.2999  0.9048
  481MOL0     C64826   3.649   9.654   1.967  0.9169 -0.3743 -0.3593
  481MOL0     C64827   3.510   9.672   1.949 -0.2670  0.0529 -0.0983
  481MOL0     C64828   3.448   9.750   2.060  0.2216 -0.4589 -0.3579
  481MOL0     C64829   3.454   9.612   1.835  0.3743  0.3001  0.0103
  481MOL0     C64830   3.307   9.589   1.818 -1.0198 -0.2833  0.0731
  481MOL0     O64831   3.238   9.571   1.934 -0.9455 -0.1357  0.7304
  481MOL0     C64832   3.097   9.564   1.944 -0.2580  0.1468  0.7019
  481MOL0     C64833   3.046   9.673   2.013  0.0984 -0.3818  0.3922
  481MOL0     C64834   2.909   9.692   2.021  0.4040 -0.6120 -0.3814
  481MOL0     C64835   2.824   9.588   1.966  0.4702 -0.0716 -0.1886
  481MOL0     O64836   2.692   9.593   1.981 -0.6537 -0.1685 -0.7350
  481MOL0     C64837   2.625   9.717   1.953 -0.7115 -1.0117  0.7532
  481MOL0     C64838   2.482   9.662   1.946 -0.2265 -0.5884  0.3650
  481MOL0     C64839   2.397   9.784   1.946  0.3022 -0.7434  0.0943
  481MOL0     C64840   2.249   9.734   1.935 -0.0150 -0.3364  0.4627
  481MOL0     C64841   2.155   9.859   1.926 -0.0280  0.0268 -0.0311
  481MOL0     C64842   2.139   9.917   2.061 -0.0564  0.0065  0.1318
  481MOL0     C64843   2.068   9.822   2.166 -0.3319 -0.2125 -0.2220
  481MOL0     C64844   2.048   9.891   2.291  0.1925 -0.3034 -0.1523
  481MOL0    Cl64845   1.931   9.799   2.395 -0.2393 -0.3751  0.3952
  481MOL0     C64846   2.874   9.485   1.902 -0.7163  0.1044  0.1120
  481MOL0     C64847   3.014   9.473   1.890  0.3684 -0.0456 -0.3121
  481MOL0     O64848   3.256   9.590   1.703 -0.8781  0.5214 -0.0448
  481MOL0     C64849   3.541   9.556   1.739  0.1515  0.3834  0.2295
  481MOL0     C64850   3.678   9.553   1.753  0.1380  0.4000  0.1641
  481MOL0     N64851   4.300   9.700   1.553  0.6068  0.2176  0.8222
  481MOL0     N64852   4.400   9.619   1.533 -0.4869  0.9942  0.6788
  481MOL0     C64853   4.839   9.035   2.088  0.6398  0.2502  0.6029
  481MOL0     C64854   4.939   9.069   2.183 -0.0618 -0.3878 -1.5092
  481MOL0     C64855   5.116   9.188   2.600 -0.0916 -0.8131  0.5822
  481MOL0     C64856   5.122   9.218   2.741  0.2214  0.4272  0.3889
  481MOL0     C64857   5.234   9.276   2.801 -1.3973 -1.0867 -1.0716
  481MOL0     C64858   5.347   9.297   2.720  1.1720 -0.5449  0.4420
  481MOL0     O64859   5.462   9.359   2.766  0.1286 -0.0583  0.2694
  481MOL0     C64860   5.488   9.366   2.915  0.0176  0.3340 -0.1317
  481MOL0     C64861   5.644   9.370   2.934  0.4104 -0.1288 -0.1302
  481MOL0     C64862   5.711   9.233   2.934  0.3517  0.1792  0.0497
  481MOL0     C64863   5.859   9.235   2.957  0.8175  0.2075  0.6712
  481MOL0     C64864   5.907   9.278   3.087 -0.0330  0.6792 -0.1979
  481MOL0     C64865   5.947   9.312   3.194 -0.2649  0.1423  0.6426
  481MOL0     C64866   5.352   9.256   2.587  0.7424  0.0230 -1.3319
  481MOL0     C64867   5.236   9.203   2.528 -0.3807  0.3507 -0.3901
  481MOL0     H64868   4.734   9.054   2.463  0.5383 -0.3146  0.0413
  481MOL0     H64869   4.566   8.996   2.297 -0.1253 -1.1572 -1.1628
  481MOL0     H64870   4.666   9.014   1.847 -0.3002  2.1295  3.7951
  481MOL0     H64871   4.723   8.856   1.888  1.6031  2.1230 -1.7728
  481MOL0     H64872   4.548   8.833   1.729  0.3075  1.5669 -1.2534
  481MOL0     H64873   4.490   8.764   1.876  1.6442 -0.1043 -0.5711
  481MOL0     H64874   4.312   8.875   1.787  0.1047  0.4875 -0.6794
  481MOL0     H64875   4.348   8.992   1.910  0.0435 -0.1401  0.2403
  481MOL0     H64876   4.524   9.076   1.694 -0.6067  0.2639  0.9997
  481MOL0     H64877   4.374   9.024   1.620 -2.8923  1.9992  0.7949
  481MOL0     H64878   4.255   9.163   1.794 -0.9899  4.1690  0.3060
  481MOL0     H64879   4.423   9.221   1.841 -2.7443  2.9162  1.3482
  481MOL0     H64880   4.327   9.215   1.557 -0.1019 -0.0285 -0.1377
  481MOL0     H64881   4.273   9.341   1.652 -1.4985 -1.9933 -0.5824
  481MOL0     H64882   4.580   9.271   1.614  0.0687  1.1980 -1.7908
  481MOL0     H64883   4.482   9.372   1.506  1.1815  0.2093 -0.7410
  481MOL0     H64884   4.620   9.503   1.678  0.0946  1.4655  3.4276
  481MOL0     H64885   4.513   9.440   1.804  1.4182  4.6480  1.5525
  481MOL0     H64886   4.367   9.612   1.856  1.2097 -1.1952 -0.0980
  481MOL0     H64887   4.124   9.844   1.695  1.7446  0.8000  0.8293
  481MOL0     H64888   4.062   9.683   1.731  1.1017  0.4933 -0.9001
  481MOL0     H64889   4.078   9.871   1.922  1.1205 -0.1467 -0.0384
  481MOL0     H64890   4.242   9.818   1.935 -1.1199  0.1150  2.9871
  481MOL0     H64891   4.136   9.656   2.075 -1.1452 -0.3369  1.6711
  481MOL0     H64892   4.121   9.570   1.923 -1.1676 -1.5136  2.1053
  481MOL0     H64893   3.893   9.729   2.037 -0.2151 -0.1717  1.5893
  481MOL0     H64894   3.920   9.557   2.066  1.0781  3.0552  3.1223
  481MOL0     H64895   3.702   9.688   2.055 -0.1988 -0.6755  0.4575
  481MOL0     H64896   3.348   9.778   2.025  0.7966  0.5521 -1.2680
  481MOL0     H64897   3.438   9.678   2.141  3.7700 -1.0960 -0.3461
  481MOL0     H64898   3.505   9.838   2.090  0.0355 -1.0738  1.9921
  481MOL0     H64899   3.105   9.754   2.053 -1.0281  0.3519  0.5996
  481MOL0     H64900   2.879   9.790   2.057  2.3702 -1.0571  2.9093
  481MOL0     H64901   2.638   9.788   2.035  0.5306 -0.3420  0.0148
  481MOL0     H64902   2.661   9.756   1.857 -0.7205 -2.3938  0.1636
  481MOL0     H64903   2.471   9.595   1.861  0.7765  0.1545 -0.3694
  481MOL0     H64904   2.465   9.601   2.035  2.3342 -2.4264 -0.3033
  481MOL0     H64905   2.422   9.843   1.857 -0.3804  0.1605  0.4749
  481MOL0     H64906   2.411   9.846   2.035 -0.2288 -0.2733 -0.1401
  481MOL0     H64907   2.241   9.684   1.838 -2.2289 -0.1429  0.5092
  481MOL0     H64908   2.231   9.667   2.019 -1.8661  0.5572  0.8290
  481MOL0     H64909   2.056   9.817   1.905  0.9627 -2.7818  0.4401
  481MOL0     H64910   2.201   9.929   1.856 -1.0327 -1.0510 -1.8570
  481MOL0     H64911   2.234   9.958   2.094  0.2823 -0.3772 -0.3491
  481MOL0     H64912   2.071  10.002   2.052  2.1344  1.8956  0.6062
  481MOL0     H64913   2.122   9.727   2.178 -3.5419 -2.2596 -0.5931
  481MOL0     H64914   1.979   9.777   2.121  0.8545 -3.5887  0.4653
  481MOL0     H64915   2.026   9.998   2.287  3.1405  0.3394 -0.8906
  481MOL0     H64916   2.147   9.896   2.337  0.9382 -1.8528 -1.5059
  481MOL0     H64917   2.816   9.408   1.851  0.8457 -0.7069 -0.5061
  481MOL0     H64918   3.061   9.394   1.832  0.9004 -0.0938  0.1727
  481MOL0     H64919   3.499   9.533   1.641 -1.0369  0.1788  0.7614
  481MOL0     H64920   3.733   9.517   1.667 -0.5736 -0.4827  0.0556
  481MOL0     H64921   4.875   9.020   1.987  0.3563 -0.5770  0.6158
  481MOL0     H64922   5.034   9.105   2.143  1.1042  0.2146  1.5218
  481MOL0     H64923   5.035   9.207   2.804 -2.5981  0.8845 -3.0533
  481MOL0     H64924   5.237   9.291   2.908 -0.3995 -2.0237 -0.9573
  481MOL0     H64925   5.436   9.455   2.951 -1.0032 -0.0915 -0.5104
  481MOL0     H64926   5.455   9.272   2.961  3.2477 -1.0156 -0.2645
  481MOL0     H64927   5.672   9.420   3.027  3.9237 -2.2331  0.1299
  481MOL0     H64928   5.686   9.424   2.849 -0.9167 -0.0240 -0.7490
  481MOL0     H64929   5.692   9.186   2.837  2.6630 -0.7000 -0.0435
  481MOL0     H64930   5.675   9.174   3.018  0.5581  2.1091  1.5569
  481MOL0     H64931   5.902   9.303   2.883  0.5228 -1.1925 -0.8555
  481MOL0     H64932   5.892   9.131   2.945 -1.2032 -0.6066  1.7408
  481MOL0     H64933   5.986   9.343   3.289 -0.1228  0.9713  0.3245
  481MOL0     H64934   5.445   9.263   2.533 -0.4082  2.4178 -3.1734
  481MOL0     H64935   5.251   9.164   2.428 -0.5303 -0.4855 -0.0938
  482MOL0     O64936   7.515   3.380   0.583 -0.0541  0.6759 -0.2247
  482MOL0     C64937   7.577   3.272   0.556  0.4590 -0.6468 -0.0870
  482MOL0     O64938   7.526   3.140   0.560  0.6759 -0.0167  0.0485
  482MOL0     C64939   7.393   3.121   0.575  0.9886  0.1872  0.2369
  482MOL0     C64940   7.333   3.025   0.500  0.3402  0.0344  0.4982
  482MOL0     C64941   7.205   2.985   0.518  0.5453 -1.1513  0.5532
  482MOL0     C64942   7.124   3.040   0.620  0.2172 -0.5895 -1.1658
  482MOL0     O64943   7.006   2.979   0.636  0.1828  0.2269  0.1664
  482MOL0     C64944   6.949   2.956   0.767  1.2364  0.2939  0.2889
  482MOL0     C64945   6.803   2.906   0.757 -0.3864 -0.4252  0.0170
  482MOL0     C64946   6.725   3.012   0.685  0.1649  1.0406  0.1450
  482MOL0     C64947   6.642   3.101   0.772  0.2594  0.1534 -0.5183
  482MOL0     C64948   6.512   3.136   0.722 -0.6523  0.5909 -0.4380
  482MOL0     C64949   6.406   3.040   0.774 -0.0936  0.0542  0.8621
  482MOL0     C64950   6.274   3.062   0.686  0.2182 -0.5180 -0.1224
  482MOL0     C64951   6.196   2.926   0.677  0.6386 -0.4252 -0.1517
  482MOL0     N64952   6.052   2.931   0.648 -0.3477 -0.7301 -0.0994
  482MOL0     C64953   6.006   3.013   0.544 -0.2185  0.0264 -0.0009
  482MOL0     C64954   5.869   2.995   0.554  0.1517 -0.0429  0.1778
  482MOL0     C64955   5.769   3.059   0.466  0.7317  0.5249 -0.6388
  482MOL0     C64956   5.807   3.198   0.406  0.0397  0.7565 -0.3161
  482MOL0     C64957   5.703   3.271   0.320  0.1787 -0.4715 -0.5404
  482MOL0     C64958   5.575   3.292   0.405  1.2184  0.4875 -0.2428
  482MOL0     O64959   5.520   3.418   0.364 -0.9507  0.0748  0.5852
  482MOL0     C64960   5.397   3.457   0.399 -0.0020  0.6972 -0.8519
  482MOL0     C64961   5.345   3.447   0.534 -0.1544  0.4331 -0.0890
  482MOL0     C64962   5.218   3.485   0.562  0.2569 -0.8195  0.1215
  482MOL0     C64963   5.176   3.475   0.705 -0.0636 -0.3441 -0.6691
  482MOL0     C64964   5.132   3.540   0.469  0.6320 -0.3017 -0.0093
  482MOL0     C64965   4.986   3.567   0.484  0.4551  0.2679 -0.5336
  482MOL0     O64966   4.926   3.640   0.390  0.4750  0.6157 -0.2279
  482MOL0     C64967   4.790   3.638   0.383  0.2144 -0.2677 -0.5971
  482MOL0     C64968   4.725   3.759   0.373 -0.2307 -0.1117  0.8373
  482MOL0     C64969   4.589   3.764   0.373  0.2925 -0.0731 -0.0834
  482MOL0     C64970   4.507   3.653   0.378 -0.2585  0.1819 -0.5091
  482MOL0     O64971   4.376   3.675   0.361 -0.7700 -0.6058 -0.3021
  482MOL0     C64972   4.287   3.561   0.352 -1.0075 -0.5922 -0.5067
  482MOL0     C64973   4.280   3.503   0.213 -0.0055 -0.8828  0.0728
  482MOL0     C64974   4.194   3.582   0.110  0.3057  0.1542 -0.0199
  482MOL0     C64975   4.176   3.487  -0.002  0.7955  0.1259  1.1429
  482MOL0     C64976   4.072   3.536  -0.106 -0.0710  0.7007 -0.3546
  482MOL0     C64977   4.072   3.477  -0.252 -0.0807 -0.4967 -1.1059
  482MOL0     C64978   3.968   3.563  -0.339 -0.4547  0.4884 -0.2951
  482MOL0     C64979   3.972   3.501  -0.475  0.0226  0.4305  0.5162
  482MOL0    Cl64980   3.869   3.359  -0.454  0.1232  0.1697  0.7177
  482MOL0     C64981   4.571   3.527   0.379  1.0526  0.1309  0.4185
  482MOL0     C64982   4.711   3.522   0.374 -0.6530 -0.3520 -0.7992
  482MOL0     O64983   4.928   3.519   0.577 -0.1778  0.5644 -0.4741
  482MOL0     C64984   5.181   3.545   0.338  0.9177 -0.2324 -0.1236
  482MOL0     C64985   5.308   3.501   0.306 -0.3679 -0.3127  0.1108
  482MOL0     N64986   5.841   2.919   0.664  0.8905 -0.1721  0.7990
  482MOL0     N64987   5.954   2.876   0.720  0.8731 -0.1765  0.3073
  482MOL0     C64988   7.182   3.141   0.699 -0.0244 -0.0608  0.1878
  482MOL0     C64989   7.315   3.187   0.675  0.8932  0.1167  0.5181
  482MOL0     C64990   7.722   3.301   0.532  0.2881  1.0451 -0.6213
  482MOL0     C64991   7.810   3.188   0.507 -0.2567  0.7402  0.7441
  482MOL0     C64992   7.946   3.209   0.499  0.0267  0.8339  0.7769
  482MOL0     C64993   8.000   3.337   0.485  0.7465 -0.6938  0.3420
  482MOL0     O64994   8.123   3.373   0.460  0.5899 -0.1499 -0.2516
  482MOL0     C64995   8.227   3.271   0.460  0.0772 -0.2185  0.1450
  482MOL0     C64996   8.359   3.328   0.431 -0.1830  0.2593  0.0914
  482MOL0     C64997   8.363   3.407   0.297  0.9806  0.6446  0.0350
  482MOL0     C64998   8.500   3.475   0.286 -0.2990 -0.1817  0.1780
  482MOL0     C64999   8.545   3.513   0.148 -0.6059  0.2901 -0.8133
  482MOL0     C65000   8.570   3.527   0.030 -0.2316  0.1931 -0.4736
  482MOL0     C65001   7.911   3.447   0.501  0.3277 -0.7055 -0.8365
  482MOL0     C65002   7.778   3.431   0.533  0.5238  0.0085  0.5929
  482MOL0     H65003   7.401   2.976   0.431 -0.2964 -1.6530  1.0209
  482MOL0     H65004   7.158   2.904   0.462  2.0650 -1.3426 -0.5280
  482MOL0     H65005   7.023   2.889   0.814  0.7661 -0.1626  0.3876
  482MOL0     H65006   6.938   3.050   0.822  2.6018 -0.0339  1.1760
  482MOL0     H65007   6.800   2.812   0.701 -2.5115  0.4554 -1.5025
  482MOL0     H65008   6.768   2.883   0.858  0.3409 -0.3260  0.2951
  482MOL0     H65009   6.796   3.077   0.633  1.1687  0.4411  0.7206
  482MOL0     H65010   6.657   2.974   0.609 -0.9365  2.7396  0.2301
  482MOL0     H65011   6.630   3.070   0.876 -0.8840  1.2513 -0.2967
  482MOL0     H65012   6.703   3.191   0.782  2.2028 -1.0327 -1.2975
  482MOL0     H65013   6.494   3.241   0.749  0.3771  0.9117 -0.9718
  482MOL0     H65014   6.519   3.144   0.613  0.8098  0.2305 -0.3857
  482MOL0     H65015   6.448   2.940   0.760  1.3102  0.8135 -0.7728
  482MOL0     H65016   6.384   3.050   0.881  2.7145 -1.6696  1.7219
  482MOL0     H65017   6.212   3.142   0.729 -1.4405 -2.0572  0.4611
  482MOL0     H65018   6.293   3.098   0.585 -1.2304 -0.8567 -0.5418
  482MOL0     H65019   6.207   2.889   0.779  1.6356  1.0353  0.3018
  482MOL0     H65020   6.242   2.855   0.607  0.2496 -0.3740 -0.4673
  482MOL0     H65021   6.068   3.080   0.485  1.9220 -0.0447  2.0132
  482MOL0     H65022   5.752   2.990   0.383 -0.2938 -0.5259  0.3986
  482MOL0     H65023   5.673   3.062   0.519  0.7792  2.8841 -0.5852
  482MOL0     H65024   5.890   3.171   0.340 -0.7901  2.1829 -2.0173
  482MOL0     H65025   5.862   3.256   0.481  0.5812 -2.0854  1.6474
  482MOL0     H65026   5.666   3.225   0.228 -0.4464  1.8034 -1.4700
  482MOL0     H65027   5.747   3.369   0.300  0.9398 -0.8066 -0.5560
  482MOL0     H65028   5.611   3.308   0.508  3.6852 -1.3648 -0.7492
  482MOL0     H65029   5.500   3.213   0.404  1.6025  0.1170 -1.9404
  482MOL0     H65030   5.406   3.413   0.617  1.3390  1.6493 -0.6269
  482MOL0     H65031   5.088   3.411   0.716  0.2122 -0.9189 -1.7125
  482MOL0     H65032   5.259   3.436   0.765 -1.2177  0.3429  1.5191
  482MOL0     H65033   5.155   3.572   0.751  0.8595 -1.2972  1.9486
  482MOL0     H65034   4.772   3.856   0.378  1.3527 -0.8564  1.2522
  482MOL0     H65035   4.539   3.860   0.367 -0.7670 -0.7099 -2.3571
  482MOL0     H65036   4.318   3.480   0.418 -0.6021 -1.5428 -1.8397
  482MOL0     H65037   4.187   3.587   0.390 -0.5048 -0.7989  1.0352
  482MOL0     H65038   4.380   3.485   0.170  0.6375 -1.8602  1.8570
  482MOL0     H65039   4.238   3.405   0.238 -2.9816  0.1110 -0.6429
  482MOL0     H65040   4.238   3.675   0.072 -0.7829  0.8135  0.3064
  482MOL0     H65041   4.099   3.619   0.150  0.1863  1.3395 -1.2847
  482MOL0     H65042   4.269   3.473  -0.059 -1.5633  0.6373 -3.3227
  482MOL0     H65043   4.136   3.396   0.042  1.1774 -0.9738 -0.6616
  482MOL0     H65044   4.081   3.645  -0.107  1.0203  0.6297 -1.9022
  482MOL0     H65045   3.971   3.517  -0.070  0.2810 -0.1700  0.2018
  482MOL0     H65046   4.172   3.489  -0.296  0.6374 -3.0836 -0.3507
  482MOL0     H65047   4.043   3.372  -0.250  0.7227 -0.7233 -0.8750
  482MOL0     H65048   4.003   3.667  -0.346 -1.2931  0.8059  0.1230
  482MOL0     H65049   3.871   3.561  -0.289 -0.7727 -0.9542 -0.9255
  482MOL0     H65050   4.072   3.485  -0.517  0.1602 -0.3326  1.1265
  482MOL0     H65051   3.918   3.569  -0.542 -1.2991 -2.0390 -1.0773
  482MOL0     H65052   4.519   3.432   0.372  0.6063  0.2649  1.5714
  482MOL0     H65053   4.768   3.429   0.375 -1.1309 -0.6647  0.8518
  482MOL0     H65054   5.122   3.571   0.250  1.5251 -0.0664 -0.4925
  482MOL0     H65055   5.343   3.500   0.203  2.1306  0.8477  0.8739
  482MOL0     H65056   7.145   3.174   0.796 -2.2134 -1.6525 -0.0247
  482MOL0     H65057   7.369   3.255   0.741  3.8313 -1.0346 -0.5219
  482MOL0     H65058   7.764   3.091   0.488  0.1738  1.0517 -2.4887
  482MOL0     H65059   8.018   3.131   0.476  0.9642  2.4011 -2.0813
  482MOL0     H65060   8.237   3.226   0.559 -1.7691 -3.2640 -0.9083
  482MOL0     H65061   8.207   3.197   0.383 -0.4542  0.8498 -0.7771
  482MOL0     H65062   8.431   3.248   0.410 -1.8833 -0.5197 -3.5756
  482MOL0     H65063   8.381   3.393   0.516 -2.7677  0.6329  0.5534
  482MOL0     H65064   8.293   3.490   0.308  1.0145  0.6429  0.2575
  482MOL0     H65065   8.356   3.334   0.216  2.7199 -0.5172  0.8567
  482MOL0     H65066   8.578   3.411   0.328 -0.4388 -1.0011 -0.7538
  482MOL0     H65067   8.496   3.564   0.349  0.8127 -1.2821  1.9181
  482MOL0     H65068   8.594   3.548  -0.072  0.7743 -2.0559 -0.7564
  482MOL0     H65069   7.950   3.545   0.527  1.2851 -1.8820  2.7616
  482MOL0     H65070   7.717   3.517   0.555 -2.8874 -1.6866 -1.3499
  483MOL0     O65071   4.363   5.673  11.202 -0.7641  0.1776 -0.2308
  483MOL0     C65072   4.318   5.563  11.222 -0.0417 -0.6101  0.9383
  483MOL0     O65073   4.384   5.454  11.245  0.1128  0.2266  0.4474
  483MOL0     C65074   4.516   5.461  11.266 -1.4091 -0.5745 -0.4485
  483MOL0     C65075   4.607   5.409  11.171 -0.5067  0.0976 -0.0977
  483MOL0     C65076   4.747   5.423  11.203 -1.4764 -0.7291 -0.5066
  483MOL0     C65077   4.796   5.494  11.317 -0.0579 -0.7247 -0.0935
  483MOL0     O65078   4.927   5.495  11.341 -0.8126  0.5023  0.3417
  483MOL0     C65079   4.983   5.600  11.430  0.0365 -1.0377 -0.4788
  483MOL0     C65080   5.140   5.608  11.424  0.9680 -0.1606  0.0882
  483MOL0     C65081   5.202   5.481  11.484 -0.0886  0.5563  0.0653
  483MOL0     C65082   5.351   5.508  11.533 -0.3345  0.4258  0.6226
  483MOL0     C65083   5.413   5.378  11.585  0.6535  0.3156 -0.2817
  483MOL0     C65084   5.553   5.408  11.623 -0.5404 -0.2672  0.1496
  483MOL0     C65085   5.610   5.278  11.686  0.3618 -0.1584 -0.3543
  483MOL0     C65086   5.655   5.179  11.571 -0.4955 -0.0384  0.1336
  483MOL0     N65087   5.752   5.089  11.628  0.8332 -0.2527 -0.1379
  483MOL0     C65088   5.729   4.999  11.730  0.2138  0.4916  0.3628
  483MOL0     C65089   5.856   4.936  11.740 -0.4718  0.4155  0.1059
  483MOL0     C65090   5.880   4.800  11.807  0.3448 -0.1159  0.1736
  483MOL0     C65091   5.970   4.818  11.930  0.2720 -0.3150 -1.1792
  483MOL0     C65092   5.905   4.899  12.050  0.6166 -0.0798 -0.2114
  483MOL0     C65093   5.802   4.811  12.138 -0.1321 -0.0562 -0.0037
  483MOL0     O65094   5.695   4.770  12.064  0.5886 -0.9090  0.6057
  483MOL0     C65095   5.591   4.859  12.039 -0.4721 -0.8205  0.3868
  483MOL0     C65096   5.485   4.810  11.969  0.0747  0.2067  0.3775
  483MOL0     C65097   5.379   4.886  11.923  0.4232  0.3472  0.3346
  483MOL0     C65098   5.281   4.820  11.824  0.3734 -0.1454  0.0538
  483MOL0     C65099   5.365   5.020  11.977  0.0372 -0.2418  0.6682
  483MOL0     C65100   5.262   5.111  11.931 -0.3287 -0.1614  0.0005
  483MOL0     O65101   5.202   5.194  12.026  0.2632  0.3714 -0.5769
  483MOL0     C65102   5.117   5.292  11.993  0.1227 -0.6659 -0.9290
  483MOL0     C65103   5.132   5.386  11.894  0.4779  0.3093  0.0066
  483MOL0     C65104   5.025   5.479  11.874  0.0634  0.2983  0.0030
  483MOL0     C65105   4.905   5.479  11.950 -0.7746  0.0484 -0.7136
  483MOL0     O65106   4.806   5.556  11.900 -0.4193  0.4052  0.3716
  483MOL0     C65107   4.671   5.509  11.898 -0.5521 -0.7852  0.3764
  483MOL0     C65108   4.588   5.576  11.783 -0.5502 -0.3157 -0.8752
  483MOL0     C65109   4.442   5.588  11.816 -0.5155 -0.4022  0.5554
  483MOL0     C65110   4.375   5.711  11.751 -1.1881 -0.2720 -0.0834
  483MOL0     C65111   4.221   5.721  11.769  0.0934  0.7711  0.4901
  483MOL0     C65112   4.152   5.616  11.688 -0.3287 -0.2200 -0.2161
  483MOL0     C65113   4.002   5.642  11.692 -0.4650  0.7437 -0.7666
  483MOL0     C65114   3.934   5.518  11.649  0.3224  0.2442 -0.2609
  483MOL0    Cl65115   3.774   5.553  11.702 -0.3512  0.1058  0.3952
  483MOL0     C65116   4.889   5.376  12.043 -0.5484  0.1582 -0.3214
  483MOL0     C65117   5.000   5.296  12.075 -0.3127  1.3932  0.9338
  483MOL0     O65118   5.234   5.117  11.810  0.3481  0.1001  0.4424
  483MOL0     C65119   5.466   5.065  12.061 -0.5393  0.2648 -0.3674
  483MOL0     C65120   5.575   4.986  12.091 -0.5036  0.3223 -0.6479
  483MOL0     N65121   5.950   5.001  11.662  0.2013  0.1525  0.0963
  483MOL0     N65122   5.889   5.092  11.600  0.5273 -0.1448 -0.3269
  483MOL0     C65123   4.697   5.546  11.408 -0.8182  0.2421  0.9101
  483MOL0     C65124   4.565   5.528  11.384 -0.6689 -0.0596 -0.0296
  483MOL0     C65125   4.172   5.544  11.236  1.0813 -0.4393 -1.3195
  483MOL0     C65126   4.087   5.659  11.224  0.4404 -0.7039  0.3104
  483MOL0     C65127   3.944   5.644  11.222 -0.1467 -0.5024 -0.4889
  483MOL0     C65128   3.886   5.515  11.228  0.4987 -0.9533 -0.0459
  483MOL0     O65129   3.747   5.516  11.240  0.1352  0.4681 -0.3875
  483MOL0     C65130   3.678   5.387  11.231 -0.2924 -0.0586 -0.0868
  483MOL0     C65131   3.524   5.404  11.256  0.6936  0.1854 -0.9006
  483MOL0     C65132   3.434   5.444  11.140  0.3586  0.1710 -1.0136
  483MOL0     C65133   3.296   5.476  11.183  0.1768 -0.4225  0.1609
  483MOL0     C65134   3.293   5.617  11.229 -0.2852 -0.2431  0.2791
  483MOL0     C65135   3.285   5.734  11.252  0.8520 -0.0099  0.1135
  483MOL0     C65136   3.972   5.404  11.250  0.9026  0.1980  0.1749
  483MOL0     C65137   4.107   5.419  11.245 -0.4967 -0.3316 -0.1641
  483MOL0     H65138   4.571   5.355  11.084  0.4354 -0.9666  0.1458
  483MOL0     H65139   4.830   5.393  11.139 -1.5308 -3.4273  0.5581
  483MOL0     H65140   4.943   5.697  11.398  2.6769  0.3771  0.2003
  483MOL0     H65141   4.960   5.565  11.531 -3.0902 -0.9879 -1.0695
  483MOL0     H65142   5.164   5.613  11.318 -0.0363 -0.1798 -0.1537
  483MOL0     H65143   5.181   5.687  11.488 -0.1881 -1.0522  2.0496
  483MOL0     H65144   5.148   5.441  11.570  0.3137 -1.7556 -0.6769
  483MOL0     H65145   5.214   5.395  11.417  0.5547  0.0633  0.7976
  483MOL0     H65146   5.401   5.557  11.449 -0.9151  0.0983  0.0659
  483MOL0     H65147   5.347   5.583  11.612  0.4994  2.0387 -0.7996
  483MOL0     H65148   5.354   5.346  11.671  0.2719  0.1072 -0.6175
  483MOL0     H65149   5.411   5.306  11.502 -1.7056  1.2801 -1.1334
  483MOL0     H65150   5.616   5.437  11.538 -1.5615  1.6721  0.0027
  483MOL0     H65151   5.551   5.492  11.694 -1.5663 -0.6096  0.5381
  483MOL0     H65152   5.703   5.307  11.736 -1.6463  0.6334  3.2905
  483MOL0     H65153   5.540   5.229  11.754 -0.3740  2.1601  0.6696
  483MOL0     H65154   5.707   5.238  11.495  0.5517 -0.6321  0.3757
  483MOL0     H65155   5.562   5.133  11.538 -0.5333 -0.8532  1.3075
  483MOL0     H65156   5.638   4.954  11.769 -0.1305 -1.3822 -2.3497
  483MOL0     H65157   5.790   4.744  11.832  0.9753 -0.7706  1.0425
  483MOL0     H65158   5.941   4.738  11.740 -0.0800  1.3357 -1.6522
  483MOL0     H65159   6.071   4.854  11.907 -0.0363  0.7167 -0.9665
  483MOL0     H65160   5.987   4.715  11.966 -2.4204  0.2028  2.0831
  483MOL0     H65161   5.852   4.989  12.015 -1.1445 -0.3874  1.5161
  483MOL0     H65162   5.977   4.936  12.123 -1.0281  1.0745  0.8958
  483MOL0     H65163   5.767   4.859  12.230 -3.2819  2.3271 -2.2113
  483MOL0     H65164   5.856   4.719  12.164  0.7265 -0.2400 -2.2431
  483MOL0     H65165   5.482   4.707  11.935  2.4958  0.8021 -1.9406
  483MOL0     H65166   5.260   4.720  11.863  0.3756  0.4201  1.5691
  483MOL0     H65167   5.183   4.867  11.809  0.5176 -0.0460 -0.6427
  483MOL0     H65168   5.323   4.801  11.724 -1.2079 -0.1578 -0.6387
  483MOL0     H65169   5.222   5.388  11.834  0.3018 -3.1842 -0.5739
  483MOL0     H65170   5.036   5.558  11.800 -0.5627 -0.1702 -0.6043
  483MOL0     H65171   4.674   5.402  11.876  4.2947 -0.8025  0.1433
  483MOL0     H65172   4.632   5.532  11.998  1.2308  0.4135  0.8317
  483MOL0     H65173   4.638   5.672  11.764  0.7818 -0.9952 -0.9130
  483MOL0     H65174   4.599   5.519  11.690 -3.2961 -2.8096  0.2030
  483MOL0     H65175   4.434   5.604  11.924  1.5118  0.9177  0.5662
  483MOL0     H65176   4.384   5.498  11.795  1.5035 -2.0566  1.7288
  483MOL0     H65177   4.419   5.803  11.791 -0.0336  0.8083 -3.4967
  483MOL0     H65178   4.402   5.707  11.645 -2.4293 -1.6677 -0.3812
  483MOL0     H65179   4.178   5.814  11.732 -0.5983 -0.8859 -3.4236
  483MOL0     H65180   4.198   5.703  11.875  4.1079 -0.7075  1.2862
  483MOL0     H65181   4.181   5.607  11.583 -1.2367 -2.8960 -0.3273
  483MOL0     H65182   4.178   5.518  11.728 -0.4182 -0.1837 -0.0683
  483MOL0     H65183   3.972   5.721  11.623  3.3306  1.8363 -1.4217
  483MOL0     H65184   3.967   5.668  11.792 -1.9617  0.5365 -1.2148
  483MOL0     H65185   3.961   5.427  11.705  0.0277  0.5093  0.3201
  483MOL0     H65186   3.952   5.512  11.541 -0.9052  0.0167 -0.4674
  483MOL0     H65187   4.795   5.376  12.096  0.4189  0.8552  1.4618
  483MOL0     H65188   4.989   5.223  12.155  0.9660  0.3348  0.1836
  483MOL0     H65189   5.470   5.164  12.105  1.1440  0.0152  0.1203
  483MOL0     H65190   5.655   5.026  12.153 -0.8582 -0.1910  0.1598
  483MOL0     H65191   4.731   5.603  11.494 -1.1678 -0.7754  1.7482
  483MOL0     H65192   4.511   5.573  11.466  2.5274  1.1587  1.6139
  483MOL0     H65193   4.131   5.757  11.214 -0.7548 -0.3784 -3.1336
  483MOL0     H65194   3.879   5.730  11.222  2.9599  2.0205 -0.2793
  483MOL0     H65195   3.690   5.344  11.132 -0.5919 -4.9898  1.7155
  483MOL0     H65196   3.714   5.309  11.299  3.0287  1.8359  0.5525
  483MOL0     H65197   3.506   5.479  11.333  0.3271  0.5367 -1.3225
  483MOL0     H65198   3.484   5.307  11.286  0.7319  0.3844 -0.1834
  483MOL0     H65199   3.439   5.356  11.075  2.5549 -1.9323  1.7537
  483MOL0     H65200   3.479   5.527  11.083  0.6857 -0.7075 -2.0732
  483MOL0     H65201   3.272   5.409  11.266  2.3473  0.2335  1.4017
  483MOL0     H65202   3.235   5.453  11.095  1.4048  1.9279 -1.4066
  483MOL0     H65203   3.290   5.834  11.289 -0.9232  0.0721  0.1727
  483MOL0     H65204   3.929   5.305  11.259 -0.0128 -0.1665 -4.9644
  483MOL0     H65205   4.169   5.330  11.236 -0.3374 -0.2539  0.1414
  484MOL0     O65206   8.470   1.334   2.151 -0.4312  0.2380 -0.6999
  484MOL0     C65207   8.584   1.335   2.202 -0.2972  0.0574  0.4626
  484MOL0     O65208   8.628   1.252   2.307  0.0224 -0.1100  0.3302
  484MOL0     C65209   8.534   1.167   2.371 -0.1856  0.1855 -0.4589
  484MOL0     C65210   8.412   1.219   2.419  0.6185 -0.1722  0.6539
  484MOL0     C65211   8.335   1.135   2.497 -0.5675 -0.6895  0.6066
  484MOL0     C65212   8.372   1.005   2.527 -0.3627  0.3630  0.2778
  484MOL0     O65213   8.282   0.931   2.607  0.5499 -0.8170  0.2533
  484MOL0     C65214   8.305   0.790   2.632 -0.1453 -0.2302  0.2737
  484MOL0     C65215   8.404   0.768   2.753  0.7672  1.0209 -0.0360
  484MOL0     C65216   8.331   0.807   2.884  0.1829 -0.4976  0.1579
  484MOL0     C65217   8.422   0.805   3.007 -0.4331  0.2939 -0.2321
  484MOL0     C65218   8.348   0.865   3.129 -1.2752 -0.2708  0.1586
  484MOL0     C65219   8.440   0.852   3.257  0.3314 -0.2440  0.4270
  484MOL0     C65220   8.372   0.911   3.378 -0.1505  0.1867 -0.2899
  484MOL0     C65221   8.234   0.840   3.406 -1.0193  0.5482 -0.2418
  484MOL0     N65222   8.197   0.861   3.543  0.5365 -0.8736 -1.3140
  484MOL0     C65223   8.243   0.795   3.655 -0.0846 -0.0540  0.6109
  484MOL0     C65224   8.196   0.853   3.765  0.0137  0.1778  0.7503
  484MOL0     C65225   8.240   0.818   3.903 -0.0327 -0.2775  0.3069
  484MOL0     C65226   8.134   0.748   3.988  0.2434  0.1868 -0.7110
  484MOL0     C65227   8.134   0.596   3.960  0.1158 -0.8096 -0.6452
  484MOL0     C65228   7.999   0.544   4.009 -0.1358 -0.2204 -0.2016
  484MOL0     O65229   7.990   0.582   4.145  0.1193  0.4069 -0.3244
  484MOL0     C65230   7.863   0.583   4.193 -0.2111 -0.7052 -0.3409
  484MOL0     C65231   7.838   0.687   4.280  0.2424  0.1663 -0.1891
  484MOL0     C65232   7.711   0.699   4.331 -0.3949  0.4460  0.3638
  484MOL0     C65233   7.696   0.817   4.432 -1.0483  0.9469  0.2868
  484MOL0     C65234   7.609   0.618   4.290  0.4049  0.2751  0.2152
  484MOL0     C65235   7.470   0.633   4.344  0.7763 -0.8807  0.4653
  484MOL0     O65236   7.362   0.616   4.257  0.0337  0.8265  0.4212
  484MOL0     C65237   7.229   0.627   4.300 -0.6265 -0.1733  0.4454
  484MOL0     C65238   7.179   0.599   4.424  0.3935  0.2799  0.2164
  484MOL0     C65239   7.047   0.628   4.460 -0.4230 -0.6040 -0.1793
  484MOL0     C65240   6.959   0.683   4.365  0.0140  0.6947  0.2974
  484MOL0     O65241   6.834   0.706   4.415  0.2517 -0.4926 -0.2418
  484MOL0     C65242   6.729   0.747   4.322  0.0661 -0.1084  0.2644
  484MOL0     C65243   6.611   0.789   4.413  0.1536  0.3785 -0.6468
  484MOL0     C65244   6.481   0.829   4.337  0.1653  0.9035 -0.4782
  484MOL0     C65245   6.354   0.826   4.418  0.5674  0.4160  0.5201
  484MOL0     C65246   6.235   0.873   4.326  0.9823  0.1113  0.2611
  484MOL0     C65247   6.101   0.860   4.396 -0.1284  0.5734  0.3598
  484MOL0     C65248   6.075   0.706   4.422  0.1034 -0.0969  0.1492
  484MOL0     C65249   5.943   0.654   4.389 -0.5963 -0.2062  0.7571
  484MOL0    Cl65250   5.818   0.728   4.495 -0.0870  0.0664  0.4272
  484MOL0     C65251   7.006   0.701   4.235  1.3280  0.1431 -0.0898
  484MOL0     C65252   7.133   0.663   4.201 -0.7206 -0.9044  0.3122
  484MOL0     O65253   7.461   0.661   4.464  0.6555 -0.1989  0.9376
  484MOL0     C65254   7.628   0.516   4.196 -0.0288 -0.5577  0.7855
  484MOL0     C65255   7.762   0.501   4.151  0.1826  0.1692  0.2295
  484MOL0     N65256   8.116   0.961   3.723  0.3640  0.0174  0.7651
  484MOL0     N65257   8.119   0.960   3.593 -0.4081  0.1189 -0.1696
  484MOL0     C65258   8.497   0.955   2.476  0.6641 -0.3756  0.4086
  484MOL0     C65259   8.577   1.041   2.408 -0.7547 -0.1300  0.4980
  484MOL0     C65260   8.676   1.432   2.151 -0.2602 -0.0513 -0.2592
  484MOL0     C65261   8.809   1.429   2.196  1.0909 -0.1475 -0.4815
  484MOL0     C65262   8.902   1.514   2.136 -1.2124  0.2359 -1.0087
  484MOL0     C65263   8.872   1.611   2.043 -0.2423  0.1527  0.5775
  484MOL0     O65264   8.968   1.694   2.002 -1.0553 -0.6940  0.7130
  484MOL0     C65265   8.934   1.791   1.899 -0.3947 -0.9677  0.7746
  484MOL0     C65266   9.071   1.846   1.841  0.1149 -1.0559 -0.0074
  484MOL0     C65267   9.141   1.749   1.758  0.2347 -0.1187 -0.3229
  484MOL0     C65268   9.274   1.809   1.715 -0.2843 -0.2649  0.1797
  484MOL0     C65269   9.387   1.769   1.803 -1.3993 -0.3735  0.5532
  484MOL0     C65270   9.486   1.741   1.862 -0.0242 -0.0828  0.2433
  484MOL0     C65271   8.732   1.612   2.005 -1.0973  0.1920 -0.3511
  484MOL0     C65272   8.635   1.532   2.059 -0.5379 -1.3735 -0.0968
  484MOL0     H65273   8.401   1.326   2.408  1.2318  0.4009  4.1909
  484MOL0     H65274   8.239   1.164   2.540 -0.9973  0.7300 -1.1546
  484MOL0     H65275   8.212   0.732   2.645  0.5274 -1.2841  0.5506
  484MOL0     H65276   8.344   0.746   2.539 -1.9572  0.5808 -0.9341
  484MOL0     H65277   8.449   0.668   2.751  1.0025  1.1277 -1.2269
  484MOL0     H65278   8.495   0.826   2.732  1.6996 -0.8389 -1.4520
  484MOL0     H65279   8.289   0.907   2.868  1.2097 -0.1645 -0.5649
  484MOL0     H65280   8.245   0.742   2.904 -1.6544  2.4910  3.1323
  484MOL0     H65281   8.447   0.702   3.033 -0.5699  0.9379  2.7569
  484MOL0     H65282   8.511   0.860   2.976 -0.3512 -0.5006 -1.5082
  484MOL0     H65283   8.325   0.968   3.102  0.7857  0.0711 -0.4938
  484MOL0     H65284   8.261   0.800   3.141 -2.5618  0.7926 -2.7719
  484MOL0     H65285   8.457   0.745   3.271  1.3867  0.0403  1.3850
  484MOL0     H65286   8.535   0.904   3.241  0.6555 -0.6467  1.0480
  484MOL0     H65287   8.432   0.885   3.465 -2.3727 -2.6848  0.5404
  484MOL0     H65288   8.366   1.020   3.389 -1.4640  0.1100  0.0499
  484MOL0     H65289   8.251   0.733   3.390  1.3304  0.9460 -0.6511
  484MOL0     H65290   8.158   0.880   3.338 -0.8277 -0.0180 -0.7974
  484MOL0     H65291   8.307   0.708   3.647  2.4292  1.6441  1.2360
  484MOL0     H65292   8.328   0.756   3.884  1.7193  2.3275 -0.7490
  484MOL0     H65293   8.284   0.908   3.948  0.6563  0.8041 -2.3196
  484MOL0     H65294   8.042   0.800   3.962  0.3926  1.0483  0.3988
  484MOL0     H65295   8.155   0.768   4.094  1.4191  0.7707 -1.0310
  484MOL0     H65296   8.209   0.550   4.025 -1.3948 -3.1801 -0.4663
  484MOL0     H65297   8.157   0.573   3.855  1.0251  3.8503 -1.7068
  484MOL0     H65298   7.989   0.437   3.991 -2.7884  0.1635 -1.6398
  484MOL0     H65299   7.931   0.585   3.933  1.0624  1.7961 -0.2508
  484MOL0     H65300   7.916   0.755   4.311 -1.8495  1.8052  1.8278
  484MOL0     H65301   7.701   0.768   4.530  2.0266 -0.1001 -0.2789
  484MOL0     H65302   7.784   0.882   4.426  0.3933 -1.0257 -2.5956
  484MOL0     H65303   7.599   0.865   4.419 -0.3437  1.9357 -1.6751
  484MOL0     H65304   7.229   0.563   4.513 -0.0186  0.8024  0.6624
  484MOL0     H65305   7.021   0.610   4.564  3.6443 -1.7523  0.8420
  484MOL0     H65306   6.755   0.837   4.265 -1.4333  0.1155 -0.0880
  484MOL0     H65307   6.705   0.663   4.256  2.2371  0.0003 -0.7480
  484MOL0     H65308   6.596   0.704   4.480 -1.3639  1.5429  0.5817
  484MOL0     H65309   6.648   0.875   4.470  3.7777 -1.4015 -0.0683
  484MOL0     H65310   6.476   0.772   4.243 -1.0143 -0.9779  0.6565
  484MOL0     H65311   6.491   0.933   4.303  0.3855  1.6794  1.8199
  484MOL0     H65312   6.336   0.726   4.460 -1.9784  0.5301 -0.1469
  484MOL0     H65313   6.360   0.900   4.498 -1.6541  0.8009  0.4120
  484MOL0     H65314   6.233   0.806   4.239 -0.6562  1.0853 -0.4836
  484MOL0     H65315   6.244   0.974   4.286 -0.9229  0.4780  0.6887
  484MOL0     H65316   6.096   0.908   4.494 -1.7030 -0.9437  1.0714
  484MOL0     H65317   6.015   0.904   4.346 -1.3967 -0.5902  1.4456
  484MOL0     H65318   6.091   0.687   4.528 -1.0156  0.1597  0.3767
  484MOL0     H65319   6.144   0.651   4.358 -1.9097 -3.2459  0.5079
  484MOL0     H65320   5.934   0.546   4.397 -1.8006 -0.2089 -0.3342
  484MOL0     H65321   5.927   0.675   4.283 -1.0018 -0.4587  0.7679
  484MOL0     H65322   6.940   0.749   4.163  0.7081  1.9055  1.5735
  484MOL0     H65323   7.172   0.662   4.100 -0.6424 -0.6478  0.3390
  484MOL0     H65324   7.550   0.447   4.166 -2.4333  1.8112  1.2157
  484MOL0     H65325   7.785   0.415   4.090 -1.1590  0.2432 -0.4206
  484MOL0     H65326   8.544   0.859   2.498  1.9516  0.3070  0.7226
  484MOL0     H65327   8.677   1.003   2.388  0.1298  1.2967  1.9693
  484MOL0     H65328   8.849   1.367   2.275 -0.1078  0.0885  0.3357
  484MOL0     H65329   9.007   1.503   2.162 -1.8140 -0.8859  1.1845
  484MOL0     H65330   8.888   1.749   1.809  0.7286  0.8218 -0.7242
  484MOL0     H65331   8.864   1.863   1.943 -0.5143 -0.8978  0.4728
  484MOL0     H65332   9.140   1.863   1.924 -1.4963 -1.5316  1.4869
  484MOL0     H65333   9.040   1.938   1.791  1.3922  0.8161  2.4285
  484MOL0     H65334   9.083   1.729   1.668  2.3283  1.4566 -2.1528
  484MOL0     H65335   9.164   1.655   1.808  3.3387  0.9311  0.4881
  484MOL0     H65336   9.260   1.917   1.702 -0.2536 -0.5407 -3.0084
  484MOL0     H65337   9.290   1.765   1.616 -0.2406  1.0023 -0.4079
  484MOL0     H65338   9.579   1.709   1.905 -1.6491 -3.5382  1.5922
  484MOL0     H65339   8.690   1.682   1.934 -1.0129 -0.9360 -1.5603
  484MOL0     H65340   8.536   1.541   2.015 -0.6133  4.1751  0.5455
  485MOL0     O65341   7.416   6.928   0.311 -0.4999  0.0036  0.0173
  485MOL0     C65342   7.415   7.029   0.240 -0.5085 -0.3558 -0.4588
  485MOL0     O65343   7.314   7.113   0.230 -0.2284 -0.5606 -0.5570
  485MOL0     C65344   7.201   7.081   0.289  0.5483 -1.0890 -1.0631
  485MOL0     C65345   7.190   7.058   0.426  0.4040 -0.4748  0.5249
  485MOL0     C65346   7.065   7.019   0.481  0.3035  0.7638  0.0668
  485MOL0     C65347   6.954   7.003   0.403  0.1230 -0.5662 -0.3511
  485MOL0     O65348   6.834   6.961   0.466 -0.0893 -0.1012 -0.4966
  485MOL0     C65349   6.711   6.927   0.396 -0.4154 -1.0258 -0.1679
  485MOL0     C65350   6.605   6.908   0.502  0.7498  0.4533 -0.7212
  485MOL0     C65351   6.482   6.859   0.425  0.1497 -0.0399  0.7732
  485MOL0     C65352   6.359   6.859   0.520  0.3124 -0.2877 -0.4987
  485MOL0     C65353   6.245   6.770   0.471  0.0301 -0.6608 -0.3260
  485MOL0     C65354   6.136   6.774   0.586  0.3187 -0.5380  0.6244
  485MOL0     C65355   6.022   6.680   0.555  0.5536  0.6274  0.1407
  485MOL0     C65356   5.894   6.740   0.501  0.3829  0.1778 -0.2689
  485MOL0     N65357   5.815   6.622   0.456  0.1381  0.1544 -0.0268
  485MOL0     C65358   5.715   6.569   0.535  0.3987  0.4071 -0.2943
  485MOL0     C65359   5.678   6.460   0.469 -1.1928 -0.7917  0.9963
  485MOL0     C65360   5.579   6.361   0.505  0.3486  0.6723  0.7005
  485MOL0     C65361   5.449   6.426   0.466  0.4649  0.5575 -0.1049
  485MOL0     C65362   5.336   6.327   0.512 -0.6254 -0.1370  1.0006
  485MOL0     C65363   5.311   6.309   0.662  0.2492  0.3370 -0.0021
  485MOL0     O65364   5.284   6.438   0.720 -0.1719 -0.1265  0.1611
  485MOL0     C65365   5.148   6.468   0.751  0.3525  0.4352 -0.5328
  485MOL0     C65366   5.122   6.571   0.832 -0.0544  0.5288  0.6324
  485MOL0     C65367   4.995   6.596   0.890  0.0528 -0.4408  0.0589
  485MOL0     C65368   4.990   6.705   0.994 -0.0271 -1.0795  0.2890
  485MOL0     C65369   4.884   6.517   0.861 -0.1976 -0.2465  0.0455
  485MOL0     C65370   4.748   6.543   0.908  0.8689 -0.5859  0.0150
  485MOL0     O65371   4.706   6.663   0.955 -0.2304  0.7378  0.1056
  485MOL0     C65372   4.572   6.690   0.921  0.0990  0.5276  0.0867
  485MOL0     C65373   4.523   6.690   0.793  0.5644 -0.0890  0.2045
  485MOL0     C65374   4.384   6.726   0.767 -0.0499 -0.1323  0.2596
  485MOL0     C65375   4.294   6.760   0.868  0.4348 -0.1557 -0.0935
  485MOL0     O65376   4.160   6.796   0.852 -0.6084 -0.0349  0.4023
  485MOL0     C65377   4.108   6.807   0.720 -0.1246  0.7181  0.0305
  485MOL0     C65378   3.952   6.808   0.722 -0.5670  0.4789 -0.0422
  485MOL0     C65379   3.881   6.795   0.586 -0.3208 -0.3708  0.0293
  485MOL0     C65380   3.732   6.780   0.603  0.3466  0.3653 -0.6643
  485MOL0     C65381   3.673   6.771   0.458  0.0949 -0.2376 -0.4269
  485MOL0     C65382   3.525   6.730   0.466 -0.8300 -0.8486 -0.6524
  485MOL0     C65383   3.452   6.705   0.330 -0.2654 -0.2075 -0.1641
  485MOL0     C65384   3.298   6.690   0.343  0.2603  0.1546 -0.1590
  485MOL0    Cl65385   3.223   6.703   0.182  0.4788 -0.2339  0.0248
  485MOL0     C65386   4.352   6.764   0.991 -0.2395 -0.2193  1.3587
  485MOL0     C65387   4.487   6.732   1.023  0.4382  0.0986 -0.0728
  485MOL0     O65388   4.670   6.447   0.882 -1.0775 -1.1536  0.7902
  485MOL0     C65389   4.913   6.418   0.760  0.2281 -0.2197  0.1165
  485MOL0     C65390   5.041   6.393   0.706 -0.3384 -0.4659  0.3986
  485MOL0     N65391   5.753   6.441   0.351 -0.4706  0.1633  0.1475
  485MOL0     N65392   5.828   6.545   0.344  0.1834  0.1097  0.0426
  485MOL0     C65393   6.967   7.031   0.269  0.4906 -0.1956  0.7058
  485MOL0     C65394   7.090   7.067   0.212 -0.5913 -0.7761  0.1780
  485MOL0     C65395   7.539   7.081   0.192 -0.2295 -0.2397  0.2412
  485MOL0     C65396   7.658   7.024   0.237  0.5408 -0.2407 -0.4325
  485MOL0     C65397   7.788   7.062   0.196 -0.6091 -0.4781  0.6097
  485MOL0     C65398   7.801   7.175   0.106  0.1691  0.5832  0.3534
  485MOL0     O65399   7.932   7.207   0.084  0.6568 -0.1472  0.2619
  485MOL0     C65400   7.955   7.326   0.007  0.6405 -0.5114 -0.1793
  485MOL0     C65401   8.103   7.377   0.019 -0.8958 -0.6291  0.0799
  485MOL0     C65402   8.140   7.474  -0.096 -0.0654  0.8004  0.0996
  485MOL0     C65403   8.262   7.564  -0.065  0.5538 -0.2899 -0.1861
  485MOL0     C65404   8.289   7.640  -0.173 -1.0419 -0.9219 -0.0918
  485MOL0     C65405   8.305   7.713  -0.269  0.4026  0.5308  0.2621
  485MOL0     C65406   7.680   7.241   0.068 -0.6632 -1.0789 -0.7813
  485MOL0     C65407   7.554   7.191   0.100  0.7473  0.4256  0.3447
  485MOL0     H65408   7.276   7.062   0.492  0.2102 -0.9685  0.8140
  485MOL0     H65409   7.066   7.016   0.590 -1.2085 -1.1031  0.0786
  485MOL0     H65410   6.687   7.018   0.341  0.3654 -0.6649  0.0769
  485MOL0     H65411   6.712   6.841   0.328 -3.9585 -0.6636 -0.8795
  485MOL0     H65412   6.648   6.833   0.569 -0.3421  1.3409  1.0331
  485MOL0     H65413   6.581   6.999   0.557  0.4857 -0.9757  1.6755
  485MOL0     H65414   6.460   6.942   0.357 -0.3633 -1.6803 -1.1806
  485MOL0     H65415   6.509   6.766   0.374 -2.7684 -0.4586 -0.2091
  485MOL0     H65416   6.388   6.832   0.622 -0.0649 -0.7817 -0.5202
  485MOL0     H65417   6.333   6.964   0.536 -2.2781 -0.1975 -4.0984
  485MOL0     H65418   6.198   6.802   0.377 -2.6028 -0.9949  0.8039
  485MOL0     H65419   6.281   6.669   0.451  0.1826 -0.3076 -2.0092
  485MOL0     H65420   6.183   6.756   0.683  0.7916  3.9217  1.4234
  485MOL0     H65421   6.098   6.876   0.597 -2.8233 -1.4400 -0.7989
  485MOL0     H65422   6.054   6.599   0.489 -1.3645  0.4631 -0.6270
  485MOL0     H65423   5.994   6.633   0.650 -2.6293  0.5900 -0.7085
  485MOL0     H65424   5.913   6.807   0.417  2.3529  0.9063  0.6826
  485MOL0     H65425   5.827   6.798   0.565 -0.4485 -1.0569  0.0270
  485MOL0     H65426   5.681   6.618   0.626  1.4064  0.6119 -0.0254
  485MOL0     H65427   5.601   6.263   0.462  2.1662  1.3072  0.0610
  485MOL0     H65428   5.589   6.338   0.611  1.4831 -0.4907  0.3666
  485MOL0     H65429   5.446   6.455   0.361  0.8867  0.7763 -0.0585
  485MOL0     H65430   5.441   6.520   0.522 -1.1431  0.6840 -0.4890
  485MOL0     H65431   5.354   6.232   0.461 -0.5970  0.4687 -0.1596
  485MOL0     H65432   5.245   6.371   0.471  1.1830  1.2270 -1.9598
  485MOL0     H65433   5.396   6.266   0.715 -0.4923  0.9227  1.7119
  485MOL0     H65434   5.230   6.237   0.681 -0.2725  1.3222  1.7248
  485MOL0     H65435   5.210   6.630   0.855 -0.1372  2.0356 -2.4264
  485MOL0     H65436   5.082   6.763   0.982 -0.1255 -0.9701  0.0770
  485MOL0     H65437   4.909   6.776   0.979  2.5099  2.9265  3.3889
  485MOL0     H65438   4.988   6.670   1.098  0.3352  0.0827  0.6992
  485MOL0     H65439   4.585   6.666   0.707  0.8735 -2.8159  1.0735
  485MOL0     H65440   4.356   6.717   0.662 -0.7752  0.1280  0.4257
  485MOL0     H65441   4.138   6.899   0.669 -1.0838  1.7785  1.3101
  485MOL0     H65442   4.137   6.722   0.656 -0.7400  1.1235 -0.7997
  485MOL0     H65443   3.919   6.724   0.784  2.2073 -0.8075 -0.1393
  485MOL0     H65444   3.926   6.900   0.774 -0.0193 -0.4251  1.9427
  485MOL0     H65445   3.924   6.717   0.523 -0.1592  0.1879 -0.5734
  485MOL0     H65446   3.887   6.896   0.543  2.9017 -0.1264  0.7559
  485MOL0     H65447   3.705   6.687   0.655  0.1620 -1.5447 -3.8659
  485MOL0     H65448   3.694   6.868   0.655 -3.5523 -1.7971  0.5691
  485MOL0     H65449   3.724   6.707   0.385 -0.6602  0.6485 -1.7758
  485MOL0     H65450   3.685   6.868   0.408  1.1759 -0.4888 -0.6768
  485MOL0     H65451   3.527   6.629   0.508 -2.8716 -1.5994 -2.1491
  485MOL0     H65452   3.465   6.805   0.520  1.1916  1.4360 -1.3897
  485MOL0     H65453   3.487   6.615   0.280 -0.5701 -0.4892  0.1294
  485MOL0     H65454   3.479   6.795   0.274 -1.2889 -1.3662 -2.6375
  485MOL0     H65455   3.258   6.766   0.411 -1.5929 -1.1364  0.2458
  485MOL0     H65456   3.271   6.592   0.381 -5.0524  0.1800 -2.8655
  485MOL0     H65457   4.273   6.792   1.058 -0.3535 -0.2213  1.2263
  485MOL0     H65458   4.516   6.747   1.127  0.5782  3.4925 -0.4791
  485MOL0     H65459   4.841   6.358   0.706 -0.5740  3.1632 -3.0523
  485MOL0     H65460   5.046   6.310   0.636 -3.4329 -1.4190  1.1302
  485MOL0     H65461   6.882   7.012   0.206  0.7964 -1.6287  0.6962
  485MOL0     H65462   7.104   7.075   0.105  0.0659  1.8139  0.3975
  485MOL0     H65463   7.645   6.941   0.306 -0.7920  1.5567  1.6023
  485MOL0     H65464   7.878   7.017   0.238  0.2201  0.8665  0.3717
  485MOL0     H65465   7.951   7.300  -0.099 -0.2367  1.6405 -0.7121
  485MOL0     H65466   7.876   7.397   0.030 -2.1125 -3.2541 -0.4943
  485MOL0     H65467   8.165   7.288   0.011  0.5307  0.5073 -3.6555
  485MOL0     H65468   8.109   7.420   0.120 -0.3640  1.1024 -0.6493
  485MOL0     H65469   8.058   7.540  -0.125 -0.3522  0.4666  0.1388
  485MOL0     H65470   8.172   7.404  -0.174 -1.5734 -1.6750  1.5620
  485MOL0     H65471   8.350   7.507  -0.035  1.6634  1.2656 -0.3672
  485MOL0     H65472   8.231   7.617   0.025 -3.0384 -0.3229 -1.2307
  485MOL0     H65473   8.309   7.785  -0.348 -0.4227 -0.4003 -0.6589
  485MOL0     H65474   7.686   7.333   0.011 -1.2998  0.9198  2.1678
  485MOL0     H65475   7.464   7.230   0.055 -0.0675  0.1452  1.6725
  486MOL0     O65476   9.083   4.324   3.584  0.2852 -0.7450  0.1269
  486MOL0     C65477   9.168   4.330   3.673  0.8443 -0.4298 -0.8045
  486MOL0     O65478   9.158   4.273   3.796 -0.6481  0.0504 -0.1655
  486MOL0     C65479   9.045   4.213   3.817 -0.0294  0.3916  0.7098
  486MOL0     C65480   8.936   4.287   3.868 -0.2910 -0.7279  0.1620
  486MOL0     C65481   8.812   4.237   3.888 -0.0538 -0.2026 -0.2138
  486MOL0     C65482   8.795   4.094   3.873  0.7842  0.5148  0.4977
  486MOL0     O65483   8.675   4.033   3.905  0.5903 -0.1364  0.6998
  486MOL0     C65484   8.549   4.105   3.881  0.0759 -0.5638 -0.4037
  486MOL0     C65485   8.447   4.072   3.983  0.1628  0.7921 -0.2799
  486MOL0     C65486   8.402   3.919   3.961 -0.1915  0.3127 -0.5963
  486MOL0     C65487   8.273   3.890   4.041 -0.1042 -0.4831  0.0423
  486MOL0     C65488   8.283   3.912   4.189 -0.1974  0.3117 -0.4167
  486MOL0     C65489   8.164   3.851   4.264 -0.4062 -0.5164  0.5402
  486MOL0     C65490   8.198   3.826   4.413 -0.4170  0.3119  0.0350
  486MOL0     C65491   8.265   3.690   4.435 -0.4999 -0.4588 -0.1445
  486MOL0     N65492   8.192   3.572   4.392  0.6676  0.4809  0.9948
  486MOL0     C65493   8.059   3.549   4.415 -0.7964  0.1971 -0.3217
  486MOL0     C65494   8.025   3.447   4.328  0.2816 -0.5678 -0.0474
  486MOL0     C65495   7.892   3.371   4.335 -0.2929  0.1725  0.2358
  486MOL0     C65496   7.767   3.445   4.387 -0.8648 -0.4629  0.5993
  486MOL0     C65497   7.647   3.342   4.356  0.0211  0.4351 -0.0937
  486MOL0     C65498   7.519   3.421   4.390  0.5849  0.1501  0.6135
  486MOL0     O65499   7.415   3.324   4.413  0.0312  0.6472  0.3363
  486MOL0     C65500   7.290   3.374   4.454  0.7193 -0.8476  0.0657
  486MOL0     C65501   7.185   3.287   4.474  0.1992  0.4409 -0.3501
  486MOL0     C65502   7.060   3.325   4.522  0.1977  0.5058 -0.6526
  486MOL0     C65503   6.931   3.243   4.522  0.0061  0.6790 -0.9275
  486MOL0     C65504   7.043   3.451   4.575 -0.5557 -0.2878  0.4061
  486MOL0     C65505   6.920   3.495   4.632  0.2795 -0.6281 -0.2352
  486MOL0     O65506   6.823   3.525   4.543  0.4212  0.2449 -0.4277
  486MOL0     C65507   6.693   3.537   4.581 -0.7406 -0.6569 -0.6028
  486MOL0     C65508   6.626   3.494   4.696 -0.0294  0.5148  0.1357
  486MOL0     C65509   6.487   3.516   4.713 -0.4934 -0.1575 -0.2475
  486MOL0     C65510   6.414   3.589   4.621 -0.2157 -0.4121 -0.7622
  486MOL0     O65511   6.283   3.614   4.649  0.4506 -0.0120 -0.3209
  486MOL0     C65512   6.233   3.614   4.780 -0.5703 -0.1155  0.6641
  486MOL0     C65513   6.110   3.702   4.802  0.4347 -0.8482 -0.0011
  486MOL0     C65514   6.033   3.652   4.922  0.1225 -0.3235 -0.3210
  486MOL0     C65515   5.919   3.747   4.965  0.7584  0.4680 -0.2991
  486MOL0     C65516   5.837   3.687   5.077  0.8261 -0.0941 -0.4827
  486MOL0     C65517   5.716   3.789   5.110  0.0025 -0.7153 -0.1990
  486MOL0     C65518   5.767   3.935   5.152  0.0548 -0.4372  0.0104
  486MOL0     C65519   5.853   3.950   5.281  0.6747 -0.5781 -0.0849
  486MOL0    Cl65520   5.831   4.109   5.369 -0.0566 -0.1891 -0.2164
  486MOL0     C65521   6.482   3.632   4.507  0.3442 -0.6130 -1.2025
  486MOL0     C65522   6.616   3.612   4.488  1.1135  1.1294 -0.5980
  486MOL0     O65523   6.914   3.507   4.752 -0.4927  0.3580  0.3937
  486MOL0     C65524   7.142   3.545   4.553  0.4999  0.6032  0.4097
  486MOL0     C65525   7.263   3.502   4.500 -0.0835  0.0425  0.2102
  486MOL0     N65526   8.139   3.405   4.265  1.3188 -0.4160 -0.3718
  486MOL0     N65527   8.234   3.479   4.296  0.4531 -0.9237  0.5666
  486MOL0     C65528   8.902   4.017   3.828  0.4203 -0.2927  0.4612
  486MOL0     C65529   9.023   4.078   3.791  0.0465 -0.1698 -0.3912
  486MOL0     C65530   9.290   4.403   3.641 -0.3886  0.0611  0.7555
  486MOL0     C65531   9.330   4.431   3.507 -0.7261  0.0968 -0.7720
  486MOL0     C65532   9.445   4.514   3.478  0.3312 -0.5469 -0.8169
  486MOL0     C65533   9.524   4.560   3.580  0.0359 -0.1908  0.5282
  486MOL0     O65534   9.645   4.616   3.569  0.5880  0.1407  0.0499
  486MOL0     C65535   9.697   4.655   3.436  0.0513  0.7524  0.0383
  486MOL0     C65536   9.840   4.714   3.460  0.0395  1.0295  0.0099
  486MOL0     C65537   9.913   4.734   3.329 -0.6012 -0.7170 -0.3651
  486MOL0     C65538  10.059   4.744   3.345  0.1157  0.2628 -0.0944
  486MOL0     C65539  10.101   4.847   3.443  0.7973 -0.6601  0.4736
  486MOL0     C65540  10.127   4.943   3.513  0.5251  0.0810 -0.0410
  486MOL0     C65541   9.479   4.543   3.714  0.1310  0.2219 -0.0212
  486MOL0     C65542   9.366   4.461   3.746 -0.2382  0.5874  0.5371
  486MOL0     H65543   8.935   4.396   3.865 -0.3690 -0.7434 -2.3096
  486MOL0     H65544   8.736   4.308   3.919  0.4544 -0.3455  1.5024
  486MOL0     H65545   8.556   4.214   3.891 -0.9043 -0.4846 -0.4476
  486MOL0     H65546   8.509   4.081   3.782 -0.5217 -2.0647  0.1830
  486MOL0     H65547   8.488   4.091   4.082 -0.0768  1.5151 -0.3151
  486MOL0     H65548   8.355   4.129   3.964  1.2069  1.7715 -2.8537
  486MOL0     H65549   8.369   3.906   3.857 -2.5927 -1.8809  0.3215
  486MOL0     H65550   8.485   3.855   3.988  1.1271  3.0122  2.3640
  486MOL0     H65551   8.186   3.945   4.006  1.4875  1.1546 -1.5539
  486MOL0     H65552   8.247   3.786   4.020 -2.5216  0.2023 -0.6206
  486MOL0     H65553   8.375   3.870   4.231 -0.7756  1.6655  2.4610
  486MOL0     H65554   8.285   4.020   4.205  0.7878  0.0565  1.4375
  486MOL0     H65555   8.077   3.917   4.256 -0.8641 -1.3628 -4.0741
  486MOL0     H65556   8.127   3.758   4.219 -1.7687  0.1645  0.2017
  486MOL0     H65557   8.262   3.902   4.459 -0.3720  1.7376 -2.1812
  486MOL0     H65558   8.106   3.833   4.472 -0.9215  0.7150 -0.7709
  486MOL0     H65559   8.263   3.673   4.543 -2.3904 -2.1706 -0.3667
  486MOL0     H65560   8.364   3.691   4.389 -0.0291  1.4400  0.8301
  486MOL0     H65561   7.999   3.592   4.494 -2.0295 -2.3287  0.2438
  486MOL0     H65562   7.869   3.342   4.232 -1.1520  0.1975  0.4102
  486MOL0     H65563   7.908   3.278   4.390  0.8139 -0.2236 -0.7213
  486MOL0     H65564   7.744   3.542   4.340 -0.2950 -0.3199  0.6136
  486MOL0     H65565   7.761   3.473   4.493 -1.4201  3.8637 -0.3875
  486MOL0     H65566   7.657   3.251   4.416  0.5593  1.0310  0.7402
  486MOL0     H65567   7.646   3.312   4.251  1.0913 -1.7093  0.4554
  486MOL0     H65568   7.498   3.481   4.302 -1.1262 -4.8312 -2.8295
  486MOL0     H65569   7.541   3.489   4.473  2.1989  1.7338 -1.0118
  486MOL0     H65570   7.194   3.183   4.445 -0.6251 -0.3669  2.0145
  486MOL0     H65571   6.958   3.141   4.496 -0.6316 -0.2624  1.8466
  486MOL0     H65572   6.888   3.238   4.622 -0.9643 -1.2374 -1.3996
  486MOL0     H65573   6.858   3.291   4.456  1.8465  1.5763 -2.4183
  486MOL0     H65574   6.676   3.448   4.781 -2.3879  1.0656  1.8917
  486MOL0     H65575   6.443   3.474   4.803 -0.0528 -3.6302 -1.5272
  486MOL0     H65576   6.213   3.509   4.807 -3.1553  0.5336  1.5877
  486MOL0     H65577   6.307   3.649   4.853  1.4556 -2.4208 -0.1588
  486MOL0     H65578   6.140   3.805   4.826  0.7572 -1.3684  2.0413
  486MOL0     H65579   6.044   3.708   4.715  1.3905  2.7499 -0.6306
  486MOL0     H65580   6.107   3.640   5.002  0.5643 -0.1196 -0.6901
  486MOL0     H65581   5.990   3.557   4.892 -1.5383  0.2959  0.0006
  486MOL0     H65582   5.966   3.832   5.015 -0.6572  1.4779 -0.6248
  486MOL0     H65583   5.858   3.776   4.879  1.4493 -1.1653 -1.3880
  486MOL0     H65584   5.895   3.670   5.168  1.2195  0.9800 -0.5145
  486MOL0     H65585   5.796   3.592   5.042  1.8612 -0.4203 -0.8685
  486MOL0     H65586   5.660   3.797   5.016  2.1636 -2.4852 -1.7554
  486MOL0     H65587   5.647   3.743   5.181  0.6653 -2.3755 -0.5795
  486MOL0     H65588   5.671   3.987   5.159 -0.5149 -1.3470 -0.8065
  486MOL0     H65589   5.822   3.978   5.068  0.6275 -0.4509  0.3753
  486MOL0     H65590   5.958   3.957   5.251  0.0193  1.8271 -2.2386
  486MOL0     H65591   5.851   3.870   5.355  0.2216  0.8036  1.4629
  486MOL0     H65592   6.437   3.698   4.435  0.5228  4.3773  2.7184
  486MOL0     H65593   6.658   3.634   4.391  1.4041 -1.0176 -0.9937
  486MOL0     H65594   7.124   3.647   4.584  3.5064  0.9326  1.4190
  486MOL0     H65595   7.346   3.571   4.492 -0.1669  0.3226  1.5503
  486MOL0     H65596   8.885   3.912   3.806 -0.3994  0.1576 -1.1506
  486MOL0     H65597   9.105   4.032   3.737  2.6618  0.4741  2.6691
  486MOL0     H65598   9.271   4.388   3.426  0.4632  1.0212 -2.1633
  486MOL0     H65599   9.472   4.550   3.380  0.4668 -0.6955 -0.8348
  486MOL0     H65600   9.709   4.572   3.366 -0.4156  0.0165  0.8075
  486MOL0     H65601   9.624   4.725   3.393 -0.4059  0.9552  1.0894
  486MOL0     H65602   9.901   4.643   3.517  0.8972  2.5970  1.1146
  486MOL0     H65603   9.838   4.803   3.523 -2.2554  0.6142  0.6078
  486MOL0     H65604   9.869   4.826   3.289 -1.3575 -0.1082  1.7655
  486MOL0     H65605   9.890   4.651   3.261 -1.1355  0.2357 -1.3755
  486MOL0     H65606  10.117   4.771   3.257  0.5892  1.4935  0.5742
  486MOL0     H65607  10.085   4.644   3.382  0.5040  0.4148  0.0381
  486MOL0     H65608  10.142   5.035   3.566 -0.5836 -0.2158  0.8253
  486MOL0     H65609   9.548   4.568   3.794  1.0623 -0.8513 -0.4678
  486MOL0     H65610   9.347   4.447   3.852  0.4338  0.0397  0.5882
  487MOL0     O65611   6.946   9.289   3.644 -0.1008 -0.0422 -0.1838
  487MOL0     C65612   6.995   9.217   3.728 -0.1854 -0.0725 -0.1190
  487MOL0     O65613   6.941   9.100   3.779 -0.0013 -0.5451 -0.7456
  487MOL0     C65614   6.814   9.051   3.748 -0.8343  0.0555  0.3021
  487MOL0     C65615   6.790   8.920   3.798 -0.1996  0.4854 -0.4281
  487MOL0     C65616   6.662   8.867   3.777 -0.1906  0.4460  0.1151
  487MOL0     C65617   6.567   8.938   3.697  1.0981 -0.6018  0.0614
  487MOL0     O65618   6.442   8.880   3.687 -0.0824  0.7197  0.1337
  487MOL0     C65619   6.330   8.975   3.678  0.6541  0.4463 -0.3488
  487MOL0     C65620   6.231   8.922   3.574 -0.4698  0.0264  0.1549
  487MOL0     C65621   6.098   8.995   3.600  0.3158 -0.6158  0.6906
  487MOL0     C65622   5.996   8.979   3.481 -0.6968  0.5674  0.8960
  487MOL0     C65623   5.850   9.024   3.515  0.0236  0.2641  0.4229
  487MOL0     C65624   5.784   8.991   3.655  0.0701  0.1512 -0.2244
  487MOL0     C65625   5.628   9.002   3.652 -0.3600  0.0409  0.4998
  487MOL0     C65626   5.574   9.143   3.614  0.0113 -0.0866 -0.4805
  487MOL0     N65627   5.425   9.150   3.638 -0.1937  0.1633 -0.2271
  487MOL0     C65628   5.356   9.168   3.760 -0.0364 -0.1609  0.3031
  487MOL0     C65629   5.223   9.187   3.727 -0.6344  0.3943 -0.3710
  487MOL0     C65630   5.131   9.222   3.840  0.0939 -0.0002 -0.2800
  487MOL0     C65631   4.978   9.186   3.831  0.3341 -0.5266 -0.7111
  487MOL0     C65632   4.933   9.178   3.981 -0.1277  0.9087 -0.3537
  487MOL0     C65633   4.787   9.206   4.016  0.3159 -0.4507 -0.0065
  487MOL0     O65634   4.747   9.141   4.134 -0.5416  0.2472  0.3489
  487MOL0     C65635   4.614   9.137   4.152  0.6849 -0.5635 -0.2326
  487MOL0     C65636   4.536   9.247   4.141 -0.0270 -0.4132 -0.8570
  487MOL0     C65637   4.401   9.251   4.177  0.4531 -0.3716 -0.0317
  487MOL0     C65638   4.327   9.386   4.169 -0.4610 -0.1675  0.3145
  487MOL0     C65639   4.343   9.123   4.220  0.3788 -0.2773 -0.1738
  487MOL0     C65640   4.197   9.106   4.274 -0.4191 -1.2819 -0.7224
  487MOL0     O65641   4.134   9.221   4.311  0.4373 -0.6353 -0.1019
  487MOL0     C65642   3.998   9.235   4.328  0.1029  0.3424  0.2417
  487MOL0     C65643   3.930   9.226   4.453 -0.4143 -0.4798 -0.4562
  487MOL0     C65644   3.790   9.241   4.460  0.1613  0.1528 -0.4109
  487MOL0     C65645   3.706   9.242   4.351  0.1528 -0.3056 -0.7077
  487MOL0     O65646   3.564   9.240   4.375  0.2032 -0.1424  0.1416
  487MOL0     C65647   3.487   9.241   4.250 -1.1719 -0.5768  0.3535
  487MOL0     C65648   3.336   9.237   4.291 -0.5280  0.1186 -0.0536
  487MOL0     C65649   3.239   9.216   4.174  0.3260 -0.1219  0.1278
  487MOL0     C65650   3.096   9.192   4.234 -0.0886 -0.2322 -0.7305
  487MOL0     C65651   2.978   9.164   4.135  0.2589 -0.9912 -0.0490
  487MOL0     C65652   2.849   9.134   4.210  0.7784 -0.1379  0.1548
  487MOL0     C65653   2.731   9.101   4.119  0.1719  0.3659  0.2269
  487MOL0     C65654   2.600   9.114   4.185 -0.4831 -0.1586 -0.0232
  487MOL0    Cl65655   2.454   9.132   4.088 -0.0406 -0.0935 -0.5128
  487MOL0     C65656   3.771   9.242   4.225  0.5954  0.8750  0.2268
  487MOL0     C65657   3.914   9.238   4.217  0.3389 -0.4008 -0.2746
  487MOL0     O65658   4.154   9.004   4.300 -0.3744  0.2031  0.1722
  487MOL0     C65659   4.424   9.008   4.231 -0.5762 -0.4551 -0.1047
  487MOL0     C65660   4.559   9.017   4.198  0.3292 -0.9207  0.3418
  487MOL0     N65661   5.215   9.181   3.591  0.1517 -0.9840  0.2533
  487MOL0     N65662   5.335   9.166   3.540 -0.4834  0.4419 -0.3532
  487MOL0     C65663   6.605   9.049   3.627  0.4344 -0.2427 -0.0919
  487MOL0     C65664   6.719   9.115   3.659  0.7472  0.0512  0.2879
  487MOL0     C65665   7.138   9.233   3.746 -0.2384  0.6486  0.5463
  487MOL0     C65666   7.207   9.171   3.852 -0.5118  0.2904  0.5852
  487MOL0     C65667   7.345   9.176   3.857 -0.5964 -0.4454 -0.4220
  487MOL0     C65668   7.423   9.249   3.767  0.2340 -0.7776  0.1395
  487MOL0     O65669   7.556   9.268   3.763  0.3241  0.1693  0.4236
  487MOL0     C65670   7.636   9.233   3.871 -0.3482  0.1734 -0.1991
  487MOL0     C65671   7.665   9.078   3.865  1.0342 -0.3281 -0.3817
  487MOL0     C65672   7.777   9.030   3.964 -0.7324 -0.6047 -0.2067
  487MOL0     C65673   7.918   9.051   3.909  0.1727 -0.5837  0.4080
  487MOL0     C65674   8.029   9.026   3.996 -0.3934  0.4074 -0.1796
  487MOL0     C65675   8.125   9.010   4.071  0.9095 -0.2751 -0.0448
  487MOL0     C65676   7.353   9.315   3.661  0.0666 -1.1533  0.2438
  487MOL0     C65677   7.218   9.306   3.653 -0.1259 -0.1426  0.4805
  487MOL0     H65678   6.871   8.873   3.853 -0.2939  0.3175 -0.4330
  487MOL0     H65679   6.652   8.766   3.816  2.6314  0.4749  1.1706
  487MOL0     H65680   6.282   8.980   3.776 -0.0609 -1.2514 -0.5831
  487MOL0     H65681   6.355   9.072   3.634  1.1131 -0.0755 -1.2698
  487MOL0     H65682   6.274   8.942   3.475 -0.6448  0.5622  0.1859
  487MOL0     H65683   6.210   8.815   3.585 -0.9809 -0.1318 -1.9004
  487MOL0     H65684   6.056   8.964   3.696  1.8634  1.9955  2.3486
  487MOL0     H65685   6.111   9.104   3.610 -1.1750 -0.4644  1.2717
  487MOL0     H65686   6.039   9.043   3.403  0.9641 -0.5099  0.8790
  487MOL0     H65687   5.998   8.876   3.444 -0.2333  1.2481 -1.0999
  487MOL0     H65688   5.858   9.132   3.500 -1.6226  0.0537 -2.8264
  487MOL0     H65689   5.783   8.992   3.435  1.9719  0.9349 -1.5653
  487MOL0     H65690   5.809   8.892   3.694 -1.9170 -0.0159  0.7665
  487MOL0     H65691   5.824   9.062   3.727  1.2382  0.5753 -1.2441
  487MOL0     H65692   5.585   8.920   3.595  0.3516 -1.2277  1.7177
  487MOL0     H65693   5.599   8.978   3.755 -0.5724  0.4632  0.5421
  487MOL0     H65694   5.595   9.164   3.508  1.6073 -0.4994 -0.2847
  487MOL0     H65695   5.629   9.219   3.672 -0.1287  0.8986 -1.6030
  487MOL0     H65696   5.395   9.156   3.861  1.2177  1.4756  0.0558
  487MOL0     H65697   5.166   9.166   3.926 -0.8904 -0.6975 -0.3163
  487MOL0     H65698   5.146   9.330   3.856  0.8926 -0.1448 -0.0255
  487MOL0     H65699   4.965   9.093   3.775  3.3725 -1.5563  0.1082
  487MOL0     H65700   4.923   9.261   3.773 -0.8497  0.5720  1.6946
  487MOL0     H65701   4.996   9.252   4.031 -2.1948  2.7145 -0.2800
  487MOL0     H65702   4.956   9.080   4.023 -1.2265  0.5949 -0.4567
  487MOL0     H65703   4.732   9.167   3.931  3.0684 -4.1560 -0.3446
  487MOL0     H65704   4.771   9.314   4.026 -0.6206 -0.7341  2.1186
  487MOL0     H65705   4.583   9.340   4.112 -0.1264  0.3260  1.1846
  487MOL0     H65706   4.273   9.412   4.261 -3.9186  0.1498 -1.6396
  487MOL0     H65707   4.396   9.465   4.136  0.8077 -2.0000 -1.6408
  487MOL0     H65708   4.245   9.379   4.097 -0.6006  0.8494  0.3556
  487MOL0     H65709   3.978   9.216   4.550 -2.7279  2.2219  1.1237
  487MOL0     H65710   3.746   9.243   4.560 -0.1796 -2.5007 -0.4337
  487MOL0     H65711   3.506   9.338   4.205  0.3710 -0.8759  0.3163
  487MOL0     H65712   3.514   9.156   4.187  0.9459 -1.7408  2.6233
  487MOL0     H65713   3.328   9.150   4.357 -1.2970 -0.5223 -0.9821
  487MOL0     H65714   3.306   9.324   4.351 -0.4152  0.7970 -0.9677
  487MOL0     H65715   3.252   9.123   4.118 -2.5651 -0.3411 -0.3236
  487MOL0     H65716   3.246   9.298   4.102 -0.1455  0.0061  0.2214
  487MOL0     H65717   3.108   9.102   4.296 -0.7350 -0.2359 -0.6015
  487MOL0     H65718   3.069   9.268   4.308  0.2353  0.2260 -1.0827
  487MOL0     H65719   3.002   9.082   4.066  1.3665  0.7917 -1.8691
  487MOL0     H65720   2.957   9.248   4.069 -4.2200 -2.5877 -1.0697
  487MOL0     H65721   2.883   9.046   4.266  1.5618 -0.0852 -0.2343
  487MOL0     H65722   2.823   9.218   4.275 -1.4828 -1.6134  1.3133
  487MOL0     H65723   2.740   8.998   4.083 -3.6609  1.2540 -4.2297
  487MOL0     H65724   2.720   9.164   4.030 -1.1845  0.7101  0.6077
  487MOL0     H65725   2.591   9.204   4.246 -1.6458 -0.0229 -0.3760
  487MOL0     H65726   2.588   9.030   4.254 -1.3018 -0.7381 -0.8523
  487MOL0     H65727   3.721   9.225   4.130 -0.0234 -0.3537  0.7554
  487MOL0     H65728   3.966   9.221   4.123 -0.1211 -1.1867 -0.3889
  487MOL0     H65729   4.393   8.914   4.276 -2.5832  0.2883  0.1615
  487MOL0     H65730   4.621   8.931   4.219  0.0572 -1.9860 -2.6706
  487MOL0     H65731   6.529   9.096   3.564 -0.4127 -2.6761 -1.0156
  487MOL0     H65732   6.742   9.206   3.604  3.0230 -1.3962 -1.2988
  487MOL0     H65733   7.148   9.115   3.923 -0.7384 -0.9879 -0.5553
  487MOL0     H65734   7.411   9.127   3.928 -0.6019 -0.1898 -0.2387
  487MOL0     H65735   7.730   9.288   3.862 -0.3609  0.2025 -0.1531
  487MOL0     H65736   7.582   9.254   3.964  1.1147 -2.5443  1.4146
  487MOL0     H65737   7.690   9.052   3.762 -2.9094 -2.4561 -1.0115
  487MOL0     H65738   7.574   9.024   3.891 -0.0732  1.6086 -0.0168
  487MOL0     H65739   7.771   8.921   3.974 -0.6093 -0.6278 -0.3651
  487MOL0     H65740   7.782   9.079   4.061  0.3028  1.3322 -1.1840
  487MOL0     H65741   7.928   9.154   3.873  1.2396 -0.6413  0.4929
  487MOL0     H65742   7.926   8.986   3.821  2.5311 -0.5142  0.5127
  487MOL0     H65743   8.217   8.996   4.124  1.6578 -0.5460 -1.3953
  487MOL0     H65744   7.409   9.376   3.590  1.1732 -1.6468  0.6737
  487MOL0     H65745   7.169   9.366   3.576  0.9236 -1.9123 -1.6907
  488MOL0     O65746   7.862   3.944  11.059 -0.0713  0.0448 -0.3869
  488MOL0     C65747   7.846   4.060  11.023  0.7400 -0.3265  0.3098
  488MOL0     O65748   7.725   4.115  10.992  0.2196  0.1222  0.1378
  488MOL0     C65749   7.609   4.036  10.990  0.1222  0.3774  0.1283
  488MOL0     C65750   7.580   3.934  10.899 -0.2876 -0.0232 -0.2803
  488MOL0     C65751   7.456   3.864  10.906  1.0214 -0.4245  0.2121
  488MOL0     C65752   7.365   3.889  11.011 -0.0705 -0.7915  0.1041
  488MOL0     O65753   7.237   3.844  11.031  0.2463 -0.1526 -0.5136
  488MOL0     C65754   7.194   3.732  10.945  0.1781 -0.4547 -0.0805
  488MOL0     C65755   7.042   3.708  10.965  0.1024 -0.2948  0.1756
  488MOL0     C65756   6.971   3.675  10.835  0.5424  0.8526 -0.4447
  488MOL0     C65757   6.815   3.682  10.864  0.1343 -0.6055 -0.0261
  488MOL0     C65758   6.748   3.643  10.730  0.3341 -1.3500  0.3774
  488MOL0     C65759   6.604   3.610  10.762 -0.1705 -0.0648 -0.1827
  488MOL0     C65760   6.531   3.737  10.814  0.7980  0.4093  0.1326
  488MOL0     C65761   6.390   3.699  10.819 -0.1601 -0.4175  0.2106
  488MOL0     N65762   6.305   3.798  10.887  0.6762  0.1286 -0.2839
  488MOL0     C65763   6.298   3.934  10.883 -0.2590 -0.4198  0.3687
  488MOL0     C65764   6.206   3.966  10.976  0.6767 -0.3142 -0.4692
  488MOL0     C65765   6.150   4.103  10.973 -0.4736 -0.0258 -0.2322
  488MOL0     C65766   6.083   4.157  11.101  0.1870 -0.2618 -0.7270
  488MOL0     C65767   5.944   4.083  11.135  0.3628  0.8199  0.3141
  488MOL0     C65768   5.880   4.158  11.246  0.7436 -0.3526  0.2909
  488MOL0     O65769   5.861   4.297  11.206  0.0593 -0.2667 -0.8466
  488MOL0     C65770   5.762   4.364  11.275 -0.4377  0.4132 -0.3365
  488MOL0     C65771   5.738   4.350  11.415  0.3081  0.8452  0.1607
  488MOL0     C65772   5.635   4.417  11.483 -0.2464  0.0297  0.3217
  488MOL0     C65773   5.603   4.377  11.626 -0.3601 -0.2165 -0.4721
  488MOL0     C65774   5.551   4.508  11.406  0.2911  0.1022 -0.1241
  488MOL0     C65775   5.439   4.591  11.463 -0.0832  0.4923 -0.1448
  488MOL0     O65776   5.379   4.658  11.365  0.6298 -0.3417 -0.3926
  488MOL0     C65777   5.282   4.750  11.400 -0.8449 -0.0839  0.4677
  488MOL0     C65778   5.312   4.892  11.409  0.3165 -0.8730  0.4015
  488MOL0     C65779   5.214   4.981  11.443  0.0113  0.0005  0.6452
  488MOL0     C65780   5.088   4.932  11.482 -0.9917 -0.8164 -0.5052
  488MOL0     O65781   4.994   5.020  11.538  0.3062 -0.0617 -0.2667
  488MOL0     C65782   5.012   5.165  11.522 -0.3906  0.4280 -0.3141
  488MOL0     C65783   4.921   5.236  11.620 -0.1779  0.4202  0.0567
  488MOL0     C65784   4.770   5.242  11.581  0.2005  0.5476 -0.3585
  488MOL0     C65785   4.697   5.116  11.639  0.4471 -0.1752  0.1719
  488MOL0     C65786   4.545   5.158  11.633  0.7449  0.1258 -0.2563
  488MOL0     C65787   4.484   5.143  11.501 -0.5606 -0.5570 -0.1395
  488MOL0     C65788   4.330   5.166  11.520  0.4962  0.8023 -0.3639
  488MOL0     C65789   4.234   5.082  11.434  0.4064  0.5992 -0.5673
  488MOL0    Cl65790   4.075   5.120  11.494 -0.0767  0.1813  0.2271
  488MOL0     C65791   5.058   4.798  11.463  0.0672  0.5635 -0.4028
  488MOL0     C65792   5.152   4.711  11.419 -0.3233  0.4126 -0.2599
  488MOL0     O65793   5.420   4.610  11.579 -0.7900  0.4513 -0.3064
  488MOL0     C65794   5.580   4.515  11.266 -0.1416  0.6335 -0.2851
  488MOL0     C65795   5.686   4.457  11.204 -0.1725 -0.2124  0.2116
  488MOL0     N65796   6.141   3.853  11.027  0.0720  0.4624  1.6306
  488MOL0     N65797   6.204   3.755  10.975 -0.3677 -0.5429  0.1263
  488MOL0     C65798   7.398   3.991  11.096 -0.3510  0.3940 -1.9698
  488MOL0     C65799   7.518   4.059  11.088  0.0105  0.7821 -0.3515
  488MOL0     C65800   7.948   4.171  11.055  0.6868  0.6282  0.4349
  488MOL0     C65801   8.076   4.127  11.048 -0.4488  0.5793 -0.0335
  488MOL0     C65802   8.181   4.216  11.083  0.9803  0.6618  0.3261
  488MOL0     C65803   8.148   4.349  11.126  0.4340  0.1723 -0.4287
  488MOL0     O65804   8.229   4.446  11.177  0.3621  0.4119 -0.0576
  488MOL0     C65805   8.368   4.433  11.147 -0.4083  0.0043 -1.1945
  488MOL0     C65806   8.441   4.348  11.258 -1.3627 -0.6336 -0.1898
  488MOL0     C65807   8.430   4.398  11.403 -0.9170  0.1516  0.1879
  488MOL0     C65808   8.491   4.534  11.428  1.2650 -0.5891  0.0395
  488MOL0     C65809   8.504   4.558  11.573  0.0362 -0.4064 -0.8147
  488MOL0     C65810   8.524   4.583  11.695 -0.1338 -0.5143 -0.6942
  488MOL0     C65811   8.020   4.386  11.136  0.3177  0.5371  0.9493
  488MOL0     C65812   7.916   4.298  11.095 -1.1722  0.4639 -0.0827
  488MOL0     H65813   7.654   3.909  10.823 -1.7849  2.5061 -2.7474
  488MOL0     H65814   7.437   3.791  10.829  3.0869  1.9569 -2.7949
  488MOL0     H65815   7.217   3.750  10.840 -0.1822 -3.3336 -0.7299
  488MOL0     H65816   7.246   3.643  10.980  0.9664 -1.0277 -2.5588
  488MOL0     H65817   7.014   3.632  11.039  0.9318  0.8252  1.6867
  488MOL0     H65818   6.998   3.803  10.998 -1.4104 -1.2362  0.9912
  488MOL0     H65819   6.983   3.742  10.749 -0.3978  0.6231 -0.7640
  488MOL0     H65820   6.994   3.574  10.801 -2.5317  0.2416 -0.9620
  488MOL0     H65821   6.789   3.607  10.940  2.2345 -1.2613  0.1142
  488MOL0     H65822   6.787   3.780  10.902 -3.7601 -0.7980 -1.9366
  488MOL0     H65823   6.743   3.723  10.655  0.6369 -0.5885  1.1467
  488MOL0     H65824   6.802   3.562  10.681  0.4498  0.4186 -2.6722
  488MOL0     H65825   6.548   3.569  10.677 -0.8962 -0.0785  0.2937
  488MOL0     H65826   6.612   3.535  10.841  3.2107  1.1483  0.8106
  488MOL0     H65827   6.560   3.764  10.916 -1.5826 -0.5737  1.1430
  488MOL0     H65828   6.542   3.817  10.740  0.3709  0.3612  0.0127
  488MOL0     H65829   6.384   3.602  10.870  1.0200  0.4174  2.0520
  488MOL0     H65830   6.348   3.675  10.721 -1.0914  1.6528  0.0503
  488MOL0     H65831   6.354   3.993  10.811 -1.3509 -0.6219 -0.6952
  488MOL0     H65832   6.242   4.160  10.956  0.1379 -0.3751  1.6891
  488MOL0     H65833   6.091   4.106  10.880  0.5993  2.8239 -0.9170
  488MOL0     H65834   6.068   4.264  11.085  0.8385  1.1462  5.5413
  488MOL0     H65835   6.147   4.148  11.189 -1.0418 -0.2695  0.2049
  488MOL0     H65836   5.964   3.982  11.172 -0.4136  1.1075  1.5698
  488MOL0     H65837   5.885   4.088  11.044 -0.5362  1.5269  0.9206
  488MOL0     H65838   5.922   4.146  11.346  0.9424  2.5013  0.6431
  488MOL0     H65839   5.781   4.113  11.255  0.9253 -1.1232 -1.2471
  488MOL0     H65840   5.804   4.286  11.473  0.2135  0.3282 -0.2846
  488MOL0     H65841   5.627   4.455  11.699  1.3370 -2.9062  2.0763
  488MOL0     H65842   5.495   4.358  11.627 -1.2263  3.8984 -0.2941
  488MOL0     H65843   5.652   4.284  11.657 -1.5732  0.2285  3.2789
  488MOL0     H65844   5.409   4.937  11.389 -1.3022  1.9475 -1.6903
  488MOL0     H65845   5.250   5.084  11.437  0.8458 -0.3440 -1.2138
  488MOL0     H65846   5.112   5.203  11.545  0.5790  0.7011 -4.3351
  488MOL0     H65847   4.990   5.188  11.418 -2.3284  0.6248  0.0876
  488MOL0     H65848   4.933   5.188  11.718 -2.9092 -1.0168 -0.2235
  488MOL0     H65849   4.962   5.338  11.626  1.0349  0.1126 -2.2037
  488MOL0     H65850   4.774   5.253  11.472  2.6697  1.1010 -0.2713
  488MOL0     H65851   4.720   5.330  11.624 -2.1222 -0.5359 -0.6603
  488MOL0     H65852   4.716   5.029  11.574 -2.8208  0.1990 -1.4790
  488MOL0     H65853   4.720   5.100  11.744  0.4184  1.8982  0.5220
  488MOL0     H65854   4.527   5.258  11.674 -0.4100  0.1866 -0.8504
  488MOL0     H65855   4.492   5.084  11.694  3.3946 -1.9661 -0.3182
  488MOL0     H65856   4.533   5.214  11.434  0.4604 -0.8787  0.2601
  488MOL0     H65857   4.494   5.038  11.472 -2.4347 -1.2208  1.3621
  488MOL0     H65858   4.298   5.270  11.509 -1.3665  0.3311  0.1873
  488MOL0     H65859   4.306   5.136  11.622 -1.0242  0.0346 -0.9086
  488MOL0     H65860   4.256   4.976  11.451 -0.9867  0.5550  1.3596
  488MOL0     H65861   4.242   5.103  11.327 -0.2535  2.3410 -0.3105
  488MOL0     H65862   4.953   4.769  11.471 -0.4021  1.6522 -1.9705
  488MOL0     H65863   5.130   4.606  11.401  3.7261 -1.1371  2.4506
  488MOL0     H65864   5.527   4.576  11.192  1.0793  0.9862 -0.8963
  488MOL0     H65865   5.733   4.498  11.115 -0.4821 -0.6623 -0.1627
  488MOL0     H65866   7.334   4.001  11.183  0.8831 -1.1584 -0.8288
  488MOL0     H65867   7.529   4.152  11.143  1.6039  1.4607 -1.7194
  488MOL0     H65868   8.104   4.029  11.012  2.9133  1.3938  0.0658
  488MOL0     H65869   8.282   4.177  11.074 -0.6714 -4.1146 -1.0798
  488MOL0     H65870   8.389   4.375  11.057  0.2752 -1.1957 -0.3014
  488MOL0     H65871   8.408   4.534  11.151 -1.6632  0.4925  0.1729
  488MOL0     H65872   8.547   4.353  11.235 -0.9016 -1.0994  1.7152
  488MOL0     H65873   8.403   4.246  11.253 -0.9261 -0.8585  0.9143
  488MOL0     H65874   8.481   4.319  11.459 -1.4199  0.7038  1.4616
  488MOL0     H65875   8.326   4.404  11.437 -0.3635 -0.0273  1.9945
  488MOL0     H65876   8.430   4.617  11.388 -0.7812 -0.9235  2.2338
  488MOL0     H65877   8.590   4.542  11.384  0.3466  1.8487 -1.8510
  488MOL0     H65878   8.538   4.600  11.800 -0.6668  1.3513 -0.8996
  488MOL0     H65879   7.992   4.487  11.163 -1.8914  0.2678 -0.0732
  488MOL0     H65880   7.812   4.325  11.108 -1.8314 -1.3988 -1.0888
  489MOL0     O65881  10.637  10.229  10.527  0.3537 -0.3302  0.6669
  489MOL0     C65882  10.724  10.227  10.446  0.8110  0.2310  0.1235
  489MOL0     O65883  10.760  10.117  10.377  0.5423 -0.0351  0.3035
  489MOL0     C65884  10.666  10.024  10.341  0.1251  0.1377 -0.7825
  489MOL0     C65885  10.532  10.049  10.321  0.0979 -0.1386  0.2885
  489MOL0     C65886  10.436   9.948  10.294 -0.1619  0.1187 -0.2153
  489MOL0     C65887  10.481   9.817  10.292 -0.0196  0.4944 -0.7199
  489MOL0     O65888  10.401   9.706  10.274  0.1928  0.2158  0.5681
  489MOL0     C65889  10.359   9.660  10.401 -0.0959 -0.8374 -0.1348
  489MOL0     C65890  10.259   9.543  10.394  0.3375 -0.5224  0.5662
  489MOL0     C65891  10.116   9.600  10.374 -0.5035  0.8957  0.6481
  489MOL0     C65892  10.086   9.663  10.229 -0.4412 -0.3488 -0.1797
  489MOL0     C65893   9.961   9.751  10.222  0.1161  0.6280  0.5842
  489MOL0     C65894   9.992   9.892  10.280  0.7956  0.0723  0.0068
  489MOL0     C65895   9.868   9.990  10.275  0.1349  0.2796 -0.0932
  489MOL0     C65896   9.897  10.103  10.369  0.0318 -0.6267  0.1039
  489MOL0     N65897   9.791  10.200  10.389 -0.5875 -0.1172 -0.3349
  489MOL0     C65898   9.788  10.331  10.333  0.2009 -0.1679 -0.5921
  489MOL0     C65899   9.657  10.361  10.342  0.1217  0.1357 -0.7894
  489MOL0     C65900   9.597  10.503  10.330 -0.3351  0.7694  0.7532
  489MOL0     C65901   9.491  10.510  10.222  0.1338  0.1172  0.0622
  489MOL0     C65902   9.380  10.401  10.222  0.2476 -0.3066 -0.2989
  489MOL0     C65903   9.286  10.412  10.104 -1.3525 -0.2919  0.1512
  489MOL0     O65904   9.199  10.524  10.119 -0.2762  0.3264 -0.0347
  489MOL0     C65905   9.075  10.494  10.166  0.5551 -0.1665 -0.2989
  489MOL0     C65906   9.049  10.499  10.302 -0.4073  0.6565  0.7392
  489MOL0     C65907   8.923  10.476  10.358 -0.2090  0.0565 -0.0953
  489MOL0     C65908   8.906  10.476  10.515  0.8725 -0.9383  0.5630
  489MOL0     C65909   8.819  10.441  10.272  0.5660  0.2028  0.2026
  489MOL0     C65910   8.678  10.400  10.316 -0.6568  0.2846 -0.4069
  489MOL0     O65911   8.601  10.343  10.222  0.6475  0.0636 -0.0772
  489MOL0     C65912   8.471  10.320  10.263  0.4516  0.9781  0.2480
  489MOL0     C65913   8.426  10.188  10.291 -0.0021  0.1006  0.2090
  489MOL0     C65914   8.294  10.166  10.331  0.4082 -0.0063 -0.4197
  489MOL0     C65915   8.194  10.266  10.318 -0.3210  0.7585 -0.1516
  489MOL0     O65916   8.059  10.259  10.341 -0.2659 -0.1931 -0.1918
  489MOL0     C65917   8.006  10.137  10.379 -0.3750 -0.4732 -0.7835
  489MOL0     C65918   7.983  10.038  10.264 -1.0379 -0.3986  0.2978
  489MOL0     C65919   7.905   9.918  10.323  0.0759  0.0915  0.1004
  489MOL0     C65920   7.762   9.916  10.273  0.4782 -0.8869 -0.5516
  489MOL0     C65921   7.691   9.795  10.328  0.4045 -0.5994  1.0142
  489MOL0     C65922   7.665   9.787  10.478 -0.3495  0.7773 -0.3707
  489MOL0     C65923   7.561   9.681  10.516 -0.0565  1.0211 -0.3108
  489MOL0     C65924   7.411   9.726  10.506  0.6339  0.0987 -0.0133
  489MOL0    Cl65925   7.360   9.856  10.606 -0.3029  0.3719  0.2107
  489MOL0     C65926   8.239  10.398  10.285 -0.2278  0.1431 -0.1267
  489MOL0     C65927   8.371  10.419  10.252 -0.6418  0.2883  0.5709
  489MOL0     O65928   8.648  10.400  10.432  0.2433 -0.2026  0.2823
  489MOL0     C65929   8.842  10.436  10.137 -0.0571  0.2868  0.0710
  489MOL0     C65930   8.977  10.459  10.080  0.1390 -0.3388 -0.2339
  489MOL0     N65931   9.589  10.257  10.413 -0.1910 -0.2059  0.1481
  489MOL0     N65932   9.668  10.159  10.435  0.0340 -0.5210  0.6988
  489MOL0     C65933  10.618   9.793  10.309 -0.1920  0.3086  0.1680
  489MOL0     C65934  10.713   9.895  10.335 -1.1180  1.4835 -0.3860
  489MOL0     C65935  10.803  10.357  10.419 -0.0082  0.9011 -0.1879
  489MOL0     C65936  10.895  10.370  10.313  0.4057  0.6617  0.1966
  489MOL0     C65937  10.961  10.490  10.289  0.2672  0.0946 -0.4521
  489MOL0     C65938  10.947  10.592  10.382  0.3979 -0.6645 -0.4658
  489MOL0     O65939  11.017  10.707  10.367  0.0520  0.0975 -0.0161
  489MOL0     C65940  11.105  10.719  10.256  0.1378 -0.0444 -0.5436
  489MOL0     C65941  11.145  10.864  10.231  0.0736  1.0822 -0.7592
  489MOL0     C65942  11.245  10.917  10.338  0.6096 -0.6787 -0.1443
  489MOL0     C65943  11.374  10.833  10.356  1.1902  0.5814 -0.9398
  489MOL0     C65944  11.457  10.832  10.234 -0.1896 -0.1792  0.4106
  489MOL0     C65945  11.547  10.850  10.160 -0.2490  0.7550  0.3452
  489MOL0     C65946  10.861  10.584  10.492 -0.1984  0.3697 -0.5457
  489MOL0     C65947  10.781  10.473  10.503  0.4666  0.5617 -0.6665
  489MOL0     H65948  10.488  10.148  10.317 -2.0606 -0.7113  4.4761
  489MOL0     H65949  10.329   9.964  10.287 -0.3507 -0.2738  1.3568
  489MOL0     H65950  10.454   9.632  10.447 -0.0369  0.6897  0.7242
  489MOL0     H65951  10.311   9.745  10.451 -1.7971 -1.2436 -0.9841
  489MOL0     H65952  10.279   9.481  10.306 -0.7625  2.5126 -2.0130
  489MOL0     H65953  10.272   9.487  10.487 -1.3703  0.5828  1.5063
  489MOL0     H65954  10.051   9.514  10.392  0.7103 -0.2391 -0.1815
  489MOL0     H65955  10.103   9.681  10.446  0.4345 -0.0220  1.8917
  489MOL0     H65956  10.168   9.733  10.209  0.4725  0.2331  4.3293
  489MOL0     H65957  10.085   9.583  10.155  0.0582 -0.6654  0.1438
  489MOL0     H65958   9.945   9.762  10.115  0.1391 -2.5495  0.1512
  489MOL0     H65959   9.875   9.709  10.275  0.8695 -0.2913  1.1100
  489MOL0     H65960  10.010   9.878  10.387  0.2423 -1.4726 -0.0702
  489MOL0     H65961  10.081   9.935  10.233  0.3776  0.8462 -0.0784
  489MOL0     H65962   9.845  10.020  10.173 -0.6326 -0.1026 -0.0418
  489MOL0     H65963   9.779   9.934  10.305  0.2565 -0.0464 -0.3266
  489MOL0     H65964   9.988  10.151  10.333 -1.1013  1.7221  0.1918
  489MOL0     H65965   9.914  10.068  10.471  2.7079 -0.4812 -0.2368
  489MOL0     H65966   9.864  10.394  10.287 -2.4284  2.6352 -1.4721
  489MOL0     H65967   9.547  10.530  10.424 -1.0627 -1.5379  1.0862
  489MOL0     H65968   9.675  10.576  10.305  1.5661 -1.6400 -0.7855
  489MOL0     H65969   9.535  10.504  10.121 -1.2668  0.5340 -0.5972
  489MOL0     H65970   9.445  10.609  10.226  0.0538  0.0248  2.4730
  489MOL0     H65971   9.319  10.413  10.312 -4.1071 -1.6057 -2.7924
  489MOL0     H65972   9.416  10.299  10.205  0.5784  0.1366 -2.5687
  489MOL0     H65973   9.235  10.321  10.073 -0.3473  0.2044 -3.4045
  489MOL0     H65974   9.340  10.440  10.013 -2.3184  1.1995 -0.0018
  489MOL0     H65975   9.134  10.542  10.354  1.6492  0.1628 -1.9951
  489MOL0     H65976   8.999  10.507  10.563  2.0218  0.4262 -2.3465
  489MOL0     H65977   8.818  10.538  10.537  2.1393  0.0116  3.4224
  489MOL0     H65978   8.879  10.373  10.542 -4.0883 -0.0944 -0.1363
  489MOL0     H65979   8.499  10.108  10.296  1.9624  1.8629  1.4419
  489MOL0     H65980   8.249  10.071  10.358 -2.0813  0.3094 -2.9834
  489MOL0     H65981   8.067  10.087  10.455 -0.7803  1.3959  0.8323
  489MOL0     H65982   7.904  10.156  10.413 -0.0080  4.1400 -1.5934
  489MOL0     H65983   7.923  10.076  10.180  1.1524  1.4906 -0.5001
  489MOL0     H65984   8.082  10.013  10.226 -0.6168  3.1407 -1.2792
  489MOL0     H65985   7.909   9.911  10.432  2.1579 -2.6325 -0.0441
  489MOL0     H65986   7.951   9.826  10.285  1.0890  1.7760 -3.1561
  489MOL0     H65987   7.704  10.006  10.295  0.7608 -0.5070 -1.3350
  489MOL0     H65988   7.766   9.914  10.164  0.5704  2.5375 -0.7388
  489MOL0     H65989   7.732   9.703  10.285 -0.4786  0.3574 -2.1000
  489MOL0     H65990   7.593   9.797  10.281  0.0956 -1.7273  1.5714
  489MOL0     H65991   7.758   9.771  10.534 -0.5026  0.3037 -0.2502
  489MOL0     H65992   7.626   9.881  10.519  0.5348  0.7162  0.6411
  489MOL0     H65993   7.573   9.653  10.621  0.7451  1.4948 -0.2669
  489MOL0     H65994   7.591   9.588  10.467  3.1954  1.3745  0.7183
  489MOL0     H65995   7.347   9.641  10.533 -0.4775  1.3824  1.5589
  489MOL0     H65996   7.391   9.742  10.399  3.3323 -1.4378 -0.8426
  489MOL0     H65997   8.157  10.469  10.286 -0.9138 -0.6267 -0.3515
  489MOL0     H65998   8.408  10.514  10.215 -1.6753 -0.4100 -2.5242
  489MOL0     H65999   8.768  10.407  10.063 -0.6746 -0.8387  1.0784
  489MOL0     H66000   9.008  10.429   9.981  0.3125 -1.5190  0.1644
  489MOL0     H66001  10.646   9.689  10.304 -0.2111  0.3595 -1.2453
  489MOL0     H66002  10.819   9.877  10.352 -1.0206  0.7632 -1.6626
  489MOL0     H66003  10.900  10.289  10.241 -2.5132  3.2747 -3.3434
  489MOL0     H66004  11.016  10.494  10.195 -0.0079 -1.9532 -0.7361
  489MOL0     H66005  11.193  10.655  10.268  0.4428  0.6462  1.1663
  489MOL0     H66006  11.047  10.686  10.169  1.0056 -1.3664 -0.6567
  489MOL0     H66007  11.054  10.926  10.233 -0.6005  0.2270  3.2362
  489MOL0     H66008  11.194  10.868  10.133  1.9595 -1.3594 -0.0024
  489MOL0     H66009  11.192  10.934  10.432  1.2057  0.2075  0.0463
  489MOL0     H66010  11.280  11.018  10.312  1.2402 -0.8478  0.0225
  489MOL0     H66011  11.357  10.728  10.383 -0.3258  0.4708 -2.1955
  489MOL0     H66012  11.433  10.881  10.435  2.4311  1.5825 -2.4328
  489MOL0     H66013  11.617  10.857  10.079  1.0447 -0.5335  1.3113
  489MOL0     H66014  10.832  10.662  10.562 -0.8943 -1.8068  1.7516
  489MOL0     H66015  10.707  10.471  10.583  2.5525  0.5317  1.3614
  490MOL0     O66016   3.461   4.116   9.391 -1.1633 -0.4709 -0.1776
  490MOL0     C66017   3.547   4.023   9.389 -0.2324 -1.1136 -0.6764
  490MOL0     O66018   3.546   3.917   9.470  0.7069  0.3478  0.1574
  490MOL0     C66019   3.443   3.904   9.558 -0.4882  0.7838  0.1126
  490MOL0     C66020   3.458   3.954   9.689  0.8244  0.1659 -0.0459
  490MOL0     C66021   3.341   3.967   9.762 -0.7438 -0.3192 -0.6839
  490MOL0     C66022   3.218   3.906   9.712 -0.4482 -0.0230  0.4146
  490MOL0     O66023   3.106   3.901   9.789 -0.2411 -0.2807 -0.4824
  490MOL0     C66024   3.121   3.834   9.915  0.9698 -0.8668 -0.5357
  490MOL0     C66025   3.073   3.928  10.023 -0.1931  0.0124  0.0325
  490MOL0     C66026   3.178   4.032  10.067  0.6888 -0.8049  0.0043
  490MOL0     C66027   3.142   4.099  10.204  0.2116 -0.3766 -0.4518
  490MOL0     C66028   3.240   4.196  10.259 -0.3838 -0.4272 -0.0981
  490MOL0     C66029   3.257   4.322  10.171  0.0781 -0.6814 -0.1955
  490MOL0     C66030   3.326   4.435  10.241  0.5683 -1.1949  0.1104
  490MOL0     C66031   3.366   4.557  10.144 -0.2125 -1.3927 -1.3133
  490MOL0     N66032   3.304   4.681  10.194  0.2450 -0.1568  0.0436
  490MOL0     C66033   3.170   4.718  10.159 -0.8514  0.1935 -0.3399
  490MOL0     C66034   3.149   4.826  10.237 -0.4767 -0.1133 -0.4529
  490MOL0     C66035   3.023   4.901  10.229 -1.0691 -0.5748 -0.1347
  490MOL0     C66036   2.972   4.929  10.373  0.6836  0.1045 -0.0376
  490MOL0     C66037   2.846   5.015  10.356  0.7960 -0.7473 -0.8841
  490MOL0     C66038   2.785   5.047  10.496  0.5843  0.4262 -0.1136
  490MOL0     O66039   2.740   4.919  10.547  0.2412 -0.2418  0.6401
  490MOL0     C66040   2.630   4.853  10.499  0.1473 -0.3139  0.6352
  490MOL0     C66041   2.626   4.722  10.537 -0.3197 -0.3889  0.7337
  490MOL0     C66042   2.528   4.634  10.503 -0.8350 -0.4689  0.2259
  490MOL0     C66043   2.542   4.502  10.565  0.1568  0.4983  0.3940
  490MOL0     C66044   2.418   4.683  10.430  0.7121  0.7623  0.2581
  490MOL0     C66045   2.292   4.610  10.400 -0.0499  0.6265  0.2509
  490MOL0     O66046   2.288   4.473  10.409  0.1501  0.1470  0.2247
  490MOL0     C66047   2.172   4.412  10.381  0.1597 -0.4638  0.1387
  490MOL0     C66048   2.125   4.328  10.479  0.0683  0.0731 -0.0770
  490MOL0     C66049   2.021   4.243  10.446  0.1582 -0.3148  0.7246
  490MOL0     C66050   1.966   4.246  10.311 -0.3187 -0.4180 -0.0385
  490MOL0     O66051   1.869   4.154  10.265  0.1240 -0.0220 -0.5705
  490MOL0     C66052   1.847   4.042  10.353  0.1417 -0.2381  0.0907
  490MOL0     C66053   1.747   3.957  10.280  0.2987 -1.1219  0.3141
  490MOL0     C66054   1.677   3.843  10.349 -1.2370  0.4500 -0.9212
  490MOL0     C66055   1.565   3.886  10.453 -0.4942  0.5726  0.1980
  490MOL0     C66056   1.503   3.764  10.510 -0.7790  0.3680 -0.2961
  490MOL0     C66057   1.447   3.658  10.408  1.0089 -0.5342 -0.1178
  490MOL0     C66058   1.332   3.607  10.490  0.2750  0.1698 -0.5882
  490MOL0     C66059   1.259   3.511  10.406  0.0269 -0.1188 -0.5103
  490MOL0    Cl66060   1.147   3.404  10.504  0.1158 -0.1759 -0.7627
  490MOL0     C66061   2.021   4.325  10.211 -0.2775 -0.5991 -0.1096
  490MOL0     C66062   2.136   4.402  10.245 -0.9843 -0.4307 -0.1151
  490MOL0     O66063   2.194   4.677  10.373 -0.3143 -0.4254  0.2159
  490MOL0     C66064   2.433   4.808  10.366 -0.0090  1.2683  0.1874
  490MOL0     C66065   2.534   4.895  10.406 -0.1623 -0.8694  0.0194
  490MOL0     N66066   3.271   4.857  10.309 -0.0185 -0.2622 -0.6115
  490MOL0     N66067   3.360   4.764  10.281  0.0314  0.6747 -0.2134
  490MOL0     C66068   3.210   3.854   9.585 -1.1961 -1.8625 -0.1867
  490MOL0     C66069   3.326   3.848   9.509 -0.2063 -0.0821 -0.3054
  490MOL0     C66070   3.655   4.016   9.284 -0.1067 -0.4610 -0.4525
  490MOL0     C66071   3.685   4.130   9.215 -0.1752 -0.7857 -0.2046
  490MOL0     C66072   3.795   4.129   9.119 -0.0525 -0.0868 -0.4061
  490MOL0     C66073   3.874   4.012   9.099  0.4696  0.7037 -0.3712
  490MOL0     O66074   3.979   4.001   9.012 -0.5580  0.0463 -0.0074
  490MOL0     C66075   4.020   4.114   8.927  0.3442 -0.3087 -0.7300
  490MOL0     C66076   4.135   4.089   8.825  0.4893  0.2679 -0.2834
  490MOL0     C66077   4.255   4.013   8.883  0.0756  0.2116  0.0116
  490MOL0     C66078   4.302   4.050   9.029  0.4846 -0.2937  0.7395
  490MOL0     C66079   4.441   4.017   9.057  0.2564  0.4561  0.7338
  490MOL0     C66080   4.558   3.978   9.076 -0.7374 -0.2739 -0.0041
  490MOL0     C66081   3.838   3.897   9.170 -0.5924  0.7793 -0.0363
  490MOL0     C66082   3.735   3.900   9.267  0.9196 -0.4745  0.0092
  490MOL0     H66083   3.558   3.987   9.714  1.6237  0.8436 -3.5252
  490MOL0     H66084   3.345   4.015   9.860  1.5847 -1.8279  0.0604
  490MOL0     H66085   3.046   3.755   9.911 -0.6586  0.6618 -2.5854
  490MOL0     H66086   3.221   3.799   9.944 -0.4452 -3.0668  2.2514
  490MOL0     H66087   2.984   3.979   9.986 -0.2192 -0.1576 -0.1436
  490MOL0     H66088   3.054   3.873  10.116 -0.3192  2.3610  1.4558
  490MOL0     H66089   3.272   3.977  10.073  1.9085  0.6521 -3.2381
  490MOL0     H66090   3.185   4.109   9.990 -1.7130  0.2104  0.7133
  490MOL0     H66091   3.052   4.160  10.193  0.7299  0.6242  0.6607
  490MOL0     H66092   3.120   4.035  10.289  1.4796  3.3002  2.9721
  490MOL0     H66093   3.209   4.232  10.358  0.3208  1.6245 -0.5773
  490MOL0     H66094   3.344   4.165  10.268 -1.0199 -2.6218  0.3675
  490MOL0     H66095   3.323   4.291  10.090  0.8148  1.7649 -0.6081
  490MOL0     H66096   3.163   4.363  10.134  0.0304 -0.2342  0.4110
  490MOL0     H66097   3.255   4.466  10.318  0.3565  0.4721 -0.7085
  490MOL0     H66098   3.419   4.390  10.276  0.2378 -1.7323  0.3114
  490MOL0     H66099   3.328   4.532  10.045 -1.3219 -2.3280 -0.6798
  490MOL0     H66100   3.473   4.578  10.152 -0.4098  0.3213 -2.6465
  490MOL0     H66101   3.101   4.667  10.093 -0.1039 -0.0602 -0.9412
  490MOL0     H66102   3.052   4.996  10.183  2.8500 -0.3621  2.3045
  490MOL0     H66103   2.949   4.840  10.176 -2.3876 -0.0919  1.0744
  490MOL0     H66104   3.048   4.982  10.430 -1.0498  0.6176  1.9078
  490MOL0     H66105   2.951   4.838  10.430  0.7616  1.2922  1.9651
  490MOL0     H66106   2.777   4.970  10.284  0.3004 -1.8908  0.2509
  490MOL0     H66107   2.872   5.113  10.316 -1.7680  1.8785  3.1554
  490MOL0     H66108   2.696   5.111  10.489 -0.9487 -1.5031  0.6994
  490MOL0     H66109   2.862   5.088  10.561  1.0136  0.5844 -0.7079
  490MOL0     H66110   2.711   4.696  10.600  0.1570  0.5207  0.4802
  490MOL0     H66111   2.646   4.471  10.575  0.1052 -0.7162 -2.1197
  490MOL0     H66112   2.486   4.504  10.660 -3.3779 -4.9009 -1.1029
  490MOL0     H66113   2.487   4.432  10.502 -0.5204  2.2876 -1.1243
  490MOL0     H66114   2.180   4.342  10.571  3.3170 -0.9192 -1.7238
  490MOL0     H66115   1.982   4.169  10.515 -0.6916 -2.0303 -1.4582
  490MOL0     H66116   1.943   3.992  10.367 -0.4966 -1.3822  0.5181
  490MOL0     H66117   1.811   4.078  10.450  1.5612  0.0637  0.5312
  490MOL0     H66118   1.670   4.024  10.240  1.7811 -0.4090 -1.5532
  490MOL0     H66119   1.796   3.918  10.190 -0.7685  1.8748 -1.7180
  490MOL0     H66120   1.754   3.779  10.393  1.1026  3.1081 -0.8426
  490MOL0     H66121   1.634   3.781  10.270 -3.8659  0.7443  0.2037
  490MOL0     H66122   1.614   3.937  10.536  0.2511  0.1269  0.0475
  490MOL0     H66123   1.489   3.951  10.410 -0.0039  0.1601 -1.3454
  490MOL0     H66124   1.429   3.810  10.576  2.3136  0.7103  3.2543
  490MOL0     H66125   1.573   3.715  10.577 -1.6682  0.4199  0.6968
  490MOL0     H66126   1.411   3.700  10.314  0.0468 -1.9518 -0.4007
  490MOL0     H66127   1.532   3.590  10.394  2.2559  0.9068  0.1227
  490MOL0     H66128   1.259   3.686  10.512  0.8978  0.9965 -1.4151
  490MOL0     H66129   1.379   3.548  10.569 -2.5899 -3.6840 -1.4502
  490MOL0     H66130   1.335   3.446  10.361 -0.2596 -1.3944  0.7860
  490MOL0     H66131   1.202   3.564  10.329  0.3895 -1.9969 -2.1548
  490MOL0     H66132   1.991   4.321  10.107 -0.4405 -2.9831 -0.0439
  490MOL0     H66133   2.190   4.459  10.170 -1.7178 -2.5274 -2.3468
  490MOL0     H66134   2.353   4.836  10.298 -0.1178 -1.0860 -0.7433
  490MOL0     H66135   2.509   4.988  10.354 -1.4089 -2.0459 -1.5853
  490MOL0     H66136   3.120   3.820   9.535 -3.0668  3.5088 -1.1161
  490MOL0     H66137   3.317   3.824   9.403 -2.0880  3.3431 -1.0883
  490MOL0     H66138   3.637   4.223   9.245  1.1961 -0.3693  0.7816
  490MOL0     H66139   3.821   4.225   9.075 -0.2453 -0.5134 -1.4630
  490MOL0     H66140   3.938   4.162   8.874  0.3873  1.1128  0.4438
  490MOL0     H66141   4.064   4.182   9.001 -1.3078 -1.5156  1.4948
  490MOL0     H66142   4.175   4.186   8.795  1.0102  0.0697 -0.2364
  490MOL0     H66143   4.100   4.024   8.745 -1.1498 -1.2675  1.5505
  490MOL0     H66144   4.340   4.045   8.822  0.8513  0.4387  1.1985
  490MOL0     H66145   4.241   3.905   8.891  0.8980  0.0664 -0.3851
  490MOL0     H66146   4.248   3.999   9.109  0.0010 -2.1889 -0.7214
  490MOL0     H66147   4.286   4.157   9.045 -0.0337 -0.1247 -0.6926
  490MOL0     H66148   4.654   3.947   9.111 -1.2762 -2.2419 -0.1467
  490MOL0     H66149   3.892   3.804   9.157 -0.9234  0.3229  1.6608
  490MOL0     H66150   3.720   3.806   9.318 -1.3185 -1.9866 -3.1571
  491MOL0     O66151   4.497  10.689   9.065  0.2567  0.4876  0.1432
  491MOL0     C66152   4.512  10.606   8.978  0.4623  0.2842  1.2134
  491MOL0     O66153   4.420  10.505   8.934 -0.3020 -0.9320 -0.1421
  491MOL0     C66154   4.301  10.471   8.991  0.1497 -0.3195  0.5314
  491MOL0     C66155   4.230  10.369   8.923 -0.2947  0.0160  0.8498
  491MOL0     C66156   4.106  10.333   8.977  0.1893 -0.1303  1.4205
  491MOL0     C66157   4.058  10.367   9.103 -0.1015 -0.7185 -0.3057
  491MOL0     O66158   3.940  10.307   9.142  0.3462 -0.2591  0.3054
  491MOL0     C66159   3.892  10.327   9.276  0.5680  0.0408  0.3201
  491MOL0     C66160   3.784  10.218   9.290  0.3466  0.1151  0.2138
  491MOL0     C66161   3.716  10.237   9.428 -0.1012  0.1711 -0.1487
  491MOL0     C66162   3.814  10.206   9.543  1.5599 -0.0393  0.2859
  491MOL0     C66163   3.759  10.190   9.689  0.4121 -0.0772  0.0418
  491MOL0     C66164   3.700  10.316   9.754 -0.7114 -0.7518  0.0082
  491MOL0     C66165   3.808  10.438   9.754 -0.1716 -0.0890 -0.6190
  491MOL0     C66166   3.774  10.530   9.878 -0.4974 -0.2251  0.1224
  491MOL0     N66167   3.660  10.613   9.839  0.2873 -0.2165  0.0275
  491MOL0     C66168   3.669  10.701   9.736 -0.0581  0.0430 -0.9987
  491MOL0     C66169   3.547  10.765   9.740  0.3502  0.1183 -0.5999
  491MOL0     C66170   3.490  10.863   9.640 -0.0275 -0.0905  0.2781
  491MOL0     C66171   3.405  10.980   9.699  0.0613  0.8620 -0.0329
  491MOL0     C66172   3.382  11.085   9.580 -0.3264  0.0125 -0.9891
  491MOL0     C66173   3.301  11.201   9.632  0.2028 -0.2989 -0.1072
  491MOL0     O66174   3.166  11.154   9.683  0.2260 -0.4526  0.8831
  491MOL0     C66175   3.065  11.189   9.607  0.7034  0.1565  0.5555
  491MOL0     C66176   3.051  11.315   9.541  0.6885  0.4427 -0.9368
  491MOL0     C66177   2.959  11.332   9.443 -0.6181 -0.1753 -0.3690
  491MOL0     C66178   2.942  11.473   9.392 -0.5286  0.1375 -0.7055
  491MOL0     C66179   2.860  11.234   9.417  0.4765  0.3924  0.3141
  491MOL0     C66180   2.739  11.249   9.326  0.0920  0.7609 -0.5477
  491MOL0     O66181   2.632  11.176   9.367 -0.3746  0.0191  0.5532
  491MOL0     C66182   2.524  11.172   9.277 -0.5523  0.5861  0.0801
  491MOL0     C66183   2.503  11.060   9.195 -0.3619 -0.5781 -0.4501
  491MOL0     C66184   2.397  11.055   9.104 -0.5530  0.1184 -0.3365
  491MOL0     C66185   2.305  11.162   9.104  0.2813  0.1578 -0.0842
  491MOL0     O66186   2.220  11.153   8.999 -0.4670 -0.2582  0.3831
  491MOL0     C66187   2.167  11.282   8.954 -0.1639 -0.0820  0.5840
  491MOL0     C66188   2.117  11.265   8.813 -0.1926  0.2875  0.0226
  491MOL0     C66189   1.979  11.201   8.806 -0.6799  0.1228  0.2534
  491MOL0     C66190   1.969  11.153   8.663 -0.3647 -0.4027  0.1101
  491MOL0     C66191   1.835  11.081   8.631 -0.5551 -0.6231 -0.0998
  491MOL0     C66192   1.719  11.175   8.623  0.2565 -0.1943  0.6398
  491MOL0     C66193   1.595  11.104   8.563 -0.1542 -0.3287  0.1916
  491MOL0     C66194   1.481  11.196   8.538 -0.7016  0.6221  0.4009
  491MOL0    Cl66195   1.327  11.112   8.501 -0.1607  0.2145 -0.1287
  491MOL0     C66196   2.321  11.273   9.188 -0.2769 -0.5917 -0.3463
  491MOL0     C66197   2.428  11.270   9.282 -0.1712  0.8990  0.5201
  491MOL0     O66198   2.755  11.316   9.223  0.3191 -0.6480  0.0750
  491MOL0     C66199   2.867  11.111   9.490 -0.2976  0.4252 -0.3450
  491MOL0     C66200   2.968  11.093   9.586 -0.7254 -1.0229 -0.3669
  491MOL0     N66201   3.472  10.705   9.844  0.4341 -0.7047 -0.1638
  491MOL0     N66202   3.545  10.626   9.912  0.0316  0.3366 -0.7239
  491MOL0     C66203   4.127  10.483   9.165  0.5974 -0.3994  0.8045
  491MOL0     C66204   4.243  10.533   9.105  0.5615 -0.9458  0.0166
  491MOL0     C66205   4.631  10.612   8.895 -0.1788 -0.7547  0.1645
  491MOL0     C66206   4.730  10.707   8.917 -0.9880  1.1038 -1.0846
  491MOL0     C66207   4.849  10.713   8.843  0.0480  0.6671  0.7363
  491MOL0     C66208   4.881  10.614   8.755 -0.0042  0.6536 -0.1013
  491MOL0     O66209   5.007  10.614   8.708  0.5324  0.3900  1.0448
  491MOL0     C66210   5.030  10.534   8.592 -0.3136 -0.3135  0.3597
  491MOL0     C66211   5.175  10.558   8.557  0.2196 -0.1973  0.4322
  491MOL0     C66212   5.200  10.710   8.530 -0.5208 -0.1170  1.3603
  491MOL0     C66213   5.341  10.749   8.497 -0.2799  0.3385  0.2549
  491MOL0     C66214   5.368  10.715   8.355 -0.1378  0.1649 -0.4179
  491MOL0     C66215   5.389  10.695   8.239 -0.4777 -0.9401  0.1338
  491MOL0     C66216   4.788  10.514   8.730  0.2253  0.9418 -0.8423
  491MOL0     C66217   4.665  10.512   8.797  0.1031  0.3127 -0.5815
  491MOL0     H66218   4.263  10.315   8.835 -1.4415 -1.0760  1.0652
  491MOL0     H66219   4.055  10.253   8.925  0.4368 -0.8457  2.2602
  491MOL0     H66220   3.973  10.303   9.345 -0.4035  2.1946  2.3282
  491MOL0     H66221   3.856  10.428   9.296 -1.4176 -0.5106 -0.2155
  491MOL0     H66222   3.707  10.227   9.213 -0.4272 -1.7572  0.7133
  491MOL0     H66223   3.830  10.119   9.280  2.9412  1.2952 -0.4766
  491MOL0     H66224   3.681  10.340   9.441  1.2480  0.7122 -0.6138
  491MOL0     H66225   3.622  10.183   9.430  0.0243 -0.0399  1.8263
  491MOL0     H66226   3.853  10.108   9.513  0.4975 -0.9351  1.7115
  491MOL0     H66227   3.891  10.284   9.541  0.7322  0.8250 -2.2361
  491MOL0     H66228   3.686  10.108   9.695  0.2510  0.0948  0.5168
  491MOL0     H66229   3.841  10.157   9.753  0.8024  0.7024 -0.0463
  491MOL0     H66230   3.604  10.345   9.710 -0.1816  0.2057 -0.5523
  491MOL0     H66231   3.679  10.295   9.860  1.9940  1.9217  1.2379
  491MOL0     H66232   3.905  10.392   9.779  0.2807 -0.5792 -3.0249
  491MOL0     H66233   3.814  10.491   9.659 -0.1429 -1.4225 -1.3840
  491MOL0     H66234   3.855  10.601   9.896 -2.0730  1.4961  0.7415
  491MOL0     H66235   3.744  10.482   9.971 -4.4276 -1.5494 -1.5969
  491MOL0     H66236   3.745  10.736   9.667  1.4001  2.8223  1.7492
  491MOL0     H66237   3.580  10.886   9.583 -0.4003 -0.4481 -0.4767
  491MOL0     H66238   3.417  10.817   9.571  0.3537  2.7300 -2.2046
  491MOL0     H66239   3.463  11.034   9.775 -0.2268 -0.7904  1.4349
  491MOL0     H66240   3.313  10.938   9.740  0.7622 -1.1468 -0.4220
  491MOL0     H66241   3.318  11.032   9.509 -2.2254 -1.1676  1.4576
  491MOL0     H66242   3.476  11.112   9.532  1.2910 -1.5872  1.0348
  491MOL0     H66243   3.293  11.289   9.567 -0.9040  0.0056  0.4166
  491MOL0     H66244   3.345  11.240   9.724  0.3681 -0.3918 -0.1475
  491MOL0     H66245   3.122  11.393   9.564 -0.0559  0.8511  0.0491
  491MOL0     H66246   2.966  11.467   9.285 -0.6063  0.4402 -0.7398
  491MOL0     H66247   2.842  11.516   9.406  0.1612  1.1074  1.6052
  491MOL0     H66248   3.010  11.546   9.436  0.4849 -1.3562  0.3051
  491MOL0     H66249   2.582  10.988   9.177 -0.7655 -0.4948 -2.9823
  491MOL0     H66250   2.386  10.963   9.046  0.6173  0.5957 -1.3588
  491MOL0     H66251   2.094  11.323   9.024  1.0532 -2.7261  3.6642
  491MOL0     H66252   2.250  11.352   8.942  0.7641 -1.2547 -0.1243
  491MOL0     H66253   2.118  11.362   8.761 -0.7605  0.9938  1.2888
  491MOL0     H66254   2.184  11.195   8.762 -0.2948 -0.5231  0.9725
  491MOL0     H66255   1.900  11.266   8.844 -0.0097  1.1654 -0.0896
  491MOL0     H66256   1.970  11.110   8.867 -0.4947 -0.0496  0.0222
  491MOL0     H66257   1.987  11.237   8.596 -0.1260 -1.2033 -0.8507
  491MOL0     H66258   2.056  11.092   8.639  0.0463 -0.2611  1.1918
  491MOL0     H66259   1.816  11.001   8.704  2.8352 -0.2108  1.4365
  491MOL0     H66260   1.851  11.035   8.533  1.3763  1.8157 -1.0355
  491MOL0     H66261   1.695  11.221   8.720  0.9407  4.2619 -1.0852
  491MOL0     H66262   1.750  11.256   8.557 -0.5521 -0.1786  0.2664
  491MOL0     H66263   1.567  11.023   8.631 -2.3306 -0.1657 -0.4297
  491MOL0     H66264   1.607  11.065   8.462 -1.9692 -0.3811 -0.0351
  491MOL0     H66265   1.495  11.265   8.455 -2.5938 -1.2573 -1.6053
  491MOL0     H66266   1.472  11.260   8.626 -2.2065  4.5607 -2.3262
  491MOL0     H66267   2.256  11.360   9.182 -1.0711 -1.0832  0.7184
  491MOL0     H66268   2.443  11.351   9.353  1.6807  1.2986 -0.2629
  491MOL0     H66269   2.799  11.026   9.482 -1.7948  1.6594 -1.4152
  491MOL0     H66270   2.970  10.997   9.638 -0.8648 -2.0452 -2.1834
  491MOL0     H66271   4.088  10.541   9.247  1.3039 -0.3571  1.1142
  491MOL0     H66272   4.280  10.617   9.162 -1.5682  0.5283 -0.6611
  491MOL0     H66273   4.711  10.789   8.984  0.0444  1.9484 -1.7945
  491MOL0     H66274   4.916  10.798   8.845  2.5067 -1.2037  1.7835
  491MOL0     H66275   5.015  10.427   8.608  2.0223 -0.4715  2.0508
  491MOL0     H66276   4.973  10.563   8.503 -0.7377 -2.4142 -0.0977
  491MOL0     H66277   5.204  10.512   8.462  1.9212  0.0518  0.7938
  491MOL0     H66278   5.244  10.529   8.637  2.3533  1.5922 -0.6259
  491MOL0     H66279   5.167  10.767   8.618 -2.8274 -2.9097  2.4515
  491MOL0     H66280   5.141  10.740   8.443  2.4358  2.5407  0.0556
  491MOL0     H66281   5.399  10.698   8.575 -1.3952  0.4761  1.2008
  491MOL0     H66282   5.352  10.856   8.514 -1.1750  0.5424 -0.3795
  491MOL0     H66283   5.414  10.690   8.135  0.7740  0.2012  0.3457
  491MOL0     H66284   4.813  10.434   8.661 -1.4592  1.5047 -2.1905
  491MOL0     H66285   4.599  10.427   8.794 -1.1686  1.2170  0.3739
  492MOL0     O66286   5.415  11.023   2.773  0.2382  0.9412 -0.0388
  492MOL0     C66287   5.507  10.964   2.720 -0.1308 -0.7353  0.0810
  492MOL0     O66288   5.501  10.890   2.615 -0.8136  0.2366 -0.1439
  492MOL0     C66289   5.376  10.858   2.568 -0.3649 -0.4647 -0.4855
  492MOL0     C66290   5.305  10.756   2.630  0.9425  1.1076  0.1668
  492MOL0     C66291   5.164  10.737   2.590  0.3022  0.7200 -0.1252
  492MOL0     C66292   5.112  10.801   2.480 -0.0562  0.5841 -0.0645
  492MOL0     O66293   4.985  10.797   2.425 -0.9048  0.3431 -0.1590
  492MOL0     C66294   4.932  10.666   2.432 -0.4084  0.3598  0.9780
  492MOL0     C66295   4.829  10.656   2.323  0.1348 -0.5935  0.0816
  492MOL0     C66296   4.779  10.510   2.313 -0.1748  0.4666 -0.7777
  492MOL0     C66297   4.693  10.499   2.188 -0.4573 -0.4632  0.4055
  492MOL0     C66298   4.633  10.361   2.174  0.2473  0.3118  0.5029
  492MOL0     C66299   4.590  10.333   2.024 -0.7644 -0.3550 -0.0897
  492MOL0     C66300   4.476  10.428   1.978  0.3056 -0.5301 -0.0690
  492MOL0     C66301   4.452  10.401   1.831 -0.6582 -0.0992  0.7478
  492MOL0     N66302   4.319  10.450   1.769  0.6683 -0.2254  0.1261
  492MOL0     C66303   4.203  10.439   1.838  0.6916 -0.5127 -0.4030
  492MOL0     C66304   4.115  10.506   1.758 -0.3138 -0.2716 -0.6220
  492MOL0     C66305   3.969  10.521   1.786  0.2224 -0.3512  0.7730
  492MOL0     C66306   3.906  10.386   1.791 -0.7662  0.1968 -0.7335
  492MOL0     C66307   3.753  10.400   1.774 -0.1525 -0.4223 -0.6375
  492MOL0     C66308   3.675  10.404   1.907 -0.0218 -0.2391 -0.3765
  492MOL0     O66309   3.543  10.394   1.868  0.2600  0.8083 -0.0015
  492MOL0     C66310   3.448  10.421   1.960  0.2413  0.2486 -0.1964
  492MOL0     C66311   3.477  10.447   2.100 -0.8326  0.3418  0.1517
  492MOL0     C66312   3.377  10.502   2.184 -0.3556 -0.0339  0.3972
  492MOL0     C66313   3.419  10.534   2.327  0.2340  0.3751 -0.0599
  492MOL0     C66314   3.253  10.527   2.125  0.6420  0.9302 -0.5964
  492MOL0     C66315   3.137  10.591   2.196  0.2474  0.0727  0.1529
  492MOL0     O66316   3.030  10.632   2.117  0.2655 -0.0601 -0.3519
  492MOL0     C66317   2.910  10.677   2.161  0.1565  0.1625 -0.6264
  492MOL0     C66318   2.794  10.653   2.079  0.5638  0.0240 -0.2889
  492MOL0     C66319   2.669  10.707   2.107  0.2236  0.1524 -0.0596
  492MOL0     C66320   2.645  10.783   2.227 -1.0601 -0.4987  0.1340
  492MOL0     O66321   2.515  10.823   2.241  0.0407 -0.1139  0.5864
  492MOL0     C66322   2.471  10.884   2.365 -0.4952  0.4050  0.7074
  492MOL0     C66323   2.319  10.878   2.370  0.1650 -0.2617  0.0761
  492MOL0     C66324   2.261  10.747   2.418  0.8096  0.8962  0.3419
  492MOL0     C66325   2.108  10.737   2.413 -0.3087  1.0767  0.2007
  492MOL0     C66326   2.052  10.597   2.447  0.0369 -0.3934 -0.1137
  492MOL0     C66327   2.050  10.495   2.331  0.3638  0.1011 -0.6156
  492MOL0     C66328   1.929  10.533   2.235 -0.8225  0.0142 -0.4572
  492MOL0     C66329   1.847  10.410   2.200  0.0663 -0.2456 -0.6404
  492MOL0    Cl66330   1.928  10.315   2.079 -0.3568 -0.2239 -0.3183
  492MOL0     C66331   2.750  10.804   2.315 -0.8715  0.0013 -0.4828
  492MOL0     C66332   2.882  10.742   2.286  0.1945  1.1063 -0.3416
  492MOL0     O66333   3.154  10.617   2.311  0.5321  0.0889 -0.7482
  492MOL0     C66334   3.224  10.490   1.994  0.1693 -0.2263 -0.7537
  492MOL0     C66335   3.321  10.447   1.906 -1.0400  0.8797 -0.3565
  492MOL0     N66336   4.177  10.562   1.652 -0.1940  0.4009 -0.0813
  492MOL0     N66337   4.306  10.529   1.657 -0.1409 -0.4254  0.1247
  492MOL0     C66338   5.198  10.893   2.415 -0.3304  0.2345  0.0393
  492MOL0     C66339   5.331  10.920   2.454  0.1024 -0.2817 -0.6230
  492MOL0     C66340   5.638  11.009   2.774 -1.0669  0.8318 -0.6013
  492MOL0     C66341   5.756  10.967   2.707  0.3148 -0.1705 -0.4870
  492MOL0     C66342   5.887  11.002   2.759  0.6648  0.2644  0.3417
  492MOL0     C66343   5.904  11.059   2.884  0.1833 -0.0154 -0.2074
  492MOL0     O66344   6.019  11.097   2.948 -0.1144  0.4783 -0.5354
  492MOL0     C66345   6.137  11.059   2.890 -0.7186 -0.0158 -0.0450
  492MOL0     C66346   6.260  11.109   2.970 -0.5608  0.7218 -0.3922
  492MOL0     C66347   6.273  11.259   2.964  0.9242  0.4902 -1.0049
  492MOL0     C66348   6.379  11.317   3.052  0.1298  0.2156 -0.2125
  492MOL0     C66349   6.517  11.293   3.004  0.4689 -0.1315  0.1823
  492MOL0     C66350   6.634  11.292   2.969 -0.3070 -0.4227  0.0976
  492MOL0     C66351   5.789  11.103   2.954 -0.1398  0.3325 -0.5260
  492MOL0     C66352   5.661  11.079   2.899  0.3892 -0.7099 -0.8526
  492MOL0     H66353   5.350  10.702   2.712 -1.2233 -1.1746 -0.0100
  492MOL0     H66354   5.109  10.659   2.641  2.5831 -0.4687  0.6747
  492MOL0     H66355   5.000  10.582   2.413 -1.2251 -0.5812  2.0640
  492MOL0     H66356   4.890  10.645   2.531  2.7786 -2.8114  1.8931
  492MOL0     H66357   4.755  10.733   2.348  2.7381  1.0966  3.5766
  492MOL0     H66358   4.863  10.694   2.227  1.9392 -0.4015  0.7463
  492MOL0     H66359   4.860  10.438   2.318 -1.4881 -1.0250 -0.2770
  492MOL0     H66360   4.712  10.479   2.394 -0.0919 -1.3133 -1.3471
  492MOL0     H66361   4.622  10.582   2.185 -2.3029 -1.7667  3.4004
  492MOL0     H66362   4.763  10.505   2.104 -1.5011 -1.6048 -0.6040
  492MOL0     H66363   4.711  10.292   2.209  1.1202  0.5462 -0.8975
  492MOL0     H66364   4.552  10.356   2.247  0.6368 -3.5271  0.8689
  492MOL0     H66365   4.677  10.352   1.960 -1.1418 -2.2477 -1.2282
  492MOL0     H66366   4.549  10.233   2.006 -2.8817  0.4139  0.1993
  492MOL0     H66367   4.383  10.415   2.034  1.5144 -0.5622  2.0419
  492MOL0     H66368   4.504  10.533   1.981 -0.5477 -0.3198  2.0513
  492MOL0     H66369   4.468  10.294   1.811 -0.1742  0.3740 -1.6847
  492MOL0     H66370   4.524  10.460   1.774 -0.2548  0.1820  1.5487
  492MOL0     H66371   4.178  10.383   1.928  1.2966 -3.0914 -1.7474
  492MOL0     H66372   3.957  10.578   1.878  4.2413 -0.2027  1.3976
  492MOL0     H66373   3.922  10.561   1.695  1.1318 -0.4476  0.2431
  492MOL0     H66374   3.938  10.348   1.888  0.2088  0.0220 -1.1140
  492MOL0     H66375   3.947  10.326   1.709  0.7750  1.9198 -1.3043
  492MOL0     H66376   3.720  10.310   1.722 -1.1131 -0.8680  0.6733
  492MOL0     H66377   3.725  10.491   1.720  1.7118 -1.3199 -3.3314
  492MOL0     H66378   3.696  10.496   1.963  0.0380  0.1573 -1.0400
  492MOL0     H66379   3.708  10.319   1.967  2.2345  1.5373  1.0930
  492MOL0     H66380   3.575  10.443   2.146 -0.6438  1.1490 -0.1694
  492MOL0     H66381   3.527  10.521   2.341  0.7015  4.3575  1.4305
  492MOL0     H66382   3.392  10.635   2.360  0.0095  0.3083 -0.0409
  492MOL0     H66383   3.364  10.472   2.398  0.1253  0.8988  0.3279
  492MOL0     H66384   2.806  10.614   1.978  2.1117  1.7461 -0.8353
  492MOL0     H66385   2.587  10.685   2.039  0.3104 -0.8870  0.1558
  492MOL0     H66386   2.503  10.823   2.450  0.4374  0.9654  0.7782
  492MOL0     H66387   2.522  10.981   2.373  3.1964 -1.1396 -1.5855
  492MOL0     H66388   2.285  10.956   2.440  1.9905 -2.2057  3.3440
  492MOL0     H66389   2.282  10.919   2.275 -0.4316 -0.2421  0.3102
  492MOL0     H66390   2.288  10.740   2.524  2.0097  3.9653  0.3337
  492MOL0     H66391   2.308  10.664   2.364  1.8635  0.2607  2.1510
  492MOL0     H66392   2.065  10.797   2.493 -1.1063  0.9576 -0.1269
  492MOL0     H66393   2.065  10.775   2.320 -2.0974  3.8951  2.0416
  492MOL0     H66394   1.951  10.613   2.485  0.1498 -3.1187  1.5555
  492MOL0     H66395   2.114  10.555   2.527 -0.1394  0.6496  0.5922
  492MOL0     H66396   2.139  10.476   2.270  1.8668  1.2160  1.1224
  492MOL0     H66397   2.029  10.399   2.379  1.8657  0.6582  1.2781
  492MOL0     H66398   1.975  10.578   2.147  0.2625  0.7519  0.4752
  492MOL0     H66399   1.857  10.596   2.287 -1.4338 -0.1835 -1.0302
  492MOL0     H66400   1.745  10.432   2.164 -0.7401 -2.1119  0.3965
  492MOL0     H66401   1.829  10.348   2.288 -0.0291 -0.1730 -0.6078
  492MOL0     H66402   2.741  10.868   2.402  0.4029  1.7647 -1.5964
  492MOL0     H66403   2.956  10.759   2.364 -0.1079 -1.1000  0.4908
  492MOL0     H66404   3.127  10.495   1.947 -0.4544 -0.8890  0.4256
  492MOL0     H66405   3.299  10.428   1.802 -0.0799  1.4794 -0.6752
  492MOL0     H66406   5.150  10.939   2.330  1.0023 -1.0472 -1.4633
  492MOL0     H66407   5.387  10.995   2.399 -1.6207  0.4906 -1.3976
  492MOL0     H66408   5.757  10.910   2.615 -0.7347 -1.3945  0.2253
  492MOL0     H66409   5.971  10.974   2.696  0.9073 -1.5244  1.3907
  492MOL0     H66410   6.132  10.949   2.887  0.5053 -0.1717  1.6577
  492MOL0     H66411   6.142  11.089   2.785  0.2099 -1.7842 -0.5560
  492MOL0     H66412   6.350  11.059   2.933 -1.1669  0.7342 -1.9393
  492MOL0     H66413   6.243  11.082   3.075  0.6964 -1.0552 -0.5961
  492MOL0     H66414   6.182  11.293   3.014  1.8568  0.3798  0.8312
  492MOL0     H66415   6.276  11.298   2.862 -1.9171 -2.7616 -2.5502
  492MOL0     H66416   6.369  11.285   3.156 -1.2737  0.8747 -0.1189
  492MOL0     H66417   6.366  11.425   3.058 -2.1146  0.0150 -0.6850
  492MOL0     H66418   6.738  11.272   2.954 -0.1531 -0.9456  1.6267
  492MOL0     H66419   5.788  11.170   3.039 -1.1036 -1.1547  0.6743
  492MOL0     H66420   5.578  11.112   2.962  0.7348  2.8823 -2.0876
  493MOL0     O66421  10.946   8.021   9.258 -0.5178  0.5648 -0.0081
  493MOL0     C66422  11.028   8.044   9.168  0.5570 -0.6874  0.0518
  493MOL0     O66423  11.007   8.127   9.064  0.5848  0.5064 -0.7006
  493MOL0     C66424  10.896   8.203   9.037  0.7129  0.2192  0.2969
  493MOL0     C66425  10.786   8.224   9.123  0.0809  0.0287 -0.2210
  493MOL0     C66426  10.693   8.324   9.088  0.4512  0.1168  0.6520
  493MOL0     C66427  10.701   8.403   8.976 -1.2275  0.5636 -0.0065
  493MOL0     O66428  10.622   8.519   8.959 -0.2530  0.0467  0.5097
  493MOL0     C66429  10.501   8.527   9.031  0.7892  0.4714  0.3573
  493MOL0     C66430  10.418   8.653   9.002  0.3811  0.4140 -0.5813
  493MOL0     C66431  10.302   8.670   9.103 -0.0615  0.2379  0.5752
  493MOL0     C66432  10.218   8.795   9.076  0.1483  0.2376  0.0094
  493MOL0     C66433  10.085   8.784   9.157 -0.3223 -0.1136 -0.2794
  493MOL0     C66434  10.018   8.925   9.160  0.9104  0.6722  0.0514
  493MOL0     C66435   9.872   8.919   9.214  0.3322 -0.1516  0.5864
  493MOL0     C66436   9.807   9.054   9.241 -0.0183  0.1451 -0.3468
  493MOL0     N66437   9.664   9.063   9.250 -0.9833 -0.9232  0.5224
  493MOL0     C66438   9.575   9.008   9.159 -0.8720 -0.1801 -0.2510
  493MOL0     C66439   9.456   9.049   9.205 -0.3170  0.7330  0.5565
  493MOL0     C66440   9.318   9.006   9.164 -0.2753  0.1407 -0.8413
  493MOL0     C66441   9.245   8.899   9.245 -0.3029 -0.2198 -0.0880
  493MOL0     C66442   9.191   8.947   9.377  0.4934  0.1236 -0.0620
  493MOL0     C66443   9.111   8.835   9.438  0.5239 -0.1471  0.0936
  493MOL0     O66444   9.066   8.896   9.554  0.1360 -0.1484  0.2979
  493MOL0     C66445   9.127   8.869   9.669 -0.7573  0.2507 -0.0601
  493MOL0     C66446   9.060   8.896   9.789  0.0551 -0.9075 -0.1719
  493MOL0     C66447   9.108   8.874   9.915 -0.1990  0.0032  1.5436
  493MOL0     C66448   9.017   8.909  10.026  0.0171 -0.1730  0.1203
  493MOL0     C66449   9.232   8.808   9.928 -0.0304 -0.5376 -0.9919
  493MOL0     C66450   9.285   8.755  10.061  0.1967  0.4636  0.2888
  493MOL0     O66451   9.403   8.690  10.052  0.2280  0.1982  0.0118
  493MOL0     C66452   9.445   8.621  10.166 -0.5983  0.0517  0.7703
  493MOL0     C66453   9.379   8.505  10.205 -0.3678 -0.0037 -0.6038
  493MOL0     C66454   9.437   8.414  10.296  0.1677  0.7650  0.9033
  493MOL0     C66455   9.567   8.440  10.347  0.0718  0.7051 -0.1056
  493MOL0     O66456   9.606   8.347  10.440 -0.0715  0.2814  0.4904
  493MOL0     C66457   9.749   8.332  10.458 -0.1498 -0.8605 -0.5512
  493MOL0     C66458   9.800   8.418  10.581 -0.2757  0.0264  0.6773
  493MOL0     C66459   9.782   8.351  10.713  0.1359 -0.1659 -0.8139
  493MOL0     C66460   9.636   8.367  10.771 -0.6271 -0.7680  1.0308
  493MOL0     C66461   9.607   8.297  10.906 -0.1548 -0.4374  0.8484
  493MOL0     C66462   9.459   8.310  10.949  0.9807  1.1474  0.2381
  493MOL0     C66463   9.423   8.441  11.018 -0.1337 -0.4623  0.2677
  493MOL0     C66464   9.280   8.441  11.065 -0.3144  0.2909  0.0938
  493MOL0    Cl66465   9.244   8.327  11.196 -0.1812  0.2953  0.3037
  493MOL0     C66466   9.632   8.555  10.300 -0.1161  0.0056  0.1109
  493MOL0     C66467   9.571   8.643  10.204  0.1400  0.5095 -1.5102
  493MOL0     O66468   9.217   8.767  10.161 -0.1742 -1.0651 -0.1376
  493MOL0     C66469   9.312   8.794   9.809 -0.2106  0.3097  0.3249
  493MOL0     C66470   9.258   8.822   9.683 -0.6437  0.6348  0.3753
  493MOL0     N66471   9.480   9.125   9.321  1.2068 -0.7021 -1.1609
  493MOL0     N66472   9.606   9.138   9.343  0.5070 -0.2488 -0.6483
  493MOL0     C66473  10.813   8.380   8.888 -0.0181  0.0682 -0.0319
  493MOL0     C66474  10.906   8.282   8.919  0.4072  0.3497 -0.1340
  493MOL0     C66475  11.156   7.967   9.180  1.0837  0.6273 -0.3286
  493MOL0     C66476  11.272   8.014   9.119 -0.8264  0.0743 -0.2624
  493MOL0     C66477  11.402   7.960   9.149 -0.0671  0.9430  0.4471
  493MOL0     C66478  11.407   7.845   9.228  0.4633 -0.7635  0.6344
  493MOL0     O66479  11.534   7.789   9.252  0.5487  0.1569 -0.0477
  493MOL0     C66480  11.616   7.740   9.143 -0.4981 -0.6347  0.6572
  493MOL0     C66481  11.621   7.588   9.147 -0.1024 -0.3080 -0.0018
  493MOL0     C66482  11.750   7.523   9.104  0.1155  0.6794  1.2699
  493MOL0     C66483  11.881   7.549   9.185  0.6060  0.9702  0.4524
  493MOL0     C66484  11.974   7.441   9.147 -0.2513  0.6268  0.3072
  493MOL0     C66485  12.047   7.348   9.115  0.3032 -0.8413  0.7636
  493MOL0     C66486  11.291   7.796   9.291  0.4617  0.2192  0.5995
  493MOL0     C66487  11.169   7.856   9.269 -0.4413 -0.8159 -0.2000
  493MOL0     H66488  10.786   8.164   9.214  1.9520  0.7723  0.3188
  493MOL0     H66489  10.615   8.346   9.160 -0.7671  1.2440 -0.9508
  493MOL0     H66490  10.437   8.443   9.002 -0.8401  0.1495  4.2807
  493MOL0     H66491  10.522   8.515   9.137  1.8744  0.4127  0.1472
  493MOL0     H66492  10.486   8.738   9.017  0.5792  0.5717 -2.1743
  493MOL0     H66493  10.379   8.654   8.900 -3.2553  1.2570  0.6614
  493MOL0     H66494  10.233   8.585   9.096  1.3273 -0.7902 -2.0443
  493MOL0     H66495  10.339   8.677   9.206 -0.4157  0.3945  0.6925
  493MOL0     H66496  10.262   8.890   9.106  1.4024 -0.2846 -0.1382
  493MOL0     H66497  10.194   8.799   8.969 -2.2341 -0.3065  0.4539
  493MOL0     H66498  10.011   8.709   9.124 -2.4275  2.1851 -1.0993
  493MOL0     H66499  10.109   8.770   9.262 -0.7225  4.1678  0.5619
  493MOL0     H66500  10.079   8.995   9.218 -3.1220  2.8669  2.0594
  493MOL0     H66501  10.013   8.965   9.058 -0.3133  0.9654  0.2094
  493MOL0     H66502   9.803   8.866   9.147  2.0919 -0.5214 -0.9877
  493MOL0     H66503   9.871   8.866   9.310 -0.1828  2.2712  2.0041
  493MOL0     H66504   9.843   9.125   9.166  2.6847  0.1428  0.8110
  493MOL0     H66505   9.848   9.093   9.335  1.7925  3.6730 -2.3605
  493MOL0     H66506   9.599   8.927   9.091 -0.8671 -0.9896  0.6762
  493MOL0     H66507   9.252   9.093   9.172  0.9077  0.8653  2.3768
  493MOL0     H66508   9.334   8.973   9.060 -0.2584  1.7663 -1.3857
  493MOL0     H66509   9.296   8.803   9.253  0.5112  0.1706 -0.5161
  493MOL0     H66510   9.154   8.874   9.188  0.3804 -1.9933 -0.4678
  493MOL0     H66511   9.128   9.035   9.367  0.0160 -0.4898 -4.0407
  493MOL0     H66512   9.275   8.962   9.445  0.9177 -0.3730 -0.4637
  493MOL0     H66513   9.171   8.744   9.455  0.4889 -1.1197 -3.9459
  493MOL0     H66514   9.021   8.808   9.382  0.1622 -1.0795  1.0868
  493MOL0     H66515   8.963   8.942   9.777  0.2122  0.1777  2.1661
  493MOL0     H66516   8.976   8.820  10.075  1.1658 -0.3743  0.7423
  493MOL0     H66517   9.076   8.967  10.097  2.0528 -0.2580 -1.4082
  493MOL0     H66518   8.934   8.975  10.000  0.0438 -0.0593  0.3178
  493MOL0     H66519   9.286   8.481  10.153 -0.7561  0.9829 -0.3932
  493MOL0     H66520   9.376   8.327  10.316  0.9560 -0.4756 -1.6510
  493MOL0     H66521   9.784   8.231  10.482  0.2502 -0.9388 -1.4413
  493MOL0     H66522   9.804   8.369  10.371  0.8567 -0.7620  0.1097
  493MOL0     H66523   9.905   8.436  10.555 -0.9740  1.3795 -1.5396
  493MOL0     H66524   9.736   8.507  10.576  0.0079  0.1738 -1.5046
  493MOL0     H66525   9.861   8.381  10.782 -0.3690 -2.2699  0.7535
  493MOL0     H66526   9.793   8.244  10.692 -2.4834 -0.3073 -1.7919
  493MOL0     H66527   9.613   8.472  10.788 -0.1325 -0.5647  0.4793
  493MOL0     H66528   9.565   8.330  10.697 -0.5670  0.9177  0.0737
  493MOL0     H66529   9.683   8.335  10.975 -1.9063  1.4235  1.8446
  493MOL0     H66530   9.630   8.193  10.882  1.3346 -0.0904  0.6772
  493MOL0     H66531   9.392   8.284  10.867 -1.8032  0.3784  2.5880
  493MOL0     H66532   9.451   8.230  11.023 -1.7075 -0.8363 -1.9885
  493MOL0     H66533   9.440   8.532  10.960  1.1663  0.9899  2.7553
  493MOL0     H66534   9.488   8.453  11.105  3.4898 -1.4848 -2.1217
  493MOL0     H66535   9.217   8.393  10.990 -3.7718 -0.8808  3.4155
  493MOL0     H66536   9.240   8.542  11.076  0.6555  0.7974 -0.8402
  493MOL0     H66537   9.732   8.580  10.335 -0.2316 -0.0394  0.4822
  493MOL0     H66538   9.619   8.729  10.160  0.1582  0.7182 -1.0842
  493MOL0     H66539   9.413   8.757   9.823 -0.1321 -0.0342 -1.0098
  493MOL0     H66540   9.317   8.809   9.593 -2.1096  1.3204 -0.7220
  493MOL0     H66541  10.827   8.447   8.804  0.0161  0.2507  0.1192
  493MOL0     H66542  10.996   8.281   8.859  1.5849  5.9081  0.9520
  493MOL0     H66543  11.265   8.098   9.050 -0.8008  1.1325  0.9769
  493MOL0     H66544  11.490   8.008   9.108  0.2331 -1.2461 -1.6781
  493MOL0     H66545  11.581   7.768   9.043  3.6444  1.1785 -0.4693
  493MOL0     H66546  11.717   7.774   9.169  0.4785  0.3033 -3.5806
  493MOL0     H66547  11.539   7.533   9.100  0.3102 -2.7172  1.9167
  493MOL0     H66548  11.609   7.564   9.253 -1.3536  3.3793  0.8435
  493MOL0     H66549  11.765   7.557   9.001  2.1853  0.0520  1.3133
  493MOL0     H66550  11.732   7.415   9.106  0.9029  0.4956 -0.0697
  493MOL0     H66551  11.855   7.560   9.291 -3.3733  1.2885 -0.4079
  493MOL0     H66552  11.907   7.649   9.151 -0.2396 -0.2926 -4.7379
  493MOL0     H66553  12.114   7.269   9.086  1.2191  0.4134 -0.6872
  493MOL0     H66554  11.299   7.712   9.358 -0.9144  1.0339  1.8648
  493MOL0     H66555  11.090   7.812   9.329  1.1314  0.3801  2.9590
  494MOL0     O66556   3.498   2.830   5.807  0.1592 -0.6875  1.1181
  494MOL0     C66557   3.606   2.861   5.762 -0.0368 -0.3269  0.3538
  494MOL0     O66558   3.702   2.777   5.715 -0.3920  0.3085  1.5332
  494MOL0     C66559   3.694   2.642   5.729  0.5608 -0.1036 -0.3731
  494MOL0     C66560   3.757   2.571   5.826  0.0581 -0.7050  0.2916
  494MOL0     C66561   3.746   2.430   5.831 -0.7967 -0.1832 -0.8433
  494MOL0     C66562   3.665   2.360   5.738 -0.1831  0.1499 -0.3755
  494MOL0     O66563   3.645   2.225   5.732 -0.1174 -0.1344  0.5797
  494MOL0     C66564   3.692   2.137   5.834 -0.2527 -0.2741 -0.6800
  494MOL0     C66565   3.658   1.993   5.811  0.1088  0.2648  0.4707
  494MOL0     C66566   3.506   1.982   5.780 -0.6304 -0.8629  0.6278
  494MOL0     C66567   3.463   1.841   5.736  0.7212 -0.9173 -0.3039
  494MOL0     C66568   3.481   1.741   5.849 -0.2532  0.0953  0.3485
  494MOL0     C66569   3.375   1.746   5.960  0.0605 -0.0611  0.4820
  494MOL0     C66570   3.231   1.715   5.910 -0.9776  0.0230  0.9417
  494MOL0     C66571   3.134   1.699   6.023 -0.1894 -0.1612 -0.1875
  494MOL0     N66572   3.124   1.822   6.097 -0.3095 -0.3429 -0.0247
  494MOL0     C66573   3.044   1.932   6.063  0.5288 -0.4318 -0.3915
  494MOL0     C66574   3.050   2.008   6.176 -0.7943  0.0485 -1.2241
  494MOL0     C66575   2.975   2.134   6.208 -0.4235 -0.8117  0.3198
  494MOL0     C66576   2.834   2.115   6.187 -0.0885 -0.2155 -0.2324
  494MOL0     C66577   2.768   2.018   6.293 -0.1118  0.4609 -0.4395
  494MOL0     C66578   2.624   1.971   6.274  0.4174  0.2132 -0.5561
  494MOL0     O66579   2.525   2.077   6.274  0.1575  0.3435  0.0169
  494MOL0     C66580   2.390   2.049   6.244 -0.0412  0.3348 -0.0392
  494MOL0     C66581   2.303   2.151   6.260  0.0441 -0.3174  0.1270
  494MOL0     C66582   2.165   2.142   6.224  0.0220 -0.0607  0.9025
  494MOL0     C66583   2.083   2.264   6.249 -0.2967 -0.2002  0.3635
  494MOL0     C66584   2.118   2.021   6.164 -1.3468 -0.8777  0.1595
  494MOL0     C66585   1.979   1.994   6.112  0.2965  0.1284  0.5204
  494MOL0     O66586   1.967   1.891   6.031 -0.3916 -0.0756  0.3876
  494MOL0     C66587   1.850   1.838   5.985 -0.1434 -0.0204  0.4655
  494MOL0     C66588   1.739   1.908   5.940 -1.0059  0.1856 -0.4039
  494MOL0     C66589   1.624   1.851   5.892 -0.0603  0.0591 -0.4557
  494MOL0     C66590   1.627   1.713   5.864  1.5804  0.0491  0.4108
  494MOL0     O66591   1.503   1.657   5.814 -0.5675  0.0233  0.8384
  494MOL0     C66592   1.463   1.537   5.879  0.5252  0.0708  0.1607
  494MOL0     C66593   1.327   1.481   5.843 -0.2064  1.5423  0.4060
  494MOL0     C66594   1.269   1.389   5.950  0.1338 -0.0756 -0.9525
  494MOL0     C66595   1.144   1.317   5.910  0.1275 -0.0001 -0.1103
  494MOL0     C66596   1.025   1.406   5.870 -0.0651  0.1428  0.0141
  494MOL0     C66597   0.893   1.321   5.844  0.6692 -0.2521 -0.5684
  494MOL0     C66598   0.904   1.199   5.752 -0.2706 -0.6711  0.2881
  494MOL0     C66599   0.766   1.160   5.694 -0.2710 -0.1882  0.0148
  494MOL0    Cl66600   0.788   0.999   5.628 -0.0003 -0.1105 -0.1499
  494MOL0     C66601   1.742   1.637   5.906  0.3173 -0.4115  0.7566
  494MOL0     C66602   1.847   1.701   5.962  0.2092 -0.2659 -0.5308
  494MOL0     O66603   1.885   2.052   6.159 -0.2636 -0.7546  0.4345
  494MOL0     C66604   2.216   1.923   6.136  0.7585  0.0033  0.0082
  494MOL0     C66605   2.349   1.929   6.175  0.1995 -0.1883 -0.9604
  494MOL0     N66606   3.137   1.946   6.274 -0.6274  0.1661  0.5499
  494MOL0     N66607   3.164   1.833   6.231 -0.0116  0.4183  0.2840
  494MOL0     C66608   3.612   2.436   5.627 -0.6140 -0.1063  0.7419
  494MOL0     C66609   3.620   2.573   5.630 -0.6299  0.4432 -0.2002
  494MOL0     C66610   3.648   3.007   5.769 -0.8356  0.1750 -0.0479
  494MOL0     C66611   3.760   3.059   5.693 -0.1754  0.7939 -1.3108
  494MOL0     C66612   3.800   3.187   5.696  0.4354 -0.7904  0.9797
  494MOL0     C66613   3.719   3.279   5.754 -0.1700 -0.2645  0.3747
  494MOL0     O66614   3.743   3.412   5.755 -0.4637 -0.1158  0.5036
  494MOL0     C66615   3.864   3.464   5.695 -0.1110 -0.1139 -0.6129
  494MOL0     C66616   3.886   3.617   5.721  0.2777  0.3232  1.0880
  494MOL0     C66617   3.794   3.708   5.633 -0.2894  0.6591  0.8898
  494MOL0     C66618   3.810   3.863   5.665  0.2399  0.2633  0.7718
  494MOL0     C66619   3.936   3.909   5.611 -0.6873  0.4105  0.0674
  494MOL0     C66620   4.046   3.952   5.584 -0.4930 -0.6159 -0.0640
  494MOL0     C66621   3.597   3.242   5.803  0.0349 -0.2441  0.4389
  494MOL0     C66622   3.570   3.109   5.823 -0.0622 -0.3064 -0.5725
  494MOL0     H66623   3.823   2.629   5.890  0.0120  0.8023 -0.9872
  494MOL0     H66624   3.777   2.369   5.915 -0.2260 -1.4248 -1.9217
  494MOL0     H66625   3.799   2.144   5.854 -0.0506 -2.1568 -0.8336
  494MOL0     H66626   3.644   2.161   5.930  2.1620  0.4080  0.4319
  494MOL0     H66627   3.721   1.953   5.731  0.7162 -0.3325  1.2348
  494MOL0     H66628   3.681   1.938   5.903  0.3317  0.4081  0.4997
  494MOL0     H66629   3.443   2.017   5.862 -0.8419  1.0547 -0.2958
  494MOL0     H66630   3.484   2.038   5.688  1.5474  0.4610  0.8333
  494MOL0     H66631   3.359   1.844   5.699 -0.8793 -4.3901  3.1899
  494MOL0     H66632   3.529   1.806   5.656 -0.5153  1.1258 -2.3395
  494MOL0     H66633   3.473   1.643   5.801 -1.4375  1.0486 -1.5374
  494MOL0     H66634   3.581   1.746   5.891 -0.3175  1.4855  0.3822
  494MOL0     H66635   3.399   1.670   6.035 -0.9878  1.6626  2.6930
  494MOL0     H66636   3.387   1.841   6.013 -3.0220  0.0052  1.2466
  494MOL0     H66637   3.210   1.795   5.838  2.0446 -0.5263 -0.7179
  494MOL0     H66638   3.228   1.626   5.846 -0.5926 -0.4957  1.6382
  494MOL0     H66639   3.157   1.606   6.076 -1.5265 -0.7393 -0.5823
  494MOL0     H66640   3.036   1.686   5.976  1.2354  1.0140 -3.8671
  494MOL0     H66641   2.990   1.959   5.973  1.6019  2.9542 -0.1779
  494MOL0     H66642   2.986   2.162   6.313 -0.9727 -3.1150  1.0356
  494MOL0     H66643   3.009   2.209   6.136 -0.6994  2.0581  2.9531
  494MOL0     H66644   2.822   2.067   6.089  0.3164 -1.7839  0.4459
  494MOL0     H66645   2.786   2.213   6.194  2.8994  1.5806 -2.7912
  494MOL0     H66646   2.778   2.086   6.378  0.3805 -0.1388 -0.0173
  494MOL0     H66647   2.828   1.928   6.306 -0.0167  0.4243 -1.0696
  494MOL0     H66648   2.595   1.891   6.344  2.2989 -0.4474 -0.4795
  494MOL0     H66649   2.620   1.923   6.175  0.5825  0.0939 -0.5051
  494MOL0     H66650   2.338   2.248   6.293 -0.4187 -0.7948  2.1781
  494MOL0     H66651   2.033   2.287   6.154  2.2927  1.6659 -0.6570
  494MOL0     H66652   2.010   2.245   6.328 -0.5265  0.1041  0.2248
  494MOL0     H66653   2.152   2.342   6.283  1.0327 -1.0232 -0.3525
  494MOL0     H66654   1.724   2.014   5.958 -2.6246  0.3131 -2.2088
  494MOL0     H66655   1.534   1.904   5.861 -1.2739 -2.4358 -1.4285
  494MOL0     H66656   1.538   1.460   5.862  0.8917 -0.1284  2.3924
  494MOL0     H66657   1.454   1.554   5.987  1.2564  0.6369  0.1368
  494MOL0     H66658   1.262   1.567   5.827 -0.1603  1.0409 -3.3124
  494MOL0     H66659   1.334   1.424   5.750  0.0267 -0.4313  1.5698
  494MOL0     H66660   1.249   1.468   6.022  0.1331 -0.1245 -0.8993
  494MOL0     H66661   1.340   1.317   5.993 -0.8996  0.4399  1.7976
  494MOL0     H66662   1.164   1.241   5.834  1.0720 -2.3914  2.3874
  494MOL0     H66663   1.128   1.247   5.992  0.2049 -1.2524 -1.1336
  494MOL0     H66664   1.058   1.451   5.776  3.1165 -1.0574  0.4425
  494MOL0     H66665   1.019   1.488   5.943  0.7004  0.8364 -0.6912
  494MOL0     H66666   0.844   1.298   5.940 -1.1152  4.1813 -0.1761
  494MOL0     H66667   0.824   1.386   5.790 -1.2249 -2.7826 -1.3723
  494MOL0     H66668   0.958   1.123   5.808 -0.2644 -0.7572  0.1658
  494MOL0     H66669   0.969   1.228   5.668 -0.7246 -2.0126 -0.5684
  494MOL0     H66670   0.730   1.217   5.607 -1.3624 -0.4406  0.2874
  494MOL0     H66671   0.695   1.152   5.777  1.4697 -2.1671  1.4090
  494MOL0     H66672   1.759   1.534   5.877 -0.6571 -0.3594 -0.0473
  494MOL0     H66673   1.934   1.642   5.991  0.1179 -1.1501 -1.9534
  494MOL0     H66674   2.181   1.840   6.075  2.0682 -1.1295  0.7259
  494MOL0     H66675   2.425   1.854   6.155  1.3084  0.6928 -0.2270
  494MOL0     H66676   3.567   2.386   5.542  1.3972  0.7060 -0.8620
  494MOL0     H66677   3.598   2.630   5.541  2.0394  0.1129 -1.1558
  494MOL0     H66678   3.820   2.990   5.634  0.7004 -0.5897  1.0509
  494MOL0     H66679   3.899   3.209   5.656  0.7344 -3.1788  0.2121
  494MOL0     H66680   3.952   3.408   5.726  0.4480  1.0178 -0.1196
  494MOL0     H66681   3.856   3.443   5.588 -0.8023  1.9940 -1.0223
  494MOL0     H66682   3.993   3.636   5.708  0.1090 -0.5184 -2.9642
  494MOL0     H66683   3.854   3.624   5.826 -1.6692 -0.2389  0.5837
  494MOL0     H66684   3.688   3.695   5.658 -0.5997  1.1476 -0.1291
  494MOL0     H66685   3.813   3.684   5.528  2.8078 -2.8607  2.0389
  494MOL0     H66686   3.805   3.869   5.774  1.9760  0.5745  0.8550
  494MOL0     H66687   3.726   3.920   5.624  0.2987 -0.6168 -0.6651
  494MOL0     H66688   4.141   4.002   5.572 -0.9907 -0.1215 -2.5161
  494MOL0     H66689   3.537   3.324   5.842  0.7851  1.1303 -1.1620
  494MOL0     H66690   3.469   3.087   5.858 -1.7392  6.1189 -0.1472
  495MOL0     O66691   9.368   3.090   2.870 -0.3981  0.0729 -1.4642
  495MOL0     C66692   9.412   2.991   2.933 -0.8257 -1.6212 -0.8053
  495MOL0     O66693   9.340   2.880   2.971 -0.2277  0.1251 -0.0217
  495MOL0     C66694   9.208   2.875   2.928 -0.6800  0.6190 -0.3578
  495MOL0     C66695   9.182   2.805   2.807  0.7567 -0.1000 -0.0269
  495MOL0     C66696   9.052   2.805   2.751 -0.9612  0.6705  0.3277
  495MOL0     C66697   8.957   2.898   2.811 -0.2172 -0.2789 -1.1287
  495MOL0     O66698   8.839   2.933   2.756  0.2716  0.0880 -0.5092
  495MOL0     C66699   8.784   2.847   2.653 -0.1854 -0.8512 -0.2396
  495MOL0     C66700   8.646   2.903   2.612  0.6474 -0.5220 -0.1731
  495MOL0     C66701   8.530   2.858   2.702 -0.8085 -0.5765 -0.3416
  495MOL0     C66702   8.402   2.912   2.629  0.2341 -0.0582  0.7591
  495MOL0     C66703   8.268   2.886   2.700  0.2526  0.2543  0.6123
  495MOL0     C66704   8.154   2.909   2.603 -0.1733 -0.0538  0.7725
  495MOL0     C66705   8.022   2.866   2.667  0.8324 -0.4581 -1.1954
  495MOL0     C66706   7.902   2.931   2.580 -0.1992  0.6114 -0.1074
  495MOL0     N66707   7.779   2.860   2.611 -0.5165  0.5773  0.2233
  495MOL0     C66708   7.709   2.856   2.725  0.6931  0.4315 -0.1261
  495MOL0     C66709   7.590   2.793   2.699  0.3541 -0.1313 -0.2948
  495MOL0     C66710   7.495   2.750   2.806 -0.4820  0.8133  1.6246
  495MOL0     C66711   7.352   2.711   2.756  0.7170  0.0233 -0.2397
  495MOL0     C66712   7.265   2.831   2.732 -0.5213 -0.6788  0.0782
  495MOL0     C66713   7.200   2.890   2.855  0.5686 -0.1254  0.1863
  495MOL0     O66714   7.140   3.022   2.828 -0.2510  0.8896 -0.0537
  495MOL0     C66715   7.043   3.066   2.921  0.0222  0.0686  1.1025
  495MOL0     C66716   7.055   3.062   3.059  0.5540 -0.2110 -0.1402
  495MOL0     C66717   6.957   3.110   3.149  1.4321  0.1781  0.4534
  495MOL0     C66718   7.002   3.149   3.284  0.3816  0.5388  0.6458
  495MOL0     C66719   6.835   3.159   3.085 -0.2681  0.4335 -0.1912
  495MOL0     C66720   6.726   3.229   3.165  0.1992  0.7147 -0.4606
  495MOL0     O66721   6.658   3.337   3.110 -0.0463  0.9372 -0.6049
  495MOL0     C66722   6.561   3.389   3.191  0.0379  0.2914  0.4123
  495MOL0     C66723   6.431   3.373   3.157  0.6228  0.6115 -0.2168
  495MOL0     C66724   6.334   3.454   3.223 -0.3162  0.1965  0.8460
  495MOL0     C66725   6.362   3.545   3.326  0.4444  1.1328 -0.1297
  495MOL0     O66726   6.275   3.617   3.398  0.4479 -0.8230 -0.0596
  495MOL0     C66727   6.162   3.680   3.332  0.3236  0.2045  0.0156
  495MOL0     C66728   6.042   3.610   3.385  0.8382 -0.3537  0.2634
  495MOL0     C66729   5.913   3.691   3.349 -0.7605  1.6680  0.3757
  495MOL0     C66730   5.796   3.622   3.415  0.6125  0.3231 -0.1332
  495MOL0     C66731   5.671   3.699   3.400 -0.1938  0.4635 -0.5092
  495MOL0     C66732   5.557   3.612   3.456  0.5819  0.1333  0.0268
  495MOL0     C66733   5.428   3.684   3.465  0.1583  0.2289  0.3466
  495MOL0     C66734   5.398   3.763   3.599 -0.4551 -0.3767  1.0054
  495MOL0    Cl66735   5.244   3.842   3.605  0.2282 -0.1581  0.2985
  495MOL0     C66736   6.490   3.547   3.364  0.5072 -0.5133  0.9443
  495MOL0     C66737   6.592   3.467   3.297 -0.1131 -0.4630 -0.4234
  495MOL0     O66738   6.686   3.168   3.265 -0.1774  0.1860 -0.0437
  495MOL0     C66739   6.827   3.158   2.946 -0.0171  0.2649  0.5130
  495MOL0     C66740   6.929   3.116   2.862  0.3262  0.1767  0.4588
  495MOL0     N66741   7.583   2.775   2.564 -0.2302  0.4886 -0.0116
  495MOL0     N66742   7.689   2.828   2.508  0.1684  0.0968  0.1153
  495MOL0     C66743   8.986   2.947   2.942  0.4308 -0.0878  0.3016
  495MOL0     C66744   9.105   2.924   3.001 -0.2185 -0.2163  0.2149
  495MOL0     C66745   9.551   3.010   2.989  0.8624 -0.0420  1.1637
  495MOL0     C66746   9.600   2.893   3.051  0.0392  0.5964 -0.6411
  495MOL0     C66747   9.738   2.895   3.087  0.0584  0.1106  0.0625
  495MOL0     C66748   9.819   3.006   3.066  0.4022  0.3636  0.3076
  495MOL0     O66749   9.950   3.016   3.095  0.2973  0.0726 -0.2582
  495MOL0     C66750   9.995   2.949   3.214 -0.7263 -0.2562 -0.3573
  495MOL0     C66751  10.108   3.026   3.278 -0.9763 -0.4644  0.0391
  495MOL0     C66752  10.185   2.927   3.369 -0.2716 -0.6753 -0.2401
  495MOL0     C66753  10.332   2.964   3.383 -0.3024  0.5974 -0.6106
  495MOL0     C66754  10.341   3.076   3.483  1.0383 -0.5306  0.1106
  495MOL0     C66755  10.365   3.175   3.548  0.7151 -0.7822  0.0294
  495MOL0     C66756   9.757   3.122   3.011 -0.3820 -0.0336 -0.0842
  495MOL0     C66757   9.623   3.127   2.967 -0.0493  0.1723  0.9175
  495MOL0     H66758   9.246   2.737   2.752 -1.2366 -2.3133  0.2221
  495MOL0     H66759   9.054   2.760   2.653 -0.8393 -0.4871  0.8445
  495MOL0     H66760   8.859   2.842   2.574  2.4278 -0.2569  2.0554
  495MOL0     H66761   8.775   2.745   2.691  0.5556 -0.9470 -0.3114
  495MOL0     H66762   8.647   3.012   2.600 -2.0020 -0.3687  0.5203
  495MOL0     H66763   8.628   2.851   2.518 -1.8519  0.0599 -0.0717
  495MOL0     H66764   8.517   2.750   2.710  1.9422 -0.9033  0.4585
  495MOL0     H66765   8.529   2.902   2.802 -1.2141 -0.9993 -0.1553
  495MOL0     H66766   8.417   3.020   2.615  0.9267  0.2823  3.5231
  495MOL0     H66767   8.397   2.870   2.528 -0.7534  2.1799 -0.1797
  495MOL0     H66768   8.275   2.781   2.729 -0.0909 -0.4179 -1.5371
  495MOL0     H66769   8.267   2.949   2.789  2.5781  1.8959 -0.4133
  495MOL0     H66770   8.134   3.013   2.576  0.3922  0.0769  0.8512
  495MOL0     H66771   8.163   2.852   2.509  0.7528  1.8869 -0.3688
  495MOL0     H66772   8.028   2.757   2.678  0.6344 -0.4322 -0.8031
  495MOL0     H66773   8.009   2.908   2.768  0.4379 -2.7031 -0.2387
  495MOL0     H66774   7.924   2.929   2.473 -1.7156 -1.2939 -0.4443
  495MOL0     H66775   7.877   3.032   2.612 -1.1727  0.2534  0.3004
  495MOL0     H66776   7.739   2.887   2.824 -1.6464 -0.5117  0.9653
  495MOL0     H66777   7.531   2.649   2.828 -0.3814  0.5960  0.5578
  495MOL0     H66778   7.486   2.816   2.892  1.6709  0.8549  1.8819
  495MOL0     H66779   7.306   2.632   2.816  1.1938  1.0095  1.4893
  495MOL0     H66780   7.365   2.661   2.659 -0.9771 -0.3955 -0.2843
  495MOL0     H66781   7.189   2.816   2.655  1.1119 -0.1418 -1.7266
  495MOL0     H66782   7.322   2.911   2.682  0.8953 -1.6305  0.1092
  495MOL0     H66783   7.271   2.908   2.936  1.3592  1.6281 -0.8413
  495MOL0     H66784   7.125   2.814   2.881  0.6025 -0.7188 -1.3278
  495MOL0     H66785   7.146   3.030   3.109  0.9524  3.3395  1.6509
  495MOL0     H66786   7.032   3.254   3.274  1.0316  0.1515 -2.2838
  495MOL0     H66787   6.926   3.143   3.363  0.7269 -0.0626  0.9421
  495MOL0     H66788   7.090   3.088   3.305  1.1531  0.4222 -2.5428
  495MOL0     H66789   6.391   3.311   3.076  0.0203 -1.8441  1.8273
  495MOL0     H66790   6.232   3.441   3.187 -0.3051  0.0674  0.8627
  495MOL0     H66791   6.168   3.788   3.353  3.6666  0.0145  0.5049
  495MOL0     H66792   6.166   3.675   3.223  0.5851 -1.0333  0.0753
  495MOL0     H66793   6.024   3.510   3.345 -0.9040 -0.0332  0.1783
  495MOL0     H66794   6.056   3.602   3.493 -2.8417 -0.1521  0.8759
  495MOL0     H66795   5.894   3.689   3.241 -3.4253 -0.1122  0.7812
  495MOL0     H66796   5.929   3.790   3.393  0.3834  1.0844  1.3334
  495MOL0     H66797   5.770   3.524   3.375 -3.5664  1.3775 -0.4162
  495MOL0     H66798   5.815   3.600   3.520 -1.2866 -0.9832 -0.0155
  495MOL0     H66799   5.645   3.730   3.298  0.2449 -1.0300 -1.0982
  495MOL0     H66800   5.683   3.789   3.461  1.8954  0.5789 -1.0387
  495MOL0     H66801   5.540   3.526   3.390 -1.4520 -0.4255  1.2059
  495MOL0     H66802   5.587   3.571   3.553  2.1403  0.6529 -0.2027
  495MOL0     H66803   5.340   3.619   3.457 -1.9088  2.3595  3.2185
  495MOL0     H66804   5.429   3.757   3.384  0.7039 -2.0380 -1.8013
  495MOL0     H66805   5.474   3.837   3.626 -0.2149 -1.2722  3.0065
  495MOL0     H66806   5.407   3.696   3.685 -0.5421 -0.1268  1.2133
  495MOL0     H66807   6.506   3.617   3.446  1.0086  0.3570  0.1297
  495MOL0     H66808   6.695   3.495   3.318 -0.5213  0.6118  0.2592
  495MOL0     H66809   6.742   3.201   2.892  0.7042 -0.8723 -1.6514
  495MOL0     H66810   6.915   3.127   2.755  3.8346  1.0733 -0.0262
  495MOL0     H66811   8.913   2.998   3.004  1.4571 -0.7260  2.1090
  495MOL0     H66812   9.135   2.943   3.104  1.0581 -1.1971  0.0427
  495MOL0     H66813   9.540   2.805   3.069  1.6812 -0.1381  1.6637
  495MOL0     H66814   9.791   2.807   3.123  0.9431  1.1137  1.3145
  495MOL0     H66815   9.915   2.940   3.289  1.3512  0.4422  2.0814
  495MOL0     H66816  10.028   2.846   3.194 -0.1241 -1.3749  4.9085
  495MOL0     H66817  10.069   3.113   3.331  3.4597  1.1971  0.9704
  495MOL0     H66818  10.176   3.071   3.205  1.3584 -1.2561  1.5935
  495MOL0     H66819  10.179   2.826   3.326 -1.7707 -0.7470  0.0970
  495MOL0     H66820  10.139   2.911   3.466  1.7170  1.4790  1.1692
  495MOL0     H66821  10.382   2.962   3.286  2.1487 -0.3719  0.5733
  495MOL0     H66822  10.373   2.877   3.435 -1.9316 -1.6210 -2.8069
  495MOL0     H66823  10.380   3.267   3.602 -1.4053 -0.3348 -0.0753
  495MOL0     H66824   9.811   3.211   2.980  1.3718 -0.2907  2.0322
  495MOL0     H66825   9.600   3.211   2.903  1.8717  0.7865  0.9868
  496MOL0     O66826   3.311   4.691   0.978  0.2767  1.0237  0.2897
  496MOL0     C66827   3.312   4.573   1.002  0.0756 -0.0070  0.6955
  496MOL0     O66828   3.200   4.490   0.998 -0.6712 -0.2901 -0.7066
  496MOL0     C66829   3.075   4.538   0.969 -0.0010 -0.7490  0.2926
  496MOL0     C66830   3.010   4.651   1.021 -0.2899  0.2994  0.1272
  496MOL0     C66831   2.875   4.660   0.982  0.4647 -0.1300  0.3162
  496MOL0     C66832   2.802   4.568   0.915 -0.5433  0.3906 -0.6772
  496MOL0     O66833   2.671   4.597   0.873  0.3958  0.1257  0.8770
  496MOL0     C66834   2.587   4.491   0.828 -0.4029  0.0409  0.6737
  496MOL0     C66835   2.446   4.549   0.816  0.9320  0.2567  0.0708
  496MOL0     C66836   2.354   4.441   0.759 -0.0485 -0.9327  0.6405
  496MOL0     C66837   2.214   4.504   0.740 -0.0015 -0.3522  0.0644
  496MOL0     C66838   2.123   4.414   0.660  0.6771 -0.3820  0.0062
  496MOL0     C66839   1.974   4.458   0.668  0.1144 -0.2886 -0.2722
  496MOL0     C66840   1.883   4.392   0.562  0.7831 -0.1718 -0.1905
  496MOL0     C66841   1.829   4.261   0.621 -0.8077  0.4009 -0.3160
  496MOL0     N66842   1.714   4.228   0.528 -0.7262 -0.2892 -0.5640
  496MOL0     C66843   1.579   4.271   0.531  0.0129 -0.4560 -0.8811
  496MOL0     C66844   1.521   4.212   0.424  0.4543 -0.2018  0.5827
  496MOL0     C66845   1.369   4.226   0.388 -0.3572  0.0164 -0.0370
  496MOL0     C66846   1.274   4.167   0.489  0.0927  0.6311 -0.1290
  496MOL0     C66847   1.124   4.171   0.460 -0.4624 -0.0042  0.5864
  496MOL0     C66848   1.038   4.162   0.594  0.4371  0.0402  0.2978
  496MOL0     O66849   1.055   4.269   0.691  0.2712 -0.7888  0.1406
  496MOL0     C66850   0.991   4.258   0.809 -0.3992 -1.1875 -0.0203
  496MOL0     C66851   0.968   4.142   0.886  0.1840 -0.5084 -0.5251
  496MOL0     C66852   0.887   4.145   1.002 -0.6348 -0.6088  0.2418
  496MOL0     C66853   0.852   4.012   1.062 -0.3296 -0.1997 -0.1243
  496MOL0     C66854   0.825   4.263   1.049  0.2115  0.1664 -0.2642
  496MOL0     C66855   0.731   4.278   1.164 -0.2196  0.3873  0.2730
  496MOL0     O66856   0.666   4.394   1.177  0.0067  0.4778 -0.0452
  496MOL0     C66857   0.597   4.420   1.291  0.9415 -1.0349  0.0706
  496MOL0     C66858   0.642   4.476   1.412 -0.0957 -0.0229  0.7000
  496MOL0     C66859   0.555   4.496   1.521  0.7224 -0.4155  0.3513
  496MOL0     C66860   0.414   4.477   1.500  0.0279  0.3092 -0.0966
  496MOL0     O66861   0.316   4.521   1.583 -0.7852  0.1978  0.2153
  496MOL0     C66862   0.341   4.562   1.716 -0.4254 -0.0325 -0.1539
  496MOL0     C66863   0.215   4.563   1.805 -0.5716 -0.4406  0.3421
  496MOL0     C66864   0.097   4.627   1.742 -0.3009 -0.7352 -0.1125
  496MOL0     C66865  -0.027   4.621   1.842 -0.2982  0.2680 -0.0998
  496MOL0     C66866  -0.157   4.685   1.780 -0.0036 -0.2131  0.0998
  496MOL0     C66867  -0.271   4.660   1.864  0.0278 -0.1535  0.7775
  496MOL0     C66868  -0.310   4.513   1.877  0.0756  0.1882 -0.1733
  496MOL0     C66869  -0.450   4.499   1.939  0.0569  0.2610  0.5685
  496MOL0    Cl66870  -0.582   4.594   1.860  0.2914  0.1617 -0.9394
  496MOL0     C66871   0.376   4.407   1.391 -0.8420  0.1483  0.2844
  496MOL0     C66872   0.463   4.400   1.279 -0.4425 -0.1277 -1.0349
  496MOL0     O66873   0.720   4.183   1.245 -0.2857  0.1389  0.5313
  496MOL0     C66874   0.856   4.379   0.975  0.1896  0.3276 -0.1481
  496MOL0     C66875   0.941   4.375   0.857 -0.1627 -1.1597  0.1889
  496MOL0     N66876   1.620   4.152   0.353 -0.6401 -0.0623  0.6504
  496MOL0     N66877   1.734   4.159   0.415  0.6824  0.1595  0.4182
  496MOL0     C66878   2.866   4.445   0.873 -0.4199  0.2213 -0.4944
  496MOL0     C66879   3.006   4.439   0.890  0.2880  0.2514 -1.7011
  496MOL0     C66880   3.434   4.514   1.058 -0.0051  0.7231 -0.7301
  496MOL0     C66881   3.553   4.583   1.087  0.1740 -0.2575  0.0127
  496MOL0     C66882   3.668   4.521   1.127 -0.6079  0.4167 -0.4295
  496MOL0     C66883   3.685   4.379   1.132  0.1083 -0.9464 -0.3477
  496MOL0     O66884   3.797   4.311   1.170 -0.1750  0.6813 -0.4790
  496MOL0     C66885   3.916   4.388   1.171 -1.0019  0.0708  0.5429
  496MOL0     C66886   4.021   4.297   1.224 -0.1465  0.3395  0.0421
  496MOL0     C66887   4.161   4.369   1.234  0.1287  0.5002 -0.2866
  496MOL0     C66888   4.291   4.289   1.264  0.5184 -1.0216 -0.4830
  496MOL0     C66889   4.305   4.188   1.163  0.2142  0.6048  0.0590
  496MOL0     C66890   4.311   4.113   1.067 -0.2165 -0.2886 -0.6807
  496MOL0     C66891   3.570   4.303   1.090 -0.1192  0.1782  0.0326
  496MOL0     C66892   3.449   4.373   1.063  0.3890 -0.0164  1.0194
  496MOL0     H66893   3.064   4.729   1.073 -1.6739 -0.7466  3.3933
  496MOL0     H66894   2.833   4.758   1.002  1.7179  0.4868  0.0085
  496MOL0     H66895   2.614   4.432   0.740 -0.0295 -1.0356  1.4835
  496MOL0     H66896   2.588   4.411   0.903 -1.4404 -1.9094 -1.2595
  496MOL0     H66897   2.408   4.564   0.918 -1.8020 -1.0643 -0.6649
  496MOL0     H66898   2.438   4.644   0.761 -0.7959  0.7311  1.0731
  496MOL0     H66899   2.389   4.403   0.663 -1.9207 -0.2066 -0.3867
  496MOL0     H66900   2.352   4.356   0.828  3.7539 -0.9157  0.9894
  496MOL0     H66901   2.153   4.522   0.829  0.9181 -1.0646  0.8683
  496MOL0     H66902   2.231   4.596   0.684 -3.1788 -0.7530 -1.7673
  496MOL0     H66903   2.139   4.440   0.555 -2.6945  1.1029 -0.2702
  496MOL0     H66904   2.129   4.309   0.692  0.6067  0.5175  3.3279
  496MOL0     H66905   1.934   4.443   0.769  2.6660 -0.7826  0.7451
  496MOL0     H66906   1.965   4.565   0.648  0.5859 -0.6205 -2.4779
  496MOL0     H66907   1.797   4.459   0.556 -2.0397 -3.6086 -1.3915
  496MOL0     H66908   1.933   4.381   0.465 -0.5188  0.7230 -0.9893
  496MOL0     H66909   1.795   4.274   0.724  2.2202  3.3199  0.4713
  496MOL0     H66910   1.907   4.184   0.612 -2.4307 -1.0902 -3.2148
  496MOL0     H66911   1.534   4.338   0.603  0.8331  2.3551 -2.8332
  496MOL0     H66912   1.338   4.331   0.388 -0.4572  0.1399  4.0792
  496MOL0     H66913   1.347   4.183   0.289  0.0370  0.4008 -0.2966
  496MOL0     H66914   1.285   4.226   0.580 -2.4252  0.5286  0.3216
  496MOL0     H66915   1.290   4.059   0.501  0.2468  0.2848 -2.7475
  496MOL0     H66916   1.100   4.085   0.396  0.1832  0.0555  0.2573
  496MOL0     H66917   1.082   4.259   0.410  2.7653  1.0921 -0.4169
  496MOL0     H66918   1.077   4.072   0.643 -0.3640 -1.1801 -1.2171
  496MOL0     H66919   0.931   4.149   0.575  0.4951 -1.4711  0.8538
  496MOL0     H66920   1.009   4.051   0.842  0.9705 -2.0362  3.0343
  496MOL0     H66921   0.895   3.929   1.006 -2.5736 -0.4961 -1.5595
  496MOL0     H66922   0.890   4.007   1.164  1.0581 -0.5575 -0.6386
  496MOL0     H66923   0.743   3.999   1.059 -0.5355  1.2283  0.2570
  496MOL0     H66924   0.748   4.497   1.424 -0.2110  0.9300  0.1903
  496MOL0     H66925   0.591   4.549   1.609 -1.4407  1.6732  0.0684
  496MOL0     H66926   0.396   4.480   1.762 -0.5023  0.5621  1.0497
  496MOL0     H66927   0.380   4.664   1.713 -1.5031  0.3719 -1.5725
  496MOL0     H66928   0.194   4.455   1.806  1.3799 -0.8631  1.7462
  496MOL0     H66929   0.232   4.598   1.907 -2.1789  1.6259 -0.0422
  496MOL0     H66930   0.066   4.579   1.648 -1.9544  0.8137 -0.4132
  496MOL0     H66931   0.120   4.732   1.723  2.8909 -1.4771 -0.8716
  496MOL0     H66932  -0.043   4.519   1.878 -1.3759  0.9705  1.5119
  496MOL0     H66933  -0.002   4.673   1.935 -2.4638  2.6449 -0.7347
  496MOL0     H66934  -0.185   4.632   1.688 -2.2221  1.0960 -0.0659
  496MOL0     H66935  -0.153   4.794   1.771 -1.4569  0.0151  1.5683
  496MOL0     H66936  -0.243   4.694   1.964  0.5864 -1.2762  1.0248
  496MOL0     H66937  -0.357   4.718   1.830  0.3992  0.2223  0.4784
  496MOL0     H66938  -0.254   4.470   1.960  0.0052  0.4003 -0.0163
  496MOL0     H66939  -0.294   4.458   1.784 -2.3475  2.8778 -2.3629
  496MOL0     H66940  -0.450   4.528   2.044 -2.2633  0.8093  0.4657
  496MOL0     H66941  -0.483   4.395   1.946 -2.7006  1.1794  4.5780
  496MOL0     H66942   0.272   4.376   1.386 -1.2057  1.2062  0.9327
  496MOL0     H66943   0.432   4.349   1.189 -1.5254 -1.6183  0.1332
  496MOL0     H66944   0.818   4.474   1.009  0.5094  0.5386 -0.3733
  496MOL0     H66945   0.960   4.462   0.796  1.2714 -1.5881 -0.0300
  496MOL0     H66946   2.828   4.367   0.809 -0.0740 -2.2808  2.1601
  496MOL0     H66947   3.060   4.351   0.856  0.2871  0.3247 -1.8984
  496MOL0     H66948   3.550   4.691   1.076  0.7119 -0.2774 -0.3754
  496MOL0     H66949   3.753   4.586   1.142 -0.7470  0.6934 -0.8342
  496MOL0     H66950   3.942   4.417   1.068  1.9162  1.9121  1.6768
  496MOL0     H66951   3.915   4.475   1.236  1.0414 -0.1434  0.9320
  496MOL0     H66952   4.018   4.213   1.154 -3.2351  1.7595 -1.7296
  496MOL0     H66953   3.993   4.258   1.322 -2.4345  0.1339 -0.6496
  496MOL0     H66954   4.145   4.455   1.301 -2.4490  0.3550 -0.6229
  496MOL0     H66955   4.176   4.418   1.138  0.0393  0.0335 -0.5391
  496MOL0     H66956   4.286   4.242   1.362  0.3275 -2.8724 -1.3384
  496MOL0     H66957   4.371   4.364   1.264 -0.5791  0.2760  2.4087
  496MOL0     H66958   4.321   4.040   0.989 -1.5128 -3.2587  1.6878
  496MOL0     H66959   3.567   4.195   1.080 -0.5049  0.0041  1.7608
  496MOL0     H66960   3.368   4.312   1.025  0.7578 -0.7231  1.3470
  497MOL0     O66961   2.540   8.221   5.425  0.7418 -0.3401  0.0508
  497MOL0     C66962   2.604   8.324   5.407 -0.7987  0.9663  0.4886
  497MOL0     O66963   2.563   8.437   5.358 -0.0468 -0.2680  0.4075
  497MOL0     C66964   2.435   8.441   5.318 -0.8164  0.1304  0.2246
  497MOL0     C66965   2.381   8.352   5.228  0.3312 -0.9813  0.5617
  497MOL0     C66966   2.240   8.354   5.200  0.3025 -0.2960  0.4473
  497MOL0     C66967   2.152   8.448   5.248  1.1492 -0.2946  0.3705
  497MOL0     O66968   2.023   8.450   5.203  0.3553 -0.1642 -0.3452
  497MOL0     C66969   1.938   8.560   5.241  0.4274 -0.2779  0.4361
  497MOL0     C66970   1.806   8.558   5.168 -0.0359  0.2052 -0.8850
  497MOL0     C66971   1.839   8.571   5.015 -0.0812 -0.0321 -0.0344
  497MOL0     C66972   1.704   8.592   4.935  0.2494 -0.7211  0.0810
  497MOL0     C66973   1.720   8.575   4.787 -0.5506  0.1243  0.1113
  497MOL0     C66974   1.809   8.674   4.711 -0.1369  0.0868 -0.1976
  497MOL0     C66975   1.789   8.663   4.555  0.1092  0.0994 -0.0173
  497MOL0     C66976   1.860   8.530   4.497  0.6989 -1.2431 -0.3981
  497MOL0     N66977   1.811   8.542   4.358 -0.0493  0.1349  0.0933
  497MOL0     C66978   1.717   8.455   4.312  0.7309  0.0980 -0.6270
  497MOL0     C66979   1.732   8.437   4.178  0.4788 -0.5252 -0.4991
  497MOL0     C66980   1.650   8.347   4.085  0.7935 -0.5159  0.6872
  497MOL0     C66981   1.556   8.430   3.992  0.0087  0.2659  0.9007
  497MOL0     C66982   1.537   8.350   3.851 -0.2213  0.1916  0.8462
  497MOL0     C66983   1.441   8.229   3.859 -0.5846 -0.1379 -0.7537
  497MOL0     O66984   1.316   8.287   3.895  0.1416  0.6612  0.9573
  497MOL0     C66985   1.216   8.195   3.925 -0.0516 -0.0039 -0.4921
  497MOL0     C66986   1.226   8.061   3.941 -0.7817  0.9137 -0.3391
  497MOL0     C66987   1.118   7.979   3.988 -0.1522  0.1434  0.4433
  497MOL0     C66988   1.150   7.837   4.005  0.4403  1.2241 -0.0128
  497MOL0     C66989   0.995   8.036   4.006  0.1893  0.1120  0.0206
  497MOL0     C66990   0.875   7.970   4.068 -0.6930  0.3976 -0.3375
  497MOL0     O66991   0.772   8.040   4.116  0.5220  0.1869  0.2151
  497MOL0     C66992   0.671   7.983   4.196 -0.0053  0.5967  0.3215
  497MOL0     C66993   0.537   8.023   4.169  0.0862  1.0946  0.1067
  497MOL0     C66994   0.426   7.972   4.241 -0.0552 -0.4439 -0.2009
  497MOL0     C66995   0.453   7.884   4.348 -0.1282 -0.0657  0.5777
  497MOL0     O66996   0.345   7.830   4.411  0.8190 -1.0684  0.7148
  497MOL0     C66997   0.364   7.717   4.498 -0.0251  1.6816  0.3981
  497MOL0     C66998   0.231   7.651   4.511  0.8416  1.4576 -0.2878
  497MOL0     C66999   0.144   7.650   4.384 -1.0445 -0.0554  0.3899
  497MOL0     C67000   0.006   7.591   4.413 -0.1966 -0.1790 -0.5180
  497MOL0     C67001  -0.084   7.613   4.286 -0.5058 -0.1408  0.1167
  497MOL0     C67002  -0.216   7.533   4.314  0.1804  0.0921  0.1910
  497MOL0     C67003  -0.312   7.535   4.190  0.3464 -0.1556 -0.5809
  497MOL0     C67004  -0.373   7.670   4.153  1.3071  0.0394 -0.7009
  497MOL0    Cl67005  -0.434   7.739   4.304 -0.1722  0.2962  0.3719
  497MOL0     C67006   0.588   7.841   4.366 -0.9007  0.2933  0.4082
  497MOL0     C67007   0.695   7.892   4.294  0.0159  0.4018 -0.3164
  497MOL0     O67008   0.883   7.843   4.071 -0.2135  0.0902  0.1898
  497MOL0     C67009   0.980   8.180   3.981 -0.0917  0.1278  0.4895
  497MOL0     C67010   1.086   8.251   3.945 -0.9894 -0.0425 -0.1928
  497MOL0     N67011   1.845   8.512   4.146 -0.2498  0.0529  0.7099
  497MOL0     N67012   1.897   8.566   4.253  0.4500  0.3861  1.2245
  497MOL0     C67013   2.213   8.546   5.336 -0.1799  0.0999  0.0808
  497MOL0     C67014   2.349   8.538   5.368  0.4545  0.7114  0.0713
  497MOL0     C67015   2.752   8.317   5.430 -0.6908  0.2316 -1.2313
  497MOL0     C67016   2.823   8.200   5.440 -0.8436  0.0122 -0.8208
  497MOL0     C67017   2.961   8.204   5.449  0.3569 -0.2673 -1.2207
  497MOL0     C67018   3.028   8.331   5.448 -0.7316  0.0550  0.3871
  497MOL0     O67019   3.158   8.337   5.484  0.5007 -1.3826 -0.4087
  497MOL0     C67020   3.243   8.227   5.497 -0.0121 -0.1019 -0.1329
  497MOL0     C67021   3.391   8.280   5.468  0.0206 -0.0811  0.2467
  497MOL0     C67022   3.485   8.163   5.435  0.3960  0.2980 -0.1520
  497MOL0     C67023   3.602   8.216   5.351  0.7859 -0.0994 -1.2302
  497MOL0     C67024   3.711   8.120   5.344  0.2990  0.5308 -0.3298
  497MOL0     C67025   3.791   8.025   5.348 -0.6672 -0.1210  0.4183
  497MOL0     C67026   2.956   8.449   5.446  0.9937 -0.7702 -0.2362
  497MOL0     C67027   2.815   8.447   5.436  0.6121 -0.2691  0.1119
  497MOL0     H67028   2.440   8.278   5.175 -0.7650 -2.0396  0.7860
  497MOL0     H67029   2.193   8.282   5.135 -3.2067  1.8088  0.3692
  497MOL0     H67030   1.933   8.562   5.350  0.8019  1.7474  0.4621
  497MOL0     H67031   1.992   8.655   5.227  0.9889 -0.3996  1.6585
  497MOL0     H67032   1.751   8.466   5.188 -0.3659  0.7947  1.2339
  497MOL0     H67033   1.738   8.639   5.197 -0.4836  0.6079 -2.9170
  497MOL0     H67034   1.907   8.655   5.001  2.6030 -1.8340  1.3829
  497MOL0     H67035   1.883   8.478   4.979  2.6932  1.2340 -0.1180
  497MOL0     H67036   1.635   8.517   4.974  0.4849  0.8240  3.9257
  497MOL0     H67037   1.663   8.693   4.950 -1.8275 -1.1065 -2.3005
  497MOL0     H67038   1.769   8.479   4.771 -0.1460  0.5889 -1.6996
  497MOL0     H67039   1.624   8.592   4.737  0.3125  2.1012 -0.9948
  497MOL0     H67040   1.768   8.770   4.745  1.2651  0.9323 -0.8013
  497MOL0     H67041   1.909   8.654   4.749 -0.4712 -1.3867 -0.0365
  497MOL0     H67042   1.681   8.656   4.539 -0.0798 -1.6464  1.7022
  497MOL0     H67043   1.826   8.751   4.502 -0.3579 -0.4790 -1.3579
  497MOL0     H67044   1.819   8.449   4.558  1.1905 -2.0507 -1.1247
  497MOL0     H67045   1.966   8.544   4.518  0.6339  1.9680 -1.5909
  497MOL0     H67046   1.644   8.402   4.372  1.6042 -0.6428 -0.1851
  497MOL0     H67047   1.710   8.286   4.016  1.0509 -0.3521  0.7619
  497MOL0     H67048   1.595   8.270   4.139  0.6756 -0.2250  0.9850
  497MOL0     H67049   1.604   8.524   3.964  1.1902 -0.7403 -0.6423
  497MOL0     H67050   1.458   8.444   4.038 -0.7178 -0.9542 -0.1964
  497MOL0     H67051   1.629   8.310   3.807  0.4484  1.5298  0.9884
  497MOL0     H67052   1.502   8.417   3.772  1.2329  0.8860  0.7543
  497MOL0     H67053   1.483   8.163   3.935  2.0343  0.4967 -1.5446
  497MOL0     H67054   1.443   8.170   3.767 -0.6866 -0.2895 -0.6596
  497MOL0     H67055   1.323   8.015   3.926 -1.2759 -0.1347 -0.3702
  497MOL0     H67056   1.121   7.802   4.104  1.1156 -0.3169 -0.3382
  497MOL0     H67057   1.105   7.774   3.928  3.9158 -2.2747  0.4921
  497MOL0     H67058   1.258   7.825   3.994  0.1243 -1.9315 -0.4255
  497MOL0     H67059   0.513   8.098   4.095 -1.1915  0.5479 -0.0484
  497MOL0     H67060   0.324   8.004   4.224 -0.2630 -0.4874  0.8849
  497MOL0     H67061   0.435   7.646   4.455 -0.7898  1.0394  0.1635
  497MOL0     H67062   0.391   7.750   4.599 -1.8261  1.6516  0.9277
  497MOL0     H67063   0.240   7.549   4.548 -2.0236 -0.2072 -3.6526
  497MOL0     H67064   0.172   7.699   4.591  0.3054  1.4645 -0.6798
  497MOL0     H67065   0.187   7.580   4.312 -2.5039 -1.5376  0.8995
  497MOL0     H67066   0.137   7.752   4.343 -2.1229 -0.0663  0.5123
  497MOL0     H67067   0.016   7.484   4.435 -0.8511  0.1529  1.5690
  497MOL0     H67068  -0.042   7.636   4.500  0.4187  0.9738 -0.7594
  497MOL0     H67069  -0.053   7.563   4.194 -2.2685 -2.4603  0.6770
  497MOL0     H67070  -0.102   7.721   4.277 -0.5666 -0.1279  0.4055
  497MOL0     H67071  -0.202   7.430   4.349 -0.0302 -0.6185 -1.7014
  497MOL0     H67072  -0.278   7.575   4.394 -0.6968 -0.3736 -0.2340
  497MOL0     H67073  -0.389   7.461   4.214  0.9484 -0.5546  0.1717
  497MOL0     H67074  -0.267   7.490   4.102 -0.1744 -1.6852 -0.0926
  497MOL0     H67075  -0.461   7.645   4.093  0.5270  0.4029  0.2574
  497MOL0     H67076  -0.304   7.732   4.096  1.0727 -0.4706 -1.5576
  497MOL0     H67077   0.615   7.763   4.437 -1.2811 -1.1714 -1.0030
  497MOL0     H67078   0.796   7.853   4.307 -0.6047 -2.0549 -2.1912
  497MOL0     H67079   0.888   8.235   3.994 -0.6718 -0.8681  0.7368
  497MOL0     H67080   1.077   8.354   3.913 -1.4177 -0.6681 -2.2194
  497MOL0     H67081   2.151   8.626   5.375 -0.1246  0.0596  0.2516
  497MOL0     H67082   2.378   8.610   5.445 -0.8623 -0.2443  1.5391
  497MOL0     H67083   2.782   8.100   5.439  1.0493 -0.8310  0.2803
  497MOL0     H67084   3.023   8.116   5.458  2.0362  1.1173  3.6137
  497MOL0     H67085   3.230   8.176   5.593  0.0560  1.0178  0.4865
  497MOL0     H67086   3.221   8.152   5.421 -0.2711  0.3789 -0.5403
  497MOL0     H67087   3.429   8.333   5.556  1.5886 -0.8335  0.0720
  497MOL0     H67088   3.384   8.349   5.384 -0.1877  1.2911  1.3595
  497MOL0     H67089   3.441   8.076   5.385  0.1023 -0.5404  1.5180
  497MOL0     H67090   3.512   8.123   5.533 -1.7013  0.3828  0.4991
  497MOL0     H67091   3.638   8.314   5.386 -1.4064  0.5604 -0.6176
  497MOL0     H67092   3.562   8.233   5.251 -0.1457 -0.5177 -0.9373
  497MOL0     H67093   3.870   7.953   5.333 -0.4457  0.0743  0.6332
  497MOL0     H67094   3.008   8.544   5.454 -1.4029  0.7588 -1.6001
  497MOL0     H67095   2.762   8.541   5.440  0.3212 -0.3800 -0.8469
  498MOL0     O67096   2.842   1.748  10.524 -0.2542 -0.2152  0.1427
  498MOL0     C67097   2.786   1.856  10.497  0.3179  0.8200 -0.1988
  498MOL0     O67098   2.650   1.862  10.458  0.3597 -0.2218  0.0738
  498MOL0     C67099   2.569   1.749  10.441 -0.3265 -0.1324 -0.2076
  498MOL0     C67100   2.433   1.748  10.484 -0.1508 -0.1522 -0.0364
  498MOL0     C67101   2.343   1.643  10.457 -0.3196 -0.0928  0.5688
  498MOL0     C67102   2.395   1.525  10.401  0.2037 -0.9236 -0.4245
  498MOL0     O67103   2.330   1.408  10.389 -0.0265  0.4859 -0.1531
  498MOL0     C67104   2.258   1.376  10.516 -0.2299 -0.5104  0.4081
  498MOL0     C67105   2.165   1.257  10.498 -0.1050  0.4292  0.2350
  498MOL0     C67106   2.033   1.296  10.432  0.4699 -0.4251  0.1217
  498MOL0     C67107   1.963   1.180  10.367 -0.2956  0.9336 -0.3779
  498MOL0     C67108   1.821   1.211  10.321  0.8501  0.1780  0.2449
  498MOL0     C67109   1.781   1.084  10.246  0.4285 -0.1460 -0.2259
  498MOL0     C67110   1.637   1.088  10.186  0.7089  0.9097  0.3245
  498MOL0     C67111   1.527   1.102  10.287  0.3788  0.7710  0.3027
  498MOL0     N67112   1.399   1.107  10.218  0.7529  0.8127 -0.2331
  498MOL0     C67113   1.346   1.214  10.154 -0.5525 -0.0825 -0.1170
  498MOL0     C67114   1.245   1.164  10.085  0.4833 -0.1192  0.6569
  498MOL0     C67115   1.137   1.250  10.032  0.2020 -1.0733 -0.0511
  498MOL0     C67116   1.002   1.174  10.008 -1.4371 -0.6907  0.1026
  498MOL0     C67117   0.871   1.263  10.003 -0.0760  0.0397  0.0768
  498MOL0     C67118   0.755   1.161   9.963  0.4281 -0.6922  0.4739
  498MOL0     O67119   0.645   1.258   9.925 -0.0250  0.6468 -0.0201
  498MOL0     C67120   0.518   1.212   9.909  0.6816  0.2189 -0.7267
  498MOL0     C67121   0.407   1.302   9.898  0.0716 -0.4264 -0.3172
  498MOL0     C67122   0.275   1.262   9.868  0.1230  0.0844 -0.4507
  498MOL0     C67123   0.168   1.371   9.856 -0.5176  0.6130 -0.2492
  498MOL0     C67124   0.242   1.121   9.876  0.0058  0.2092  0.2572
  498MOL0     C67125   0.107   1.066   9.857 -0.2893  0.0773 -0.3342
  498MOL0     O67126   0.095   0.931   9.842  0.3506 -0.1187  0.3328
  498MOL0     C67127  -0.022   0.857   9.832 -0.5581 -0.1287  0.5325
  498MOL0     C67128  -0.004   0.727   9.784  0.1364  0.4219 -1.1039
  498MOL0     C67129  -0.110   0.646   9.762  0.0052 -0.2687  0.3596
  498MOL0     C67130  -0.240   0.695   9.787  0.5834  0.8944 -0.6028
  498MOL0     O67131  -0.340   0.606   9.744  0.1356  0.1818  0.4177
  498MOL0     C67132  -0.475   0.648   9.754 -1.1528 -0.3488  0.3055
  498MOL0     C67133  -0.559   0.521   9.723 -0.3126 -0.0477 -0.1385
  498MOL0     C67134  -0.710   0.535   9.707  0.4512 -0.6947 -0.8507
  498MOL0     C67135  -0.762   0.605   9.833  0.5784 -0.8068 -0.8037
  498MOL0     C67136  -0.919   0.597   9.845  1.0670 -0.6214  0.9714
  498MOL0     C67137  -0.998   0.621   9.722 -0.5753 -0.0516 -0.1335
  498MOL0     C67138  -1.138   0.672   9.746 -0.9486 -0.6816 -0.4144
  498MOL0     C67139  -1.224   0.682   9.632  0.5057  0.3496  0.1155
  498MOL0    Cl67140  -1.180   0.808   9.519  0.1843 -0.0777 -0.1574
  498MOL0     C67141  -0.261   0.824   9.851 -0.8802  0.4404  0.0445
  498MOL0     C67142  -0.149   0.902   9.873  0.5208  1.0997  0.0554
  498MOL0     O67143   0.011   1.138   9.862  0.3606 -0.9579  0.0499
  498MOL0     C67144   0.348   1.036   9.906  0.5121  0.0831 -0.1610
  498MOL0     C67145   0.479   1.079   9.911 -0.7637 -0.6592 -0.4784
  498MOL0     N67146   1.243   1.029  10.092  0.3579  0.1135  0.0742
  498MOL0     N67147   1.331   0.994  10.183 -0.3886  0.1067 -0.0388
  498MOL0     C67148   2.528   1.522  10.361  0.3274  0.3964 -0.0973
  498MOL0     C67149   2.608   1.634  10.366  0.0006  0.3424  0.4630
  498MOL0     C67150   2.863   1.981  10.513 -0.1344  0.9613  0.3459
  498MOL0     C67151   2.807   2.100  10.466 -0.2336 -0.8063  0.2683
  498MOL0     C67152   2.870   2.220  10.490 -0.0143  1.2084 -0.2811
  498MOL0     C67153   2.995   2.223  10.556  0.8753  0.3730  0.5104
  498MOL0     O67154   3.053   2.343  10.595  0.2283 -0.5774 -0.6111
  498MOL0     C67155   3.033   2.461  10.515  0.0710  0.2046  0.2571
  498MOL0     C67156   3.110   2.577  10.572 -0.3661  0.2976  0.0613
  498MOL0     C67157   3.272   2.541  10.575 -0.2288 -0.1872 -0.6530
  498MOL0     C67158   3.356   2.662  10.626 -0.4322  0.3853  0.1737
  498MOL0     C67159   3.407   2.737  10.511  0.1794 -0.4862 -0.0273
  498MOL0     C67160   3.464   2.780  10.415 -0.1836 -0.1313  0.0420
  498MOL0     C67161   3.048   2.105  10.607 -0.0796 -0.3314 -0.4462
  498MOL0     C67162   2.985   1.985  10.573  0.1416  0.0898 -0.7541
  498MOL0     H67163   2.408   1.846  10.523  0.0349 -0.3046  0.4656
  498MOL0     H67164   2.241   1.653  10.495 -0.8267  1.1164 -0.9939
  498MOL0     H67165   2.337   1.366  10.590 -0.2893  0.2493  0.5750
  498MOL0     H67166   2.193   1.459  10.545 -0.8508 -1.1103  0.7814
  498MOL0     H67167   2.220   1.202  10.420  0.2720  0.6243  0.3631
  498MOL0     H67168   2.162   1.192  10.585 -0.2781  1.3505  0.9322
  498MOL0     H67169   1.978   1.336  10.518  2.1005 -1.2613  1.6258
  498MOL0     H67170   2.045   1.373  10.355 -0.5831  0.5880  0.9376
  498MOL0     H67171   2.021   1.146  10.281 -2.3236 -2.2196 -0.6477
  498MOL0     H67172   1.967   1.098  10.439  2.3002  0.1844 -1.2534
  498MOL0     H67173   1.756   1.237  10.404  2.3005  0.5699  1.2972
  498MOL0     H67174   1.823   1.298  10.254  2.1857 -0.1852 -0.2095
  498MOL0     H67175   1.853   1.079  10.164  0.5501 -0.9619 -0.0702
  498MOL0     H67176   1.786   0.999  10.315 -0.4277 -2.0045 -2.3324
  498MOL0     H67177   1.634   1.175  10.120 -2.0059  1.5946  1.2406
  498MOL0     H67178   1.617   0.992  10.136  0.2269  0.7655  0.7795
  498MOL0     H67179   1.542   1.200  10.333 -2.3489  0.5183  1.9148
  498MOL0     H67180   1.534   1.019  10.358 -0.1388  0.4964  0.0361
  498MOL0     H67181   1.359   1.320  10.170 -4.5915  0.4048  0.8725
  498MOL0     H67182   1.104   1.317  10.112 -0.0235  2.6016 -2.9634
  498MOL0     H67183   1.170   1.301   9.941  2.9913  0.4542  1.6847
  498MOL0     H67184   1.005   1.105  10.093  2.1625  1.2731  1.8180
  498MOL0     H67185   1.010   1.116   9.915 -0.1224 -0.4742  0.0571
  498MOL0     H67186   0.886   1.337   9.924 -1.6586  1.3467  0.9321
  498MOL0     H67187   0.850   1.322  10.093  0.0381  1.8990 -1.0785
  498MOL0     H67188   0.728   1.090  10.042  0.9144 -0.3702  0.9370
  498MOL0     H67189   0.791   1.105   9.876 -1.1661 -1.2668  0.1459
  498MOL0     H67190   0.441   1.405   9.902  0.9146 -0.7032  0.0080
  498MOL0     H67191   0.098   1.351   9.774 -2.2562  2.0394  0.8102
  498MOL0     H67192   0.107   1.373   9.947 -0.5437  0.5193 -0.2639
  498MOL0     H67193   0.201   1.474   9.842  0.3722  0.3516 -0.1538
  498MOL0     H67194   0.093   0.680   9.772 -0.5773 -1.1980 -0.6971
  498MOL0     H67195  -0.093   0.552   9.712 -0.3503 -0.0196 -0.2470
  498MOL0     H67196  -0.502   0.685   9.854 -0.9698  2.2000 -0.5184
  498MOL0     H67197  -0.488   0.729   9.682  0.2849 -0.2565  0.1257
  498MOL0     H67198  -0.518   0.466   9.638 -1.4571 -2.7321  0.9036
  498MOL0     H67199  -0.540   0.456   9.809  2.6047  1.1732  0.2483
  498MOL0     H67200  -0.766   0.442   9.696 -1.4762  0.4409 -1.0960
  498MOL0     H67201  -0.732   0.585   9.612 -0.9058  1.2674  0.4122
  498MOL0     H67202  -0.726   0.561   9.927 -1.8119  2.1086  1.6863
  498MOL0     H67203  -0.727   0.709   9.839 -0.6938 -0.3728 -0.6224
  498MOL0     H67204  -0.948   0.671   9.920  0.8724  0.0449  0.2540
  498MOL0     H67205  -0.945   0.498   9.884 -1.4962 -1.0263 -1.4127
  498MOL0     H67206  -0.951   0.709   9.678  1.1621 -1.2608 -0.8205
  498MOL0     H67207  -0.995   0.540   9.648 -2.1434 -0.6612  0.4188
  498MOL0     H67208  -1.135   0.769   9.797  0.5906 -0.9710  0.1067
  498MOL0     H67209  -1.185   0.605   9.820 -0.4259  0.0251  0.5839
  498MOL0     H67210  -1.330   0.695   9.658 -0.1100 -3.0290 -0.2798
  498MOL0     H67211  -1.222   0.586   9.579 -2.7107 -0.3594  1.0227
  498MOL0     H67212  -0.356   0.874   9.867 -1.9948 -0.3818 -3.2687
  498MOL0     H67213  -0.177   0.994   9.923 -0.7976  0.4309  0.5727
  498MOL0     H67214   0.336   0.929   9.915 -1.3811  0.0647 -2.0127
  498MOL0     H67215   0.561   1.009   9.922 -1.7204 -1.6538  0.7062
  498MOL0     H67216   2.566   1.435  10.310  3.9318  2.3574 -1.1045
  498MOL0     H67217   2.706   1.629  10.320  1.4319 -1.3066  3.4435
  498MOL0     H67218   2.717   2.092  10.406  1.6955 -0.4268 -2.9317
  498MOL0     H67219   2.826   2.312  10.453  0.0779  1.7162  0.8161
  498MOL0     H67220   3.062   2.431  10.414 -0.7184  0.3775 -0.0195
  498MOL0     H67221   2.934   2.505  10.505  0.5745  1.2071 -0.4763
  498MOL0     H67222   3.073   2.593  10.673 -2.4476 -1.7460 -0.2818
  498MOL0     H67223   3.090   2.675  10.528  1.2446  0.6502  0.0560
  498MOL0     H67224   3.319   2.518  10.479  1.6715  0.6131  0.0535
  498MOL0     H67225   3.285   2.462  10.649  0.6248  2.2559  1.9534
  498MOL0     H67226   3.439   2.618  10.682 -1.0622 -1.3834 -0.2252
  498MOL0     H67227   3.303   2.718  10.703  0.7720 -2.3271  3.1937
  498MOL0     H67228   3.514   2.816  10.328 -1.3589  0.6412 -0.3324
  498MOL0     H67229   3.150   2.104  10.643  0.5583 -0.3003 -2.1897
  498MOL0     H67230   3.023   1.886  10.594 -1.4116 -0.8173 -1.9744
  499MOL0     O67231   7.603   2.135   2.965  0.6387 -1.1270 -0.1927
  499MOL0     C67232   7.584   2.224   2.880 -0.0633  0.4120  0.5827
  499MOL0     O67233   7.459   2.268   2.844  0.9591 -0.3185  0.2831
  499MOL0     C67234   7.340   2.216   2.898 -0.6170  0.4925  0.5449
  499MOL0     C67235   7.223   2.267   2.838 -0.4539  0.0110  0.5111
  499MOL0     C67236   7.093   2.248   2.896 -0.0031  0.3494 -0.0901
  499MOL0     C67237   7.075   2.166   3.007  0.4736 -0.4371  0.5079
  499MOL0     O67238   6.955   2.137   3.068 -0.3365  0.9972 -0.1806
  499MOL0     C67239   6.830   2.182   3.017  0.5443 -0.0843  0.3270
  499MOL0     C67240   6.784   2.111   2.893 -0.4497  0.6100  0.0990
  499MOL0     C67241   6.671   2.187   2.808 -0.2953  1.0029 -0.1416
  499MOL0     C67242   6.720   2.318   2.735 -0.1095 -0.2381 -0.5598
  499MOL0     C67243   6.664   2.331   2.587 -0.2459  0.0956 -0.3447
  499MOL0     C67244   6.511   2.312   2.585  0.4182 -0.1018  0.1250
  499MOL0     C67245   6.442   2.372   2.461  0.5057  0.2536 -0.3610
  499MOL0     C67246   6.317   2.299   2.415  0.7806  0.1499  0.5007
  499MOL0     N67247   6.217   2.278   2.529  0.1571 -0.5738  0.2126
  499MOL0     C67248   6.121   2.370   2.549  0.2839 -0.1540 -0.6035
  499MOL0     C67249   6.047   2.313   2.647 -0.3903  0.5974 -0.1905
  499MOL0     C67250   5.927   2.379   2.717  0.3067 -0.0436  0.3974
  499MOL0     C67251   5.792   2.345   2.649  0.1676  0.3044  1.0030
  499MOL0     C67252   5.781   2.415   2.502  0.3089  0.3867 -0.5859
  499MOL0     C67253   5.643   2.447   2.452 -0.1803  0.3775 -0.5865
  499MOL0     O67254   5.611   2.575   2.503  0.2707  0.5868 -0.1141
  499MOL0     C67255   5.498   2.639   2.457 -0.4357 -0.4291  0.2477
  499MOL0     C67256   5.405   2.585   2.360  0.0497  0.6471 -0.0958
  499MOL0     C67257   5.307   2.663   2.301 -0.0424  0.2233 -0.3138
  499MOL0     C67258   5.231   2.602   2.190 -0.8073  0.0163 -0.0909
  499MOL0     C67259   5.275   2.787   2.355  0.6097  0.6471 -0.4818
  499MOL0     C67260   5.153   2.860   2.324 -0.8672 -0.0856  1.0477
  499MOL0     O67261   5.134   2.974   2.393  0.0296  0.4526 -0.8121
  499MOL0     C67262   5.023   3.047   2.386 -0.1395 -0.5767 -0.4600
  499MOL0     C67263   4.922   3.035   2.480  0.1057 -0.0226 -0.2060
  499MOL0     C67264   4.810   3.114   2.476  0.1468  0.6700 -0.3933
  499MOL0     C67265   4.791   3.213   2.379  0.4949  0.0087 -0.3453
  499MOL0     O67266   4.691   3.298   2.385  0.1531 -0.1262 -0.0824
  499MOL0     C67267   4.570   3.261   2.320 -0.1942 -0.1230  0.1180
  499MOL0     C67268   4.453   3.362   2.355 -0.5027 -0.3924  0.8531
  499MOL0     C67269   4.462   3.493   2.281  0.5299 -0.7506 -0.8341
  499MOL0     C67270   4.370   3.599   2.351 -0.0419  0.2882  0.5270
  499MOL0     C67271   4.406   3.740   2.293  0.1299  0.1161  0.4059
  499MOL0     C67272   4.549   3.800   2.327  0.3948  0.8482 -0.0669
  499MOL0     C67273   4.586   3.768   2.473  0.5591 -0.6078  0.4061
  499MOL0     C67274   4.722   3.826   2.511  0.0146 -0.1265 -0.1073
  499MOL0    Cl67275   4.856   3.789   2.394 -0.1418 -0.0607  0.0384
  499MOL0     C67276   4.892   3.226   2.288 -0.3562 -0.1289  0.4291
  499MOL0     C67277   5.008   3.147   2.293 -0.3167 -0.0471 -0.1584
  499MOL0     O67278   5.087   2.840   2.226  0.0585  0.6548 -0.4418
  499MOL0     C67279   5.362   2.835   2.461  0.3564  0.6299  0.6355
  499MOL0     C67280   5.470   2.765   2.506 -0.9380 -0.9643 -0.2425
  499MOL0     N67281   6.103   2.190   2.672  0.5371 -0.4732 -0.0371
  499MOL0     N67282   6.211   2.167   2.603 -0.2225  0.5709  0.3795
  499MOL0     C67283   7.189   2.115   3.067 -0.2327 -0.0110 -0.5393
  499MOL0     C67284   7.323   2.125   3.011  0.2654  0.0794 -0.2751
  499MOL0     C67285   7.701   2.287   2.816 -0.4899  0.9609  0.3933
  499MOL0     C67286   7.699   2.412   2.760 -0.8427 -0.0311 -0.1819
  499MOL0     C67287   7.811   2.470   2.702  0.1372 -0.4397 -0.0219
  499MOL0     C67288   7.939   2.409   2.710  0.9128  0.5633 -0.2498
  499MOL0     O67289   8.043   2.467   2.647 -0.7930  0.0145  0.1016
  499MOL0     C67290   8.106   2.399   2.539 -0.3094  0.7113 -0.3260
  499MOL0     C67291   8.202   2.484   2.452  0.1017 -0.4811 -0.2193
  499MOL0     C67292   8.326   2.523   2.531 -0.0425 -0.0002  0.4212
  499MOL0     C67293   8.409   2.411   2.594  0.8144  0.9349 -0.1186
  499MOL0     C67294   8.544   2.453   2.642  0.5124  0.1524  0.6979
  499MOL0     C67295   8.649   2.463   2.689  0.2831 -0.4407 -0.0237
  499MOL0     C67296   7.947   2.285   2.765  0.5686 -0.8690  0.2089
  499MOL0     C67297   7.831   2.225   2.818  0.5379 -0.2819 -0.2220
  499MOL0     H67298   7.246   2.331   2.753  0.4068  3.9343  3.3749
  499MOL0     H67299   7.001   2.290   2.857  1.4000  1.8329 -1.9945
  499MOL0     H67300   6.754   2.164   3.094  2.0947 -2.4698  1.4296
  499MOL0     H67301   6.817   2.287   2.992 -1.8540 -0.0922  1.2533
  499MOL0     H67302   6.873   2.099   2.830  2.0731  3.5056  2.7609
  499MOL0     H67303   6.747   2.013   2.925 -0.6094  1.0074  1.1743
  499MOL0     H67304   6.646   2.115   2.729  1.4879  1.9477 -1.6411
  499MOL0     H67305   6.589   2.194   2.879 -0.2677 -1.8013  0.2753
  499MOL0     H67306   6.688   2.404   2.796 -0.5891 -0.6187 -0.2662
  499MOL0     H67307   6.829   2.329   2.742 -0.1051  0.9736 -2.0762
  499MOL0     H67308   6.688   2.428   2.542  0.9107 -0.5536 -1.1402
  499MOL0     H67309   6.706   2.244   2.536  2.2484  1.2137 -0.3129
  499MOL0     H67310   6.484   2.207   2.595  1.7849 -0.4951 -0.2208
  499MOL0     H67311   6.467   2.370   2.667 -1.5753 -0.2746 -0.7545
  499MOL0     H67312   6.412   2.476   2.478 -0.8365  0.2834 -2.5112
  499MOL0     H67313   6.519   2.371   2.383  0.0902 -3.0006 -0.8596
  499MOL0     H67314   6.353   2.202   2.379 -1.5194 -0.5975  0.0399
  499MOL0     H67315   6.270   2.344   2.327 -0.8438  0.4381  1.4694
  499MOL0     H67316   6.094   2.467   2.509  0.8520  1.4922  2.6753
  499MOL0     H67317   5.925   2.326   2.813  3.0418 -0.6818  0.1686
  499MOL0     H67318   5.938   2.488   2.719 -1.5583  0.1910 -0.1870
  499MOL0     H67319   5.709   2.381   2.711 -0.2994  1.3416 -0.1886
  499MOL0     H67320   5.773   2.239   2.636 -0.6924  0.4954  0.6275
  499MOL0     H67321   5.825   2.345   2.431 -0.3438 -1.8381  1.0780
  499MOL0     H67322   5.832   2.512   2.504 -0.7154  0.9325  1.4433
  499MOL0     H67323   5.575   2.372   2.494  0.8414  0.7594  1.9178
  499MOL0     H67324   5.630   2.442   2.343 -0.6273  0.0654 -0.5219
  499MOL0     H67325   5.410   2.489   2.310 -3.9720 -0.1150  0.5893
  499MOL0     H67326   5.220   2.672   2.108  0.5263  0.5934  0.1979
  499MOL0     H67327   5.278   2.518   2.139  0.7926  1.0699 -0.4013
  499MOL0     H67328   5.129   2.580   2.224 -0.1791  1.0283  2.7412
  499MOL0     H67329   4.919   2.970   2.567 -2.0004  1.4069  0.8815
  499MOL0     H67330   4.731   3.087   2.545  1.8920  0.0611  1.4972
  499MOL0     H67331   4.580   3.249   2.212 -2.1488  0.0007 -0.1173
  499MOL0     H67332   4.549   3.161   2.359  0.6696 -0.7135 -0.8767
  499MOL0     H67333   4.355   3.319   2.331 -0.3221  0.5293 -1.9097
  499MOL0     H67334   4.454   3.383   2.462  0.1146 -0.8220  0.9376
  499MOL0     H67335   4.421   3.482   2.181  0.6164  1.5404 -1.1843
  499MOL0     H67336   4.565   3.529   2.272  1.2932 -3.0552 -2.0758
  499MOL0     H67337   4.266   3.569   2.339  0.4455 -2.3123  2.1254
  499MOL0     H67338   4.391   3.596   2.458  1.1878  0.8249  0.3249
  499MOL0     H67339   4.340   3.816   2.335 -0.8116 -0.1716 -0.5356
  499MOL0     H67340   4.392   3.747   2.185  0.9038  0.4192  0.3167
  499MOL0     H67341   4.620   3.755   2.258 -1.3701 -0.1127 -1.3544
  499MOL0     H67342   4.544   3.907   2.303  0.0325  1.0218  0.7771
  499MOL0     H67343   4.605   3.661   2.479 -0.0951 -0.7349  0.2459
  499MOL0     H67344   4.509   3.803   2.544  2.5695  1.7509  1.6034
  499MOL0     H67345   4.746   3.809   2.616  2.7576 -0.2398 -0.6805
  499MOL0     H67346   4.713   3.934   2.501 -1.5798 -0.2836 -0.6633
  499MOL0     H67347   4.884   3.294   2.203  1.7052 -1.8482 -1.2730
  499MOL0     H67348   5.084   3.150   2.216 -0.9413 -2.4544 -0.9836
  499MOL0     H67349   5.345   2.927   2.517  3.7615  2.0186 -0.3692
  499MOL0     H67350   5.548   2.806   2.569  1.7337  0.3170 -4.0788
  499MOL0     H67351   7.182   2.047   3.151  1.6043  0.0906 -0.2556
  499MOL0     H67352   7.407   2.074   3.056  1.3095  1.3429 -0.7124
  499MOL0     H67353   7.607   2.470   2.764 -1.1530 -0.3502 -2.0405
  499MOL0     H67354   7.811   2.564   2.649 -2.7315 -0.6177 -0.4863
  499MOL0     H67355   8.157   2.305   2.563 -0.3448  0.3100 -1.7073
  499MOL0     H67356   8.024   2.371   2.472  0.3356 -2.9352  0.2171
  499MOL0     H67357   8.157   2.580   2.427  0.4627 -0.2454  0.0244
  499MOL0     H67358   8.239   2.424   2.368 -0.4733 -0.6823 -0.3362
  499MOL0     H67359   8.300   2.595   2.610  2.6325 -0.2045  1.6054
  499MOL0     H67360   8.386   2.574   2.455 -2.0432  0.4570 -0.9329
  499MOL0     H67361   8.434   2.323   2.534 -2.8549 -0.6008  0.3510
  499MOL0     H67362   8.347   2.370   2.674 -0.7731  0.1836 -1.6777
  499MOL0     H67363   8.730   2.460   2.759  0.2595  1.3418  0.1272
  499MOL0     H67364   8.048   2.246   2.761  1.7579  2.0432 -0.1586
  499MOL0     H67365   7.830   2.122   2.854  1.3364 -1.3954 -3.0746
  500MOL0     O67366   3.594   7.321   7.506 -0.5856  0.1282 -0.0305
  500MOL0     C67367   3.638   7.296   7.618  0.4895  0.6697 -0.0158
  500MOL0     O67368   3.556   7.298   7.736  0.4024 -0.2998 -0.1857
  500MOL0     C67369   3.428   7.335   7.733  0.8459 -0.2254 -0.2075
  500MOL0     C67370   3.349   7.287   7.839  0.5794 -0.1926  0.0949
  500MOL0     C67371   3.211   7.305   7.839  0.4926 -0.0501 -1.0429
  500MOL0     C67372   3.148   7.368   7.739 -0.1775  0.1613  0.5941
  500MOL0     O67373   3.014   7.391   7.744  0.0270  0.3734  0.8784
  500MOL0     C67374   2.933   7.343   7.637  0.0326  0.5276 -0.2772
  500MOL0     C67375   2.791   7.377   7.668  0.3893  0.1749 -0.5546
  500MOL0     C67376   2.714   7.391   7.537 -0.8332  1.0029 -0.0269
  500MOL0     C67377   2.569   7.424   7.565 -0.1739 -0.7380  0.2265
  500MOL0     C67378   2.547   7.566   7.621 -0.8354 -0.3682 -0.3763
  500MOL0     C67379   2.406   7.589   7.674 -0.4806  0.4534 -0.6468
  500MOL0     C67380   2.297   7.603   7.565  0.7533 -0.2272 -1.1693
  500MOL0     C67381   2.163   7.571   7.626 -0.3606 -0.4411  0.2583
  500MOL0     N67382   2.141   7.637   7.757  0.4923 -0.0120  1.0811
  500MOL0     C67383   2.121   7.766   7.780 -0.1527 -0.3000  0.4573
  500MOL0     C67384   2.123   7.781   7.912  0.2016 -0.2407 -0.0749
  500MOL0     C67385   2.101   7.911   7.988  0.2056 -0.4578 -0.1779
  500MOL0     C67386   1.951   7.953   8.010  0.3010  0.1863  0.7237
  500MOL0     C67387   1.882   7.984   7.875 -0.6014  1.3724  0.8066
  500MOL0     C67388   1.741   8.042   7.884  0.4132  0.5192 -0.4371
  500MOL0     O67389   1.684   8.044   7.751 -0.3478 -0.7982 -0.6344
  500MOL0     C67390   1.550   8.074   7.745 -0.6613  0.1778  0.3382
  500MOL0     C67391   1.482   8.159   7.836  0.9517 -0.3162  0.4006
  500MOL0     C67392   1.351   8.194   7.823 -0.5169  0.2288 -0.0513
  500MOL0     C67393   1.299   8.274   7.946 -0.0777  0.3704 -0.0042
  500MOL0     C67394   1.278   8.150   7.712  0.0663  0.2011  0.0970
  500MOL0     C67395   1.131   8.175   7.688 -0.6881  0.1178 -0.7894
  500MOL0     O67396   1.074   8.099   7.591 -0.1617 -0.5831  0.3171
  500MOL0     C67397   0.942   8.094   7.563 -0.1034 -0.1413  0.6761
  500MOL0     C67398   0.889   7.972   7.525 -0.5160  0.3842  0.0212
  500MOL0     C67399   0.758   7.953   7.493  0.3033 -0.1697 -0.0560
  500MOL0     C67400   0.666   8.057   7.513 -0.4161 -1.0207 -1.5607
  500MOL0     O67401   0.525   8.049   7.497 -0.0574 -0.3624 -0.0337
  500MOL0     C67402   0.457   7.926   7.479 -0.7695  0.3614  0.3813
  500MOL0     C67403   0.421   7.880   7.333  1.4560  0.3414 -0.1056
  500MOL0     C67404   0.372   7.999   7.243 -0.4621 -0.0712  0.2963
  500MOL0     C67405   0.306   7.943   7.114 -0.5321  1.0612  0.6069
  500MOL0     C67406   0.153   7.913   7.135 -0.3912  0.8480  0.9143
  500MOL0     C67407   0.084   7.851   7.008 -0.3182  0.2518 -0.3437
  500MOL0     C67408   0.046   7.950   6.899 -0.4768  1.5728 -0.8744
  500MOL0     C67409  -0.024   7.893   6.778  0.5536  0.7459  0.4218
  500MOL0    Cl67410   0.085   7.781   6.686 -0.3150 -0.2333 -0.1192
  500MOL0     C67411   0.712   8.182   7.557 -0.1267  0.8033  0.7517
  500MOL0     C67412   0.851   8.203   7.583 -0.6394  0.3649 -0.3911
  500MOL0     O67413   1.064   8.232   7.772 -0.2720  0.0902  0.3477
  500MOL0     C67414   1.344   8.068   7.624 -0.2449 -1.0304  0.4232
  500MOL0     C67415   1.476   8.040   7.636 -0.2366  0.2727  0.2695
  500MOL0     N67416   2.139   7.661   7.974  0.3355 -0.8561  0.4546
  500MOL0     N67417   2.141   7.576   7.875  0.2952  0.1799 -0.2434
  500MOL0     C67418   3.223   7.415   7.631  0.2533  0.4402  0.4059
  500MOL0     C67419   3.361   7.397   7.628  0.9237  0.2602 -0.1126
  500MOL0     C67420   3.777   7.255   7.641 -0.4763  0.9753  0.1873
  500MOL0     C67421   3.827   7.233   7.769  0.2044  0.1762  0.3252
  500MOL0     C67422   3.958   7.199   7.787 -0.1994  0.0926 -0.0075
  500MOL0     C67423   4.049   7.187   7.683 -0.0794  0.4024 -0.6277
  500MOL0     O67424   4.179   7.166   7.710 -0.9180  0.2695  0.4548
  500MOL0     C67425   4.271   7.139   7.598  0.3487  0.1229  0.4859
  500MOL0     C67426   4.410   7.142   7.648  0.1418 -0.1496  0.5312
  500MOL0     C67427   4.454   7.026   7.751  0.0254 -0.2779 -0.2290
  500MOL0     C67428   4.556   7.091   7.847 -0.3080  0.3649  0.3461
  500MOL0     C67429   4.591   7.009   7.957  0.7876 -0.8277  0.1377
  500MOL0     C67430   4.621   6.933   8.049 -0.2316 -0.2931 -0.1559
  500MOL0     C67431   3.999   7.194   7.557 -0.2306 -0.6911  0.6231
  500MOL0     C67432   3.867   7.223   7.533  0.0043  0.2988 -0.6139
  500MOL0     H67433   3.391   7.238   7.927 -0.8078  2.8622  2.6577
  500MOL0     H67434   3.161   7.285   7.933  2.9997  0.1100  0.4119
  500MOL0     H67435   2.963   7.398   7.547 -0.9408  2.0964  0.3202
  500MOL0     H67436   2.956   7.238   7.620 -0.1929  0.2011  1.3376
  500MOL0     H67437   2.748   7.304   7.736  1.3877  0.3384  0.2870
  500MOL0     H67438   2.787   7.475   7.717 -0.0329 -0.4108  0.6165
  500MOL0     H67439   2.772   7.466   7.482  0.9102  0.8048  1.4096
  500MOL0     H67440   2.730   7.296   7.486  0.4729  0.8285  0.6560
  500MOL0     H67441   2.514   7.415   7.471 -0.7678  3.3730 -0.0369
  500MOL0     H67442   2.527   7.351   7.635 -1.6023 -0.8550 -0.7221
  500MOL0     H67443   2.612   7.579   7.708  1.1061 -1.8289 -1.5291
  500MOL0     H67444   2.574   7.641   7.546 -2.3686 -0.0714 -0.6548
  500MOL0     H67445   2.379   7.518   7.753 -1.8557  2.2429  0.5499
  500MOL0     H67446   2.404   7.684   7.727 -1.4393 -1.3882  2.9112
  500MOL0     H67447   2.294   7.705   7.526 -0.8687 -0.3146 -1.3771
  500MOL0     H67448   2.307   7.528   7.486 -0.0079 -1.1752 -0.4065
  500MOL0     H67449   2.153   7.462   7.636 -0.5592 -0.3742  0.8665
  500MOL0     H67450   2.088   7.595   7.550 -0.3651  1.4053  0.7989
  500MOL0     H67451   2.099   7.848   7.713 -1.6341  0.7503  2.1364
  500MOL0     H67452   2.155   7.909   8.083  0.3447  1.0123 -0.2034
  500MOL0     H67453   2.155   7.987   7.931 -0.0485 -1.4876 -1.8869
  500MOL0     H67454   1.935   8.039   8.077 -2.3335 -0.5745  1.1942
  500MOL0     H67455   1.904   7.867   8.060  1.3227 -0.1840  1.0785
  500MOL0     H67456   1.871   7.883   7.834 -2.4815  1.2199  1.5562
  500MOL0     H67457   1.938   8.048   7.808  0.2630 -0.0479  0.1217
  500MOL0     H67458   1.762   8.142   7.923  2.5781  1.1358 -2.9009
  500MOL0     H67459   1.687   7.977   7.952  2.3193  1.4922  2.1733
  500MOL0     H67460   1.537   8.198   7.922  0.6953 -1.5816  1.1799
  500MOL0     H67461   1.236   8.356   7.911 -0.1528 -0.4557 -1.9488
  500MOL0     H67462   1.239   8.203   8.004  0.4029 -0.4084 -0.4452
  500MOL0     H67463   1.374   8.321   8.009 -0.7195 -0.9128  1.7866
  500MOL0     H67464   0.960   7.893   7.504 -1.0017 -0.0290 -0.0771
  500MOL0     H67465   0.737   7.853   7.457 -3.4214  0.0746  1.0225
  500MOL0     H67466   0.515   7.849   7.530 -1.9869 -1.0084 -0.2149
  500MOL0     H67467   0.360   7.933   7.530  0.0927 -0.5794  2.2545
  500MOL0     H67468   0.503   7.822   7.289 -0.1328 -2.2326  0.1706
  500MOL0     H67469   0.336   7.814   7.351  1.3237  0.0101 -1.8036
  500MOL0     H67470   0.460   8.055   7.208 -2.1425  2.4726 -0.1030
  500MOL0     H67471   0.308   8.071   7.293  1.1059  0.5878  1.4304
  500MOL0     H67472   0.314   8.009   7.028  5.0819 -1.1001 -0.9991
  500MOL0     H67473   0.361   7.850   7.093  1.1545  1.1478  3.9155
  500MOL0     H67474   0.109   8.009   7.164 -0.7698  0.1986  2.6161
  500MOL0     H67475   0.152   7.836   7.212 -0.7264  0.3559  0.4261
  500MOL0     H67476   0.135   7.764   6.967  0.1664  1.4689 -2.5165
  500MOL0     H67477  -0.010   7.814   7.049  0.7158 -1.1728  0.8509
  500MOL0     H67478   0.139   7.992   6.859 -0.2824  1.6481 -0.3474
  500MOL0     H67479  -0.010   8.035   6.940 -0.8924  0.0456  2.0005
  500MOL0     H67480  -0.038   7.976   6.709  1.5893  1.6997  1.3228
  500MOL0     H67481  -0.118   7.843   6.804  1.7016 -4.4411 -3.6868
  500MOL0     H67482   0.637   8.258   7.578 -1.3176  0.2706 -1.3279
  500MOL0     H67483   0.890   8.293   7.630  2.8849 -1.4594  0.5361
  500MOL0     H67484   1.293   8.025   7.538  1.0383 -1.0903 -0.3195
  500MOL0     H67485   1.517   7.969   7.565 -1.8281  0.2149 -0.6380
  500MOL0     H67486   3.177   7.489   7.567  0.3920  1.2734  1.2540
  500MOL0     H67487   3.416   7.437   7.544  1.9332 -1.6526 -0.4060
  500MOL0     H67488   3.757   7.247   7.850  0.2265  1.9749  0.0767
  500MOL0     H67489   3.994   7.190   7.889 -1.0443 -0.4757  0.2516
  500MOL0     H67490   4.243   7.049   7.543 -2.1187  0.2748  1.3550
  500MOL0     H67491   4.267   7.213   7.518  3.6756  1.2612  1.1936
  500MOL0     H67492   4.421   7.239   7.697  0.2520 -1.2830  2.8666
  500MOL0     H67493   4.471   7.134   7.558  1.3890 -0.3603  1.3767
  500MOL0     H67494   4.492   6.945   7.688 -3.1481 -1.3834 -0.9282
  500MOL0     H67495   4.359   6.997   7.799 -0.9415  1.1301 -1.2215
  500MOL0     H67496   4.525   7.189   7.885  0.8623  0.3075  1.5068
  500MOL0     H67497   4.648   7.117   7.794 -1.3966  0.4647 -1.5796
  500MOL0     H67498   4.633   6.862   8.128  1.5712 -0.3211 -0.4132
  500MOL0     H67499   4.065   7.186   7.471  0.2452 -0.8924  0.9998
  500MOL0     H67500   3.831   7.231   7.431 -2.5744  1.6645  0.3205
  501MOL0     O67501   8.081   6.102   3.921  0.7233 -0.1874  0.5681
  501MOL0     C67502   8.043   6.166   3.819  0.6214  0.0551 -0.5489
  501MOL0     O67503   7.926   6.227   3.807 -0.1765 -0.6088  0.5322
  501MOL0     C67504   7.838   6.229   3.903 -0.5018  0.6942 -0.4711
  501MOL0     C67505   7.704   6.202   3.880  0.4528  1.4310 -0.5391
  501MOL0     C67506   7.612   6.196   3.990 -0.7068  0.0006  0.1458
  501MOL0     C67507   7.647   6.236   4.116 -0.6889 -0.7930 -0.6540
  501MOL0     O67508   7.547   6.244   4.214 -0.2966  0.0086 -0.3798
  501MOL0     C67509   7.567   6.346   4.313  0.0253 -1.1460 -0.3134
  501MOL0     C67510   7.446   6.349   4.406  0.6230 -0.4934 -0.0912
  501MOL0     C67511   7.325   6.407   4.333  0.1455 -0.1676 -0.3514
  501MOL0     C67512   7.204   6.416   4.420  0.1322  0.0249 -1.2162
  501MOL0     C67513   7.103   6.504   4.363  0.1052 -0.9767  0.1378
  501MOL0     C67514   6.981   6.543   4.447 -0.6636 -0.3950  0.6106
  501MOL0     C67515   6.960   6.694   4.425  0.0407  0.1697 -0.6039
  501MOL0     C67516   6.829   6.744   4.499 -0.4094 -0.4278  0.9205
  501MOL0     N67517   6.769   6.866   4.442  0.2367  0.4191 -0.3659
  501MOL0     C67518   6.830   6.985   4.425  0.1389  0.1167 -0.3128
  501MOL0     C67519   6.730   7.059   4.376 -1.5410  0.2372 -1.3719
  501MOL0     C67520   6.736   7.201   4.323  0.1962 -0.0120  0.0232
  501MOL0     C67521   6.658   7.213   4.188  0.6730 -0.5315 -0.4048
  501MOL0     C67522   6.649   7.357   4.139  0.1154  0.7277  0.2860
  501MOL0     C67523   6.555   7.440   4.220  0.3051  0.1357 -0.3684
  501MOL0     O67524   6.533   7.574   4.161  0.1395 -0.0892  0.0802
  501MOL0     C67525   6.409   7.621   4.162  0.4274  0.5434 -0.1144
  501MOL0     C67526   6.309   7.542   4.094  0.4276 -0.0816  0.7132
  501MOL0     C67527   6.177   7.592   4.093 -0.0349  0.2815 -0.2987
  501MOL0     C67528   6.069   7.493   4.044 -0.3933 -0.9571  0.1039
  501MOL0     C67529   6.148   7.722   4.142  1.4836  0.1337 -0.5685
  501MOL0     C67530   6.009   7.774   4.126  0.3276 -0.0307  0.2917
  501MOL0     O67531   5.935   7.743   4.013 -0.0337  0.1795 -0.3056
  501MOL0     C67532   5.815   7.810   3.982 -0.2149  0.4382  0.2447
  501MOL0     C67533   5.698   7.733   3.956  0.5565 -0.7414 -0.5064
  501MOL0     C67534   5.568   7.792   3.931 -0.1855  0.0644 -0.3536
  501MOL0     C67535   5.560   7.932   3.937 -0.0876 -0.1568  0.4316
  501MOL0     O67536   5.427   7.979   3.914  0.4519  0.4933 -0.1575
  501MOL0     C67537   5.410   8.122   3.941 -0.2367  0.0695  0.0472
  501MOL0     C67538   5.263   8.174   3.924  0.4098  0.4109  0.5739
  501MOL0     C67539   5.244   8.308   3.996  0.2746  0.0341 -0.3707
  501MOL0     C67540   5.306   8.431   3.916  0.4358  0.4168  0.0226
  501MOL0     C67541   5.295   8.556   3.993  0.0241 -0.1300  0.6768
  501MOL0     C67542   5.157   8.621   3.985 -0.7333  0.1219 -0.6044
  501MOL0     C67543   5.100   8.664   4.123 -0.5778  0.0194  0.5067
  501MOL0     C67544   4.961   8.732   4.097 -0.0310  1.0197 -0.0289
  501MOL0    Cl67545   4.899   8.807   4.243  0.0886  0.1781 -0.9130
  501MOL0     C67546   5.674   8.005   3.967 -0.4171 -0.7801 -0.8601
  501MOL0     C67547   5.800   7.946   3.981  0.4223  0.3462  0.1817
  501MOL0     O67548   5.970   7.848   4.215 -0.5759  0.3857  0.1505
  501MOL0     C67549   6.256   7.802   4.202 -0.8507  0.4966  0.9515
  501MOL0     C67550   6.384   7.746   4.216  0.1723  0.0614 -0.0153
  501MOL0     N67551   6.613   6.984   4.369 -0.2781  0.2109  0.2296
  501MOL0     N67552   6.633   6.872   4.416 -0.5098  0.1020  0.9403
  501MOL0     C67553   7.785   6.261   4.138  0.2725 -0.4401 -0.3779
  501MOL0     C67554   7.874   6.261   4.038  0.2597  0.6229 -0.8624
  501MOL0     C67555   8.143   6.159   3.707  0.1835  0.2746 -0.5255
  501MOL0     C67556   8.243   6.066   3.709  0.6432  0.0581  0.0170
  501MOL0     C67557   8.346   6.069   3.619  0.4459  0.1154  0.0355
  501MOL0     C67558   8.361   6.168   3.524  0.0974  0.5289 -0.6098
  501MOL0     O67559   8.464   6.168   3.432  0.9071 -0.1544  0.2655
  501MOL0     C67560   8.566   6.068   3.434  0.0950  0.6423 -0.3993
  501MOL0     C67561   8.662   6.092   3.312  0.4395  0.1057 -0.0533
  501MOL0     C67562   8.592   6.066   3.179  0.5159  0.3476  0.1210
  501MOL0     C67563   8.694   6.049   3.071 -0.3220 -0.5838 -0.2473
  501MOL0     C67564   8.773   6.177   3.059 -0.2527  0.9735 -0.2660
  501MOL0     C67565   8.834   6.281   3.048  0.6335 -0.1317 -0.3920
  501MOL0     C67566   8.265   6.277   3.529  0.2659  0.1318  0.9010
  501MOL0     C67567   8.148   6.270   3.619  0.0545  0.6676  0.0409
  501MOL0     H67568   7.664   6.181   3.781 -1.5263 -3.0435  0.9264
  501MOL0     H67569   7.519   6.151   3.958  1.2093 -3.0592 -1.6524
  501MOL0     H67570   7.660   6.336   4.370  0.3959 -1.9301 -1.0268
  501MOL0     H67571   7.568   6.435   4.250  2.4463 -0.8761  0.0230
  501MOL0     H67572   7.415   6.245   4.425  1.4675 -0.6925  0.2202
  501MOL0     H67573   7.459   6.401   4.501 -0.5509  2.2358 -1.3082
  501MOL0     H67574   7.343   6.507   4.294 -0.9349 -1.1084 -3.5958
  501MOL0     H67575   7.302   6.345   4.245  0.2089 -0.3753 -0.2229
  501MOL0     H67576   7.171   6.313   4.433  2.4343 -1.2452 -4.1615
  501MOL0     H67577   7.241   6.456   4.515  2.4322 -0.6888 -1.7399
  501MOL0     H67578   7.146   6.601   4.339 -2.2881  0.4629  1.2310
  501MOL0     H67579   7.076   6.455   4.269 -1.1902 -1.1875  0.5965
  501MOL0     H67580   6.897   6.485   4.408 -0.5416  0.2581 -0.6749
  501MOL0     H67581   6.998   6.521   4.553 -0.4056  0.5561  0.7691
  501MOL0     H67582   7.038   6.755   4.470 -0.4279 -0.1986  0.7557
  501MOL0     H67583   6.948   6.709   4.317 -1.5467  0.4273 -0.4185
  501MOL0     H67584   6.855   6.768   4.602 -1.0867  1.6730  0.6360
  501MOL0     H67585   6.751   6.667   4.491 -0.0095 -0.8095  0.6204
  501MOL0     H67586   6.932   7.019   4.440  0.2230 -0.8334  1.6065
  501MOL0     H67587   6.695   7.261   4.405  1.5381  1.1287 -0.1013
  501MOL0     H67588   6.841   7.231   4.316  0.0811  0.7128  1.0248
  501MOL0     H67589   6.556   7.175   4.199  2.0150 -4.4972 -0.4038
  501MOL0     H67590   6.709   7.152   4.113  0.2466  0.2892 -1.3906
  501MOL0     H67591   6.603   7.337   4.041 -0.0165  0.0347  0.4850
  501MOL0     H67592   6.742   7.413   4.129 -0.2619  1.4302  0.6445
  501MOL0     H67593   6.605   7.448   4.317  0.2676 -2.0188 -0.1276
  501MOL0     H67594   6.457   7.403   4.253 -0.2593  2.0673  0.2795
  501MOL0     H67595   6.329   7.444   4.053 -0.8869  0.1615 -0.5961
  501MOL0     H67596   6.059   7.522   3.939  1.9440  0.9261  0.3054
  501MOL0     H67597   6.098   7.388   4.044  2.4793 -0.2392  0.0515
  501MOL0     H67598   5.974   7.504   4.098  0.9463  1.8632  2.1762
  501MOL0     H67599   5.717   7.627   3.949  2.0270 -0.4401 -1.5621
  501MOL0     H67600   5.484   7.724   3.916 -0.8820  1.1354 -1.5371
  501MOL0     H67601   5.451   8.142   4.041  2.2759 -0.2195 -0.8701
  501MOL0     H67602   5.469   8.187   3.876 -0.8570  0.0773 -0.5137
  501MOL0     H67603   5.244   8.178   3.816  0.9155  1.5772  0.5045
  501MOL0     H67604   5.196   8.100   3.969  1.2260 -0.2810  0.6623
  501MOL0     H67605   5.304   8.304   4.087 -0.5107  0.1349  0.1593
  501MOL0     H67606   5.138   8.328   4.018  0.0965  1.3845 -2.1470
  501MOL0     H67607   5.410   8.410   3.891  1.2491  1.4684  2.1991
  501MOL0     H67608   5.244   8.441   3.826 -0.3511 -0.1796  0.4777
  501MOL0     H67609   5.373   8.612   3.941 -1.8903 -1.0816 -3.5858
  501MOL0     H67610   5.326   8.541   4.097  0.8818  0.1698  0.4778
  501MOL0     H67611   5.165   8.708   3.919  0.8700 -0.3052 -1.0252
  501MOL0     H67612   5.081   8.550   3.952 -2.3567  2.0895 -1.2449
  501MOL0     H67613   5.165   8.745   4.156  3.1534 -2.2477 -0.7076
  501MOL0     H67614   5.110   8.581   4.193 -1.2526 -0.9623 -0.5235
  501MOL0     H67615   4.890   8.653   4.070  1.8652 -1.2376  1.2463
  501MOL0     H67616   4.974   8.798   4.010  1.8603 -0.4060 -0.9171
  501MOL0     H67617   5.668   8.113   3.976  0.5961 -0.6973 -1.0512
  501MOL0     H67618   5.888   8.009   3.987  1.3673 -0.7447 -1.4699
  501MOL0     H67619   6.245   7.904   4.239 -2.0308  2.0881 -3.2246
  501MOL0     H67620   6.457   7.811   4.263 -1.2557  3.7953 -2.4658
  501MOL0     H67621   7.822   6.295   4.235 -1.2561  0.9113 -0.2444
  501MOL0     H67622   7.977   6.289   4.057  0.6270 -0.3552 -1.3384
  501MOL0     H67623   8.230   5.984   3.779 -1.9591 -0.7564 -1.3150
  501MOL0     H67624   8.414   5.984   3.624  0.6947  0.3518  0.7436
  501MOL0     H67625   8.623   6.075   3.527  2.2333  1.1909 -1.6759
  501MOL0     H67626   8.520   5.969   3.417 -0.7907  1.3828 -2.8204
  501MOL0     H67627   8.739   6.014   3.314 -1.3625 -1.8524 -1.7841
  501MOL0     H67628   8.716   6.186   3.319  0.9109 -0.2214  0.8800
  501MOL0     H67629   8.512   6.139   3.163 -0.7525 -1.1488 -0.6380
  501MOL0     H67630   8.545   5.968   3.184  0.9396  0.0681 -1.0228
  501MOL0     H67631   8.645   6.026   2.976  0.6562 -1.1702 -0.6214
  501MOL0     H67632   8.760   5.964   3.087 -1.1748 -0.9654  1.3949
  501MOL0     H67633   8.877   6.377   3.029  0.1278 -0.3648 -3.0990
  501MOL0     H67634   8.268   6.360   3.459  1.4359  1.2158  2.1958
  501MOL0     H67635   8.072   6.347   3.623 -0.0353  0.5622  0.4798
  502MOL0     O67636   2.618   2.599  10.632 -0.1209  0.0143 -0.9465
  502MOL0     C67637   2.668   2.616  10.522  0.7128 -0.4443 -0.1190
  502MOL0     O67638   2.654   2.532  10.415 -0.2590  0.4167 -0.1597
  502MOL0     C67639   2.570   2.426  10.406  0.9191 -0.5227  0.2461
  502MOL0     C67640   2.590   2.329  10.302 -0.1402 -0.0314 -0.0030
  502MOL0     C67641   2.495   2.230  10.279  0.4653  0.0422  0.5389
  502MOL0     C67642   2.380   2.215  10.352  0.0703 -0.2074  0.0235
  502MOL0     O67643   2.294   2.113  10.321 -0.7456 -0.0206 -0.7205
  502MOL0     C67644   2.167   2.117  10.391 -0.5834 -0.5580  0.6816
  502MOL0     C67645   2.072   2.014  10.329  0.0632  0.1851 -0.6956
  502MOL0     C67646   1.940   2.009  10.400 -0.1252  0.5827 -0.7719
  502MOL0     C67647   1.848   1.904  10.335  0.3201  0.5002 -0.0016
  502MOL0     C67648   1.781   1.955  10.212 -0.8579  0.8910  0.7230
  502MOL0     C67649   1.665   1.864  10.174 -0.3612 -0.3066 -0.3611
  502MOL0     C67650   1.633   1.863  10.023  0.7023  0.5218 -0.1902
  502MOL0     C67651   1.524   1.771   9.975  0.1625 -0.2357  0.7866
  502MOL0     N67652   1.563   1.634  10.004 -0.9216  0.4700 -0.7293
  502MOL0     C67653   1.635   1.557   9.925 -0.0240 -0.0320  0.2417
  502MOL0     C67654   1.642   1.435   9.980  0.2489 -0.0324 -0.4773
  502MOL0     C67655   1.713   1.324   9.915 -0.2895  0.4356  0.7191
  502MOL0     C67656   1.626   1.228   9.824 -0.7870  0.4578  0.2921
  502MOL0     C67657   1.627   1.277   9.680  0.1924 -0.5618  0.2703
  502MOL0     C67658   1.515   1.362   9.635 -0.7176 -0.1101 -0.1812
  502MOL0     O67659   1.387   1.302   9.660 -0.4609  0.2420 -0.4281
  502MOL0     C67660   1.282   1.390   9.652  0.1581 -0.5068  0.1098
  502MOL0     C67661   1.255   1.487   9.749 -0.1534  0.2836  0.7454
  502MOL0     C67662   1.132   1.551   9.759 -1.1243 -0.4156 -0.0774
  502MOL0     C67663   1.130   1.643   9.877  0.1888 -0.2806  0.0352
  502MOL0     C67664   1.029   1.522   9.671 -1.0391  0.8623  0.2432
  502MOL0     C67665   0.898   1.585   9.684  0.9729  0.0102  0.4790
  502MOL0     O67666   0.810   1.521   9.603  0.0406  0.3978 -0.0577
  502MOL0     C67667   0.679   1.568   9.606  0.4672  0.7256 -0.6591
  502MOL0     C67668   0.618   1.618   9.495  0.2804  0.1592  0.7633
  502MOL0     C67669   0.484   1.665   9.489 -0.6592  0.8028  0.8039
  502MOL0     C67670   0.399   1.643   9.598 -0.5116 -0.0898  0.0493
  502MOL0     O67671   0.268   1.679   9.617  0.4613 -0.1628 -0.5960
  502MOL0     C67672   0.191   1.714   9.501  0.2954 -0.0375 -0.5617
  502MOL0     C67673   0.038   1.706   9.528  0.6877 -1.5717 -0.3130
  502MOL0     C67674  -0.000   1.569   9.570 -0.3989  0.3169 -0.6728
  502MOL0     C67675  -0.153   1.567   9.587  1.1688  1.7770 -0.2783
  502MOL0     C67676  -0.236   1.557   9.450 -0.4176 -0.1453  0.8275
  502MOL0     C67677  -0.398   1.554   9.470 -1.4803  0.2315 -0.9158
  502MOL0     C67678  -0.461   1.595   9.341  0.6263  0.5521  0.5321
  502MOL0     C67679  -0.620   1.613   9.333  0.4615 -0.2389 -0.0493
  502MOL0    Cl67680  -0.677   1.652   9.170  0.2571 -0.1616  0.2321
  502MOL0     C67681   0.459   1.585   9.712 -0.0783 -0.0124  0.1951
  502MOL0     C67682   0.597   1.549   9.717  0.3016  0.0094  0.6150
  502MOL0     O67683   0.871   1.690   9.747  1.2547 -0.0261  0.1858
  502MOL0     C67684   1.049   1.411   9.583 -0.5304 -0.6368  0.2514
  502MOL0     C67685   1.176   1.356   9.563  0.2371  0.0013  0.3772
  502MOL0     N67686   1.576   1.429  10.094  1.4457  0.6698  0.0666
  502MOL0     N67687   1.529   1.552  10.111  0.5982 -0.0028 -0.1488
  502MOL0     C67688   2.372   2.296  10.467  0.0575 -0.4210 -0.3973
  502MOL0     C67689   2.461   2.406  10.489  0.4591  0.1470 -0.5692
  502MOL0     C67690   2.758   2.733  10.505  0.1333  0.6347 -1.3081
  502MOL0     C67691   2.799   2.772  10.380 -0.0494 -0.0748 -0.4652
  502MOL0     C67692   2.889   2.884  10.374 -0.6372 -0.1454  0.0104
  502MOL0     C67693   2.949   2.954  10.479 -0.4279  0.6909 -0.1416
  502MOL0     O67694   3.049   3.050  10.452 -0.6528  0.3056  0.8233
  502MOL0     C67695   3.093   3.134  10.564 -0.6913 -0.2781 -0.2743
  502MOL0     C67696   3.207   3.224  10.520  0.5992  0.3149 -0.3076
  502MOL0     C67697   3.341   3.160  10.574  0.0908 -0.6498  0.4248
  502MOL0     C67698   3.458   3.256  10.537  0.3877  0.0935  0.0855
  502MOL0     C67699   3.582   3.201  10.598 -0.4853 -0.2693 -0.0468
  502MOL0     C67700   3.673   3.156  10.660  0.4343  0.2277 -0.3755
  502MOL0     C67701   2.901   2.906  10.602 -0.3682  0.3224 -0.8633
  502MOL0     C67702   2.806   2.808  10.621  0.0169  0.8885  0.6202
  502MOL0     H67703   2.670   2.360  10.236  0.1261 -2.7482 -1.1031
  502MOL0     H67704   2.500   2.158  10.198 -1.0938 -0.2902  0.7205
  502MOL0     H67705   2.180   2.088  10.495  1.7582 -0.7285  0.3918
  502MOL0     H67706   2.122   2.217  10.384 -0.3805 -0.5511 -0.9298
  502MOL0     H67707   2.065   2.036  10.222  0.8980 -0.2904 -0.8605
  502MOL0     H67708   2.125   1.919  10.341  2.3554  1.5537  1.0002
  502MOL0     H67709   1.960   1.961  10.496 -2.3498  1.8148  0.3763
  502MOL0     H67710   1.891   2.105  10.416  1.3075  1.0722  0.9630
  502MOL0     H67711   1.903   1.810  10.320  0.8485  1.0837 -2.1974
  502MOL0     H67712   1.758   1.889  10.394 -0.1852 -0.8990 -1.0582
  502MOL0     H67713   1.755   2.061  10.213 -0.2809  1.0863 -1.0355
  502MOL0     H67714   1.856   1.950  10.132 -3.2298 -0.4113 -1.5492
  502MOL0     H67715   1.697   1.762  10.200 -1.4358 -0.8356 -1.0106
  502MOL0     H67716   1.581   1.900  10.233 -0.0379  0.1653 -0.1909
  502MOL0     H67717   1.605   1.966   9.997  2.3737  1.2767  0.7898
  502MOL0     H67718   1.721   1.842   9.962  0.5082 -2.4522  0.4122
  502MOL0     H67719   1.514   1.793   9.868  1.9382 -0.9158  0.4449
  502MOL0     H67720   1.424   1.780  10.016 -0.2449 -1.8619  0.2030
  502MOL0     H67721   1.675   1.586   9.829 -2.7314 -0.9787 -1.2870
  502MOL0     H67722   1.800   1.354   9.857  0.4005 -2.1544  0.2739
  502MOL0     H67723   1.754   1.268  10.000 -0.6906 -4.0609 -1.7147
  502MOL0     H67724   1.527   1.228   9.869 -1.1091 -2.8928 -0.1478
  502MOL0     H67725   1.656   1.123   9.821  1.1524  0.9027  1.8218
  502MOL0     H67726   1.615   1.187   9.618 -0.5000  1.9411 -3.5580
  502MOL0     H67727   1.721   1.319   9.644  0.0221 -0.7923 -0.4740
  502MOL0     H67728   1.525   1.391   9.530  1.0502  3.4087  0.7984
  502MOL0     H67729   1.524   1.453   9.695 -1.8351 -1.4039  2.1248
  502MOL0     H67730   1.326   1.511   9.828 -2.4742  2.8190  2.2100
  502MOL0     H67731   1.059   1.611   9.954 -1.0149  1.5550 -0.2522
  502MOL0     H67732   1.232   1.661   9.911  0.4962 -2.2485  0.2876
  502MOL0     H67733   1.093   1.743   9.853 -1.3676 -0.0395  2.9957
  502MOL0     H67734   0.686   1.645   9.416  0.9722 -0.7908  1.0198
  502MOL0     H67735   0.445   1.699   9.394  1.3848  0.3014 -0.2917
  502MOL0     H67736   0.213   1.809   9.453  4.2701 -0.8956 -0.7884
  502MOL0     H67737   0.216   1.653   9.414  1.4899  1.9027 -1.6435
  502MOL0     H67738   0.014   1.774   9.610  0.0645 -3.8609  1.5060
  502MOL0     H67739  -0.001   1.737   9.431  2.9566  0.5472 -0.6295
  502MOL0     H67740   0.048   1.558   9.667 -1.9063 -2.2364 -0.1368
  502MOL0     H67741   0.039   1.490   9.506 -2.7013 -2.0346  0.6641
  502MOL0     H67742  -0.176   1.477   9.646 -0.5830  1.3948 -1.4725
  502MOL0     H67743  -0.188   1.649   9.650  0.1149  1.3529 -0.2947
  502MOL0     H67744  -0.208   1.474   9.384 -0.7611  1.0576 -0.9184
  502MOL0     H67745  -0.218   1.641   9.382 -0.4885 -1.5859 -1.0553
  502MOL0     H67746  -0.440   1.456   9.495 -2.5448  1.0522  0.7824
  502MOL0     H67747  -0.422   1.628   9.547  3.8787  0.1493  1.2489
  502MOL0     H67748  -0.426   1.518   9.271 -0.9659  1.4923 -1.3951
  502MOL0     H67749  -0.422   1.690   9.304 -1.1281  0.7676 -0.9333
  502MOL0     H67750  -0.649   1.692   9.404  2.9232  1.9587 -1.3337
  502MOL0     H67751  -0.665   1.520   9.369 -1.6124  1.0095  0.8089
  502MOL0     H67752   0.403   1.570   9.803 -0.0474  0.7381  0.3389
  502MOL0     H67753   0.639   1.507   9.808  3.3024 -0.0283 -0.6732
  502MOL0     H67754   0.980   1.378   9.505 -0.1058 -3.0587  0.8231
  502MOL0     H67755   1.194   1.273   9.495 -0.9519 -1.8974  2.2426
  502MOL0     H67756   2.295   2.270  10.539  0.9752 -0.5613  0.5649
  502MOL0     H67757   2.437   2.465  10.577 -0.9094 -0.9665 -0.1630
  502MOL0     H67758   2.773   2.723  10.287 -0.2339  0.7180 -0.8434
  502MOL0     H67759   2.920   2.913  10.275 -0.3993  0.6140  0.3054
  502MOL0     H67760   3.005   3.191  10.596 -2.1728 -1.1758 -2.5079
  502MOL0     H67761   3.125   3.076  10.651  0.9765  0.3981 -0.4002
  502MOL0     H67762   3.190   3.320  10.570 -2.8559  0.0022 -0.6353
  502MOL0     H67763   3.217   3.233  10.411 -0.0803 -0.3035 -0.4229
  502MOL0     H67764   3.373   3.063  10.534  0.5820  0.1750 -1.2240
  502MOL0     H67765   3.332   3.155  10.683  2.3177 -0.2246  0.6757
  502MOL0     H67766   3.440   3.355  10.578 -1.5577  0.2776 -1.0962
  502MOL0     H67767   3.462   3.274  10.430 -2.3170 -2.3554 -0.5674
  502MOL0     H67768   3.746   3.111  10.724  1.5030  0.2381 -1.5481
  502MOL0     H67769   2.934   2.958  10.691  3.6141 -1.6135 -0.9846
  502MOL0     H67770   2.770   2.792  10.722 -0.9325  0.3103  0.2056
  503MOL0     O67771   1.485   3.640   2.898 -0.1623 -0.6560 -0.3649
  503MOL0     C67772   1.560   3.577   2.826  0.1043  0.1088 -0.2418
  503MOL0     O67773   1.569   3.587   2.691 -0.5404  0.0625  0.2772
  503MOL0     C67774   1.497   3.671   2.610  0.1008  0.0649  0.6056
  503MOL0     C67775   1.487   3.634   2.475 -0.4290  0.5793  0.5614
  503MOL0     C67776   1.396   3.701   2.387 -0.2740 -0.6024 -0.0480
  503MOL0     C67777   1.325   3.814   2.437 -0.0697  0.1471 -0.5035
  503MOL0     O67778   1.221   3.879   2.373  0.8898  0.4350 -0.2184
  503MOL0     C67779   1.134   3.808   2.278 -0.3397 -0.0448 -1.1543
  503MOL0     C67780   1.063   3.702   2.365  0.5104 -0.5478  0.1383
  503MOL0     C67781   0.940   3.653   2.286 -1.5431  0.2798  0.1432
  503MOL0     C67782   0.885   3.531   2.355  0.3100  0.1889  0.2123
  503MOL0     C67783   0.794   3.561   2.479  0.5095 -0.1286 -0.4154
  503MOL0     C67784   0.714   3.434   2.533 -0.3034  0.4445  0.3589
  503MOL0     C67785   0.617   3.484   2.641  0.2601  0.4775  0.1653
  503MOL0     C67786   0.646   3.423   2.782  0.2146  0.2154  0.1752
  503MOL0     N67787   0.630   3.275   2.791  0.1949 -0.3765  0.3119
  503MOL0     C67788   0.509   3.219   2.799  0.6174  0.3345 -0.9675
  503MOL0     C67789   0.536   3.087   2.806 -0.5526  0.1042 -0.7132
  503MOL0     C67790   0.421   2.986   2.840 -0.2392 -0.2990  0.2015
  503MOL0     C67791   0.370   2.952   2.705 -0.2655  0.1227 -0.5756
  503MOL0     C67792   0.219   2.937   2.713 -0.0569  0.3861  0.2801
  503MOL0     C67793   0.175   2.816   2.799  0.5271  0.0023  0.6167
  503MOL0     O67794   0.031   2.823   2.822 -0.2557 -0.2947 -0.6695
  503MOL0     C67795  -0.046   2.705   2.829 -0.4592  0.2731 -0.0748
  503MOL0     C67796  -0.009   2.568   2.825 -0.4305 -0.5905  0.3435
  503MOL0     C67797  -0.108   2.467   2.825  0.5444 -0.1883 -0.4521
  503MOL0     C67798  -0.050   2.327   2.823  1.5607  0.0069  0.3106
  503MOL0     C67799  -0.246   2.513   2.827 -0.0264  0.4896  0.3419
  503MOL0     C67800  -0.358   2.405   2.827 -0.1598 -0.2723  0.2904
  503MOL0     O67801  -0.353   2.304   2.737  0.4883  0.4134 -0.4406
  503MOL0     C67802  -0.454   2.211   2.729 -0.0493  0.3437  0.2016
  503MOL0     C67803  -0.448   2.083   2.791 -0.3405 -0.2357  0.2987
  503MOL0     C67804  -0.566   2.010   2.779 -0.0277  0.2231 -0.0387
  503MOL0     C67805  -0.673   2.046   2.696  0.2943 -0.0461  0.4483
  503MOL0     O67806  -0.776   1.957   2.679  0.2066 -0.5463 -0.6992
  503MOL0     C67807  -0.849   1.961   2.556  1.2085  0.7873 -0.8399
  503MOL0     C67808  -0.965   1.862   2.571 -0.9951  0.4055  0.3256
  503MOL0     C67809  -1.064   1.890   2.460  0.3780 -0.2672 -0.0459
  503MOL0     C67810  -1.199   1.821   2.477 -0.2368  0.1164 -0.1080
  503MOL0     C67811  -1.278   1.791   2.345  0.2586  0.2771  0.4036
  503MOL0     C67812  -1.400   1.715   2.389  0.3212 -0.2152  0.7385
  503MOL0     C67813  -1.484   1.670   2.267 -0.7116  0.0914 -0.7627
  503MOL0     C67814  -1.432   1.563   2.185 -0.0637 -0.0541 -0.3119
  503MOL0    Cl67815  -1.454   1.406   2.269 -0.0974 -0.3636 -0.1507
  503MOL0     C67816  -0.668   2.165   2.624 -0.3104 -0.0451 -0.3311
  503MOL0     C67817  -0.561   2.250   2.642 -0.0085  0.0593 -0.4162
  503MOL0     O67818  -0.445   2.419   2.908 -0.1077 -0.8355  0.2492
  503MOL0     C67819  -0.283   2.647   2.839  0.4026 -0.8547  0.8308
  503MOL0     C67820  -0.185   2.746   2.835 -0.6572  0.5236  0.1959
  503MOL0     N67821   0.673   3.071   2.789 -0.1436  0.2658  0.4387
  503MOL0     N67822   0.729   3.187   2.782 -0.7196 -0.2146  0.0822
  503MOL0     C67823   1.355   3.868   2.560 -1.0062 -0.3759  0.1383
  503MOL0     C67824   1.439   3.793   2.648 -0.4711 -0.7343 -0.9293
  503MOL0     C67825   1.634   3.456   2.887  1.5207  0.0471  0.4674
  503MOL0     C67826   1.642   3.434   3.024  1.0994  0.1633  0.5424
  503MOL0     C67827   1.699   3.322   3.072  0.0768 -0.4346 -0.4776
  503MOL0     C67828   1.753   3.224   2.988 -0.2965  0.1783  0.2387
  503MOL0     O67829   1.818   3.115   3.042  0.4398 -0.4144 -0.0537
  503MOL0     C67830   1.884   3.024   2.957  0.5054  0.4976 -0.3659
  503MOL0     C67831   1.941   2.907   3.040 -0.0112 -0.3829 -0.3812
  503MOL0     C67832   2.086   2.937   3.089  0.4807  0.0442  0.2938
  503MOL0     C67833   2.145   2.805   3.132 -0.1289  0.3325  0.1308
  503MOL0     C67834   2.292   2.822   3.145 -0.4973  0.4384 -0.4624
  503MOL0     C67835   2.415   2.836   3.150  0.0566  0.3989  0.1923
  503MOL0     C67836   1.742   3.239   2.849  0.6945 -0.2233 -0.2183
  503MOL0     C67837   1.691   3.357   2.793  1.0459  0.6434  0.1606
  503MOL0     H67838   1.552   3.556   2.436  1.1937  1.3476  1.5881
  503MOL0     H67839   1.372   3.656   2.291 -3.7365  0.1664  0.3300
  503MOL0     H67840   1.057   3.871   2.232 -0.4341 -0.8837 -2.1930
  503MOL0     H67841   1.190   3.769   2.192 -0.9096  1.4649 -2.2719
  503MOL0     H67842   1.139   3.624   2.376 -0.0053 -1.4690 -2.1499
  503MOL0     H67843   1.044   3.741   2.465  1.3672 -0.0605  0.1216
  503MOL0     H67844   0.868   3.736   2.288  0.0370  1.7838 -1.3855
  503MOL0     H67845   0.960   3.642   2.179 -1.1958  2.4856 -0.0723
  503MOL0     H67846   0.822   3.471   2.289  0.6043  1.5121 -1.3461
  503MOL0     H67847   0.971   3.472   2.385 -1.1577 -3.4476 -2.0277
  503MOL0     H67848   0.846   3.614   2.559 -2.3665 -0.6666  1.9997
  503MOL0     H67849   0.724   3.633   2.436  0.8238 -0.2389 -1.1145
  503MOL0     H67850   0.658   3.396   2.447 -0.0298 -0.9171  0.7546
  503MOL0     H67851   0.777   3.354   2.573 -1.6876 -1.1658 -0.5352
  503MOL0     H67852   0.621   3.593   2.645 -0.5399  0.5348 -0.5525
  503MOL0     H67853   0.515   3.453   2.616  0.3963  0.2769 -0.1521
  503MOL0     H67854   0.575   3.465   2.854  0.6302  0.0374  0.6930
  503MOL0     H67855   0.748   3.460   2.796 -0.4946  2.3388  0.1241
  503MOL0     H67856   0.412   3.267   2.807  0.5687 -0.0892  1.7787
  503MOL0     H67857   0.461   2.897   2.889 -0.2081  0.4279  1.5559
  503MOL0     H67858   0.351   3.041   2.904 -2.3038 -1.2277 -1.1455
  503MOL0     H67859   0.419   2.860   2.671 -0.2572 -0.0937  0.0255
  503MOL0     H67860   0.394   3.022   2.624 -0.5234  1.4921  0.4980
  503MOL0     H67861   0.169   2.927   2.616 -0.6527  0.2510  0.5916
  503MOL0     H67862   0.171   3.022   2.762  0.7561  0.7020  0.5362
  503MOL0     H67863   0.232   2.818   2.892  0.2937 -0.9078  0.7887
  503MOL0     H67864   0.202   2.722   2.751 -0.2992 -0.2697  0.6596
  503MOL0     H67865   0.099   2.561   2.816 -0.4111 -0.8170  0.7248
  503MOL0     H67866   0.045   2.325   2.876  2.1574  0.5850 -0.7035
  503MOL0     H67867  -0.116   2.259   2.879  1.4110  0.7516  1.0660
  503MOL0     H67868  -0.035   2.292   2.721  0.2807  0.6980 -0.1417
  503MOL0     H67869  -0.370   2.058   2.862 -0.4235  1.4257  1.0342
  503MOL0     H67870  -0.556   1.913   2.827 -1.7628 -0.4104 -0.8621
  503MOL0     H67871  -0.887   2.064   2.548 -0.3033  0.4967  1.4976
  503MOL0     H67872  -0.793   1.943   2.464  1.8893  1.3362 -0.5472
  503MOL0     H67873  -0.931   1.761   2.547 -0.2735  0.4133  1.2740
  503MOL0     H67874  -1.012   1.869   2.669 -1.2863 -2.8789  0.5393
  503MOL0     H67875  -1.028   1.843   2.369 -0.4321  1.1533 -1.1376
  503MOL0     H67876  -1.081   1.996   2.439  0.4632 -0.5245 -1.4514
  503MOL0     H67877  -1.176   1.723   2.519  0.6780 -0.4083 -1.7348
  503MOL0     H67878  -1.262   1.873   2.550 -0.9964 -0.3792 -0.4027
  503MOL0     H67879  -1.216   1.734   2.275 -2.6044 -1.7177 -0.7070
  503MOL0     H67880  -1.309   1.884   2.296  3.0067  0.6064 -0.9232
  503MOL0     H67881  -1.369   1.633   2.454 -0.2607 -0.6640  0.4514
  503MOL0     H67882  -1.471   1.775   2.447 -0.7218 -1.3345  0.6358
  503MOL0     H67883  -1.499   1.759   2.205 -1.1818  0.2619 -0.4080
  503MOL0     H67884  -1.584   1.643   2.301 -0.4258 -0.1528 -0.0964
  503MOL0     H67885  -1.326   1.583   2.166  1.1422 -2.3625  2.9574
  503MOL0     H67886  -1.492   1.566   2.094 -2.6190 -2.8793  1.0942
  503MOL0     H67887  -0.733   2.200   2.545  1.2781 -0.9627 -2.1448
  503MOL0     H67888  -0.560   2.346   2.591  1.8587 -0.4141 -1.3473
  503MOL0     H67889  -0.390   2.661   2.854  0.4534 -0.9080  1.2673
  503MOL0     H67890  -0.220   2.849   2.839 -3.3059 -0.3110  0.7494
  503MOL0     H67891   1.304   3.959   2.592  0.9937  1.9183 -2.6369
  503MOL0     H67892   1.452   3.836   2.747 -2.1803 -0.0412 -0.9651
  503MOL0     H67893   1.607   3.511   3.091 -0.3819  0.8726 -0.9912
  503MOL0     H67894   1.709   3.298   3.178 -0.5680  1.9793  0.2060
  503MOL0     H67895   1.818   2.976   2.884  2.3638  1.7035 -2.9809
  503MOL0     H67896   1.962   3.075   2.900  2.8906 -1.6692  0.7245
  503MOL0     H67897   1.946   2.819   2.976  0.6838  0.5081 -1.5813
  503MOL0     H67898   1.875   2.894   3.126  1.5661 -0.4447  0.8758
  503MOL0     H67899   2.090   3.019   3.161 -1.9568 -0.8552  1.5832
  503MOL0     H67900   2.147   2.985   3.012 -0.0617  1.6296  0.8040
  503MOL0     H67901   2.127   2.727   3.057  1.2268  1.5201 -1.5147
  503MOL0     H67902   2.099   2.781   3.228 -0.5223  2.4592  0.5366
  503MOL0     H67903   2.522   2.840   3.141  0.3850  0.7056  3.1627
  503MOL0     H67904   1.779   3.164   2.780  1.0726  0.1547 -0.4308
  503MOL0     H67905   1.668   3.361   2.687  0.3167 -1.1306  0.2242
  504MOL0     O67906   1.300   9.503   8.258  0.2314  0.3637  0.3019
  504MOL0     C67907   1.378   9.594   8.251  0.4034  0.2276  0.3389
  504MOL0     O67908   1.358   9.720   8.203 -0.1656 -0.4006  0.0719
  504MOL0     C67909   1.238   9.764   8.156  0.1506  0.1411 -0.1127
  504MOL0     C67910   1.113   9.720   8.212 -0.6935  0.0670 -0.3636
  504MOL0     C67911   0.992   9.760   8.151 -0.4841 -0.0699  0.8139
  504MOL0     C67912   0.985   9.843   8.038 -0.8584  0.6432  0.9058
  504MOL0     O67913   0.865   9.871   7.987  0.5370  0.0505  0.0653
  504MOL0     C67914   0.861   9.979   7.887 -0.4643  1.0037 -0.5503
  504MOL0     C67915   0.718  10.000   7.847 -0.0493  0.0633 -0.2950
  504MOL0     C67916   0.687  10.126   7.758  0.1585  0.4342  0.1285
  504MOL0     C67917   0.534  10.153   7.724 -0.4258 -0.0888  0.6089
  504MOL0     C67918   0.446  10.033   7.689 -0.0289  0.2784 -0.4698
  504MOL0     C67919   0.298  10.071   7.703  0.7249  0.1688  0.0599
  504MOL0     C67920   0.187   9.971   7.673 -0.2341 -0.4745  1.0086
  504MOL0     C67921   0.171   9.955   7.518 -0.6252 -0.2880  0.0848
  504MOL0     N67922   0.070   9.858   7.470 -0.3682 -0.6624 -0.3412
  504MOL0     C67923   0.088   9.726   7.440 -0.6227 -0.9411 -0.5212
  504MOL0     C67924  -0.027   9.676   7.396  0.5866 -0.6570  1.1629
  504MOL0     C67925  -0.040   9.531   7.350  0.7477 -1.1508 -0.0329
  504MOL0     C67926  -0.179   9.464   7.369  0.2491 -1.2426 -0.6124
  504MOL0     C67927  -0.191   9.324   7.304  0.3555 -0.5130  1.0631
  504MOL0     C67928  -0.327   9.268   7.351 -0.0026  0.6534 -0.0006
  504MOL0     O67929  -0.435   9.336   7.279  0.7038  0.9283 -0.4259
  504MOL0     C67930  -0.563   9.290   7.307 -0.0158  0.0336  0.5897
  504MOL0     C67931  -0.608   9.224   7.419  0.4390 -0.1016 -0.2521
  504MOL0     C67932  -0.744   9.192   7.435  0.0292 -0.0296  0.8373
  504MOL0     C67933  -0.794   9.139   7.568 -0.6047 -0.2012  0.4238
  504MOL0     C67934  -0.838   9.220   7.325  0.2486  0.1810  0.2266
  504MOL0     C67935  -0.984   9.198   7.345  0.1603  0.2272 -0.2127
  504MOL0     O67936  -1.021   9.075   7.396  0.3620 -0.0654  1.1702
  504MOL0     C67937  -1.158   9.057   7.390 -0.7411  0.2712  0.8392
  504MOL0     C67938  -1.243   9.085   7.496  0.5298 -0.2566  0.1176
  504MOL0     C67939  -1.380   9.067   7.494 -0.4519  0.1636  0.1509
  504MOL0     C67940  -1.442   9.032   7.373 -0.6459 -0.5498 -0.1927
  504MOL0     O67941  -1.582   9.019   7.349 -0.6056  0.2734 -0.3329
  504MOL0     C67942  -1.677   8.999   7.458 -0.1482 -0.1022 -0.8150
  504MOL0     C67943  -1.809   8.936   7.410 -0.3580 -0.1921 -0.3730
  504MOL0     C67944  -1.917   9.045   7.398 -1.0582 -1.2094 -0.0469
  504MOL0     C67945  -2.050   8.988   7.373  0.1716  0.2396  0.6363
  504MOL0     C67946  -2.164   9.087   7.341  0.6924 -0.2659 -0.2038
  504MOL0     C67947  -2.127   9.144   7.208 -0.1678 -0.7283  0.3198
  504MOL0     C67948  -2.242   9.212   7.131 -0.2138 -0.3085 -0.2799
  504MOL0     C67949  -2.183   9.337   7.056  0.3616  0.8265 -0.1764
  504MOL0    Cl67950  -2.070   9.294   6.919  0.0996  0.2417 -0.2858
  504MOL0     C67951  -1.361   9.011   7.257  0.5979 -0.1737 -0.0010
  504MOL0     C67952  -1.222   9.017   7.269 -0.2192  0.8706 -0.4473
  504MOL0     O67953  -1.053   9.296   7.321 -0.1625  0.0129  0.0002
  504MOL0     C67954  -0.783   9.280   7.209 -0.2494  0.1370 -0.3162
  504MOL0     C67955  -0.651   9.317   7.201 -0.1485  0.0794  0.6169
  504MOL0     N67956  -0.119   9.769   7.399  0.3804 -0.7030  0.4024
  504MOL0     N67957  -0.064   9.881   7.437  0.4735  0.8412 -0.0767
  504MOL0     C67958   1.108   9.888   7.994 -0.1538 -0.1240 -0.4994
  504MOL0     C67959   1.230   9.846   8.045  0.1039 -0.6390  0.3558
  504MOL0     C67960   1.511   9.558   8.294 -0.4038  0.0494  0.5242
  504MOL0     C67961   1.612   9.652   8.281 -0.4780 -0.2845  0.4472
  504MOL0     C67962   1.734   9.629   8.338  1.4182  0.5022 -0.4658
  504MOL0     C67963   1.771   9.510   8.402  0.6060  0.9578 -0.5941
  504MOL0     O67964   1.890   9.488   8.471  0.2790 -0.3346  0.5223
  504MOL0     C67965   1.988   9.594   8.461 -0.9160 -0.5551 -0.0087
  504MOL0     C67966   2.120   9.545   8.525  0.0137 -0.6025 -0.1083
  504MOL0     C67967   2.180   9.440   8.433  0.6383  0.4113  0.3346
  504MOL0     C67968   2.309   9.407   8.494 -0.1172  0.0057  0.5127
  504MOL0     C67969   2.403   9.375   8.382  0.8065 -0.3186  0.2235
  504MOL0     C67970   2.464   9.361   8.277  0.0919  1.0025 -0.4476
  504MOL0     C67971   1.669   9.416   8.406  0.3222  0.4009  0.0158
  504MOL0     C67972   1.544   9.435   8.344  0.0518 -0.4347  0.1116
  504MOL0     H67973   1.120   9.649   8.294 -0.0489  0.8557  0.2753
  504MOL0     H67974   0.905   9.712   8.194 -0.1166 -2.0703 -0.5368
  504MOL0     H67975   0.897  10.077   7.918  0.6672  1.7432 -3.8260
  504MOL0     H67976   0.918   9.950   7.798  2.3451 -1.4683  1.8377
  504MOL0     H67977   0.680   9.912   7.794 -0.3265  0.9921 -1.6958
  504MOL0     H67978   0.657  10.014   7.936 -1.2810  2.2225 -1.4061
  504MOL0     H67979   0.724  10.220   7.802  0.7495  1.9062 -3.2139
  504MOL0     H67980   0.737  10.110   7.663 -1.3893 -0.2582 -0.6044
  504MOL0     H67981   0.491  10.200   7.813 -4.2789  2.5403 -2.3286
  504MOL0     H67982   0.526  10.226   7.643  0.3893 -0.9794 -0.3020
  504MOL0     H67983   0.473  10.001   7.588  1.8333 -0.9703  0.3711
  504MOL0     H67984   0.474   9.950   7.755 -2.4306 -0.5056 -0.3281
  504MOL0     H67985   0.277  10.089   7.809 -0.0003 -4.5527  0.9314
  504MOL0     H67986   0.274  10.158   7.641  2.0911  0.3069 -0.3085
  504MOL0     H67987   0.209   9.873   7.716 -1.0528 -1.3028 -0.4108
  504MOL0     H67988   0.086  10.001   7.704  0.3074  1.5642  0.9218
  504MOL0     H67989   0.270   9.926   7.483 -1.1419 -0.7268 -1.0755
  504MOL0     H67990   0.146  10.044   7.459  1.8086  0.7586  0.5011
  504MOL0     H67991   0.182   9.672   7.452 -0.1515  0.0561  0.4981
  504MOL0     H67992  -0.018   9.523   7.243  0.0623 -2.7586 -0.0941
  504MOL0     H67993   0.036   9.470   7.399  3.3359 -0.8102 -3.2853
  504MOL0     H67994  -0.253   9.524   7.314  1.4859  0.9152 -0.0223
  504MOL0     H67995  -0.201   9.460   7.476 -2.1472  1.7189 -0.8596
  504MOL0     H67996  -0.111   9.258   7.340  1.6194  1.2227  1.5799
  504MOL0     H67997  -0.190   9.330   7.195  0.5310  1.2446  1.1381
  504MOL0     H67998  -0.335   9.266   7.460 -4.8787 -4.1459 -0.0611
  504MOL0     H67999  -0.329   9.167   7.310  1.6118  0.8916 -0.7817
  504MOL0     H68000  -0.548   9.222   7.509  1.4885 -0.0083 -0.9340
  504MOL0     H68001  -0.730   9.177   7.648  1.7330 -1.3495 -0.7892
  504MOL0     H68002  -0.901   9.150   7.592 -0.3010 -0.1174  1.8106
  504MOL0     H68003  -0.768   9.033   7.562 -0.1502 -0.0277 -1.0453
  504MOL0     H68004  -1.201   9.120   7.590 -0.5594  2.2848 -0.2695
  504MOL0     H68005  -1.436   9.069   7.587  2.5277 -1.7259  2.1668
  504MOL0     H68006  -1.630   8.940   7.538 -3.3298 -1.4292  0.2205
  504MOL0     H68007  -1.700   9.094   7.506  0.0386 -1.6908  2.7157
  504MOL0     H68008  -1.790   8.899   7.309  2.4291  1.4497 -0.5445
  504MOL0     H68009  -1.841   8.864   7.486 -2.0731  0.3071 -0.5726
  504MOL0     H68010  -1.889   9.109   7.314 -2.8928  2.3569  1.8146
  504MOL0     H68011  -1.926   9.114   7.483 -0.7872 -0.9048 -0.2645
  504MOL0     H68012  -2.042   8.930   7.281 -0.0438  2.0728 -0.5937
  504MOL0     H68013  -2.084   8.907   7.437 -0.4370  0.3527  0.4581
  504MOL0     H68014  -2.167   9.163   7.420 -0.1196  0.6318 -1.0663
  504MOL0     H68015  -2.255   9.026   7.338  2.1196 -2.4534 -2.0927
  504MOL0     H68016  -2.058   9.226   7.230  0.3314 -1.2117  0.5748
  504MOL0     H68017  -2.072   9.076   7.142  3.5021  0.4005  2.0066
  504MOL0     H68018  -2.313   9.258   7.201  0.9692  1.6232 -0.2822
  504MOL0     H68019  -2.296   9.138   7.071 -1.8745  0.3373  0.3590
  504MOL0     H68020  -2.135   9.409   7.124 -1.7878  3.4395 -1.2479
  504MOL0     H68021  -2.267   9.394   7.016 -0.4951  0.5847  1.2273
  504MOL0     H68022  -1.410   8.997   7.161  0.6521  1.8931 -0.3771
  504MOL0     H68023  -1.163   8.992   7.182 -0.0359  0.7039 -0.2751
  504MOL0     H68024  -0.853   9.296   7.127 -1.3729  0.2520  0.6331
  504MOL0     H68025  -0.607   9.360   7.111  1.1913 -2.3319  0.0093
  504MOL0     H68026   1.123   9.966   7.920 -0.2228  0.5636  0.1854
  504MOL0     H68027   1.325   9.878   8.006  0.0637 -1.6988 -0.6585
  504MOL0     H68028   1.587   9.744   8.228 -1.0259 -1.9701 -2.4563
  504MOL0     H68029   1.798   9.716   8.344 -0.5299  1.9187  1.4543
  504MOL0     H68030   2.005   9.625   8.357 -1.5690  1.6196  0.4933
  504MOL0     H68031   1.955   9.686   8.510  0.0919  0.8160 -1.7602
  504MOL0     H68032   2.096   9.502   8.623 -0.1922 -0.9504 -0.3104
  504MOL0     H68033   2.187   9.631   8.529  0.6679 -0.9946 -1.8152
  504MOL0     H68034   2.176   9.471   8.328  1.1633  0.2975  0.2773
  504MOL0     H68035   2.125   9.346   8.438  3.1032 -1.3894 -2.6527
  504MOL0     H68036   2.309   9.322   8.564 -0.9781 -1.5228 -1.2461
  504MOL0     H68037   2.356   9.487   8.552  2.5891 -1.3463  0.3351
  504MOL0     H68038   2.519   9.351   8.185  1.3716 -3.5448  0.5502
  504MOL0     H68039   1.690   9.317   8.443 -0.4474  0.6727  1.2303
  504MOL0     H68040   1.473   9.352   8.346 -0.2341 -0.1818  0.8002
  505MOL0     O68041   5.116   5.161   5.895 -0.6202  0.5732 -0.6881
  505MOL0     C68042   5.077   5.217   5.792 -0.0347 -0.1369 -0.1407
  505MOL0     O68043   4.955   5.219   5.743 -0.0440  0.0607 -1.0137
  505MOL0     C68044   4.835   5.181   5.805  0.1639  0.1539  0.1378
  505MOL0     C68045   4.724   5.164   5.721 -0.5026  0.2073  0.1600
  505MOL0     C68046   4.602   5.129   5.783  0.6971 -0.2608 -0.3473
  505MOL0     C68047   4.594   5.108   5.917 -0.1788  0.5357  0.0491
  505MOL0     O68048   4.478   5.084   5.976  0.3880  0.5289 -0.7959
  505MOL0     C68049   4.392   4.994   5.910 -0.3377  0.7675 -0.0369
  505MOL0     C68050   4.281   4.954   6.012 -0.8729  0.2233 -0.1085
  505MOL0     C68051   4.168   5.065   6.032  0.1589  0.0361 -0.9900
  505MOL0     C68052   4.055   4.983   6.101  1.2900  0.0360 -0.3904
  505MOL0     C68053   3.929   5.078   6.127 -0.3084 -0.2002 -0.4639
  505MOL0     C68054   3.832   4.994   6.206  0.6278  0.6009 -0.3498
  505MOL0     C68055   3.704   5.077   6.251  0.4011 -0.1031 -0.7829
  505MOL0     C68056   3.723   5.185   6.370  0.1646  0.0768  0.0596
  505MOL0     N68057   3.602   5.258   6.401 -0.3419  0.1133 -0.7063
  505MOL0     C68058   3.488   5.216   6.466  0.2624  0.2793 -0.1268
  505MOL0     C68059   3.409   5.326   6.476  0.4804  0.0077 -0.2469
  505MOL0     C68060   3.284   5.344   6.566  0.5406  0.8097 -0.0558
  505MOL0     C68061   3.191   5.464   6.516 -0.5086  0.5453 -0.3286
  505MOL0     C68062   3.064   5.479   6.608 -0.2516 -0.1610 -0.2932
  505MOL0     C68063   2.959   5.369   6.573  0.4586 -0.3498 -0.0984
  505MOL0     O68064   2.843   5.402   6.647  0.5643 -0.3324 -0.1346
  505MOL0     C68065   2.719   5.344   6.610 -0.2118  0.0782  0.3941
  505MOL0     C68066   2.702   5.245   6.518 -0.2062  1.2205 -0.0425
  505MOL0     C68067   2.576   5.183   6.492 -0.8384  0.7770  0.2797
  505MOL0     C68068   2.570   5.078   6.390 -0.1928  0.4199  0.5907
  505MOL0     C68069   2.463   5.242   6.552 -0.2540  0.2018 -0.8228
  505MOL0     C68070   2.321   5.192   6.526 -0.8594 -0.0627 -0.1124
  505MOL0     O68071   2.223   5.272   6.579 -0.3559 -0.0150 -0.2888
  505MOL0     C68072   2.093   5.233   6.561 -0.1437 -0.1321 -0.2559
  505MOL0     C68073   2.034   5.204   6.434  0.0777  0.9835 -0.2475
  505MOL0     C68074   1.902   5.194   6.408  0.9259  0.2400 -0.7324
  505MOL0     C68075   1.812   5.227   6.512 -0.4676 -0.0870 -0.6742
  505MOL0     O68076   1.693   5.243   6.471 -0.1320  0.3176 -0.1256
  505MOL0     C68077   1.591   5.296   6.559  0.1965 -0.0939 -0.8698
  505MOL0     C68078   1.483   5.348   6.469 -0.6202  0.3303 -0.7497
  505MOL0     C68079   1.375   5.407   6.558 -0.7998  0.1535  1.0175
  505MOL0     C68080   1.254   5.311   6.576 -0.2607  0.0636 -0.2636
  505MOL0     C68081   1.123   5.377   6.615  0.3091 -0.6408  1.2853
  505MOL0     C68082   1.019   5.276   6.648 -0.6193  1.1770 -0.0681
  505MOL0     C68083   0.888   5.325   6.716  0.8362 -0.6227  0.1502
  505MOL0     C68084   0.811   5.212   6.771  0.0055  0.4014  0.0853
  505MOL0    Cl68085   0.674   5.264   6.870  0.2621 -0.7193  0.3644
  505MOL0     C68086   1.856   5.247   6.648  0.0525 -0.4596  0.0494
  505MOL0     C68087   1.995   5.252   6.664  0.1829  0.8696  0.2037
  505MOL0     O68088   2.306   5.085   6.476  0.3349  0.3735  0.1070
  505MOL0     C68089   2.481   5.343   6.643 -0.1998 -1.2135 -0.3232
  505MOL0     C68090   2.609   5.389   6.668  0.2276 -1.0261 -0.3405
  505MOL0     N68091   3.466   5.430   6.390  1.0772  0.1981 -0.2341
  505MOL0     N68092   3.579   5.387   6.348 -0.8563 -0.0132 -0.8816
  505MOL0     C68093   4.708   5.121   6.000  0.5687 -0.2586  0.7294
  505MOL0     C68094   4.827   5.167   5.947  0.5876 -0.2685  0.6633
  505MOL0     C68095   5.183   5.291   5.714  0.1328 -0.2275 -0.1207
  505MOL0     C68096   5.324   5.274   5.734  0.1870 -1.1174 -0.3896
  505MOL0     C68097   5.423   5.349   5.665 -0.2676  0.0772  0.6276
  505MOL0     C68098   5.378   5.451   5.576 -0.2235  0.5247 -0.3058
  505MOL0     O68099   5.480   5.531   5.534  0.3784  0.4013 -0.3095
  505MOL0     C68100   5.428   5.639   5.456 -0.2380  0.1831 -0.4375
  505MOL0     C68101   5.546   5.722   5.396  0.2572 -0.2832 -0.0614
  505MOL0     C68102   5.648   5.647   5.311  0.6595 -1.0967 -0.0060
  505MOL0     C68103   5.761   5.729   5.252 -1.3041  0.0519  0.3490
  505MOL0     C68104   5.854   5.635   5.180 -0.5994 -0.0279  0.6775
  505MOL0     C68105   5.915   5.552   5.111 -0.2847 -0.1432 -0.1797
  505MOL0     C68106   5.238   5.471   5.554 -0.0194  0.0503 -0.9603
  505MOL0     C68107   5.139   5.392   5.620  0.3537 -0.2666  0.4843
  505MOL0     H68108   4.720   5.195   5.617  0.8966 -0.3700 -0.0849
  505MOL0     H68109   4.514   5.124   5.718  0.4950 -2.7374  0.0346
  505MOL0     H68110   4.345   5.038   5.821 -0.8907 -1.5475 -0.9745
  505MOL0     H68111   4.449   4.910   5.871  0.3391  0.6159  1.2354
  505MOL0     H68112   4.240   4.860   5.976  0.3606  0.2780 -1.7658
  505MOL0     H68113   4.318   4.922   6.110  1.7320 -3.0847 -1.9839
  505MOL0     H68114   4.205   5.152   6.088  2.3530  2.0321 -5.1118
  505MOL0     H68115   4.135   5.103   5.935 -0.2806 -0.3966 -1.0131
  505MOL0     H68116   4.029   4.884   6.062  1.2437 -0.9452  2.0148
  505MOL0     H68117   4.090   4.974   6.204  0.3707  0.3780 -0.0428
  505MOL0     H68118   3.957   5.166   6.185 -1.8146  0.0338 -0.0280
  505MOL0     H68119   3.884   5.104   6.030  0.7961  0.0961 -0.9113
  505MOL0     H68120   3.792   4.922   6.135 -1.4561  0.3080  1.0138
  505MOL0     H68121   3.889   4.944   6.284  0.8810 -2.8764 -2.5766
  505MOL0     H68122   3.666   5.141   6.171 -4.6394 -0.8384  0.6581
  505MOL0     H68123   3.632   4.999   6.275  1.7112 -0.6091  1.8917
  505MOL0     H68124   3.802   5.259   6.349  1.3056 -1.6551 -2.2709
  505MOL0     H68125   3.760   5.122   6.451  0.7898 -0.5109 -0.6598
  505MOL0     H68126   3.464   5.128   6.524 -0.3466 -0.4263 -1.3986
  505MOL0     H68127   3.229   5.251   6.580  0.8732  0.3607 -1.5665
  505MOL0     H68128   3.316   5.370   6.667  3.0432  0.9387 -0.8001
  505MOL0     H68129   3.169   5.455   6.409 -5.3024 -0.6129  0.5022
  505MOL0     H68130   3.254   5.551   6.536 -1.9532  1.5026  0.2242
  505MOL0     H68131   3.023   5.579   6.587  2.1945  0.6549 -1.5942
  505MOL0     H68132   3.095   5.471   6.712 -1.1214  2.5111  0.2472
  505MOL0     H68133   2.991   5.273   6.613 -1.2935 -1.0376 -0.2752
  505MOL0     H68134   2.940   5.368   6.466  1.5621  2.2195 -0.4046
  505MOL0     H68135   2.786   5.206   6.461 -1.0884 -1.0002  0.0754
  505MOL0     H68136   2.514   4.991   6.426  0.5770  0.4412  1.9192
  505MOL0     H68137   2.529   5.125   6.301  3.3607 -0.7792 -1.9025
  505MOL0     H68138   2.670   5.042   6.362  0.1204 -2.3129  4.4076
  505MOL0     H68139   2.103   5.191   6.352  1.1205 -0.2896  0.7890
  505MOL0     H68140   1.862   5.161   6.312  1.3399 -0.6750 -0.5994
  505MOL0     H68141   1.554   5.227   6.635  2.6838  1.5861  2.0844
  505MOL0     H68142   1.619   5.387   6.611 -2.2172 -0.0573  0.5126
  505MOL0     H68143   1.515   5.421   6.394  1.4931 -1.9314 -2.2119
  505MOL0     H68144   1.444   5.271   6.401  0.0523  1.8599 -2.9719
  505MOL0     H68145   1.337   5.498   6.512 -3.3919 -0.6631  1.3490
  505MOL0     H68146   1.417   5.436   6.654 -0.2461 -0.2228  0.8954
  505MOL0     H68147   1.245   5.255   6.483  0.4481 -0.3292 -0.0976
  505MOL0     H68148   1.284   5.250   6.661  2.1159  1.0226 -0.3373
  505MOL0     H68149   1.100   5.446   6.534  1.7010 -0.2442  1.2011
  505MOL0     H68150   1.142   5.435   6.705 -1.0459  1.9584 -0.0074
  505MOL0     H68151   0.993   5.209   6.566  1.3248  0.1113  0.1237
  505MOL0     H68152   1.065   5.213   6.724  0.7896  2.0804 -0.1264
  505MOL0     H68153   0.835   5.379   6.636 -0.4658 -0.0569  1.3520
  505MOL0     H68154   0.900   5.394   6.800 -1.0774 -3.4012  2.9140
  505MOL0     H68155   0.870   5.139   6.827 -2.4082 -2.2752 -0.6272
  505MOL0     H68156   0.773   5.141   6.697  0.5867  0.7969 -0.6012
  505MOL0     H68157   1.795   5.272   6.734  2.6652  0.0440  1.8550
  505MOL0     H68158   2.026   5.292   6.761 -0.4637  2.4638 -0.2061
  505MOL0     H68159   2.404   5.384   6.707  1.0163  0.2475  0.2534
  505MOL0     H68160   2.623   5.467   6.743  1.7904 -4.6012  3.4821
  505MOL0     H68161   4.688   5.109   6.106  1.7483 -2.2111  0.7876
  505MOL0     H68162   4.911   5.185   6.015  1.4444 -2.7008  0.3339
  505MOL0     H68163   5.368   5.203   5.802  1.0458 -0.2973 -0.0626
  505MOL0     H68164   5.529   5.339   5.685 -0.2419 -5.2652 -0.6765
  505MOL0     H68165   5.372   5.596   5.373 -0.5973  1.0495 -0.6479
  505MOL0     H68166   5.364   5.710   5.510 -2.3697 -0.0371 -2.5511
  505MOL0     H68167   5.605   5.771   5.473 -1.4246  1.5477  0.1227
  505MOL0     H68168   5.500   5.799   5.333  0.5970 -1.4414 -1.8309
  505MOL0     H68169   5.588   5.598   5.234  0.4557 -2.3991  0.9478
  505MOL0     H68170   5.693   5.568   5.371 -1.4207 -1.2976  1.4025
  505MOL0     H68171   5.801   5.789   5.335 -2.4870 -1.1567  1.8437
  505MOL0     H68172   5.715   5.792   5.175 -2.5770  0.3497  1.3261
  505MOL0     H68173   5.974   5.487   5.050  0.4588  1.4656 -1.2438
  505MOL0     H68174   5.191   5.531   5.476  1.0544 -0.0763 -1.7271
  505MOL0     H68175   5.033   5.406   5.599 -0.0771 -3.5536 -0.1048
  506MOL0     O68176   0.576   7.814   7.785  0.6820 -0.2394 -0.8800
  506MOL0     C68177   0.636   7.902   7.845  0.1094  0.1974 -0.3143
  506MOL0     O68178   0.584   8.036   7.867  0.2617 -0.6976 -0.1499
  506MOL0     C68179   0.448   8.073   7.844 -0.8256  0.4454 -0.1592
  506MOL0     C68180   0.334   7.986   7.834 -0.2587 -0.3330 -0.0751
  506MOL0     C68181   0.210   8.046   7.837 -0.3041  0.4024 -0.4775
  506MOL0     C68182   0.198   8.183   7.825  0.8480 -0.6352 -0.1372
  506MOL0     O68183   0.082   8.264   7.824  0.3519  0.3431  0.6065
  506MOL0     C68184  -0.036   8.179   7.825 -0.1768 -0.3838 -0.1750
  506MOL0     C68185  -0.155   8.278   7.834  0.0367  0.9003  0.7960
  506MOL0     C68186  -0.300   8.217   7.824 -0.1221 -0.2283  0.7353
  506MOL0     C68187  -0.335   8.120   7.934 -0.8561 -1.0222  0.1584
  506MOL0     C68188  -0.473   8.067   7.926 -0.6799  0.5494  0.3524
  506MOL0     C68189  -0.466   7.938   7.839 -0.2804 -0.5242  0.0022
  506MOL0     C68190  -0.604   7.887   7.796  0.6017 -0.2455 -0.0490
  506MOL0     C68191  -0.667   7.810   7.909 -0.5082 -0.1426 -0.1500
  506MOL0     N68192  -0.774   7.726   7.860  0.1588 -0.0275  0.3536
  506MOL0     C68193  -0.884   7.766   7.791 -0.7814 -1.0592 -0.3354
  506MOL0     C68194  -0.964   7.662   7.794 -0.4816  0.0898 -0.6637
  506MOL0     C68195  -1.093   7.648   7.730  0.0009 -0.2481 -0.2613
  506MOL0     C68196  -1.196   7.618   7.837 -0.3671 -0.2779  0.0327
  506MOL0     C68197  -1.327   7.596   7.769  0.7532  1.1098 -0.4640
  506MOL0     C68198  -1.453   7.576   7.858 -0.0760  0.4150 -0.4234
  506MOL0     O68199  -1.457   7.696   7.945 -0.2888 -0.3375 -0.5334
  506MOL0     C68200  -1.571   7.732   8.013  0.7587 -0.0318 -0.1920
  506MOL0     C68201  -1.563   7.844   8.094 -0.0882 -0.7244  0.2756
  506MOL0     C68202  -1.678   7.892   8.169  0.7454  1.7441  0.2947
  506MOL0     C68203  -1.654   8.016   8.245 -0.2499 -0.1104 -0.1620
  506MOL0     C68204  -1.797   7.813   8.169  0.7368 -0.5043 -0.1781
  506MOL0     C68205  -1.921   7.859   8.234  0.1822  0.0723 -0.0954
  506MOL0     O68206  -2.014   7.764   8.252 -0.5381 -0.6039 -0.1759
  506MOL0     C68207  -2.139   7.782   8.303  0.2898 -0.1491 -0.4316
  506MOL0     C68208  -2.221   7.890   8.270  0.3895 -0.8160  0.1393
  506MOL0     C68209  -2.347   7.905   8.328 -0.8596 -0.3011 -0.3044
  506MOL0     C68210  -2.399   7.801   8.408 -0.2310 -0.7475 -0.3826
  506MOL0     O68211  -2.524   7.790   8.460 -0.0400  0.0044  0.1052
  506MOL0     C68212  -2.632   7.863   8.391  0.4494  0.3655 -0.6564
  506MOL0     C68213  -2.776   7.835   8.462 -0.1033 -0.1310 -0.0054
  506MOL0     C68214  -2.895   7.886   8.374 -0.0130 -0.6041  0.4231
  506MOL0     C68215  -3.039   7.852   8.431 -0.6758  0.2827  0.5911
  506MOL0     C68216  -3.072   7.934   8.565  0.3543 -0.3724 -0.1795
  506MOL0     C68217  -3.218   7.923   8.598 -0.3298 -0.0950 -0.1956
  506MOL0     C68218  -3.270   8.008   8.723 -0.6436  0.9102  0.0090
  506MOL0     C68219  -3.424   8.033   8.715  0.3476  1.1870 -0.5857
  506MOL0    Cl68220  -3.522   7.880   8.712  0.0878 -0.0501  0.4511
  506MOL0     C68221  -2.318   7.690   8.443 -0.1293  0.0686  0.5245
  506MOL0     C68222  -2.186   7.674   8.381 -0.2836 -0.0214 -0.8505
  506MOL0     O68223  -1.925   7.978   8.266  0.3058 -0.2352  0.0438
  506MOL0     C68224  -1.811   7.703   8.084 -1.1254 -0.0429 -0.7765
  506MOL0     C68225  -1.695   7.665   8.002  1.0249  0.1824 -0.6576
  506MOL0     N68226  -0.892   7.545   7.833  0.0815  0.1925  0.4661
  506MOL0     N68227  -0.777   7.590   7.877  1.0828 -0.0392 -0.8742
  506MOL0     C68228   0.315   8.264   7.816 -0.3435 -1.0939 -0.3015
  506MOL0     C68229   0.441   8.214   7.825 -0.3363 -0.0384  0.2486
  506MOL0     C68230   0.772   7.859   7.889 -0.5434 -0.5051 -0.0515
  506MOL0     C68231   0.872   7.958   7.908 -0.7390  0.5212  0.3821
  506MOL0     C68232   1.010   7.924   7.908  0.0593 -0.4605  0.2278
  506MOL0     C68233   1.049   7.790   7.902 -0.1750 -0.3127 -0.0583
  506MOL0     O68234   1.178   7.746   7.904 -0.5359  0.5252 -0.3056
  506MOL0     C68235   1.285   7.841   7.923 -0.5777  1.3780  0.0916
  506MOL0     C68236   1.417   7.771   7.944 -0.3442 -0.5442  0.2974
  506MOL0     C68237   1.449   7.718   8.087  0.1307  0.0793  0.2916
  506MOL0     C68238   1.587   7.720   8.130 -0.3539  0.3490  0.9618
  506MOL0     C68239   1.682   7.679   8.020  1.0901 -0.1839 -0.4873
  506MOL0     C68240   1.748   7.636   7.930 -0.0470 -0.3961 -0.7617
  506MOL0     C68241   0.955   7.691   7.895 -0.8056  0.0117  0.2237
  506MOL0     C68242   0.814   7.719   7.881 -0.5450  0.6521  0.6010
  506MOL0     H68243   0.336   7.878   7.847 -3.8680 -0.2876  2.1338
  506MOL0     H68244   0.128   7.978   7.858  1.4648 -2.0160 -0.9763
  506MOL0     H68245  -0.026   8.127   7.729 -1.2063 -0.3543 -0.3080
  506MOL0     H68246  -0.044   8.104   7.905  0.7832  2.1296  2.4439
  506MOL0     H68247  -0.155   8.339   7.926 -1.3531  0.8406  0.8562
  506MOL0     H68248  -0.147   8.344   7.747 -0.1218 -1.6454 -1.2382
  506MOL0     H68249  -0.369   8.302   7.830 -4.8928 -3.1714 -3.6535
  506MOL0     H68250  -0.317   8.161   7.732 -1.0733 -2.3857  2.1354
  506MOL0     H68251  -0.258   8.049   7.964  1.5076  1.7999  1.2872
  506MOL0     H68252  -0.338   8.192   8.016 -3.2019  0.1937 -0.9072
  506MOL0     H68253  -0.504   8.028   8.023  1.1635 -3.2545 -0.3714
  506MOL0     H68254  -0.548   8.141   7.897 -1.7692 -0.8387 -0.5205
  506MOL0     H68255  -0.405   7.958   7.751  0.9166  0.5946  1.0594
  506MOL0     H68256  -0.410   7.869   7.903  0.8642  1.1476  0.8780
  506MOL0     H68257  -0.665   7.977   7.793 -0.8476 -1.1204  1.2705
  506MOL0     H68258  -0.591   7.822   7.709  1.6978 -0.7790  0.4911
  506MOL0     H68259  -0.694   7.885   7.985 -1.1132 -1.3178  0.8337
  506MOL0     H68260  -0.595   7.739   7.951 -2.3100 -2.9458 -1.5410
  506MOL0     H68261  -0.899   7.861   7.741 -1.7410 -1.2464 -0.4216
  506MOL0     H68262  -1.111   7.743   7.677 -0.8309 -0.4863 -0.4171
  506MOL0     H68263  -1.079   7.562   7.665 -0.4082  1.0865 -2.2076
  506MOL0     H68264  -1.203   7.702   7.905 -0.2884  0.1211 -0.4445
  506MOL0     H68265  -1.180   7.534   7.905 -1.1321  0.2730  0.9037
  506MOL0     H68266  -1.322   7.511   7.701  1.2481  0.8098 -0.0614
  506MOL0     H68267  -1.342   7.689   7.713  4.3184  0.6717 -2.4302
  506MOL0     H68268  -1.430   7.485   7.915  1.6323  1.1653  0.1574
  506MOL0     H68269  -1.536   7.557   7.790 -0.6275 -2.7222  0.9870
  506MOL0     H68270  -1.466   7.887   8.112  0.1827 -2.2443  3.1146
  506MOL0     H68271  -1.684   8.099   8.181  1.6928  0.1548 -0.7946
  506MOL0     H68272  -1.705   8.037   8.339 -0.9101  1.6293 -0.8646
  506MOL0     H68273  -1.546   8.024   8.259  0.1961  4.1703 -3.7717
  506MOL0     H68274  -2.186   7.974   8.211  0.4516 -1.1181 -0.2540
  506MOL0     H68275  -2.415   7.989   8.318 -2.7793 -1.5720  1.2043
  506MOL0     H68276  -2.616   7.971   8.397  0.6112  0.4513 -2.2909
  506MOL0     H68277  -2.642   7.834   8.286  0.5041 -0.8069 -0.3539
  506MOL0     H68278  -2.788   7.727   8.477 -0.6108 -0.0408  0.2523
  506MOL0     H68279  -2.773   7.878   8.562  1.6079  1.5155 -0.7003
  506MOL0     H68280  -2.884   7.840   8.275  0.9639 -0.1419  0.3062
  506MOL0     H68281  -2.891   7.995   8.365  1.7780 -0.5241  1.7106
  506MOL0     H68282  -3.099   7.882   8.345  1.8532  1.6797 -0.7970
  506MOL0     H68283  -3.040   7.746   8.457  3.5826  0.4769  2.5048
  506MOL0     H68284  -3.060   8.040   8.542 -3.5794  0.0652 -0.8333
  506MOL0     H68285  -3.011   7.904   8.651 -2.3111 -2.8389  1.0449
  506MOL0     H68286  -3.268   7.970   8.513 -1.0408  2.0271  1.3195
  506MOL0     H68287  -3.223   7.814   8.604  0.7841 -0.1807 -0.5098
  506MOL0     H68288  -3.211   8.100   8.728 -0.5678  0.9183 -0.8711
  506MOL0     H68289  -3.235   7.962   8.815 -1.4258 -2.9536 -1.4272
  506MOL0     H68290  -3.445   8.088   8.622 -5.5032  1.5927  0.5781
  506MOL0     H68291  -3.461   8.088   8.802 -1.2502 -1.1334  0.3078
  506MOL0     H68292  -2.357   7.621   8.517 -1.0815 -0.4330 -0.4216
  506MOL0     H68293  -2.119   7.592   8.405 -0.9392  0.2374  2.1886
  506MOL0     H68294  -1.910   7.678   8.048 -1.2891 -0.0785 -0.3126
  506MOL0     H68295  -1.715   7.591   7.925  1.3237 -2.9672  2.0649
  506MOL0     H68296   0.298   8.370   7.827 -1.6491 -1.3333  0.1574
  506MOL0     H68297   0.528   8.278   7.818 -0.0804 -0.3606  0.4553
  506MOL0     H68298   0.842   8.060   7.888  0.1632  1.1432  1.9717
  506MOL0     H68299   1.067   8.015   7.917 -0.0816 -0.4800  1.4898
  506MOL0     H68300   1.295   7.903   7.833  0.5872  0.4546 -0.4323
  506MOL0     H68301   1.260   7.904   8.009 -0.7515  1.3985  0.0280
  506MOL0     H68302   1.491   7.849   7.925  1.0190 -1.9414 -0.4099
  506MOL0     H68303   1.437   7.693   7.869  2.4369 -1.9362  2.2985
  506MOL0     H68304   1.412   7.615   8.082  0.5610 -0.1201  1.1120
  506MOL0     H68305   1.383   7.771   8.156 -0.1570 -2.2123  1.8657
  506MOL0     H68306   1.609   7.660   8.218 -1.1849 -1.7291 -0.1659
  506MOL0     H68307   1.613   7.826   8.139  0.3469  0.2645  0.0644
  506MOL0     H68308   1.821   7.597   7.862  4.0827  3.9200  0.6113
  506MOL0     H68309   0.988   7.588   7.889  0.5684  0.4386  0.1526
  506MOL0     H68310   0.752   7.632   7.862 -0.4094  0.3086  1.7067
  507MOL0     O68311   3.189   0.495   8.313  0.3138  0.2642 -0.2907
  507MOL0     C68312   3.303   0.551   8.298  0.2174  0.2356  0.6129
  507MOL0     O68313   3.341   0.631   8.186 -0.1861  0.8279 -0.0025
  507MOL0     C68314   3.284   0.627   8.061  0.0915  0.2497 -0.3366
  507MOL0     C68315   3.338   0.728   7.978 -0.1658 -0.6839  0.1110
  507MOL0     C68316   3.288   0.751   7.848  0.6202 -0.4687 -0.4749
  507MOL0     C68317   3.194   0.661   7.794  0.6474 -0.5540  0.9855
  507MOL0     O68318   3.135   0.688   7.671  0.2793 -0.5891 -0.2663
  507MOL0     C68319   3.091   0.571   7.598  0.0342  0.3909  0.1205
  507MOL0     C68320   3.040   0.600   7.454  0.4605 -0.7556 -0.2309
  507MOL0     C68321   2.967   0.731   7.447 -0.7330 -0.3635 -0.0382
  507MOL0     C68322   2.892   0.760   7.311 -0.0781 -0.2499 -1.0812
  507MOL0     C68323   2.784   0.860   7.323  0.1322  0.5450  1.3643
  507MOL0     C68324   2.715   0.888   7.188  0.2683  0.2932 -0.2421
  507MOL0     C68325   2.573   0.930   7.196 -0.6435 -0.3761 -0.2897
  507MOL0     C68326   2.506   0.930   7.066  0.0772 -0.3517 -0.1689
  507MOL0     N68327   2.390   1.033   7.068 -0.2290  0.4866 -0.2853
  507MOL0     C68328   2.279   1.037   7.157 -0.4565  0.2987  0.0001
  507MOL0     C68329   2.212   1.149   7.114  0.9148  0.0464  0.3794
  507MOL0     C68330   2.095   1.202   7.194 -0.2897  0.4062 -0.7425
  507MOL0     C68331   2.130   1.336   7.267 -0.0301  0.3559 -0.2047
  507MOL0     C68332   2.056   1.353   7.396 -0.7882  0.1316 -0.4985
  507MOL0     C68333   1.906   1.348   7.389 -0.5407  0.1446  0.3544
  507MOL0     O68334   1.854   1.461   7.455  0.4233 -0.3580 -0.8052
  507MOL0     C68335   1.720   1.483   7.439  0.0972  0.0081  0.1884
  507MOL0     C68336   1.662   1.548   7.550 -0.6978  0.1943 -0.0442
  507MOL0     C68337   1.526   1.570   7.551 -0.0638  0.4800  0.3966
  507MOL0     C68338   1.487   1.653   7.675 -0.1451  0.1849 -0.0204
  507MOL0     C68339   1.441   1.537   7.448 -0.0783 -0.5293  0.3261
  507MOL0     C68340   1.303   1.579   7.443 -0.0774  0.1426  0.5742
  507MOL0     O68341   1.228   1.514   7.351 -0.6280  0.5130  0.1276
  507MOL0     C68342   1.102   1.552   7.313  0.5721 -0.0196  0.6245
  507MOL0     C68343   1.024   1.445   7.264 -0.8279 -0.4326  0.1580
  507MOL0     C68344   0.900   1.462   7.223 -0.1946 -0.3542 -0.0495
  507MOL0     C68345   0.828   1.585   7.230 -1.2051  0.0019 -0.0410
  507MOL0     O68346   0.703   1.610   7.191  0.0905  1.1557 -0.6751
  507MOL0     C68347   0.614   1.496   7.163  0.2730  0.6499 -0.0728
  507MOL0     C68348   0.472   1.537   7.110  0.7212 -0.4853 -0.2166
  507MOL0     C68349   0.386   1.412   7.103  0.7748 -0.1263 -0.8711
  507MOL0     C68350   0.239   1.456   7.076 -0.6145  0.2772 -0.5458
  507MOL0     C68351   0.156   1.330   7.069  0.3025  0.2178  0.4548
  507MOL0     C68352   0.160   1.262   6.936 -0.4384  0.4188 -0.2546
  507MOL0     C68353   0.069   1.139   6.933 -0.5869  0.4457  0.0575
  507MOL0     C68354   0.083   1.044   7.051 -0.4601  0.3667 -0.2524
  507MOL0    Cl68355  -0.020   0.885   7.009 -0.8166  0.2987  0.2128
  507MOL0     C68356   0.906   1.696   7.274 -0.0739 -0.2907  0.3494
  507MOL0     C68357   1.038   1.677   7.321  0.0589 -0.1222  0.4277
  507MOL0     O68358   1.272   1.686   7.495 -0.5624  0.3052 -0.6257
  507MOL0     C68359   1.502   1.473   7.343  0.4191 -0.5473  0.7292
  507MOL0     C68360   1.642   1.442   7.335 -0.3372  0.2187 -1.1352
  507MOL0     N68361   2.247   1.179   6.990  0.9216  0.7236 -0.4631
  507MOL0     N68362   2.360   1.123   6.967  0.3119 -0.5737  0.4221
  507MOL0     C68363   3.153   0.556   7.871 -0.3490 -0.1792  0.4398
  507MOL0     C68364   3.202   0.533   8.005 -0.3460  0.0956 -0.6840
  507MOL0     C68365   3.414   0.522   8.395 -0.3614  0.4308  0.5082
  507MOL0     C68366   3.548   0.554   8.361  0.1698  0.0012 -0.4800
  507MOL0     C68367   3.653   0.540   8.459 -0.5689 -0.6363 -0.1950
  507MOL0     C68368   3.627   0.464   8.571 -0.5079 -0.1249 -0.4558
  507MOL0     O68369   3.723   0.420   8.659 -0.1244 -0.2350  0.2854
  507MOL0     C68370   3.861   0.446   8.645 -0.0490  0.3292  0.2027
  507MOL0     C68371   3.917   0.352   8.538  0.2570 -0.5869 -0.0952
  507MOL0     C68372   4.063   0.321   8.548  0.4668  0.0209  0.5194
  507MOL0     C68373   4.114   0.207   8.459 -0.4695 -0.3124  0.3326
  507MOL0     C68374   4.076   0.074   8.514  0.5870 -1.3331  0.4513
  507MOL0     C68375   4.037  -0.030   8.566 -1.0861 -0.4343 -0.2101
  507MOL0     C68376   3.495   0.425   8.607 -0.4518 -0.4158  0.2572
  507MOL0     C68377   3.387   0.468   8.523  0.1675 -0.4216  0.3325
  507MOL0     H68378   3.404   0.796   8.030 -3.1818  2.9445 -0.3903
  507MOL0     H68379   3.317   0.843   7.799 -0.2725  2.3728  3.7557
  507MOL0     H68380   3.173   0.499   7.598  0.4255  0.7387 -2.5196
  507MOL0     H68381   3.001   0.533   7.648  0.2903  0.4218  0.6020
  507MOL0     H68382   3.123   0.605   7.383 -0.1017 -0.4986 -0.8801
  507MOL0     H68383   2.972   0.529   7.406  0.4193  0.8565 -2.6997
  507MOL0     H68384   2.884   0.732   7.519 -1.2009  0.8231 -0.5562
  507MOL0     H68385   3.030   0.817   7.472  2.5896 -2.6446  0.0688
  507MOL0     H68386   2.960   0.798   7.233  1.1043  1.8706  0.8535
  507MOL0     H68387   2.836   0.670   7.284 -0.5930 -0.4803  0.6162
  507MOL0     H68388   2.709   0.805   7.381  0.7294 -2.3065 -0.3591
  507MOL0     H68389   2.819   0.952   7.370  0.4430  0.6659  0.8951
  507MOL0     H68390   2.775   0.963   7.137 -1.0636  1.5191 -0.0499
  507MOL0     H68391   2.714   0.802   7.121 -1.2537  1.0297 -1.1980
  507MOL0     H68392   2.520   0.864   7.264 -0.2592 -1.1056 -0.6830
  507MOL0     H68393   2.570   1.032   7.235 -0.1499 -0.9513  1.3363
  507MOL0     H68394   2.473   0.830   7.037 -3.6871  0.8693 -0.5298
  507MOL0     H68395   2.576   0.976   6.996 -0.5120  1.4450  0.3546
  507MOL0     H68396   2.252   0.977   7.243 -1.4075  0.9159  0.1489
  507MOL0     H68397   2.016   1.212   7.119 -0.5944 -0.3443 -0.5344
  507MOL0     H68398   2.066   1.135   7.275  0.4375  0.6371 -0.2928
  507MOL0     H68399   2.107   1.426   7.211  0.8119  0.6674 -0.0741
  507MOL0     H68400   2.239   1.348   7.273 -0.1537  1.1592  0.5274
  507MOL0     H68401   2.092   1.453   7.420 -1.3162  1.5352 -4.7805
  507MOL0     H68402   2.096   1.284   7.471  3.5232  1.8345 -0.9073
  507MOL0     H68403   1.868   1.252   7.425 -0.8389 -0.5854 -1.7676
  507MOL0     H68404   1.884   1.339   7.282  1.8015 -1.6487 -0.0745
  507MOL0     H68405   1.729   1.580   7.630 -2.5415  0.9480  1.2798
  507MOL0     H68406   1.382   1.638   7.701 -1.5058  2.1777 -3.6060
  507MOL0     H68407   1.554   1.635   7.759  2.5055 -1.1782 -2.2820
  507MOL0     H68408   1.494   1.756   7.638 -1.6262 -0.1799 -1.4480
  507MOL0     H68409   1.070   1.347   7.255 -1.7114 -0.6354 -5.8506
  507MOL0     H68410   0.853   1.375   7.178 -1.7027  0.3857  0.0046
  507MOL0     H68411   0.653   1.435   7.082 -3.8112 -0.4385 -1.4746
  507MOL0     H68412   0.607   1.442   7.258  3.5991  1.7413  0.9259
  507MOL0     H68413   0.439   1.608   7.186  3.6886 -1.3522  2.1008
  507MOL0     H68414   0.468   1.581   7.010  2.6926  0.3312  0.0175
  507MOL0     H68415   0.394   1.353   7.195 -1.8294 -1.1831 -1.2447
  507MOL0     H68416   0.432   1.350   7.026 -0.5186  0.1470 -1.8874
  507MOL0     H68417   0.216   1.517   7.164 -0.6489 -2.3294  1.3664
  507MOL0     H68418   0.236   1.513   6.983  0.9910  1.0513 -0.1529
  507MOL0     H68419   0.055   1.352   7.105  0.3554 -2.3387  2.4084
  507MOL0     H68420   0.193   1.262   7.145 -0.6363  0.2117  0.9159
  507MOL0     H68421   0.128   1.324   6.852 -0.9197 -0.6027 -0.8386
  507MOL0     H68422   0.258   1.229   6.901 -0.2983  1.5658 -0.9940
  507MOL0     H68423   0.087   1.086   6.839 -3.0357 -0.0332 -0.2059
  507MOL0     H68424  -0.035   1.170   6.925 -2.0401 -4.0545 -1.4982
  507MOL0     H68425   0.034   1.082   7.141 -1.4355  0.9487 -0.9996
  507MOL0     H68426   0.188   1.022   7.071  0.2581 -0.1689 -3.7929
  507MOL0     H68427   0.854   1.789   7.292  0.9033  0.2217  0.6122
  507MOL0     H68428   1.073   1.764   7.375 -0.5010  0.2517  0.2013
  507MOL0     H68429   1.438   1.437   7.262 -1.2182 -1.2661  2.2725
  507MOL0     H68430   1.673   1.383   7.250 -2.1058  1.9018 -3.0829
  507MOL0     H68431   3.098   0.474   7.825  2.1210 -0.6513 -1.9826
  507MOL0     H68432   3.175   0.441   8.054 -0.8004  1.1514  1.1619
  507MOL0     H68433   3.566   0.600   8.264  0.0478  0.7089 -0.1768
  507MOL0     H68434   3.751   0.574   8.429 -1.2731  1.5934 -0.1814
  507MOL0     H68435   3.877   0.552   8.620  2.0870  0.3209  1.3121
  507MOL0     H68436   3.918   0.423   8.736  1.7124  1.5011 -0.5444
  507MOL0     H68437   3.903   0.405   8.443  1.9623  1.5986  0.7807
  507MOL0     H68438   3.859   0.260   8.535  1.1231 -1.2872  2.2824
  507MOL0     H68439   4.090   0.292   8.650  2.9285 -1.0831 -0.3757
  507MOL0     H68440   4.121   0.411   8.526  0.3022 -0.0085 -0.0567
  507MOL0     H68441   4.224   0.209   8.460 -0.3354  4.4563 -0.4686
  507MOL0     H68442   4.070   0.218   8.360  0.8763 -1.2046 -0.4048
  507MOL0     H68443   4.002  -0.122   8.607 -0.7223  0.5717  2.6011
  507MOL0     H68444   3.478   0.370   8.699  0.1270 -2.6641 -0.9048
  507MOL0     H68445   3.286   0.443   8.555  0.0104  0.4019  0.4991
  508MOL0     O68446   2.003   0.539   5.381 -0.2248  0.4348 -0.4090
  508MOL0     C68447   2.073   0.471   5.449 -0.9794  0.4169 -0.4632
  508MOL0     O68448   2.040   0.349   5.509 -0.1646  0.0353  0.1937
  508MOL0     C68449   1.910   0.324   5.527 -0.1236  0.4498  0.5501
  508MOL0     C68450   1.833   0.253   5.422  0.3397  0.3523 -0.4012
  508MOL0     C68451   1.692   0.243   5.434  0.7570 -0.6182 -0.2428
  508MOL0     C68452   1.632   0.300   5.544  0.0811  0.0954  1.1292
  508MOL0     O68453   1.497   0.315   5.558 -0.1456  0.2161  0.2199
  508MOL0     C68454   1.419   0.198   5.510  0.2310 -0.0679 -0.5299
  508MOL0     C68455   1.294   0.179   5.592  0.3112  0.2643 -0.1561
  508MOL0     C68456   1.205   0.296   5.577  0.3248 -0.3589 -0.5320
  508MOL0     C68457   1.093   0.288   5.677  0.1588  0.2435  0.6855
  508MOL0     C68458   0.982   0.383   5.639 -0.3865 -0.3677  0.0782
  508MOL0     C68459   0.861   0.357   5.714  0.5094 -0.3246  0.0074
  508MOL0     C68460   0.738   0.441   5.652  0.1242  0.7754  0.1858
  508MOL0     C68461   0.618   0.402   5.747  0.4083  0.7431 -0.2730
  508MOL0     N68462   0.490   0.439   5.691  0.3643 -0.6728 -0.4260
  508MOL0     C68463   0.445   0.568   5.668  0.1416  1.0394 -0.2140
  508MOL0     C68464   0.324   0.553   5.606  0.1636 -0.2993 -0.4442
  508MOL0     C68465   0.223   0.659   5.590 -0.0065 -1.1532  0.7414
  508MOL0     C68466   0.086   0.610   5.629 -0.1374 -0.2311 -0.3812
  508MOL0     C68467  -0.021   0.696   5.575 -0.4165 -0.1234  0.2667
  508MOL0     C68468  -0.144   0.666   5.654  1.1813  0.6715 -1.1752
  508MOL0     O68469  -0.237   0.776   5.642  0.0426  0.5493  0.3041
  508MOL0     C68470  -0.377   0.756   5.623 -0.0748  1.1437 -0.4033
  508MOL0     C68471  -0.449   0.642   5.668 -0.5271 -0.1453  0.0363
  508MOL0     C68472  -0.593   0.644   5.660 -0.2992  0.2935  0.4304
  508MOL0     C68473  -0.662   0.524   5.727 -0.1938  0.0773  0.2383
  508MOL0     C68474  -0.661   0.747   5.594  0.0827  0.3812 -0.6223
  508MOL0     C68475  -0.809   0.771   5.584 -0.1708  0.2220  0.6458
  508MOL0     O68476  -0.849   0.861   5.493 -0.4415  0.9120  0.9559
  508MOL0     C68477  -0.980   0.902   5.482 -0.6815  0.4725  0.0241
  508MOL0     C68478  -0.989   0.982   5.372 -0.1998  0.5493  0.4391
  508MOL0     C68479  -1.117   1.027   5.329 -0.0294 -0.8202  0.1585
  508MOL0     C68480  -1.228   0.991   5.400 -0.6138 -0.0988 -0.1361
  508MOL0     O68481  -1.341   1.056   5.361 -0.1406 -0.4157  0.4654
  508MOL0     C68482  -1.466   1.011   5.405  0.1323  0.1054  0.0457
  508MOL0     C68483  -1.585   1.076   5.331  0.1073  0.1934  0.2281
  508MOL0     C68484  -1.573   1.232   5.358  0.6017  0.8531  1.1656
  508MOL0     C68485  -1.689   1.321   5.293 -0.4676  1.2542 -0.1979
  508MOL0     C68486  -1.647   1.464   5.288 -0.4964 -0.0963  0.0455
  508MOL0     C68487  -1.763   1.560   5.266 -0.6096 -0.4647  0.6786
  508MOL0     C68488  -1.803   1.545   5.123  0.2321 -0.5265  0.1596
  508MOL0     C68489  -1.921   1.631   5.091 -0.4723 -0.2662  0.6073
  508MOL0    Cl68490  -2.069   1.565   5.175  0.4069  0.4978 -0.5214
  508MOL0     C68491  -1.213   0.909   5.515 -0.2427 -1.0982  0.0254
  508MOL0     C68492  -1.088   0.872   5.565 -0.6006 -0.3500 -0.0157
  508MOL0     O68493  -0.878   0.686   5.639 -0.7108 -0.5577 -0.2690
  508MOL0     C68494  -0.587   0.856   5.547  0.3223 -0.0544 -0.5453
  508MOL0     C68495  -0.451   0.854   5.559 -0.2216 -0.3457  0.6303
  508MOL0     N68496   0.314   0.417   5.574  0.8225 -0.8283  0.1012
  508MOL0     N68497   0.414   0.345   5.629  0.3148 -0.4640 -0.4533
  508MOL0     C68498   1.708   0.359   5.647  0.1987  0.1651  0.5401
  508MOL0     C68499   1.838   0.373   5.636 -0.5247  0.8214  0.3662
  508MOL0     C68500   2.217   0.491   5.425  1.2841  0.1026  0.2605
  508MOL0     C68501   2.311   0.431   5.507  0.2259  0.2964  0.5336
  508MOL0     C68502   2.449   0.449   5.489  1.0577 -0.9978 -0.0977
  508MOL0     C68503   2.492   0.542   5.396 -0.5828  0.2013 -0.4916
  508MOL0     O68504   2.628   0.561   5.379  0.0253  0.7181 -0.0852
  508MOL0     C68505   2.685   0.633   5.264  1.0019  0.3636 -0.2252
  508MOL0     C68506   2.832   0.596   5.258  0.1163 -0.2536  0.2681
  508MOL0     C68507   2.866   0.629   5.106  1.0532 -0.2369 -0.2802
  508MOL0     C68508   3.003   0.580   5.063 -0.0472  0.4163 -0.5987
  508MOL0     C68509   2.983   0.447   5.012 -0.0605  0.5261 -0.2202
  508MOL0     C68510   2.963   0.339   4.964  0.1264  0.1985 -0.8546
  508MOL0     C68511   2.397   0.609   5.322 -0.2400  0.8778 -0.4646
  508MOL0     C68512   2.261   0.584   5.335 -0.1452  0.7388  0.2441
  508MOL0     H68513   1.876   0.210   5.333 -0.3433 -1.5189  0.1224
  508MOL0     H68514   1.633   0.195   5.356  0.8790 -1.3213  0.0902
  508MOL0     H68515   1.382   0.213   5.409 -0.1833  0.9168 -0.2386
  508MOL0     H68516   1.477   0.105   5.504  2.1077  0.9171  1.1071
  508MOL0     H68517   1.243   0.089   5.556 -2.0209  0.4711  2.3330
  508MOL0     H68518   1.315   0.158   5.697  0.5891 -0.2816 -0.3124
  508MOL0     H68519   1.265   0.387   5.583  0.3476 -0.4274  0.5103
  508MOL0     H68520   1.154   0.296   5.480 -0.2224 -0.1047 -0.2491
  508MOL0     H68521   1.059   0.184   5.669 -2.2690  1.1350 -3.0253
  508MOL0     H68522   1.130   0.298   5.780 -0.1941  2.5620  0.6406
  508MOL0     H68523   1.015   0.486   5.655 -1.5046 -0.0262  0.2490
  508MOL0     H68524   0.961   0.360   5.534 -0.0361 -0.9352  0.1256
  508MOL0     H68525   0.826   0.254   5.724 -1.3990  0.3732  1.0366
  508MOL0     H68526   0.871   0.383   5.820 -0.4845 -3.5513  1.0115
  508MOL0     H68527   0.751   0.550   5.654 -0.4729  0.8412  0.5232
  508MOL0     H68528   0.716   0.425   5.546 -0.9783  1.3770  0.3091
  508MOL0     H68529   0.630   0.445   5.847  0.8644  1.0940 -0.4758
  508MOL0     H68530   0.610   0.293   5.746  0.4524  0.6819  1.7119
  508MOL0     H68531   0.488   0.659   5.708 -0.5414  0.3582  2.2253
  508MOL0     H68532   0.260   0.746   5.646 -0.1950 -0.0236 -0.8343
  508MOL0     H68533   0.232   0.697   5.488 -1.0910 -2.1297  0.2501
  508MOL0     H68534   0.095   0.611   5.738  1.3823 -0.1719 -0.4917
  508MOL0     H68535   0.067   0.509   5.590 -0.8209 -0.0668 -0.4957
  508MOL0     H68536  -0.041   0.685   5.468 -3.7978 -1.7302  0.9284
  508MOL0     H68537   0.009   0.799   5.600 -1.1837  0.0191  0.6349
  508MOL0     H68538  -0.128   0.653   5.762 -0.3599 -1.3633 -1.1383
  508MOL0     H68539  -0.189   0.576   5.612  3.3578 -0.9564 -0.2524
  508MOL0     H68540  -0.389   0.559   5.703  1.8836  0.5704 -2.0999
  508MOL0     H68541  -0.733   0.563   5.800 -1.0307  1.6759 -1.3583
  508MOL0     H68542  -0.707   0.459   5.652  1.2076 -1.7908  0.9399
  508MOL0     H68543  -0.582   0.466   5.774 -0.6735  1.1557  2.5283
  508MOL0     H68544  -0.898   1.004   5.316 -0.1299 -0.1477  0.2687
  508MOL0     H68545  -1.110   1.085   5.238  0.2393 -1.5949 -0.3224
  508MOL0     H68546  -1.468   0.903   5.389  1.4165  0.1882 -0.8162
  508MOL0     H68547  -1.478   1.038   5.511 -1.7178 -0.5202  0.0156
  508MOL0     H68548  -1.585   1.065   5.222  0.9726 -1.9798  0.3990
  508MOL0     H68549  -1.680   1.042   5.373 -1.0314  2.7338 -0.1293
  508MOL0     H68550  -1.477   1.261   5.315  0.6796 -0.7233  0.1981
  508MOL0     H68551  -1.557   1.258   5.463 -0.2245  3.2127  0.7686
  508MOL0     H68552  -1.720   1.283   5.195  2.7658 -0.0275 -0.8416
  508MOL0     H68553  -1.770   1.316   5.366 -0.6659  1.6460 -0.3884
  508MOL0     H68554  -1.582   1.488   5.203  0.6868  1.7925  1.3994
  508MOL0     H68555  -1.600   1.496   5.382  0.2191 -1.0130  0.0120
  508MOL0     H68556  -1.845   1.552   5.337 -2.0836  0.6386 -0.8032
  508MOL0     H68557  -1.725   1.662   5.279  0.2003 -0.5733 -0.6141
  508MOL0     H68558  -1.841   1.444   5.105 -0.4733  0.2769 -3.8740
  508MOL0     H68559  -1.720   1.561   5.053  3.1028  1.4703  3.6615
  508MOL0     H68560  -1.946   1.610   4.986 -0.6791 -1.6019  0.9081
  508MOL0     H68561  -1.900   1.738   5.100 -1.9927  0.7843 -4.6337
  508MOL0     H68562  -1.303   0.901   5.575  0.9755  1.9153  2.5061
  508MOL0     H68563  -1.079   0.809   5.653 -3.8882  2.8242  2.9223
  508MOL0     H68564  -0.633   0.944   5.504 -0.1310  0.9330  1.8110
  508MOL0     H68565  -0.394   0.937   5.518  1.1214 -1.6665 -0.2640
  508MOL0     H68566   1.649   0.388   5.733 -4.1281  0.4238 -2.1905
  508MOL0     H68567   1.899   0.416   5.714 -1.0957 -0.2554  1.4287
  508MOL0     H68568   2.275   0.355   5.575  0.6595 -1.3258 -0.9588
  508MOL0     H68569   2.523   0.398   5.550  1.2018  2.4041  2.9289
  508MOL0     H68570   2.636   0.601   5.171 -0.4312  1.5439  0.0771
  508MOL0     H68571   2.659   0.739   5.272  0.2999  0.2479 -0.8122
  508MOL0     H68572   2.836   0.488   5.274 -0.9904 -0.2970  0.3306
  508MOL0     H68573   2.892   0.656   5.326 -1.9004  4.1131 -1.3649
  508MOL0     H68574   2.861   0.738   5.102 -1.1515 -0.1383  2.1038
  508MOL0     H68575   2.790   0.587   5.040  1.4543 -0.2233 -0.7514
  508MOL0     H68576   3.072   0.587   5.148 -2.9793  2.4861  1.8003
  508MOL0     H68577   3.035   0.648   4.983 -2.0012  0.5138 -1.3369
  508MOL0     H68578   2.945   0.243   4.919  1.5754 -0.6320  0.2261
  508MOL0     H68579   2.424   0.681   5.245  1.0632 -0.7240 -1.5757
  508MOL0     H68580   2.200   0.617   5.251  1.0907  0.0059 -1.0021
  509MOL0     O68581  11.176   4.158   0.725 -0.6413 -0.3054 -0.1008
  509MOL0     C68582  11.181   4.143   0.605 -0.7408  0.1637  0.5876
  509MOL0     O68583  11.078   4.126   0.519 -0.0835  0.1810 -0.2090
  509MOL0     C68584  10.954   4.110   0.575  0.9383 -0.0784 -0.7842
  509MOL0     C68585  10.891   3.986   0.552  0.3641 -0.3864  0.6290
  509MOL0     C68586  10.764   3.957   0.599 -0.4822  0.6055 -0.0469
  509MOL0     C68587  10.696   4.055   0.672 -0.5499 -0.0714 -0.0322
  509MOL0     O68588  10.579   4.041   0.739 -0.1240 -0.6222 -0.0526
  509MOL0     C68589  10.543   3.914   0.817 -0.6289 -0.3505 -0.2197
  509MOL0     C68590  10.487   3.954   0.958 -0.0188  0.0520 -0.4458
  509MOL0     C68591  10.334   3.998   0.942 -0.0786 -0.8503  0.0020
  509MOL0     C68592  10.278   4.005   1.082  0.8365  1.0170 -0.2059
  509MOL0     C68593  10.129   4.009   1.078 -0.3190  0.4838  0.7485
  509MOL0     C68594  10.067   4.146   1.082  1.3038 -0.2365  0.1963
  509MOL0     C68595   9.911   4.133   1.098 -0.1216 -0.2401  0.3574
  509MOL0     C68596   9.839   4.265   1.079  0.5465  0.0609 -0.7400
  509MOL0     N68597   9.854   4.318   0.945 -0.3088 -0.2349 -0.0070
  509MOL0     C68598   9.762   4.294   0.852 -0.1024  0.5038  1.3322
  509MOL0     C68599   9.805   4.371   0.748  0.1002 -0.3580 -0.5920
  509MOL0     C68600   9.744   4.371   0.610  0.5753 -0.1288  0.3905
  509MOL0     C68601   9.637   4.486   0.589 -0.0057 -0.3404  0.1580
  509MOL0     C68602   9.509   4.454   0.662  0.4097  0.1200  0.1421
  509MOL0     C68603   9.415   4.399   0.552 -0.5341  0.2571  0.3062
  509MOL0     O68604   9.323   4.497   0.513  0.1592 -0.3417 -0.2266
  509MOL0     C68605   9.226   4.455   0.426 -0.1360  0.0339  0.6513
  509MOL0     C68606   9.113   4.536   0.411  0.1354 -0.0979  0.1291
  509MOL0     C68607   9.001   4.497   0.336  0.5389  0.6260  0.2392
  509MOL0     C68608   8.882   4.591   0.332  0.2118  0.4568  0.7284
  509MOL0     C68609   9.010   4.395   0.245 -0.1823  0.1599  0.6768
  509MOL0     C68610   8.916   4.341   0.147  0.0093 -0.0857  0.1913
  509MOL0     O68611   8.972   4.309   0.028  0.5312  0.2105  0.3486
  509MOL0     C68612   8.887   4.263  -0.073  0.8466 -0.4434 -0.5456
  509MOL0     C68613   8.841   4.134  -0.057  0.3132  0.6270 -0.4600
  509MOL0     C68614   8.756   4.078  -0.148  0.9075  0.3913 -0.0885
  509MOL0     C68615   8.722   4.152  -0.258 -0.1594 -0.1791  0.7366
  509MOL0     O68616   8.649   4.091  -0.361 -0.1045  0.1119  0.2307
  509MOL0     C68617   8.535   4.170  -0.417  0.8704  0.6848 -0.9500
  509MOL0     C68618   8.532   4.151  -0.565 -0.0288  0.0183 -0.0066
  509MOL0     C68619   8.488   4.002  -0.602  0.2964 -0.4996 -0.9016
  509MOL0     C68620   8.345   3.977  -0.583  0.1739 -0.5534 -0.2873
  509MOL0     C68621   8.311   3.840  -0.650  0.3470  0.1387  0.4619
  509MOL0     C68622   8.370   3.725  -0.572 -0.7514  0.9325  0.2575
  509MOL0     C68623   8.278   3.612  -0.571  0.1315  0.4254  0.5874
  509MOL0     C68624   8.336   3.476  -0.525  0.1221 -0.1820 -0.2166
  509MOL0    Cl68625   8.439   3.415  -0.644 -0.3999 -0.1825  0.4077
  509MOL0     C68626   8.760   4.281  -0.264 -0.4313  0.2172 -0.0454
  509MOL0     C68627   8.854   4.338  -0.182  0.1712  0.0785  0.3819
  509MOL0     O68628   8.799   4.313   0.172 -0.2283 -0.6475  0.1332
  509MOL0     C68629   9.125   4.315   0.251 -0.2899 -0.5338 -0.9302
  509MOL0     C68630   9.231   4.341   0.345  0.8694  0.4015 -0.5061
  509MOL0     N68631   9.920   4.450   0.778 -0.0886  0.3595 -0.6562
  509MOL0     N68632   9.939   4.420   0.908  0.4034  0.8755  0.1522
  509MOL0     C68633  10.758   4.184   0.699  0.0297 -0.3771  0.5074
  509MOL0     C68634  10.881   4.215   0.643 -0.5518  0.2006 -0.5160
  509MOL0     C68635  11.316   4.181   0.543 -0.1936  0.4191  0.6396
  509MOL0     C68636  11.427   4.207   0.627 -0.4419 -0.3652  0.1146
  509MOL0     C68637  11.546   4.239   0.565 -0.3633  0.1014  0.3250
  509MOL0     C68638  11.553   4.261   0.425  0.3299 -0.1491 -0.4304
  509MOL0     O68639  11.681   4.291   0.378  0.6857 -0.2410 -0.2872
  509MOL0     C68640  11.714   4.267   0.245  0.2956  0.1172  0.4270
  509MOL0     C68641  11.847   4.321   0.208 -1.0797 -0.3190  1.0073
  509MOL0     C68642  11.852   4.465   0.161  0.7923  0.0283  0.4541
  509MOL0     C68643  11.984   4.532   0.151 -0.2588 -0.4734 -0.1406
  509MOL0     C68644  12.045   4.514   0.019 -0.0276  0.4010  0.2047
  509MOL0     C68645  12.092   4.518  -0.091  0.7743 -0.1217  0.2678
  509MOL0     C68646  11.438   4.222   0.345 -1.0099  0.4649  0.4424
  509MOL0     C68647  11.320   4.180   0.403 -0.3874  0.6591 -0.3953
  509MOL0     H68648  10.958   3.915   0.505 -1.0172  1.1344 -4.1970
  509MOL0     H68649  10.723   3.857   0.589  1.1300  0.1104 -2.7123
  509MOL0     H68650  10.462   3.864   0.764  0.0415 -0.7531 -0.8908
  509MOL0     H68651  10.627   3.844   0.828 -1.2693 -0.8772  1.8271
  509MOL0     H68652  10.503   3.870   1.026  2.7742  0.2748 -0.6945
  509MOL0     H68653  10.546   4.037   0.998 -1.3637 -0.0586  1.9158
  509MOL0     H68654  10.323   4.097   0.896  1.3330 -0.2319  0.9205
  509MOL0     H68655  10.289   3.925   0.874 -1.2824 -0.9393  0.8534
  509MOL0     H68656  10.299   3.916   1.141 -0.2324  0.4738 -0.6189
  509MOL0     H68657  10.325   4.089   1.134  0.8181 -0.6030  2.6011
  509MOL0     H68658  10.089   3.959   0.990  0.2836 -2.2575  1.9259
  509MOL0     H68659  10.094   3.945   1.160 -0.6439 -1.1902 -0.6473
  509MOL0     H68660  10.097   4.208   1.167  1.6841 -1.6845  1.1530
  509MOL0     H68661  10.093   4.201   0.991  0.6448  1.6209  1.0825
  509MOL0     H68662   9.874   4.053   1.034 -1.9331  0.8754 -0.0719
  509MOL0     H68663   9.892   4.105   1.202  0.5276 -0.2171  0.4816
  509MOL0     H68664   9.874   4.343   1.147  0.1089  1.5343 -2.1527
  509MOL0     H68665   9.731   4.258   1.090  0.3704 -0.2520 -2.4071
  509MOL0     H68666   9.671   4.234   0.855 -0.7988  1.3458 -0.8027
  509MOL0     H68667   9.827   4.385   0.541 -1.5876  0.5352 -2.2349
  509MOL0     H68668   9.693   4.275   0.596 -4.2950  1.7971  2.4293
  509MOL0     H68669   9.624   4.502   0.482 -0.5694  1.3136  0.4425
  509MOL0     H68670   9.679   4.577   0.632 -1.3309 -0.7222  2.3992
  509MOL0     H68671   9.472   4.529   0.732 -1.9639 -1.0447  0.2190
  509MOL0     H68672   9.537   4.374   0.731 -2.2631 -0.2478  0.9089
  509MOL0     H68673   9.357   4.316   0.594  1.3259 -2.0665 -1.4500
  509MOL0     H68674   9.467   4.352   0.468  0.1908 -1.3447  1.5838
  509MOL0     H68675   9.108   4.625   0.473 -2.4918 -1.0784  1.4799
  509MOL0     H68676   8.809   4.558   0.257  1.3608 -1.1526  0.2889
  509MOL0     H68677   8.848   4.590   0.436  1.9457 -0.8152  1.3302
  509MOL0     H68678   8.923   4.692   0.318  2.0241 -0.2916  0.4202
  509MOL0     H68679   8.875   4.080   0.030 -0.4619 -0.2184 -0.6586
  509MOL0     H68680   8.734   3.972  -0.156 -0.3765  0.7491 -1.9737
  509MOL0     H68681   8.442   4.129  -0.375  0.6036  1.9270 -0.2840
  509MOL0     H68682   8.540   4.274  -0.384  1.2971  0.0605  1.1460
  509MOL0     H68683   8.467   4.225  -0.612  1.6413  1.2719 -0.4584
  509MOL0     H68684   8.634   4.178  -0.596 -0.4534  5.7847  2.3645
  509MOL0     H68685   8.530   3.933  -0.529 -0.6978 -1.4537 -1.2113
  509MOL0     H68686   8.533   3.975  -0.697  1.7521  0.9488 -0.6705
  509MOL0     H68687   8.311   3.965  -0.479 -0.4464  0.1762 -0.3987
  509MOL0     H68688   8.296   4.055  -0.642  2.1943 -1.0480 -2.7758
  509MOL0     H68689   8.350   3.844  -0.752 -3.2623  2.8739 -1.0168
  509MOL0     H68690   8.203   3.835  -0.666  0.8040 -0.8033 -3.2258
  509MOL0     H68691   8.466   3.698  -0.616  0.6525  3.8912  1.1831
  509MOL0     H68692   8.389   3.764  -0.471 -2.3484  3.6941 -0.4016
  509MOL0     H68693   8.236   3.592  -0.670 -0.4293 -0.3547  0.9737
  509MOL0     H68694   8.190   3.634  -0.509 -0.9742 -0.8349 -0.4644
  509MOL0     H68695   8.255   3.411  -0.491 -1.8950  2.9338  1.3715
  509MOL0     H68696   8.394   3.488  -0.434 -0.0747  1.6744 -0.3060
  509MOL0     H68697   8.737   4.342  -0.351  0.2164  0.4441 -0.0638
  509MOL0     H68698   8.882   4.442  -0.195  0.3479  0.0520  0.5447
  509MOL0     H68699   9.137   4.227   0.188 -0.5747 -0.1778 -1.4869
  509MOL0     H68700   9.321   4.283   0.333  1.0142 -0.1566  2.5928
  509MOL0     H68701  10.708   4.256   0.762  1.4272  1.4767 -0.4230
  509MOL0     H68702  10.926   4.313   0.657 -1.8245  0.5916  1.1723
  509MOL0     H68703  11.410   4.181   0.731 -0.5291  0.2538  0.2618
  509MOL0     H68704  11.635   4.238   0.627 -1.5982  0.2822  2.1817
  509MOL0     H68705  11.726   4.159   0.227  3.0557  0.7005 -2.1122
  509MOL0     H68706  11.635   4.287   0.172  1.1838 -1.5015 -1.0702
  509MOL0     H68707  11.894   4.258   0.131 -0.1604  0.5318  0.8472
  509MOL0     H68708  11.913   4.308   0.295  2.2083  0.7158 -1.1419
  509MOL0     H68709  11.779   4.522   0.219  0.8060  0.4900  0.0315
  509MOL0     H68710  11.807   4.472   0.062 -0.0898 -0.2062  0.8316
  509MOL0     H68711  12.036   4.491   0.239 -1.3510  0.8741  1.1943
  509MOL0     H68712  11.970   4.641   0.159  0.7828 -0.4205  1.3544
  509MOL0     H68713  12.116   4.510  -0.195 -0.7774 -2.0905  0.0005
  509MOL0     H68714  11.437   4.235   0.237 -2.2776  2.8682  0.6681
  509MOL0     H68715  11.242   4.155   0.331 -0.4644  1.2169 -0.5108
  510MOL0     O68716  11.128   2.633   6.949 -0.0695 -0.1086 -0.4906
  510MOL0     C68717  11.120   2.522   6.897 -0.0784 -0.0082 -0.2688
  510MOL0     O68718  11.205   2.414   6.933  0.0983  0.5577 -0.0487
  510MOL0     C68719  11.297   2.427   7.036 -0.1967 -0.2303  0.1616
  510MOL0     C68720  11.336   2.309   7.088 -0.0813  0.2576  0.1133
  510MOL0     C68721  11.437   2.298   7.187  0.1208 -0.2895 -0.4534
  510MOL0     C68722  11.492   2.414   7.245  0.6150 -0.2526 -0.4471
  510MOL0     O68723  11.584   2.401   7.344  0.1307 -0.6660  0.8419
  510MOL0     C68724  11.538   2.425   7.476 -0.3539 -0.5764 -0.2062
  510MOL0     C68725  11.642   2.408   7.583 -0.2033  0.0449  0.6790
  510MOL0     C68726  11.730   2.526   7.605 -0.4483 -0.8532  0.5995
  510MOL0     C68727  11.830   2.486   7.711  0.4074  0.0206 -0.1980
  510MOL0     C68728  11.941   2.590   7.741  0.7316 -0.4897  0.4449
  510MOL0     C68729  12.065   2.578   7.657 -0.4513  0.5146 -0.0245
  510MOL0     C68730  12.166   2.696   7.688  0.3067  0.0202 -0.0351
  510MOL0     C68731  12.102   2.839   7.654  0.0069  0.2666 -0.4750
  510MOL0     N68732  12.039   2.839   7.525 -1.0058  0.5220  0.3567
  510MOL0     C68733  12.099   2.844   7.398  0.1665  0.2834 -0.1263
  510MOL0     C68734  11.996   2.851   7.316  0.2556  0.4654  0.6243
  510MOL0     C68735  12.013   2.834   7.168 -0.0280 -0.1415 -0.1717
  510MOL0     C68736  11.908   2.739   7.114 -0.1112 -0.1967 -0.9943
  510MOL0     C68737  11.923   2.590   7.158  0.4336 -0.2958  0.4623
  510MOL0     C68738  11.828   2.507   7.073  0.5533 -0.4939  0.2929
  510MOL0     O68739  11.868   2.509   6.930  0.3215  1.1904  0.1835
  510MOL0     C68740  11.775   2.478   6.834  0.3656 -0.5686  0.0046
  510MOL0     C68741  11.814   2.495   6.697 -0.9994  0.0127  0.3086
  510MOL0     C68742  11.717   2.478   6.596 -1.0748  1.0704 -0.0150
  510MOL0     C68743  11.758   2.508   6.458  0.0522 -0.0726  0.6371
  510MOL0     C68744  11.602   2.410   6.628 -0.6925 -0.5820 -0.2245
  510MOL0     C68745  11.503   2.376   6.525 -0.8477  0.5766 -0.2120
  510MOL0     O68746  11.527   2.379   6.396 -0.0117 -0.1566  0.2547
  510MOL0     C68747  11.428   2.386   6.301  0.8919 -0.8462 -0.6292
  510MOL0     C68748  11.392   2.511   6.250  0.7172 -0.3870  0.0946
  510MOL0     C68749  11.292   2.513   6.153 -0.3361 -0.7032  0.3411
  510MOL0     C68750  11.224   2.397   6.106  0.2243  1.4849  0.3549
  510MOL0     O68751  11.115   2.395   6.026 -0.5705 -0.0840 -0.0882
  510MOL0     C68752  11.102   2.504   5.935 -0.2828 -0.3158  0.5922
  510MOL0     C68753  10.991   2.466   5.839 -0.3066  0.4013  0.7661
  510MOL0     C68754  10.846   2.433   5.899  0.0760 -0.5429 -0.8487
  510MOL0     C68755  10.739   2.402   5.792 -0.4112 -0.4756  0.2784
  510MOL0     C68756  10.600   2.379   5.853 -0.5538  0.6116 -0.2111
  510MOL0     C68757  10.495   2.330   5.757  0.3833  0.4075 -0.2223
  510MOL0     C68758  10.391   2.238   5.810 -0.0958 -0.2665 -0.3385
  510MOL0     C68759  10.288   2.195   5.715 -0.2609 -0.0543  0.0872
  510MOL0    Cl68760  10.177   2.328   5.663  0.2301 -0.8049 -0.1333
  510MOL0     C68761  11.249   2.280   6.169 -0.8110  0.4606  0.0035
  510MOL0     C68762  11.356   2.273   6.262 -0.5564 -0.1689  0.4482
  510MOL0     O68763  11.394   2.334   6.563  0.1470 -0.3188 -0.3541
  510MOL0     C68764  11.561   2.402   6.760 -0.1753  0.0738 -0.3284
  510MOL0     C68765  11.647   2.436   6.867 -0.8153 -0.3705  0.6597
  510MOL0     N68766  11.876   2.863   7.386 -0.0017 -0.5728  0.2167
  510MOL0     N68767  11.905   2.845   7.511 -0.1837 -0.1030  0.0219
  510MOL0     C68768  11.461   2.536   7.189 -0.0910  0.0615 -0.4040
  510MOL0     C68769  11.368   2.543   7.081  0.9917 -0.8464 -0.4815
  510MOL0     C68770  10.993   2.504   6.817  0.4256 -0.1871 -0.3505
  510MOL0     C68771  10.934   2.377   6.796 -0.4584  0.0376  0.1458
  510MOL0     C68772  10.816   2.360   6.722  0.2962 -0.1522 -0.0637
  510MOL0     C68773  10.747   2.472   6.680  0.0287  0.3277  0.9946
  510MOL0     O68774  10.641   2.463   6.590 -0.1685  0.3900 -0.5589
  510MOL0     C68775  10.570   2.340   6.577  0.8283  0.5671 -0.8756
  510MOL0     C68776  10.425   2.362   6.543 -0.1525 -0.5631  0.3301
  510MOL0     C68777  10.392   2.429   6.412 -0.1691 -0.6944 -0.1733
  510MOL0     C68778  10.409   2.349   6.276  0.0091  0.2850  0.2764
  510MOL0     C68779  10.556   2.340   6.255 -0.0901 -0.6240  0.3349
  510MOL0     C68780  10.679   2.334   6.251  0.5026 -0.4414  0.7275
  510MOL0     C68781  10.798   2.598   6.698  0.4296  0.1038  0.2407
  510MOL0     C68782  10.916   2.618   6.773  0.6603 -0.8674  0.6105
  510MOL0     H68783  11.297   2.214   7.055  3.4082 -1.7118  1.0981
  510MOL0     H68784  11.475   2.204   7.228 -2.3067 -2.2800 -2.4231
  510MOL0     H68785  11.501   2.528   7.468 -0.5020 -0.7449 -2.0183
  510MOL0     H68786  11.452   2.358   7.490 -2.3054  1.4835 -1.5161
  510MOL0     H68787  11.596   2.374   7.676 -1.7012 -2.3141 -0.8342
  510MOL0     H68788  11.708   2.326   7.551  0.8376  1.6498 -1.5746
  510MOL0     H68789  11.785   2.553   7.514 -1.3201  0.4904  0.4316
  510MOL0     H68790  11.670   2.615   7.627 -0.5669 -0.9876  0.8186
  510MOL0     H68791  11.786   2.455   7.806  0.0310 -4.0710 -1.5233
  510MOL0     H68792  11.883   2.401   7.667 -0.2636 -1.9120  2.4707
  510MOL0     H68793  11.903   2.692   7.737  1.2906 -0.2964 -0.1872
  510MOL0     H68794  11.972   2.572   7.844  1.5280 -0.6391  0.1898
  510MOL0     H68795  12.112   2.480   7.663 -0.2468  0.5106 -1.3772
  510MOL0     H68796  12.028   2.589   7.555 -0.6820  4.0000  0.3142
  510MOL0     H68797  12.208   2.691   7.789 -1.8247 -1.0223  0.8744
  510MOL0     H68798  12.256   2.685   7.627 -0.0528  1.2797 -0.8251
  510MOL0     H68799  12.187   2.908   7.655  2.9511 -3.0297 -1.2084
  510MOL0     H68800  12.034   2.860   7.737  0.1416  0.2316 -0.3539
  510MOL0     H68801  12.202   2.821   7.372  0.4928 -1.3303  2.2745
  510MOL0     H68802  12.004   2.931   7.117 -0.5659  1.3842  2.6387
  510MOL0     H68803  12.112   2.798   7.137 -0.9825 -1.3338 -2.0860
  510MOL0     H68804  11.917   2.739   7.005  1.6438 -0.1560 -0.8647
  510MOL0     H68805  11.809   2.773   7.147 -0.6374 -1.2763 -1.4104
  510MOL0     H68806  11.912   2.574   7.265 -2.0197  0.0438  0.3218
  510MOL0     H68807  12.024   2.559   7.132  0.8796 -0.7578  2.6021
  510MOL0     H68808  11.736   2.566   7.076  0.6541 -0.2819 -0.5134
  510MOL0     H68809  11.810   2.405   7.109 -0.8985 -0.3959 -0.0821
  510MOL0     H68810  11.913   2.532   6.672 -1.3863  1.1879  0.4635
  510MOL0     H68811  11.685   2.580   6.419 -0.0277  0.0213  0.9507
  510MOL0     H68812  11.849   2.568   6.465  1.6043 -2.3976  1.4285
  510MOL0     H68813  11.781   2.428   6.387 -0.2711  0.7720 -0.4418
  510MOL0     H68814  11.444   2.603   6.276  0.2024 -0.7193  2.5080
  510MOL0     H68815  11.260   2.609   6.114  0.7556 -0.8356 -0.9577
  510MOL0     H68816  11.065   2.591   5.989 -2.4386 -0.4725 -0.5423
  510MOL0     H68817  11.196   2.526   5.884 -0.4479  0.2099  0.5094
  510MOL0     H68818  10.984   2.550   5.769  0.8911 -1.1800 -1.3713
  510MOL0     H68819  11.030   2.383   5.778 -2.4217  1.1114 -1.7703
  510MOL0     H68820  10.815   2.506   5.974 -0.2934 -2.0933  0.5814
  510MOL0     H68821  10.843   2.342   5.960 -1.7864  0.2172  0.2782
  510MOL0     H68822  10.742   2.485   5.721  2.2472  0.6853  1.6164
  510MOL0     H68823  10.759   2.314   5.730  1.2235  1.5887 -2.3180
  510MOL0     H68824  10.573   2.478   5.889  3.1713  1.7720 -0.2684
  510MOL0     H68825  10.616   2.309   5.936 -0.1313  0.4106 -0.4598
  510MOL0     H68826  10.443   2.414   5.711 -0.8898  0.5503  1.4142
  510MOL0     H68827  10.546   2.278   5.675 -0.2401  0.3013 -0.5430
  510MOL0     H68828  10.346   2.292   5.895  2.4286 -0.2159  1.0520
  510MOL0     H68829  10.438   2.156   5.865  0.5573  0.9549  1.0069
  510MOL0     H68830  10.229   2.116   5.763 -2.2103  1.0105 -0.4468
  510MOL0     H68831  10.331   2.146   5.628  0.6747  0.2869  0.3332
  510MOL0     H68832  11.203   2.192   6.125 -0.3062 -0.1434  0.6555
  510MOL0     H68833  11.381   2.177   6.306 -0.5528  0.3511  1.6119
  510MOL0     H68834  11.460   2.368   6.781  0.4178 -1.6682 -0.2075
  510MOL0     H68835  11.600   2.438   6.964 -2.7987  1.4788 -0.2521
  510MOL0     H68836  11.508   2.629   7.220 -2.6789  0.0799  4.4468
  510MOL0     H68837  11.354   2.643   7.042  1.3168  0.8326  3.2774
  510MOL0     H68838  10.983   2.289   6.837  0.1580 -0.0492 -0.7512
  510MOL0     H68839  10.784   2.258   6.702  1.1063 -0.5772  0.7709
  510MOL0     H68840  10.603   2.273   6.497 -3.9014 -0.9225 -1.8937
  510MOL0     H68841  10.573   2.276   6.666  1.2111 -0.1128 -1.3641
  510MOL0     H68842  10.392   2.433   6.620  4.2487  0.6774  1.3250
  510MOL0     H68843  10.374   2.265   6.539  0.2974 -0.7827 -2.5470
  510MOL0     H68844  10.439   2.527   6.421 -1.6366 -0.0343  0.8355
  510MOL0     H68845  10.287   2.459   6.420 -0.1312 -0.9604  2.0861
  510MOL0     H68846  10.363   2.415   6.202  1.6853  5.7288  3.4359
  510MOL0     H68847  10.364   2.251   6.288 -2.3865  1.4979  2.2414
  510MOL0     H68848  10.786   2.336   6.244  0.4288  2.9040 -4.7774
  510MOL0     H68849  10.746   2.685   6.657 -0.3233 -0.0330  0.8749
  510MOL0     H68850  10.949   2.721   6.779 -1.6711 -0.0062 -0.0653
  511MOL0     O68851   6.548  10.697   4.933  0.0708 -0.4926  0.3439
  511MOL0     C68852   6.583  10.742   4.825  0.5472  0.5285 -0.4955
  511MOL0     O68853   6.507  10.738   4.713 -0.2729 -1.2947 -0.0623
  511MOL0     C68854   6.384  10.687   4.702 -0.0081 -0.4322  0.3749
  511MOL0     C68855   6.373  10.549   4.727 -0.2304 -0.2783 -0.4474
  511MOL0     C68856   6.254  10.484   4.709 -0.5519 -1.0484 -0.3932
  511MOL0     C68857   6.142  10.554   4.673  0.2696 -0.5566 -0.2570
  511MOL0     O68858   6.016  10.499   4.657 -0.1034 -0.6867 -0.3504
  511MOL0     C68859   5.986  10.376   4.729 -0.4816 -0.1078  0.6543
  511MOL0     C68860   5.846  10.337   4.699  0.5342  0.4472  0.0878
  511MOL0     C68861   5.749  10.444   4.714  0.3184 -0.3355 -0.2435
  511MOL0     C68862   5.603  10.400   4.696  0.5686  0.3942 -0.7455
  511MOL0     C68863   5.508  10.510   4.707  0.1651 -0.2824  0.3804
  511MOL0     C68864   5.369  10.453   4.714  0.2388 -0.1562 -0.5471
  511MOL0     C68865   5.268  10.569   4.710  0.6268 -0.0576 -0.0436
  511MOL0     C68866   5.132  10.512   4.691  0.6009  0.4436 -0.3635
  511MOL0     N68867   5.020  10.591   4.742  0.0071 -0.5981  0.7017
  511MOL0     C68868   5.000  10.646   4.867 -0.5523 -0.5292  0.4361
  511MOL0     C68869   4.883  10.711   4.855 -0.3526  0.2000  0.3972
  511MOL0     C68870   4.810  10.806   4.946 -0.1302  0.4197  0.5878
  511MOL0     C68871   4.914  10.900   5.022  0.1766 -0.7332 -0.0282
  511MOL0     C68872   4.859  11.005   5.124  0.3773 -0.2251  0.3994
  511MOL0     C68873   4.721  11.068   5.074  0.3150 -0.1195 -0.8656
  511MOL0     O68874   4.741  11.175   4.978  0.2119  0.0879  0.7161
  511MOL0     C68875   4.634  11.255   4.950  0.5120 -0.3368  0.2443
  511MOL0     C68876   4.638  11.394   4.987  0.0918  0.1060  0.5156
  511MOL0     C68877   4.533  11.478   4.944  0.5019 -0.5280  0.2865
  511MOL0     C68878   4.540  11.625   4.981  0.3874  0.2267  0.6984
  511MOL0     C68879   4.413  11.425   4.885 -0.1851  0.7661  1.2317
  511MOL0     C68880   4.289  11.500   4.838 -0.8275  0.7168  1.2652
  511MOL0     O68881   4.207  11.432   4.759  0.2749 -0.0754 -0.6091
  511MOL0     C68882   4.074  11.474   4.746 -0.1275  1.2176  0.6902
  511MOL0     C68883   4.018  11.476   4.619 -0.4615  0.0280 -0.1106
  511MOL0     C68884   3.898  11.533   4.593 -0.1569 -0.5662 -0.5645
  511MOL0     C68885   3.824  11.583   4.696 -0.0687  0.5792  0.0401
  511MOL0     O68886   3.700  11.628   4.657 -0.3097  0.1574 -0.8245
  511MOL0     C68887   3.638  11.726   4.742  0.5143 -0.2195 -0.2575
  511MOL0     C68888   3.531  11.673   4.838 -0.5912 -0.8597 -1.0431
  511MOL0     C68889   3.463  11.769   4.942  0.2706  0.1361 -0.2189
  511MOL0     C68890   3.542  11.808   5.070 -0.1307 -0.4435  0.2952
  511MOL0     C68891   3.445  11.855   5.185  0.6238 -0.1073 -0.4667
  511MOL0     C68892   3.352  11.735   5.246 -0.3229 -0.5336 -0.1042
  511MOL0     C68893   3.327  11.750   5.397  0.2781 -0.1042 -0.0322
  511MOL0     C68894   3.253  11.632   5.458 -0.3601  0.1737 -0.4295
  511MOL0    Cl68895   3.240  11.680   5.633 -0.5490 -0.1688  0.6531
  511MOL0     C68896   3.866  11.566   4.824 -0.6119 -0.3720 -1.1696
  511MOL0     C68897   3.989  11.504   4.853 -0.7073 -0.0270  0.0879
  511MOL0     O68898   4.262  11.614   4.889 -0.8256 -0.0616 -0.0416
  511MOL0     C68899   4.410  11.286   4.867 -0.6866 -0.1678 -0.3774
  511MOL0     C68900   4.525  11.200   4.896 -0.0857 -0.1398 -0.1477
  511MOL0     N68901   4.824  10.678   4.738 -0.4571  0.2217  0.7723
  511MOL0     N68902   4.908  10.612   4.665 -0.3799  0.6383  0.3514
  511MOL0     C68903   6.154  10.688   4.633 -0.4496  0.2775 -0.3880
  511MOL0     C68904   6.276  10.757   4.650 -0.5373  0.4414 -0.5291
  511MOL0     C68905   6.726  10.800   4.812 -0.6762 -0.4598 -0.6810
  511MOL0     C68906   6.780  10.826   4.685 -0.1352  0.3531  0.1065
  511MOL0     C68907   6.906  10.888   4.675 -0.6238 -0.6347  0.9948
  511MOL0     C68908   6.970  10.930   4.794 -0.4599 -1.2726  0.5788
  511MOL0     O68909   7.090  10.994   4.808 -0.5197 -0.4680 -0.2410
  511MOL0     C68910   7.179  10.993   4.693  0.7638  0.0430 -0.9595
  511MOL0     C68911   7.255  11.120   4.700  0.4356 -0.5663  0.5347
  511MOL0     C68912   7.355  11.144   4.579 -1.0086  1.0850  0.6851
  511MOL0     C68913   7.474  11.038   4.576  0.2855  0.5515 -0.2206
  511MOL0     C68914   7.550  11.040   4.704  0.0322 -0.0867 -0.0150
  511MOL0     C68915   7.616  11.038   4.806 -0.1293 -0.8243  0.2390
  511MOL0     C68916   6.908  10.910   4.917  0.0031  0.5584  0.7903
  511MOL0     C68917   6.789  10.845   4.927 -0.6119 -0.5538  0.8086
  511MOL0     H68918   6.460  10.500   4.770 -0.5076  0.1116  0.5834
  511MOL0     H68919   6.234  10.383   4.741 -2.3295 -0.8442 -0.7759
  511MOL0     H68920   6.040  10.286   4.699 -1.3563 -1.9883  4.1982
  511MOL0     H68921   6.010  10.393   4.835  0.9565 -0.0779  0.3390
  511MOL0     H68922   5.844  10.293   4.599  0.3799 -2.7660  1.3926
  511MOL0     H68923   5.823  10.250   4.762 -1.5942  0.1233 -1.0389
  511MOL0     H68924   5.776  10.504   4.801  3.2579 -0.4240 -0.9935
  511MOL0     H68925   5.766  10.508   4.627  2.5004  0.0484  0.4177
  511MOL0     H68926   5.596  10.339   4.605  0.0585  0.4461 -0.7432
  511MOL0     H68927   5.586  10.324   4.772 -0.4165  0.2508 -1.0914
  511MOL0     H68928   5.524  10.578   4.791  1.4602 -0.2409  0.1220
  511MOL0     H68929   5.514  10.574   4.619  0.1270 -0.9643 -0.1217
  511MOL0     H68930   5.357  10.387   4.627  0.7663  0.5099 -1.1439
  511MOL0     H68931   5.365  10.397   4.807  0.2755  0.3318 -0.2490
  511MOL0     H68932   5.272  10.624   4.804  2.4547 -0.6981  0.3001
  511MOL0     H68933   5.284  10.643   4.631  0.5654  1.6262  1.4481
  511MOL0     H68934   5.120  10.418   4.747  0.2541  1.4362  1.3144
  511MOL0     H68935   5.120  10.499   4.584  2.8607 -0.9741 -0.5162
  511MOL0     H68936   5.079  10.650   4.941  1.2294  1.8716 -1.4167
  511MOL0     H68937   4.747  10.862   4.877 -1.3483 -1.0743  0.4300
  511MOL0     H68938   4.745  10.744   5.009  3.0760 -2.5816  1.2547
  511MOL0     H68939   4.969  10.954   4.943  0.7160 -0.2320  0.6787
  511MOL0     H68940   4.983  10.828   5.068 -0.1572 -1.6423 -0.8944
  511MOL0     H68941   4.931  11.087   5.138 -0.1515  0.6281 -1.4759
  511MOL0     H68942   4.845  10.952   5.219  0.3582  2.1595  1.8157
  511MOL0     H68943   4.669  11.109   5.161 -0.3101  0.6492 -1.5799
  511MOL0     H68944   4.651  10.987   5.052  0.9223 -0.8154 -0.2827
  511MOL0     H68945   4.724  11.426   5.045  1.2035 -0.7273 -0.6261
  511MOL0     H68946   4.464  11.668   5.047  1.7472  2.0826  1.1325
  511MOL0     H68947   4.634  11.660   5.026  0.8076  0.7488 -0.5533
  511MOL0     H68948   4.538  11.686   4.890  1.8598  0.4604  0.7978
  511MOL0     H68949   4.083  11.445   4.538  0.6179  0.7602  0.4536
  511MOL0     H68950   3.845  11.530   4.498 -1.5898 -2.8657  0.2249
  511MOL0     H68951   3.710  11.776   4.807  1.6184 -1.3467 -0.5708
  511MOL0     H68952   3.602  11.805   4.676 -0.0893 -0.5719 -0.3619
  511MOL0     H68953   3.449  11.625   4.784 -3.3496  0.6705  1.5257
  511MOL0     H68954   3.585  11.595   4.892  0.8074  0.4099 -0.5293
  511MOL0     H68955   3.373  11.714   4.968  0.9040  0.3386  2.7444
  511MOL0     H68956   3.429  11.854   4.882  1.2167 -1.0071 -2.5195
  511MOL0     H68957   3.594  11.721   5.111 -0.7955 -0.7319  0.5369
  511MOL0     H68958   3.615  11.886   5.044 -0.4241 -0.6010 -1.1102
  511MOL0     H68959   3.382  11.936   5.147 -1.6186 -1.3091  0.5040
  511MOL0     H68960   3.508  11.895   5.265 -0.1269 -0.6143  0.3946
  511MOL0     H68961   3.255  11.748   5.197  0.3874 -2.0247 -2.0483
  511MOL0     H68962   3.405  11.647   5.208  2.1822  0.2606  1.2746
  511MOL0     H68963   3.270  11.842   5.408 -2.3359 -1.6327  0.0147
  511MOL0     H68964   3.420  11.765   5.452 -1.1239  0.3186  2.3572
  511MOL0     H68965   3.302  11.535   5.442  3.4997  1.8226  0.2808
  511MOL0     H68966   3.152  11.633   5.416 -0.9712 -3.9545  0.5102
  511MOL0     H68967   3.807  11.610   4.904  1.8617 -1.0400  1.1975
  511MOL0     H68968   4.027  11.482   4.952 -0.0064  1.9250  0.3024
  511MOL0     H68969   4.329  11.229   4.821  0.8379 -1.9878 -0.9789
  511MOL0     H68970   4.525  11.097   4.863 -1.5545  0.0401 -0.8181
  511MOL0     H68971   6.066  10.737   4.593 -1.8141  1.8262  3.8540
  511MOL0     H68972   6.284  10.865   4.638 -0.9588  0.4004 -1.2541
  511MOL0     H68973   6.722  10.806   4.596  1.2359  1.5553 -1.1074
  511MOL0     H68974   6.937  10.894   4.571  0.4237  0.0294  1.3363
  511MOL0     H68975   7.243  10.905   4.707  0.1051 -0.1729  0.9199
  511MOL0     H68976   7.126  10.988   4.597  0.8200  2.1954 -1.1631
  511MOL0     H68977   7.319  11.111   4.788  1.7005 -0.7996 -0.3730
  511MOL0     H68978   7.186  11.204   4.715  0.8450 -0.6329  3.4348
  511MOL0     H68979   7.399  11.243   4.593  0.0090  0.6790  0.4484
  511MOL0     H68980   7.297  11.151   4.487 -1.7597  0.0087  1.0526
  511MOL0     H68981   7.543  11.054   4.493  2.1926  0.3126  1.2713
  511MOL0     H68982   7.428  10.942   4.553 -0.3846  1.0143 -0.8628
  511MOL0     H68983   7.660  11.036   4.904 -0.1080  0.6143  0.2779
  511MOL0     H68984   6.940  10.955   5.011 -0.2488  0.3397  0.9839
  511MOL0     H68985   6.748  10.851   5.027  0.9100 -0.1723  1.4286
  512MOL0     O68986   1.366   4.586   3.530  0.2206  0.4804 -0.1733
  512MOL0     C68987   1.432   4.690   3.526  0.3527 -0.0634  0.0746
  512MOL0     O68988   1.374   4.816   3.546  0.2269 -0.2379  0.7436
  512MOL0     C68989   1.236   4.824   3.555 -0.2919  0.2407 -0.4948
  512MOL0     C68990   1.168   4.876   3.448  0.6274 -0.9326 -0.7588
  512MOL0     C68991   1.030   4.880   3.462 -0.3153 -0.2797 -0.8942
  512MOL0     C68992   0.961   4.834   3.576 -0.3725 -0.7397 -0.6663
  512MOL0     O68993   0.825   4.829   3.575  0.2266 -0.4708 -0.2957
  512MOL0     C68994   0.740   4.782   3.692 -0.1154  0.0453 -0.1094
  512MOL0     C68995   0.585   4.791   3.663 -0.0254  0.2224 -0.4353
  512MOL0     C68996   0.496   4.739   3.778  0.2867 -0.0545  0.7521
  512MOL0     C68997   0.543   4.775   3.922 -0.0190  0.3762 -0.0101
  512MOL0     C68998   0.473   4.703   4.033 -0.2413  0.4987  0.2492
  512MOL0     C68999   0.325   4.740   4.048  0.1888 -0.2803 -0.0572
  512MOL0     C69000   0.250   4.649   4.135  0.2790  0.6985 -0.3182
  512MOL0     C69001   0.136   4.709   4.220 -0.4617 -0.1915 -0.1861
  512MOL0     N69002   0.012   4.752   4.146 -0.2090 -0.1924  0.3986
  512MOL0     C69003  -0.052   4.677   4.056  0.5377  0.1286  0.0139
  512MOL0     C69004  -0.147   4.761   3.999  1.0510  0.5884 -0.0022
  512MOL0     C69005  -0.235   4.724   3.879 -0.2365 -0.6792  0.2284
  512MOL0     C69006  -0.162   4.652   3.762 -0.0406 -0.7005 -0.2485
  512MOL0     C69007  -0.042   4.736   3.712  0.3295  0.1584  0.5190
  512MOL0     C69008   0.004   4.689   3.565  0.3283  0.3328 -1.1961
  512MOL0     O69009   0.113   4.770   3.528  0.2758 -0.2266 -0.1894
  512MOL0     C69010   0.105   4.860   3.419  0.0641 -0.1316 -0.0485
  512MOL0     C69011   0.222   4.928   3.401  0.2379  0.0996 -0.7514
  512MOL0     C69012   0.239   5.031   3.307  0.3098  0.5390 -0.4323
  512MOL0     C69013   0.367   5.100   3.291  0.3285 -0.1176  0.1647
  512MOL0     C69014   0.124   5.055   3.220 -0.4790 -0.0744  0.1017
  512MOL0     C69015   0.132   5.152   3.105 -0.1748  0.8712  0.0290
  512MOL0     O69016   0.030   5.132   3.021 -0.3601 -0.5029  0.2683
  512MOL0     C69017  -0.018   5.236   2.946 -0.0758 -0.9113  0.1119
  512MOL0     C69018  -0.021   5.239   2.804 -0.5169 -0.7676 -0.9666
  512MOL0     C69019  -0.108   5.316   2.735 -0.9499  0.5709 -0.1036
  512MOL0     C69020  -0.205   5.393   2.797 -0.2143 -0.3498 -0.0330
  512MOL0     O69021  -0.282   5.474   2.724 -0.0899 -0.2092 -0.1846
  512MOL0     C69022  -0.365   5.569   2.781  0.8981 -1.0624  0.6714
  512MOL0     C69023  -0.460   5.634   2.675  0.4920 -0.2334  0.1881
  512MOL0     C69024  -0.591   5.557   2.665  0.5026 -0.2508  0.2465
  512MOL0     C69025  -0.696   5.626   2.572  0.0896  0.5100  0.1225
  512MOL0     C69026  -0.816   5.530   2.524 -1.0381  0.0685 -0.5771
  512MOL0     C69027  -0.909   5.487   2.638 -0.2375 -0.0316 -0.0874
  512MOL0     C69028  -0.959   5.342   2.616 -0.3036 -1.0954 -0.6494
  512MOL0     C69029  -1.101   5.321   2.676 -0.3542  0.7138 -0.1077
  512MOL0    Cl69030  -1.213   5.382   2.563 -0.1293  0.3491 -0.2221
  512MOL0     C69031  -0.201   5.391   2.936  0.4942  0.1167 -0.1052
  512MOL0     C69032  -0.103   5.323   3.010  0.6743 -0.9789 -0.0331
  512MOL0     O69033   0.208   5.253   3.101 -0.6236 -0.5404  0.0661
  512MOL0     C69034   0.007   4.978   3.236  0.3052  0.6982  0.0860
  512MOL0     C69035  -0.009   4.886   3.341  0.4534 -0.1424  0.1047
  512MOL0     N69036  -0.130   4.884   4.056  0.7516 -0.3276 -0.2522
  512MOL0     N69037  -0.044   4.876   4.149 -0.5192 -0.1737  0.8720
  512MOL0     C69038   1.037   4.787   3.685  0.5451  0.2500  0.7092
  512MOL0     C69039   1.173   4.780   3.667  0.1949 -0.1455 -1.5626
  512MOL0     C69040   1.573   4.679   3.495  0.5772 -0.4628  0.1111
  512MOL0     C69041   1.634   4.783   3.438 -0.4362 -1.2135 -0.5996
  512MOL0     C69042   1.771   4.786   3.423  0.1679  0.2070  0.4067
  512MOL0     C69043   1.855   4.687   3.473 -0.2866 -0.1184  0.3382
  512MOL0     O69044   1.996   4.689   3.466 -0.4239 -0.3060 -0.0961
  512MOL0     C69045   2.050   4.821   3.441 -0.1147 -0.8340 -0.1322
  512MOL0     C69046   2.199   4.833   3.478  0.4818 -0.3730 -0.3371
  512MOL0     C69047   2.274   4.731   3.403  0.0434  0.2671 -0.3005
  512MOL0     C69048   2.430   4.740   3.411  0.7350  0.0894  0.0469
  512MOL0     C69049   2.488   4.857   3.351  0.2612 -0.4094  0.3300
  512MOL0     C69050   2.545   4.967   3.336  0.3854  0.3542 -0.4155
  512MOL0     C69051   1.794   4.574   3.521  0.0068 -0.8635  0.0756
  512MOL0     C69052   1.652   4.567   3.538 -0.3134  0.4426  0.2401
  512MOL0     H69053   1.214   4.912   3.357  0.2545 -0.0701 -0.6224
  512MOL0     H69054   0.974   4.902   3.372 -0.1939 -3.6847 -1.9627
  512MOL0     H69055   0.764   4.679   3.718 -1.7336 -0.8490 -1.9381
  512MOL0     H69056   0.758   4.853   3.774 -0.6239  3.0231 -2.3953
  512MOL0     H69057   0.555   4.896   3.661 -0.0538  0.2177 -0.2823
  512MOL0     H69058   0.563   4.749   3.564 -0.2569 -3.9107  1.1506
  512MOL0     H69059   0.401   4.790   3.763 -1.4569 -3.1680  0.3229
  512MOL0     H69060   0.489   4.631   3.767 -3.4492  0.2182 -0.9289
  512MOL0     H69061   0.651   4.757   3.931 -0.6683 -3.2147  2.3241
  512MOL0     H69062   0.524   4.883   3.925  0.6855  0.4798  0.8741
  512MOL0     H69063   0.474   4.594   4.020 -1.2899  0.3140  1.4820
  512MOL0     H69064   0.514   4.733   4.130  0.8341  0.2713 -0.1251
  512MOL0     H69065   0.330   4.843   4.085  1.8005  0.2485 -1.5951
  512MOL0     H69066   0.267   4.751   3.955 -1.8766 -3.4310  0.7252
  512MOL0     H69067   0.207   4.567   4.076  0.6703 -0.3776  0.8598
  512MOL0     H69068   0.330   4.608   4.197  0.5254 -0.2284 -1.2183
  512MOL0     H69069   0.175   4.775   4.298  0.7470 -0.6777 -0.3598
  512MOL0     H69070   0.111   4.620   4.278  3.0155  1.7320  4.8861
  512MOL0     H69071  -0.048   4.576   4.018 -1.6711  0.5185 -1.4439
  512MOL0     H69072  -0.305   4.655   3.928 -2.3231  0.0948 -1.4978
  512MOL0     H69073  -0.289   4.807   3.834  0.8960  0.4123  0.8309
  512MOL0     H69074  -0.229   4.619   3.682  0.1525 -1.3682 -0.1479
  512MOL0     H69075  -0.126   4.558   3.805 -3.4509 -1.4400  1.3252
  512MOL0     H69076   0.043   4.736   3.782 -1.1432  1.7528  2.4315
  512MOL0     H69077  -0.083   4.837   3.719  0.2476  0.1545  0.1075
  512MOL0     H69078  -0.080   4.693   3.495  0.4673 -0.2259 -1.3975
  512MOL0     H69079   0.039   4.586   3.559 -0.5669 -0.0733  0.2538
  512MOL0     H69080   0.305   4.897   3.465 -0.5604  2.0314  1.3460
  512MOL0     H69081   0.363   5.192   3.350 -0.9716 -0.0172 -0.0537
  512MOL0     H69082   0.448   5.040   3.332  0.1737  1.6703  3.4431
  512MOL0     H69083   0.388   5.139   3.190 -2.2944 -0.4623 -0.5925
  512MOL0     H69084   0.054   5.181   2.751 -0.0093  0.7137 -1.9257
  512MOL0     H69085  -0.109   5.318   2.627 -0.6984 -0.3611 -0.1262
  512MOL0     H69086  -0.431   5.524   2.856  0.1372 -0.8049  0.1650
  512MOL0     H69087  -0.309   5.652   2.826 -2.7360  0.6250  2.4663
  512MOL0     H69088  -0.480   5.739   2.698  0.1055 -0.0773 -0.8042
  512MOL0     H69089  -0.411   5.641   2.578 -0.3403 -1.0688 -0.3089
  512MOL0     H69090  -0.646   5.550   2.760  3.0730  2.0909  2.0508
  512MOL0     H69091  -0.576   5.456   2.626  0.1832  0.0206 -0.6043
  512MOL0     H69092  -0.736   5.719   2.612 -0.8494  0.6943 -1.1835
  512MOL0     H69093  -0.646   5.638   2.475 -0.8659 -3.9495 -1.1442
  512MOL0     H69094  -0.772   5.435   2.493 -0.8591  0.1884 -0.6922
  512MOL0     H69095  -0.875   5.576   2.444  0.4801  0.4423 -1.5271
  512MOL0     H69096  -0.858   5.501   2.734 -0.2444  1.3668 -0.2633
  512MOL0     H69097  -0.992   5.558   2.624 -0.7834 -0.5168  0.6133
  512MOL0     H69098  -0.888   5.283   2.675 -0.9984  0.1739  1.6174
  512MOL0     H69099  -0.967   5.317   2.510  0.0305 -1.4852 -0.5834
  512MOL0     H69100  -1.118   5.384   2.765  1.4693  0.7097  0.2869
  512MOL0     H69101  -1.114   5.215   2.699  0.3680  0.2890 -1.5506
  512MOL0     H69102  -0.279   5.448   2.986  0.1083 -0.2675 -0.2627
  512MOL0     H69103  -0.107   5.332   3.118 -1.2719  3.5876 -0.2307
  512MOL0     H69104  -0.074   4.981   3.164 -2.5506 -1.0081  2.9676
  512MOL0     H69105  -0.102   4.831   3.353 -0.0208  0.4619 -0.6811
  512MOL0     H69106   0.985   4.756   3.775  0.0454  1.6645  0.9238
  512MOL0     H69107   1.235   4.735   3.744  1.2651 -0.9229 -2.8378
  512MOL0     H69108   1.587   4.878   3.413  0.2256 -0.0879  2.0173
  512MOL0     H69109   1.802   4.875   3.369  2.3614  0.1672  1.4641
  512MOL0     H69110   2.045   4.854   3.337 -2.2865  3.2834  1.0491
  512MOL0     H69111   1.999   4.900   3.496  0.6629 -0.3401 -0.1072
  512MOL0     H69112   2.202   4.812   3.585 -2.8156  2.0763  0.3987
  512MOL0     H69113   2.244   4.933   3.465  3.7319 -1.8248 -1.4194
  512MOL0     H69114   2.239   4.733   3.299 -0.7722 -0.5811 -0.0524
  512MOL0     H69115   2.245   4.629   3.430  1.9068  0.1257  1.4197
  512MOL0     H69116   2.471   4.647   3.371 -3.1805 -1.8975  0.1917
  512MOL0     H69117   2.462   4.739   3.516  1.7323 -3.9075 -0.1122
  512MOL0     H69118   2.578   5.066   3.310 -0.7604  0.8242 -0.1537
  512MOL0     H69119   1.869   4.502   3.552  3.0882  1.5566 -1.1674
  512MOL0     H69120   1.598   4.480   3.575 -0.8011  1.4160  1.9071
  513MOL0     O69121   1.847   7.603   1.612 -0.2285  0.4510 -0.4159
  513MOL0     C69122   1.882   7.482   1.609 -0.0776 -0.2130  0.8059
  513MOL0     O69123   1.790   7.378   1.602 -0.0991  0.3850  0.4096
  513MOL0     C69124   1.650   7.393   1.615 -0.0536  0.3708 -0.0375
  513MOL0     C69125   1.573   7.278   1.586  0.0724  0.0407  0.4831
  513MOL0     C69126   1.432   7.272   1.599  0.6131 -0.3193  0.3159
  513MOL0     C69127   1.362   7.391   1.632 -0.2526 -0.1230 -0.7860
  513MOL0     O69128   1.228   7.401   1.651 -0.5348 -0.7987  0.4456
  513MOL0     C69129   1.139   7.290   1.647 -0.4517 -1.2866  0.3832
  513MOL0     C69130   0.998   7.325   1.704 -0.1644 -0.6730  0.1083
  513MOL0     C69131   0.918   7.418   1.610 -0.3632 -0.6631  0.7040
  513MOL0     C69132   0.788   7.457   1.687  0.2015  0.3397  0.7016
  513MOL0     C69133   0.682   7.345   1.692  0.0016  0.6554  0.1759
  513MOL0     C69134   0.536   7.390   1.713  0.3724 -1.1384 -0.6157
  513MOL0     C69135   0.431   7.283   1.726  0.0949  1.2977  0.6128
  513MOL0     C69136   0.455   7.140   1.668  0.3457 -0.6098  0.0743
  513MOL0     N69137   0.455   7.146   1.519 -0.4396  0.0888  0.1417
  513MOL0     C69138   0.346   7.145   1.434  1.4368 -0.7962  0.4929
  513MOL0     C69139   0.399   7.136   1.310  0.2614 -0.5195 -0.2025
  513MOL0     C69140   0.311   7.090   1.199  1.1063  0.3469 -0.4634
  513MOL0     C69141   0.346   7.158   1.067  0.0872 -0.3129  0.0489
  513MOL0     C69142   0.341   7.311   1.075 -0.3108  0.0308 -0.4016
  513MOL0     C69143   0.212   7.361   1.133 -0.2408 -0.6341 -0.3766
  513MOL0     O69144   0.106   7.324   1.046 -0.2059 -0.4507 -0.4105
  513MOL0     C69145  -0.026   7.324   1.094 -0.7656 -0.4641  0.4819
  513MOL0     C69146  -0.123   7.406   1.040  0.3229  0.7177  0.3211
  513MOL0     C69147  -0.259   7.388   1.084  0.5544 -1.1812  0.6584
  513MOL0     C69148  -0.360   7.485   1.016 -0.1997  0.5757  0.6123
  513MOL0     C69149  -0.296   7.317   1.205 -0.1841 -0.5765 -0.0671
  513MOL0     C69150  -0.424   7.330   1.274  0.2781 -0.8139 -0.4467
  513MOL0     O69151  -0.439   7.262   1.393 -0.3564  0.7185  0.4813
  513MOL0     C69152  -0.557   7.244   1.458  0.1177  0.3415  0.3617
  513MOL0     C69153  -0.583   7.305   1.586  0.1211 -0.6085  0.6055
  513MOL0     C69154  -0.702   7.278   1.655 -0.1057 -0.3390 -0.0841
  513MOL0     C69155  -0.784   7.168   1.610 -0.1119 -1.0683 -0.7265
  513MOL0     O69156  -0.887   7.131   1.691 -0.5644  0.4657  0.3012
  513MOL0     C69157  -1.023   7.089   1.634 -0.2480 -0.1728  0.2040
  513MOL0     C69158  -1.098   7.215   1.600  0.0485  0.9647  0.1036
  513MOL0     C69159  -1.226   7.179   1.531  0.1521  0.1908 -0.1746
  513MOL0     C69160  -1.286   7.313   1.488  0.7523 -0.7206  0.0332
  513MOL0     C69161  -1.415   7.294   1.400 -0.7834  0.6319  0.0765
  513MOL0     C69162  -1.481   7.421   1.364  0.9449 -0.3313  0.6754
  513MOL0     C69163  -1.406   7.485   1.246  0.2117 -0.9072  0.4416
  513MOL0     C69164  -1.469   7.620   1.212  0.0360  0.2695  0.6783
  513MOL0    Cl69165  -1.645   7.611   1.170  0.4343 -0.1100 -0.1417
  513MOL0     C69166  -0.747   7.097   1.494 -0.4611 -0.2454 -0.6579
  513MOL0     C69167  -0.646   7.146   1.418  0.0451  0.9210 -0.3712
  513MOL0     O69168  -0.520   7.400   1.233  0.1499 -0.5173 -0.3667
  513MOL0     C69169  -0.190   7.249   1.258  0.0274  0.6941 -0.1632
  513MOL0     C69170  -0.061   7.245   1.197  0.2613  0.3677 -0.2431
  513MOL0     N69171   0.535   7.122   1.316  0.0937  0.3382  0.4944
  513MOL0     N69172   0.567   7.127   1.442 -0.0613  0.0506  0.1059
  513MOL0     C69173   1.442   7.508   1.647 -0.5957 -0.3048 -0.0379
  513MOL0     C69174   1.581   7.508   1.644  0.1855 -1.3824  0.9520
  513MOL0     C69175   2.024   7.438   1.599 -1.0424  0.0277  0.4114
  513MOL0     C69176   2.125   7.537   1.579 -0.4684 -0.3571  0.1665
  513MOL0     C69177   2.257   7.483   1.545  0.0398 -1.2425  0.8725
  513MOL0     C69178   2.287   7.349   1.556  0.2527 -0.2353  0.0145
  513MOL0     O69179   2.421   7.324   1.539  0.1454  0.0901 -0.7003
  513MOL0     C69180   2.474   7.222   1.633 -0.5884 -0.2979 -0.2063
  513MOL0     C69181   2.620   7.262   1.657 -0.5192 -0.1316  0.0684
  513MOL0     C69182   2.715   7.228   1.531  0.4157  0.5543  0.0349
  513MOL0     C69183   2.865   7.220   1.577 -0.3791 -1.2357 -0.1928
  513MOL0     C69184   2.939   7.195   1.459  0.1405  0.5575  0.4017
  513MOL0     C69185   2.989   7.160   1.351  0.1398 -0.1975  0.2943
  513MOL0     C69186   2.188   7.256   1.574  0.9232  0.2309 -1.0201
  513MOL0     C69187   2.059   7.302   1.586  0.1447 -0.0173 -1.1799
  513MOL0     H69188   1.628   7.192   1.550 -0.7403  0.2084 -1.2772
  513MOL0     H69189   1.392   7.175   1.572 -1.6429  0.8076 -0.6790
  513MOL0     H69190   1.125   7.241   1.550 -0.0877 -1.8472  0.6062
  513MOL0     H69191   1.177   7.203   1.701  0.5299 -0.0943  1.6646
  513MOL0     H69192   0.937   7.238   1.727 -0.7698 -0.1420  0.5317
  513MOL0     H69193   1.012   7.379   1.798  1.6999  0.2444 -0.6395
  513MOL0     H69194   0.978   7.507   1.592 -1.0225 -0.0213  1.5775
  513MOL0     H69195   0.901   7.361   1.518  0.2000 -1.4134  1.0497
  513MOL0     H69196   0.818   7.491   1.786  0.5393  0.2165  0.6393
  513MOL0     H69197   0.744   7.537   1.625 -2.0474 -1.6431 -0.4158
  513MOL0     H69198   0.688   7.296   1.595  0.2128  0.0295  0.5035
  513MOL0     H69199   0.710   7.273   1.770  0.7629 -1.2384 -1.7613
  513MOL0     H69200   0.538   7.444   1.809  0.3162  1.0365 -1.7675
  513MOL0     H69201   0.509   7.467   1.640 -3.0861  0.5632  2.1597
  513MOL0     H69202   0.423   7.270   1.835 -1.1114  0.4207  0.4492
  513MOL0     H69203   0.335   7.317   1.686 -1.8493 -1.5443  2.4797
  513MOL0     H69204   0.381   7.071   1.710  0.7379 -0.5045  0.9475
  513MOL0     H69205   0.552   7.124   1.715  0.6032  2.2963  0.7025
  513MOL0     H69206   0.243   7.149   1.467  0.1240 -0.6277 -3.1047
  513MOL0     H69207   0.325   6.982   1.191  0.7560  0.0448  2.0409
  513MOL0     H69208   0.203   7.107   1.209  0.7109 -2.4135  1.1255
  513MOL0     H69209   0.268   7.124   0.998 -2.3124 -0.7452  2.7451
  513MOL0     H69210   0.444   7.119   1.039 -0.0600 -0.7172  0.0851
  513MOL0     H69211   0.345   7.349   0.973  1.3009  0.4072 -0.2146
  513MOL0     H69212   0.422   7.356   1.133 -0.2847 -1.3385  0.7072
  513MOL0     H69213   0.222   7.470   1.125 -3.7237 -0.2058 -0.4393
  513MOL0     H69214   0.199   7.338   1.239  0.1014  0.8147 -0.0017
  513MOL0     H69215  -0.104   7.485   0.968 -0.0608  1.2157  0.7680
  513MOL0     H69216  -0.397   7.558   1.089  0.2928  2.3577 -0.8437
  513MOL0     H69217  -0.327   7.534   0.924 -1.9537 -2.3661 -1.7778
  513MOL0     H69218  -0.452   7.433   0.985 -1.8190  0.6061  4.7444
  513MOL0     H69219  -0.505   7.371   1.623 -0.7831  0.6580  0.3329
  513MOL0     H69220  -0.720   7.330   1.748  1.2782  0.3193 -0.1501
  513MOL0     H69221  -1.017   7.038   1.537 -2.6308  2.9442 -1.8107
  513MOL0     H69222  -1.072   7.028   1.710  1.7334 -0.3938  1.3772
  513MOL0     H69223  -1.120   7.267   1.693 -0.1637  0.7231  0.1884
  513MOL0     H69224  -1.034   7.280   1.539  1.1465 -0.3622 -0.2322
  513MOL0     H69225  -1.293   7.133   1.604 -0.0939 -0.2856 -0.6926
  513MOL0     H69226  -1.216   7.117   1.441  1.1302  0.2771 -0.1328
  513MOL0     H69227  -1.311   7.376   1.573 -1.3284 -2.8105  1.1004
  513MOL0     H69228  -1.211   7.352   1.418 -1.1890 -0.7651 -2.2240
  513MOL0     H69229  -1.477   7.230   1.464  0.6930 -2.1413 -1.0886
  513MOL0     H69230  -1.387   7.231   1.315  1.3653  1.4031  0.1663
  513MOL0     H69231  -1.584   7.397   1.337  1.8297 -0.3031 -3.4397
  513MOL0     H69232  -1.466   7.482   1.453  1.5004  2.3475 -1.1046
  513MOL0     H69233  -1.393   7.418   1.160  1.3160  1.5993 -1.4579
  513MOL0     H69234  -1.301   7.502   1.272  1.2530 -1.6790 -2.7592
  513MOL0     H69235  -1.410   7.672   1.135 -0.2186  0.5528  0.6734
  513MOL0     H69236  -1.466   7.684   1.300 -2.0895 -0.2647  1.1847
  513MOL0     H69237  -0.812   7.012   1.475 -0.2125 -0.6653  0.2969
  513MOL0     H69238  -0.622   7.102   1.322 -0.7263  3.9890 -2.1113
  513MOL0     H69239  -0.214   7.180   1.338  2.1253 -3.3549 -2.7037
  513MOL0     H69240   0.010   7.182   1.249  0.8919  0.9027 -0.4454
  513MOL0     H69241   1.408   7.608   1.671  2.7792  1.4982 -2.0343
  513MOL0     H69242   1.629   7.603   1.666 -1.8669  0.2972 -1.3741
  513MOL0     H69243   2.120   7.645   1.570  1.7696 -0.1627  0.7091
  513MOL0     H69244   2.331   7.561   1.530 -1.5697 -0.0279 -1.4379
  513MOL0     H69245   2.426   7.227   1.731 -2.3476  2.6719 -1.0868
  513MOL0     H69246   2.463   7.126   1.582  0.2118  0.5084 -1.9690
  513MOL0     H69247   2.653   7.206   1.744 -1.1637 -1.5922 -0.5902
  513MOL0     H69248   2.629   7.368   1.681  2.4164  0.0478 -1.4117
  513MOL0     H69249   2.697   7.309   1.460 -1.4891  1.4307  1.4397
  513MOL0     H69250   2.687   7.136   1.478  1.9255  0.9456 -1.5336
  513MOL0     H69251   2.874   7.152   1.662 -2.2735  0.3323  1.3724
  513MOL0     H69252   2.900   7.322   1.598 -0.7609 -0.5721 -2.4795
  513MOL0     H69253   3.025   7.105   1.266 -3.1211 -2.5811  0.2754
  513MOL0     H69254   2.210   7.150   1.584  0.2045  0.1546 -0.0855
  513MOL0     H69255   1.976   7.236   1.606  0.1805  0.4760  0.8907
  514MOL0     O69256   5.227   3.388   6.936  0.1656 -0.1618  0.3815
  514MOL0     C69257   5.286   3.408   7.047 -0.2383 -0.3356 -0.1641
  514MOL0     O69258   5.233   3.382   7.167 -0.2039  0.0135  0.3651
  514MOL0     C69259   5.108   3.344   7.184 -0.1765 -0.2355 -0.9272
  514MOL0     C69260   5.083   3.212   7.198 -0.4518  0.1753  0.4553
  514MOL0     C69261   4.958   3.171   7.208 -0.6038 -0.2223 -0.1716
  514MOL0     C69262   4.851   3.256   7.226 -1.0499 -0.0906  0.0005
  514MOL0     O69263   4.730   3.192   7.226  0.2209 -0.2723 -0.7058
  514MOL0     C69264   4.608   3.259   7.262  0.9036 -0.8550  0.5352
  514MOL0     C69265   4.504   3.202   7.162 -0.3701 -0.1039 -0.1127
  514MOL0     C69266   4.366   3.269   7.148  0.8526  0.0611 -0.5563
  514MOL0     C69267   4.282   3.232   7.271 -0.0501  0.4302  0.7794
  514MOL0     C69268   4.133   3.265   7.245 -0.3527 -0.6379  0.6360
  514MOL0     C69269   4.036   3.242   7.365  0.3458 -0.1977  0.0923
  514MOL0     C69270   4.039   3.093   7.401  0.2233  0.8126  0.7592
  514MOL0     C69271   3.954   3.062   7.528  0.3664  1.2494 -0.4220
  514MOL0     N69272   3.812   3.077   7.493 -0.0708 -0.2457  0.0456
  514MOL0     C69273   3.750   2.995   7.409  0.4125 -0.2831 -0.0582
  514MOL0     C69274   3.624   3.033   7.416  0.7563  0.7329  0.4472
  514MOL0     C69275   3.507   2.980   7.338  0.6707  0.5444  1.0796
  514MOL0     C69276   3.456   2.841   7.397 -0.0096 -0.1364 -0.0418
  514MOL0     C69277   3.317   2.810   7.341 -0.3483  0.2642 -0.8356
  514MOL0     C69278   3.260   2.705   7.433 -0.7428  1.5212 -0.1407
  514MOL0     O69279   3.232   2.753   7.566 -0.4651  0.1148  0.5308
  514MOL0     C69280   3.119   2.713   7.627 -0.9707 -0.0836 -0.0040
  514MOL0     C69281   3.041   2.609   7.597 -0.4139 -0.4349  0.8260
  514MOL0     C69282   2.926   2.574   7.674  0.3580 -0.5353 -0.1395
  514MOL0     C69283   2.854   2.451   7.611 -0.6828 -0.3956 -0.3786
  514MOL0     C69284   2.880   2.662   7.772  0.3983  0.6391  0.4472
  514MOL0     C69285   2.754   2.636   7.846 -0.0127 -0.7397  0.4637
  514MOL0     O69286   2.718   2.515   7.889 -0.2795 -0.3459 -0.5121
  514MOL0     C69287   2.585   2.470   7.899 -0.5818 -0.4811  0.2886
  514MOL0     C69288   2.477   2.525   7.828 -0.2146 -0.2443  0.5307
  514MOL0     C69289   2.344   2.468   7.839 -0.8098  0.1993  0.1980
  514MOL0     C69290   2.319   2.356   7.930  0.2123 -0.1534  0.8612
  514MOL0     O69291   2.195   2.306   7.942  0.2028 -0.7092  0.3840
  514MOL0     C69292   2.180   2.166   7.954 -0.6600  0.2259  0.3456
  514MOL0     C69293   2.056   2.124   8.040  0.8394  0.4823  0.4339
  514MOL0     C69294   2.064   2.177   8.178 -0.2989  0.2959  0.6601
  514MOL0     C69295   2.166   2.085   8.259 -0.0267 -0.3464 -0.7699
  514MOL0     C69296   2.110   1.946   8.301 -0.1633  0.0427 -0.0263
  514MOL0     C69297   2.204   1.864   8.392  0.0636  0.6021 -0.4037
  514MOL0     C69298   2.327   1.789   8.325  0.4230  0.1216 -0.4364
  514MOL0     C69299   2.417   1.722   8.429  0.0715  0.7123  0.6030
  514MOL0    Cl69300   2.378   1.543   8.448 -0.2895 -0.1897 -0.4050
  514MOL0     C69301   2.427   2.316   8.009 -0.3752 -0.7094  0.3397
  514MOL0     C69302   2.550   2.373   7.995  0.0300  0.1340  1.2163
  514MOL0     O69303   2.680   2.733   7.873 -0.2246 -0.1886 -0.1573
  514MOL0     C69304   2.962   2.766   7.813  1.3645  0.0091 -0.0180
  514MOL0     C69305   3.083   2.785   7.748  0.3394 -0.0865  0.2136
  514MOL0     N69306   3.614   3.142   7.493  0.5995  0.8515 -0.2939
  514MOL0     N69307   3.729   3.167   7.545  0.8037  1.1781 -0.1112
  514MOL0     C69308   4.875   3.400   7.230  0.2014  0.1402  0.1897
  514MOL0     C69309   5.003   3.437   7.200  0.1656  0.0357  0.3150
  514MOL0     C69310   5.428   3.459   7.045 -0.5827 -0.1869 -0.1581
  514MOL0     C69311   5.500   3.480   6.925 -0.4037  0.2520  0.1867
  514MOL0     C69312   5.636   3.518   6.922  0.2688 -0.4958 -0.0539
  514MOL0     C69313   5.703   3.549   7.038  0.5754  0.2713  0.5921
  514MOL0     O69314   5.825   3.598   7.048  0.2213 -0.2060  0.6842
  514MOL0     C69315   5.894   3.637   6.928 -0.9954 -0.2628  0.9074
  514MOL0     C69316   5.845   3.777   6.894  0.0741  0.8877 -0.4727
  514MOL0     C69317   5.903   3.841   6.768 -0.1849  0.6258  0.3035
  514MOL0     C69318   5.848   3.974   6.752  0.0570 -0.2534  0.3320
  514MOL0     C69319   5.710   3.960   6.703 -0.4594  0.2162  0.4070
  514MOL0     C69320   5.612   3.956   6.640 -0.0205  0.3848  0.2729
  514MOL0     C69321   5.629   3.528   7.161 -0.5279  0.0429 -0.0671
  514MOL0     C69322   5.495   3.492   7.163 -0.4286  0.5430  0.5330
  514MOL0     H69323   5.160   3.137   7.183 -1.1936 -0.6110  0.5030
  514MOL0     H69324   4.936   3.067   7.187  1.6161 -0.6636 -0.6104
  514MOL0     H69325   4.579   3.229   7.363 -1.1062  0.3178  0.3613
  514MOL0     H69326   4.606   3.368   7.254 -0.7867 -0.6413  2.8788
  514MOL0     H69327   4.546   3.224   7.063  0.7290  0.3887  0.4490
  514MOL0     H69328   4.495   3.094   7.178  1.9454 -0.2098  0.9314
  514MOL0     H69329   4.373   3.379   7.148  2.0371  0.0480  1.7803
  514MOL0     H69330   4.311   3.234   7.060 -1.5449  0.0201  0.8434
  514MOL0     H69331   4.289   3.123   7.285 -0.6678  0.1660 -0.8379
  514MOL0     H69332   4.323   3.276   7.363 -3.5658  1.0595  2.2053
  514MOL0     H69333   4.119   3.366   7.205 -1.5091 -0.9535  0.1889
  514MOL0     H69334   4.097   3.194   7.170 -1.6419  0.6452 -0.0051
  514MOL0     H69335   4.075   3.302   7.448 -3.2112  2.4827  0.0431
  514MOL0     H69336   3.935   3.282   7.353  1.0868  2.1364  1.0568
  514MOL0     H69337   4.016   3.029   7.315  1.6964  0.4626  0.6008
  514MOL0     H69338   4.142   3.074   7.433  0.8610  0.0173 -1.5535
  514MOL0     H69339   3.980   3.131   7.609  3.7050  0.0318 -0.3020
  514MOL0     H69340   3.978   2.958   7.553 -0.7482  1.0479 -0.1123
  514MOL0     H69341   3.797   2.921   7.346  0.2793 -1.6111  1.3526
  514MOL0     H69342   3.432   3.059   7.335  2.4218  2.2698 -0.7245
  514MOL0     H69343   3.538   2.965   7.234  1.0975  2.6248  0.8573
  514MOL0     H69344   3.467   2.851   7.506  0.4548  2.5899 -0.2620
  514MOL0     H69345   3.523   2.764   7.359 -0.8472 -1.2205  0.6487
  514MOL0     H69346   3.325   2.773   7.239  0.0624 -3.5317  0.4314
  514MOL0     H69347   3.258   2.902   7.344  0.8108  1.0075  0.5590
  514MOL0     H69348   3.330   2.621   7.435  1.5141  3.1690 -2.8030
  514MOL0     H69349   3.173   2.664   7.381  0.2873  1.1466 -1.6420
  514MOL0     H69350   3.084   2.537   7.528  1.9026 -1.1269  2.8466
  514MOL0     H69351   2.759   2.458   7.556  0.2184  0.6247 -1.8601
  514MOL0     H69352   2.918   2.411   7.532 -2.0827  2.0803 -2.9395
  514MOL0     H69353   2.829   2.373   7.684 -0.9479 -0.8078 -0.9040
  514MOL0     H69354   2.508   2.615   7.776  0.4704  0.1111  1.5129
  514MOL0     H69355   2.261   2.499   7.776 -1.5796 -2.2504 -0.1064
  514MOL0     H69356   2.168   2.128   7.853 -3.1052  0.6957  0.3839
  514MOL0     H69357   2.268   2.112   7.989 -1.7331 -1.9736 -0.1663
  514MOL0     H69358   1.963   2.167   8.001 -0.2951 -2.7126 -0.7036
  514MOL0     H69359   2.037   2.016   8.036 -3.5904  1.0259  1.2872
  514MOL0     H69360   1.963   2.170   8.219 -0.9157 -0.6416 -0.9510
  514MOL0     H69361   2.094   2.282   8.189  0.1736  0.0134  2.4522
  514MOL0     H69362   2.264   2.085   8.210  0.4481 -0.7569  0.1590
  514MOL0     H69363   2.176   2.141   8.352 -1.4388  1.1671 -1.4758
  514MOL0     H69364   2.081   1.878   8.220 -1.4677  0.3086  0.1814
  514MOL0     H69365   2.016   1.952   8.357 -1.7138 -1.5225 -2.2647
  514MOL0     H69366   2.237   1.921   8.480 -1.5063  0.0934  0.5491
  514MOL0     H69367   2.140   1.788   8.437 -0.2802  0.5075 -1.0487
  514MOL0     H69368   2.392   1.849   8.260  0.7389  0.3484  0.0862
  514MOL0     H69369   2.282   1.706   8.270  3.3213 -2.6222  1.0313
  514MOL0     H69370   2.404   1.767   8.528 -0.5229 -0.7153  1.2063
  514MOL0     H69371   2.524   1.722   8.404 -0.3687 -0.6036 -1.5537
  514MOL0     H69372   2.423   2.236   8.083  2.0773 -3.2682 -2.0334
  514MOL0     H69373   2.628   2.322   8.051  0.3867 -2.3600 -1.3232
  514MOL0     H69374   2.931   2.808   7.908 -2.1223 -1.2619 -0.4450
  514MOL0     H69375   3.144   2.870   7.778  0.1906 -0.4001  1.4648
  514MOL0     H69376   4.797   3.475   7.242 -0.7534 -0.3193 -2.4558
  514MOL0     H69377   5.039   3.540   7.193 -0.9551  0.4971  1.0382
  514MOL0     H69378   5.452   3.437   6.838  0.9725 -1.0852  0.0294
  514MOL0     H69379   5.693   3.514   6.830  1.9844  0.7896  0.8822
  514MOL0     H69380   6.001   3.643   6.948 -0.8547  0.0681  0.0717
  514MOL0     H69381   5.877   3.571   6.842 -0.8272  2.7588 -1.5905
  514MOL0     H69382   5.861   3.843   6.980  1.4534  2.5822 -1.9209
  514MOL0     H69383   5.738   3.770   6.872 -0.0152  1.4543 -0.2532
  514MOL0     H69384   5.885   3.783   6.677  2.3536  0.2560 -0.0283
  514MOL0     H69385   6.011   3.849   6.786  0.3944 -2.1807 -1.3577
  514MOL0     H69386   5.916   4.026   6.684 -0.6667 -2.0631 -1.8877
  514MOL0     H69387   5.830   4.025   6.847 -4.8616 -1.4840  0.3572
  514MOL0     H69388   5.524   3.939   6.582  0.0524  0.9373 -0.0126
  514MOL0     H69389   5.687   3.541   7.251  1.8905  0.6802 -1.6131
  514MOL0     H69390   5.448   3.480   7.261 -1.2180  0.5884  0.1690
  515MOL0     O69391   1.006   4.090   8.638 -0.1222  0.2789 -0.4891
  515MOL0     C69392   1.074   3.999   8.587 -0.0695 -0.5373  0.8940
  515MOL0     O69393   1.026   3.866   8.578 -0.0833  0.1364  0.1202
  515MOL0     C69394   0.910   3.847   8.640  0.0851  0.6105  0.9706
  515MOL0     C69395   0.789   3.852   8.573 -1.1632 -1.1359  0.2439
  515MOL0     C69396   0.673   3.814   8.634 -0.6721  0.1038 -0.3612
  515MOL0     C69397   0.675   3.775   8.770  0.1749  0.1620  1.2905
  515MOL0     O69398   0.569   3.747   8.851 -0.0961 -0.3171 -0.1066
  515MOL0     C69399   0.447   3.703   8.798  1.1244  0.4285  0.9849
  515MOL0     C69400   0.426   3.554   8.753 -1.1380 -0.2654 -0.1255
  515MOL0     C69401   0.285   3.517   8.745  0.9094  0.6210  0.3457
  515MOL0     C69402   0.281   3.374   8.706 -0.5985  0.5781  0.1289
  515MOL0     C69403   0.144   3.339   8.660  0.0343 -0.3118 -0.4683
  515MOL0     C69404   0.132   3.194   8.624  0.1555  0.6534 -0.0519
  515MOL0     C69405  -0.012   3.166   8.571  0.3287 -0.7941 -0.7281
  515MOL0     C69406  -0.021   3.026   8.516  0.7529 -0.3688  0.2390
  515MOL0     N69407  -0.166   2.989   8.479  0.3749  0.2648 -0.3448
  515MOL0     C69408  -0.237   3.052   8.380  0.5332  0.0645  0.6652
  515MOL0     C69409  -0.347   2.971   8.367  0.0756 -0.2867 -0.0307
  515MOL0     C69410  -0.437   2.990   8.251 -0.1658  0.1455  0.5595
  515MOL0     C69411  -0.546   3.091   8.283  0.1476 -0.0807 -0.2626
  515MOL0     C69412  -0.656   3.020   8.365 -0.3282 -0.1337  0.1843
  515MOL0     C69413  -0.725   3.102   8.481 -1.2625  0.3509  0.0831
  515MOL0     O69414  -0.792   3.221   8.430  0.2955  0.4318 -0.0198
  515MOL0     C69415  -0.894   3.193   8.349 -0.1824 -0.5336  0.4357
  515MOL0     C69416  -0.997   3.109   8.377 -0.3290  0.5361  0.6498
  515MOL0     C69417  -1.106   3.079   8.292 -0.7656 -0.0100 -0.2702
  515MOL0     C69418  -1.202   2.982   8.348  0.6138 -0.4523 -0.3157
  515MOL0     C69419  -1.100   3.145   8.163 -0.2788  0.0274 -0.3492
  515MOL0     C69420  -1.223   3.154   8.079 -0.4916 -0.0492  0.7674
  515MOL0     O69421  -1.347   3.120   8.126 -0.2609  0.3058 -0.1121
  515MOL0     C69422  -1.455   3.123   8.048  0.4189 -0.0518  0.1875
  515MOL0     C69423  -1.511   3.234   8.002  0.1051 -0.0127 -0.5163
  515MOL0     C69424  -1.629   3.235   7.933 -0.1269 -0.6163  0.6043
  515MOL0     C69425  -1.695   3.112   7.904  0.2441 -0.3729  1.8720
  515MOL0     O69426  -1.806   3.093   7.825 -1.0290  0.4611 -0.0992
  515MOL0     C69427  -1.845   3.199   7.732 -0.6422  0.8828 -0.4348
  515MOL0     C69428  -1.967   3.169   7.653  0.3860  0.6078 -0.0314
  515MOL0     C69429  -2.030   3.296   7.588 -0.1666 -0.3689  0.5029
  515MOL0     C69430  -2.141   3.366   7.671 -0.4442  0.1814  0.2739
  515MOL0     C69431  -2.217   3.483   7.597 -0.2222  0.3409  0.0604
  515MOL0     C69432  -2.318   3.558   7.684 -0.3395 -0.8263 -0.0644
  515MOL0     C69433  -2.374   3.669   7.592 -0.1894  0.1525 -0.1383
  515MOL0     C69434  -2.466   3.766   7.674 -0.6866 -0.2118 -0.2696
  515MOL0    Cl69435  -2.355   3.855   7.786  0.0848  0.0033  0.1757
  515MOL0     C69436  -1.631   3.000   7.947  0.1387  0.0716 -0.5005
  515MOL0     C69437  -1.514   3.006   8.025  0.0034 -0.1897  0.0860
  515MOL0     O69438  -1.204   3.211   7.970 -0.4192 -0.1847 -0.3862
  515MOL0     C69439  -0.989   3.222   8.128  0.4735  0.0632  0.5890
  515MOL0     C69440  -0.885   3.248   8.218  0.2038  0.5710  0.1557
  515MOL0     N69441  -0.341   2.857   8.445 -0.2529  0.0722 -0.4215
  515MOL0     N69442  -0.233   2.871   8.517 -0.6784 -0.7181 -0.6903
  515MOL0     C69443   0.801   3.768   8.830  0.1011  0.9195 -0.0683
  515MOL0     C69444   0.916   3.791   8.764  0.9225 -0.6318  0.6450
  515MOL0     C69445   1.198   4.039   8.513  0.1526  0.1736  0.4596
  515MOL0     C69446   1.229   3.966   8.397 -0.4272  0.2717 -0.3705
  515MOL0     C69447   1.348   3.995   8.324 -0.1801 -0.3697  0.1683
  515MOL0     C69448   1.437   4.098   8.360 -0.1435  0.2345  0.0073
  515MOL0     O69449   1.551   4.093   8.285 -0.3056  0.6375 -0.1197
  515MOL0     C69450   1.669   4.150   8.344 -0.4624 -0.3036 -0.6757
  515MOL0     C69451   1.773   4.163   8.241 -0.0959 -0.4592 -1.1888
  515MOL0     C69452   1.717   4.241   8.121  0.9337 -0.4195  0.3881
  515MOL0     C69453   1.803   4.223   7.996  0.3614  0.8789 -0.2950
  515MOL0     C69454   1.945   4.234   8.029  1.1079  0.2187  0.2322
  515MOL0     C69455   2.063   4.239   8.055 -0.3627 -0.0379  0.0658
  515MOL0     C69456   1.401   4.171   8.471 -0.1687 -0.3901 -0.9442
  515MOL0     C69457   1.279   4.151   8.546 -0.3972 -0.4936 -0.8942
  515MOL0     H69458   0.791   3.892   8.472 -1.1619 -1.4081  0.1351
  515MOL0     H69459   0.588   3.845   8.573  0.7961  2.4233 -1.3668
  515MOL0     H69460   0.375   3.717   8.879 -0.1451 -0.3858  0.0493
  515MOL0     H69461   0.410   3.769   8.718 -3.9005 -2.8414  0.1560
  515MOL0     H69462   0.475   3.548   8.656 -0.5890 -0.7424  0.1755
  515MOL0     H69463   0.483   3.483   8.814 -0.3013  1.2762  0.9813
  515MOL0     H69464   0.226   3.525   8.837 -1.0594 -0.6218 -0.7391
  515MOL0     H69465   0.229   3.568   8.666  1.2070 -2.9415 -2.3899
  515MOL0     H69466   0.344   3.365   8.617 -0.2141 -2.4273  0.6016
  515MOL0     H69467   0.315   3.304   8.783  0.2092  0.0386 -0.6946
  515MOL0     H69468   0.075   3.368   8.740 -2.6956 -0.8370 -2.4540
  515MOL0     H69469   0.133   3.399   8.569  0.8831  3.0101  1.4577
  515MOL0     H69470   0.206   3.184   8.545 -0.3410  0.1170 -0.4568
  515MOL0     H69471   0.152   3.133   8.712 -1.0129  0.6454  0.2333
  515MOL0     H69472  -0.093   3.185   8.642 -2.2303 -0.8877 -3.4318
  515MOL0     H69473  -0.029   3.222   8.478  0.1334  0.3713 -0.0155
  515MOL0     H69474   0.020   2.957   8.591  0.7234  2.0587  2.6349
  515MOL0     H69475   0.044   3.023   8.428  3.7388 -1.3929  2.3255
  515MOL0     H69476  -0.207   3.146   8.335 -1.3814  2.3143  3.6650
  515MOL0     H69477  -0.383   3.037   8.168  0.5140 -1.9184 -0.2316
  515MOL0     H69478  -0.478   2.892   8.223  0.6608 -0.2069  0.5731
  515MOL0     H69479  -0.606   3.113   8.194 -2.2801 -1.1621  1.0218
  515MOL0     H69480  -0.510   3.185   8.326 -1.4618  1.4465 -2.0840
  515MOL0     H69481  -0.617   2.928   8.409 -0.5506 -0.7264 -0.8161
  515MOL0     H69482  -0.734   2.984   8.298  0.0094  0.0903 -0.3382
  515MOL0     H69483  -0.640   3.128   8.545  0.5095 -0.3376 -1.8551
  515MOL0     H69484  -0.804   3.046   8.531 -1.5181 -0.3439 -1.0599
  515MOL0     H69485  -1.007   3.065   8.476 -2.2399 -0.6452 -0.0042
  515MOL0     H69486  -1.164   2.904   8.414 -5.1886  0.1087  4.5822
  515MOL0     H69487  -1.270   3.038   8.412  1.8326  1.3279 -0.5044
  515MOL0     H69488  -1.251   2.924   8.269  3.0058 -3.2089  0.0323
  515MOL0     H69489  -1.451   3.323   8.018 -0.8776  0.4240  0.8561
  515MOL0     H69490  -1.662   3.332   7.896 -0.1573 -0.5812  0.7220
  515MOL0     H69491  -1.867   3.294   7.783 -1.1361  0.8559 -0.5935
  515MOL0     H69492  -1.765   3.235   7.666 -0.4097 -0.1567 -0.7249
  515MOL0     H69493  -1.940   3.095   7.578  0.2442 -0.1766  0.6763
  515MOL0     H69494  -2.045   3.120   7.713  0.8109 -1.8541 -1.3853
  515MOL0     H69495  -2.071   3.262   7.493  0.5144 -0.4721  0.2438
  515MOL0     H69496  -1.956   3.373   7.567  0.3588 -1.4081 -1.7763
  515MOL0     H69497  -2.220   3.297   7.703 -2.6822  2.2915 -0.3799
  515MOL0     H69498  -2.108   3.403   7.769  1.6478 -2.4338  0.6502
  515MOL0     H69499  -2.262   3.440   7.507  1.9468 -0.0496 -0.9135
  515MOL0     H69500  -2.150   3.556   7.551  0.0581 -0.8063 -1.4800
  515MOL0     H69501  -2.399   3.496   7.721 -2.7296  2.6153  0.9656
  515MOL0     H69502  -2.265   3.603   7.768 -0.0756  0.3800 -0.8482
  515MOL0     H69503  -2.437   3.621   7.516 -1.6654  0.0576  1.0832
  515MOL0     H69504  -2.301   3.727   7.534 -0.7870  0.9050 -0.1565
  515MOL0     H69505  -2.543   3.707   7.725 -3.2639  0.5751 -2.9782
  515MOL0     H69506  -2.509   3.834   7.600 -1.6923 -0.5065  0.0336
  515MOL0     H69507  -1.681   2.906   7.928  1.7703 -0.7267 -1.0227
  515MOL0     H69508  -1.479   2.912   8.068 -2.8405 -1.9377 -1.1300
  515MOL0     H69509  -0.982   3.264   8.029  1.6880 -1.4126  0.0099
  515MOL0     H69510  -0.792   3.301   8.199  1.0502 -1.6643 -2.8006
  515MOL0     H69511   0.807   3.727   8.931  2.4350 -0.0266 -0.5302
  515MOL0     H69512   1.008   3.788   8.820  1.0999  1.7648  0.6176
  515MOL0     H69513   1.173   3.880   8.361 -2.8908  1.8161 -0.5309
  515MOL0     H69514   1.360   3.943   8.230  0.4650 -0.9380  0.5583
  515MOL0     H69515   1.648   4.254   8.370  0.1771 -0.4731  0.6099
  515MOL0     H69516   1.699   4.084   8.425  0.7747 -1.3750 -1.9575
  515MOL0     H69517   1.799   4.063   8.203 -0.9649 -1.8408  1.5074
  515MOL0     H69518   1.866   4.199   8.286 -1.3175  0.0101  1.1347
  515MOL0     H69519   1.717   4.340   8.167  0.6921 -0.1675 -0.1471
  515MOL0     H69520   1.614   4.224   8.090  0.2950  2.0735  0.9526
  515MOL0     H69521   1.779   4.298   7.921 -2.0911 -1.2171 -1.7605
  515MOL0     H69522   1.782   4.131   7.941 -0.3444  0.8774 -0.0387
  515MOL0     H69523   2.166   4.239   8.086 -0.1775  1.9301 -0.4097
  515MOL0     H69524   1.471   4.251   8.495  0.4215 -1.8016  2.5838
  515MOL0     H69525   1.273   4.209   8.637  0.4801 -0.8769 -0.5878
  516MOL0     O69526   7.740   5.658   3.615 -0.1316 -0.5104 -0.3530
  516MOL0     C69527   7.785   5.691   3.726  1.0186 -0.0023  0.1024
  516MOL0     O69528   7.697   5.704   3.830  0.4059 -0.3898 -0.4827
  516MOL0     C69529   7.566   5.744   3.806 -0.7881 -0.3063 -0.3653
  516MOL0     C69530   7.539   5.871   3.754  0.2852 -0.1166 -0.1412
  516MOL0     C69531   7.404   5.911   3.743 -0.3794  0.4822 -0.4448
  516MOL0     C69532   7.302   5.819   3.781 -0.3447  0.1220  0.2045
  516MOL0     O69533   7.172   5.844   3.794  0.1457 -0.7421  0.3441
  516MOL0     C69534   7.129   5.949   3.711 -1.1561  0.0456  0.3104
  516MOL0     C69535   6.980   5.934   3.684 -0.3339 -0.5625  0.1602
  516MOL0     C69536   6.893   5.956   3.808 -0.6913 -0.3577  0.0011
  516MOL0     C69537   6.754   5.996   3.769  0.7375 -0.8243  0.2408
  516MOL0     C69538   6.653   5.973   3.884 -0.1983 -0.0752 -0.4935
  516MOL0     C69539   6.511   5.988   3.829 -0.3288  0.3869 -0.4590
  516MOL0     C69540   6.396   6.000   3.940 -0.3446 -0.7400 -0.6988
  516MOL0     C69541   6.365   5.874   4.019 -0.0397  0.8151  0.0261
  516MOL0     N69542   6.223   5.869   4.054  0.3635 -0.2362  0.3905
  516MOL0     C69543   6.155   5.968   4.126 -0.4217  0.3269 -0.1170
  516MOL0     C69544   6.031   5.919   4.145 -0.2140 -0.7708 -1.2469
  516MOL0     C69545   5.929   5.998   4.223  0.2833  0.7603 -0.2699
  516MOL0     C69546   5.790   5.980   4.171  0.2340 -0.3929 -0.0182
  516MOL0     C69547   5.693   6.050   4.263  0.4828 -0.4906 -0.7529
  516MOL0     C69548   5.553   6.031   4.212 -0.1686  1.1999 -0.3358
  516MOL0     O69549   5.456   6.120   4.283  0.0158  0.6403  0.0549
  516MOL0     C69550   5.322   6.115   4.250 -0.4367 -0.4929  0.1148
  516MOL0     C69551   5.237   6.180   4.339  0.5069  0.2683 -1.0189
  516MOL0     C69552   5.093   6.179   4.316  0.4206  0.6903  0.0117
  516MOL0     C69553   5.004   6.240   4.423  0.0147 -1.0051 -0.0102
  516MOL0     C69554   5.044   6.099   4.208 -0.6014  0.8288  0.1575
  516MOL0     C69555   4.897   6.081   4.166  0.8451 -0.5101  0.1065
  516MOL0     O69556   4.873   6.014   4.048 -0.5857  0.4746  0.3128
  516MOL0     C69557   4.742   6.016   4.000  0.2987 -0.4065  0.0784
  516MOL0     C69558   4.663   5.906   4.007  1.1177 -0.3527 -0.3997
  516MOL0     C69559   4.532   5.914   3.948  0.1535  0.2364 -0.3477
  516MOL0     C69560   4.481   6.030   3.893 -0.7780 -0.2858  0.3758
  516MOL0     O69561   4.360   6.028   3.832 -0.1574 -0.7176 -0.2073
  516MOL0     C69562   4.277   6.149   3.844  0.4937  0.4110  0.1673
  516MOL0     C69563   4.129   6.121   3.810  0.4924 -0.4290  0.1079
  516MOL0     C69564   4.045   6.245   3.831 -0.2345 -0.0121 -0.7897
  516MOL0     C69565   3.892   6.212   3.821 -0.1218  0.6667 -0.3631
  516MOL0     C69566   3.833   6.189   3.682  0.4535  0.0259 -0.1519
  516MOL0     C69567   3.681   6.186   3.693  0.7822 -0.1970 -0.6181
  516MOL0     C69568   3.614   6.173   3.560 -0.0300 -0.4818  0.6543
  516MOL0     C69569   3.463   6.198   3.567  0.1608  0.2650 -1.0053
  516MOL0    Cl69570   3.404   6.150   3.405 -0.6535 -0.3047  0.0354
  516MOL0     C69571   4.561   6.146   3.897  1.0327  0.0117 -0.2178
  516MOL0     C69572   4.690   6.135   3.950  0.1910 -0.0032  0.3363
  516MOL0     O69573   4.805   6.117   4.246 -0.1562  0.3479 -0.4976
  516MOL0     C69574   5.136   6.039   4.117  0.1978  0.2683  0.6683
  516MOL0     C69575   5.273   6.042   4.143 -1.2473  0.1609 -0.0716
  516MOL0     N69576   6.019   5.802   4.070 -0.5672  0.6148 -0.5913
  516MOL0     N69577   6.133   5.778   4.022  0.3286 -0.7682 -0.1319
  516MOL0     C69578   7.338   5.688   3.816  0.8420 -0.4360 -0.2745
  516MOL0     C69579   7.467   5.645   3.829 -0.2464 -0.3308 -0.0498
  516MOL0     C69580   7.930   5.695   3.746 -0.3150 -0.2565  0.6593
  516MOL0     C69581   8.011   5.672   3.628  0.0734 -0.7527 -0.1938
  516MOL0     C69582   8.153   5.683   3.647 -0.1534  0.4688 -1.4252
  516MOL0     C69583   8.217   5.720   3.766 -1.2960  0.3059  0.1110
  516MOL0     O69584   8.355   5.741   3.761  0.2265  0.2908  0.0033
  516MOL0     C69585   8.426   5.777   3.878 -0.1981  0.9080 -0.4707
  516MOL0     C69586   8.572   5.742   3.853 -0.2841  0.1342 -0.0736
  516MOL0     C69587   8.635   5.807   3.739 -0.3322  0.1371 -0.3755
  516MOL0     C69588   8.786   5.791   3.738 -0.0477 -0.4863  0.1529
  516MOL0     C69589   8.832   5.658   3.694  1.0667  0.4734  0.1519
  516MOL0     C69590   8.868   5.550   3.647  0.6989  0.3156  0.6195
  516MOL0     C69591   8.136   5.747   3.879  0.7726 -0.5059 -0.0380
  516MOL0     C69592   7.994   5.732   3.869 -0.2341 -0.3839  0.6609
  516MOL0     H69593   7.620   5.932   3.717  0.3630 -1.7723 -2.9449
  516MOL0     H69594   7.383   6.013   3.711 -0.5074  0.1273 -1.5056
  516MOL0     H69595   7.158   6.042   3.761  2.4190 -1.5672  1.5886
  516MOL0     H69596   7.188   5.950   3.619 -1.0828 -1.4828  0.3176
  516MOL0     H69597   6.944   6.013   3.616 -1.0057 -0.8630  0.1578
  516MOL0     H69598   6.953   5.837   3.641  0.8556 -1.1496  0.6873
  516MOL0     H69599   6.895   5.855   3.851  1.5072 -0.0453  0.7293
  516MOL0     H69600   6.935   6.025   3.881 -1.0781  0.6645 -0.7160
  516MOL0     H69601   6.740   6.099   3.734 -0.3984 -0.5752  1.3424
  516MOL0     H69602   6.724   5.936   3.683 -0.7314  0.7651 -0.4225
  516MOL0     H69603   6.661   5.882   3.943  3.6328 -0.7056 -1.6735
  516MOL0     H69604   6.678   6.049   3.959  2.2340 -1.7378  0.5236
  516MOL0     H69605   6.505   6.082   3.773  4.1284  2.0099  1.3959
  516MOL0     H69606   6.484   5.896   3.777  1.3533  0.5849 -1.7538
  516MOL0     H69607   6.420   6.081   4.009 -4.2193  0.5792 -0.6707
  516MOL0     H69608   6.313   6.038   3.881 -2.6927 -1.2527  2.0512
  516MOL0     H69609   6.423   5.862   4.112  1.0768  0.5933 -0.6722
  516MOL0     H69610   6.396   5.791   3.955  1.4236  1.3290  0.0280
  516MOL0     H69611   6.207   6.054   4.168 -1.1158  0.5479  0.2925
  516MOL0     H69612   5.921   5.967   4.327 -0.5642 -3.3109 -1.3601
  516MOL0     H69613   5.943   6.106   4.224 -3.5016  1.3679  0.7560
  516MOL0     H69614   5.761   5.875   4.160 -0.0430 -0.4412  1.1163
  516MOL0     H69615   5.788   6.026   4.072  2.3586 -0.9112 -0.3548
  516MOL0     H69616   5.714   6.157   4.275 -1.9864  0.0161 -0.4024
  516MOL0     H69617   5.701   6.007   4.363  2.2926 -0.0683 -0.6932
  516MOL0     H69618   5.521   5.928   4.230 -2.2852  1.9115  0.2646
  516MOL0     H69619   5.563   6.055   4.106  2.8007  2.6600  0.1802
  516MOL0     H69620   5.280   6.229   4.426 -2.4987  2.3960 -0.5949
  516MOL0     H69621   4.926   6.298   4.373  2.3270  3.1107  0.6506
  516MOL0     H69622   4.964   6.169   4.495 -2.9501  1.4646  0.9956
  516MOL0     H69623   5.052   6.323   4.475  0.5751  0.2289 -2.3483
  516MOL0     H69624   4.708   5.823   4.060  1.5001 -0.9782 -1.6647
  516MOL0     H69625   4.478   5.820   3.958 -1.7202  1.2783 -0.1015
  516MOL0     H69626   4.285   6.192   3.945 -1.7619  0.7297  0.2667
  516MOL0     H69627   4.322   6.219   3.773  2.1241  1.9239  2.5356
  516MOL0     H69628   4.105   6.079   3.712 -0.6768 -0.9414  0.6016
  516MOL0     H69629   4.093   6.046   3.881  0.5939  0.0576  0.6865
  516MOL0     H69630   4.086   6.324   3.766  2.9417 -1.0671 -0.2385
  516MOL0     H69631   4.060   6.280   3.933  1.4501 -0.3856 -0.8845
  516MOL0     H69632   3.879   6.130   3.893  1.1539 -1.7296 -2.6911
  516MOL0     H69633   3.841   6.295   3.871 -0.4490  0.7696 -0.8608
  516MOL0     H69634   3.859   6.093   3.636  1.4554 -0.1966  0.8147
  516MOL0     H69635   3.850   6.280   3.623  0.0517  1.7687  2.2968
  516MOL0     H69636   3.662   6.100   3.759  1.3643  1.1602  1.4214
  516MOL0     H69637   3.634   6.270   3.744  1.5340  0.5892 -1.1954
  516MOL0     H69638   3.645   6.075   3.521  0.9439  0.1736 -0.2377
  516MOL0     H69639   3.656   6.251   3.497 -1.2192 -0.3912 -0.0566
  516MOL0     H69640   3.440   6.297   3.607 -0.8110 -0.6558  0.7939
  516MOL0     H69641   3.429   6.118   3.633 -0.1604 -1.5814 -3.2771
  516MOL0     H69642   4.518   6.240   3.863  1.1684  0.0290 -0.3414
  516MOL0     H69643   4.753   6.223   3.955 -1.2247  0.9752  2.5788
  516MOL0     H69644   5.100   5.964   4.047 -1.0022  1.2641  0.1718
  516MOL0     H69645   5.342   6.008   4.066 -1.4561 -0.6742  0.1068
  516MOL0     H69646   7.258   5.619   3.839  0.7823  0.0659  1.1075
  516MOL0     H69647   7.491   5.542   3.853 -4.5769 -1.4786  0.2700
  516MOL0     H69648   7.961   5.634   3.539 -2.2909 -1.2631  1.2552
  516MOL0     H69649   8.218   5.650   3.566 -1.1059 -2.6426 -1.0860
  516MOL0     H69650   8.409   5.881   3.908  4.1264  1.9011 -0.8105
  516MOL0     H69651   8.389   5.708   3.954  1.5282 -0.6805 -0.9958
  516MOL0     H69652   8.577   5.636   3.827  3.2633  1.0496 -4.4266
  516MOL0     H69653   8.629   5.759   3.944  0.2647 -1.3798 -0.0964
  516MOL0     H69654   8.618   5.915   3.744  5.0512  1.2675 -0.5784
  516MOL0     H69655   8.589   5.771   3.647 -2.4341  0.8518  0.3382
  516MOL0     H69656   8.830   5.811   3.837  0.3062 -0.5432  0.0077
  516MOL0     H69657   8.844   5.860   3.676  2.8388 -2.1515  0.8112
  516MOL0     H69658   8.901   5.453   3.616 -1.4047 -0.0689 -0.6314
  516MOL0     H69659   8.178   5.791   3.969 -0.4695  0.3286  0.1643
  516MOL0     H69660   7.929   5.750   3.954  1.9310  1.6822  2.0047
  517MOL0     O69661   7.214   8.368   8.901 -0.5330  0.4755  0.0633
  517MOL0     C69662   7.277   8.312   8.817 -0.2060 -0.5654  0.5519
  517MOL0     O69663   7.233   8.209   8.738 -0.4139 -0.3674  0.4577
  517MOL0     C69664   7.113   8.156   8.767  1.0558  0.5110  0.1727
  517MOL0     C69665   6.995   8.222   8.727  0.0777  1.8207  0.1984
  517MOL0     C69666   6.876   8.146   8.743  1.0749 -0.4242  0.2436
  517MOL0     C69667   6.873   8.035   8.816  0.3771  0.3007  0.2358
  517MOL0     O69668   6.755   7.968   8.827  0.5701 -0.2057  0.4043
  517MOL0     C69669   6.757   7.823   8.851  0.6507 -0.0067  0.3531
  517MOL0     C69670   6.609   7.771   8.839  0.3063  0.4263  0.0945
  517MOL0     C69671   6.546   7.787   8.695 -0.2587 -0.3306  0.3522
  517MOL0     C69672   6.417   7.704   8.687 -0.1539 -0.2927 -0.5117
  517MOL0     C69673   6.386   7.684   8.532 -0.0103 -0.0901 -0.0447
  517MOL0     C69674   6.300   7.553   8.491  0.3842 -0.3414 -0.6469
  517MOL0     C69675   6.155   7.546   8.542 -0.3337 -0.7635 -0.4885
  517MOL0     C69676   6.079   7.674   8.503 -0.1877 -0.2156  0.1845
  517MOL0     N69677   5.936   7.647   8.483  0.4973  0.7317 -0.4874
  517MOL0     C69678   5.875   7.576   8.385 -0.4395  0.4551 -0.7025
  517MOL0     C69679   5.741   7.583   8.416 -0.3243  0.1474  0.3356
  517MOL0     C69680   5.630   7.532   8.332 -0.0392 -0.5256 -0.1931
  517MOL0     C69681   5.496   7.493   8.411 -0.4983 -0.0211  1.4301
  517MOL0     C69682   5.406   7.613   8.452 -0.2588 -1.5967  0.3836
  517MOL0     C69683   5.281   7.542   8.520 -0.1395 -0.0228  0.0500
  517MOL0     O69684   5.190   7.636   8.560  0.7169 -0.1670 -0.4208
  517MOL0     C69685   5.054   7.596   8.553  0.5272 -0.0332 -0.0973
  517MOL0     C69686   5.015   7.463   8.578  0.0571 -0.6461 -0.9205
  517MOL0     C69687   4.884   7.415   8.547 -0.6664 -0.1868 -0.9022
  517MOL0     C69688   4.852   7.264   8.570  0.2086  0.3239 -0.2335
  517MOL0     C69689   4.783   7.503   8.510  0.5190 -0.4339  0.2714
  517MOL0     C69690   4.640   7.472   8.482  0.1787 -0.2769 -0.6707
  517MOL0     O69691   4.595   7.347   8.509 -0.9404  0.0019  0.8720
  517MOL0     C69692   4.488   7.302   8.440  1.0467 -0.2255 -0.4749
  517MOL0     C69693   4.506   7.266   8.303  0.1812 -0.7070 -0.1949
  517MOL0     C69694   4.403   7.192   8.240  0.8168 -0.4394  0.9126
  517MOL0     C69695   4.279   7.158   8.304  0.0093  0.0250  0.1023
  517MOL0     O69696   4.179   7.072   8.262  0.2869 -0.0969 -0.6631
  517MOL0     C69697   4.180   7.019   8.128 -0.5784  0.2953  0.6609
  517MOL0     C69698   4.077   6.908   8.127 -0.3131 -0.5521 -0.5080
  517MOL0     C69699   3.945   6.975   8.103 -0.2059  0.2155 -0.0170
  517MOL0     C69700   3.825   6.885   8.127 -1.5659  0.3789  0.6182
  517MOL0     C69701   3.697   6.955   8.076  0.2408  0.6125  0.4425
  517MOL0     C69702   3.581   6.853   8.073 -0.3186 -0.4823  0.4526
  517MOL0     C69703   3.444   6.924   8.073  0.6829 -0.7688  0.7426
  517MOL0     C69704   3.409   6.988   8.211 -0.6866 -0.9128  0.2454
  517MOL0    Cl69705   3.347   6.865   8.312  0.5122  0.0099 -0.1051
  517MOL0     C69706   4.280   7.191   8.438  0.1139 -0.3295  0.2937
  517MOL0     C69707   4.370   7.269   8.507 -0.7205  0.6614  0.7619
  517MOL0     O69708   4.575   7.560   8.434  0.9346 -0.2705  0.4980
  517MOL0     C69709   4.829   7.632   8.489  0.4928  0.4440 -0.1364
  517MOL0     C69710   4.950   7.688   8.533 -0.9354 -0.1107  0.0747
  517MOL0     N69711   5.724   7.666   8.524 -0.8105  0.4634 -1.0009
  517MOL0     N69712   5.840   7.697   8.566  0.4708 -0.4626  0.4542
  517MOL0     C69713   6.987   7.983   8.879  0.1106 -0.8693  0.7611
  517MOL0     C69714   7.105   8.049   8.857  0.3901 -0.1605 -0.6562
  517MOL0     C69715   7.412   8.370   8.778 -0.4808  0.9756  0.1309
  517MOL0     C69716   7.493   8.444   8.866 -0.0494  0.4354 -0.5680
  517MOL0     C69717   7.621   8.484   8.826  0.4131 -0.5440  0.4864
  517MOL0     C69718   7.681   8.441   8.704  0.5263  0.6284 -0.3603
  517MOL0     O69719   7.813   8.461   8.662  0.0630  0.4418  0.2127
  517MOL0     C69720   7.907   8.503   8.768 -0.3864  0.5820  0.0400
  517MOL0     C69721   7.951   8.384   8.853  1.8404  0.4873  0.6818
  517MOL0     C69722   8.077   8.409   8.935  0.0983  0.0899 -0.8787
  517MOL0     C69723   8.059   8.505   9.057  0.0957 -0.9474  0.5147
  517MOL0     C69724   7.947   8.461   9.142  0.6240 -0.0646 -0.4706
  517MOL0     C69725   7.861   8.415   9.217  0.5695 -0.2428 -0.1980
  517MOL0     C69726   7.595   8.364   8.619 -0.9721 -0.6961 -0.7278
  517MOL0     C69727   7.459   8.339   8.648 -0.5159  0.0922 -1.4268
  517MOL0     H69728   7.012   8.313   8.671  2.9662 -0.5090 -3.1052
  517MOL0     H69729   6.788   8.195   8.703  1.0813 -0.0177  0.7161
  517MOL0     H69730   6.822   7.790   8.769  1.8742 -1.5025  1.8552
  517MOL0     H69731   6.801   7.799   8.948  1.1224 -0.4238  0.0405
  517MOL0     H69732   6.611   7.666   8.868  0.3003  0.0308 -1.2595
  517MOL0     H69733   6.551   7.825   8.915  1.7212  0.2396  1.3521
  517MOL0     H69734   6.536   7.890   8.661  2.1597  0.8817  2.8531
  517MOL0     H69735   6.616   7.742   8.624 -1.1217  0.1533 -0.8191
  517MOL0     H69736   6.429   7.604   8.731 -0.8186 -1.1455 -2.1770
  517MOL0     H69737   6.339   7.755   8.744 -0.0072 -0.5963 -0.0263
  517MOL0     H69738   6.345   7.776   8.490 -1.0706 -0.0958  0.9426
  517MOL0     H69739   6.481   7.658   8.485 -1.4529 -0.3396 -3.0427
  517MOL0     H69740   6.298   7.535   8.383 -1.5349 -2.0500 -0.3854
  517MOL0     H69741   6.346   7.466   8.537  2.1694  0.4407 -0.8674
  517MOL0     H69742   6.106   7.459   8.496 -0.7397 -0.0715 -1.3971
  517MOL0     H69743   6.155   7.533   8.651 -1.3293  2.4442 -0.0064
  517MOL0     H69744   6.121   7.711   8.409 -1.6209  0.1435 -0.3483
  517MOL0     H69745   6.090   7.747   8.583  0.0603  2.4311 -2.1218
  517MOL0     H69746   5.916   7.524   8.299 -2.9069  0.1484 -1.7707
  517MOL0     H69747   5.599   7.600   8.252 -1.9474 -1.1259 -0.0195
  517MOL0     H69748   5.669   7.444   8.278 -0.9063 -2.6321  2.3959
  517MOL0     H69749   5.512   7.428   8.497 -0.5990  0.2588  1.6657
  517MOL0     H69750   5.428   7.439   8.344 -1.2162  0.8102  1.4549
  517MOL0     H69751   5.376   7.670   8.364 -0.7915 -1.3801  0.7041
  517MOL0     H69752   5.457   7.678   8.523  0.6769 -0.4009 -1.3129
  517MOL0     H69753   5.324   7.481   8.600  1.2794  2.3011  1.1484
  517MOL0     H69754   5.238   7.486   8.436 -1.5157 -1.3834  1.5910
  517MOL0     H69755   5.091   7.391   8.605 -0.5010 -0.6289  0.7737
  517MOL0     H69756   4.947   7.210   8.570  0.7551  1.2699 -0.2435
  517MOL0     H69757   4.790   7.248   8.659  0.3635  2.2467  0.2649
  517MOL0     H69758   4.788   7.227   8.489 -1.5706  1.7849  0.4389
  517MOL0     H69759   4.596   7.292   8.248  1.6021 -0.0335  2.2707
  517MOL0     H69760   4.408   7.170   8.134 -1.6856  2.8746 -0.0803
  517MOL0     H69761   4.170   7.106   8.062  1.7409  1.3626  1.6081
  517MOL0     H69762   4.275   6.971   8.103 -1.9599 -1.0046 -2.6608
  517MOL0     H69763   4.093   6.835   8.047  0.0145 -0.5321 -0.4586
  517MOL0     H69764   4.079   6.859   8.225  2.1664 -0.3802 -0.4221
  517MOL0     H69765   3.942   7.008   7.999  1.9741 -0.1749 -0.2626
  517MOL0     H69766   3.936   7.065   8.164  2.4715  0.3998  0.2134
  517MOL0     H69767   3.847   6.790   8.076 -1.9086 -0.2716  1.6498
  517MOL0     H69768   3.821   6.862   8.234  3.1997  0.7396  1.1115
  517MOL0     H69769   3.720   6.991   7.975 -1.6207  0.2086 -0.1656
  517MOL0     H69770   3.675   7.045   8.133  0.4418 -0.4719  2.3079
  517MOL0     H69771   3.609   6.790   7.989  4.7862 -0.3755  1.7486
  517MOL0     H69772   3.584   6.792   8.163 -2.2894 -1.2527  0.0533
  517MOL0     H69773   3.374   6.849   8.035 -0.3540 -0.0260  1.1631
  517MOL0     H69774   3.441   7.002   7.997 -0.6236 -1.3493  0.1622
  517MOL0     H69775   3.330   7.063   8.207 -1.2030 -1.3828  1.1078
  517MOL0     H69776   3.494   7.036   8.259 -0.2678 -0.0922 -1.2585
  517MOL0     H69777   4.188   7.164   8.490 -0.3690 -0.3108 -0.5370
  517MOL0     H69778   4.356   7.293   8.612 -2.4149 -0.0942  0.7405
  517MOL0     H69779   4.767   7.710   8.447 -0.6699 -0.8944 -0.9956
  517MOL0     H69780   4.953   7.796   8.517 -1.1704 -0.3385 -1.6910
  517MOL0     H69781   6.991   7.899   8.948  3.5243 -0.3048  1.4090
  517MOL0     H69782   7.204   8.015   8.886  0.8474  2.1821  0.8047
  517MOL0     H69783   7.458   8.474   8.964 -1.1542  0.6841 -1.0168
  517MOL0     H69784   7.678   8.534   8.903 -1.2884 -0.4109  1.7123
  517MOL0     H69785   7.996   8.549   8.725  1.2313 -0.8080  1.7326
  517MOL0     H69786   7.859   8.578   8.832  1.7881 -1.9824  5.3038
  517MOL0     H69787   7.975   8.297   8.792 -3.6157 -1.3817  0.6355
  517MOL0     H69788   7.856   8.354   8.899  1.3514 -1.4240 -1.4183
  517MOL0     H69789   8.160   8.447   8.875  2.7843 -4.0959 -0.2511
  517MOL0     H69790   8.117   8.312   8.968 -1.1875  0.4721  2.0891
  517MOL0     H69791   8.038   8.599   9.006  1.6063 -0.0592  1.4325
  517MOL0     H69792   8.154   8.515   9.112 -0.5490  2.1142  1.2877
  517MOL0     H69793   7.786   8.365   9.277 -0.1739 -0.5904 -1.3804
  517MOL0     H69794   7.640   8.327   8.528 -1.4069 -4.3797  0.3660
  517MOL0     H69795   7.400   8.290   8.570 -1.1022  1.1515 -1.6615
  518MOL0     O69796  10.171   7.313   6.636  0.5027 -0.6092  0.3918
  518MOL0     C69797  10.233   7.271   6.732 -0.8155 -0.2326 -0.0582
  518MOL0     O69798  10.193   7.170   6.820 -0.0198 -0.2303 -0.5098
  518MOL0     C69799  10.062   7.120   6.823  0.4377  0.1230  0.3710
  518MOL0     C69800   9.983   7.098   6.712  0.8261  0.3504 -0.1796
  518MOL0     C69801   9.866   7.010   6.735 -0.5147  0.6223  0.5205
  518MOL0     C69802   9.818   6.981   6.859  0.7153  0.3236 -0.3033
  518MOL0     O69803   9.713   6.887   6.885  0.6917 -1.4809  0.1192
  518MOL0     C69804   9.607   6.869   6.788  0.4528 -0.4285 -0.0530
  518MOL0     C69805   9.500   6.773   6.839  0.0271  0.4758 -0.5039
  518MOL0     C69806   9.452   6.813   6.975 -0.6146 -0.6910 -0.2395
  518MOL0     C69807   9.331   6.912   6.970  0.8039  0.1057  0.2251
  518MOL0     C69808   9.285   6.960   7.106 -0.1298 -0.8264 -0.4172
  518MOL0     C69809   9.377   7.066   7.164  0.5598  0.5791  0.0425
  518MOL0     C69810   9.332   7.103   7.303 -0.7311 -0.6912 -0.3295
  518MOL0     C69811   9.207   7.190   7.292  0.3870 -0.6166 -0.1612
  518MOL0     N69812   9.176   7.265   7.418  0.3658  0.7151  0.0993
  518MOL0     C69813   9.120   7.218   7.534  0.6803  0.0029  0.7454
  518MOL0     C69814   9.125   7.316   7.626 -0.7444 -0.4367 -0.6228
  518MOL0     C69815   9.067   7.310   7.768 -0.0591  0.4661  0.6785
  518MOL0     C69816   8.943   7.397   7.790  1.2068 -0.5781  0.3133
  518MOL0     C69817   8.816   7.364   7.706 -0.3430 -0.2948 -0.3981
  518MOL0     C69818   8.691   7.405   7.787  0.5610 -0.0409  1.0314
  518MOL0     O69819   8.673   7.319   7.900  0.3902 -0.0275  0.5020
  518MOL0     C69820   8.545   7.286   7.951 -0.2773  0.4800 -0.1020
  518MOL0     C69821   8.546   7.193   8.061  0.4593  0.0236  0.4748
  518MOL0     C69822   8.429   7.136   8.120 -0.4501  0.0193 -0.1622
  518MOL0     C69823   8.462   7.060   8.245  0.5960 -0.3747 -0.4485
  518MOL0     C69824   8.301   7.188   8.073  0.4757  0.5068 -0.4115
  518MOL0     C69825   8.167   7.156   8.124  0.0240  0.4723 -0.4850
  518MOL0     O69826   8.160   7.087   8.238 -0.5271 -0.0679 -0.4722
  518MOL0     C69827   8.036   7.076   8.291 -0.7460  0.2932 -0.8198
  518MOL0     C69828   7.929   7.004   8.230  0.1940 -0.0906  0.1006
  518MOL0     C69829   7.805   6.991   8.299  0.0045 -0.2259 -0.0679
  518MOL0     C69830   7.783   7.054   8.426 -0.2978 -0.0736 -0.5013
  518MOL0     O69831   7.658   7.072   8.477  0.4001  0.0210  0.6253
  518MOL0     C69832   7.546   7.078   8.386  0.6202 -0.4921  0.4993
  518MOL0     C69833   7.418   7.144   8.435 -0.3485 -0.2434  0.0984
  518MOL0     C69834   7.315   7.183   8.324  0.0905  0.7751 -0.7047
  518MOL0     C69835   7.182   7.242   8.372  0.2492 -0.9805  0.4954
  518MOL0     C69836   7.080   7.227   8.257  0.2521  0.8958 -0.7202
  518MOL0     C69837   6.953   7.308   8.291 -0.3722 -0.5726  0.0414
  518MOL0     C69838   6.864   7.252   8.394 -0.0215 -0.1586  0.1628
  518MOL0     C69839   6.728   7.325   8.410  0.0626 -0.1514 -0.1231
  518MOL0    Cl69840   6.629   7.303   8.268 -0.2128  0.1461  0.6720
  518MOL0     C69841   7.896   7.116   8.487  0.2596 -0.3523  0.0324
  518MOL0     C69842   8.013   7.131   8.417 -0.1549  0.2757  0.3512
  518MOL0     O69843   8.071   7.222   8.077 -0.4408 -0.0713 -0.0372
  518MOL0     C69844   8.302   7.272   7.957 -0.3785 -0.9442 -0.1117
  518MOL0     C69845   8.423   7.320   7.891 -0.4002  0.6295 -1.1263
  518MOL0     N69846   9.190   7.420   7.568  0.2433  0.3478 -0.0338
  518MOL0     N69847   9.209   7.390   7.447 -0.6283  0.2184 -0.4116
  518MOL0     C69848   9.901   7.016   6.966  0.5738 -0.0987 -0.9404
  518MOL0     C69849  10.021   7.086   6.952  0.2211 -0.2004 -0.5708
  518MOL0     C69850  10.362   7.340   6.765 -0.0261  0.2738 -0.0455
  518MOL0     C69851  10.450   7.261   6.831  0.1121  0.5796 -0.0219
  518MOL0     C69852  10.583   7.293   6.838 -0.1260 -0.3077  0.1340
  518MOL0     C69853  10.631   7.420   6.799  0.0815  0.0835  0.0517
  518MOL0     O69854  10.760   7.450   6.805 -0.0970 -0.2760 -0.3891
  518MOL0     C69855  10.815   7.586   6.810 -0.3490  0.3135  0.3756
  518MOL0     C69856  10.774   7.643   6.950 -0.0887  0.4661  0.6804
  518MOL0     C69857  10.862   7.765   6.965 -0.3951  0.2465  0.2993
  518MOL0     C69858  10.878   7.798   7.112  0.3498 -0.0424  0.4768
  518MOL0     C69859  10.970   7.910   7.113  0.3964  0.5363  0.1464
  518MOL0     C69860  11.038   7.994   7.087 -0.8857  0.9708 -0.3452
  518MOL0     C69861  10.542   7.508   6.744  0.4407 -0.1976 -0.2597
  518MOL0     C69862  10.411   7.463   6.714  0.5610  0.0402 -0.3699
  518MOL0     H69863  10.018   7.125   6.613  0.2138 -2.3262 -1.2242
  518MOL0     H69864   9.832   6.955   6.648 -0.8529  0.9694  0.4342
  518MOL0     H69865   9.555   6.962   6.762  3.1938  1.2149  0.0397
  518MOL0     H69866   9.643   6.831   6.692 -0.8076  0.1643 -0.7858
  518MOL0     H69867   9.423   6.771   6.761  0.6655 -2.9822 -1.2134
  518MOL0     H69868   9.539   6.670   6.840  2.0228  1.1744  1.5462
  518MOL0     H69869   9.411   6.723   7.022  2.6876 -1.7375  0.9261
  518MOL0     H69870   9.534   6.855   7.033 -0.1509 -0.4370 -1.0592
  518MOL0     H69871   9.353   6.994   6.901 -2.8999 -1.7537 -3.6694
  518MOL0     H69872   9.250   6.862   6.915  2.7721 -2.2089 -0.7688
  518MOL0     H69873   9.183   6.994   7.085 -0.3175 -0.8760  0.3871
  518MOL0     H69874   9.289   6.872   7.170  0.0373 -1.2346 -0.9813
  518MOL0     H69875   9.479   7.025   7.161  0.6213  0.7166  0.3245
  518MOL0     H69876   9.375   7.151   7.095 -0.2600  1.5169  1.1860
  518MOL0     H69877   9.304   7.019   7.368 -0.8292  0.2303  0.8693
  518MOL0     H69878   9.416   7.157   7.347 -2.3319 -0.4378  2.7281
  518MOL0     H69879   9.124   7.124   7.264  1.5326 -2.6360  0.9087
  518MOL0     H69880   9.235   7.271   7.225 -1.9228 -0.6805 -1.3030
  518MOL0     H69881   9.066   7.124   7.545 -1.2348  0.8630 -0.7427
  518MOL0     H69882   9.030   7.210   7.793 -0.3691  0.3767 -0.1022
  518MOL0     H69883   9.140   7.349   7.840  1.1467 -0.2900 -0.1014
  518MOL0     H69884   8.967   7.498   7.756 -1.3371 -0.6552 -2.0731
  518MOL0     H69885   8.926   7.393   7.898 -1.3282 -1.6812 -0.0481
  518MOL0     H69886   8.809   7.256   7.694  0.1050 -0.5496  1.3605
  518MOL0     H69887   8.817   7.415   7.609 -0.2666  0.9589  0.2378
  518MOL0     H69888   8.600   7.400   7.726  0.7122  1.3523  0.6586
  518MOL0     H69889   8.703   7.504   7.831  1.1052 -0.1497  1.1359
  518MOL0     H69890   8.648   7.183   8.096  0.0400 -1.2979  1.3768
  518MOL0     H69891   8.433   6.956   8.225 -1.1260  0.4349 -2.3773
  518MOL0     H69892   8.570   7.053   8.261  0.5034 -0.7590  0.0324
  518MOL0     H69893   8.409   7.097   8.333 -0.6008 -2.7351 -0.0719
  518MOL0     H69894   7.944   6.965   8.130  1.9019  2.3119 -0.6824
  518MOL0     H69895   7.726   6.938   8.247  0.7940 -1.1012 -0.3910
  518MOL0     H69896   7.573   7.128   8.293 -1.1976  1.6653  1.0527
  518MOL0     H69897   7.519   6.976   8.357  0.4520 -0.6716  1.2519
  518MOL0     H69898   7.373   7.061   8.492 -1.3951  1.6303  2.2047
  518MOL0     H69899   7.437   7.219   8.512  2.3854 -0.8619  0.1316
  518MOL0     H69900   7.285   7.088   8.278 -0.4575  1.0427 -0.9052
  518MOL0     H69901   7.354   7.243   8.241  2.9269 -2.3458 -1.8856
  518MOL0     H69902   7.141   7.190   8.460 -0.2103 -0.0918  0.8158
  518MOL0     H69903   7.199   7.348   8.394  1.4295 -1.1613  0.5267
  518MOL0     H69904   7.064   7.119   8.244  0.8339  0.6552  0.3654
  518MOL0     H69905   7.118   7.270   8.164  2.1074  1.6971  0.3407
  518MOL0     H69906   6.970   7.414   8.314 -2.9029  0.4873 -2.3483
  518MOL0     H69907   6.885   7.300   8.205 -0.8324  0.5924  0.2788
  518MOL0     H69908   6.912   7.252   8.492  0.5072 -0.1645 -0.0895
  518MOL0     H69909   6.840   7.148   8.367 -1.5572  0.2494 -0.1281
  518MOL0     H69910   6.745   7.432   8.421 -1.3131  0.2842 -1.6769
  518MOL0     H69911   6.669   7.291   8.495  0.5620  0.4460  0.4652
  518MOL0     H69912   7.874   7.172   8.578 -0.1520 -1.2912  0.5373
  518MOL0     H69913   8.094   7.188   8.461  0.9100  1.5267 -2.9240
  518MOL0     H69914   8.208   7.295   7.909  0.6105 -2.0661 -2.7501
  518MOL0     H69915   8.419   7.373   7.797 -1.6935  1.1151 -0.8106
  518MOL0     H69916   9.859   6.985   7.061 -1.9246 -0.0807 -1.9675
  518MOL0     H69917  10.090   7.088   7.036  0.4005  0.5489 -0.7293
  518MOL0     H69918  10.423   7.163   6.869 -2.0212  0.8905 -0.6041
  518MOL0     H69919  10.653   7.231   6.892  0.9302 -0.1879 -1.0648
  518MOL0     H69920  10.922   7.588   6.790 -0.3119  2.1666  0.5218
  518MOL0     H69921  10.770   7.652   6.735  2.7437 -2.5747 -4.5667
  518MOL0     H69922  10.789   7.568   7.028 -0.6661  0.5692  0.8939
  518MOL0     H69923  10.670   7.672   6.935  0.0613  0.4408 -0.5646
  518MOL0     H69924  10.822   7.854   6.917  1.5833  2.0537  1.8045
  518MOL0     H69925  10.959   7.740   6.921 -1.5219 -2.5251 -0.8365
  518MOL0     H69926  10.911   7.710   7.167  0.1399 -2.1372 -2.5361
  518MOL0     H69927  10.779   7.827   7.148  0.2535 -0.3220  0.4339
  518MOL0     H69928  11.108   8.073   7.068 -1.0559  1.0690 -0.5709
  518MOL0     H69929  10.570   7.607   6.710  1.8920 -0.7067 -0.6318
  518MOL0     H69930  10.342   7.531   6.666 -0.9698 -1.4376 -0.3618
  519MOL0     O69931   7.558   7.805  11.110  0.5833 -0.0088  0.3077
  519MOL0     C69932   7.626   7.755  11.201 -0.0031 -0.2968 -0.6138
  519MOL0     O69933   7.578   7.651  11.286 -0.2175 -0.0223  0.9293
  519MOL0     C69934   7.452   7.602  11.293  0.5661  0.7946 -0.8371
  519MOL0     C69935   7.329   7.644  11.218 -0.4546 -0.5530 -0.6194
  519MOL0     C69936   7.200   7.595  11.268  0.1875  0.4126 -0.3558
  519MOL0     C69937   7.194   7.510  11.376 -0.3888  0.1443 -0.1691
  519MOL0     O69938   7.068   7.478  11.427  0.1429 -0.0150  0.5371
  519MOL0     C69939   7.043   7.442  11.564 -0.6174  0.2386  0.5282
  519MOL0     C69940   6.918   7.508  11.608  0.4067  0.4081 -0.4159
  519MOL0     C69941   6.788   7.434  11.570  0.0857  0.1524  0.2300
  519MOL0     C69942   6.668   7.532  11.567 -0.5386  0.4480  0.0207
  519MOL0     C69943   6.534   7.459  11.582  0.3116  0.1350 -0.1949
  519MOL0     C69944   6.492   7.423  11.728  0.6004  0.4125 -0.3918
  519MOL0     C69945   6.354   7.355  11.748 -0.1607 -0.7402 -0.1535
  519MOL0     C69946   6.316   7.360  11.902 -0.6757  0.3138 -0.5906
  519MOL0     N69947   6.189   7.297  11.932 -0.5302 -0.5196 -0.0700
  519MOL0     C69948   6.065   7.342  11.885 -0.1971  0.0691 -1.6553
  519MOL0     C69949   5.983   7.239  11.910  0.2679  0.5952 -0.7458
  519MOL0     C69950   5.834   7.249  11.921  1.0442 -0.3192 -0.4576
  519MOL0     C69951   5.771   7.109  11.949 -0.1472 -0.1348  0.0467
  519MOL0     C69952   5.773   7.083  12.100 -0.3782  0.2651 -0.5001
  519MOL0     C69953   5.747   6.939  12.131  0.4360 -0.4227 -1.4548
  519MOL0     O69954   5.609   6.901  12.093 -0.2190 -0.5740  0.1640
  519MOL0     C69955   5.505   6.924  12.177 -0.5594  0.3157  0.4879
  519MOL0     C69956   5.490   6.859  12.300  0.6689  0.3017 -0.8558
  519MOL0     C69957   5.383   6.879  12.393 -0.5010  0.0538 -0.4044
  519MOL0     C69958   5.372   6.806  12.518  0.0804  0.3287 -0.2950
  519MOL0     C69959   5.290   6.977  12.350  0.3965  0.5036  0.8669
  519MOL0     C69960   5.175   7.029  12.426  0.3946  0.1617 -0.8371
  519MOL0     O69961   5.110   7.144  12.382 -0.0960 -0.3267  0.0732
  519MOL0     C69962   4.972   7.167  12.398  0.3991 -0.1009 -1.2034
  519MOL0     C69963   4.878   7.058  12.414  0.4403 -0.2698 -0.1387
  519MOL0     C69964   4.738   7.084  12.421 -0.5369 -0.0469  1.0798
  519MOL0     C69965   4.690   7.216  12.399 -0.3951  0.7619  0.8415
  519MOL0     O69966   4.552   7.233  12.375 -0.7705 -0.4063  0.0617
  519MOL0     C69967   4.465   7.194  12.481  0.4727  0.1167  0.1236
  519MOL0     C69968   4.317   7.247  12.453  0.7174  0.1335  0.0363
  519MOL0     C69969   4.232   7.123  12.403 -0.2726  0.1461  0.1197
  519MOL0     C69970   4.079   7.153  12.393 -0.2288 -0.1888 -0.0561
  519MOL0     C69971   3.982   7.044  12.376 -0.4975 -0.1692  0.6077
  519MOL0     C69972   3.835   7.079  12.412  0.3296  0.2224  0.2569
  519MOL0     C69973   3.747   6.957  12.396  0.0153  0.6647  0.4010
  519MOL0     C69974   3.638   6.979  12.504 -1.0419  0.2672  0.6630
  519MOL0    Cl69975   3.557   7.139  12.513  0.4251  0.0318  0.1048
  519MOL0     C69976   4.789   7.314  12.374 -0.6708 -0.2217  0.0624
  519MOL0     C69977   4.922   7.291  12.386  0.0651  0.5148  0.4147
  519MOL0     O69978   5.127   6.956  12.519 -0.7332 -0.2199 -0.1724
  519MOL0     C69979   5.298   7.036  12.219  0.4144 -0.5373 -0.0667
  519MOL0     C69980   5.411   7.013  12.132  0.2794 -0.6233 -0.2255
  519MOL0     N69981   6.067   7.131  11.949  0.3131  0.4795  0.4208
  519MOL0     N69982   6.190   7.169  11.963  0.4148  0.0592  0.2200
  519MOL0     C69983   7.311   7.461  11.443  0.5658  0.1938 -0.7740
  519MOL0     C69984   7.430   7.512  11.399  0.4474  0.9178  0.0755
  519MOL0     C69985   7.766   7.803  11.221 -0.3531 -0.9599  0.2427
  519MOL0     C69986   7.832   7.886  11.120  0.0758  0.1982 -1.0162
  519MOL0     C69987   7.964   7.926  11.140 -0.4035 -0.1522  0.1239
  519MOL0     C69988   8.039   7.892  11.254  0.5012 -0.9717 -0.7275
  519MOL0     O69989   8.168   7.950  11.257 -0.3697 -0.6862  0.3315
  519MOL0     C69990   8.231   7.960  11.383 -0.4565 -0.0900  0.9463
  519MOL0     C69991   8.331   8.074  11.389 -0.3738  0.3847 -0.7896
  519MOL0     C69992   8.462   8.041  11.317  0.1942  0.2626  0.5953
  519MOL0     C69993   8.562   8.161  11.323  0.1817 -0.3717  0.5772
  519MOL0     C69994   8.689   8.120  11.270 -0.1328  0.3574  0.0220
  519MOL0     C69995   8.795   8.064  11.235  0.8155  0.1125  0.6913
  519MOL0     C69996   7.971   7.820  11.355  0.4492  0.3701  0.1125
  519MOL0     C69997   7.842   7.776  11.342 -0.0450 -0.5402 -0.3491
  519MOL0     H69998   7.329   7.709  11.131 -1.7108  1.0853  0.5377
  519MOL0     H69999   7.112   7.631  11.216  0.7026 -0.3034 -1.7737
  519MOL0     H70000   7.040   7.336  11.591  0.9970  0.1510  0.4807
  519MOL0     H70001   7.110   7.497  11.631  0.6548 -0.3496 -0.2102
  519MOL0     H70002   6.920   7.506  11.717  3.2652  3.2570 -0.2627
  519MOL0     H70003   6.918   7.616  11.591  0.4067  0.2079 -1.8200
  519MOL0     H70004   6.793   7.380  11.475  0.3700  1.6523 -0.6460
  519MOL0     H70005   6.772   7.356  11.645  2.8541 -1.5841 -0.8533
  519MOL0     H70006   6.673   7.594  11.656  0.4379 -1.7461  1.5879
  519MOL0     H70007   6.677   7.594  11.477 -0.9367  0.4798  0.0011
  519MOL0     H70008   6.456   7.525  11.546  1.0241  1.2283  0.2017
  519MOL0     H70009   6.527   7.370  11.518  1.2872  1.6879 -2.5870
  519MOL0     H70010   6.572   7.357  11.762 -0.0963 -0.1417  0.2268
  519MOL0     H70011   6.506   7.509  11.794  3.0832  1.1816 -1.7874
  519MOL0     H70012   6.289   7.416  11.685 -1.7395 -2.2842 -0.1235
  519MOL0     H70013   6.347   7.256  11.702  2.2171 -0.0395 -2.2615
  519MOL0     H70014   6.311   7.463  11.939  0.5682  0.2118 -0.0881
  519MOL0     H70015   6.388   7.310  11.967 -1.3560  2.1404  1.6823
  519MOL0     H70016   6.034   7.441  11.853  0.3402  0.6136 -0.5278
  519MOL0     H70017   5.802   7.318  12.000  0.6232 -0.2252 -0.7083
  519MOL0     H70018   5.793   7.297  11.832 -0.6308  0.2246  0.5631
  519MOL0     H70019   5.829   7.035  11.893 -0.2665 -0.8384  0.8525
  519MOL0     H70020   5.667   7.116  11.915 -0.9982  0.8782  2.6210
  519MOL0     H70021   5.707   7.152  12.154  0.2395  1.1612 -0.8614
  519MOL0     H70022   5.873   7.108  12.137 -1.1348 -0.6852  2.4656
  519MOL0     H70023   5.763   6.929  12.238  0.7070  1.1807 -1.3110
  519MOL0     H70024   5.815   6.875  12.074  0.3508 -1.7370 -0.1363
  519MOL0     H70025   5.576   6.797  12.325  1.0028  1.1722  0.2635
  519MOL0     H70026   5.275   6.756  12.520 -1.9260  3.5761 -3.6260
  519MOL0     H70027   5.453   6.733  12.523 -0.0559  0.2664  1.5151
  519MOL0     H70028   5.385   6.880  12.597 -0.2156 -0.1443  0.2035
  519MOL0     H70029   4.910   6.955  12.429 -2.3191 -1.2165 -0.3103
  519MOL0     H70030   4.665   7.004  12.428 -1.7997  1.0268  0.7348
  519MOL0     H70031   4.459   7.086  12.499 -0.4225  0.2894  0.9149
  519MOL0     H70032   4.498   7.245  12.571 -3.7813 -0.7755  2.4904
  519MOL0     H70033   4.280   7.286  12.548  0.9892 -0.8446  0.5578
  519MOL0     H70034   4.316   7.328  12.379 -3.1969  1.6944  1.5748
  519MOL0     H70035   4.237   7.043  12.477  1.0252 -1.9617 -2.0941
  519MOL0     H70036   4.270   7.070  12.315  2.4623 -0.7315  1.7151
  519MOL0     H70037   4.055   7.228  12.469  1.4891  1.4569 -1.0691
  519MOL0     H70038   4.067   7.216  12.304 -0.0693 -2.2146 -1.5924
  519MOL0     H70039   4.015   6.954  12.429 -0.8205 -2.4034 -2.6848
  519MOL0     H70040   3.986   7.012  12.271 -0.6262 -0.9521  0.8367
  519MOL0     H70041   3.840   7.116  12.515  2.9124  0.3771  0.1197
  519MOL0     H70042   3.792   7.154  12.344  1.9909 -0.8326 -2.0812
  519MOL0     H70043   3.803   6.864  12.409 -1.5955 -0.5119 -0.6487
  519MOL0     H70044   3.706   6.954  12.295 -0.4741  0.9782  0.5833
  519MOL0     H70045   3.676   6.949  12.602 -0.0678 -1.4567 -0.2082
  519MOL0     H70046   3.558   6.911  12.475 -1.4033  0.0602  2.1016
  519MOL0     H70047   4.752   7.414  12.354 -3.6688 -0.8919  1.7174
  519MOL0     H70048   4.994   7.364  12.352  2.3456 -1.0781  1.5886
  519MOL0     H70049   5.211   7.087  12.179  0.3129 -0.9676 -0.4020
  519MOL0     H70050   5.415   7.070  12.039 -2.0434  0.2005  0.1036
  519MOL0     H70051   7.311   7.386  11.521 -1.7904 -1.4291 -2.2036
  519MOL0     H70052   7.519   7.477  11.449  1.6845  2.2715 -1.0863
  519MOL0     H70053   7.783   7.922  11.030 -0.3479  3.4068  0.3631
  519MOL0     H70054   8.019   7.987  11.069 -2.3206  0.4005 -0.9740
  519MOL0     H70055   8.156   7.984  11.459 -1.2104 -0.7533  0.4157
  519MOL0     H70056   8.270   7.864  11.420 -1.6973 -0.4562  1.3641
  519MOL0     H70057   8.348   8.096  11.495 -3.0557 -0.7851 -0.0363
  519MOL0     H70058   8.284   8.155  11.333  2.2186  1.6072 -1.3539
  519MOL0     H70059   8.436   8.017  11.213 -2.7241 -1.0011  1.5304
  519MOL0     H70060   8.511   7.957  11.365  0.6416  1.4798  2.3679
  519MOL0     H70061   8.575   8.182  11.429 -2.4591 -1.6056  1.2251
  519MOL0     H70062   8.527   8.252  11.273 -0.9027 -1.0540  0.0485
  519MOL0     H70063   8.881   8.003  11.216  0.1310 -1.2026  1.6036
  519MOL0     H70064   8.024   7.786  11.444  0.6867  2.2587  0.7406
  519MOL0     H70065   7.788   7.728  11.423 -1.1771  0.9872 -0.1527
  520MOL0     O70066   7.866   1.764   4.876  1.1419 -0.1251  0.1056
  520MOL0     C70067   7.911   1.670   4.935 -0.0246  0.4449 -0.6863
  520MOL0     O70068   7.835   1.577   4.995  0.3407  0.5778  0.1833
  520MOL0     C70069   7.701   1.582   4.981 -0.1453  0.7730  0.0136
  520MOL0     C70070   7.623   1.636   5.091 -0.4709 -0.1900 -0.6904
  520MOL0     C70071   7.489   1.629   5.080 -0.2083  0.3392  0.9621
  520MOL0     C70072   7.427   1.578   4.967  0.9896 -0.5388 -0.3151
  520MOL0     O70073   7.291   1.556   4.972 -0.2795  0.0796  0.3500
  520MOL0     C70074   7.216   1.576   4.851  0.0053  0.3048  0.5101
  520MOL0     C70075   7.074   1.530   4.883  0.2840  0.7647 -0.7710
  520MOL0     C70076   6.990   1.531   4.750 -0.8068 -0.4547 -0.1165
  520MOL0     C70077   6.843   1.511   4.781  0.6136  0.0740 -0.2802
  520MOL0     C70078   6.783   1.432   4.674  0.3389  0.0247  1.0160
  520MOL0     C70079   6.776   1.491   4.532 -0.1055  0.0658 -0.7353
  520MOL0     C70080   6.674   1.610   4.511 -0.5025  0.3017  0.6284
  520MOL0     C70081   6.671   1.656   4.366 -0.0543  0.2820 -0.2722
  520MOL0     N70082   6.537   1.709   4.334 -0.0938  0.7091  0.1028
  520MOL0     C70083   6.423   1.630   4.337 -0.9627 -0.6458 -0.0026
  520MOL0     C70084   6.334   1.709   4.279  0.2143 -0.2774  0.2614
  520MOL0     C70085   6.194   1.669   4.236  1.1799  0.5859 -0.0345
  520MOL0     C70086   6.092   1.775   4.279  0.5583 -0.3473  0.4361
  520MOL0     C70087   5.947   1.718   4.294  0.6253 -0.9416  0.9026
  520MOL0     C70088   5.842   1.826   4.283 -0.7416  0.6506  0.1941
  520MOL0     O70089   5.799   1.848   4.152  0.3535 -0.1013  0.0022
  520MOL0     C70090   5.667   1.877   4.135  0.0694  0.2599 -1.1337
  520MOL0     C70091   5.581   1.770   4.136  0.1782 -0.6113  0.8703
  520MOL0     C70092   5.445   1.789   4.124  0.0263  0.4679 -0.0450
  520MOL0     C70093   5.355   1.667   4.120 -0.4885  0.5806  0.5787
  520MOL0     C70094   5.397   1.919   4.124  0.5337  0.4121 -1.3500
  520MOL0     C70095   5.241   1.940   4.141  0.1596  0.3373  0.7122
  520MOL0     O70096   5.147   1.846   4.105 -0.1232 -0.2689  1.1258
  520MOL0     C70097   5.021   1.870   4.139 -0.1442  0.9026  0.5001
  520MOL0     C70098   4.981   1.830   4.267 -0.2771 -0.4088  0.9444
  520MOL0     C70099   4.849   1.857   4.302 -0.1980  0.1935  0.0698
  520MOL0     C70100   4.760   1.922   4.212 -0.4432 -0.1478 -0.7187
  520MOL0     O70101   4.622   1.936   4.236  0.0095 -0.7164  1.2053
  520MOL0     C70102   4.590   1.991   4.370 -0.6060  0.2679  0.0511
  520MOL0     C70103   4.450   2.050   4.386  0.1349 -0.3860 -0.4259
  520MOL0     C70104   4.358   1.940   4.362 -0.3260  0.5944  0.4922
  520MOL0     C70105   4.228   1.977   4.299 -0.3720 -0.2593  0.1229
  520MOL0     C70106   4.158   2.091   4.372  0.3473  0.7755  1.0235
  520MOL0     C70107   4.061   2.170   4.274  0.8063  0.0766  0.5670
  520MOL0     C70108   3.968   2.271   4.352 -0.1450  0.9223 -0.0525
  520MOL0     C70109   4.046   2.399   4.405  0.2478  0.1987  0.2085
  520MOL0    Cl70110   3.930   2.545   4.393  0.0146 -0.3398  0.3058
  520MOL0     C70111   4.811   1.953   4.087  0.0873  0.1966 -0.1565
  520MOL0     C70112   4.938   1.937   4.050  0.1792  0.0848 -0.1841
  520MOL0     O70113   5.211   2.053   4.176 -0.1366  0.3809  0.2328
  520MOL0     C70114   5.482   2.031   4.125  0.2699  0.5514 -0.3926
  520MOL0     C70115   5.615   2.006   4.122  0.0846 -0.5836 -1.6227
  520MOL0     N70116   6.389   1.823   4.242 -0.2574 -0.8513  0.1866
  520MOL0     N70117   6.512   1.836   4.289 -0.2795  0.2067  0.6603
  520MOL0     C70118   7.500   1.530   4.861  0.4839 -0.1883 -0.2789
  520MOL0     C70119   7.636   1.527   4.869 -0.0131  0.4814  0.1489
  520MOL0     C70120   8.060   1.676   4.975  0.1158 -1.1514  0.5482
  520MOL0     C70121   8.129   1.569   5.021  0.6247 -0.4516 -1.2151
  520MOL0     C70122   8.261   1.579   5.046 -1.2955  0.0719 -0.2238
  520MOL0     C70123   8.341   1.684   5.007  0.0194 -0.9922 -0.6699
  520MOL0     O70124   8.475   1.677   5.025  0.4240 -0.0973  0.0651
  520MOL0     C70125   8.555   1.797   5.019  1.1441 -0.6594 -0.7615
  520MOL0     C70126   8.706   1.756   5.021 -0.0088 -0.0217 -0.0094
  520MOL0     C70127   8.781   1.891   5.050 -0.4581  0.1420 -0.3292
  520MOL0     C70128   8.933   1.867   5.088 -0.4305  0.2212  0.6825
  520MOL0     C70129   9.004   1.992   5.104 -0.3551 -0.6851  0.0157
  520MOL0     C70130   9.029   2.109   5.137  0.1787  0.1250  0.1017
  520MOL0     C70131   8.274   1.795   4.964  0.6520 -0.4655  0.6845
  520MOL0     C70132   8.127   1.801   4.955  0.6158  0.6773  1.1056
  520MOL0     H70133   7.667   1.685   5.177 -0.7182 -0.1587 -0.5797
  520MOL0     H70134   7.432   1.675   5.160  0.3545  0.9472  1.0150
  520MOL0     H70135   7.235   1.679   4.821 -0.5458  0.3742  0.3948
  520MOL0     H70136   7.256   1.521   4.766  3.3230  1.1130  1.3790
  520MOL0     H70137   7.073   1.428   4.923  2.0008  0.3782 -1.6293
  520MOL0     H70138   7.032   1.599   4.956  1.2175  2.0079 -1.3781
  520MOL0     H70139   6.996   1.631   4.706  0.1826  0.7056  2.4469
  520MOL0     H70140   7.025   1.464   4.671 -2.0056 -1.3505  0.0807
  520MOL0     H70141   6.827   1.460   4.876 -1.5444  0.4400 -0.3852
  520MOL0     H70142   6.804   1.613   4.782  1.6975  0.5166  1.5141
  520MOL0     H70143   6.829   1.334   4.668  0.4385 -0.2064  4.0631
  520MOL0     H70144   6.678   1.419   4.703  0.3917  1.0200  1.6990
  520MOL0     H70145   6.876   1.529   4.512 -0.7108  1.4967 -1.1290
  520MOL0     H70146   6.754   1.416   4.456 -1.4581 -1.1448  0.7677
  520MOL0     H70147   6.575   1.572   4.540 -0.6831  0.4005  0.1640
  520MOL0     H70148   6.707   1.690   4.578  2.2370 -0.6608  0.5394
  520MOL0     H70149   6.693   1.579   4.291 -0.7628  0.5271 -0.7419
  520MOL0     H70150   6.748   1.734   4.361  1.4155 -0.8616  2.5360
  520MOL0     H70151   6.413   1.526   4.368  1.3797  0.1982  4.4231
  520MOL0     H70152   6.195   1.653   4.128  0.9517 -1.7045  0.2559
  520MOL0     H70153   6.160   1.571   4.270 -0.5245  0.3501 -2.1432
  520MOL0     H70154   6.079   1.850   4.200 -0.4690 -1.0486 -0.0807
  520MOL0     H70155   6.115   1.821   4.376 -1.7286  1.7487  0.0977
  520MOL0     H70156   5.924   1.663   4.386 -1.7553 -2.6099 -0.5437
  520MOL0     H70157   5.928   1.645   4.214 -1.3990  0.2896  0.1676
  520MOL0     H70158   5.897   1.914   4.320  1.8959 -0.6806 -0.3219
  520MOL0     H70159   5.756   1.798   4.345  1.0033 -3.1611  1.1619
  520MOL0     H70160   5.628   1.672   4.142 -0.2494 -0.7407  2.9642
  520MOL0     H70161   5.296   1.663   4.028 -0.4303 -2.3310  0.5876
  520MOL0     H70162   5.411   1.573   4.112  0.3214  1.1536 -0.8510
  520MOL0     H70163   5.285   1.666   4.204 -1.7562 -1.0352 -0.4356
  520MOL0     H70164   5.044   1.770   4.333  0.4978  0.9823  1.4964
  520MOL0     H70165   4.810   1.831   4.400  1.7021 -3.0526  0.0798
  520MOL0     H70166   4.610   1.916   4.447  3.1490  1.5514  0.5084
  520MOL0     H70167   4.658   2.075   4.388  1.2056 -0.6998 -1.8092
  520MOL0     H70168   4.443   2.093   4.486 -1.6178  1.4783 -1.2803
  520MOL0     H70169   4.437   2.124   4.307  5.2763  0.4473 -0.8135
  520MOL0     H70170   4.333   1.902   4.462  0.1588  1.6894  1.0395
  520MOL0     H70171   4.404   1.857   4.307 -1.2916 -2.1444  3.4771
  520MOL0     H70172   4.226   1.999   4.192 -2.2845 -1.4147 -0.1247
  520MOL0     H70173   4.153   1.897   4.300 -0.2336 -0.4362 -1.3372
  520MOL0     H70174   4.236   2.153   4.418  3.3311 -1.1622 -1.0243
  520MOL0     H70175   4.099   2.047   4.453  0.1270 -0.4136  0.2393
  520MOL0     H70176   4.126   2.224   4.204  1.2312 -1.3526 -0.1711
  520MOL0     H70177   4.014   2.089   4.218  1.1598 -0.8520  1.5833
  520MOL0     H70178   3.916   2.219   4.433 -0.8401 -1.5694 -1.9838
  520MOL0     H70179   3.893   2.305   4.280 -1.2420 -0.5680  0.3350
  520MOL0     H70180   4.138   2.417   4.349 -1.3096  1.9277 -1.9499
  520MOL0     H70181   4.067   2.386   4.512 -1.7826  1.0531  0.7475
  520MOL0     H70182   4.738   2.000   4.023 -0.0807 -2.2733 -1.9569
  520MOL0     H70183   4.968   1.967   3.950  0.0196  1.1410  0.0756
  520MOL0     H70184   5.454   2.136   4.120 -0.1609  0.4728  0.2479
  520MOL0     H70185   5.676   2.096   4.123 -3.2374  1.8077 -1.7258
  520MOL0     H70186   7.454   1.480   4.776 -1.7792  1.1127  0.1060
  520MOL0     H70187   7.699   1.478   4.795 -1.4945 -0.8476 -0.2760
  520MOL0     H70188   8.074   1.478   5.042  2.7199 -1.3909  0.5291
  520MOL0     H70189   8.318   1.501   5.093 -0.5327  1.5378  1.3906
  520MOL0     H70190   8.540   1.845   4.922 -0.5350  1.2930  0.3922
  520MOL0     H70191   8.524   1.866   5.097 -2.6342 -0.5835 -2.1341
  520MOL0     H70192   8.748   1.715   4.929  1.0170  1.3939 -0.2133
  520MOL0     H70193   8.712   1.677   5.096 -1.5981 -2.3259 -2.1383
  520MOL0     H70194   8.736   1.952   5.129 -0.1354  0.3097 -0.2752
  520MOL0     H70195   8.775   1.947   4.956 -0.7583  2.3830  0.9588
  520MOL0     H70196   8.977   1.815   5.002  1.1410  0.8010  1.0935
  520MOL0     H70197   8.950   1.803   5.176  2.1218 -1.1938 -0.7182
  520MOL0     H70198   9.048   2.208   5.173  1.4582 -0.6612  1.7139
  520MOL0     H70199   8.327   1.884   4.932 -1.4094 -0.3298 -2.9046
  520MOL0     H70200   8.082   1.886   4.905  0.7156 -0.3213 -0.7467
  521MOL0     O70201   8.492  10.474   5.420 -0.3159  0.5170 -0.3402
  521MOL0     C70202   8.519  10.556   5.331 -0.8887  0.4321 -0.1192
  521MOL0     O70203   8.426  10.626   5.257 -0.0510 -0.6503  0.8091
  521MOL0     C70204   8.290  10.597   5.264 -0.2951  0.4885  0.7080
  521MOL0     C70205   8.245  10.465   5.251  0.5223  0.0038 -0.4004
  521MOL0     C70206   8.102  10.441   5.237  0.4381  0.1533  0.0244
  521MOL0     C70207   8.012  10.542   5.256  0.0498 -0.3369  0.1814
  521MOL0     O70208   7.878  10.506   5.249  0.1384 -0.3491 -0.6362
  521MOL0     C70209   7.773  10.598   5.270  0.7066 -0.0962 -0.0596
  521MOL0     C70210   7.643  10.562   5.198  0.2860  0.7766 -1.0387
  521MOL0     C70211   7.645  10.592   5.050  0.1916 -0.9068 -0.3462
  521MOL0     C70212   7.517  10.539   4.977  0.5944  0.1394  0.1233
  521MOL0     C70213   7.515  10.552   4.823 -0.3855  0.2652 -0.1336
  521MOL0     C70214   7.419  10.454   4.757  0.2789  0.4908 -0.2225
  521MOL0     C70215   7.281  10.452   4.821  1.1826 -0.5572 -0.4508
  521MOL0     C70216   7.200  10.589   4.806  0.0203 -0.0887 -0.2265
  521MOL0     N70217   7.145  10.609   4.675 -0.1358  0.4196  0.1366
  521MOL0     C70218   7.044  10.537   4.630  0.7086 -0.1216  0.5165
  521MOL0     C70219   7.031  10.566   4.502  0.0625 -0.5485  0.6581
  521MOL0     C70220   6.921  10.512   4.403 -1.1894  0.1796 -0.4299
  521MOL0     C70221   6.787  10.587   4.418 -1.0946  0.5334  0.5035
  521MOL0     C70222   6.690  10.544   4.309  0.2411  0.9920  0.0315
  521MOL0     C70223   6.559  10.614   4.311 -1.5483  0.0802  0.1271
  521MOL0     O70224   6.477  10.580   4.195 -0.0976 -0.0759  0.2298
  521MOL0     C70225   6.340  10.603   4.204 -0.8797 -0.3573 -0.2106
  521MOL0     C70226   6.258  10.559   4.106 -0.1488  0.1871 -0.2670
  521MOL0     C70227   6.117  10.575   4.099 -0.4965 -0.6477  0.0429
  521MOL0     C70228   6.043  10.504   3.995 -0.0643 -0.1859  1.0571
  521MOL0     C70229   6.051  10.643   4.208  0.2529 -0.8496 -0.2347
  521MOL0     C70230   5.907  10.682   4.224 -0.2549  0.5502  0.0019
  521MOL0     O70231   5.867  10.730   4.349 -0.6298  0.0592 -0.2967
  521MOL0     C70232   5.746  10.771   4.387  0.2549 -0.8940 -0.1949
  521MOL0     C70233   5.746  10.810   4.523  0.0225 -0.2113  0.6210
  521MOL0     C70234   5.635  10.836   4.585  0.6303 -1.6727  0.0798
  521MOL0     C70235   5.512  10.851   4.513  0.4042  0.0217  0.0502
  521MOL0     O70236   5.403  10.892   4.590 -0.1492  0.5802  0.3512
  521MOL0     C70237   5.280  10.924   4.518  0.5898  0.1626 -0.5700
  521MOL0     C70238   5.182  10.975   4.621  0.1801 -0.0145  0.5756
  521MOL0     C70239   5.047  11.013   4.548 -0.1367 -0.6433  0.0453
  521MOL0     C70240   4.960  11.073   4.662 -0.1778 -0.1945 -0.0613
  521MOL0     C70241   4.827  11.127   4.605  0.0633  0.1468 -0.5898
  521MOL0     C70242   4.719  11.007   4.603 -0.7399 -0.1792 -0.0488
  521MOL0     C70243   4.616  11.038   4.506  0.9370 -0.2458 -0.3820
  521MOL0     C70244   4.505  11.135   4.564 -0.5042 -0.4688 -0.1448
  521MOL0    Cl70245   4.394  11.175   4.443  0.2370  0.0617  0.1831
  521MOL0     C70246   5.506  10.820   4.378 -0.0627  1.3674 -0.3672
  521MOL0     C70247   5.624  10.779   4.314  0.4938  0.4867 -0.2155
  521MOL0     O70248   5.831  10.663   4.125  0.5094  0.2223  0.7893
  521MOL0     C70249   6.135  10.689   4.306 -0.7653  0.3115  0.4072
  521MOL0     C70250   6.272  10.676   4.309 -0.2426  0.4861  0.4868
  521MOL0     N70251   7.125  10.661   4.472  0.2484  0.4377  0.0235
  521MOL0     N70252   7.198  10.680   4.570 -0.0210 -0.2970 -0.1355
  521MOL0     C70253   8.063  10.675   5.282 -0.2340  0.0834  0.0772
  521MOL0     C70254   8.199  10.697   5.285  0.1139  0.0579  0.9235
  521MOL0     C70255   8.664  10.595   5.315  0.5811  0.2960  0.3549
  521MOL0     C70256   8.700  10.705   5.236 -0.2889  0.2356 -0.8097
  521MOL0     C70257   8.831  10.759   5.250 -0.0513  0.6724  0.0490
  521MOL0     C70258   8.933  10.705   5.328  0.6298  0.0120 -0.1124
  521MOL0     O70259   9.065  10.755   5.321  0.7899 -0.6819 -0.3364
  521MOL0     C70260   9.176  10.689   5.394 -0.2135 -0.1347 -0.5106
  521MOL0     C70261   9.300  10.782   5.372  0.6851 -0.3008  0.1998
  521MOL0     C70262   9.400  10.754   5.482  0.1657  0.0933  0.0094
  521MOL0     C70263   9.525  10.844   5.471 -0.0548 -0.0908  0.2164
  521MOL0     C70264   9.599  10.802   5.348  0.5142 -0.9927 -0.5599
  521MOL0     C70265   9.656  10.769   5.250 -0.1154 -0.0810  0.1624
  521MOL0     C70266   8.894  10.588   5.400  0.5228  0.0249 -0.3234
  521MOL0     C70267   8.762  10.532   5.389  0.4136 -0.1339  0.8769
  521MOL0     H70268   8.320  10.387   5.243  2.4518  1.7597 -0.3489
  521MOL0     H70269   8.064  10.341   5.220  0.2502  0.6439 -2.8512
  521MOL0     H70270   7.752  10.606   5.377 -0.2056  1.3887 -0.3258
  521MOL0     H70271   7.798  10.701   5.245  0.3080  0.9903  3.4968
  521MOL0     H70272   7.626  10.454   5.205 -2.5521  1.2157  0.1329
  521MOL0     H70273   7.553  10.607   5.240 -0.0045  0.3078 -1.1441
  521MOL0     H70274   7.653  10.701   5.050  2.0802 -0.9639  1.6876
  521MOL0     H70275   7.741  10.552   5.014  0.4323 -0.6792  0.0281
  521MOL0     H70276   7.513  10.435   5.011 -1.6899  0.8489  2.3749
  521MOL0     H70277   7.420  10.571   5.014  0.3276 -1.5841  1.0394
  521MOL0     H70278   7.497  10.651   4.780  1.9045  0.0584 -1.7648
  521MOL0     H70279   7.615  10.516   4.796 -0.9806 -1.0597 -0.6262
  521MOL0     H70280   7.392  10.484   4.655 -0.0169  0.1123 -0.2588
  521MOL0     H70281   7.457  10.352   4.754 -1.3226 -0.1889  1.1423
  521MOL0     H70282   7.228  10.367   4.775  1.7136 -1.7862  1.1263
  521MOL0     H70283   7.292  10.433   4.928  1.6815 -1.0077 -0.5737
  521MOL0     H70284   7.261  10.675   4.833 -0.5241 -0.0386  0.8937
  521MOL0     H70285   7.110  10.573   4.867  0.7087  0.4759  0.9744
  521MOL0     H70286   6.984  10.471   4.692 -0.3646 -0.1469 -0.5172
  521MOL0     H70287   6.960  10.516   4.300  0.0115  1.9082  0.0504
  521MOL0     H70288   6.902  10.406   4.419 -1.6268  0.0219 -1.8340
  521MOL0     H70289   6.799  10.696   4.416 -4.0371  0.9208 -0.7145
  521MOL0     H70290   6.746  10.558   4.515 -1.7363  1.3404  0.4796
  521MOL0     H70291   6.669  10.438   4.325  0.6809  1.1609  2.0232
  521MOL0     H70292   6.736  10.542   4.210 -0.5492 -3.7232 -0.4834
  521MOL0     H70293   6.574  10.722   4.321  3.1787 -0.2259 -1.2182
  521MOL0     H70294   6.503  10.584   4.400 -1.6941  2.7844  1.0368
  521MOL0     H70295   6.310  10.501   4.031  0.9281 -0.2289  0.7688
  521MOL0     H70296   6.099  10.426   3.943  2.5846  3.1277 -1.5072
  521MOL0     H70297   5.947  10.467   4.031 -0.7574  1.6921  1.2505
  521MOL0     H70298   6.020  10.582   3.922 -1.2508 -0.1777  1.4216
  521MOL0     H70299   5.838  10.802   4.580  1.7003  0.2083 -1.8650
  521MOL0     H70300   5.622  10.862   4.689 -0.5757  0.4696 -0.5537
  521MOL0     H70301   5.301  10.998   4.439 -1.4258 -1.4900 -2.8358
  521MOL0     H70302   5.226  10.836   4.483 -0.1063  0.0209  0.8185
  521MOL0     H70303   5.158  10.894   4.690  0.2645 -3.5509 -3.1864
  521MOL0     H70304   5.225  11.065   4.667  0.4264  0.7054 -0.9812
  521MOL0     H70305   5.001  10.933   4.489 -0.5494  1.0983 -2.1661
  521MOL0     H70306   5.064  11.092   4.474 -0.3874 -1.8953 -1.3981
  521MOL0     H70307   4.943  11.002   4.743  0.3336  0.0508  0.2707
  521MOL0     H70308   5.016  11.160   4.700 -0.1594  1.2874 -3.1335
  521MOL0     H70309   4.832  11.155   4.499 -0.2731 -0.0978 -0.6756
  521MOL0     H70310   4.786  11.219   4.648 -0.8928  0.4949 -2.1449
  521MOL0     H70311   4.764  10.914   4.566 -3.6439 -1.1402 -1.4773
  521MOL0     H70312   4.683  10.985   4.703 -1.3585 -0.2215 -0.2766
  521MOL0     H70313   4.559  10.949   4.478  0.7720 -1.5664  3.6577
  521MOL0     H70314   4.666  11.073   4.415  1.7829  0.5553  0.3777
  521MOL0     H70315   4.551  11.229   4.595 -2.4764  0.2366  0.8540
  521MOL0     H70316   4.457  11.087   4.650  1.0331 -1.3378  0.2748
  521MOL0     H70317   5.415  10.816   4.318 -1.2252  2.0854  1.2758
  521MOL0     H70318   5.615  10.747   4.211 -2.0630  0.1847  0.0296
  521MOL0     H70319   6.089  10.752   4.381  0.8837  0.5182  1.2817
  521MOL0     H70320   6.339  10.717   4.385  0.5437  0.6957 -0.3025
  521MOL0     H70321   7.997  10.760   5.277 -1.7527 -1.1122 -1.1761
  521MOL0     H70322   8.233  10.796   5.313 -1.6376  1.0530 -0.2530
  521MOL0     H70323   8.634  10.764   5.173  0.3785  0.9532 -0.8506
  521MOL0     H70324   8.861  10.852   5.202  0.3533  1.6260  2.0523
  521MOL0     H70325   9.151  10.680   5.500  1.0706  2.0342  0.0530
  521MOL0     H70326   9.177  10.588   5.354  0.0360 -0.7659  1.0178
  521MOL0     H70327   9.275  10.888   5.387 -0.8555 -0.7687  1.1287
  521MOL0     H70328   9.343  10.766   5.273 -1.4260 -2.1177 -0.4947
  521MOL0     H70329   9.425  10.647   5.475 -1.5129 -0.3223 -0.2203
  521MOL0     H70330   9.355  10.781   5.578  0.3507 -2.2729  0.8442
  521MOL0     H70331   9.595  10.841   5.555 -0.1464  0.4574  0.3186
  521MOL0     H70332   9.491  10.948   5.464 -1.0274 -0.2584  1.9485
  521MOL0     H70333   9.701  10.737   5.158  0.9772  0.0608  0.6272
  521MOL0     H70334   8.966  10.535   5.462 -1.2198 -0.2969  1.5253
  521MOL0     H70335   8.728  10.456   5.458 -1.2187 -1.7809 -1.5567
  522MOL0     O70336   4.758   4.691   8.083  0.0248  0.7709  0.9603
  522MOL0     C70337   4.866   4.665   8.136  0.2721 -0.2428 -0.1857
  522MOL0     O70338   4.889   4.573   8.241 -0.4528  0.0330  0.3602
  522MOL0     C70339   4.786   4.491   8.279 -0.8774  0.1484  0.3136
  522MOL0     C70340   4.651   4.526   8.286 -0.1050 -0.0467  0.4833
  522MOL0     C70341   4.556   4.446   8.335  0.6087 -0.4872  0.2006
  522MOL0     C70342   4.580   4.318   8.382  0.0793  0.5546  0.3100
  522MOL0     O70343   4.490   4.236   8.441 -0.1770  0.0593 -0.0642
  522MOL0     C70344   4.345   4.257   8.447  0.5645  0.3764  0.2945
  522MOL0     C70345   4.277   4.232   8.316  0.3080 -0.1211  0.4781
  522MOL0     C70346   4.136   4.222   8.328  0.4708  0.2390 -0.0010
  522MOL0     C70347   4.061   4.210   8.188 -0.1344 -0.1551 -0.4805
  522MOL0     C70348   3.911   4.225   8.219 -0.5052 -0.2990  0.1323
  522MOL0     C70349   3.856   4.104   8.295  0.8889 -0.1420  0.1294
  522MOL0     C70350   3.823   4.128   8.443  0.0897 -1.3285 -0.9244
  522MOL0     C70351   3.689   4.204   8.453  0.7446 -0.4027  0.3784
  522MOL0     N70352   3.645   4.183   8.591 -0.0074 -0.0441 -0.8777
  522MOL0     C70353   3.566   4.076   8.631 -1.4313  0.4534  0.7877
  522MOL0     C70354   3.579   4.078   8.764 -0.1467  0.9684  0.6712
  522MOL0     C70355   3.513   3.968   8.840  0.0558  0.1397 -0.7582
  522MOL0     C70356   3.412   4.026   8.937  0.7852 -0.1967 -0.2928
  522MOL0     C70357   3.372   3.929   9.040 -0.3282 -0.2244 -0.6924
  522MOL0     C70358   3.254   3.975   9.133 -0.7043  0.7639 -0.8209
  522MOL0     O70359   3.195   3.860   9.191  0.1540  0.7428 -0.2465
  522MOL0     C70360   3.062   3.859   9.235 -0.1967 -0.2852  0.4778
  522MOL0     C70361   2.998   3.733   9.234 -0.2710 -0.2145  0.3462
  522MOL0     C70362   2.868   3.717   9.277 -0.1685  1.0524 -0.3823
  522MOL0     C70363   2.822   3.569   9.276 -0.3221  0.6205 -0.2037
  522MOL0     C70364   2.793   3.831   9.308  0.0169  0.0216 -0.3145
  522MOL0     C70365   2.650   3.828   9.324 -0.0475 -1.6936  0.1088
  522MOL0     O70366   2.591   3.950   9.326 -0.7471  1.1595  1.0035
  522MOL0     C70367   2.455   3.959   9.317 -0.3055 -0.2244  0.9362
  522MOL0     C70368   2.397   4.011   9.203 -1.3147  0.4495  0.5244
  522MOL0     C70369   2.260   4.029   9.194  0.0125  0.0641 -0.1559
  522MOL0     C70370   2.180   4.009   9.309  0.0595  0.4295 -0.4928
  522MOL0     O70371   2.049   4.039   9.313 -0.3426  0.1866 -0.1606
  522MOL0     C70372   1.999   4.128   9.206  0.3055  0.6700 -0.1275
  522MOL0     C70373   1.872   4.189   9.265  0.9852 -0.0675  0.1597
  522MOL0     C70374   1.759   4.083   9.274 -0.2219  0.2221  0.6759
  522MOL0     C70375   1.638   4.134   9.358  0.3705 -0.4461  0.5906
  522MOL0     C70376   1.531   4.027   9.377 -0.8048  0.8408 -0.7593
  522MOL0     C70377   1.401   4.080   9.440  0.1903 -0.1998 -0.0249
  522MOL0     C70378   1.322   3.975   9.523 -0.1367  0.6077  0.4276
  522MOL0     C70379   1.186   4.028   9.552 -0.4878 -0.1861  0.3744
  522MOL0    Cl70380   1.096   3.906   9.662 -0.3284 -0.2494 -0.2274
  522MOL0     C70381   2.241   3.949   9.421  0.1863  0.5399  0.3596
  522MOL0     C70382   2.378   3.924   9.420 -0.1424  0.1674  0.7238
  522MOL0     O70383   2.591   3.726   9.346  0.2019 -0.3149 -0.2217
  522MOL0     C70384   2.856   3.964   9.307 -0.3196  0.3238 -0.3487
  522MOL0     C70385   2.995   3.973   9.278 -0.5190  0.2561  0.3174
  522MOL0     N70386   3.651   4.185   8.803 -0.0172 -0.5185 -0.4154
  522MOL0     N70387   3.689   4.247   8.701 -0.3462 -0.3009  0.3050
  522MOL0     C70388   4.711   4.278   8.394 -0.1552  0.2494 -0.0740
  522MOL0     C70389   4.818   4.364   8.340  0.4181  0.7576 -0.2144
  522MOL0     C70390   4.993   4.719   8.073  0.0179 -0.5027 -0.4214
  522MOL0     C70391   4.986   4.783   7.946  0.2339  0.0465 -0.5822
  522MOL0     C70392   5.094   4.821   7.875 -0.6027  1.5432 -0.3278
  522MOL0     C70393   5.224   4.805   7.924  0.4630  0.2235  0.3685
  522MOL0     O70394   5.340   4.834   7.856  0.0345 -0.0124  0.1864
  522MOL0     C70395   5.327   4.917   7.738 -0.3228  0.2543  0.9325
  522MOL0     C70396   5.309   4.818   7.622 -0.4979  0.0693 -0.7734
  522MOL0     C70397   5.291   4.880   7.483  0.1586 -0.8422  0.7677
  522MOL0     C70398   5.403   4.977   7.440 -0.8239 -0.6944  1.0820
  522MOL0     C70399   5.526   4.905   7.405 -0.9686  0.1735 -0.2386
  522MOL0     C70400   5.637   4.859   7.380 -0.4627 -0.0204  0.6187
  522MOL0     C70401   5.232   4.767   8.061  0.5131  0.1313  0.5972
  522MOL0     C70402   5.121   4.719   8.131 -0.2191  0.0840  0.6451
  522MOL0     H70403   4.631   4.632   8.272 -0.5008  0.0947  2.0408
  522MOL0     H70404   4.450   4.472   8.336  1.1345  1.8712  1.1191
  522MOL0     H70405   4.314   4.167   8.502  3.4156 -0.4721  0.6966
  522MOL0     H70406   4.301   4.346   8.492 -0.7692 -0.7544  1.3105
  522MOL0     H70407   4.294   4.314   8.246  1.0091 -0.9601 -0.3725
  522MOL0     H70408   4.324   4.146   8.266  0.0292 -0.4005  0.6928
  522MOL0     H70409   4.122   4.135   8.392  0.4732  0.5537  0.4326
  522MOL0     H70410   4.092   4.304   8.384 -1.0765 -1.0422  0.7144
  522MOL0     H70411   4.096   4.294   8.127  2.4705  0.6203  1.8496
  522MOL0     H70412   4.097   4.118   8.139 -2.9014 -2.4464  1.4875
  522MOL0     H70413   3.905   4.323   8.267  2.4750  2.8656 -5.0045
  522MOL0     H70414   3.846   4.231   8.130 -2.1336 -1.8686  1.1488
  522MOL0     H70415   3.762   4.070   8.251 -0.2124  0.6734  1.7174
  522MOL0     H70416   3.925   4.020   8.296 -0.5126 -1.3255 -0.0547
  522MOL0     H70417   3.813   4.038   8.504  2.6485  0.1409  1.9844
  522MOL0     H70418   3.908   4.182   8.487 -0.3477  2.6666 -4.3170
  522MOL0     H70419   3.613   4.179   8.379 -1.1029  0.9125  1.7237
  522MOL0     H70420   3.703   4.313   8.452  1.3397 -0.4475  1.6873
  522MOL0     H70421   3.519   4.010   8.560 -2.5891  0.8869  1.1334
  522MOL0     H70422   3.470   3.887   8.781  1.3991 -0.4532 -0.9724
  522MOL0     H70423   3.604   3.933   8.890 -1.0494 -3.9185 -1.2698
  522MOL0     H70424   3.319   4.048   8.883 -0.7915 -1.4528  1.7948
  522MOL0     H70425   3.441   4.119   8.988 -5.8247  1.1398  2.0855
  522MOL0     H70426   3.449   3.896   9.110  0.1887 -2.1156 -2.0904
  522MOL0     H70427   3.331   3.842   8.987 -1.7959 -0.8002  1.2712
  522MOL0     H70428   3.176   4.018   9.070 -1.2498 -2.0719 -2.2120
  522MOL0     H70429   3.291   4.033   9.218  1.2475 -0.8182 -0.5211
  522MOL0     H70430   3.049   3.649   9.186 -2.2780 -1.1002 -0.3232
  522MOL0     H70431   2.783   3.538   9.179 -1.5396  0.4771  0.3166
  522MOL0     H70432   2.914   3.513   9.291 -0.1839  1.2133  1.3627
  522MOL0     H70433   2.759   3.544   9.362  0.8144  0.2469  0.5507
  522MOL0     H70434   2.463   4.038   9.121  0.0159  1.4145  1.8520
  522MOL0     H70435   2.216   4.065   9.102 -0.4793 -1.6621 -0.6460
  522MOL0     H70436   2.063   4.212   9.177 -0.5883  0.9400 -1.4150
  522MOL0     H70437   1.982   4.071   9.114 -1.3082  1.7978 -0.5777
  522MOL0     H70438   1.908   4.230   9.360  1.8732 -0.2408 -0.0878
  522MOL0     H70439   1.836   4.273   9.205  2.0132  1.0600  1.0618
  522MOL0     H70440   1.801   3.990   9.315 -1.6873 -0.6727  0.2156
  522MOL0     H70441   1.725   4.058   9.173  0.5422  0.2220  0.4089
  522MOL0     H70442   1.681   4.168   9.452  0.1236  0.2230  0.4723
  522MOL0     H70443   1.595   4.223   9.311 -1.5604 -2.3583 -1.4914
  522MOL0     H70444   1.570   3.970   9.461  0.4440  1.2613 -1.0350
  522MOL0     H70445   1.514   3.960   9.292 -1.1925 -0.7024  0.4863
  522MOL0     H70446   1.423   4.157   9.514  3.2690 -1.5422  0.6147
  522MOL0     H70447   1.340   4.114   9.356  0.2609 -1.6510 -0.6905
  522MOL0     H70448   1.381   3.952   9.612  2.9247 -1.2055 -1.9144
  522MOL0     H70449   1.322   3.884   9.463 -0.6902 -0.4623  1.9782
  522MOL0     H70450   1.128   4.054   9.463 -0.9757 -0.2441  0.6694
  522MOL0     H70451   1.206   4.122   9.604  0.9740 -0.1956 -0.1477
  522MOL0     H70452   2.177   3.911   9.500 -1.1588  0.5661 -0.6797
  522MOL0     H70453   2.414   3.866   9.504 -0.1350  0.1845  0.7319
  522MOL0     H70454   2.811   4.062   9.317 -2.4703 -0.6929  0.9077
  522MOL0     H70455   3.040   4.072   9.285 -0.6372  0.2993  0.4703
  522MOL0     H70456   4.726   4.174   8.421 -2.2967 -0.3650 -1.0428
  522MOL0     H70457   4.918   4.328   8.361 -0.1399 -2.0152 -1.6581
  522MOL0     H70458   4.887   4.792   7.902 -1.1930 -1.9309  1.9396
  522MOL0     H70459   5.082   4.870   7.779 -0.5729  2.0882 -0.0531
  522MOL0     H70460   5.244   4.986   7.756  1.2044  2.5488 -0.1945
  522MOL0     H70461   5.424   4.968   7.732 -0.9678  1.5526  1.0294
  522MOL0     H70462   5.222   4.756   7.646 -1.4286  1.7794  0.5677
  522MOL0     H70463   5.392   4.748   7.621 -0.4680  0.1050 -0.8100
  522MOL0     H70464   5.209   4.952   7.489  0.5573 -0.2188 -0.8531
  522MOL0     H70465   5.277   4.813   7.397 -0.1734 -0.3931  0.4607
  522MOL0     H70466   5.427   5.048   7.521 -0.2673  0.0073  0.3220
  522MOL0     H70467   5.375   5.028   7.348  1.0081 -1.7992 -0.1437
  522MOL0     H70468   5.721   4.802   7.347 -1.5496  0.0883 -2.6750
  522MOL0     H70469   5.326   4.772   8.114  1.0147 -2.3690  0.0926
  522MOL0     H70470   5.132   4.674   8.229 -2.8761  1.5647  1.7196
  523MOL0     O70471   5.955  11.076   6.775  0.4349  0.5463  0.4179
  523MOL0     C70472   6.054  11.104   6.705 -0.2200  0.0928 -0.8227
  523MOL0     O70473   6.064  11.218   6.631 -0.1442 -0.0821 -0.1973
  523MOL0     C70474   5.986  11.321   6.682 -0.1907 -0.5011  0.1942
  523MOL0     C70475   5.864  11.360   6.626  0.4883  0.4462 -0.4717
  523MOL0     C70476   5.770  11.438   6.688 -0.4626 -0.3555  0.5298
  523MOL0     C70477   5.792  11.496   6.811 -0.5276  0.4540  0.9536
  523MOL0     O70478   5.698  11.579   6.870  0.3805  0.5246  0.1227
  523MOL0     C70479   5.567  11.593   6.807 -0.2735  0.0040 -0.1560
  523MOL0     C70480   5.492  11.691   6.898  0.2998  0.5628  0.0707
  523MOL0     C70481   5.418  11.644   7.023  0.8446  0.4535 -0.5173
  523MOL0     C70482   5.385  11.768   7.112  0.4125  0.0726 -0.5837
  523MOL0     C70483   5.306  11.724   7.240 -0.5532  1.0338 -0.5569
  523MOL0     C70484   5.173  11.670   7.224  0.2161  0.5231 -0.0844
  523MOL0     C70485   5.082  11.661   7.348 -0.4445  0.0893  0.6899
  523MOL0     C70486   4.937  11.607   7.315 -0.1427  0.1022 -0.5500
  523MOL0     N70487   4.845  11.711   7.282  0.6007  0.5410  0.5544
  523MOL0     C70488   4.852  11.828   7.216  0.7838  0.5648  0.0251
  523MOL0     C70489   4.731  11.884   7.222  0.3283 -0.4622 -0.0614
  523MOL0     C70490   4.678  12.007   7.160  0.6156  0.1090 -1.1350
  523MOL0     C70491   4.639  11.997   7.016 -0.2981  0.5597 -0.5139
  523MOL0     C70492   4.558  11.874   6.984 -0.8460 -0.2684 -0.0598
  523MOL0     C70493   4.528  11.864   6.838  1.0142  0.1317 -0.4943
  523MOL0     O70494   4.452  11.741   6.827  0.7340 -0.2022  0.2885
  523MOL0     C70495   4.328  11.740   6.771  0.3727  0.7961 -0.6421
  523MOL0     C70496   4.246  11.853   6.734  0.4150 -0.2962 -0.4097
  523MOL0     C70497   4.116  11.838   6.677 -0.3667  0.0866 -1.3001
  523MOL0     C70498   4.033  11.965   6.665  0.1408  0.8578 -0.2309
  523MOL0     C70499   4.064  11.711   6.645  0.5714  0.0123 -0.6504
  523MOL0     C70500   3.937  11.685   6.578  0.6952 -0.5909  0.7732
  523MOL0     O70501   3.856  11.795   6.560  0.4104 -0.5113 -0.8318
  523MOL0     C70502   3.756  11.780   6.469 -0.4298  0.1493  0.0019
  523MOL0     C70503   3.639  11.730   6.511  0.3668 -0.0713  0.4213
  523MOL0     C70504   3.532  11.709   6.417  0.1177 -0.3897 -0.0337
  523MOL0     C70505   3.544  11.744   6.280  0.1282 -0.1931  0.7467
  523MOL0     O70506   3.448  11.762   6.187  0.0905 -0.2382  0.5241
  523MOL0     C70507   3.335  11.666   6.188 -0.0697 -0.3130 -1.3294
  523MOL0     C70508   3.253  11.718   6.063 -0.4464  0.6780 -0.8600
  523MOL0     C70509   3.158  11.602   6.029 -0.4913 -0.0736 -0.5036
  523MOL0     C70510   3.022  11.617   6.102  0.2346  0.0749 -0.9445
  523MOL0     C70511   2.944  11.489   6.093 -0.5207  0.5056  0.3400
  523MOL0     C70512   3.004  11.381   6.190 -0.0311 -0.2675  0.0135
  523MOL0     C70513   2.960  11.238   6.163 -0.4012  0.4420 -0.2544
  523MOL0     C70514   2.808  11.232   6.193  0.5272  0.9008  0.5635
  523MOL0    Cl70515   2.754  11.057   6.193  0.0924  0.1059  0.0987
  523MOL0     C70516   3.668  11.809   6.246 -0.3879  0.5314 -0.5046
  523MOL0     C70517   3.769  11.833   6.340  0.4059  0.0035  1.0822
  523MOL0     O70518   3.907  11.574   6.538 -0.0127  0.1394 -0.5422
  523MOL0     C70519   4.144  11.601   6.688 -0.7368  0.0029 -0.3646
  523MOL0     C70520   4.272  11.617   6.744 -0.3533 -0.1024  0.1296
  523MOL0     N70521   4.651  11.814   7.311  0.4971 -1.1482  0.3623
  523MOL0     N70522   4.714  11.703   7.328  0.2261 -0.3105  0.3085
  523MOL0     C70523   5.911  11.464   6.877 -0.2043  0.1731  0.9259
  523MOL0     C70524   6.009  11.371   6.817 -0.5000 -1.2580  0.3672
  523MOL0     C70525   6.177  11.027   6.730 -0.5615 -0.8257 -0.3499
  523MOL0     C70526   6.287  11.051   6.645 -0.9711 -0.7661 -0.2534
  523MOL0     C70527   6.399  10.964   6.648  0.2924 -0.0566 -0.5196
  523MOL0     C70528   6.409  10.857   6.743  0.1147  0.0702  0.2546
  523MOL0     O70529   6.526  10.783   6.741  0.3328  0.5204  1.0960
  523MOL0     C70530   6.532  10.652   6.803  0.2684 -0.1849  0.4010
  523MOL0     C70531   6.673  10.588   6.776 -0.2662 -0.2396  0.5935
  523MOL0     C70532   6.787  10.655   6.847  0.2008  0.6148  0.0118
  523MOL0     C70533   6.915  10.579   6.836 -0.2820  0.1541  0.2917
  523MOL0     C70534   6.971  10.528   6.709  0.8788  0.1294 -0.0651
  523MOL0     C70535   7.004  10.517   6.592 -0.8072  0.4396  0.0941
  523MOL0     C70536   6.298  10.839   6.832 -0.0297 -0.0076  0.8867
  523MOL0     C70537   6.180  10.921   6.820 -0.5223  0.3550  0.6801
  523MOL0     H70538   5.844  11.309   6.533 -1.0052 -0.2973  0.2050
  523MOL0     H70539   5.676  11.444   6.634 -0.1774  0.7383  0.1137
  523MOL0     H70540   5.569  11.642   6.710 -0.5791 -1.9289 -1.1784
  523MOL0     H70541   5.528  11.491   6.795 -0.3366  0.2949 -3.1667
  523MOL0     H70542   5.567  11.758   6.941  2.0274 -0.5170 -1.1455
  523MOL0     H70543   5.420  11.749   6.839  0.3697  0.7597  0.1798
  523MOL0     H70544   5.329  11.593   6.987  0.2566  1.7930 -1.0247
  523MOL0     H70545   5.472  11.581   7.095  0.0302  0.9244  0.5479
  523MOL0     H70546   5.467  11.837   7.135  1.0878 -0.6142 -0.9144
  523MOL0     H70547   5.322  11.837   7.054  0.7727  0.4270 -0.5588
  523MOL0     H70548   5.367  11.649   7.292  2.8742  3.0278 -1.4035
  523MOL0     H70549   5.305  11.810   7.307 -0.7899 -0.5049  1.5116
  523MOL0     H70550   5.115  11.726   7.150 -2.7308 -1.3824  0.5951
  523MOL0     H70551   5.179  11.565   7.193  0.9914  0.5561 -0.0585
  523MOL0     H70552   5.119  11.592   7.424 -1.3419  0.1610  1.2090
  523MOL0     H70553   5.070  11.754   7.404 -0.8699  0.9318 -0.7603
  523MOL0     H70554   4.892  11.568   7.407  0.7711  0.2985 -0.0157
  523MOL0     H70555   4.939  11.520   7.248 -1.9681  2.0195 -3.3374
  523MOL0     H70556   4.940  11.877   7.174  0.8087  0.3304 -0.1977
  523MOL0     H70557   4.585  12.032   7.212  1.4052 -0.9561  0.8874
  523MOL0     H70558   4.751  12.087   7.174  2.5511 -1.7229 -0.4325
  523MOL0     H70559   4.730  11.991   6.957  1.4125 -0.3431  2.0287
  523MOL0     H70560   4.576  12.085   7.000  1.6386  2.4354  1.5150
  523MOL0     H70561   4.457  11.885   7.026 -0.7864  2.0593 -0.4152
  523MOL0     H70562   4.606  11.785   7.025  4.6785  2.1987 -0.2969
  523MOL0     H70563   4.623  11.861   6.783  1.8638 -2.4351  0.9439
  523MOL0     H70564   4.483  11.960   6.811  0.9799  0.6180  1.2099
  523MOL0     H70565   4.290  11.951   6.748  1.2656 -1.0266  3.4811
  523MOL0     H70566   3.939  11.974   6.720 -0.0611  4.4148 -0.8822
  523MOL0     H70567   4.077  12.057   6.705  0.3180  0.6342  0.0978
  523MOL0     H70568   4.015  11.989   6.560  1.4707  2.3796 -0.1632
  523MOL0     H70569   3.625  11.688   6.610  1.1348 -1.8756 -0.1969
  523MOL0     H70570   3.441  11.666   6.456 -1.4050  0.0408 -2.8762
  523MOL0     H70571   3.362  11.561   6.175 -1.6096 -0.7124 -1.5042
  523MOL0     H70572   3.274  11.667   6.278 -0.1282  0.8339 -1.3610
  523MOL0     H70573   3.189  11.803   6.087 -3.3020 -1.8567  1.3141
  523MOL0     H70574   3.321  11.745   5.982  2.3003  3.1414  1.9951
  523MOL0     H70575   3.204  11.504   6.038  0.3726  0.4054  0.4775
  523MOL0     H70576   3.151  11.619   5.921  1.6079 -1.3173 -0.9001
  523MOL0     H70577   3.030  11.654   6.204  0.9018  0.4930 -1.1423
  523MOL0     H70578   2.979  11.694   6.038 -2.4745  0.2159  0.8804
  523MOL0     H70579   2.942  11.466   5.986 -1.5895  1.2247  0.1863
  523MOL0     H70580   2.840  11.510   6.118  0.3936  0.7081  4.7056
  523MOL0     H70581   3.113  11.379   6.177 -0.3404  0.3909 -4.3411
  523MOL0     H70582   2.978  11.402   6.294 -0.2348  1.9449 -0.4560
  523MOL0     H70583   3.016  11.176   6.235 -0.0902 -0.4299 -1.2156
  523MOL0     H70584   2.990  11.205   6.063 -1.2602  0.0514 -0.3912
  523MOL0     H70585   2.756  11.290   6.116  1.4618  0.2794 -0.5645
  523MOL0     H70586   2.786  11.273   6.292  1.4419  1.9469  0.3570
  523MOL0     H70587   3.677  11.832   6.141  0.1892  1.8819 -0.1843
  523MOL0     H70588   3.861  11.883   6.313  0.1421  0.0533  0.2670
  523MOL0     H70589   4.120  11.498   6.662 -1.4183  0.5585 -2.0567
  523MOL0     H70590   4.330  11.527   6.763 -3.6647 -2.7231 -1.0578
  523MOL0     H70591   5.905  11.500   6.979 -2.4243 -0.3974  1.0542
  523MOL0     H70592   6.089  11.341   6.885 -2.3112 -1.7224  2.4296
  523MOL0     H70593   6.283  11.132   6.573 -2.3162  0.3574  1.0176
  523MOL0     H70594   6.490  10.985   6.592  0.2378  1.0484 -0.2113
  523MOL0     H70595   6.516  10.655   6.911  0.9714  4.1064  0.5880
  523MOL0     H70596   6.456  10.604   6.741 -0.5492  1.4815  0.0329
  523MOL0     H70597   6.689  10.585   6.668 -2.4574 -2.8429  0.2522
  523MOL0     H70598   6.689  10.486   6.813  2.1235  0.8085  2.8320
  523MOL0     H70599   6.761  10.657   6.954 -4.0388 -3.5474 -0.5944
  523MOL0     H70600   6.799  10.756   6.806  0.9541  0.4255 -0.2375
  523MOL0     H70601   6.906  10.490   6.898 -2.2997  0.8529  1.0779
  523MOL0     H70602   6.987  10.650   6.878  0.0085 -0.8471  1.5742
  523MOL0     H70603   7.043  10.513   6.492  2.5567  0.2403  1.2989
  523MOL0     H70604   6.296  10.754   6.900  0.3583 -0.9261 -0.2213
  523MOL0     H70605   6.093  10.895   6.880 -0.6843 -0.8623 -0.0516
  524MOL0     O70606   8.757   4.637   9.709  0.4582  1.1050  0.2189
  524MOL0     C70607   8.764   4.558   9.796 -0.6525  0.2337  0.1351
  524MOL0     O70608   8.657   4.510   9.868  0.0737 -0.5536 -0.2977
  524MOL0     C70609   8.533   4.561   9.842  0.3599 -0.2648 -0.6653
  524MOL0     C70610   8.470   4.652   9.923  0.4286 -0.9220  0.1931
  524MOL0     C70611   8.347   4.707   9.899 -0.5400 -0.7918 -0.7297
  524MOL0     C70612   8.273   4.670   9.795  0.1863  0.6259  0.1846
  524MOL0     O70613   8.157   4.745   9.765  0.3749  0.1589  0.4573
  524MOL0     C70614   8.056   4.687   9.682  0.7454  0.4754 -0.5060
  524MOL0     C70615   7.926   4.730   9.760 -1.7311 -0.3021  0.0383
  524MOL0     C70616   7.804   4.662   9.694 -0.2357  0.0699 -0.8385
  524MOL0     C70617   7.681   4.713   9.758  0.3215 -0.6317  0.8865
  524MOL0     C70618   7.567   4.605   9.744  1.4278  0.3437  0.1177
  524MOL0     C70619   7.433   4.650   9.822 -0.4691  0.1722 -0.6216
  524MOL0     C70620   7.332   4.531   9.836  0.5279  0.5761 -0.1824
  524MOL0     C70621   7.191   4.572   9.891  0.3761 -0.3177 -0.0516
  524MOL0     N70622   7.093   4.469   9.909 -0.4825  0.2252 -0.5999
  524MOL0     C70623   6.990   4.468  10.001 -0.2811  0.5116  0.3159
  524MOL0     C70624   6.910   4.359   9.982 -0.4358  0.0789 -1.0485
  524MOL0     C70625   6.794   4.314  10.056  0.3564  0.3141 -0.2018
  524MOL0     C70626   6.754   4.163  10.022 -0.2212 -0.4304  0.0455
  524MOL0     C70627   6.693   4.102  10.157  0.3729  0.0000 -0.6427
  524MOL0     C70628   6.543   4.076  10.156  0.6618  0.1729  0.3531
  524MOL0     O70629   6.493   4.091  10.293 -0.6048  0.1953  0.0221
  524MOL0     C70630   6.367   4.046  10.327  0.2673 -0.5754 -0.1599
  524MOL0     C70631   6.252   4.081  10.243  0.3957 -0.4283  0.8361
  524MOL0     C70632   6.125   4.051  10.288 -0.1182  1.3950 -1.3410
  524MOL0     C70633   6.011   4.109  10.204 -0.0172  0.0009  0.6270
  524MOL0     C70634   6.110   3.965  10.403  0.7049  0.4094  0.2608
  524MOL0     C70635   5.974   3.925  10.447 -0.0159 -1.4802  0.4585
  524MOL0     O70636   5.867   4.019  10.466  0.5046 -0.0827  0.6979
  524MOL0     C70637   5.737   3.971  10.476  0.9526  0.9562  0.5540
  524MOL0     C70638   5.651   3.980  10.370 -0.8079 -1.7589 -0.3258
  524MOL0     C70639   5.513   3.941  10.388 -0.1734 -0.6343  0.8884
  524MOL0     C70640   5.456   3.897  10.513 -0.3335  0.8700  0.1036
  524MOL0     O70641   5.325   3.864  10.524 -0.1149  0.0933  0.1650
  524MOL0     C70642   5.225   3.877  10.419 -0.4431 -0.1922  0.5284
  524MOL0     C70643   5.102   3.940  10.487  0.3386  0.6015 -0.1273
  524MOL0     C70644   4.991   3.985  10.388 -0.0487  0.3007  0.3311
  524MOL0     C70645   4.926   3.871  10.312 -0.3223  0.2246 -0.1217
  524MOL0     C70646   4.846   3.918  10.198 -0.0090 -0.9228 -0.5730
  524MOL0     C70647   4.784   3.809  10.104 -1.1278 -0.8102 -0.1917
  524MOL0     C70648   4.658   3.730  10.158  0.0483 -0.5570  0.2371
  524MOL0     C70649   4.621   3.603  10.084 -0.3054  0.7818  0.2587
  524MOL0    Cl70650   4.574   3.677   9.924 -0.4136 -0.4008  0.1960
  524MOL0     C70651   5.552   3.898  10.620 -0.4294 -0.0807  0.2376
  524MOL0     C70652   5.688   3.935  10.607 -0.0968 -0.2802  1.0968
  524MOL0     O70653   5.968   3.805  10.455 -0.3446  0.7175  0.2206
  524MOL0     C70654   6.227   3.944  10.482  0.1647  0.1713  0.1571
  524MOL0     C70655   6.356   3.986  10.453 -0.9307 -0.0790  0.1542
  524MOL0     N70656   6.967   4.283   9.879  0.2728  0.3209  0.0743
  524MOL0     N70657   7.071   4.354   9.836  0.1993 -0.9462  0.2947
  524MOL0     C70658   8.332   4.576   9.709 -0.6472 -0.0923 -0.0203
  524MOL0     C70659   8.459   4.514   9.736  0.1564 -0.5501  0.2278
  524MOL0     C70660   8.889   4.500   9.827 -0.1883 -0.3207  0.6726
  524MOL0     C70661   8.907   4.429   9.947  0.6303  0.0428  0.1950
  524MOL0     C70662   9.024   4.359   9.965  0.3572 -0.1204  0.0895
  524MOL0     C70663   9.137   4.374   9.874  0.6149 -0.4472  1.0339
  524MOL0     O70664   9.263   4.331   9.916 -0.1555  0.4800  0.0001
  524MOL0     C70665   9.282   4.252  10.037 -0.3880 -0.2642 -0.0009
  524MOL0     C70666   9.431   4.221  10.058 -0.2634 -0.0950  0.1878
  524MOL0     C70667   9.502   4.338  10.126 -0.0502 -0.1028  0.2979
  524MOL0     C70668   9.645   4.342  10.096  0.2504 -0.6476  0.5619
  524MOL0     C70669   9.721   4.241  10.163 -0.1095 -0.4370 -0.2950
  524MOL0     C70670   9.769   4.162  10.239 -0.2872  0.0530  0.5956
  524MOL0     C70671   9.118   4.452   9.767 -0.1807  0.8179 -0.3752
  524MOL0     C70672   9.000   4.511   9.740  0.8166  0.1964  0.0773
  524MOL0     H70673   8.522   4.675  10.016 -2.5589  1.3386  1.4756
  524MOL0     H70674   8.309   4.775   9.975 -0.2752 -3.9886  2.5278
  524MOL0     H70675   8.074   4.726   9.582  4.0137  4.3659  1.2826
  524MOL0     H70676   8.057   4.579   9.695 -2.0167  0.3880 -0.6040
  524MOL0     H70677   7.938   4.708   9.867  1.8673  0.8770  0.0271
  524MOL0     H70678   7.936   4.839   9.751 -0.4704 -0.3773  0.2676
  524MOL0     H70679   7.807   4.667   9.585  0.3537  3.0094 -0.7897
  524MOL0     H70680   7.805   4.558   9.728 -3.3215  0.4462  0.6771
  524MOL0     H70681   7.705   4.738   9.861 -0.2927 -0.2383  0.9390
  524MOL0     H70682   7.648   4.807   9.713 -2.4880 -0.9749  1.9900
  524MOL0     H70683   7.543   4.597   9.638  2.5446 -1.3203 -0.0411
  524MOL0     H70684   7.595   4.505   9.779 -0.3744  0.0516  0.7987
  524MOL0     H70685   7.471   4.683   9.919  0.7520  1.7842 -1.5959
  524MOL0     H70686   7.382   4.734   9.774 -1.2244  0.6927  1.0397
  524MOL0     H70687   7.317   4.498   9.733  3.4039  1.3526 -0.9317
  524MOL0     H70688   7.370   4.447   9.895 -1.0646  0.6418  1.0179
  524MOL0     H70689   7.151   4.652   9.828  1.9762 -1.4951 -2.7800
  524MOL0     H70690   7.200   4.615   9.991  0.6564 -0.1143 -0.1629
  524MOL0     H70691   6.966   4.550  10.068 -0.3658 -0.3260  1.3592
  524MOL0     H70692   6.824   4.330  10.160  0.8708 -3.5487  0.3934
  524MOL0     H70693   6.707   4.374  10.029  2.4389  2.2252 -3.3391
  524MOL0     H70694   6.850   4.114  10.002 -0.2285 -1.1973  1.7532
  524MOL0     H70695   6.689   4.156   9.935 -0.2068  1.5528 -0.1685
  524MOL0     H70696   6.710   4.170  10.242 -1.7770  1.2505 -1.1259
  524MOL0     H70697   6.757   4.018  10.187  1.9871 -0.1434 -4.0247
  524MOL0     H70698   6.520   3.973  10.129 -1.0686  0.4913  0.5386
  524MOL0     H70699   6.489   4.153  10.100  0.0804 -0.5120 -0.0395
  524MOL0     H70700   6.283   4.144  10.160 -0.1103  1.0822  1.7410
  524MOL0     H70701   6.047   4.163  10.116 -0.6007 -2.3653 -1.1488
  524MOL0     H70702   5.948   4.032  10.159  1.6501  0.4104 -2.6999
  524MOL0     H70703   5.956   4.180  10.267  1.9139  1.2185  1.0478
  524MOL0     H70704   5.679   4.024  10.275  2.4729 -0.5218  1.0531
  524MOL0     H70705   5.455   3.945  10.297  1.1863  2.7537  0.0197
  524MOL0     H70706   5.259   3.955  10.350 -1.4292  1.4659  1.8331
  524MOL0     H70707   5.196   3.786  10.366  1.2271 -1.5532  1.8669
  524MOL0     H70708   5.060   3.871  10.561  3.4682  1.4240  2.6320
  524MOL0     H70709   5.152   4.019  10.544  1.6108 -0.8363  0.8062
  524MOL0     H70710   5.032   4.067  10.330  1.5782 -0.8265 -0.1712
  524MOL0     H70711   4.906   4.023  10.447 -3.6478 -2.9467 -2.2200
  524MOL0     H70712   5.001   3.806  10.265  1.7271  1.8204  0.7929
  524MOL0     H70713   4.867   3.813  10.383 -1.0957  0.3949 -0.6099
  524MOL0     H70714   4.913   3.977  10.135 -0.0959 -2.0334 -1.7416
  524MOL0     H70715   4.757   3.975  10.228  0.5796 -0.1042 -0.3540
  524MOL0     H70716   4.754   3.862  10.013 -0.6694  2.0194  1.1870
  524MOL0     H70717   4.869   3.742  10.086 -0.0967  0.8543 -1.9129
  524MOL0     H70718   4.569   3.791  10.172 -2.2232 -3.6031  0.0986
  524MOL0     H70719   4.687   3.693  10.257 -1.9325  1.0776  1.4989
  524MOL0     H70720   4.543   3.537  10.122 -0.4919  0.5866 -0.4352
  524MOL0     H70721   4.708   3.538  10.066 -0.5012  0.8414 -1.0059
  524MOL0     H70722   5.528   3.865  10.721  1.4002  1.1355  1.1221
  524MOL0     H70723   5.756   3.940  10.692 -0.2903  1.1927  1.1962
  524MOL0     H70724   6.212   3.875  10.564  0.3567 -0.9447 -0.7275
  524MOL0     H70725   6.444   3.955  10.509 -0.7694 -3.5725 -1.7252
  524MOL0     H70726   8.273   4.557   9.620  1.7238  2.0612 -2.2270
  524MOL0     H70727   8.507   4.438   9.675 -0.9510  0.4835 -2.0760
  524MOL0     H70728   8.831   4.425  10.025 -0.0222  0.1245 -0.4195
  524MOL0     H70729   9.024   4.305  10.059 -3.8317 -0.4891  0.0540
  524MOL0     H70730   9.235   4.295  10.126  0.3246  0.7086 -0.0856
  524MOL0     H70731   9.235   4.155  10.020  2.8287 -1.7429 -1.2270
  524MOL0     H70732   9.474   4.204   9.958  0.4649  2.5045 -0.0250
  524MOL0     H70733   9.443   4.132  10.120 -1.5784 -1.2626 -1.1489
  524MOL0     H70734   9.490   4.347  10.235  0.3540  2.3687  0.2127
  524MOL0     H70735   9.453   4.428  10.089  2.5445  2.3708  2.3570
  524MOL0     H70736   9.694   4.438  10.117 -0.4942  0.1475 -1.1503
  524MOL0     H70737   9.658   4.340   9.987  0.9878 -1.0522  0.6491
  524MOL0     H70738   9.802   4.096  10.317  0.6417 -1.4768 -1.0191
  524MOL0     H70739   9.203   4.464   9.700 -1.5107  2.8742 -1.8180
  524MOL0     H70740   8.994   4.570   9.649 -0.8404  0.6695  0.4595
  525MOL0     O70741   4.368   6.721   2.512 -0.0914  0.2815 -0.2668
  525MOL0     C70742   4.368   6.841   2.542  0.3895  0.3827 -0.3495
  525MOL0     O70743   4.262   6.922   2.551  0.5362 -0.8369 -0.3374
  525MOL0     C70744   4.144   6.883   2.489  0.1458 -0.0782  0.8363
  525MOL0     C70745   4.141   6.852   2.352  0.5358 -0.1752 -0.5359
  525MOL0     C70746   4.019   6.815   2.297 -0.5049  0.7258  0.0427
  525MOL0     C70747   3.902   6.801   2.369 -0.4800  0.5803  0.1574
  525MOL0     O70748   3.784   6.779   2.311 -0.1022 -0.3918  0.0841
  525MOL0     C70749   3.784   6.701   2.184  0.3413 -0.0707 -0.0188
  525MOL0     C70750   3.662   6.612   2.181 -0.8356  0.4202 -0.4576
  525MOL0     C70751   3.530   6.697   2.176  0.0440  0.1952 -1.1177
  525MOL0     C70752   3.411   6.603   2.146  0.3778 -0.0748 -0.2079
  525MOL0     C70753   3.277   6.693   2.149 -1.2359  0.0450  0.2501
  525MOL0     C70754   3.160   6.590   2.160 -0.2505 -0.2617 -0.9510
  525MOL0     C70755   3.031   6.654   2.223 -0.2522  0.3847 -0.5578
  525MOL0     C70756   2.929   6.537   2.242  0.2240  0.5413  0.2348
  525MOL0     N70757   2.805   6.593   2.297  0.5510  0.5122 -0.2958
  525MOL0     C70758   2.702   6.648   2.226 -0.1732  0.3414 -0.0407
  525MOL0     C70759   2.610   6.670   2.318  0.7600 -0.3750 -0.0910
  525MOL0     C70760   2.477   6.728   2.317 -1.2949  0.7021  1.2050
  525MOL0     C70761   2.386   6.648   2.210  0.1682  0.3268  0.1916
  525MOL0     C70762   2.228   6.694   2.235  0.3652 -0.2092  0.1583
  525MOL0     C70763   2.137   6.613   2.149  0.3555 -0.7089 -0.2266
  525MOL0     O70764   2.010   6.688   2.157  0.3278  0.4186 -0.5929
  525MOL0     C70765   1.902   6.637   2.092  0.1674  0.3881 -0.0922
  525MOL0     C70766   1.910   6.549   1.986 -0.5119  0.5309 -0.5148
  525MOL0     C70767   1.795   6.489   1.936 -0.2686  1.0145  0.0142
  525MOL0     C70768   1.807   6.379   1.835 -0.1895 -0.0227  0.3030
  525MOL0     C70769   1.667   6.543   1.975 -0.5336 -0.4157 -1.2336
  525MOL0     C70770   1.538   6.504   1.912 -0.1360  0.1934 -0.0914
  525MOL0     O70771   1.420   6.535   1.978 -0.3662 -1.1188  0.1302
  525MOL0     C70772   1.313   6.458   1.948 -0.1116 -0.0153  0.5968
  525MOL0     C70773   1.310   6.318   1.932  0.5769 -0.4917  0.1229
  525MOL0     C70774   1.189   6.255   1.909 -0.5090  0.4984  0.4542
  525MOL0     C70775   1.071   6.327   1.922  0.3406  0.6605 -0.4185
  525MOL0     O70776   0.939   6.271   1.917 -0.2365  0.3335 -0.0947
  525MOL0     C70777   0.914   6.138   1.874  0.2435 -0.1219  0.1898
  525MOL0     C70778   0.760   6.114   1.876 -0.3992  0.9014 -0.2227
  525MOL0     C70779   0.674   6.214   1.792  0.4998  0.0583  0.3839
  525MOL0     C70780   0.529   6.189   1.803 -0.6146 -0.1160 -0.1148
  525MOL0     C70781   0.444   6.277   1.714  0.0298 -0.0540 -0.2080
  525MOL0     C70782   0.293   6.257   1.739 -0.3266  0.6202  0.2561
  525MOL0     C70783   0.203   6.311   1.623  0.5045  0.2955 -0.7234
  525MOL0     C70784   0.162   6.211   1.524 -0.1660  0.5493  0.0495
  525MOL0    Cl70785   0.303   6.141   1.440  0.4462  0.1469 -0.0100
  525MOL0     C70786   1.071   6.465   1.937  0.5878  0.0122 -0.3292
  525MOL0     C70787   1.195   6.527   1.947 -0.5130 -1.0002 -0.3908
  525MOL0     O70788   1.537   6.450   1.798  0.3140 -0.4270 -0.6932
  525MOL0     C70789   1.663   6.641   2.078 -0.2924  0.3578 -0.3698
  525MOL0     C70790   1.781   6.689   2.135 -0.0904 -0.0022  0.1828
  525MOL0     N70791   2.670   6.647   2.438  0.5541 -0.0189  0.0967
  525MOL0     N70792   2.792   6.599   2.432  0.1731  0.2793  0.1308
  525MOL0     C70793   3.898   6.846   2.499 -0.8279  0.1634 -1.4078
  525MOL0     C70794   4.026   6.880   2.562  0.2388  0.0276 -0.6756
  525MOL0     C70795   4.500   6.897   2.575 -0.2572  0.6689  0.6080
  525MOL0     C70796   4.627   6.842   2.559 -0.4177  0.7177 -0.8967
  525MOL0     C70797   4.746   6.906   2.598  0.9564  0.1300 -0.5727
  525MOL0     C70798   4.741   7.025   2.667 -0.7405 -0.1767 -0.2300
  525MOL0     O70799   4.853   7.100   2.696 -0.6382  0.0663  0.0964
  525MOL0     C70800   4.980   7.026   2.717  0.0681 -0.1568  0.3415
  525MOL0     C70801   5.077   7.143   2.740  0.8452 -0.5559  0.1753
  525MOL0     C70802   5.216   7.084   2.743 -0.6782 -0.1317  0.2599
  525MOL0     C70803   5.318   7.174   2.687 -0.9001 -0.1543 -0.9063
  525MOL0     C70804   5.457   7.134   2.717 -0.3047  0.4999  0.2784
  525MOL0     C70805   5.562   7.089   2.761  0.3866  0.4475 -0.0143
  525MOL0     C70806   4.609   7.082   2.687 -0.1995  0.5832 -0.3427
  525MOL0     C70807   4.496   7.026   2.643  0.1865 -0.7888 -0.1830
  525MOL0     H70808   4.228   6.854   2.288  2.4563 -1.8474  1.8681
  525MOL0     H70809   4.016   6.800   2.190 -1.6249  0.7522  0.0641
  525MOL0     H70810   3.778   6.772   2.101 -1.8127  1.2550  1.1549
  525MOL0     H70811   3.858   6.621   2.182  1.3130  0.6023  3.0130
  525MOL0     H70812   3.671   6.546   2.094  0.4109  0.8277 -0.6643
  525MOL0     H70813   3.657   6.539   2.262  3.9264 -1.3761 -1.4762
  525MOL0     H70814   3.506   6.733   2.277 -0.2744 -1.1195 -0.6917
  525MOL0     H70815   3.534   6.784   2.111  1.6894  0.2805 -0.9525
  525MOL0     H70816   3.419   6.556   2.047 -1.3426 -0.6864 -0.0936
  525MOL0     H70817   3.403   6.524   2.222 -0.5346  0.4515  0.2652
  525MOL0     H70818   3.276   6.760   2.236 -0.0689  2.1819 -1.2965
  525MOL0     H70819   3.270   6.748   2.055 -2.1194 -0.7397 -0.1539
  525MOL0     H70820   3.142   6.554   2.058 -0.4237 -0.9343 -0.6849
  525MOL0     H70821   3.189   6.519   2.238  1.9025 -0.3839 -1.7943
  525MOL0     H70822   3.049   6.707   2.317  0.9025  0.2319 -0.6771
  525MOL0     H70823   2.979   6.725   2.157 -2.1024  0.8962  1.3493
  525MOL0     H70824   2.977   6.469   2.313 -0.6690 -1.3199 -0.8819
  525MOL0     H70825   2.910   6.479   2.151 -0.0886 -0.2083  0.7764
  525MOL0     H70826   2.704   6.675   2.121  2.7213 -0.1679 -0.1937
  525MOL0     H70827   2.442   6.711   2.419  1.6250 -0.8114  2.0826
  525MOL0     H70828   2.479   6.836   2.302  1.6583  0.6744  0.7181
  525MOL0     H70829   2.391   6.539   2.219  0.7581  0.3838  0.6314
  525MOL0     H70830   2.417   6.675   2.109 -0.7199 -0.3924 -0.2914
  525MOL0     H70831   2.215   6.800   2.213 -0.8098 -0.2027  0.8422
  525MOL0     H70832   2.198   6.692   2.340  2.3836  2.8055  0.9236
  525MOL0     H70833   2.119   6.513   2.190 -3.1801 -0.5050 -0.9899
  525MOL0     H70834   2.177   6.602   2.047  3.4194  0.0598  0.7747
  525MOL0     H70835   1.998   6.496   1.949 -0.3266  0.7290 -0.3529
  525MOL0     H70836   1.776   6.415   1.737  0.9913  0.8998  0.2586
  525MOL0     H70837   1.910   6.344   1.832  0.6873  2.3088  0.9310
  525MOL0     H70838   1.744   6.291   1.858 -0.7448  0.5140  0.8911
  525MOL0     H70839   1.403   6.264   1.938  2.2892  1.7936 -2.8560
  525MOL0     H70840   1.181   6.150   1.880 -0.0755  1.3791 -3.2376
  525MOL0     H70841   0.945   6.114   1.771 -1.5417 -1.5975 -0.0532
  525MOL0     H70842   0.958   6.072   1.949  2.5896  1.1718  0.0688
  525MOL0     H70843   0.728   6.016   1.840 -0.1534  0.7653 -0.0674
  525MOL0     H70844   0.736   6.112   1.983  1.5481  1.8535  0.2780
  525MOL0     H70845   0.703   6.207   1.687 -0.2314  1.6148  0.0592
  525MOL0     H70846   0.693   6.319   1.818 -1.7501  0.9710 -1.3485
  525MOL0     H70847   0.507   6.086   1.773  0.8939 -0.6980  0.6862
  525MOL0     H70848   0.501   6.221   1.904  0.4294  3.9334 -0.8980
  525MOL0     H70849   0.470   6.248   1.611  2.1283  1.5339 -0.1855
  525MOL0     H70850   0.469   6.384   1.715 -2.6425  0.6644  0.6071
  525MOL0     H70851   0.261   6.154   1.758  1.7364 -0.6428 -2.3935
  525MOL0     H70852   0.279   6.317   1.830  2.1088 -0.8697  1.7476
  525MOL0     H70853   0.240   6.393   1.561  0.3288  0.6318 -0.3837
  525MOL0     H70854   0.114   6.355   1.669 -0.0359 -0.4954 -0.9975
  525MOL0     H70855   0.106   6.250   1.439  2.1036 -0.6422 -2.1019
  525MOL0     H70856   0.104   6.131   1.572  1.0145  1.3588  3.0130
  525MOL0     H70857   0.984   6.530   1.933  0.3249 -0.2692  0.5767
  525MOL0     H70858   1.210   6.634   1.954 -0.8220 -0.9503 -0.4826
  525MOL0     H70859   1.568   6.687   2.104  1.0056  1.6245  2.4791
  525MOL0     H70860   1.771   6.757   2.219  1.0058 -1.1168  1.2552
  525MOL0     H70861   3.802   6.852   2.548  0.3473 -0.3621  1.1551
  525MOL0     H70862   4.024   6.923   2.662 -1.4325 -0.7548 -0.3406
  525MOL0     H70863   4.634   6.745   2.511 -0.3365  0.3592 -0.1691
  525MOL0     H70864   4.843   6.860   2.583  1.1190 -1.0886  3.1474
  525MOL0     H70865   4.961   6.956   2.800 -2.8294  0.1344  0.0085
  525MOL0     H70866   5.012   6.967   2.631  1.4259 -0.1869  0.8325
  525MOL0     H70867   5.055   7.199   2.831 -0.8106 -0.1792 -0.4228
  525MOL0     H70868   5.063   7.214   2.657  1.8822 -2.3391 -1.6292
  525MOL0     H70869   5.211   6.987   2.692  0.8987  0.2095 -0.6059
  525MOL0     H70870   5.237   7.065   2.849 -0.3565 -0.7579  0.0887
  525MOL0     H70871   5.313   7.267   2.745  2.6929 -1.3588  1.7352
  525MOL0     H70872   5.318   7.194   2.580  1.9299  0.5821 -0.8645
  525MOL0     H70873   5.664   7.057   2.769  0.5220  0.4162 -1.6618
  525MOL0     H70874   4.612   7.180   2.732  0.0692  0.0022  0.9373
  525MOL0     H70875   4.398   7.070   2.655 -0.2099 -0.7833 -2.9418
  526MOL0     O70876   4.618   6.547   3.525  0.3290  0.0270 -0.7770
  526MOL0     C70877   4.675   6.579   3.422  0.6921 -1.0354 -0.5793
  526MOL0     O70878   4.616   6.653   3.313 -0.1231 -0.6530 -0.0423
  526MOL0     C70879   4.482   6.690   3.313 -0.2663  0.0509  0.3100
  526MOL0     C70880   4.414   6.659   3.200 -0.3004 -0.6268 -0.6613
  526MOL0     C70881   4.279   6.671   3.202 -0.4394 -0.6693  0.2282
  526MOL0     C70882   4.209   6.734   3.310  0.3536 -0.1866  0.2974
  526MOL0     O70883   4.069   6.744   3.310 -0.4867  0.1098 -1.0113
  526MOL0     C70884   4.023   6.868   3.368 -0.3634 -0.4229 -0.0671
  526MOL0     C70885   3.901   6.922   3.297 -0.3241  0.5989 -0.5111
  526MOL0     C70886   3.766   6.838   3.325 -0.2007 -0.9729  0.5913
  526MOL0     C70887   3.646   6.917   3.269  0.1165 -0.5669 -0.1080
  526MOL0     C70888   3.506   6.844   3.280 -0.8461  0.4511  0.3665
  526MOL0     C70889   3.391   6.921   3.220 -0.6842 -0.8377  0.1257
  526MOL0     C70890   3.266   6.887   3.292 -0.0012  0.0513 -0.0654
  526MOL0     C70891   3.172   7.002   3.281  1.2334 -0.0629 -0.6055
  526MOL0     N70892   3.066   6.991   3.384 -0.1850  1.0409  0.2173
  526MOL0     C70893   2.976   6.890   3.393  0.2388  0.5665  0.0002
  526MOL0     C70894   2.878   6.930   3.482 -0.2315 -0.2006  0.0451
  526MOL0     C70895   2.763   6.856   3.522  0.1846 -0.7873  0.7571
  526MOL0     C70896   2.627   6.918   3.491 -0.7325  0.4505  0.9547
  526MOL0     C70897   2.589   7.055   3.556  0.1297 -0.8438 -0.6187
  526MOL0     C70898   2.450   7.091   3.489  0.1284 -0.4420 -1.0673
  526MOL0     O70899   2.385   7.204   3.561 -0.4745  0.3314  0.0745
  526MOL0     C70900   2.251   7.231   3.557 -0.1249  0.0673  0.1515
  526MOL0     C70901   2.164   7.142   3.492 -0.0111 -0.6198 -0.5312
  526MOL0     C70902   2.029   7.169   3.486 -0.5442 -0.4762  0.6923
  526MOL0     C70903   1.956   7.045   3.432  0.4295 -0.1181  0.1471
  526MOL0     C70904   1.973   7.298   3.529 -1.1070 -0.2235  0.6365
  526MOL0     C70905   1.830   7.338   3.515  1.1712  0.1124 -0.8658
  526MOL0     O70906   1.783   7.427   3.602  0.4452  0.0905 -0.4566
  526MOL0     C70907   1.646   7.455   3.613 -0.1171 -0.3641 -0.6119
  526MOL0     C70908   1.620   7.591   3.629  0.2776 -0.3634  0.4940
  526MOL0     C70909   1.488   7.631   3.644 -0.6795  0.1165  0.0909
  526MOL0     C70910   1.389   7.527   3.666  0.6201  0.3349  0.4505
  526MOL0     O70911   1.260   7.580   3.689  0.1686  0.3947  0.6857
  526MOL0     C70912   1.143   7.493   3.668 -0.4610 -0.2237  0.9828
  526MOL0     C70913   1.014   7.570   3.694 -0.2072 -0.4274 -0.5461
  526MOL0     C70914   0.891   7.482   3.721  0.3708 -0.1803 -0.4650
  526MOL0     C70915   0.826   7.425   3.592 -0.5485 -0.2989 -0.1360
  526MOL0     C70916   0.697   7.353   3.625 -0.2150  0.0994  0.4003
  526MOL0     C70917   0.640   7.287   3.500  1.0545  0.6644  0.3358
  526MOL0     C70918   0.567   7.387   3.411 -0.4523 -1.0965 -0.7556
  526MOL0     C70919   0.486   7.312   3.297 -0.3458 -0.0124  0.0926
  526MOL0    Cl70920   0.611   7.275   3.178  0.1425  0.0392 -0.2011
  526MOL0     C70921   1.417   7.398   3.648  0.6050  0.6630 -0.7717
  526MOL0     C70922   1.541   7.359   3.610  0.2534  1.1620  0.7400
  526MOL0     O70923   1.770   7.292   3.415  0.4144 -0.5778 -0.4705
  526MOL0     C70924   2.071   7.388   3.585  0.2919 -0.2314  1.5675
  526MOL0     C70925   2.200   7.346   3.609  0.7701  0.1223  0.2332
  526MOL0     N70926   2.924   7.052   3.533 -0.3286 -0.3172 -0.6256
  526MOL0     N70927   3.025   7.091   3.472  0.1901 -0.1488 -0.4093
  526MOL0     C70928   4.282   6.774   3.424 -0.5855  0.2142  0.6319
  526MOL0     C70929   4.423   6.747   3.425  0.4695  0.7728 -0.0461
  526MOL0     C70930   4.819   6.546   3.412 -1.0267  0.1015 -0.5616
  526MOL0     C70931   4.899   6.592   3.304 -0.4999 -0.3693  0.1500
  526MOL0     C70932   5.037   6.573   3.291  0.0953 -0.6151 -1.1025
  526MOL0     C70933   5.097   6.492   3.387 -0.1721  0.4385 -0.1401
  526MOL0     O70934   5.232   6.477   3.402  0.3919  0.5440 -0.1461
  526MOL0     C70935   5.320   6.523   3.294  0.8105  0.0450  0.6964
  526MOL0     C70936   5.466   6.499   3.337  0.8420  0.1241  0.3051
  526MOL0     C70937   5.570   6.547   3.240  0.6097 -0.6436 -0.2988
  526MOL0     C70938   5.704   6.554   3.316  0.1902 -0.7730  0.5887
  526MOL0     C70939   5.752   6.418   3.350 -0.2968 -0.2109 -0.6340
  526MOL0     C70940   5.808   6.314   3.393  0.1852  0.1251  0.7060
  526MOL0     C70941   5.021   6.421   3.486 -0.2542 -0.8754 -0.4542
  526MOL0     C70942   4.884   6.459   3.499 -0.3393  0.2355  0.0011
  526MOL0     H70943   4.465   6.622   3.112 -0.4647  0.1332 -1.0893
  526MOL0     H70944   4.218   6.638   3.119 -0.0385  2.1941 -1.3464
  526MOL0     H70945   3.991   6.848   3.471  1.3474  1.6712  0.9486
  526MOL0     H70946   4.099   6.946   3.375 -2.0334  1.1872  0.8301
  526MOL0     H70947   3.890   7.028   3.323 -0.2642  0.7800 -1.1927
  526MOL0     H70948   3.926   6.909   3.191  3.8601 -2.6131  0.6437
  526MOL0     H70949   3.776   6.737   3.285 -0.5504 -1.0927  0.7990
  526MOL0     H70950   3.751   6.834   3.433  1.0218 -0.7836  0.7785
  526MOL0     H70951   3.640   7.013   3.320  3.3314 -0.2741 -0.0600
  526MOL0     H70952   3.649   6.948   3.164 -2.0753 -1.4179 -0.4786
  526MOL0     H70953   3.510   6.748   3.228 -0.2288 -1.5465  3.8341
  526MOL0     H70954   3.487   6.825   3.386  1.5016 -1.9170  0.4580
  526MOL0     H70955   3.416   7.027   3.227 -0.1791 -0.7391 -2.3486
  526MOL0     H70956   3.384   6.903   3.113  1.3028 -1.5130  0.0526
  526MOL0     H70957   3.221   6.797   3.250 -1.7633  0.3871  1.0187
  526MOL0     H70958   3.285   6.882   3.399  0.6969  4.2429  0.1884
  526MOL0     H70959   3.120   7.020   3.187 -0.5243 -2.8713 -0.3062
  526MOL0     H70960   3.231   7.090   3.304  2.0343 -0.2404 -1.9179
  526MOL0     H70961   2.972   6.798   3.335  0.3723 -0.9704  2.2698
  526MOL0     H70962   2.766   6.760   3.470  0.0710  0.4115 -1.5882
  526MOL0     H70963   2.781   6.850   3.630  1.5077 -1.7860  0.5155
  526MOL0     H70964   2.551   6.844   3.520  0.6386 -1.3605  0.1406
  526MOL0     H70965   2.619   6.925   3.382  0.8796 -0.4504  0.7423
  526MOL0     H70966   2.660   7.136   3.534 -0.7142  0.2205  0.4700
  526MOL0     H70967   2.578   7.055   3.665 -2.3026  2.0316 -0.7572
  526MOL0     H70968   2.390   7.003   3.514 -1.3714  0.5761 -0.9475
  526MOL0     H70969   2.459   7.108   3.381  2.0596 -1.5786 -1.1321
  526MOL0     H70970   2.210   7.061   3.438  3.0158  0.1234  0.6916
  526MOL0     H70971   1.974   7.018   3.328  3.2827 -0.1350  0.5657
  526MOL0     H70972   1.975   6.956   3.493  0.9188  0.8830  1.5362
  526MOL0     H70973   1.850   7.066   3.450  0.4079 -0.3486  0.2816
  526MOL0     H70974   1.700   7.665   3.625  1.1232 -1.2106  1.2872
  526MOL0     H70975   1.471   7.738   3.646 -1.0942  0.0437  0.4147
  526MOL0     H70976   1.137   7.451   3.567 -1.0079  2.9269 -0.3997
  526MOL0     H70977   1.142   7.411   3.741 -0.4788 -1.9801 -0.8820
  526MOL0     H70978   1.028   7.642   3.776  2.0797  1.5513 -2.5280
  526MOL0     H70979   1.000   7.627   3.602  0.9682 -2.4979 -2.0844
  526MOL0     H70980   0.813   7.527   3.782 -0.0378 -0.5210 -0.7242
  526MOL0     H70981   0.921   7.394   3.779 -2.1531 -2.3016 -2.1264
  526MOL0     H70982   0.793   7.499   3.518 -0.2801 -0.8920 -0.8714
  526MOL0     H70983   0.887   7.352   3.538 -1.0337 -1.2477  0.5719
  526MOL0     H70984   0.618   7.417   3.664 -1.6809 -2.3348  1.6989
  526MOL0     H70985   0.714   7.282   3.707  0.2924  0.6223  0.7590
  526MOL0     H70986   0.720   7.244   3.439  0.3800  0.8429 -0.7116
  526MOL0     H70987   0.576   7.206   3.537  1.6598 -1.1805 -2.3262
  526MOL0     H70988   0.630   7.467   3.371  0.2783 -0.7366  1.0375
  526MOL0     H70989   0.497   7.448   3.469  1.7913  1.7864 -0.8117
  526MOL0     H70990   0.409   7.370   3.246 -0.4124  1.7257  2.0409
  526MOL0     H70991   0.439   7.222   3.336 -1.5009 -0.1375 -1.5047
  526MOL0     H70992   1.347   7.316   3.660  0.9995  0.3394 -0.6387
  526MOL0     H70993   1.551   7.259   3.569  0.6318  2.7925 -3.8186
  526MOL0     H70994   2.052   7.492   3.609 -0.6108  0.2333 -0.9470
  526MOL0     H70995   2.270   7.409   3.662  1.6863 -0.7904  0.1399
  526MOL0     H70996   4.233   6.820   3.509 -3.8513  0.5938 -1.2951
  526MOL0     H70997   4.486   6.769   3.510 -1.4537  2.8587  0.9466
  526MOL0     H70998   4.855   6.656   3.229  1.2489 -0.6207 -1.1658
  526MOL0     H70999   5.089   6.620   3.209 -0.3802  0.2049 -0.9428
  526MOL0     H71000   5.301   6.466   3.203 -1.7758  2.8525 -0.7002
  526MOL0     H71001   5.316   6.632   3.286  0.9651  0.1421  1.7830
  526MOL0     H71002   5.470   6.391   3.355 -2.6483 -0.1153  0.2002
  526MOL0     H71003   5.462   6.554   3.431 -2.4561 -1.3664  1.1948
  526MOL0     H71004   5.546   6.651   3.214 -0.5591 -0.7852  0.1638
  526MOL0     H71005   5.582   6.490   3.147  2.3592  0.4137 -0.7687
  526MOL0     H71006   5.682   6.623   3.398 -3.1317 -0.4343 -0.4089
  526MOL0     H71007   5.774   6.600   3.245 -0.0884 -1.9180 -0.4713
  526MOL0     H71008   5.849   6.215   3.401  0.6009  0.2969  0.6881
  526MOL0     H71009   5.070   6.354   3.556  0.0984 -1.5578 -1.3298
  526MOL0     H71010   4.818   6.409   3.569 -0.7605  1.2763  0.3641
  527MOL0     O71011   8.549   8.181   6.264  0.1106  0.2063 -0.0997
  527MOL0     C71012   8.652   8.214   6.323 -0.0072 -0.5636 -0.7745
  527MOL0     O71013   8.666   8.290   6.435  0.7421 -0.7046 -0.9213
  527MOL0     C71014   8.563   8.366   6.500 -0.5134  0.1404  0.1701
  527MOL0     C71015   8.431   8.352   6.475  0.6451 -0.3300  0.5526
  527MOL0     C71016   8.345   8.442   6.528  0.4808  0.2905 -0.0717
  527MOL0     C71017   8.390   8.549   6.610  0.1404  1.3389 -0.2815
  527MOL0     O71018   8.303   8.649   6.660 -0.5377  0.3364 -0.0384
  527MOL0     C71019   8.161   8.632   6.648  0.0231 -0.0426 -0.2850
  527MOL0     C71020   8.071   8.719   6.742  0.5866 -0.8685  0.3992
  527MOL0     C71021   7.940   8.767   6.673  0.6590 -0.4186  0.1311
  527MOL0     C71022   7.842   8.662   6.640  0.4098  0.3796  0.1109
  527MOL0     C71023   7.711   8.710   6.587  0.5488  0.2655  0.3203
  527MOL0     C71024   7.665   8.642   6.458  0.5020 -0.3408 -0.6289
  527MOL0     C71025   7.523   8.658   6.416  0.5065 -0.6890 -0.3851
  527MOL0     C71026   7.487   8.555   6.310  0.0557  0.5311 -0.2096
  527MOL0     N71027   7.352   8.570   6.252 -0.0221  0.3614  0.3380
  527MOL0     C71028   7.236   8.590   6.322 -0.2319 -0.0101 -0.6840
  527MOL0     C71029   7.136   8.601   6.228 -0.1738  0.0453 -0.4602
  527MOL0     C71030   6.997   8.622   6.260 -0.8366  0.5161 -0.2409
  527MOL0     C71031   6.972   8.680   6.397  0.4999 -0.2142  0.2843
  527MOL0     C71032   6.819   8.687   6.439 -1.3771 -0.0241  0.9566
  527MOL0     C71033   6.800   8.714   6.595 -0.5803  0.0069 -0.3703
  527MOL0     O71034   6.835   8.845   6.611  0.3803 -0.2808 -0.2003
  527MOL0     C71035   6.761   8.906   6.717  0.2595  0.2394  0.8349
  527MOL0     C71036   6.705   8.839   6.836  0.4406  0.0490  0.1105
  527MOL0     C71037   6.617   8.910   6.919  0.0960  0.5594 -0.2018
  527MOL0     C71038   6.539   8.836   7.018  0.7270  0.5169 -0.4609
  527MOL0     C71039   6.600   9.051   6.898 -0.1794  0.9456 -0.7083
  527MOL0     C71040   6.537   9.138   6.999  0.2160  0.2453 -0.3488
  527MOL0     O71041   6.431   9.206   6.960  0.5525 -0.7858  0.6733
  527MOL0     C71042   6.345   9.279   7.037 -0.3252  0.0604 -0.9120
  527MOL0     C71043   6.237   9.316   6.962 -0.4395  0.0688 -0.9453
  527MOL0     C71044   6.131   9.398   7.019  0.2792  0.8349 -0.7633
  527MOL0     C71045   6.127   9.419   7.153  0.6734  0.1610  0.9763
  527MOL0     O71046   6.017   9.462   7.216 -0.0853  0.0586 -0.4412
  527MOL0     C71047   5.915   9.532   7.149 -0.4459  0.5077 -0.3982
  527MOL0     C71048   5.801   9.580   7.242 -0.2274 -0.4185 -0.2577
  527MOL0     C71049   5.687   9.646   7.161 -0.4197 -0.3313  0.9966
  527MOL0     C71050   5.568   9.673   7.260  0.1386 -0.0668 -0.8402
  527MOL0     C71051   5.449   9.752   7.195 -0.1996  0.1456  0.2187
  527MOL0     C71052   5.320   9.747   7.280  0.4413  0.2340  0.4664
  527MOL0     C71053   5.196   9.804   7.204 -0.9577 -0.0802 -0.6361
  527MOL0     C71054   5.087   9.841   7.300  0.5503  0.8611 -0.4440
  527MOL0    Cl71055   4.941   9.890   7.203 -0.3527  0.1982 -0.2256
  527MOL0     C71056   6.234   9.372   7.233  0.1785 -0.6392  0.2228
  527MOL0     C71057   6.345   9.309   7.171 -0.0844  0.4823 -0.2106
  527MOL0     O71058   6.588   9.140   7.112 -0.0710  0.2914 -0.5225
  527MOL0     C71059   6.675   9.118   6.801  1.0234  0.1991  0.2296
  527MOL0     C71060   6.753   9.048   6.703  0.5475 -0.0236  0.0798
  527MOL0     N71061   7.189   8.575   6.103 -0.1761 -0.6320  0.0299
  527MOL0     N71062   7.319   8.563   6.119  0.4592 -0.0804 -1.0315
  527MOL0     C71063   8.524   8.550   6.643 -0.2687 -0.6136  0.1353
  527MOL0     C71064   8.611   8.466   6.583 -0.7341 -0.0156  1.0408
  527MOL0     C71065   8.785   8.185   6.253 -0.3984  0.1022 -0.5232
  527MOL0     C71066   8.794   8.067   6.182 -0.6702 -0.1016  0.2137
  527MOL0     C71067   8.900   8.054   6.088 -0.1498 -0.5176 -0.5835
  527MOL0     C71068   9.003   8.144   6.085 -0.3735  0.0542 -0.1306
  527MOL0     O71069   9.103   8.122   5.988  0.3630 -0.8128  0.3718
  527MOL0     C71070   9.232   8.189   5.996  0.6916  0.1217  0.5369
  527MOL0     C71071   9.229   8.330   5.939  0.8981 -0.0738  0.1781
  527MOL0     C71072   9.367   8.398   5.959  0.0168 -0.0427 -0.1964
  527MOL0     C71073   9.394   8.514   5.858  0.3318  0.2830  0.5214
  527MOL0     C71074   9.531   8.550   5.867 -0.2002 -0.6481 -0.8168
  527MOL0     C71075   9.651   8.580   5.883  0.0004 -0.1497 -0.2440
  527MOL0     C71076   9.005   8.249   6.176  0.8541 -0.2587 -0.9859
  527MOL0     C71077   8.892   8.279   6.256 -0.4151 -0.0858  0.4663
  527MOL0     H71078   8.389   8.276   6.409  1.1792  1.0955 -1.5130
  527MOL0     H71079   8.239   8.424   6.510  0.0916 -0.0078  2.2004
  527MOL0     H71080   8.133   8.636   6.542 -1.2197 -0.7026  0.0031
  527MOL0     H71081   8.136   8.531   6.682  1.0805  0.2356  1.4241
  527MOL0     H71082   8.047   8.671   6.838 -1.9914 -0.6364 -0.0642
  527MOL0     H71083   8.125   8.810   6.770 -0.7649 -0.9979  4.0163
  527MOL0     H71084   7.893   8.843   6.737 -3.8064 -2.2548 -0.5903
  527MOL0     H71085   7.962   8.810   6.575 -0.9302 -2.9391 -1.4454
  527MOL0     H71086   7.883   8.589   6.569 -2.4774  0.0424 -1.3395
  527MOL0     H71087   7.823   8.613   6.736 -2.8691  3.9997  1.5587
  527MOL0     H71088   7.634   8.692   6.663  1.4370  1.5213  1.5488
  527MOL0     H71089   7.709   8.816   6.563 -2.9029  0.2946  0.2712
  527MOL0     H71090   7.732   8.667   6.375  0.1523 -0.0527 -0.8285
  527MOL0     H71091   7.669   8.535   6.480 -1.0535 -0.2403  0.2987
  527MOL0     H71092   7.471   8.640   6.510  1.6372 -0.3301  0.3252
  527MOL0     H71093   7.486   8.758   6.392  0.9089 -0.6590 -0.9126
  527MOL0     H71094   7.499   8.460   6.363  1.2770  1.0289  0.4498
  527MOL0     H71095   7.562   8.554   6.230  0.1590 -1.6241 -0.1398
  527MOL0     H71096   7.235   8.596   6.431 -0.0595 -0.9596 -0.6233
  527MOL0     H71097   6.958   8.695   6.189  4.3112  3.1134 -0.8314
  527MOL0     H71098   6.946   8.525   6.266 -1.8216  1.0939  1.7924
  527MOL0     H71099   7.010   8.782   6.390  1.1787 -0.5463 -3.9382
  527MOL0     H71100   7.022   8.628   6.478  2.2381  0.2120 -0.4680
  527MOL0     H71101   6.767   8.603   6.393  1.5436  0.1531 -3.2378
  527MOL0     H71102   6.768   8.764   6.381 -0.4671 -1.1494 -1.4934
  527MOL0     H71103   6.855   8.647   6.661 -0.6108 -0.5989 -0.9513
  527MOL0     H71104   6.691   8.706   6.608 -0.2984 -0.4936  2.0519
  527MOL0     H71105   6.729   8.735   6.852  1.3315  0.5854  2.7250
  527MOL0     H71106   6.546   8.730   6.994  0.0939  0.9823 -3.1181
  527MOL0     H71107   6.565   8.857   7.122 -1.9761  0.8097  0.2287
  527MOL0     H71108   6.434   8.867   7.008  0.1922 -1.2065 -0.5147
  527MOL0     H71109   6.229   9.280   6.859  1.7592 -0.6084 -0.9361
  527MOL0     H71110   6.047   9.430   6.959  0.2475 -2.8999 -3.0502
  527MOL0     H71111   5.959   9.616   7.094  0.6499  0.6677  0.6834
  527MOL0     H71112   5.865   9.459   7.086 -2.6330  1.7355 -0.1844
  527MOL0     H71113   5.759   9.485   7.277  0.7433 -0.1360  1.7726
  527MOL0     H71114   5.836   9.644   7.322  2.3162 -3.9389  1.7100
  527MOL0     H71115   5.661   9.582   7.076  0.4065  2.0026 -1.1570
  527MOL0     H71116   5.719   9.746   7.128  1.5930 -0.7596  1.5079
  527MOL0     H71117   5.518   9.579   7.285  0.1572 -1.0418 -3.9942
  527MOL0     H71118   5.592   9.726   7.352 -4.9361  0.7766  0.3322
  527MOL0     H71119   5.438   9.719   7.091 -0.8871  2.4767 -0.5099
  527MOL0     H71120   5.472   9.856   7.172 -2.0818 -0.1677 -4.0957
  527MOL0     H71121   5.307   9.640   7.297 -0.4580 -0.6028 -4.1476
  527MOL0     H71122   5.333   9.808   7.369 -1.6638 -0.3581  1.2217
  527MOL0     H71123   5.160   9.733   7.129 -0.1308 -2.3879  1.0403
  527MOL0     H71124   5.220   9.900   7.157 -0.5050  0.0964 -0.0723
  527MOL0     H71125   5.121   9.918   7.369 -0.8393  0.1314  1.1029
  527MOL0     H71126   5.051   9.750   7.350  0.3643  0.0045 -2.0435
  527MOL0     H71127   6.242   9.391   7.340  3.7595 -1.4661  0.2348
  527MOL0     H71128   6.436   9.279   7.223  1.7541  2.5968 -2.0018
  527MOL0     H71129   6.674   9.225   6.817  3.0716 -0.1348  3.6273
  527MOL0     H71130   6.805   9.113   6.634 -2.0665  1.3785 -0.7173
  527MOL0     H71131   8.551   8.631   6.709 -4.5568 -0.7840  2.4973
  527MOL0     H71132   8.715   8.473   6.614 -0.8179 -2.0757  2.0027
  527MOL0     H71133   8.717   7.990   6.178  2.1167 -3.0764 -1.0283
  527MOL0     H71134   8.913   7.970   6.020 -0.4277 -3.0929  2.3319
  527MOL0     H71135   9.262   8.188   6.101  0.0480 -3.5296  0.8321
  527MOL0     H71136   9.307   8.124   5.949 -0.3716 -1.4413  0.9223
  527MOL0     H71137   9.152   8.396   5.979  3.0133  2.0609  0.9366
  527MOL0     H71138   9.211   8.326   5.831 -0.3325  0.9687  0.3275
  527MOL0     H71139   9.446   8.324   5.939 -1.4459 -2.0907  1.1241
  527MOL0     H71140   9.390   8.448   6.053  0.8927  0.3821 -0.6207
  527MOL0     H71141   9.317   8.590   5.869 -1.5042 -1.2953 -0.7726
  527MOL0     H71142   9.380   8.479   5.755 -0.3138  0.1730  0.6477
  527MOL0     H71143   9.755   8.598   5.898 -0.0826 -0.2452  0.4970
  527MOL0     H71144   9.085   8.322   6.170 -0.5490  1.2701 -2.2596
  527MOL0     H71145   8.873   8.363   6.322 -2.5417  0.6485 -0.9780
  528MOL0     O71146   7.578   8.905   4.583  0.4137 -0.1853 -0.5347
  528MOL0     C71147   7.496   8.878   4.498 -0.2510  0.4640  0.0233
  528MOL0     O71148   7.530   8.815   4.381 -0.0576  0.0715  0.0254
  528MOL0     C71149   7.662   8.771   4.371 -0.3771 -0.2667 -0.6808
  528MOL0     C71150   7.696   8.652   4.437  0.8092  0.3800 -0.4772
  528MOL0     C71151   7.812   8.589   4.411 -0.0481  0.4011  1.0444
  528MOL0     C71152   7.911   8.641   4.321  0.7890  0.2157  0.2494
  528MOL0     O71153   8.026   8.574   4.282 -0.2665 -0.5095 -0.5585
  528MOL0     C71154   8.073   8.474   4.367  0.5977  0.4723 -1.0402
  528MOL0     C71155   8.205   8.416   4.305 -0.6121 -0.4419 -0.0831
  528MOL0     C71156   8.316   8.523   4.289  0.1291  0.1478  0.4382
  528MOL0     C71157   8.336   8.597   4.427 -0.4932 -0.4299 -0.7477
  528MOL0     C71158   8.454   8.696   4.415 -0.5901 -0.1854 -0.0822
  528MOL0     C71159   8.420   8.828   4.349  1.2717 -0.2447 -0.0940
  528MOL0     C71160   8.535   8.933   4.360  0.0756  0.4886 -0.4605
  528MOL0     C71161   8.660   8.876   4.303  0.3862 -0.3697  0.4556
  528MOL0     N71162   8.777   8.967   4.272  0.6771 -0.0662 -0.3015
  528MOL0     C71163   8.909   8.924   4.241  0.2940  0.4089  1.3476
  528MOL0     C71164   8.969   9.041   4.241 -0.6337 -0.3331 -0.3346
  528MOL0     C71165   9.119   9.074   4.210  0.0994  0.5635  0.1359
  528MOL0     C71166   9.172   9.044   4.068 -0.2245 -0.0394 -0.9260
  528MOL0     C71167   9.094   9.115   3.961  0.1752  0.1553  0.3802
  528MOL0     C71168   9.090   9.269   3.963 -0.2008  0.6654  0.1399
  528MOL0     O71169   9.039   9.318   3.842 -0.1942 -0.8573  0.3555
  528MOL0     C71170   8.909   9.290   3.809 -0.2492  0.0488  0.1945
  528MOL0     C71171   8.803   9.240   3.887  0.9657 -0.5022  0.0119
  528MOL0     C71172   8.683   9.199   3.828 -0.2515 -0.6472  0.0960
  528MOL0     C71173   8.586   9.135   3.923 -1.1891  0.3155 -0.4992
  528MOL0     C71174   8.664   9.206   3.687 -0.3496 -0.5607 -0.5430
  528MOL0     C71175   8.535   9.161   3.616 -0.4855 -0.2752  0.9095
  528MOL0     O71176   8.539   9.175   3.478 -0.6470 -1.0250 -0.4812
  528MOL0     C71177   8.437   9.118   3.406 -1.1722 -0.2254 -0.4134
  528MOL0     C71178   8.338   9.199   3.368 -0.3629  0.4547  0.2360
  528MOL0     C71179   8.229   9.134   3.308  1.0341 -0.4942 -0.6272
  528MOL0     C71180   8.217   8.993   3.295 -0.3022 -1.1629 -0.0648
  528MOL0     O71181   8.106   8.947   3.230 -0.1368 -0.0315  0.4567
  528MOL0     C71182   8.137   8.889   3.106  0.1709 -0.0779 -0.1982
  528MOL0     C71183   8.004   8.872   3.023  0.1998  0.3188  0.7485
  528MOL0     C71184   7.926   9.005   3.003  0.7812 -0.2863  0.1715
  528MOL0     C71185   7.773   8.984   2.989 -0.1213  0.6086 -0.0459
  528MOL0     C71186   7.703   9.123   2.982 -0.8172  0.4430 -0.0159
  528MOL0     C71187   7.552   9.117   2.955 -0.5694 -0.5219  0.1349
  528MOL0     C71188   7.495   9.261   2.961  1.3800 -0.3540  0.7182
  528MOL0     C71189   7.340   9.272   2.925 -1.4628 -0.5555  0.0495
  528MOL0    Cl71190   7.248   9.177   3.040  0.4249  0.1188  0.0054
  528MOL0     C71191   8.323   8.919   3.343  0.3109  0.9103  0.7286
  528MOL0     C71192   8.431   8.978   3.400 -0.4158  0.4289  0.5023
  528MOL0     O71193   8.447   9.118   3.681  0.4000 -0.3806 -0.2541
  528MOL0     C71194   8.773   9.253   3.613  0.3058 -0.7203 -0.0192
  528MOL0     C71195   8.892   9.294   3.668 -1.0227  0.2132 -0.5365
  528MOL0     N71196   8.879   9.148   4.264  0.1622  0.1949  0.7645
  528MOL0     N71197   8.764   9.100   4.288 -0.4199  0.2818  0.1422
  528MOL0     C71198   7.882   8.770   4.273 -0.9554  0.1535 -0.3435
  528MOL0     C71199   7.759   8.836   4.293 -0.0568 -0.5425  0.1081
  528MOL0     C71200   7.359   8.931   4.517  0.8753  0.1374  0.0682
  528MOL0     C71201   7.256   8.896   4.425  0.2638 -0.0070 -0.6713
  528MOL0     C71202   7.130   8.956   4.428  0.4164  0.2716  0.4742
  528MOL0     C71203   7.100   9.040   4.531  0.0990 -0.4647  0.3247
  528MOL0     O71204   6.977   9.107   4.525 -1.0444 -0.3527 -0.0574
  528MOL0     C71205   6.920   9.143   4.650 -0.5565 -0.0904 -0.7768
  528MOL0     C71206   6.771   9.143   4.655 -0.4671  0.1686 -0.1320
  528MOL0     C71207   6.717   9.001   4.640 -0.3948 -0.2061 -0.4959
  528MOL0     C71208   6.566   8.979   4.660 -0.1631 -0.3100  0.0825
  528MOL0     C71209   6.477   9.078   4.598  0.2998  0.1122 -0.1280
  528MOL0     C71210   6.406   9.162   4.547  0.3018 -0.1131  0.5259
  528MOL0     C71211   7.198   9.068   4.620 -0.2503 -0.8264  0.4478
  528MOL0     C71212   7.328   9.020   4.614  0.0065 -0.0610 -0.0352
  528MOL0     H71213   7.630   8.608   4.511  1.3952 -1.2504 -0.8810
  528MOL0     H71214   7.828   8.490   4.452 -0.4061 -1.0201 -1.9904
  528MOL0     H71215   8.069   8.495   4.474 -1.7244 -2.2091 -0.4879
  528MOL0     H71216   8.001   8.392   4.361 -0.9823  1.5562  1.3638
  528MOL0     H71217   8.250   8.340   4.370  0.8580  0.7447  0.3437
  528MOL0     H71218   8.172   8.359   4.218 -2.3242  3.3048 -2.1520
  528MOL0     H71219   8.407   8.474   4.253 -0.8091  0.8001 -3.2615
  528MOL0     H71220   8.292   8.592   4.207  0.5804 -1.1676 -0.8648
  528MOL0     H71221   8.248   8.651   4.462  0.3806  0.8580 -0.4839
  528MOL0     H71222   8.363   8.530   4.510 -0.4129  0.6889  0.1452
  528MOL0     H71223   8.481   8.717   4.518 -0.9168  1.5066 -0.3062
  528MOL0     H71224   8.536   8.642   4.367  1.3105 -0.1966  2.9269
  528MOL0     H71225   8.386   8.808   4.247  1.2433  1.1049 -0.3634
  528MOL0     H71226   8.333   8.867   4.403  0.7614  0.7375 -1.5350
  528MOL0     H71227   8.514   9.023   4.303 -0.3009 -0.7517 -2.3630
  528MOL0     H71228   8.548   8.960   4.465  1.5508  0.4966 -0.6258
  528MOL0     H71229   8.637   8.828   4.208  2.1121 -0.8936  0.2603
  528MOL0     H71230   8.692   8.802   4.377 -0.1789 -0.6712  0.4044
  528MOL0     H71231   8.948   8.824   4.226  2.0153  0.9172  2.2115
  528MOL0     H71232   9.141   9.176   4.240  2.7985  0.9665 -2.7716
  528MOL0     H71233   9.173   9.012   4.282 -0.4548  1.0857  1.0144
  528MOL0     H71234   9.154   8.937   4.057  1.4719 -0.3047 -1.4589
  528MOL0     H71235   9.280   9.058   4.058 -0.1200  0.2313  0.4319
  528MOL0     H71236   8.993   9.075   3.972  0.2062  0.3610  1.4947
  528MOL0     H71237   9.125   9.077   3.863 -0.9534  1.6331 -0.5811
  528MOL0     H71238   9.194   9.302   3.971  0.2387  0.0919 -2.3682
  528MOL0     H71239   9.035   9.302   4.052 -0.6718 -0.2925  0.2158
  528MOL0     H71240   8.808   9.240   3.995 -0.4495  0.7795  0.1118
  528MOL0     H71241   8.491   9.189   3.923 -1.4675 -0.1527  0.6576
  528MOL0     H71242   8.581   9.027   3.905  1.6062  0.1058 -0.5811
  528MOL0     H71243   8.625   9.156   4.023 -1.3306  1.1375 -0.6109
  528MOL0     H71244   8.344   9.307   3.381  2.1819  0.4020  0.0344
  528MOL0     H71245   8.152   9.202   3.272 -1.1199 -0.1254  3.9761
  528MOL0     H71246   8.204   8.954   3.050 -1.1332  1.6475  0.1879
  528MOL0     H71247   8.172   8.786   3.118 -0.4576 -0.4047 -1.1066
  528MOL0     H71248   8.037   8.817   2.934  1.1711 -2.7734  2.8535
  528MOL0     H71249   7.941   8.797   3.072  1.4969 -1.7332 -0.5836
  528MOL0     H71250   7.953   9.067   2.917  0.3131 -0.1621  0.1106
  528MOL0     H71251   7.939   9.064   3.094 -0.5215  0.6206 -0.2039
  528MOL0     H71252   7.755   8.922   2.901  6.0266 -3.6668  1.0475
  528MOL0     H71253   7.739   8.914   3.066  1.2464  0.7859  0.7521
  528MOL0     H71254   7.755   9.174   2.901  0.1377  1.1779  1.0216
  528MOL0     H71255   7.724   9.173   3.077  0.5120  1.8226 -1.0060
  528MOL0     H71256   7.538   9.061   2.862 -0.0353 -0.3395 -0.0581
  528MOL0     H71257   7.505   9.062   3.037  0.0416 -0.0804  0.7913
  528MOL0     H71258   7.549   9.319   2.886 -1.4110 -0.8883 -1.9158
  528MOL0     H71259   7.508   9.297   3.063 -1.7238 -0.3756  1.1971
  528MOL0     H71260   7.320   9.250   2.820  0.8762 -2.3433 -0.1040
  528MOL0     H71261   7.326   9.377   2.954  1.6374 -0.3419  1.1958
  528MOL0     H71262   8.325   8.810   3.342  1.3365  0.8949 -1.6918
  528MOL0     H71263   8.513   8.923   3.444 -1.8066 -0.9917  1.4327
  528MOL0     H71264   8.765   9.247   3.505 -3.2583  2.6337 -0.1451
  528MOL0     H71265   8.973   9.316   3.599 -1.8704  2.5986 -0.8740
  528MOL0     H71266   7.953   8.823   4.210  1.5572  0.5089  2.5713
  528MOL0     H71267   7.733   8.928   4.243 -1.6925  0.5109  2.6882
  528MOL0     H71268   7.270   8.832   4.339  1.1467 -0.8085  0.0556
  528MOL0     H71269   7.054   8.931   4.354 -0.3472 -1.5559  1.8192
  528MOL0     H71270   6.962   9.078   4.727 -0.0092 -0.9965 -1.8125
  528MOL0     H71271   6.960   9.243   4.663 -0.4638 -0.2830  0.5559
  528MOL0     H71272   6.749   9.199   4.563  0.7807  1.1600  0.1455
  528MOL0     H71273   6.720   9.186   4.742 -0.6530 -4.3753  2.3147
  528MOL0     H71274   6.759   8.944   4.724  0.9160 -0.1707 -1.0943
  528MOL0     H71275   6.754   8.967   4.543 -0.5932 -2.8412  0.2909
  528MOL0     H71276   6.547   8.985   4.767  0.3476  2.4902  0.1020
  528MOL0     H71277   6.544   8.877   4.627 -0.2129 -0.0765 -0.6403
  528MOL0     H71278   6.323   9.223   4.518  0.1344 -0.4765  0.2271
  528MOL0     H71279   7.189   9.151   4.690 -0.1010  1.7595 -2.3637
  528MOL0     H71280   7.403   9.059   4.681 -1.8061  0.1637  1.9844
  529MOL0     O71281   0.469   7.335   2.141 -0.0095  0.4626 -0.1518
  529MOL0     C71282   0.479   7.442   2.086  0.3737 -1.0871  0.0570
  529MOL0     O71283   0.377   7.522   2.056 -0.1433  0.7660  0.3700
  529MOL0     C71284   0.255   7.469   2.088 -0.1620 -0.2495 -0.4446
  529MOL0     C71285   0.186   7.394   1.990 -0.0363  0.4684  0.4626
  529MOL0     C71286   0.056   7.340   2.018 -0.4912  0.4818 -0.9362
  529MOL0     C71287   0.012   7.339   2.153  0.1314  0.1940  0.3780
  529MOL0     O71288  -0.117   7.289   2.179  1.1863 -0.2053  0.4018
  529MOL0     C71289  -0.128   7.222   2.306  0.4119 -0.1176  0.4338
  529MOL0     C71290  -0.265   7.164   2.318 -0.1318  0.7971  0.2297
  529MOL0     C71291  -0.366   7.255   2.383  0.2429  0.4072  0.1054
  529MOL0     C71292  -0.499   7.184   2.372 -0.1334 -0.4187  0.1187
  529MOL0     C71293  -0.599   7.261   2.460 -0.6618  0.5162  0.0181
  529MOL0     C71294  -0.601   7.230   2.611 -0.5864  0.8235  0.0310
  529MOL0     C71295  -0.634   7.091   2.649 -0.5575  1.2194 -0.2591
  529MOL0     C71296  -0.703   7.083   2.787 -0.4512 -0.0694  0.4839
  529MOL0     N71297  -0.779   6.963   2.821  0.0585 -0.4712 -0.1867
  529MOL0     C71298  -0.887   6.915   2.750 -0.2924  0.1981 -0.2452
  529MOL0     C71299  -0.898   6.784   2.782  0.4359  1.2613 -1.0499
  529MOL0     C71300  -1.012   6.696   2.731  0.1178 -0.2013 -0.1891
  529MOL0     C71301  -1.021   6.560   2.796  0.7911  0.2673 -0.0164
  529MOL0     C71302  -1.134   6.478   2.741 -0.5132 -0.5086  0.7757
  529MOL0     C71303  -1.127   6.333   2.791  0.4266 -0.5653 -0.4717
  529MOL0     O71304  -1.245   6.253   2.818  0.0875  0.1573 -0.7715
  529MOL0     C71305  -1.337   6.240   2.715 -0.2049  0.4523 -0.3080
  529MOL0     C71306  -1.307   6.200   2.584  0.1724  0.2089  0.1588
  529MOL0     C71307  -1.411   6.168   2.495 -0.0830  0.4037  0.5835
  529MOL0     C71308  -1.377   6.103   2.360  0.7408  0.4857 -0.1147
  529MOL0     C71309  -1.543   6.205   2.527 -0.2092  0.6939 -0.2810
  529MOL0     C71310  -1.659   6.200   2.429 -0.0029 -0.1186  0.2175
  529MOL0     O71311  -1.656   6.107   2.333  0.3640  0.0355 -0.4382
  529MOL0     C71312  -1.778   6.082   2.270  0.0602 -0.4372  0.3072
  529MOL0     C71313  -1.814   6.169   2.166 -0.5806 -0.0825  1.1394
  529MOL0     C71314  -1.927   6.150   2.087  0.9607 -0.0983 -0.6486
  529MOL0     C71315  -2.014   6.043   2.122 -0.0533  0.8809 -1.1203
  529MOL0     O71316  -2.135   6.009   2.062 -0.3963 -0.4701 -0.3489
  529MOL0     C71317  -2.226   6.113   2.057  0.7594 -0.0510  0.5060
  529MOL0     C71318  -2.342   6.054   1.979 -0.3425 -0.3081 -0.1137
  529MOL0     C71319  -2.303   6.055   1.835  0.0436 -0.6662  1.0216
  529MOL0     C71320  -2.429   6.058   1.756 -0.0743  0.5372 -0.5037
  529MOL0     C71321  -2.408   6.045   1.606 -0.0373 -0.1834 -0.1082
  529MOL0     C71322  -2.380   5.901   1.549 -0.4567 -0.6565 -0.3953
  529MOL0     C71323  -2.492   5.807   1.578 -0.4342 -0.1216 -0.9205
  529MOL0     C71324  -2.465   5.680   1.499  0.3433  0.0659 -0.5214
  529MOL0    Cl71325  -2.594   5.567   1.542  0.4349 -0.0257  0.0174
  529MOL0     C71326  -1.980   5.956   2.229  0.0258  0.0053 -0.1026
  529MOL0     C71327  -1.860   5.974   2.302 -0.3645 -0.3781 -0.4316
  529MOL0     O71328  -1.743   6.289   2.442  0.7599  0.6088  0.2290
  529MOL0     C71329  -1.569   6.256   2.652  0.3572 -0.2322 -0.6720
  529MOL0     C71330  -1.473   6.269   2.744  0.1147  0.3024  0.3345
  529MOL0     N71331  -0.788   6.757   2.864 -1.0116 -0.1185  0.2221
  529MOL0     N71332  -0.714   6.866   2.893 -0.0105  0.5177 -0.1728
  529MOL0     C71333   0.092   7.407   2.251 -0.2173  0.9837  0.3963
  529MOL0     C71334   0.207   7.480   2.216 -0.0400  0.3154  0.0620
  529MOL0     C71335   0.612   7.498   2.071 -0.3609  0.4617 -0.0498
  529MOL0     C71336   0.729   7.420   2.097 -0.9060  0.0773  0.8162
  529MOL0     C71337   0.858   7.478   2.089 -0.9589 -0.8020  0.2754
  529MOL0     C71338   0.869   7.613   2.046 -0.2178  0.8747  0.4652
  529MOL0     O71339   0.989   7.669   2.012  0.1189 -0.5174  0.3988
  529MOL0     C71340   1.104   7.610   2.076 -0.0216  0.1989  0.9390
  529MOL0     C71341   1.222   7.703   2.104 -0.7944 -0.5766 -0.7055
  529MOL0     C71342   1.293   7.750   1.980 -0.3220 -0.9950 -0.3886
  529MOL0     C71343   1.424   7.827   2.004 -0.3124  0.5620  1.0230
  529MOL0     C71344   1.402   7.963   2.057 -0.1783  0.8472 -0.5685
  529MOL0     C71345   1.393   8.076   2.099 -1.3511 -0.3666  0.4353
  529MOL0     C71346   0.756   7.683   2.003  0.0400 -0.4370  0.4405
  529MOL0     C71347   0.628   7.627   2.022  0.0367 -0.2902  0.2922
  529MOL0     H71348   0.227   7.372   1.892 -0.3734  2.8209 -0.2610
  529MOL0     H71349  -0.007   7.283   1.952 -1.4492  0.6617 -0.2001
  529MOL0     H71350  -0.049   7.147   2.316  0.7985 -0.0226 -1.4457
  529MOL0     H71351  -0.121   7.293   2.389 -0.1483  1.6314 -0.9384
  529MOL0     H71352  -0.289   7.130   2.216  2.6181 -2.0973  0.3997
  529MOL0     H71353  -0.277   7.079   2.386 -3.3118  1.9889  1.3228
  529MOL0     H71354  -0.325   7.283   2.480  2.4028  0.5043 -0.7593
  529MOL0     H71355  -0.366   7.345   2.320 -2.8313 -0.1704 -0.8801
  529MOL0     H71356  -0.528   7.175   2.267  1.2697 -3.5634 -0.1337
  529MOL0     H71357  -0.492   7.082   2.412 -2.8601 -1.3015 -1.4747
  529MOL0     H71358  -0.588   7.368   2.442 -2.6625  0.4366 -2.2137
  529MOL0     H71359  -0.698   7.246   2.416 -1.0427 -2.8701  1.6980
  529MOL0     H71360  -0.501   7.242   2.653 -0.3375  2.6075 -0.9815
  529MOL0     H71361  -0.670   7.295   2.666 -2.4805 -3.0610  2.7207
  529MOL0     H71362  -0.691   7.035   2.574  1.9937 -0.6272 -0.9523
  529MOL0     H71363  -0.539   7.037   2.650 -2.3227 -2.2162  0.5280
  529MOL0     H71364  -0.773   7.167   2.790  0.1509  0.4007  2.1013
  529MOL0     H71365  -0.629   7.098   2.866  0.3125 -2.3569  0.2653
  529MOL0     H71366  -0.948   6.966   2.676 -1.4698 -2.9442 -1.6244
  529MOL0     H71367  -1.105   6.753   2.737  1.4505  2.1007 -0.5314
  529MOL0     H71368  -0.992   6.686   2.624 -1.3972 -1.5179 -0.3969
  529MOL0     H71369  -1.041   6.575   2.902 -2.2698  1.9255 -0.7168
  529MOL0     H71370  -0.928   6.508   2.770 -0.8821 -2.8858 -0.1959
  529MOL0     H71371  -1.137   6.475   2.632 -2.1793  0.0831  0.7773
  529MOL0     H71372  -1.221   6.533   2.779  0.6789  1.3940  0.9203
  529MOL0     H71373  -1.068   6.330   2.883  2.1839  1.1344 -1.4614
  529MOL0     H71374  -1.060   6.276   2.725  2.2066 -1.2834  1.8427
  529MOL0     H71375  -1.203   6.171   2.572  0.9942  2.9429 -0.1995
  529MOL0     H71376  -1.272   6.078   2.345  0.4364 -0.0456 -1.5672
  529MOL0     H71377  -1.431   6.008   2.352 -1.6803  1.8887 -1.8678
  529MOL0     H71378  -1.415   6.168   2.280 -0.6689  0.7956  0.7781
  529MOL0     H71379  -1.742   6.248   2.152  0.0270 -0.7328  0.5215
  529MOL0     H71380  -1.944   6.220   2.006  1.0834  0.4566 -0.2037
  529MOL0     H71381  -2.253   6.142   2.159 -0.8137 -1.4768  0.5382
  529MOL0     H71382  -2.200   6.204   2.001 -1.2861 -0.2607 -0.9090
  529MOL0     H71383  -2.364   5.953   2.016  4.0231 -1.2120  0.6092
  529MOL0     H71384  -2.426   6.121   1.998 -0.6817 -0.4714 -1.0020
  529MOL0     H71385  -2.252   5.966   1.799 -0.6594  0.2817 -2.7702
  529MOL0     H71386  -2.241   6.140   1.805 -1.5336  0.2702  0.2830
  529MOL0     H71387  -2.493   5.974   1.785  1.2872 -0.6670 -0.8554
  529MOL0     H71388  -2.472   6.157   1.773 -0.3441  0.3200  0.1005
  529MOL0     H71389  -2.322   6.110   1.590  0.3020 -0.2121  1.4045
  529MOL0     H71390  -2.485   6.099   1.550  1.7909  1.4975 -1.0993
  529MOL0     H71391  -2.362   5.915   1.442  1.2833  3.2784  0.2460
  529MOL0     H71392  -2.288   5.870   1.598 -1.3641  0.4611  2.2060
  529MOL0     H71393  -2.591   5.847   1.552 -0.0653  2.7827  1.6269
  529MOL0     H71394  -2.481   5.784   1.684  0.9034 -2.1379 -1.4401
  529MOL0     H71395  -2.368   5.634   1.520  0.3452  0.9460  1.8025
  529MOL0     H71396  -2.470   5.704   1.393 -1.3485 -2.0468 -0.9704
  529MOL0     H71397  -2.051   5.882   2.266  2.4491 -2.5289 -0.1943
  529MOL0     H71398  -1.834   5.899   2.376  0.7175  0.3513 -0.0561
  529MOL0     H71399  -1.670   6.282   2.682 -0.2971 -2.8568 -0.3618
  529MOL0     H71400  -1.480   6.302   2.848  0.0032 -1.2620  0.8487
  529MOL0     H71401   0.055   7.429   2.351 -0.0558  4.2042 -0.1502
  529MOL0     H71402   0.268   7.542   2.281  0.2600 -0.8487  0.9137
  529MOL0     H71403   0.723   7.314   2.121  0.0999  0.3923  2.5983
  529MOL0     H71404   0.951   7.426   2.109  0.9041  0.7378 -3.5332
  529MOL0     H71405   1.079   7.575   2.177  0.7656 -0.0431  1.0580
  529MOL0     H71406   1.116   7.522   2.012 -2.9619 -0.3681  1.0269
  529MOL0     H71407   1.294   7.646   2.164  2.4779  2.2462 -1.5731
  529MOL0     H71408   1.192   7.785   2.170  1.0638 -0.2979 -0.1511
  529MOL0     H71409   1.229   7.795   1.904  0.4248 -0.4891 -0.7321
  529MOL0     H71410   1.336   7.658   1.940  0.9258 -1.3045  1.5304
  529MOL0     H71411   1.488   7.829   1.916  0.6379 -1.6506  1.5911
  529MOL0     H71412   1.481   7.774   2.081  0.9627 -1.6515 -1.3143
  529MOL0     H71413   1.409   8.175   2.137 -1.3908 -1.0195  2.2565
  529MOL0     H71414   0.770   7.777   1.950 -0.5199 -0.6064 -0.0198
  529MOL0     H71415   0.539   7.681   1.989 -0.3238 -0.9758  0.1141
  530MOL0     O71416   1.910   9.350   3.682 -0.3550  0.1011  0.2062
  530MOL0     C71417   1.964   9.455   3.657 -0.2513  0.1536 -0.0371
  530MOL0     O71418   1.907   9.563   3.603  0.0994 -0.1872 -0.0476
  530MOL0     C71419   1.773   9.568   3.598  0.6096  0.2356  1.1733
  530MOL0     C71420   1.696   9.647   3.681 -0.1724  0.2645 -0.3277
  530MOL0     C71421   1.557   9.635   3.677 -0.6630 -0.5325  0.2377
  530MOL0     C71422   1.488   9.547   3.587 -0.2402  0.1704 -0.7145
  530MOL0     O71423   1.355   9.523   3.589  0.3721  0.3338  0.8492
  530MOL0     C71424   1.278   9.571   3.703 -0.5626  0.8297  0.2705
  530MOL0     C71425   1.142   9.500   3.694  0.6124  0.6051 -0.0519
  530MOL0     C71426   1.083   9.492   3.555  0.2422 -0.3245  0.3659
  530MOL0     C71427   0.933   9.456   3.564 -0.1163 -0.0511  0.7317
  530MOL0     C71428   0.894   9.425   3.417 -0.1339 -0.1010  0.7451
  530MOL0     C71429   0.746   9.405   3.415 -0.4369 -0.2223 -0.5954
  530MOL0     C71430   0.695   9.365   3.275  0.4039  0.1137  0.1899
  530MOL0     C71431   0.739   9.224   3.231  0.0309  0.1421  1.4890
  530MOL0     N71432   0.732   9.124   3.334  0.2008  0.1019  0.6948
  530MOL0     C71433   0.614   9.083   3.389  0.5128 -0.1841 -0.2780
  530MOL0     C71434   0.648   9.007   3.493  0.3521  0.4314 -0.5851
  530MOL0     C71435   0.556   8.974   3.619  0.1999 -0.7092  0.1492
  530MOL0     C71436   0.482   8.835   3.621 -0.2163  0.6227 -0.1011
  530MOL0     C71437   0.345   8.836   3.545  0.9521 -0.2816  0.5093
  530MOL0     C71438   0.348   8.788   3.402  0.0782  0.1850 -0.2131
  530MOL0     O71439   0.352   8.647   3.392 -0.2254  0.6915  0.0015
  530MOL0     C71440   0.242   8.581   3.432 -0.0234  0.6534 -0.3810
  530MOL0     C71441   0.131   8.588   3.344 -0.1189  0.0327 -0.8121
  530MOL0     C71442   0.008   8.529   3.376  0.2478  0.1954 -0.1129
  530MOL0     C71443  -0.108   8.541   3.279  0.1742 -0.2457 -0.2244
  530MOL0     C71444  -0.012   8.477   3.506  0.3859  0.6374  0.4077
  530MOL0     C71445  -0.142   8.418   3.556  0.1833 -0.1278 -0.5222
  530MOL0     O71446  -0.158   8.422   3.691 -0.6076  0.0722 -0.8726
  530MOL0     C71447  -0.291   8.407   3.739 -0.7553 -0.8266 -0.7139
  530MOL0     C71448  -0.364   8.517   3.777 -0.6116 -0.1051 -0.4507
  530MOL0     C71449  -0.491   8.498   3.828 -0.3902  0.8254 -0.0945
  530MOL0     C71450  -0.553   8.366   3.831  0.2469  0.0602  0.0846
  530MOL0     O71451  -0.680   8.345   3.881  0.2049 -0.3979  0.2027
  530MOL0     C71452  -0.766   8.278   3.783 -0.1644  0.0211 -1.2445
  530MOL0     C71453  -0.901   8.342   3.794  0.0241  0.2682 -0.2409
  530MOL0     C71454  -0.995   8.256   3.704 -0.3014  0.7044 -0.5247
  530MOL0     C71455  -1.138   8.306   3.708 -0.2629 -0.2907 -0.0177
  530MOL0     C71456  -1.224   8.210   3.618  0.0649  0.0861  0.9022
  530MOL0     C71457  -1.375   8.218   3.619  0.3818  0.7971  0.3512
  530MOL0     C71458  -1.423   8.366   3.614 -1.4112  0.5328 -0.3527
  530MOL0     C71459  -1.568   8.361   3.583  0.0444  0.2461  0.1091
  530MOL0    Cl71460  -1.630   8.529   3.566 -0.2653 -0.0283 -0.4269
  530MOL0     C71461  -0.478   8.258   3.789  0.1200  0.2225  0.1196
  530MOL0     C71462  -0.346   8.279   3.744 -0.1614  0.7187  0.2427
  530MOL0     O71463  -0.231   8.369   3.476  0.2143 -0.0811 -0.4544
  530MOL0     C71464   0.096   8.462   3.589  0.3226  0.1493  0.4862
  530MOL0     C71465   0.220   8.515   3.559  0.5310  0.1113 -0.1653
  530MOL0     N71466   0.781   8.982   3.487 -1.0212  0.1936 -0.1840
  530MOL0     N71467   0.837   9.053   3.391 -0.0986  0.5744  0.5860
  530MOL0     C71468   1.568   9.464   3.514  0.0416  0.3866 -0.7906
  530MOL0     C71469   1.710   9.478   3.505  0.0041  1.0993 -0.1404
  530MOL0     C71470   2.112   9.457   3.682 -0.6144 -0.3464 -0.8156
  530MOL0     C71471   2.167   9.335   3.707 -0.5615  0.1292 -0.1577
  530MOL0     C71472   2.305   9.335   3.735 -0.1356 -0.4439  0.9832
  530MOL0     C71473   2.384   9.454   3.757  0.2172  0.1602  0.9552
  530MOL0     O71474   2.524   9.448   3.769 -0.1908 -0.5927  0.3308
  530MOL0     C71475   2.589   9.319   3.786  0.4604  0.0454 -0.5877
  530MOL0     C71476   2.724   9.350   3.837 -0.4843  0.2001  0.0088
  530MOL0     C71477   2.810   9.466   3.775 -0.0017 -0.0175  0.5235
  530MOL0     C71478   2.946   9.486   3.842 -0.0606  0.0306 -0.0401
  530MOL0     C71479   3.034   9.376   3.805  0.5072  0.6291 -0.3060
  530MOL0     C71480   3.092   9.272   3.783  0.1585 -0.2061  0.3896
  530MOL0     C71481   2.317   9.577   3.746 -0.4361  0.8288  0.3253
  530MOL0     C71482   2.182   9.575   3.713 -0.5110 -0.2004  0.3136
  530MOL0     H71483   1.744   9.704   3.760 -0.8366 -0.4099  0.5783
  530MOL0     H71484   1.490   9.702   3.731 -1.0784  0.7626 -1.7904
  530MOL0     H71485   1.317   9.543   3.801  0.0522 -0.4352 -0.3032
  530MOL0     H71486   1.275   9.680   3.709  2.7185  0.9871  0.8081
  530MOL0     H71487   1.145   9.401   3.741  0.0660  0.5553 -0.1162
  530MOL0     H71488   1.068   9.556   3.752 -0.1305 -0.0669 -0.3257
  530MOL0     H71489   1.092   9.593   3.513  0.1222  0.7468  2.7793
  530MOL0     H71490   1.132   9.419   3.490  0.1127 -0.1723  0.0950
  530MOL0     H71491   0.924   9.366   3.625 -1.1461  0.0766  0.7794
  530MOL0     H71492   0.880   9.544   3.603 -0.2367  0.2196 -0.0270
  530MOL0     H71493   0.917   9.502   3.343 -1.2578 -1.3952 -1.0298
  530MOL0     H71494   0.936   9.331   3.381  0.1220  0.2630  0.0816
  530MOL0     H71495   0.721   9.329   3.489 -1.0839  0.2109 -0.3665
  530MOL0     H71496   0.699   9.502   3.435  1.4133  0.6089 -0.0435
  530MOL0     H71497   0.587   9.378   3.287  0.1074 -1.9644  0.1302
  530MOL0     H71498   0.728   9.443   3.205 -1.0719  1.6240  1.0814
  530MOL0     H71499   0.839   9.235   3.189 -0.1678 -2.0384  0.2896
  530MOL0     H71500   0.679   9.192   3.145 -2.3383  3.2223  1.8030
  530MOL0     H71501   0.518   9.124   3.359  1.5070  3.2987  0.7185
  530MOL0     H71502   0.618   8.976   3.709 -0.6409 -0.9311  0.7424
  530MOL0     H71503   0.489   9.059   3.635  0.6960 -0.0766 -1.0079
  530MOL0     H71504   0.459   8.802   3.723  2.2169 -1.3382 -0.1116
  530MOL0     H71505   0.541   8.756   3.574 -1.8610 -0.3754 -0.5459
  530MOL0     H71506   0.299   8.936   3.541  1.1458 -0.2279 -0.7712
  530MOL0     H71507   0.282   8.769   3.604 -1.7267  0.9456 -0.7578
  530MOL0     H71508   0.445   8.830   3.373  1.0172 -1.4272  0.4257
  530MOL0     H71509   0.270   8.833   3.341 -1.3547  0.4702  1.7259
  530MOL0     H71510   0.153   8.641   3.251 -1.1782 -2.3860 -2.5312
  530MOL0     H71511  -0.136   8.447   3.230 -0.0055 -1.0013  1.2525
  530MOL0     H71512  -0.193   8.591   3.326  0.2185  0.8700 -1.2878
  530MOL0     H71513  -0.077   8.618   3.208  0.0157  2.3847  2.3464
  530MOL0     H71514  -0.322   8.616   3.768 -0.0795 -0.4228 -1.6924
  530MOL0     H71515  -0.551   8.584   3.858  0.1840  1.6033 -1.0868
  530MOL0     H71516  -0.740   8.288   3.677 -0.7910 -2.8774 -1.7515
  530MOL0     H71517  -0.766   8.175   3.820  1.8743  0.2099 -0.5388
  530MOL0     H71518  -0.921   8.339   3.902  1.6050  0.3910  0.0680
  530MOL0     H71519  -0.884   8.447   3.766  1.4539  0.6624  1.8531
  530MOL0     H71520  -0.997   8.153   3.741  2.0257  0.4088 -1.0948
  530MOL0     H71521  -0.961   8.255   3.600 -0.5220 -0.8870 -0.6045
  530MOL0     H71522  -1.169   8.313   3.813 -0.7745  0.0709 -0.1847
  530MOL0     H71523  -1.141   8.405   3.661  1.1032 -1.7472 -3.5013
  530MOL0     H71524  -1.199   8.111   3.658  0.0215  0.0688  0.8859
  530MOL0     H71525  -1.188   8.220   3.515 -0.9057  0.6168  0.6000
  530MOL0     H71526  -1.406   8.167   3.527 -0.2200  2.4750 -0.4220
  530MOL0     H71527  -1.410   8.170   3.710  2.2772 -1.2589  0.1032
  530MOL0     H71528  -1.367   8.423   3.540 -0.8157 -2.1498 -2.0957
  530MOL0     H71529  -1.397   8.405   3.712  2.5306  0.0414 -1.0430
  530MOL0     H71530  -1.625   8.306   3.659  2.9573 -4.4631 -0.7542
  530MOL0     H71531  -1.582   8.304   3.491  0.4215 -1.8052  1.2757
  530MOL0     H71532  -0.510   8.154   3.787 -1.0415  0.5671 -0.3306
  530MOL0     H71533  -0.286   8.191   3.722 -0.6165  0.6894 -0.9948
  530MOL0     H71534   0.080   8.421   3.689 -2.3159  2.1609  1.0186
  530MOL0     H71535   0.297   8.504   3.636  0.1668 -1.7176 -0.0127
  530MOL0     H71536   1.513   9.389   3.459 -1.6873 -0.2109  1.6388
  530MOL0     H71537   1.771   9.422   3.436  1.9309  1.8367  0.8707
  530MOL0     H71538   2.119   9.239   3.691 -1.2362 -0.3607  3.8269
  530MOL0     H71539   2.349   9.237   3.722  0.8275  0.0744  0.1931
  530MOL0     H71540   2.546   9.260   3.867  3.7103  0.7485  1.8485
  530MOL0     H71541   2.596   9.254   3.698  1.1006 -1.1714  0.3314
  530MOL0     H71542   2.777   9.256   3.815  1.7751  1.4454 -0.1353
  530MOL0     H71543   2.719   9.363   3.945 -2.3709  0.3816 -0.0593
  530MOL0     H71544   2.750   9.557   3.789 -2.6243 -1.5887  0.1126
  530MOL0     H71545   2.820   9.432   3.672 -0.0853 -0.7514  0.7577
  530MOL0     H71546   2.949   9.499   3.950  2.1859  0.2016 -0.0628
  530MOL0     H71547   2.996   9.577   3.808  0.0468  0.9696  2.4840
  530MOL0     H71548   3.147   9.182   3.765 -0.1432 -0.8103  2.3163
  530MOL0     H71549   2.370   9.671   3.755  1.4688 -0.1428 -0.2698
  530MOL0     H71550   2.130   9.670   3.703 -0.1368 -0.1928 -2.1045
  531MOL0     O71551   0.750   9.501   5.054 -0.4500  0.3720  0.3002
  531MOL0     C71552   0.755   9.412   5.145  0.1733 -0.2625 -0.6791
  531MOL0     O71553   0.649   9.365   5.213  0.1050  0.0985  0.3925
  531MOL0     C71554   0.525   9.399   5.177 -0.4994 -0.3041  0.6369
  531MOL0     C71555   0.454   9.482   5.274  0.7333  0.3874  0.4426
  531MOL0     C71556   0.322   9.514   5.240  0.2007 -0.7735  0.2377
  531MOL0     C71557   0.264   9.479   5.117 -0.3178 -0.3753 -1.0603
  531MOL0     O71558   0.142   9.524   5.080  0.4668 -0.0389  0.1566
  531MOL0     C71559   0.033   9.429   5.096  0.0335 -0.8172 -0.2647
  531MOL0     C71560  -0.095   9.487   5.045 -0.1703 -0.8173 -0.4052
  531MOL0     C71561  -0.126   9.631   5.100 -0.2349  0.1054  0.0478
  531MOL0     C71562  -0.258   9.622   5.174  0.8167  0.2189  0.4761
  531MOL0     C71563  -0.379   9.598   5.088 -0.0038  0.3074 -0.5685
  531MOL0     C71564  -0.404   9.718   4.995  0.3302 -1.7806 -0.7253
  531MOL0     C71565  -0.546   9.767   4.963  1.2432 -0.0416 -0.1002
  531MOL0     C71566  -0.526   9.900   4.891 -0.3408 -0.4546 -0.0713
  531MOL0     N71567  -0.660   9.971   4.881  0.1048  1.2033 -0.4008
  531MOL0     C71568  -0.740   9.985   4.995  0.5932 -0.4370 -0.2743
  531MOL0     C71569  -0.853  10.050   4.948 -0.1944 -0.8530  0.0729
  531MOL0     C71570  -0.968  10.117   5.029 -0.2837 -0.1466 -0.8464
  531MOL0     C71571  -0.995  10.265   4.987 -0.3533 -0.2895 -0.7000
  531MOL0     C71572  -0.875  10.352   4.964  0.6964  0.3984 -0.1649
  531MOL0     C71573  -0.800  10.387   5.095 -0.0814  0.6748  0.7613
  531MOL0     O71574  -0.870  10.458   5.198  0.0747  0.4343  0.2810
  531MOL0     C71575  -0.964  10.551   5.159  0.4862  0.2796  0.5793
  531MOL0     C71576  -1.095  10.538   5.192 -0.8156 -0.4392 -0.4845
  531MOL0     C71577  -1.198  10.625   5.152 -0.6879  0.3137  0.0334
  531MOL0     C71578  -1.336  10.600   5.212  0.5353 -0.1563  0.2625
  531MOL0     C71579  -1.161  10.725   5.056 -0.2740  0.3141 -0.1043
  531MOL0     C71580  -1.263  10.813   4.997 -0.2454 -0.0685 -0.0784
  531MOL0     O71581  -1.219  10.933   4.957 -0.3051 -0.6410  0.1367
  531MOL0     C71582  -1.324  11.020   4.910  0.3287  0.0284  0.6270
  531MOL0     C71583  -1.309  11.074   4.785 -0.6676 -0.0606  0.6593
  531MOL0     C71584  -1.407  11.147   4.721  0.3258 -0.0412 -0.5467
  531MOL0     C71585  -1.522  11.179   4.795  0.4941 -0.2910  0.5955
  531MOL0     O71586  -1.620  11.259   4.744  1.0031  0.1474  1.0963
  531MOL0     C71587  -1.609  11.306   4.610  0.3800  0.6706 -0.3003
  531MOL0     C71588  -1.717  11.411   4.579  0.1545  0.8401 -0.2272
  531MOL0     C71589  -1.855  11.366   4.640  0.7430  0.8220  0.0596
  531MOL0     C71590  -1.960  11.464   4.595  0.2739 -0.6350 -0.5825
  531MOL0     C71591  -2.082  11.453   4.686 -0.2544  0.4941 -0.1008
  531MOL0     C71592  -2.202  11.523   4.634 -0.6018  0.2184  0.5696
  531MOL0     C71593  -2.334  11.510   4.707 -0.2971  1.1185  0.3587
  531MOL0     C71594  -2.371  11.368   4.747  0.2403 -1.0124 -0.2470
  531MOL0    Cl71595  -2.529  11.353   4.807  0.1723  0.1507  0.3882
  531MOL0     C71596  -1.534  11.130   4.925  0.2268 -0.0516 -0.2971
  531MOL0     C71597  -1.438  11.053   4.982  0.2620  0.4574  1.0158
  531MOL0     O71598  -1.379  10.774   4.997 -0.5260  0.0661 -0.7561
  531MOL0     C71599  -1.029  10.738   5.015 -1.3023 -0.6750 -1.1226
  531MOL0     C71600  -0.932  10.650   5.072  0.2691 -0.4341  0.3223
  531MOL0     N71601  -0.848  10.052   4.810  0.3122 -0.2916 -0.1449
  531MOL0     N71602  -0.744   9.986   4.777  0.1938  0.3785  0.6089
  531MOL0     C71603   0.327   9.403   5.025 -0.2089 -0.6127 -0.0019
  531MOL0     C71604   0.457   9.358   5.057  0.5637 -1.1319 -0.2972
  531MOL0     C71605   0.890   9.366   5.185  0.6885  0.1568 -0.0817
  531MOL0     C71606   0.906   9.251   5.271  0.0741  0.9847  0.1707
  531MOL0     C71607   1.025   9.199   5.309 -0.8164 -0.5765  0.4503
  531MOL0     C71608   1.143   9.261   5.257 -0.1033 -0.6625  0.1318
  531MOL0     O71609   1.272   9.229   5.290 -0.9771  0.1437  0.0592
  531MOL0     C71610   1.286   9.116   5.373 -0.1678 -0.1417 -0.4154
  531MOL0     C71611   1.433   9.065   5.381 -0.4089  0.9297 -0.9453
  531MOL0     C71612   1.455   8.977   5.255 -0.0834  1.4349  0.8675
  531MOL0     C71613   1.582   8.903   5.265  0.2384 -0.4378 -0.0569
  531MOL0     C71614   1.600   8.814   5.383 -0.0661 -0.0706  0.0394
  531MOL0     C71615   1.615   8.747   5.487 -0.5055 -0.1056 -0.0464
  531MOL0     C71616   1.133   9.364   5.170 -0.3027  0.6196  0.3961
  531MOL0     C71617   1.009   9.424   5.145  0.6050 -0.1140  0.0753
  531MOL0     H71618   0.483   9.518   5.372  1.7187  0.1269  0.2631
  531MOL0     H71619   0.265   9.569   5.314 -0.3804 -0.1267 -0.6683
  531MOL0     H71620   0.051   9.330   5.053 -1.2706 -1.6914  1.0890
  531MOL0     H71621   0.010   9.414   5.202  0.9879 -0.4003  0.0163
  531MOL0     H71622  -0.095   9.501   4.937 -1.9663  2.2230 -0.1208
  531MOL0     H71623  -0.173   9.415   5.074 -0.0469 -0.3387  1.2410
  531MOL0     H71624  -0.046   9.655   5.170 -1.3842  1.1049  1.0724
  531MOL0     H71625  -0.132   9.711   5.025  0.8128  1.0885  0.9652
  531MOL0     H71626  -0.260   9.536   5.241 -2.4007 -1.9659 -2.0863
  531MOL0     H71627  -0.267   9.706   5.243  2.1681  1.3801 -0.6577
  531MOL0     H71628  -0.372   9.502   5.037  1.0675 -0.0678  0.2498
  531MOL0     H71629  -0.460   9.580   5.159  1.5546 -2.3799  0.7058
  531MOL0     H71630  -0.355   9.808   5.033 -1.1509 -0.7097 -1.2698
  531MOL0     H71631  -0.354   9.710   4.898  0.8026  2.2035 -0.9868
  531MOL0     H71632  -0.598   9.696   4.897 -2.2741 -0.2292  2.5613
  531MOL0     H71633  -0.606   9.784   5.053  0.0776  1.0008 -1.0271
  531MOL0     H71634  -0.493   9.878   4.790 -2.1559 -0.2989 -0.7302
  531MOL0     H71635  -0.456   9.963   4.947  0.0688 -2.1351  1.4067
  531MOL0     H71636  -0.723   9.962   5.100  0.6629  0.3383 -0.1080
  531MOL0     H71637  -1.058  10.061   5.003 -1.7728 -0.1203  3.4791
  531MOL0     H71638  -0.958  10.106   5.138  0.4210 -0.1754 -0.9099
  531MOL0     H71639  -1.056  10.313   5.064  4.2643  1.9329  1.9686
  531MOL0     H71640  -1.042  10.261   4.888  1.2047 -0.2981 -1.4657
  531MOL0     H71641  -0.910  10.437   4.906  0.2877  0.2168 -0.1901
  531MOL0     H71642  -0.810  10.294   4.898  0.2402  1.0163 -1.1803
  531MOL0     H71643  -0.712  10.445   5.065 -2.0379  2.5930 -1.7792
  531MOL0     H71644  -0.767  10.289   5.133 -0.7854  0.5809  1.1334
  531MOL0     H71645  -1.106  10.451   5.256  3.1181 -1.0712 -0.4449
  531MOL0     H71646  -1.416  10.565   5.147 -1.6192  0.3125  2.5010
  531MOL0     H71647  -1.337  10.517   5.283 -1.1104 -3.8730 -3.6795
  531MOL0     H71648  -1.372  10.694   5.255 -0.8876 -0.7206  0.3479
  531MOL0     H71649  -1.222  11.053   4.723  2.0675  4.3342  2.5387
  531MOL0     H71650  -1.396  11.166   4.615  1.0871  2.1118 -0.1510
  531MOL0     H71651  -1.510  11.351   4.593  0.5301 -0.0463 -1.4181
  531MOL0     H71652  -1.615  11.221   4.541 -1.7284 -0.1875  0.8472
  531MOL0     H71653  -1.675  11.499   4.629  1.9263 -0.5089  0.7540
  531MOL0     H71654  -1.730  11.431   4.472 -0.1141  1.2297 -0.1231
  531MOL0     H71655  -1.849  11.357   4.749  0.4762  0.0853  0.0226
  531MOL0     H71656  -1.885  11.270   4.597  0.5164  0.9024  0.0376
  531MOL0     H71657  -1.921  11.566   4.587 -0.0864 -0.5542 -1.3630
  531MOL0     H71658  -1.987  11.442   4.492 -0.8630  1.0421 -0.6938
  531MOL0     H71659  -2.052  11.490   4.784 -1.2219  0.5567  0.1842
  531MOL0     H71660  -2.106  11.346   4.694 -2.4716  0.8839 -1.0228
  531MOL0     H71661  -2.187  11.631   4.629 -1.6057  0.3306 -0.2566
  531MOL0     H71662  -2.203  11.486   4.531  2.2218 -1.7148  1.1211
  531MOL0     H71663  -2.416  11.546   4.645 -0.7665  0.4394  0.5810
  531MOL0     H71664  -2.333  11.566   4.801  1.8643  0.0488  1.0491
  531MOL0     H71665  -2.299  11.351   4.828  0.6864 -0.2842 -0.4797
  531MOL0     H71666  -2.342  11.289   4.677  0.9534 -1.5769  0.6564
  531MOL0     H71667  -1.623  11.137   4.988  0.7825 -0.1160  0.5157
  531MOL0     H71668  -1.445  11.010   5.082 -0.0881 -0.4053  0.6249
  531MOL0     H71669  -0.997  10.814   4.945  1.4015 -0.4925  0.1860
  531MOL0     H71670  -0.833  10.668   5.031  0.0235  0.9399  0.2756
  531MOL0     H71671   0.278   9.379   4.931 -1.4718  2.3427 -0.2215
  531MOL0     H71672   0.510   9.304   4.978  1.4027  2.4527 -2.4244
  531MOL0     H71673   0.829   9.187   5.313  1.3247 -2.0952 -1.8312
  531MOL0     H71674   1.017   9.107   5.366 -3.1867 -0.4629  0.4086
  531MOL0     H71675   1.236   9.145   5.466 -3.9255 -1.5731 -1.7996
  531MOL0     H71676   1.223   9.035   5.334  1.5109 -2.0591  0.6439
  531MOL0     H71677   1.438   8.998   5.467 -2.6016  2.1306  0.2029
  531MOL0     H71678   1.500   9.150   5.385 -2.0165  2.3570 -2.5432
  531MOL0     H71679   1.450   9.050   5.173  1.1157  0.2103 -0.3337
  531MOL0     H71680   1.379   8.899   5.247  1.1616  0.2141  0.7533
  531MOL0     H71681   1.659   8.979   5.275 -1.5981  1.3171  1.8858
  531MOL0     H71682   1.605   8.850   5.172 -0.1908  1.3386 -1.2266
  531MOL0     H71683   1.623   8.689   5.577  1.6574 -1.1005 -0.8213
  531MOL0     H71684   1.222   9.402   5.120 -0.0488 -0.3383  0.0977
  531MOL0     H71685   0.993   9.509   5.079 -1.5194 -0.4842  0.0436
  532MOL0     O71686   2.946  10.087   6.003  1.0935 -0.2013  0.4200
  532MOL0     C71687   3.015  10.045   5.910  0.5952 -0.3896 -0.0067
  532MOL0     O71688   2.978  10.028   5.779 -0.1755 -0.4580 -0.7274
  532MOL0     C71689   2.850  10.034   5.752 -0.4216 -0.7916  0.0180
  532MOL0     C71690   2.776  10.157   5.747 -0.7948  0.5542  0.1564
  532MOL0     C71691   2.645  10.151   5.693  0.0979 -0.9695  0.2443
  532MOL0     C71692   2.593  10.031   5.637 -0.3979 -0.2218  1.4749
  532MOL0     O71693   2.477  10.016   5.567  0.0408  0.5259  0.3252
  532MOL0     C71694   2.395  10.124   5.556  0.4905 -0.2980  0.0546
  532MOL0     C71695   2.288  10.082   5.454  0.0010  0.0952 -0.2713
  532MOL0     C71696   2.179  10.191   5.433 -0.6763 -0.3152 -0.2167
  532MOL0     C71697   2.112  10.189   5.293 -0.2425  0.1471  0.7200
  532MOL0     C71698   1.969  10.244   5.298  0.4020  0.6402  0.0405
  532MOL0     C71699   1.887  10.166   5.195 -0.5816 -0.7572  0.6894
  532MOL0     C71700   1.732  10.193   5.192 -0.2209 -0.0391 -0.2720
  532MOL0     C71701   1.667  10.119   5.079  0.1111  0.4551 -0.1767
  532MOL0     N71702   1.518  10.119   5.086 -0.1718  0.0814 -0.2510
  532MOL0     C71703   1.454  10.244   5.083  0.3799 -0.1657  0.3279
  532MOL0     C71704   1.322  10.208   5.080 -0.8815 -0.9996 -0.5961
  532MOL0     C71705   1.214  10.310   5.102  0.3551 -0.6646 -0.8198
  532MOL0     C71706   1.071  10.243   5.085  0.3240 -0.0490  0.2530
  532MOL0     C71707   1.027  10.154   5.200  0.4359 -0.8030  0.2927
  532MOL0     C71708   0.884  10.114   5.196 -0.1955 -0.2997  0.0670
  532MOL0     O71709   0.793  10.216   5.163  0.6159 -0.0215 -0.3640
  532MOL0     C71710   0.673  10.192   5.228  0.4906  0.1437  0.4893
  532MOL0     C71711   0.606  10.063   5.249 -1.3172 -0.2853  0.3461
  532MOL0     C71712   0.476  10.052   5.303  0.1302  0.0384 -0.1562
  532MOL0     C71713   0.418   9.913   5.320  0.0499 -0.0943 -0.3381
  532MOL0     C71714   0.405  10.176   5.332  0.1956  0.2930 -0.0147
  532MOL0     C71715   0.261  10.178   5.377  0.8742 -0.6402  0.2773
  532MOL0     O71716   0.194  10.299   5.384 -0.2439 -0.0254 -0.1219
  532MOL0     C71717   0.071  10.302   5.454 -1.1478 -0.4052  0.4114
  532MOL0     C71718  -0.046  10.249   5.393 -0.2197  0.6524 -0.2861
  532MOL0     C71719  -0.168  10.227   5.463  0.6456 -0.1097  0.2905
  532MOL0     C71720  -0.173  10.270   5.595 -0.3379 -0.5115 -0.4858
  532MOL0     O71721  -0.281  10.262   5.676 -0.6227  0.5256  0.2741
  532MOL0     C71722  -0.348  10.132   5.677  0.7057 -0.5531  0.6961
  532MOL0     C71723  -0.489  10.152   5.722 -0.5727  1.1207  0.4781
  532MOL0     C71724  -0.547  10.013   5.718  0.9057 -1.0844  0.1389
  532MOL0     C71725  -0.690  10.036   5.774  0.0500 -0.1094  0.3933
  532MOL0     C71726  -0.757   9.904   5.825  0.3804 -0.2973  0.0399
  532MOL0     C71727  -0.888   9.919   5.896  0.4988 -1.3678  0.2117
  532MOL0     C71728  -0.963   9.795   5.917 -0.3810 -0.4500  1.0418
  532MOL0     C71729  -1.073   9.821   6.020  1.0785 -1.1355  0.2725
  532MOL0    Cl71730  -1.217   9.905   5.947 -0.2797 -0.0861  0.3224
  532MOL0     C71731  -0.057  10.332   5.650  0.0296 -1.1785  0.4242
  532MOL0     C71732   0.063  10.329   5.589 -0.0071  0.3383  0.1200
  532MOL0     O71733   0.210  10.080   5.424 -0.7814  0.4600 -0.1597
  532MOL0     C71734   0.466  10.292   5.304  1.2276  0.2579  0.8910
  532MOL0     C71735   0.591  10.302   5.247  0.3728 -0.4019 -0.0115
  532MOL0     N71736   1.316  10.071   5.066  0.1830  0.3621 -0.2175
  532MOL0     N71737   1.433  10.018   5.081 -0.0059  0.3813  0.6080
  532MOL0     C71738   2.663   9.912   5.652  0.2420 -0.0773  0.1363
  532MOL0     C71739   2.791   9.914   5.716  0.0068  0.7904 -0.0951
  532MOL0     C71740   3.152   9.993   5.942 -0.2564  0.6623 -0.0045
  532MOL0     C71741   3.221   9.914   5.850 -0.4952 -0.6181  0.4880
  532MOL0     C71742   3.347   9.869   5.891  0.0010  0.2233  0.5342
  532MOL0     C71743   3.409   9.886   6.017  0.8633  0.2325 -0.7401
  532MOL0     O71744   3.541   9.853   6.038  0.7565  0.4624  0.6179
  532MOL0     C71745   3.577   9.869   6.177  0.2247 -0.7984  0.5263
  532MOL0     C71746   3.711   9.789   6.195 -0.1167  0.4381 -0.0405
  532MOL0     C71747   3.746   9.791   6.342 -0.0728  0.5987 -0.2470
  532MOL0     C71748   3.806   9.929   6.387  0.4253 -0.2076  0.2602
  532MOL0     C71749   3.910   9.998   6.304  0.0241  0.1774 -0.5478
  532MOL0     C71750   4.003  10.031   6.234  0.7017 -0.7771 -0.4000
  532MOL0     C71751   3.338   9.967   6.104 -0.2499 -0.0985  0.6050
  532MOL0     C71752   3.213  10.026   6.063 -0.2932  0.6374  0.0945
  532MOL0     H71753   2.811  10.255   5.780  1.4507  0.1448 -0.8339
  532MOL0     H71754   2.591  10.245   5.691 -0.3078 -1.0911  2.5378
  532MOL0     H71755   2.357  10.149   5.655  1.5115  4.5144 -0.5338
  532MOL0     H71756   2.439  10.218   5.522  0.3492 -0.4040 -0.4393
  532MOL0     H71757   2.343  10.093   5.360 -3.2810  0.4743 -2.2815
  532MOL0     H71758   2.239   9.986   5.466 -0.6222  0.1991 -1.7758
  532MOL0     H71759   2.107  10.178   5.514 -1.7029 -0.0692 -1.0695
  532MOL0     H71760   2.235  10.281   5.459 -1.5608 -0.1778  1.3195
  532MOL0     H71761   2.166  10.246   5.217 -0.8970 -0.3491 -0.1291
  532MOL0     H71762   2.115  10.085   5.262  0.0418  0.0490  1.0587
  532MOL0     H71763   1.932  10.217   5.398  1.4735 -1.4438 -0.0830
  532MOL0     H71764   1.966  10.349   5.268 -0.7789  0.2967 -1.1211
  532MOL0     H71765   1.933  10.189   5.098 -1.8814 -0.7566  0.0426
  532MOL0     H71766   1.897  10.057   5.206  0.5551 -1.2356 -3.4561
  532MOL0     H71767   1.697  10.169   5.293  2.8583  0.1508  0.9569
  532MOL0     H71768   1.712  10.297   5.165  0.9962 -0.3334 -2.5415
  532MOL0     H71769   1.704  10.016   5.077  0.8228  0.6382  1.8586
  532MOL0     H71770   1.698  10.166   4.986  0.4626 -2.4801 -1.6825
  532MOL0     H71771   1.504  10.341   5.076  1.4802 -0.7348  0.0444
  532MOL0     H71772   1.214  10.357   5.202  0.9527  0.8705 -1.5046
  532MOL0     H71773   1.225  10.386   5.024  2.4929  0.0434  0.0947
  532MOL0     H71774   1.064  10.182   4.995 -4.1213  2.2443 -1.2475
  532MOL0     H71775   0.998  10.323   5.070  0.1923  0.2332  2.1573
  532MOL0     H71776   1.045  10.210   5.292 -2.1058  0.6638  0.0037
  532MOL0     H71777   1.088  10.064   5.207 -0.4090 -1.5271 -1.1459
  532MOL0     H71778   0.856  10.062   5.288  1.7446 -0.6281  0.5140
  532MOL0     H71779   0.863  10.032   5.127 -0.1581 -1.5811  1.5326
  532MOL0     H71780   0.646   9.967   5.219 -0.6910  0.6086 -1.8995
  532MOL0     H71781   0.323   9.916   5.265 -0.1029  4.0072 -0.1485
  532MOL0     H71782   0.488   9.838   5.283  0.9885 -0.2638  1.6531
  532MOL0     H71783   0.403   9.888   5.426  1.2585 -1.4603 -0.4647
  532MOL0     H71784  -0.051  10.231   5.286 -0.3237 -2.2809  0.1354
  532MOL0     H71785  -0.256  10.209   5.402  1.3934  3.2548 -2.0956
  532MOL0     H71786  -0.341  10.085   5.578  5.1092 -0.3699  0.7212
  532MOL0     H71787  -0.293  10.066   5.744  0.6406 -0.0419  1.2654
  532MOL0     H71788  -0.480  10.187   5.825  3.0766  2.0600  0.0031
  532MOL0     H71789  -0.545  10.219   5.655 -0.9543 -1.9467 -2.5493
  532MOL0     H71790  -0.486   9.956   5.788 -0.1277  0.4347  2.4066
  532MOL0     H71791  -0.549   9.980   5.613  0.9097  1.0426 -0.5689
  532MOL0     H71792  -0.691  10.118   5.846  1.2196  0.5512 -0.3115
  532MOL0     H71793  -0.745  10.076   5.688  0.8889  0.6791  0.2095
  532MOL0     H71794  -0.690   9.851   5.894 -1.1864 -0.0700  1.8278
  532MOL0     H71795  -0.766   9.830   5.745 -2.0798  0.2340 -0.2514
  532MOL0     H71796  -0.869   9.974   5.988 -1.1638 -0.7392  0.2223
  532MOL0     H71797  -0.952   9.983   5.835  0.8100  0.2250  1.4917
  532MOL0     H71798  -0.897   9.713   5.946 -1.2738 -1.1179  1.2434
  532MOL0     H71799  -1.021   9.761   5.830  0.9077  0.5029 -0.2335
  532MOL0     H71800  -1.041   9.873   6.111  0.3957  0.7516 -0.4970
  532MOL0     H71801  -1.109   9.721   6.043 -1.5823 -0.4806 -0.6378
  532MOL0     H71802  -0.056  10.354   5.756 -1.9423 -1.8502  0.6140
  532MOL0     H71803   0.149  10.367   5.642  0.5323  0.6286 -0.9298
  532MOL0     H71804   0.401  10.378   5.317 -2.7753 -2.0653 -1.5373
  532MOL0     H71805   0.632  10.396   5.213  1.8686 -0.0350  2.5200
  532MOL0     H71806   2.627   9.823   5.602 -2.7287  1.3369 -0.5212
  532MOL0     H71807   2.847   9.822   5.734 -1.8966 -0.1140  1.6132
  532MOL0     H71808   3.184   9.894   5.749  2.7795 -0.2387 -0.9111
  532MOL0     H71809   3.419   9.828   5.823 -0.7874 -1.1560  0.5030
  532MOL0     H71810   3.586   9.976   6.196 -2.7893 -0.3093 -0.2369
  532MOL0     H71811   3.503   9.814   6.236 -2.0059  0.6022 -0.8314
  532MOL0     H71812   3.798   9.828   6.142  0.6746  1.2734  1.8114
  532MOL0     H71813   3.687   9.687   6.163 -3.2855  1.6088 -1.8211
  532MOL0     H71814   3.814   9.708   6.365 -0.3108  0.7404  1.0556
  532MOL0     H71815   3.662   9.769   6.409  0.0053  0.0347 -0.3251
  532MOL0     H71816   3.837   9.912   6.491  1.8997  2.1070  0.2785
  532MOL0     H71817   3.732  10.010   6.395 -1.4713 -1.7429 -0.8582
  532MOL0     H71818   4.089  10.054   6.174  2.2587 -0.4163  1.8508
  532MOL0     H71819   3.373   9.990   6.204  2.3134 -0.7898 -0.0640
  532MOL0     H71820   3.164  10.083   6.142  1.0030 -1.1373  2.3189
  533MOL0     O71821   8.572   0.662   3.686  0.4043 -0.5476 -0.2238
  533MOL0     C71822   8.666   0.737   3.707 -0.7892 -0.7481  0.3652
  533MOL0     O71823   8.715   0.778   3.830 -0.3426 -0.0738 -0.1961
  533MOL0     C71824   8.653   0.722   3.941 -0.2496 -0.2999 -0.2934
  533MOL0     C71825   8.680   0.587   3.980 -0.3166 -0.4280 -0.4515
  533MOL0     C71826   8.617   0.525   4.085 -0.3578 -0.0630 -0.5474
  533MOL0     C71827   8.521   0.599   4.152  0.0909  0.1880 -0.0199
  533MOL0     O71828   8.465   0.529   4.246  0.3751 -0.2164 -0.2994
  533MOL0     C71829   8.354   0.592   4.323 -0.2526  0.6433 -0.0008
  533MOL0     C71830   8.291   0.478   4.400 -1.0705  0.4143 -0.9606
  533MOL0     C71831   8.178   0.525   4.499 -0.2264 -0.2332  0.1287
  533MOL0     C71832   8.050   0.438   4.492  0.3435  0.6928 -0.2720
  533MOL0     C71833   8.066   0.291   4.531 -0.1468 -0.0767  0.4178
  533MOL0     C71834   7.929   0.237   4.524  0.2692  1.0438 -0.6122
  533MOL0     C71835   7.929   0.085   4.523  0.6593  0.2490  1.0090
  533MOL0     C71836   7.991   0.024   4.649  0.4517  0.3299  0.1651
  533MOL0     N71837   7.907   0.070   4.766  0.1100 -1.0111  0.0984
  533MOL0     C71838   7.784   0.031   4.808 -0.4490 -0.7672 -0.1130
  533MOL0     C71839   7.757   0.120   4.902  0.2723 -0.2918 -1.0163
  533MOL0     C71840   7.630   0.133   4.972  0.2474 -1.2443 -0.1740
  533MOL0     C71841   7.505   0.157   4.888  0.6278 -0.2250  0.1643
  533MOL0     C71842   7.370   0.126   4.951 -0.2502 -0.0772  0.2211
  533MOL0     C71843   7.248   0.189   4.873 -0.4820 -0.3716 -0.0644
  533MOL0     O71844   7.132   0.188   4.964  0.4319  0.4415  0.2846
  533MOL0     C71845   7.018   0.256   4.929  0.0172  0.0246 -1.0888
  533MOL0     C71846   6.900   0.235   5.001 -0.2166 -0.3430  0.7427
  533MOL0     C71847   6.779   0.304   4.972  0.0363  0.3123  0.9050
  533MOL0     C71848   6.661   0.267   5.060  0.0598 -0.5835  0.5812
  533MOL0     C71849   6.770   0.385   4.859  0.3891 -0.4879  0.1678
  533MOL0     C71850   6.654   0.482   4.835  0.6989 -0.9041  0.3588
  533MOL0     O71851   6.534   0.463   4.895 -0.0599 -0.0448  0.4853
  533MOL0     C71852   6.429   0.547   4.908  0.6327 -0.7362 -0.3377
  533MOL0     C71853   6.404   0.667   4.838 -0.0448  1.0800  0.5540
  533MOL0     C71854   6.286   0.733   4.871 -0.3882 -0.1506  0.2458
  533MOL0     C71855   6.213   0.705   4.986 -0.6443  0.3464 -0.1749
  533MOL0     O71856   6.117   0.802   5.019  0.3134  0.6976  0.1177
  533MOL0     C71857   6.086   0.824   5.152  0.3428 -0.8541  0.2282
  533MOL0     C71858   5.966   0.920   5.170  0.0992  0.5059 -0.9715
  533MOL0     C71859   5.832   0.864   5.108  1.0187 -0.3227 -0.4192
  533MOL0     C71860   5.780   0.751   5.202 -0.6490  0.5978  0.9081
  533MOL0     C71861   5.635   0.725   5.171  0.0395 -0.7814  0.2406
  533MOL0     C71862   5.551   0.810   5.265 -0.7149  0.2939 -0.4379
  533MOL0     C71863   5.407   0.834   5.219  0.5961 -0.2912 -0.5146
  533MOL0     C71864   5.318   0.712   5.243  0.1495 -0.1692  0.6724
  533MOL0    Cl71865   5.275   0.690   5.414 -0.0506 -0.3057 -0.1527
  533MOL0     C71866   6.251   0.592   5.059 -0.0590  0.2428 -0.0858
  533MOL0     C71867   6.350   0.505   5.017  0.2162  0.2123 -0.3424
  533MOL0     O71868   6.668   0.577   4.759 -0.3541 -0.2763 -0.3010
  533MOL0     C71869   6.885   0.396   4.787 -1.0721  1.1735  0.3812
  533MOL0     C71870   7.011   0.340   4.819  0.0860  0.5146  0.2524
  533MOL0     N71871   7.866   0.197   4.926  0.0992  0.6547  0.8499
  533MOL0     N71872   7.957   0.157   4.850  0.0295 -0.0860 -0.7404
  533MOL0     C71873   8.491   0.731   4.115  1.3296 -0.1411  0.7819
  533MOL0     C71874   8.558   0.792   4.014  0.6105  1.0255  0.7335
  533MOL0     C71875   8.733   0.789   3.584  0.7445  1.8224  0.7423
  533MOL0     C71876   8.725   0.720   3.459  0.2222 -0.9718  0.3515
  533MOL0     C71877   8.788   0.755   3.344 -0.0746  0.0456 -0.2390
  533MOL0     C71878   8.876   0.866   3.345  0.1352  0.5159 -0.1136
  533MOL0     O71879   8.962   0.903   3.240  0.2876 -0.2156 -0.3028
  533MOL0     C71880   8.994   0.800   3.147 -0.7654 -0.0420 -0.3643
  533MOL0     C71881   9.066   0.848   3.015  0.0817  0.4872 -0.5245
  533MOL0     C71882   9.208   0.900   3.038  0.2072  0.5774 -0.1770
  533MOL0     C71883   9.298   0.774   3.065  0.0832 -0.4669 -0.1785
  533MOL0     C71884   9.438   0.823   3.051 -0.0713 -0.1334 -0.2805
  533MOL0     C71885   9.551   0.866   3.037 -0.0634 -0.2395  0.2010
  533MOL0     C71886   8.899   0.931   3.467  0.2711 -0.2466  0.4912
  533MOL0     C71887   8.819   0.898   3.584  0.3456 -0.1089  0.4784
  533MOL0     H71888   8.762   0.541   3.926  1.5569  1.8944  0.1854
  533MOL0     H71889   8.643   0.420   4.098  1.1350  0.3986  0.4739
  533MOL0     H71890   8.380   0.673   4.391 -2.1470  1.3349 -0.0273
  533MOL0     H71891   8.281   0.635   4.254  1.0454  1.5730 -0.8478
  533MOL0     H71892   8.252   0.400   4.333 -0.2562 -0.8929  0.0248
  533MOL0     H71893   8.378   0.435   4.452 -1.9330  0.2256  0.3629
  533MOL0     H71894   8.211   0.508   4.602 -3.1193  1.1274  1.3720
  533MOL0     H71895   8.149   0.628   4.480  0.7420 -0.2840 -2.0027
  533MOL0     H71896   7.980   0.476   4.566  2.1831  0.8784  1.4572
  533MOL0     H71897   7.996   0.459   4.399 -1.4837 -1.9486  0.1052
  533MOL0     H71898   8.126   0.233   4.461 -0.3528  0.1972  0.0082
  533MOL0     H71899   8.095   0.291   4.637  2.3276  1.1593 -0.1833
  533MOL0     H71900   7.864   0.280   4.600  0.5781  1.9205 -0.8319
  533MOL0     H71901   7.895   0.267   4.424 -0.2411 -1.1624 -1.1583
  533MOL0     H71902   7.828   0.047   4.508  0.6647  0.0642  1.4478
  533MOL0     H71903   7.992   0.044   4.443  1.0005 -1.7395  2.2455
  533MOL0     H71904   8.095   0.054   4.667  0.8644  0.4834 -2.1333
  533MOL0     H71905   7.990  -0.085   4.639  0.5103  0.5045 -2.2301
  533MOL0     H71906   7.717  -0.047   4.771 -1.6515  0.1752  0.0132
  533MOL0     H71907   7.618   0.036   5.022  2.1820 -0.3496  2.1904
  533MOL0     H71908   7.644   0.207   5.051  2.4202 -1.2886 -0.4553
  533MOL0     H71909   7.516   0.098   4.796 -0.1306  0.4591 -0.3855
  533MOL0     H71910   7.500   0.260   4.852 -1.6711 -0.9602 -1.9725
  533MOL0     H71911   7.362   0.174   5.049  0.3026  1.5354 -0.4763
  533MOL0     H71912   7.359   0.021   4.979  0.2935  0.4178  2.5362
  533MOL0     H71913   7.224   0.146   4.775 -0.6348 -0.3338 -0.0444
  533MOL0     H71914   7.274   0.293   4.850  1.1643 -1.0198 -1.3511
  533MOL0     H71915   6.905   0.176   5.092 -0.7013 -1.7197 -0.0811
  533MOL0     H71916   6.695   0.183   5.122 -0.1655 -1.7728 -0.8487
  533MOL0     H71917   6.616   0.341   5.126 -1.2361 -0.0724 -0.8096
  533MOL0     H71918   6.578   0.234   4.997  0.6331  0.0404 -0.5472
  533MOL0     H71919   6.467   0.697   4.755 -2.8320  0.7382 -1.8513
  533MOL0     H71920   6.268   0.827   4.820 -0.8268  1.9837  3.9405
  533MOL0     H71921   6.049   0.729   5.192  0.2598 -0.5182  0.9702
  533MOL0     H71922   6.171   0.857   5.213  1.0861  0.5433 -1.4763
  533MOL0     H71923   5.941   0.947   5.273 -1.8994 -0.1199 -1.2665
  533MOL0     H71924   5.998   1.006   5.109  3.0370  1.4023  1.5740
  533MOL0     H71925   5.844   0.817   5.010  0.1847 -0.4644 -0.4550
  533MOL0     H71926   5.764   0.946   5.082  0.9931 -1.0563 -2.9273
  533MOL0     H71927   5.835   0.660   5.178 -1.1364 -0.3061  2.9527
  533MOL0     H71928   5.793   0.761   5.311 -3.3337  1.1335  1.2556
  533MOL0     H71929   5.602   0.622   5.183 -0.7298 -0.4075  1.5897
  533MOL0     H71930   5.611   0.755   5.069 -0.4052  0.8757  0.7889
  533MOL0     H71931   5.548   0.761   5.363  0.0306  0.2591 -0.4239
  533MOL0     H71932   5.599   0.908   5.276 -0.6842  0.6651 -3.2625
  533MOL0     H71933   5.391   0.872   5.117  0.4344  0.2698 -0.2827
  533MOL0     H71934   5.367   0.919   5.274 -3.3806 -2.0819 -0.2845
  533MOL0     H71935   5.377   0.627   5.207 -0.3233 -0.7787  1.3140
  533MOL0     H71936   5.225   0.728   5.188  0.5160 -2.5681 -0.7976
  533MOL0     H71937   6.210   0.569   5.157 -1.6358  1.0436 -0.5222
  533MOL0     H71938   6.377   0.424   5.083 -0.1351  0.2342 -0.1721
  533MOL0     H71939   6.881   0.457   4.697 -0.2117  2.2583  1.0447
  533MOL0     H71940   7.090   0.363   4.749 -0.5295  3.0591  0.2849
  533MOL0     H71941   8.409   0.783   4.163 -0.5099 -0.4904 -1.7828
  533MOL0     H71942   8.524   0.889   3.978 -0.9101  0.9419  1.8420
  533MOL0     H71943   8.654   0.638   3.452 -0.6810 -0.1480 -0.7591
  533MOL0     H71944   8.751   0.692   3.263 -0.7631 -1.9553  1.5442
  533MOL0     H71945   9.055   0.731   3.205  1.3311 -0.3650 -2.7495
  533MOL0     H71946   8.904   0.744   3.120 -0.7785 -2.0401  3.2052
  533MOL0     H71947   8.994   0.921   2.977 -1.9106 -1.0429  0.1056
  533MOL0     H71948   9.072   0.766   2.943 -0.1744  2.8520 -3.4006
  533MOL0     H71949   9.211   0.965   3.125  0.5206 -0.7512  0.8423
  533MOL0     H71950   9.241   0.935   2.939 -0.7012  0.9483 -0.3564
  533MOL0     H71951   9.280   0.691   2.996 -0.4000 -1.3962  1.0202
  533MOL0     H71952   9.269   0.732   3.162 -0.0829 -1.2879 -0.5771
  533MOL0     H71953   9.651   0.903   3.027 -0.6469  1.2337 -0.6132
  533MOL0     H71954   8.974   1.009   3.463 -1.1436  1.1403 -0.1106
  533MOL0     H71955   8.841   0.954   3.674  4.7601 -0.8245  0.0689
  534MOL0     O71956   6.977   5.279   7.178 -0.1106  0.7370  0.5647
  534MOL0     C71957   7.054   5.204   7.233 -0.4673 -0.6783 -0.6902
  534MOL0     O71958   7.035   5.155   7.355  0.5093 -0.2878 -0.0260
  534MOL0     C71959   6.913   5.187   7.416 -0.3704 -0.0147  0.6067
  534MOL0     C71960   6.782   5.153   7.365 -0.1578  0.4419 -0.5729
  534MOL0     C71961   6.664   5.171   7.435 -0.5086  0.6743 -0.3440
  534MOL0     C71962   6.671   5.221   7.568 -0.4964 -0.0681 -0.2180
  534MOL0     O71963   6.551   5.222   7.642 -0.1123  0.0435  0.3078
  534MOL0     C71964   6.548   5.234   7.779 -0.8228 -0.1536 -0.1667
  534MOL0     C71965   6.424   5.175   7.834 -0.1428 -0.5041 -0.7205
  534MOL0     C71966   6.398   5.204   7.990  0.6402  0.1236 -0.4621
  534MOL0     C71967   6.248   5.168   8.016 -0.4239 -0.8363  0.3862
  534MOL0     C71968   6.249   5.091   8.146 -0.3120  0.6470  0.2475
  534MOL0     C71969   6.108   5.032   8.156  0.7700 -0.4013  0.4223
  534MOL0     C71970   6.104   4.951   8.290 -0.0932  0.0238  0.1084
  534MOL0     C71971   5.970   4.874   8.302  0.4111  0.3262 -0.9819
  534MOL0     N71972   5.933   4.798   8.424  0.2911  0.1358 -0.9656
  534MOL0     C71973   5.919   4.840   8.560  0.0550  0.0086  0.6317
  534MOL0     C71974   5.866   4.729   8.617  0.5873 -0.7679 -0.8795
  534MOL0     C71975   5.807   4.723   8.759  0.8981  0.0716  0.2436
  534MOL0     C71976   5.881   4.622   8.841 -0.1347 -0.1601 -0.0070
  534MOL0     C71977   6.017   4.675   8.896 -0.0929  0.4906 -0.2346
  534MOL0     C71978   6.075   4.592   9.010 -0.4010 -0.6224 -0.0949
  534MOL0     O71979   6.143   4.471   8.982 -0.1916 -0.1123  0.0836
  534MOL0     C71980   6.233   4.423   9.073 -0.6328 -0.1918 -0.3584
  534MOL0     C71981   6.209   4.298   9.133 -0.1271  0.0362  0.0650
  534MOL0     C71982   6.303   4.246   9.224 -0.4553 -0.3215 -0.6841
  534MOL0     C71983   6.266   4.111   9.279  0.7686 -0.0705  0.3431
  534MOL0     C71984   6.416   4.321   9.263  0.0580  0.4567 -0.4755
  534MOL0     C71985   6.525   4.266   9.350  0.1111 -0.0621 -0.7179
  534MOL0     O71986   6.514   4.137   9.400  0.3938 -0.9473 -0.2208
  534MOL0     C71987   6.626   4.077   9.450  0.4277 -0.1350  0.6880
  534MOL0     C71988   6.659   3.949   9.393  0.9288 -0.0664  0.0146
  534MOL0     C71989   6.772   3.882   9.441  0.0651 -0.6250  0.2266
  534MOL0     C71990   6.847   3.938   9.550 -0.5126  0.5694  0.4150
  534MOL0     O71991   6.960   3.889   9.609 -0.0042 -0.3735 -0.4719
  534MOL0     C71992   7.003   3.754   9.582 -0.3563  0.1949 -0.7141
  534MOL0     C71993   7.124   3.732   9.672 -0.7991 -0.6058 -0.2048
  534MOL0     C71994   7.219   3.624   9.629 -0.1889  0.8474  0.4553
  534MOL0     C71995   7.347   3.636   9.714 -0.1323  0.2804  0.1953
  534MOL0     C71996   7.453   3.723   9.655 -0.2344  0.6747 -0.3021
  534MOL0     C71997   7.592   3.710   9.722  0.2366 -0.2649 -1.3154
  534MOL0     C71998   7.697   3.787   9.640  0.5822  0.6013 -0.3095
  534MOL0     C71999   7.804   3.869   9.714  0.2373  0.2532  0.5824
  534MOL0    Cl72000   7.913   3.935   9.588  0.2126 -0.4710  0.0425
  534MOL0     C72001   6.797   4.047   9.613 -0.3693  0.1301  0.2175
  534MOL0     C72002   6.695   4.130   9.562  0.4573 -0.1677 -0.4450
  534MOL0     O72003   6.623   4.341   9.366  0.0059  0.1646  0.0062
  534MOL0     C72004   6.421   4.454   9.217 -0.0833  0.4446  0.1144
  534MOL0     C72005   6.344   4.505   9.117 -0.0726 -0.4831  0.6119
  534MOL0     N72006   5.847   4.627   8.528 -0.0195  0.9962 -0.1467
  534MOL0     N72007   5.875   4.676   8.410 -0.4272  0.5330 -0.7467
  534MOL0     C72008   6.794   5.271   7.610 -0.3617  0.2973 -0.0455
  534MOL0     C72009   6.914   5.241   7.542 -1.0014 -0.4261  0.0743
  534MOL0     C72010   7.175   5.162   7.166 -0.3329 -0.7160  0.6309
  534MOL0     C72011   7.283   5.120   7.245 -0.1121 -0.4577 -0.3842
  534MOL0     C72012   7.399   5.076   7.191 -0.2488  0.1562 -0.5945
  534MOL0     C72013   7.430   5.087   7.056  0.1173  0.7013  0.4783
  534MOL0     O72014   7.539   5.038   6.988 -0.7828  0.3822  0.5503
  534MOL0     C72015   7.642   4.946   7.036  0.4637  0.6388  0.4810
  534MOL0     C72016   7.783   4.982   6.985 -0.3065  0.7864 -0.3463
  534MOL0     C72017   7.891   4.875   7.000 -1.0838  0.0508 -0.4686
  534MOL0     C72018   8.017   4.904   6.911 -0.8932  0.5424 -0.2016
  534MOL0     C72019   8.126   4.977   6.986  0.0675  0.7871 -0.8839
  534MOL0     C72020   8.205   5.032   7.055  0.3748  0.0560 -0.1719
  534MOL0     C72021   7.323   5.138   6.976 -0.4328 -0.1027 -0.0418
  534MOL0     C72022   7.195   5.165   7.031 -0.7770  0.1219 -0.2318
  534MOL0     H72023   6.787   5.094   7.274 -1.3592 -2.0261  0.8673
  534MOL0     H72024   6.568   5.129   7.405  0.6012 -1.8212 -0.6942
  534MOL0     H72025   6.632   5.174   7.816  2.1992  3.4073 -0.6908
  534MOL0     H72026   6.562   5.338   7.809  2.0783 -0.3823 -0.4243
  534MOL0     H72027   6.343   5.226   7.781  0.6555  2.9273  1.0710
  534MOL0     H72028   6.414   5.066   7.828  0.1637 -0.7562  2.0022
  534MOL0     H72029   6.463   5.139   8.049 -0.7076  0.2530  1.2747
  534MOL0     H72030   6.409   5.305   8.029 -1.2742 -0.4843  1.8899
  534MOL0     H72031   6.182   5.255   8.016 -1.0491 -1.2631 -1.4291
  534MOL0     H72032   6.204   5.115   7.931  2.4860 -0.0044 -1.8077
  534MOL0     H72033   6.328   5.016   8.146 -2.3218 -1.6150  0.3917
  534MOL0     H72034   6.264   5.157   8.232 -1.3523 -0.5653  1.4195
  534MOL0     H72035   6.031   5.110   8.163  0.7371 -0.4366  0.4598
  534MOL0     H72036   6.089   4.961   8.076 -0.4228 -2.5259  2.4582
  534MOL0     H72037   6.192   4.886   8.285 -0.8053 -1.0341  0.8974
  534MOL0     H72038   6.114   5.011   8.381 -2.0156  1.6635 -0.6939
  534MOL0     H72039   5.958   4.809   8.215 -2.8250 -2.9005  1.5598
  534MOL0     H72040   5.883   4.937   8.283  0.1090  0.9181  1.8940
  534MOL0     H72041   5.935   4.933   8.614 -2.1520  0.0407  1.3065
  534MOL0     H72042   5.805   4.819   8.811  3.2876  0.8230 -0.8859
  534MOL0     H72043   5.707   4.681   8.749  0.6648  0.1223  2.1361
  534MOL0     H72044   5.898   4.527   8.789 -0.6711 -0.9779  1.2519
  534MOL0     H72045   5.825   4.584   8.927  1.5123 -0.7858  0.8587
  534MOL0     H72046   6.015   4.779   8.930 -2.0888 -0.2486  2.1742
  534MOL0     H72047   6.091   4.671   8.815 -3.1371 -2.2680 -3.2096
  534MOL0     H72048   5.994   4.562   9.079 -0.2692 -2.2798 -0.6263
  534MOL0     H72049   6.143   4.667   9.052 -0.0833 -0.6245 -0.5990
  534MOL0     H72050   6.118   4.242   9.113 -0.8147  0.7552  1.0870
  534MOL0     H72051   6.244   4.115   9.386  3.1262  2.0313  0.8254
  534MOL0     H72052   6.171   4.084   9.231  0.7813  1.3915 -0.5671
  534MOL0     H72053   6.328   4.029   9.240  0.3526  0.3489 -1.2984
  534MOL0     H72054   6.595   3.904   9.318 -0.6907  0.8724  0.7710
  534MOL0     H72055   6.809   3.798   9.382  0.1962 -1.1787  1.0770
  534MOL0     H72056   6.932   3.681   9.623  1.1012  0.0968  1.8590
  534MOL0     H72057   7.032   3.740   9.477  2.8842  1.2224 -0.0653
  534MOL0     H72058   7.176   3.828   9.667 -0.5481 -0.7558 -0.5320
  534MOL0     H72059   7.095   3.716   9.776 -0.5698  2.2226  0.3697
  534MOL0     H72060   7.234   3.622   9.521 -2.9881  1.2493 -0.0082
  534MOL0     H72061   7.171   3.527   9.647 -1.2294  1.2775  0.0600
  534MOL0     H72062   7.331   3.667   9.818 -1.1135  0.7143 -0.0830
  534MOL0     H72063   7.381   3.532   9.720 -2.0659 -0.4473 -0.6367
  534MOL0     H72064   7.418   3.827   9.661  1.9741  1.4188  0.6545
  534MOL0     H72065   7.476   3.694   9.551  1.1420 -0.0904  0.1863
  534MOL0     H72066   7.597   3.737   9.828  2.0218 -0.0914 -1.4125
  534MOL0     H72067   7.624   3.606   9.723 -2.2187 -1.0937 -2.0495
  534MOL0     H72068   7.641   3.854   9.575 -1.2033  0.0963  0.6411
  534MOL0     H72069   7.750   3.718   9.574  0.2324  1.1433 -1.1640
  534MOL0     H72070   7.871   3.805   9.773  0.1619 -1.2775 -0.9387
  534MOL0     H72071   7.753   3.942   9.778  0.2114  1.1869 -0.4723
  534MOL0     H72072   6.867   4.078   9.689 -0.7017 -0.3744  0.7344
  534MOL0     H72073   6.664   4.217   9.618  0.8271 -1.2693  1.5496
  534MOL0     H72074   6.494   4.526   9.252  0.3805  0.1031 -0.1441
  534MOL0     H72075   6.368   4.606   9.084  1.4971 -1.0554 -0.1051
  534MOL0     H72076   6.803   5.320   7.707  0.3657  0.3798 -0.1534
  534MOL0     H72077   7.006   5.261   7.597 -0.8753 -5.2913  2.1551
  534MOL0     H72078   7.273   5.090   7.349  0.4912 -2.2829 -0.8238
  534MOL0     H72079   7.477   5.037   7.255 -0.9393 -1.6844 -0.8152
  534MOL0     H72080   7.635   4.943   7.145  0.3499  0.8514  0.4799
  534MOL0     H72081   7.624   4.847   6.993 -0.5207  2.2615 -3.2283
  534MOL0     H72082   7.818   5.081   7.018  0.3784  0.4679 -0.1060
  534MOL0     H72083   7.768   5.001   6.879 -0.9331  0.2754 -0.3545
  534MOL0     H72084   7.854   4.776   6.971 -0.5991 -0.4975  0.7346
  534MOL0     H72085   7.933   4.860   7.100  1.5064  1.6644 -1.2125
  534MOL0     H72086   7.995   4.970   6.826 -1.3898  1.4564  0.6084
  534MOL0     H72087   8.051   4.810   6.868  0.2026 -0.3735  2.4803
  534MOL0     H72088   8.277   5.077   7.120 -1.3526  1.4618  0.8606
  534MOL0     H72089   7.359   5.147   6.874  1.5491 -2.9366  0.2684
  534MOL0     H72090   7.122   5.204   6.961  1.6087  2.0427 -1.7701
  535MOL0     O72091   5.502  10.428   7.289 -0.0734  0.3807 -0.1640
  535MOL0     C72092   5.509  10.303   7.289 -0.0232  0.6035  0.6978
  535MOL0     O72093   5.399  10.216   7.280 -0.3593  0.1607 -0.3475
  535MOL0     C72094   5.281  10.266   7.230  0.3020  0.6429 -0.1222
  535MOL0     C72095   5.213  10.199   7.128 -0.0060 -1.0560  1.0094
  535MOL0     C72096   5.092  10.250   7.084  0.0365 -0.5378  0.3041
  535MOL0     C72097   5.021  10.357   7.143  0.1211  0.2956 -0.3421
  535MOL0     O72098   4.903  10.410   7.115 -0.3686  0.3175  0.0230
  535MOL0     C72099   4.818  10.333   7.030  0.4098  0.4589 -0.3942
  535MOL0     C72100   4.691  10.409   7.002  0.4216  0.5029  0.3349
  535MOL0     C72101   4.565  10.332   6.981  0.5142  0.0470  0.1785
  535MOL0     C72102   4.439  10.419   6.972 -0.1975  0.3969 -0.0359
  535MOL0     C72103   4.322  10.327   6.936  0.4414  0.2399  0.3652
  535MOL0     C72104   4.196  10.400   6.972  0.5006 -0.2588 -0.4114
  535MOL0     C72105   4.183  10.544   6.919 -0.6520  0.0857 -0.7546
  535MOL0     C72106   4.043  10.589   6.896 -0.1890 -0.5066 -0.2331
  535MOL0     N72107   3.956  10.562   7.013 -0.2210  0.1218  0.4810
  535MOL0     C72108   3.989  10.601   7.138 -0.7784  1.1188 -0.3275
  535MOL0     C72109   3.897  10.531   7.216  0.1058 -0.5388 -0.0600
  535MOL0     C72110   3.876  10.556   7.381 -0.1009  0.4513  0.2821
  535MOL0     C72111   3.726  10.613   7.411 -0.5919 -0.0884  0.3260
  535MOL0     C72112   3.615  10.510   7.451  0.4104  0.2981 -0.1851
  535MOL0     C72113   3.627  10.467   7.598  0.0708  0.5903 -0.2517
  535MOL0     O72114   3.569  10.573   7.684  0.1493 -0.0962  0.4546
  535MOL0     C72115   3.428  10.575   7.707  0.3244  0.6310  0.3528
  535MOL0     C72116   3.391  10.652   7.813  0.2115  0.8607 -0.1780
  535MOL0     C72117   3.258  10.658   7.859 -0.8747 -0.4257  0.0778
  535MOL0     C72118   3.220  10.731   7.982 -0.2962 -0.4956  0.2658
  535MOL0     C72119   3.161  10.582   7.795 -0.3076  0.1200  0.4560
  535MOL0     C72120   3.019  10.576   7.844 -0.6291 -0.1423 -0.6358
  535MOL0     O72121   2.926  10.607   7.751 -0.4728  0.0956  0.1264
  535MOL0     C72122   2.792  10.580   7.764 -1.0696 -0.5690  0.9254
  535MOL0     C72123   2.714  10.623   7.878 -0.3941  0.8875 -0.3817
  535MOL0     C72124   2.576  10.583   7.879 -1.2472 -0.1995 -0.1186
  535MOL0     C72125   2.522  10.503   7.779  1.1480  0.1110 -1.1294
  535MOL0     O72126   2.392  10.469   7.790  0.4258 -0.4987 -0.1375
  535MOL0     C72127   2.302  10.434   7.679 -0.3915  0.7594 -0.1803
  535MOL0     C72128   2.165  10.483   7.728  0.8834  0.3953 -0.7973
  535MOL0     C72129   2.056  10.462   7.627 -0.4399 -0.1623  0.7756
  535MOL0     C72130   1.928  10.519   7.667 -0.2758 -0.3247 -0.3269
  535MOL0     C72131   1.846  10.505   7.536 -0.1744  0.2336 -0.6953
  535MOL0     C72132   1.704  10.558   7.540 -0.2156 -0.8134  0.3249
  535MOL0     C72133   1.620  10.516   7.419 -0.8132  0.5451 -0.2456
  535MOL0     C72134   1.481  10.569   7.419 -0.1499 -0.4796  0.0731
  535MOL0    Cl72135   1.376  10.511   7.557 -0.5924 -0.0481 -0.0628
  535MOL0     C72136   2.601  10.477   7.667 -0.1934 -0.3501  0.2671
  535MOL0     C72137   2.739  10.508   7.660  0.5630 -0.7433  0.4691
  535MOL0     O72138   2.999  10.543   7.958 -0.5593  0.3191 -0.9877
  535MOL0     C72139   3.191  10.510   7.677 -0.5296 -0.5029 -0.1383
  535MOL0     C72140   3.327  10.506   7.629  0.0439 -0.1751 -0.0541
  535MOL0     N72141   3.816  10.457   7.134  1.1790 -0.3738 -0.3863
  535MOL0     N72142   3.851  10.482   7.009  0.5991  0.3629 -0.3337
  535MOL0     C72143   5.092  10.426   7.239 -0.4010  0.1500  0.2119
  535MOL0     C72144   5.222  10.379   7.285  0.0756 -0.0975 -0.0150
  535MOL0     C72145   5.642  10.231   7.296 -0.2958 -0.0090  0.1470
  535MOL0     C72146   5.648  10.092   7.331  0.1613  0.1498  0.3786
  535MOL0     C72147   5.783  10.036   7.332 -0.0832 -0.1193  1.0641
  535MOL0     C72148   5.906  10.103   7.313  0.5703  1.1811 -0.5782
  535MOL0     O72149   6.034  10.050   7.323 -0.2276  0.7057 -0.3722
  535MOL0     C72150   6.052   9.911   7.350 -0.2190  0.3426 -0.2792
  535MOL0     C72151   6.203   9.885   7.320  0.0018  0.2778 -0.7324
  535MOL0     C72152   6.247   9.745   7.362  0.0418 -0.4410 -0.1967
  535MOL0     C72153   6.289   9.733   7.508 -0.2638 -0.1594  0.3658
  535MOL0     C72154   6.313   9.587   7.539 -0.4415 -0.3751  0.2936
  535MOL0     C72155   6.350   9.483   7.563 -0.4192  0.5203 -0.1102
  535MOL0     C72156   5.890  10.239   7.275  0.7215 -0.3225 -0.4222
  535MOL0     C72157   5.765  10.297   7.269 -0.0520  0.2993  0.8945
  535MOL0     H72158   5.255  10.106   7.091  2.0150 -0.0714  0.7005
  535MOL0     H72159   5.053  10.193   7.000  0.0895 -0.0616 -0.0487
  535MOL0     H72160   4.868  10.322   6.933  1.4196  0.8111  0.0717
  535MOL0     H72161   4.795  10.235   7.074 -0.3564  0.0178 -1.7146
  535MOL0     H72162   4.665  10.472   7.087  1.7218  1.6846 -0.1197
  535MOL0     H72163   4.706  10.468   6.912  0.8970  0.2353  0.2365
  535MOL0     H72164   4.578  10.280   6.885  2.5614 -1.4799  1.2115
  535MOL0     H72165   4.556  10.253   7.055  0.7014 -1.3378 -1.2172
  535MOL0     H72166   4.429  10.458   7.074 -0.6414 -0.2424  0.1681
  535MOL0     H72167   4.442  10.490   6.889  1.2873  0.9099  0.4168
  535MOL0     H72168   4.311  10.291   6.833 -1.6694 -0.8990  0.9334
  535MOL0     H72169   4.323  10.238   6.999 -0.0076  2.3506  3.5518
  535MOL0     H72170   4.103  10.345   6.953  0.5249 -0.9615  1.3325
  535MOL0     H72171   4.199  10.417   7.080  3.6619 -0.1009 -0.4370
  535MOL0     H72172   4.244  10.612   6.979  4.2241 -1.0532 -3.8140
  535MOL0     H72173   4.241  10.541   6.826  0.9078 -0.5458  0.1820
  535MOL0     H72174   3.996  10.548   6.806 -0.8263  1.2845 -0.7720
  535MOL0     H72175   4.048  10.697   6.875  0.7939 -0.6596 -0.8708
  535MOL0     H72176   4.056  10.680   7.171  1.6955 -1.4107  1.0848
  535MOL0     H72177   3.893  10.461   7.433 -1.2686  0.1357  0.1231
  535MOL0     H72178   3.955  10.624   7.414 -0.3214  0.2276  1.2939
  535MOL0     H72179   3.686  10.669   7.326 -2.4833 -1.3514  0.3310
  535MOL0     H72180   3.743  10.679   7.497  3.0154 -1.9989  1.3085
  535MOL0     H72181   3.626  10.423   7.386  1.2627  1.4616 -1.6594
  535MOL0     H72182   3.516  10.554   7.437  0.1944 -0.1093  0.0570
  535MOL0     H72183   3.732  10.459   7.626  0.8839  2.2695 -2.4792
  535MOL0     H72184   3.577  10.371   7.609  1.1277  0.1836  1.3014
  535MOL0     H72185   3.469  10.704   7.867  1.5630  0.0647 -1.3254
  535MOL0     H72186   3.136  10.799   7.960 -0.8442 -1.7374 -1.7394
  535MOL0     H72187   3.188  10.666   8.064 -0.8828  0.6054  0.9447
  535MOL0     H72188   3.299  10.792   8.026 -0.8227  0.0995  0.4175
  535MOL0     H72189   2.769  10.681   7.952 -0.1888  3.2230 -2.2235
  535MOL0     H72190   2.507  10.616   7.956  0.4420  1.0383  0.9662
  535MOL0     H72191   2.342  10.474   7.586  2.9224 -1.7656 -0.0006
  535MOL0     H72192   2.315  10.325   7.677  2.1365  0.8118  3.3743
  535MOL0     H72193   2.135  10.440   7.824  0.7555  1.3402 -0.4041
  535MOL0     H72194   2.172  10.591   7.740 -1.6669  0.3536  2.0605
  535MOL0     H72195   2.053  10.355   7.604  2.0643 -0.3102  0.8799
  535MOL0     H72196   2.083  10.519   7.538  1.2860 -0.3346  1.1535
  535MOL0     H72197   1.892  10.471   7.759  1.9580 -2.9389 -0.6973
  535MOL0     H72198   1.937  10.626   7.686 -0.3924 -0.0792 -1.5784
  535MOL0     H72199   1.839  10.398   7.515  1.4757 -0.5837  2.4215
  535MOL0     H72200   1.899  10.562   7.459  2.3433  0.5783  1.1857
  535MOL0     H72201   1.665  10.510   7.630 -1.4483 -0.5058 -0.0310
  535MOL0     H72202   1.706  10.667   7.552  0.6731 -0.2365 -3.5386
  535MOL0     H72203   1.609  10.407   7.417  0.0984  0.4224 -2.8021
  535MOL0     H72204   1.674  10.549   7.329  2.3213 -1.3901  0.7655
  535MOL0     H72205   1.433  10.542   7.325  2.1538  0.9083 -1.6205
  535MOL0     H72206   1.483  10.678   7.414  0.9801 -0.5199 -1.0685
  535MOL0     H72207   2.551  10.421   7.588 -2.2096  0.6803  0.7341
  535MOL0     H72208   2.797  10.492   7.569  0.0943  0.2295 -0.0049
  535MOL0     H72209   3.128  10.441   7.621 -1.1671  1.6279 -2.2470
  535MOL0     H72210   3.357  10.458   7.536 -0.5097  1.8500 -1.3329
  535MOL0     H72211   5.051  10.509   7.296 -0.7229 -0.7437  1.3240
  535MOL0     H72212   5.257  10.421   7.379 -0.4227 -0.7343  0.4637
  535MOL0     H72213   5.570  10.030   7.374  0.8235 -0.4882  0.6727
  535MOL0     H72214   5.792   9.934   7.368 -0.0293 -0.2095  0.7969
  535MOL0     H72215   6.016   9.887   7.451 -0.4895 -1.0306 -0.6849
  535MOL0     H72216   5.992   9.857   7.276 -0.1271  0.9331 -0.7843
  535MOL0     H72217   6.266   9.960   7.369  1.0429 -1.2944  0.4452
  535MOL0     H72218   6.209   9.894   7.212  2.5451  1.6084 -0.5693
  535MOL0     H72219   6.338   9.720   7.306 -0.1098  1.0656 -1.1748
  535MOL0     H72220   6.165   9.678   7.335  1.4233 -1.1977 -2.7904
  535MOL0     H72221   6.207   9.759   7.575 -0.5075 -1.9926  0.8335
  535MOL0     H72222   6.381   9.789   7.527 -0.5480  0.3452  0.2722
  535MOL0     H72223   6.385   9.384   7.588 -2.0038  0.3203  1.5068
  535MOL0     H72224   5.974  10.305   7.258 -0.7421  1.7227 -0.1520
  535MOL0     H72225   5.773  10.402   7.243 -0.4155  0.1427  0.1130
  536MOL0     O72226   2.242   6.135  10.238  0.1112  0.4919  0.8331
  536MOL0     C72227   2.317   6.225  10.230 -0.0233  0.4719 -0.2054
  536MOL0     O72228   2.284   6.355  10.216  0.1054 -0.6932 -0.1183
  536MOL0     C72229   2.152   6.377  10.219 -0.1025  0.0333  0.3619
  536MOL0     C72230   2.081   6.390  10.096  0.7827  0.1465 -0.1856
  536MOL0     C72231   1.946   6.422  10.095  0.4678  0.0111 -0.3542
  536MOL0     C72232   1.881   6.439  10.216 -0.0647 -0.3855  0.1456
  536MOL0     O72233   1.745   6.451  10.239 -0.1062 -0.7779  0.1474
  536MOL0     C72234   1.654   6.482  10.136  0.2383  0.6610  0.3798
  536MOL0     C72235   1.532   6.526  10.213  0.2851  0.3857  0.6042
  536MOL0     C72236   1.397   6.485  10.142 -0.1237 -0.3087 -0.4008
  536MOL0     C72237   1.272   6.547  10.211  0.1822  1.0616  0.0402
  536MOL0     C72238   1.154   6.480  10.141 -0.7296 -0.5481  0.1571
  536MOL0     C72239   1.016   6.521  10.188 -0.4769  0.2427 -0.3012
  536MOL0     C72240   0.905   6.434  10.121  0.2617 -0.1710  0.2159
  536MOL0     C72241   0.772   6.501  10.150 -0.7258  0.5205 -0.0102
  536MOL0     N72242   0.660   6.447  10.069  0.1683  0.3790 -0.6850
  536MOL0     C72243   0.617   6.313  10.059 -0.1789 -1.1652  0.3662
  536MOL0     C72244   0.483   6.330  10.031  0.1197  0.6218 -1.1313
  536MOL0     C72245   0.366   6.231  10.025 -0.2445 -0.1328 -0.5988
  536MOL0     C72246   0.237   6.282  10.083 -0.1029 -0.1801 -0.4713
  536MOL0     C72247   0.127   6.178  10.103 -0.9003 -0.4830 -0.2298
  536MOL0     C72248  -0.000   6.237  10.166  0.3342 -0.5656 -0.2290
  536MOL0     O72249  -0.100   6.142  10.188 -0.0309  0.0971  0.4061
  536MOL0     C72250  -0.236   6.165  10.185 -0.1000  0.2719  0.3021
  536MOL0     C72251  -0.293   6.297  10.183 -0.4625 -0.4831  0.3543
  536MOL0     C72252  -0.425   6.311  10.160  0.2746 -0.2561  0.4407
  536MOL0     C72253  -0.466   6.462  10.149  0.3881 -0.1253  0.6399
  536MOL0     C72254  -0.510   6.197  10.148 -1.1161 -0.3826 -0.3900
  536MOL0     C72255  -0.658   6.211  10.121 -0.6812 -0.6264 -0.7739
  536MOL0     O72256  -0.719   6.322  10.166  0.0482  0.1974  0.8099
  536MOL0     C72257  -0.847   6.336  10.160 -0.0915 -0.0009  0.2474
  536MOL0     C72258  -0.904   6.400  10.269  0.5148 -0.1010 -1.3042
  536MOL0     C72259  -1.041   6.430  10.275  1.0203  0.1209 -0.1908
  536MOL0     C72260  -1.130   6.387  10.174  0.3207 -0.7745  0.7703
  536MOL0     O72261  -1.267   6.422  10.162 -0.5324  0.8133  0.2336
  536MOL0     C72262  -1.340   6.476  10.278  0.0718 -0.0799 -0.3301
  536MOL0     C72263  -1.488   6.503  10.241 -0.2313 -0.3312  0.0713
  536MOL0     C72264  -1.553   6.628  10.303  0.4833  0.0869  0.0330
  536MOL0     C72265  -1.711   6.607  10.306 -0.6094 -0.5010  0.3105
  536MOL0     C72266  -1.783   6.708  10.398 -1.2868 -0.2773 -0.5277
  536MOL0     C72267  -1.930   6.686  10.413 -0.2813  0.3252  0.1286
  536MOL0     C72268  -1.989   6.807  10.499  0.0055  0.1751 -0.3287
  536MOL0     C72269  -1.938   6.817  10.648 -0.1535 -0.8415  0.3533
  536MOL0    Cl72270  -1.969   6.654  10.715  0.1322  0.1706 -0.0581
  536MOL0     C72271  -1.068   6.320  10.068  0.1645  0.9010  0.2072
  536MOL0     C72272  -0.932   6.294  10.057 -0.5926  0.0897 -0.1652
  536MOL0     O72273  -0.720   6.109  10.091 -0.4721  0.4831 -0.8124
  536MOL0     C72274  -0.448   6.069  10.170  0.4455  0.2302  0.4574
  536MOL0     C72275  -0.314   6.058  10.185 -0.2834 -0.1146 -0.4287
  536MOL0     N72276   0.460   6.464  10.031  0.3091  0.1522 -0.5473
  536MOL0     N72277   0.561   6.533  10.039  0.0693 -0.0556 -0.5746
  536MOL0     C72278   1.949   6.440  10.336 -0.9775  0.1572 -0.5001
  536MOL0     C72279   2.085   6.394  10.344 -0.3887 -0.1245  0.1117
  536MOL0     C72280   2.459   6.195  10.225  0.0772  0.6969 -0.3400
  536MOL0     C72281   2.556   6.302  10.235  0.5397  0.7367  0.0007
  536MOL0     C72282   2.692   6.288  10.232 -0.3090  0.5149 -0.5543
  536MOL0     C72283   2.747   6.161  10.226  0.4109 -0.6375 -0.2900
  536MOL0     O72284   2.881   6.136  10.223 -0.0201  0.6024 -0.4322
  536MOL0     C72285   2.939   6.161  10.090  0.0528 -0.1538 -0.3893
  536MOL0     C72286   3.060   6.070  10.069  0.1709  0.6377  0.2788
  536MOL0     C72287   3.125   6.098   9.928 -0.0565  0.0731  0.3029
  536MOL0     C72288   3.209   6.222   9.933  0.2414 -0.7870  0.3882
  536MOL0     C72289   3.325   6.200  10.019  0.0444 -0.5089 -0.4332
  536MOL0     C72290   3.418   6.201  10.093 -0.6883  0.5636  0.0982
  536MOL0     C72291   2.653   6.048  10.218 -0.0696  0.1437 -0.6894
  536MOL0     C72292   2.513   6.062  10.218 -1.0483  0.0797 -0.2599
  536MOL0     H72293   2.125   6.383   9.998  0.1581 -0.6850 -0.4184
  536MOL0     H72294   1.894   6.421   9.999 -0.3671 -0.7214  0.0898
  536MOL0     H72295   1.677   6.561  10.064 -0.1931  0.7120  0.2973
  536MOL0     H72296   1.626   6.393  10.078  1.1860  1.1723 -0.9174
  536MOL0     H72297   1.516   6.477  10.309 -0.1781 -2.1612 -0.6963
  536MOL0     H72298   1.534   6.635  10.223  0.3747  0.1500  4.4915
  536MOL0     H72299   1.397   6.533  10.044 -0.9099  0.1359 -0.1965
  536MOL0     H72300   1.388   6.378  10.123  0.4310 -0.7412  1.5188
  536MOL0     H72301   1.266   6.537  10.320 -2.0159 -2.0800 -0.2472
  536MOL0     H72302   1.283   6.655  10.198  1.1688  1.1135  1.1467
  536MOL0     H72303   1.168   6.500  10.034  1.8919  0.9454  0.6918
  536MOL0     H72304   1.158   6.372  10.152 -0.8369 -0.5078  0.6304
  536MOL0     H72305   1.004   6.524  10.297 -1.8434  3.2476 -0.4105
  536MOL0     H72306   1.017   6.628  10.166 -0.5903  0.6737  1.6234
  536MOL0     H72307   0.920   6.422  10.014 -0.4854  1.5437 -0.1208
  536MOL0     H72308   0.901   6.332  10.159  1.2351 -0.5439 -0.6480
  536MOL0     H72309   0.778   6.604  10.113 -5.7991  2.0684  2.5597
  536MOL0     H72310   0.751   6.504  10.258  3.6118 -2.2015  1.1839
  536MOL0     H72311   0.677   6.223  10.067  1.6564 -0.0030  0.2026
  536MOL0     H72312   0.355   6.203   9.920 -1.0901  1.6537 -1.0262
  536MOL0     H72313   0.409   6.151  10.086  1.9275  1.1719 -0.3173
  536MOL0     H72314   0.202   6.369  10.027 -0.8950  0.5900  1.1350
  536MOL0     H72315   0.254   6.315  10.186  3.3838  0.7584 -1.2031
  536MOL0     H72316   0.160   6.090  10.158  0.0525 -0.6408 -1.0395
  536MOL0     H72317   0.094   6.153  10.002 -1.4642 -0.4190 -0.0701
  536MOL0     H72318  -0.039   6.307  10.091 -2.1917 -0.1955  1.2921
  536MOL0     H72319   0.031   6.285  10.258  3.1675 -2.8994  0.1642
  536MOL0     H72320  -0.230   6.385  10.186  0.2372 -0.8699 -1.4331
  536MOL0     H72321  -0.526   6.486  10.237  0.7314  0.6370  0.6747
  536MOL0     H72322  -0.381   6.531  10.142 -0.1354  0.3837 -0.9805
  536MOL0     H72323  -0.524   6.486  10.060 -0.7559 -0.0285  1.3854
  536MOL0     H72324  -0.841   6.417  10.356 -0.4986 -2.3433 -0.0455
  536MOL0     H72325  -1.068   6.488  10.362  1.1511 -1.1146  0.6979
  536MOL0     H72326  -1.333   6.412  10.366 -1.6928  0.5396  0.3027
  536MOL0     H72327  -1.296   6.572  10.306 -0.6014  0.1688 -0.0955
  536MOL0     H72328  -1.508   6.504  10.134 -3.0802  3.0611  0.4107
  536MOL0     H72329  -1.534   6.410  10.275  0.0263 -1.5112 -2.6304
  536MOL0     H72330  -1.531   6.721  10.249  2.5686 -0.1173  0.4346
  536MOL0     H72331  -1.515   6.644  10.404  1.9228 -0.4977 -0.3902
  536MOL0     H72332  -1.757   6.634  10.210 -2.1816 -0.4543  1.0524
  536MOL0     H72333  -1.732   6.502  10.323  1.9226 -1.5959 -2.3475
  536MOL0     H72334  -1.761   6.804  10.352 -1.6549 -0.4271 -1.0198
  536MOL0     H72335  -1.738   6.708  10.498 -1.3457 -0.0622 -0.5008
  536MOL0     H72336  -1.973   6.706  10.314  1.6616  1.5619 -0.5354
  536MOL0     H72337  -1.952   6.584  10.445 -0.0273  0.0991 -0.4108
  536MOL0     H72338  -2.094   6.778  10.510  0.2333 -0.2319  0.9027
  536MOL0     H72339  -1.975   6.903  10.449  0.8643 -0.4375 -1.3238
  536MOL0     H72340  -1.988   6.905  10.690  0.6182  0.4781 -1.3376
  536MOL0     H72341  -1.832   6.841  10.652  0.0286 -1.3838 -0.8184
  536MOL0     H72342  -1.141   6.283   9.997 -2.2061  1.2928  2.2622
  536MOL0     H72343  -0.896   6.246   9.967  3.5502 -0.4944  1.5646
  536MOL0     H72344  -0.497   5.973  10.169  2.3204 -0.8343 -2.2553
  536MOL0     H72345  -0.266   5.963  10.202  2.2548  0.9589 -1.1765
  536MOL0     H72346   1.894   6.475  10.422 -0.0537  1.8299 -0.5397
  536MOL0     H72347   2.146   6.397  10.434  3.7119  0.0216 -2.4107
  536MOL0     H72348   2.515   6.403  10.234 -1.5391 -0.0186  1.6978
  536MOL0     H72349   2.765   6.366  10.248  0.2084 -0.0911  0.1004
  536MOL0     H72350   2.866   6.132  10.014  2.3612  0.9335 -3.2245
  536MOL0     H72351   2.958   6.269  10.085 -0.2357 -0.1368 -1.2188
  536MOL0     H72352   3.027   5.966  10.069  0.2520  0.6116 -0.5017
  536MOL0     H72353   3.130   6.072  10.153 -0.6899 -0.3110  1.0428
  536MOL0     H72354   3.042   6.115   9.858  0.4302  0.2167 -0.2517
  536MOL0     H72355   3.179   6.014   9.884  0.3129  1.3572 -1.8732
  536MOL0     H72356   3.147   6.303   9.971  0.3176 -1.1794  1.4036
  536MOL0     H72357   3.244   6.239   9.831  0.9247 -0.5368  0.6601
  536MOL0     H72358   3.503   6.195  10.158  0.5033  0.1546 -1.4384
  536MOL0     H72359   2.684   5.944  10.210 -1.3221 -0.6027  2.5279
  536MOL0     H72360   2.448   5.977  10.201  2.2907 -2.5834 -0.7706
  537MOL0     O72361   3.826   3.756   4.264  0.4278 -0.2327  0.2838
  537MOL0     C72362   3.859   3.744   4.147  0.2042 -0.3807 -0.2792
  537MOL0     O72363   3.792   3.798   4.032 -0.4918 -1.3677 -0.3325
  537MOL0     C72364   3.657   3.811   4.022  0.1353  1.1455 -0.1361
  537MOL0     C72365   3.600   3.891   3.932  0.3584 -0.1653  0.1670
  537MOL0     C72366   3.460   3.913   3.922  0.0284 -0.6090  0.0508
  537MOL0     C72367   3.377   3.849   4.003  0.0613  0.4469  0.0225
  537MOL0     O72368   3.241   3.860   4.003  0.2007  0.1839  0.5322
  537MOL0     C72369   3.193   3.993   3.967  0.2191  0.0342 -0.7348
  537MOL0     C72370   3.047   3.997   3.977  0.2791  0.6323 -0.8289
  537MOL0     C72371   2.981   3.889   3.886  0.1041  0.4572  0.1862
  537MOL0     C72372   2.829   3.876   3.912 -0.0591  0.4661 -0.1331
  537MOL0     C72373   2.761   3.768   3.813 -0.1485 -0.0434  0.0288
  537MOL0     C72374   2.608   3.791   3.815 -0.1536  0.0895  0.7543
  537MOL0     C72375   2.535   3.740   3.689  0.1247  0.5591 -0.7740
  537MOL0     C72376   2.407   3.823   3.671 -0.3899  0.5516  0.6113
  537MOL0     N72377   2.319   3.752   3.581 -0.1499  0.3784  0.5287
  537MOL0     C72378   2.331   3.631   3.513  0.0413 -0.4131 -0.5323
  537MOL0     C72379   2.210   3.623   3.455 -0.7701  1.0651  0.9539
  537MOL0     C72380   2.166   3.483   3.392 -0.1373 -1.1817  0.0837
  537MOL0     C72381   2.162   3.490   3.235 -0.0314 -0.2245 -0.2741
  537MOL0     C72382   2.090   3.368   3.177  0.2351 -0.5184 -0.4599
  537MOL0     C72383   2.071   3.369   3.022 -0.4973 -1.3796  0.2497
  537MOL0     O72384   2.189   3.414   2.952 -0.6270 -0.3590  0.2408
  537MOL0     C72385   2.175   3.481   2.834  0.2558  0.8341 -0.1180
  537MOL0     C72386   2.059   3.459   2.757 -0.5223 -0.4308 -0.4787
  537MOL0     C72387   2.046   3.523   2.636 -0.2241 -0.3651  0.6794
  537MOL0     C72388   1.917   3.483   2.564  1.0455  0.1999  0.6551
  537MOL0     C72389   2.145   3.610   2.590  0.0795 -0.6206  0.6505
  537MOL0     C72390   2.142   3.681   2.455 -0.8326 -0.6228  0.0842
  537MOL0     O72391   2.231   3.791   2.432 -0.7106 -0.0068 -0.1277
  537MOL0     C72392   2.251   3.844   2.308 -0.0038 -0.0130  0.6536
  537MOL0     C72393   2.324   3.968   2.309 -0.0863 -0.7505  0.7627
  537MOL0     C72394   2.344   4.039   2.188 -0.2776 -0.3954  0.0539
  537MOL0     C72395   2.290   3.992   2.070  0.2498 -0.0986  0.3962
  537MOL0     O72396   2.311   4.063   1.953  0.0269 -0.3405 -0.1565
  537MOL0     C72397   2.255   4.197   1.951 -0.0072  1.0386 -0.3881
  537MOL0     C72398   2.109   4.204   1.920 -0.4808  0.4473  0.1177
  537MOL0     C72399   2.057   4.333   1.861 -0.9792 -0.0983  0.5369
  537MOL0     C72400   1.901   4.330   1.859  0.3242 -0.3455 -0.1216
  537MOL0     C72401   1.847   4.459   1.795 -0.2474  0.4286 -0.5819
  537MOL0     C72402   1.692   4.464   1.807 -0.2547 -0.1454  0.1393
  537MOL0     C72403   1.637   4.586   1.736  1.0650 -0.9115  0.1174
  537MOL0     C72404   1.485   4.574   1.717 -0.3713 -0.1147 -0.1086
  537MOL0    Cl72405   1.445   4.422   1.629  0.0335 -0.2309 -0.5195
  537MOL0     C72406   2.220   3.870   2.067 -0.2416  0.5961 -0.5706
  537MOL0     C72407   2.207   3.791   2.183 -0.9773  0.0465 -0.2426
  537MOL0     O72408   2.060   3.639   2.379  0.0778  0.6308  0.3562
  537MOL0     C72409   2.262   3.628   2.667 -0.2209 -1.0403  0.4754
  537MOL0     C72410   2.282   3.558   2.784 -0.4379  0.4127 -0.5486
  537MOL0     N72411   2.128   3.732   3.470 -0.7066  0.1493  0.4625
  537MOL0     N72412   2.200   3.814   3.546 -0.7097 -0.0460  0.4140
  537MOL0     C72413   3.432   3.765   4.098 -0.0671  0.5199 -0.6001
  537MOL0     C72414   3.569   3.739   4.103  0.9757 -0.0552 -0.6681
  537MOL0     C72415   3.988   3.689   4.119 -0.1621  0.6093  0.2902
  537MOL0     C72416   4.068   3.647   4.233  0.9134 -0.3957  0.5708
  537MOL0     C72417   4.188   3.579   4.215  0.2607 -0.6681 -0.4597
  537MOL0     C72418   4.225   3.540   4.089 -0.3389 -0.5335  0.7540
  537MOL0     O72419   4.355   3.485   4.069 -0.0341 -0.0624 -0.4541
  537MOL0     C72420   4.396   3.366   4.145  0.8469  0.7941  0.2005
  537MOL0     C72421   4.397   3.244   4.049 -1.3019 -1.1795  0.2011
  537MOL0     C72422   4.272   3.239   3.957  0.0478 -0.7439  0.0991
  537MOL0     C72423   4.251   3.102   3.902  0.0068 -0.0566 -0.4915
  537MOL0     C72424   4.119   3.082   3.838  0.8914  0.1544 -0.1320
  537MOL0     C72425   4.002   3.090   3.808 -0.7131 -0.3091  0.6471
  537MOL0     C72426   4.162   3.593   3.986 -0.1486 -1.1600  0.1644
  537MOL0     C72427   4.040   3.667   3.994 -0.3212 -0.0065  0.0149
  537MOL0     H72428   3.666   3.945   3.865  0.0248 -1.7683 -1.5123
  537MOL0     H72429   3.422   3.974   3.840  0.9415  0.0424  0.0933
  537MOL0     H72430   3.230   4.063   4.042 -0.9224 -1.0248  0.8780
  537MOL0     H72431   3.219   4.033   3.868 -0.1901  0.3190 -0.7303
  537MOL0     H72432   3.017   3.981   4.080  2.2623  1.8213 -0.0147
  537MOL0     H72433   3.001   4.091   3.943 -3.5776 -0.9300 -0.4120
  537MOL0     H72434   2.986   3.947   3.793 -1.6355 -0.4704 -0.5360
  537MOL0     H72435   3.035   3.794   3.880  1.4424  1.2061  0.0114
  537MOL0     H72436   2.820   3.826   4.009 -1.7362  0.9000 -0.0282
  537MOL0     H72437   2.774   3.971   3.910 -3.8521 -1.4727  1.4067
  537MOL0     H72438   2.792   3.799   3.712 -0.7814 -2.3877 -0.9434
  537MOL0     H72439   2.781   3.662   3.829 -0.4914 -0.1283 -0.1010
  537MOL0     H72440   2.557   3.764   3.907 -1.8508  0.5885  0.0072
  537MOL0     H72441   2.603   3.901   3.818  0.7830  0.1103  2.0793
  537MOL0     H72442   2.596   3.754   3.600  1.1183 -1.7365 -0.5317
  537MOL0     H72443   2.524   3.633   3.710  0.6810  0.3826 -1.3842
  537MOL0     H72444   2.430   3.924   3.637  1.1815 -0.4873 -1.7086
  537MOL0     H72445   2.371   3.833   3.774 -0.8756  0.0222  0.5024
  537MOL0     H72446   2.408   3.558   3.536 -0.2220 -0.0423  1.7930
  537MOL0     H72447   2.230   3.397   3.415  1.3418 -0.2041 -0.2584
  537MOL0     H72448   2.065   3.462   3.430 -1.1560  0.1107 -1.7276
  537MOL0     H72449   2.265   3.503   3.201  1.1983 -0.8317  2.8829
  537MOL0     H72450   2.102   3.577   3.209  0.1239  0.8089  2.4964
  537MOL0     H72451   1.985   3.366   3.210  0.4314 -1.8701  0.1732
  537MOL0     H72452   2.145   3.279   3.210 -0.2275 -0.2529  1.1227
  537MOL0     H72453   1.991   3.443   3.005  1.1914  0.0728 -2.0039
  537MOL0     H72454   2.047   3.269   2.985 -1.8972 -0.8612 -0.3174
  537MOL0     H72455   1.977   3.393   2.784  0.2269 -0.5361  1.7605
  537MOL0     H72456   1.886   3.384   2.595 -0.9106  1.4203  2.8373
  537MOL0     H72457   1.832   3.548   2.586 -1.2100 -2.5519  0.5634
  537MOL0     H72458   1.919   3.478   2.454  3.8715 -0.5492  0.6652
  537MOL0     H72459   2.371   4.005   2.400 -0.6146  2.9291 -0.3277
  537MOL0     H72460   2.395   4.134   2.197 -0.0848 -0.4511 -0.4277
  537MOL0     H72461   2.251   4.245   2.049 -2.7118  0.1618  0.0148
  537MOL0     H72462   2.313   4.247   1.873 -0.8731  0.5139 -1.4036
  537MOL0     H72463   2.081   4.116   1.862 -1.6623  0.4947  0.5727
  537MOL0     H72464   2.048   4.190   2.010 -2.2239 -1.1341 -1.2218
  537MOL0     H72465   2.102   4.341   1.762  1.3845  0.6610  1.5800
  537MOL0     H72466   2.105   4.416   1.914  1.7980 -1.1601 -0.1711
  537MOL0     H72467   1.882   4.246   1.793 -0.2078 -0.2320 -0.1168
  537MOL0     H72468   1.858   4.317   1.959  0.7321 -2.4520 -0.1882
  537MOL0     H72469   1.879   4.470   1.691 -0.1981 -1.5470 -0.8104
  537MOL0     H72470   1.886   4.539   1.859 -1.4346 -0.4236  1.2818
  537MOL0     H72471   1.657   4.374   1.755  1.3480 -1.9533  2.0273
  537MOL0     H72472   1.657   4.454   1.910  0.0724 -0.5666  0.2117
  537MOL0     H72473   1.677   4.592   1.634 -0.8293 -0.6889 -0.6579
  537MOL0     H72474   1.661   4.680   1.788 -0.6434 -0.1446 -0.3979
  537MOL0     H72475   1.456   4.652   1.646 -3.0306  0.4492  1.4558
  537MOL0     H72476   1.440   4.580   1.817 -0.2638 -0.6884 -0.0226
  537MOL0     H72477   2.184   3.835   1.971 -2.8310 -1.9499  1.1839
  537MOL0     H72478   2.173   3.688   2.180  1.6721 -0.8750 -0.8501
  537MOL0     H72479   2.336   3.702   2.636 -1.7221  0.4236  0.2275
  537MOL0     H72480   2.360   3.576   2.856 -1.2307 -1.8425  0.9912
  537MOL0     H72481   3.371   3.716   4.173  0.2688  1.6361  0.4285
  537MOL0     H72482   3.596   3.662   4.175 -0.5825 -0.1074 -0.1173
  537MOL0     H72483   4.049   3.672   4.336  0.4708 -0.4179  0.4966
  537MOL0     H72484   4.243   3.563   4.307  0.9826 -1.1598 -0.9694
  537MOL0     H72485   4.495   3.382   4.189 -0.1903  1.6477  2.3383
  537MOL0     H72486   4.335   3.337   4.231 -0.2799 -0.9864 -1.1269
  537MOL0     H72487   4.400   3.150   4.105 -0.0116 -0.8092  0.8100
  537MOL0     H72488   4.490   3.244   3.992  0.0027  1.0385  2.1676
  537MOL0     H72489   4.288   3.305   3.871  1.6875 -1.2881 -0.0466
  537MOL0     H72490   4.182   3.271   4.009  0.7335 -0.2604  1.0114
  537MOL0     H72491   4.262   3.030   3.983 -0.0043  1.3535  0.7910
  537MOL0     H72492   4.329   3.093   3.825 -0.4356  1.8920 -1.2163
  537MOL0     H72493   3.902   3.095   3.771 -1.5802 -2.1133  2.6177
  537MOL0     H72494   4.206   3.566   3.890 -0.6762 -3.2109  0.4475
  537MOL0     H72495   3.982   3.685   3.904  3.1855  0.8044 -2.3216
  538MOL0     O72496   5.940   6.202   1.391 -0.2890  0.3996  0.3754
  538MOL0     C72497   6.010   6.100   1.383  0.0268 -0.7227  0.1895
  538MOL0     O72498   5.985   5.985   1.448 -0.5256  0.0461  0.3409
  538MOL0     C72499   5.878   5.980   1.540  0.1665 -0.5287 -0.3964
  538MOL0     C72500   5.897   6.048   1.664 -0.0976  0.6976  1.2958
  538MOL0     C72501   5.800   6.043   1.762 -0.6586 -0.9130 -0.3436
  538MOL0     C72502   5.679   5.972   1.744 -0.7858  0.3941  0.6079
  538MOL0     O72503   5.584   5.973   1.843  0.4846  1.0245  0.0174
  538MOL0     C72504   5.574   6.075   1.946 -0.2572  0.5319 -0.1967
  538MOL0     C72505   5.459   6.058   2.040  0.2847 -0.3571 -0.3362
  538MOL0     C72506   5.327   6.123   2.004  0.0328  0.0019  0.4296
  538MOL0     C72507   5.220   6.083   2.105  0.1370 -0.3751  0.2943
  538MOL0     C72508   5.087   6.139   2.052 -0.1905 -0.1991  0.3144
  538MOL0     C72509   5.031   6.062   1.930 -0.9777 -1.4546 -0.0505
  538MOL0     C72510   4.922   6.141   1.859 -0.3578  1.1186 -0.1005
  538MOL0     C72511   4.977   6.254   1.784 -1.2463 -0.9457  0.2924
  538MOL0     N72512   4.876   6.325   1.713  0.2831 -0.0866 -0.3284
  538MOL0     C72513   4.812   6.275   1.605 -0.3365 -1.2277  0.3605
  538MOL0     C72514   4.736   6.378   1.563  0.4487  0.6457 -0.3561
  538MOL0     C72515   4.645   6.377   1.443 -0.4740 -0.3360 -0.9251
  538MOL0     C72516   4.716   6.420   1.324  0.1735 -0.2901  0.5159
  538MOL0     C72517   4.670   6.349   1.203 -0.6728  0.5467 -0.8020
  538MOL0     C72518   4.529   6.388   1.147 -0.3570 -0.2623 -0.0453
  538MOL0     O72519   4.427   6.332   1.231 -0.0532  0.1203 -0.8812
  538MOL0     C72520   4.295   6.378   1.237  0.0468 -0.5417  1.0058
  538MOL0     C72521   4.240   6.457   1.139  0.5617  0.5061 -0.8081
  538MOL0     C72522   4.107   6.501   1.149  0.4542 -0.4000 -0.1433
  538MOL0     C72523   4.059   6.584   1.036  0.4380 -1.2159  0.6854
  538MOL0     C72524   4.024   6.461   1.261  0.6534  0.4588  0.3079
  538MOL0     C72525   3.886   6.500   1.276 -0.2017 -0.6990 -0.0412
  538MOL0     O72526   3.832   6.606   1.206 -0.2754  0.7494  0.5375
  538MOL0     C72527   3.696   6.610   1.197 -0.2352  0.4888 -0.4028
  538MOL0     C72528   3.628   6.601   1.079 -0.3971 -0.4154 -0.2851
  538MOL0     C72529   3.491   6.627   1.069 -0.3667  0.5330  0.3814
  538MOL0     C72530   3.417   6.638   1.181  0.1705  0.1921 -0.1087
  538MOL0     O72531   3.283   6.671   1.185  0.4556  1.0428  0.3869
  538MOL0     C72532   3.195   6.612   1.085 -0.9257  0.6402  0.3954
  538MOL0     C72533   3.180   6.452   1.088  0.2087  0.1679 -0.0512
  538MOL0     C72534   3.056   6.419   1.185 -0.5766  0.1821  0.2659
  538MOL0     C72535   3.045   6.265   1.186  0.4269  0.1744  0.3808
  538MOL0     C72536   2.909   6.228   1.246  0.4643  0.9143 -0.2277
  538MOL0     C72537   2.886   6.083   1.279  0.2200 -0.1650 -1.0766
  538MOL0     C72538   2.891   5.999   1.150  1.6142  0.7800 -0.4009
  538MOL0     C72539   2.920   5.851   1.186  0.4518  0.4639  0.5521
  538MOL0    Cl72540   2.790   5.779   1.292 -0.4286 -0.0702  0.2934
  538MOL0     C72541   3.481   6.640   1.309 -0.0213  0.2405  0.8414
  538MOL0     C72542   3.623   6.636   1.315  1.2428  0.2132  0.3224
  538MOL0     O72543   3.828   6.432   1.365  0.4738  0.1206  0.1234
  538MOL0     C72544   4.085   6.393   1.369 -0.5744  1.0064 -0.1910
  538MOL0     C72545   4.219   6.346   1.348  0.1758 -0.3223 -0.1882
  538MOL0     N72546   4.751   6.487   1.650  0.2676  0.1195 -0.5849
  538MOL0     N72547   4.826   6.447   1.751 -0.0649 -0.0589  0.9199
  538MOL0     C72548   5.673   5.897   1.627  0.5826  0.1923 -0.5667
  538MOL0     C72549   5.772   5.896   1.522  0.4250  0.6901 -0.0402
  538MOL0     C72550   6.108   6.092   1.272 -0.5360 -0.6572  0.5556
  538MOL0     C72551   6.215   6.010   1.279  0.1627 -0.0629 -0.4887
  538MOL0     C72552   6.307   6.005   1.172 -0.1596  0.5041  0.8386
  538MOL0     C72553   6.303   6.097   1.064 -0.8635  0.4936  0.4891
  538MOL0     O72554   6.395   6.116   0.953  0.7309  0.0377 -0.1608
  538MOL0     C72555   6.492   6.019   0.909 -0.3092 -0.2317  0.5905
  538MOL0     C72556   6.411   5.902   0.844  0.3789 -0.1547 -0.8811
  538MOL0     C72557   6.324   5.942   0.728 -0.1885  0.1522 -0.0887
  538MOL0     C72558   6.228   5.833   0.659 -0.7564  0.5262 -0.4209
  538MOL0     C72559   6.310   5.721   0.620  0.0414  0.2273 -0.1122
  538MOL0     C72560   6.365   5.619   0.593 -0.2688 -0.1674 -0.2784
  538MOL0     C72561   6.198   6.180   1.062 -0.2049  0.0476 -0.3005
  538MOL0     C72562   6.107   6.193   1.170 -0.4727  0.6527  0.0677
  538MOL0     H72563   5.991   6.101   1.669 -1.0312  2.6800 -0.3580
  538MOL0     H72564   5.823   6.101   1.851  0.4300 -0.0891 -1.1472
  538MOL0     H72565   5.663   6.061   2.008  0.6887  1.2559 -1.3575
  538MOL0     H72566   5.575   6.178   1.911  0.5645 -0.2009 -2.4861
  538MOL0     H72567   5.454   5.951   2.063  3.4864 -0.3715  0.7822
  538MOL0     H72568   5.492   6.102   2.134  0.0646 -1.4748  0.2850
  538MOL0     H72569   5.344   6.231   2.004 -2.1848  0.3874  0.0243
  538MOL0     H72570   5.292   6.108   1.902  1.3748 -0.1855 -0.0227
  538MOL0     H72571   5.215   5.975   2.125  0.2305 -0.3486  0.4725
  538MOL0     H72572   5.241   6.127   2.203 -1.7936 -1.1101  1.0850
  538MOL0     H72573   5.018   6.121   2.134 -1.1280  0.4227 -0.3133
  538MOL0     H72574   5.096   6.247   2.038 -4.0787  0.2185 -0.2420
  538MOL0     H72575   5.107   6.044   1.854 -2.9503 -2.8555 -1.7883
  538MOL0     H72576   4.993   5.966   1.965 -2.7167 -0.5130  0.7491
  538MOL0     H72577   4.873   6.078   1.785 -1.2454  1.9186 -0.1968
  538MOL0     H72578   4.848   6.164   1.936 -0.7981 -2.5499  0.7751
  538MOL0     H72579   5.064   6.228   1.723 -1.4533  0.5851 -0.6986
  538MOL0     H72580   5.014   6.323   1.860 -1.2666 -1.7228  1.0348
  538MOL0     H72581   4.840   6.183   1.553 -2.1521 -2.0553  0.7766
  538MOL0     H72582   4.614   6.272   1.439  1.8762 -1.1235 -0.4953
  538MOL0     H72583   4.566   6.444   1.478  1.3153  0.5406  1.7295
  538MOL0     H72584   4.825   6.410   1.327  0.5326  2.5074  0.1348
  538MOL0     H72585   4.682   6.522   1.303  0.6859 -0.3713 -0.7591
  538MOL0     H72586   4.675   6.241   1.223  1.5928  1.1898  3.1523
  538MOL0     H72587   4.743   6.376   1.127  0.3096  2.5475  0.7494
  538MOL0     H72588   4.523   6.346   1.046  0.8184  1.1568 -0.7415
  538MOL0     H72589   4.519   6.496   1.151  1.5209 -0.0741  0.9763
  538MOL0     H72590   4.309   6.491   1.063 -0.4566  2.1467 -1.0607
  538MOL0     H72591   4.070   6.685   1.076 -0.6462 -0.8918  0.2117
  538MOL0     H72592   4.111   6.577   0.940 -0.7187  0.7316 -0.1483
  538MOL0     H72593   3.951   6.568   1.020  0.5803 -2.8546  1.1837
  538MOL0     H72594   3.692   6.583   0.993  1.8145 -0.7341  1.3580
  538MOL0     H72595   3.438   6.632   0.974 -0.9977  0.2727  0.7183
  538MOL0     H72596   3.095   6.654   1.098 -1.3004  0.4891 -1.5931
  538MOL0     H72597   3.224   6.658   0.990  0.7062 -0.7373  0.1882
  538MOL0     H72598   3.154   6.415   0.989  2.4221 -0.0426 -0.6190
  538MOL0     H72599   3.271   6.406   1.129  1.7595  1.4084 -1.9594
  538MOL0     H72600   2.963   6.468   1.156 -0.5577 -0.0891 -0.2661
  538MOL0     H72601   3.075   6.458   1.285  0.2225 -1.3484  0.7408
  538MOL0     H72602   3.046   6.246   1.078 -2.4340  3.2925 -0.3713
  538MOL0     H72603   3.123   6.219   1.247  0.0658 -1.6723 -0.4637
  538MOL0     H72604   2.828   6.267   1.184  1.0048  1.4392 -0.6141
  538MOL0     H72605   2.905   6.289   1.337  2.2675 -0.5525  0.9042
  538MOL0     H72606   2.957   6.035   1.347 -2.1515 -2.2845  0.1179
  538MOL0     H72607   2.784   6.074   1.319  0.0629  1.8279 -0.9269
  538MOL0     H72608   2.962   6.045   1.081  0.1171  0.0634 -2.5176
  538MOL0     H72609   2.792   6.011   1.105 -0.6201  1.8405  4.1519
  538MOL0     H72610   3.016   5.826   1.232  0.6085 -0.4601 -0.2471
  538MOL0     H72611   2.910   5.792   1.095  0.1030  0.0431  0.8637
  538MOL0     H72612   3.418   6.651   1.397  1.1077 -0.7917  1.8200
  538MOL0     H72613   3.671   6.629   1.412  1.7000 -2.9204 -0.0373
  538MOL0     H72614   4.035   6.362   1.460 -0.3890 -0.9477 -0.7153
  538MOL0     H72615   4.267   6.301   1.434  0.3417 -2.1115 -1.1640
  538MOL0     H72616   5.583   5.838   1.612 -0.0072  1.3382 -1.7437
  538MOL0     H72617   5.762   5.838   1.431 -1.1954  1.9581 -0.7410
  538MOL0     H72618   6.218   5.943   1.364 -2.7554 -0.7762 -0.8358
  538MOL0     H72619   6.399   5.947   1.174 -0.1704  0.4965  1.2338
  538MOL0     H72620   6.550   6.065   0.828  0.4059  1.5862  2.0453
  538MOL0     H72621   6.561   6.002   0.993  1.5228  1.6836 -0.4225
  538MOL0     H72622   6.350   5.866   0.928 -3.9311  4.0391 -1.8113
  538MOL0     H72623   6.477   5.820   0.814 -1.6319 -2.5069  0.7453
  538MOL0     H72624   6.377   5.983   0.642 -0.0005 -0.7218 -0.4020
  538MOL0     H72625   6.250   6.018   0.755 -0.0531  1.4589 -3.0911
  538MOL0     H72626   6.184   5.884   0.573 -1.5525 -1.1582 -1.0519
  538MOL0     H72627   6.150   5.798   0.726 -0.7365  0.3601 -0.4846
  538MOL0     H72628   6.417   5.531   0.561 -0.0297 -0.1435  0.0382
  538MOL0     H72629   6.187   6.257   0.986 -0.1768  0.1174 -0.2343
  538MOL0     H72630   6.032   6.271   1.159 -1.0227  0.0882 -0.1855
  539MOL0     O72631   2.033   0.776   6.331  0.5061  0.2933 -0.5816
  539MOL0     C72632   2.096   0.739   6.235  0.4501  0.0521  0.3635
  539MOL0     O72633   2.047   0.657   6.134 -0.1814 -0.1706 -0.5505
  539MOL0     C72634   1.920   0.629   6.139  1.1262  0.5813 -0.4068
  539MOL0     C72635   1.876   0.493   6.158  0.6399  0.1761  0.0352
  539MOL0     C72636   1.746   0.453   6.164  0.3909 -0.8410  0.4224
  539MOL0     C72637   1.646   0.546   6.145  0.1162  0.5008 -0.5736
  539MOL0     O72638   1.515   0.498   6.150  1.0602 -0.1369  0.2362
  539MOL0     C72639   1.410   0.575   6.082  0.2117  0.5225  0.3787
  539MOL0     C72640   1.329   0.493   5.981 -0.1698  0.1518 -0.1197
  539MOL0     C72641   1.222   0.412   6.041 -0.2601 -0.7508 -0.2576
  539MOL0     C72642   1.090   0.496   6.048 -0.2388 -0.0451 -0.4270
  539MOL0     C72643   0.996   0.414   6.146 -0.0037 -0.0259  0.5687
  539MOL0     C72644   0.863   0.482   6.172  0.3506  0.8110 -0.8994
  539MOL0     C72645   0.797   0.441   6.308  0.8048  0.2721 -0.2475
  539MOL0     C72646   0.754   0.290   6.307  0.5297  0.3212  0.1941
  539MOL0     N72647   0.658   0.263   6.199  0.1556 -0.9464 -0.1410
  539MOL0     C72648   0.539   0.329   6.181  0.2280  0.1742  0.2054
  539MOL0     C72649   0.500   0.287   6.062  0.2761  0.3139  0.3672
  539MOL0     C72650   0.368   0.309   6.001  0.2685  0.4664 -0.7371
  539MOL0     C72651   0.274   0.188   6.017 -0.6098 -0.0634  0.0165
  539MOL0     C72652   0.128   0.226   5.990  0.1019  0.6509  0.2829
  539MOL0     C72653   0.101   0.330   5.883 -0.6076 -0.2569  0.1116
  539MOL0     O72654  -0.036   0.372   5.875 -0.3942  0.0450 -0.5347
  539MOL0     C72655  -0.135   0.283   5.836  0.2270 -0.4933 -0.0394
  539MOL0     C72656  -0.264   0.298   5.896  0.1560 -1.1733 -0.0202
  539MOL0     C72657  -0.376   0.215   5.868 -0.1370 -0.8139  0.3726
  539MOL0     C72658  -0.513   0.259   5.922  0.1315  0.3749  0.2852
  539MOL0     C72659  -0.356   0.106   5.777 -0.0663  0.6343  0.0969
  539MOL0     C72660  -0.459   0.014   5.729  0.6361  0.5698  0.3956
  539MOL0     O72661  -0.425  -0.103   5.671 -0.1881  0.2876 -0.0106
  539MOL0     C72662  -0.516  -0.189   5.620  0.0867  0.3887 -0.3614
  539MOL0     C72663  -0.531  -0.320   5.670  0.0523  0.2938  0.1393
  539MOL0     C72664  -0.628  -0.400   5.614 -0.1341  0.1576  0.4445
  539MOL0     C72665  -0.701  -0.369   5.502  0.2070 -0.6938 -0.5992
  539MOL0     O72666  -0.787  -0.461   5.444  0.1590  0.3940  0.0813
  539MOL0     C72667  -0.910  -0.423   5.383 -0.1395  0.1211  0.5159
  539MOL0     C72668  -1.013  -0.361   5.483 -0.5222  0.4899  0.3193
  539MOL0     C72669  -1.133  -0.336   5.396 -0.5856  0.2072 -0.1686
  539MOL0     C72670  -1.255  -0.285   5.471 -0.2085  0.4887 -0.6839
  539MOL0     C72671  -1.382  -0.279   5.388  0.4429  0.6048 -0.0255
  539MOL0     C72672  -1.487  -0.190   5.448 -0.1257  0.0717  0.2500
  539MOL0     C72673  -1.597  -0.134   5.350 -0.1867 -0.8463 -0.4994
  539MOL0     C72674  -1.678  -0.026   5.429 -1.0887 -0.4458  1.3110
  539MOL0    Cl72675  -1.770  -0.088   5.567 -0.0333 -0.1970  0.3203
  539MOL0     C72676  -0.685  -0.239   5.458  0.2962 -0.2415 -0.2197
  539MOL0     C72677  -0.594  -0.149   5.516 -0.3335  0.9408  0.2420
  539MOL0     O72678  -0.572   0.054   5.744  0.3969 -0.3000 -0.4441
  539MOL0     C72679  -0.225   0.083   5.726 -0.5214  0.2085 -0.4185
  539MOL0     C72680  -0.114   0.161   5.764 -0.3316 -0.0426  0.0967
  539MOL0     N72681   0.601   0.209   6.004  0.4330  0.8642  0.1451
  539MOL0     N72682   0.694   0.195   6.087  0.2958 -0.1840  0.2632
  539MOL0     C72683   1.682   0.683   6.134  0.7101 -0.0764  0.8037
  539MOL0     C72684   1.816   0.720   6.117 -0.5219  0.6096 -0.2260
  539MOL0     C72685   2.236   0.775   6.221  0.5182  0.7418  0.6943
  539MOL0     C72686   2.316   0.822   6.329  0.3756  0.3095  0.1013
  539MOL0     C72687   2.454   0.830   6.316 -0.4757 -0.6216  0.3480
  539MOL0     C72688   2.522   0.820   6.192 -0.1902  0.7889 -0.9706
  539MOL0     O72689   2.661   0.836   6.197 -0.4073 -0.4331 -0.1499
  539MOL0     C72690   2.729   0.784   6.076 -0.2871  0.0147 -0.1983
  539MOL0     C72691   2.877   0.769   6.104  0.1613 -0.6921 -0.5740
  539MOL0     C72692   2.909   0.654   6.206  0.1455  0.3978 -1.7442
  539MOL0     C72693   3.041   0.674   6.290  0.0120 -0.2662  0.5428
  539MOL0     C72694   3.068   0.567   6.385  0.3969 -0.3015  0.3361
  539MOL0     C72695   3.111   0.498   6.473  0.1853  0.5934  0.5357
  539MOL0     C72696   2.445   0.779   6.082 -0.2927  0.4278  0.3948
  539MOL0     C72697   2.302   0.758   6.096 -0.1993 -0.1781 -0.2989
  539MOL0     H72698   1.953   0.416   6.166  0.1050 -0.4124 -0.3163
  539MOL0     H72699   1.724   0.350   6.190 -2.1707 -1.1549 -2.4138
  539MOL0     H72700   1.330   0.610   6.148 -0.6925 -0.2962 -0.2611
  539MOL0     H72701   1.447   0.653   6.015 -2.0937 -1.4136 -3.5023
  539MOL0     H72702   1.284   0.561   5.909 -2.2607 -1.5455 -0.5010
  539MOL0     H72703   1.400   0.434   5.921 -0.5964 -1.6449  1.0447
  539MOL0     H72704   1.209   0.324   5.979 -0.5604  0.3983 -1.8762
  539MOL0     H72705   1.256   0.378   6.140  0.4237 -4.1928 -1.5622
  539MOL0     H72706   1.104   0.594   6.095 -5.2726 -0.2406  2.0873
  539MOL0     H72707   1.049   0.512   5.948 -2.2480 -1.1605  0.1561
  539MOL0     H72708   0.979   0.316   6.099 -0.8903  0.5949 -0.4649
  539MOL0     H72709   1.051   0.411   6.240 -2.9663  1.1053  2.4599
  539MOL0     H72710   0.860   0.591   6.169 -4.4728  0.8879 -1.1727
  539MOL0     H72711   0.798   0.445   6.092  0.3454  1.6370 -1.2789
  539MOL0     H72712   0.859   0.465   6.394 -0.4858  0.7956  0.5675
  539MOL0     H72713   0.702   0.494   6.325  1.9161  1.6952  2.1065
  539MOL0     H72714   0.708   0.269   6.404 -2.3855 -3.6035 -1.7363
  539MOL0     H72715   0.846   0.232   6.297  0.1804 -0.1892 -0.0910
  539MOL0     H72716   0.471   0.387   6.244 -2.5534 -2.8887  0.2789
  539MOL0     H72717   0.323   0.396   6.049  1.7043 -0.6430  2.9832
  539MOL0     H72718   0.386   0.330   5.895  0.0877  0.0613 -0.8508
  539MOL0     H72719   0.297   0.138   6.112  1.7142 -0.0339 -0.4592
  539MOL0     H72720   0.305   0.113   5.944  1.7641  0.5827  0.2723
  539MOL0     H72721   0.087   0.256   6.087  0.1367  0.8223  0.2455
  539MOL0     H72722   0.081   0.133   5.956 -1.7177  2.0696 -1.2957
  539MOL0     H72723   0.139   0.292   5.788  2.8044 -3.5683  2.5080
  539MOL0     H72724   0.155   0.418   5.921 -1.7310 -0.5132  2.5134
  539MOL0     H72725  -0.287   0.391   5.947 -2.8854 -0.5271 -2.2213
  539MOL0     H72726  -0.556   0.187   5.992 -0.1389  1.0229  0.7849
  539MOL0     H72727  -0.505   0.355   5.972  2.8034 -0.2990  1.3243
  539MOL0     H72728  -0.586   0.265   5.840 -1.8652 -1.2968  1.8520
  539MOL0     H72729  -0.471  -0.362   5.751  1.9028 -1.1265 -1.8466
  539MOL0     H72730  -0.645  -0.496   5.660  4.6822  0.2428  3.1106
  539MOL0     H72731  -0.896  -0.345   5.308  2.3632  0.0600  0.8135
  539MOL0     H72732  -0.953  -0.512   5.336 -0.3454 -0.1220  1.1501
  539MOL0     H72733  -1.043  -0.424   5.568  2.4038  0.5318  1.4871
  539MOL0     H72734  -0.980  -0.266   5.525  0.7026  0.2036  0.0394
  539MOL0     H72735  -1.155  -0.439   5.366 -1.6154  0.0155  1.1262
  539MOL0     H72736  -1.109  -0.266   5.316 -1.0517  1.4367  0.7258
  539MOL0     H72737  -1.270  -0.357   5.553  1.5790  1.7679  0.8547
  539MOL0     H72738  -1.222  -0.191   5.516  0.5314 -0.3913  0.6905
  539MOL0     H72739  -1.426  -0.377   5.368  2.6809 -0.6423  0.7863
  539MOL0     H72740  -1.351  -0.243   5.290 -0.5372 -0.3854 -0.7253
  539MOL0     H72741  -1.527  -0.237   5.538 -2.1386  2.3870  0.6611
  539MOL0     H72742  -1.446  -0.097   5.491 -1.3610 -0.5241  2.9390
  539MOL0     H72743  -1.659  -0.219   5.321  1.5633 -3.0873  1.8908
  539MOL0     H72744  -1.554  -0.077   5.267 -1.1677  2.1415  0.9104
  539MOL0     H72745  -1.751   0.021   5.362 -0.9210  1.3530  2.2994
  539MOL0     H72746  -1.614   0.060   5.451  0.0319 -0.7200 -0.6604
  539MOL0     H72747  -0.721  -0.195   5.365  1.9384  1.8754  0.0846
  539MOL0     H72748  -0.588  -0.051   5.470  0.1388 -0.1528 -2.1896
  539MOL0     H72749  -0.212  -0.000   5.658  2.5283  0.8232 -0.7230
  539MOL0     H72750  -0.021   0.131   5.718 -0.7502 -1.7043  0.2607
  539MOL0     H72751   1.606   0.760   6.124 -1.8274 -2.3649  1.1314
  539MOL0     H72752   1.840   0.826   6.114  0.8602  0.3979  1.5700
  539MOL0     H72753   2.272   0.838   6.427  1.6949 -0.0239  0.7675
  539MOL0     H72754   2.518   0.867   6.396  2.4320  0.2699 -2.2058
  539MOL0     H72755   2.691   0.687   6.042 -0.0486  0.2085 -1.0416
  539MOL0     H72756   2.698   0.857   6.000  0.9799  3.5135  2.3537
  539MOL0     H72757   2.913   0.867   6.136 -0.1010 -0.7171 -0.1892
  539MOL0     H72758   2.933   0.738   6.015 -0.4274 -3.8766  0.0611
  539MOL0     H72759   2.923   0.557   6.157  1.8706 -0.5215  0.4188
  539MOL0     H72760   2.830   0.646   6.282  0.8001  1.2532 -0.9482
  539MOL0     H72761   3.034   0.773   6.335 -0.2044  1.1236 -2.2915
  539MOL0     H72762   3.118   0.683   6.212 -0.7343 -0.5695 -0.2520
  539MOL0     H72763   3.131   0.434   6.557 -0.3473  0.0244  0.2401
  539MOL0     H72764   2.488   0.765   5.983  1.0382 -0.1881  1.0492
  539MOL0     H72765   2.251   0.732   6.003 -1.4358 -2.3786  0.9206
  540MOL0     O72766   0.772   4.754   4.201 -0.0668  0.8306  0.2523
  540MOL0     C72767   0.866   4.711   4.260 -0.6629  0.9717  0.1754
  540MOL0     O72768   0.864   4.629   4.370 -0.4605  0.0123  0.2330
  540MOL0     C72769   0.745   4.603   4.441 -0.3521 -0.2734  0.1378
  540MOL0     C72770   0.745   4.615   4.578  0.0811  0.6199 -0.4365
  540MOL0     C72771   0.627   4.597   4.655  0.1295  0.1616 -0.1251
  540MOL0     C72772   0.509   4.568   4.583 -0.1945 -0.2504  0.2193
  540MOL0     O72773   0.400   4.549   4.663  0.0389  0.4969 -0.1168
  540MOL0     C72774   0.266   4.589   4.615 -1.3670 -0.3903  0.4007
  540MOL0     C72775   0.164   4.587   4.728 -0.0307 -0.0764 -0.3262
  540MOL0     C72776   0.051   4.696   4.712 -0.0680  0.7329  0.1800
  540MOL0     C72777  -0.057   4.642   4.620 -0.3120  1.0446 -0.0742
  540MOL0     C72778  -0.158   4.732   4.560  0.0918  0.3163 -0.3354
  540MOL0     C72779  -0.208   4.686   4.421  0.0296  0.4298 -0.0793
  540MOL0     C72780  -0.302   4.795   4.364 -1.2412  0.1071  0.2533
  540MOL0     C72781  -0.402   4.735   4.264 -0.8302 -0.2968  0.2885
  540MOL0     N72782  -0.511   4.821   4.219 -0.0877  0.4188  0.2356
  540MOL0     C72783  -0.570   4.805   4.095 -0.2593 -0.8761 -0.5496
  540MOL0     C72784  -0.663   4.902   4.090 -0.1566  0.8871  0.6057
  540MOL0     C72785  -0.759   4.931   3.969 -0.8330  0.3139  0.7498
  540MOL0     C72786  -0.881   4.843   3.970  0.0544  0.3900 -0.9751
  540MOL0     C72787  -0.968   4.882   3.852 -0.8318 -0.2266 -1.3671
  540MOL0     C72788  -1.088   4.794   3.843  0.6240 -0.3128  0.1718
  540MOL0     O72789  -1.168   4.831   3.953  0.7708 -0.5371  0.8216
  540MOL0     C72790  -1.288   4.768   3.970  0.1114  0.2702 -0.0203
  540MOL0     C72791  -1.328   4.655   3.895  0.3469  0.1019  0.7437
  540MOL0     C72792  -1.448   4.585   3.918  0.0429 -0.3098  0.4771
  540MOL0     C72793  -1.467   4.464   3.832  0.3628  0.3775 -0.8639
  540MOL0     C72794  -1.543   4.633   4.011 -0.2359  0.1009  0.2870
  540MOL0     C72795  -1.683   4.582   4.035 -0.7181 -0.8595 -0.5128
  540MOL0     O72796  -1.769   4.671   4.076  0.5383 -0.0977 -0.3035
  540MOL0     C72797  -1.881   4.629   4.145 -0.8443 -0.2155 -0.3828
  540MOL0     C72798  -1.864   4.591   4.277  0.2427  0.4420  0.3563
  540MOL0     C72799  -1.974   4.552   4.349  0.4356 -0.1854 -0.8908
  540MOL0     C72800  -2.099   4.562   4.294  0.6340 -0.4336 -0.8708
  540MOL0     O72801  -2.218   4.556   4.374 -0.5498 -0.3971  0.8257
  540MOL0     C72802  -2.208   4.479   4.491  0.2055  0.2806  0.2362
  540MOL0     C72803  -2.350   4.465   4.554  0.0227 -0.5274  0.1630
  540MOL0     C72804  -2.458   4.447   4.446 -0.6227 -0.8698  0.5842
  540MOL0     C72805  -2.593   4.431   4.506  0.2558 -0.4180  0.5297
  540MOL0     C72806  -2.625   4.285   4.529  0.2047 -0.3151  0.9912
  540MOL0     C72807  -2.759   4.278   4.597  0.2089  0.0094 -0.4473
  540MOL0     C72808  -2.806   4.139   4.630  0.5014  0.7103 -0.3000
  540MOL0     C72809  -2.954   4.136   4.690 -0.0529  0.5401 -0.0672
  540MOL0    Cl72810  -3.078   4.219   4.588 -0.1396  0.6134 -0.1783
  540MOL0     C72811  -2.112   4.591   4.156  0.5107  0.7640 -0.9664
  540MOL0     C72812  -1.997   4.624   4.079 -0.7285  1.0876  0.4128
  540MOL0     O72813  -1.691   4.463   4.046 -0.5046  0.3859 -0.5294
  540MOL0     C72814  -1.512   4.757   4.072  0.2299  0.2866 -0.2154
  540MOL0     C72815  -1.383   4.817   4.062  0.1829  0.6127  0.5709
  540MOL0     N72816  -0.671   4.969   4.217 -0.3542  0.1492 -0.9424
  540MOL0     N72817  -0.573   4.914   4.293 -0.0216 -0.2007  0.6206
  540MOL0     C72818   0.513   4.549   4.448 -0.0979  0.4991 -0.0746
  540MOL0     C72819   0.629   4.567   4.375  0.2669  0.1848 -0.2406
  540MOL0     C72820   0.998   4.754   4.219  0.8367 -0.4315  0.2036
  540MOL0     C72821   1.019   4.821   4.092  0.6827  0.8155 -0.1605
  540MOL0     C72822   1.148   4.849   4.051  0.8552  0.1178 -0.1356
  540MOL0     C72823   1.253   4.832   4.139  0.6220 -0.5940 -0.0561
  540MOL0     O72824   1.371   4.883   4.089  0.4745 -0.2524 -0.2684
  540MOL0     C72825   1.475   4.909   4.181  0.3803 -0.2170 -0.7458
  540MOL0     C72826   1.614   4.851   4.135 -0.2587 -0.6660 -0.1114
  540MOL0     C72827   1.600   4.703   4.094 -0.3729 -0.7316  0.2316
  540MOL0     C72828   1.593   4.685   3.949 -0.5407 -0.2634  0.2084
  540MOL0     C72829   1.615   4.546   3.897 -0.5242 -0.7585 -0.1001
  540MOL0     C72830   1.648   4.433   3.860 -0.5979 -0.5361 -0.2838
  540MOL0     C72831   1.225   4.777   4.262  0.8390  0.8793 -0.5444
  540MOL0     C72832   1.103   4.731   4.301 -0.2628 -0.4246  0.5078
  540MOL0     H72833   0.828   4.642   4.642  1.7226 -0.0932 -2.1632
  540MOL0     H72834   0.624   4.609   4.763 -0.1582  0.4786 -0.1659
  540MOL0     H72835   0.283   4.691   4.579  0.4471 -1.3619 -1.7023
  540MOL0     H72836   0.238   4.530   4.528  0.7467 -1.1556  0.1668
  540MOL0     H72837   0.109   4.494   4.744 -0.4254  0.5175  2.2873
  540MOL0     H72838   0.219   4.609   4.820  0.0966  0.7555 -0.5927
  540MOL0     H72839   0.004   4.717   4.808  1.2269 -1.2155  1.3208
  540MOL0     H72840   0.102   4.783   4.668 -0.0715  0.6456  0.0012
  540MOL0     H72841   0.006   4.604   4.539 -1.4959  0.9087 -0.9647
  540MOL0     H72842  -0.099   4.556   4.674 -0.3421  1.5295  0.6820
  540MOL0     H72843  -0.241   4.749   4.629 -0.1452  2.2131 -1.0398
  540MOL0     H72844  -0.114   4.829   4.537  2.5953 -1.0947 -1.9424
  540MOL0     H72845  -0.123   4.670   4.354  0.7849  0.9819  0.7269
  540MOL0     H72846  -0.261   4.591   4.433  3.9387 -2.4388 -2.6705
  540MOL0     H72847  -0.355   4.854   4.439 -0.6768  1.6345 -0.5007
  540MOL0     H72848  -0.240   4.867   4.309  0.1481 -0.8006  0.5939
  540MOL0     H72849  -0.441   4.644   4.311  0.6681 -0.3790  1.4473
  540MOL0     H72850  -0.350   4.704   4.173 -1.0915  2.0365 -0.7272
  540MOL0     H72851  -0.530   4.731   4.026  1.1578 -0.3542 -0.3178
  540MOL0     H72852  -0.799   5.032   3.983 -2.0419 -0.3581  2.3802
  540MOL0     H72853  -0.701   4.939   3.876  1.4414  3.8091  2.2288
  540MOL0     H72854  -0.940   4.858   4.060 -1.0760 -2.9472 -1.0244
  540MOL0     H72855  -0.848   4.740   3.951 -1.2989  0.3807 -3.7442
  540MOL0     H72856  -0.903   4.862   3.766  2.9358  2.0376  0.7033
  540MOL0     H72857  -0.987   4.989   3.852  3.0876  0.6250  0.1088
  540MOL0     H72858  -1.067   4.688   3.860 -0.2818 -0.5663 -0.2177
  540MOL0     H72859  -1.144   4.806   3.749 -0.4979 -3.3359  0.3410
  540MOL0     H72860  -1.261   4.598   3.832 -2.0504 -3.4889  1.1653
  540MOL0     H72861  -1.526   4.386   3.879  2.3433  0.5313  2.1539
  540MOL0     H72862  -1.534   4.493   3.751  1.5995  2.1211 -1.3455
  540MOL0     H72863  -1.373   4.422   3.793 -0.1968 -1.3433 -0.4053
  540MOL0     H72864  -1.763   4.573   4.311  0.1524 -2.3524 -0.5871
  540MOL0     H72865  -1.956   4.521   4.451 -1.6200 -1.0247 -0.7361
  540MOL0     H72866  -2.174   4.377   4.471  1.4332  0.5476  0.8998
  540MOL0     H72867  -2.146   4.521   4.570  2.9784 -1.1950 -1.0230
  540MOL0     H72868  -2.348   4.381   4.624  1.8652  0.4630  1.3623
  540MOL0     H72869  -2.368   4.559   4.607  1.7671 -0.9832  1.6669
  540MOL0     H72870  -2.429   4.356   4.393  0.9490 -0.5639  0.8701
  540MOL0     H72871  -2.456   4.537   4.384 -2.8854 -0.2469  1.3420
  540MOL0     H72872  -2.610   4.482   4.601 -2.3689  0.5943 -0.4054
  540MOL0     H72873  -2.666   4.474   4.437 -0.3089  0.8941  1.8921
  540MOL0     H72874  -2.555   4.233   4.595  0.7488 -1.3109 -0.3273
  540MOL0     H72875  -2.624   4.233   4.432 -0.9016  3.7236 -1.3919
  540MOL0     H72876  -2.751   4.343   4.684 -1.0024  0.8979 -0.9754
  540MOL0     H72877  -2.835   4.328   4.536 -0.5769 -1.5878 -0.8621
  540MOL0     H72878  -2.734   4.091   4.697  0.9228 -1.9162 -2.4598
  540MOL0     H72879  -2.807   4.074   4.542 -1.6831  1.5441 -0.9443
  540MOL0     H72880  -2.951   4.189   4.786  0.2676  0.2946  0.0612
  540MOL0     H72881  -2.984   4.031   4.689  1.1543  0.1782 -0.8221
  540MOL0     H72882  -2.217   4.589   4.127  0.4342  1.8770 -0.8105
  540MOL0     H72883  -1.999   4.633   3.970  1.8338  0.4866  0.2745
  540MOL0     H72884  -1.579   4.806   4.142 -1.1773 -0.3313 -1.0826
  540MOL0     H72885  -1.357   4.905   4.121  3.1573 -2.1000  3.7781
  540MOL0     H72886   0.423   4.523   4.393 -0.5115 -1.1051  1.2772
  540MOL0     H72887   0.634   4.553   4.268  2.0130 -0.9398 -0.0569
  540MOL0     H72888   0.928   4.850   4.041 -0.9417 -2.7745  0.4062
  540MOL0     H72889   1.155   4.902   3.956 -0.9819  1.5227  0.4695
  540MOL0     H72890   1.490   5.017   4.173 -1.6395  0.0777 -0.8562
  540MOL0     H72891   1.450   4.878   4.283  1.4060 -1.0512 -0.7244
  540MOL0     H72892   1.678   4.855   4.224  1.5913  2.6836 -1.3874
  540MOL0     H72893   1.664   4.921   4.068 -0.3309  0.3497  0.8585
  540MOL0     H72894   1.520   4.649   4.146 -0.7834  0.2262  0.6250
  540MOL0     H72895   1.688   4.652   4.134  1.1897  0.2121 -1.8366
  540MOL0     H72896   1.659   4.757   3.900 -2.1653 -1.1495 -3.6653
  540MOL0     H72897   1.503   4.724   3.903  0.6077  0.8666 -1.1859
  540MOL0     H72898   1.678   4.333   3.836 -2.2291 -1.4364  1.1637
  540MOL0     H72899   1.303   4.760   4.335  1.0081  0.0178 -0.9149
  540MOL0     H72900   1.098   4.692   4.401  2.5698 -1.6828  0.2405
  541MOL0     O72901   0.680   5.042   8.227 -0.0368 -0.1616 -0.2520
  541MOL0     C72902   0.642   5.163   8.219  0.5823  0.1298 -0.6348
  541MOL0     O72903   0.511   5.209   8.199 -0.6561 -0.2004 -0.4850
  541MOL0     C72904   0.410   5.123   8.214  0.3376 -0.2329  0.3383
  541MOL0     C72905   0.394   5.014   8.124 -0.0431 -0.1385 -0.6656
  541MOL0     C72906   0.289   4.929   8.122  0.4162 -0.6196 -0.0146
  541MOL0     C72907   0.187   4.957   8.222 -0.4588 -0.8974  0.3782
  541MOL0     O72908   0.067   4.883   8.235 -0.5579  0.3231 -0.0912
  541MOL0     C72909   0.012   4.814   8.120 -0.4157 -0.3945 -0.3053
  541MOL0     C72910  -0.114   4.730   8.150 -0.4002 -0.6699  0.7759
  541MOL0     C72911  -0.215   4.821   8.213  0.4188 -1.4036  0.6369
  541MOL0     C72912  -0.340   4.758   8.277 -0.3911  0.3047  0.3016
  541MOL0     C72913  -0.430   4.709   8.160  0.1271 -0.8390  0.4648
  541MOL0     C72914  -0.567   4.672   8.222 -0.5960  0.3550 -0.1112
  541MOL0     C72915  -0.677   4.634   8.125 -0.6171  0.1545 -0.2702
  541MOL0     C72916  -0.810   4.587   8.195 -0.0638 -0.5163  0.0271
  541MOL0     N72917  -0.916   4.552   8.106  0.0324  0.7216  0.6173
  541MOL0     C72918  -0.928   4.428   8.043  0.4923  0.8231 -0.2955
  541MOL0     C72919  -1.059   4.411   8.001  0.0050  0.2770  0.7744
  541MOL0     C72920  -1.118   4.299   7.914  0.3007 -0.4913  0.0843
  541MOL0     C72921  -1.232   4.347   7.823  0.3198 -0.7133  0.5502
  541MOL0     C72922  -1.176   4.424   7.696  0.2283 -0.2624  0.0549
  541MOL0     C72923  -1.283   4.469   7.599 -0.4263 -0.2364 -0.2794
  541MOL0     O72924  -1.229   4.491   7.469  0.0063  0.0564  0.0757
  541MOL0     C72925  -1.197   4.618   7.426 -0.5666  0.6736 -0.5619
  541MOL0     C72926  -1.188   4.644   7.287  0.7125 -0.2885 -0.4076
  541MOL0     C72927  -1.168   4.771   7.232  0.6728  0.2996 -0.0300
  541MOL0     C72928  -1.188   4.787   7.081 -0.2282  0.5961 -0.2816
  541MOL0     C72929  -1.152   4.883   7.320  0.5670  0.0918 -0.0713
  541MOL0     C72930  -1.140   5.023   7.278 -0.2630  0.0689 -0.6234
  541MOL0     O72931  -1.141   5.117   7.383  0.9999 -0.3455 -1.1539
  541MOL0     C72932  -1.100   5.245   7.382  0.4948 -0.6355  0.2907
  541MOL0     C72933  -1.110   5.316   7.496  0.5136  0.3169 -0.2845
  541MOL0     C72934  -1.077   5.447   7.506  0.1178  0.5298  0.5003
  541MOL0     C72935  -1.032   5.520   7.397  0.3378 -0.7777 -0.3136
  541MOL0     O72936  -1.012   5.648   7.420  0.2883  0.2350 -0.3866
  541MOL0     C72937  -1.069   5.730   7.322 -0.3242 -0.2644  0.4812
  541MOL0     C72938  -1.099   5.869   7.380  1.3096 -0.0443 -0.0239
  541MOL0     C72939  -0.978   5.952   7.389  0.4725  0.2028  0.0158
  541MOL0     C72940  -0.876   5.910   7.487  0.6946 -0.2631 -0.5795
  541MOL0     C72941  -0.778   6.027   7.508 -0.0925 -0.7061 -0.3097
  541MOL0     C72942  -0.720   6.066   7.367 -0.0175 -1.2364  0.4280
  541MOL0     C72943  -0.587   6.152   7.401  0.2376  0.2514  0.3367
  541MOL0     C72944  -0.617   6.293   7.456 -0.1076 -0.0373 -0.1640
  541MOL0    Cl72945  -0.475   6.390   7.427  0.0701 -0.0595 -0.2347
  541MOL0     C72946  -1.022   5.458   7.274 -0.0131 -0.1499  0.1090
  541MOL0     C72947  -1.071   5.320   7.267  0.0605 -0.8299 -0.6428
  541MOL0     O72948  -1.131   5.051   7.161  0.1863  0.0271 -0.3234
  541MOL0     C72949  -1.168   4.857   7.460  0.9082 -0.4110 -0.9408
  541MOL0     C72950  -1.176   4.725   7.511  0.5212  0.3238 -0.1433
  541MOL0     N72951  -1.124   4.527   8.039 -0.2078 -0.0030  0.3608
  541MOL0     N72952  -1.037   4.606   8.099  0.0042 -0.0298 -0.6370
  541MOL0     C72953   0.201   5.061   8.313  0.3452  0.4320  1.1270
  541MOL0     C72954   0.312   5.136   8.318 -0.9394 -0.2084 -0.3728
  541MOL0     C72955   0.760   5.255   8.202 -0.6103 -0.0321  0.5368
  541MOL0     C72956   0.741   5.390   8.210  0.0354 -0.5570 -1.3220
  541MOL0     C72957   0.852   5.475   8.194  0.4482  0.8886  0.3879
  541MOL0     C72958   0.979   5.419   8.166  0.2288 -0.9686  0.0759
  541MOL0     O72959   1.067   5.523   8.145  0.5330  0.3621  0.0712
  541MOL0     C72960   1.205   5.507   8.173  0.2603  0.0028 -1.0050
  541MOL0     C72961   1.295   5.594   8.085 -0.7710 -0.8263 -0.2308
  541MOL0     C72962   1.452   5.563   8.086  1.0744  0.4485 -0.8949
  541MOL0     C72963   1.522   5.658   8.196  0.4421 -0.2981 -0.2093
  541MOL0     C72964   1.662   5.642   8.227 -0.1617  0.3431 -0.1284
  541MOL0     C72965   1.772   5.632   8.267 -0.5387 -0.2670 -0.0016
  541MOL0     C72966   1.002   5.283   8.157 -0.1932  0.8788 -0.6548
  541MOL0     C72967   0.891   5.196   8.186  0.1030 -0.4183  0.1359
  541MOL0     H72968   0.469   5.006   8.046 -0.0079  0.1126 -0.6580
  541MOL0     H72969   0.285   4.843   8.055 -0.5887  0.2304 -1.1012
  541MOL0     H72970  -0.008   4.889   8.043  2.2863 -0.8341 -1.5495
  541MOL0     H72971   0.091   4.751   8.079 -0.2678 -1.5218  1.5897
  541MOL0     H72972  -0.153   4.693   8.054 -2.1628  0.4020  1.0332
  541MOL0     H72973  -0.093   4.637   8.202 -2.3718 -2.5837 -1.5779
  541MOL0     H72974  -0.171   4.881   8.293 -2.9850  0.2525  1.4472
  541MOL0     H72975  -0.251   4.897   8.142 -0.3489 -1.4945  0.9202
  541MOL0     H72976  -0.314   4.673   8.340 -0.4106 -0.7464 -1.0588
  541MOL0     H72977  -0.394   4.831   8.338 -0.6945  0.1349  0.2393
  541MOL0     H72978  -0.448   4.795   8.095  0.7437 -0.8271  0.3075
  541MOL0     H72979  -0.380   4.633   8.100 -2.0192 -0.0488 -2.5963
  541MOL0     H72980  -0.548   4.575   8.268 -0.0139 -0.6732 -2.3876
  541MOL0     H72981  -0.598   4.752   8.290 -0.8668 -0.4764  0.7797
  541MOL0     H72982  -0.692   4.722   8.063  2.4584  1.6374  0.8584
  541MOL0     H72983  -0.636   4.560   8.055  1.0742  0.8350 -0.0499
  541MOL0     H72984  -0.830   4.670   8.262  1.9701 -0.6141  0.8200
  541MOL0     H72985  -0.793   4.498   8.256  0.0964 -2.1526 -2.2705
  541MOL0     H72986  -0.852   4.353   8.020 -2.1150 -1.6302 -1.5582
  541MOL0     H72987  -1.037   4.250   7.860  0.2151 -0.0804 -0.4211
  541MOL0     H72988  -1.167   4.231   7.986  0.2870  0.2945  0.8371
  541MOL0     H72989  -1.308   4.397   7.884  1.2667  1.4098  0.0809
  541MOL0     H72990  -1.285   4.260   7.783 -0.9952  0.2932  0.0225
  541MOL0     H72991  -1.117   4.344   7.651  0.0469  0.4765 -1.5603
  541MOL0     H72992  -1.117   4.511   7.725 -0.2459  0.2067 -0.3596
  541MOL0     H72993  -1.333   4.557   7.640  2.2256  1.3757 -0.2868
  541MOL0     H72994  -1.362   4.393   7.595 -1.0248  0.4142 -2.8185
  541MOL0     H72995  -1.214   4.555   7.229 -1.5899 -2.5435  3.6253
  541MOL0     H72996  -1.104   4.839   7.035 -0.9223  1.6188 -0.4096
  541MOL0     H72997  -1.205   4.688   7.036 -2.7152  1.0049 -0.3882
  541MOL0     H72998  -1.277   4.845   7.056 -0.9962 -0.4148  0.0103
  541MOL0     H72999  -1.153   5.267   7.583 -0.4818  0.6723 -0.5580
  541MOL0     H73000  -1.079   5.484   7.608  3.6170 -1.2101  1.3422
  541MOL0     H73001  -1.004   5.746   7.235  0.2650  0.4208  1.0327
  541MOL0     H73002  -1.165   5.690   7.289  0.6004 -1.3278 -1.0297
  541MOL0     H73003  -1.163   5.923   7.310  2.1143  0.8291 -0.1084
  541MOL0     H73004  -1.156   5.859   7.473 -1.3373  0.1673 -1.5235
  541MOL0     H73005  -1.000   6.056   7.411  2.7610  0.6338  0.5059
  541MOL0     H73006  -0.936   5.951   7.288  0.9657  0.5560  0.2196
  541MOL0     H73007  -0.919   5.884   7.584  3.5482  1.0132  1.1574
  541MOL0     H73008  -0.816   5.820   7.473  1.1354 -0.4682  2.0191
  541MOL0     H73009  -0.706   5.989   7.581 -1.2743  0.6390  1.6335
  541MOL0     H73010  -0.841   6.113   7.532  1.0437 -0.2510  1.1728
  541MOL0     H73011  -0.693   5.977   7.310 -0.6407 -1.2900  0.2171
  541MOL0     H73012  -0.793   6.122   7.307  2.3865 -1.8801 -3.4536
  541MOL0     H73013  -0.526   6.151   7.310 -0.8121 -0.3571 -0.3881
  541MOL0     H73014  -0.530   6.106   7.482 -1.2500 -3.2203 -0.4099
  541MOL0     H73015  -0.640   6.283   7.562  1.0215  2.0713  0.3287
  541MOL0     H73016  -0.704   6.341   7.410  0.1027 -0.2372 -0.7824
  541MOL0     H73017  -0.979   5.515   7.192 -2.6493  3.5386  1.0410
  541MOL0     H73018  -1.075   5.284   7.164 -0.6502 -1.6224 -0.3526
  541MOL0     H73019  -1.174   4.942   7.527 -0.9516  0.0263 -1.6131
  541MOL0     H73020  -1.168   4.711   7.619  0.4241  1.2677 -0.0036
  541MOL0     H73021   0.126   5.065   8.391 -1.4467 -1.7513 -0.3498
  541MOL0     H73022   0.309   5.205   8.402  2.3676 -1.6952  1.1333
  541MOL0     H73023   0.651   5.442   8.242  0.2242  0.2596 -2.0858
  541MOL0     H73024   0.838   5.581   8.212 -1.0996  0.6647  0.6317
  541MOL0     H73025   1.227   5.529   8.278  1.4505 -1.4110 -0.9350
  541MOL0     H73026   1.228   5.401   8.169 -0.9117 -0.3553  0.5539
  541MOL0     H73027   1.273   5.696   8.119  1.8719 -0.2198 -0.1071
  541MOL0     H73028   1.250   5.581   7.986 -0.5955  1.6699 -0.7088
  541MOL0     H73029   1.498   5.596   7.993  1.0510  0.6743 -0.8265
  541MOL0     H73030   1.482   5.458   8.100 -0.5680 -0.2033 -1.9804
  541MOL0     H73031   1.463   5.658   8.288  0.8094 -1.4127  0.0435
  541MOL0     H73032   1.508   5.752   8.142 -0.4432 -0.6832 -0.6670
  541MOL0     H73033   1.877   5.630   8.289 -0.2823  1.3735 -0.9226
  541MOL0     H73034   1.098   5.239   8.132 -0.5048 -2.7044  3.3089
  541MOL0     H73035   0.906   5.089   8.180  3.3996 -0.1219  0.9574
  542MOL0     O73036   5.565   8.844   5.448 -0.1442 -0.2908  0.8570
  542MOL0     C73037   5.626   8.909   5.371 -0.7985 -0.3380  0.0775
  542MOL0     O73038   5.609   9.044   5.350 -0.4653  0.1262 -0.6871
  542MOL0     C73039   5.510   9.117   5.417 -0.2067 -0.6136 -0.6350
  542MOL0     C73040   5.533   9.251   5.434  0.1579 -0.3693 -0.3923
  542MOL0     C73041   5.438   9.338   5.500 -0.1884  0.3942  0.3253
  542MOL0     C73042   5.318   9.291   5.539  0.3505  0.1343 -0.4441
  542MOL0     O73043   5.234   9.377   5.608 -0.1378 -0.1400  0.6877
  542MOL0     C73044   5.164   9.315   5.718  0.1404 -0.3628 -0.1276
  542MOL0     C73045   5.064   9.420   5.764  0.0618 -0.4960 -0.6777
  542MOL0     C73046   4.943   9.345   5.830  0.0585  0.2551 -0.0387
  542MOL0     C73047   4.842   9.443   5.893 -0.2663  0.5204 -0.2124
  542MOL0     C73048   4.746   9.377   6.002 -0.1883  0.0899 -0.7575
  542MOL0     C73049   4.621   9.458   6.030  0.1912  0.0438  0.7593
  542MOL0     C73050   4.517   9.460   5.914 -0.6562  0.0622  0.8670
  542MOL0     C73051   4.479   9.321   5.844  0.0486  0.1860  0.3011
  542MOL0     N73052   4.433   9.210   5.925  0.4208 -0.0526  0.3822
  542MOL0     C73053   4.379   9.214   6.058 -0.6584  0.2042  0.7086
  542MOL0     C73054   4.353   9.090   6.091 -0.3868  0.4144  1.2892
  542MOL0     C73055   4.313   9.046   6.226  0.1680 -0.2041  0.1180
  542MOL0     C73056   4.164   9.022   6.237 -0.4439 -0.7026 -0.0340
  542MOL0     C73057   4.111   9.005   6.385  0.2142 -0.0509  0.0198
  542MOL0     C73058   3.956   9.022   6.396 -0.6753  0.1274 -0.4916
  542MOL0     O73059   3.928   9.158   6.382  0.2726 -0.6611  0.4470
  542MOL0     C73060   3.794   9.188   6.392  0.5481  0.5945  0.2086
  542MOL0     C73061   3.695   9.095   6.362  0.1476 -0.2441 -0.8715
  542MOL0     C73062   3.559   9.139   6.351  0.0216 -0.1404 -0.3125
  542MOL0     C73063   3.452   9.039   6.304  0.0449  0.4252 -0.5171
  542MOL0     C73064   3.528   9.282   6.365  0.3918  0.0125 -0.5002
  542MOL0     C73065   3.395   9.341   6.380  0.6621 -0.4094  0.5101
  542MOL0     O73066   3.287   9.270   6.430 -0.7577 -0.3132  0.2188
  542MOL0     C73067   3.159   9.322   6.417 -0.4109  0.2200 -0.3902
  542MOL0     C73068   3.075   9.309   6.532 -0.2120  0.7301  0.3994
  542MOL0     C73069   2.933   9.343   6.531 -0.0564  0.1175  0.2798
  542MOL0     C73070   2.876   9.394   6.409 -0.0880  1.0381  0.2639
  542MOL0     O73071   2.749   9.428   6.386  0.3383 -0.1252 -0.6299
  542MOL0     C73072   2.651   9.439   6.490  0.7075  0.5716 -0.0891
  542MOL0     C73073   2.521   9.483   6.425 -0.1918 -0.2728 -0.7201
  542MOL0     C73074   2.462   9.388   6.317 -0.6985 -0.0155  0.0416
  542MOL0     C73075   2.311   9.428   6.288 -0.8449 -0.0551 -0.7469
  542MOL0     C73076   2.252   9.348   6.172  0.5068  0.7970  0.0588
  542MOL0     C73077   2.104   9.397   6.125  0.7077  0.4862 -0.9996
  542MOL0     C73078   2.057   9.319   5.992 -0.2819 -0.2791 -0.6169
  542MOL0     C73079   1.934   9.405   5.931  0.1973  0.5742 -0.6150
  542MOL0    Cl73080   1.810   9.416   6.056 -0.0267  0.0577  0.1038
  542MOL0     C73081   2.969   9.411   6.302 -0.6427 -0.5328  0.7620
  542MOL0     C73082   3.104   9.385   6.306 -0.2459  0.9707 -0.3391
  542MOL0     O73083   3.383   9.459   6.332 -0.1498  0.2607  0.3404
  542MOL0     C73084   3.629   9.365   6.404  0.4804 -0.0432  0.4671
  542MOL0     C73085   3.767   9.324   6.409 -0.6877  0.1165  0.5840
  542MOL0     N73086   4.402   9.009   5.984 -0.1323  0.1312  1.1818
  542MOL0     N73087   4.447   9.077   5.887 -0.4025 -0.3603 -0.7909
  542MOL0     C73088   5.286   9.154   5.517  0.1427  0.8241  0.2995
  542MOL0     C73089   5.383   9.072   5.456 -0.1161 -0.8100  0.9318
  542MOL0     C73090   5.748   8.845   5.312  0.1734 -0.1312  0.1082
  542MOL0     C73091   5.832   8.927   5.231 -0.6113 -0.0696  1.0264
  542MOL0     C73092   5.954   8.880   5.183 -0.3399  0.6827 -0.4769
  542MOL0     C73093   5.998   8.746   5.208  1.1157 -0.0409 -0.0002
  542MOL0     O73094   6.108   8.700   5.139 -0.5334 -0.3565 -0.0914
  542MOL0     C73095   6.158   8.568   5.159  0.4622 -0.3965 -0.1440
  542MOL0     C73096   6.296   8.545   5.096  1.4878 -0.5958 -0.2404
  542MOL0     C73097   6.286   8.532   4.944  0.3869 -0.3006 -0.0070
  542MOL0     C73098   6.414   8.461   4.887  0.3827  0.3658  0.8884
  542MOL0     C73099   6.531   8.546   4.881 -0.0299 -0.3924  0.8393
  542MOL0     C73100   6.635   8.615   4.873  0.5075  0.4662 -0.0548
  542MOL0     C73101   5.913   8.654   5.281 -0.9209 -0.8459  0.5134
  542MOL0     C73102   5.797   8.708   5.336 -0.0326 -0.5647  0.6318
  542MOL0     H73103   5.633   9.282   5.403  0.9343  0.6603  2.7390
  542MOL0     H73104   5.461   9.435   5.542 -1.9408  1.2693 -0.6227
  542MOL0     H73105   5.106   9.232   5.677  0.2271  0.1225 -1.2846
  542MOL0     H73106   5.234   9.282   5.795  2.4831 -0.2622 -2.0637
  542MOL0     H73107   5.115   9.495   5.824  2.4853 -0.8091 -2.1715
  542MOL0     H73108   5.030   9.477   5.677 -2.0853  2.6845  2.0330
  542MOL0     H73109   4.882   9.282   5.763 -1.6882  0.9068  0.8645
  542MOL0     H73110   4.986   9.274   5.901  0.6493 -0.8960 -1.4868
  542MOL0     H73111   4.898   9.527   5.934  1.9180 -1.3879  0.9439
  542MOL0     H73112   4.777   9.476   5.810 -0.0367 -0.0524 -0.6266
  542MOL0     H73113   4.720   9.281   5.955 -1.5937  0.4252 -0.7216
  542MOL0     H73114   4.791   9.358   6.099 -1.1792  0.7590 -0.1497
  542MOL0     H73115   4.560   9.421   6.114 -0.7083 -2.1869 -0.7860
  542MOL0     H73116   4.651   9.558   6.061 -1.9903  0.5929  1.3181
  542MOL0     H73117   4.423   9.504   5.949 -1.9968 -0.5247 -1.7238
  542MOL0     H73118   4.552   9.532   5.841 -1.7348  1.8837  2.0660
  542MOL0     H73119   4.562   9.285   5.783 -1.6675 -0.8402 -1.5298
  542MOL0     H73120   4.398   9.342   5.774 -0.1255 -0.2104  0.3819
  542MOL0     H73121   4.365   9.304   6.117  0.1783  0.9271 -0.1572
  542MOL0     H73122   4.366   8.957   6.262 -0.2737 -0.6169 -0.2351
  542MOL0     H73123   4.338   9.130   6.292 -1.4379  0.4643 -0.0827
  542MOL0     H73124   4.134   8.932   6.181  0.3889 -0.5227 -0.7796
  542MOL0     H73125   4.117   9.104   6.182  1.9987 -0.3409 -1.7431
  542MOL0     H73126   4.156   9.077   6.454 -0.1158 -0.5598  0.7803
  542MOL0     H73127   4.142   8.906   6.420  0.2764 -0.0115  0.0760
  542MOL0     H73128   3.939   8.978   6.494 -0.1135 -2.0588 -1.3059
  542MOL0     H73129   3.896   8.959   6.330 -1.4374 -0.1671  0.4581
  542MOL0     H73130   3.708   8.990   6.337 -1.1985 -0.3986 -1.0352
  542MOL0     H73131   3.423   9.059   6.201  2.0611  0.6348 -1.0925
  542MOL0     H73132   3.488   8.935   6.309 -3.5647 -1.0129 -1.2197
  542MOL0     H73133   3.366   9.043   6.370 -1.0280 -1.4685 -1.7098
  542MOL0     H73134   3.127   9.267   6.617  2.8611  0.8675 -1.2397
  542MOL0     H73135   2.873   9.328   6.621 -1.0467 -0.9125 -0.5145
  542MOL0     H73136   2.637   9.346   6.546 -1.0920 -0.5392 -2.2180
  542MOL0     H73137   2.680   9.515   6.563 -0.2855 -2.3112  3.6149
  542MOL0     H73138   2.447   9.500   6.504  0.7602 -4.0210  1.2019
  542MOL0     H73139   2.537   9.583   6.384 -3.9175  1.2147  0.9509
  542MOL0     H73140   2.474   9.285   6.353 -2.2727 -0.5537 -0.8440
  542MOL0     H73141   2.529   9.401   6.231  0.1353 -0.0799  0.6739
  542MOL0     H73142   2.251   9.410   6.378 -0.2782  1.1807 -0.1078
  542MOL0     H73143   2.311   9.534   6.263  1.7268  0.1818  0.0084
  542MOL0     H73144   2.253   9.239   6.187  1.5335  1.1036  2.9486
  542MOL0     H73145   2.324   9.371   6.092  0.1222  3.2530  0.3628
  542MOL0     H73146   2.039   9.386   6.212 -0.4493  1.2175 -1.7379
  542MOL0     H73147   2.107   9.500   6.087 -3.4862  0.8872 -0.7234
  542MOL0     H73148   2.024   9.216   6.011 -1.6190  0.1242 -0.6090
  542MOL0     H73149   2.141   9.309   5.923 -1.1808 -3.8655 -1.4023
  542MOL0     H73150   1.887   9.356   5.846 -1.8577  1.7871 -0.2464
  542MOL0     H73151   1.971   9.504   5.900  0.8917  1.1430  1.7774
  542MOL0     H73152   2.934   9.447   6.206 -0.7213  1.1861  1.4156
  542MOL0     H73153   3.171   9.414   6.225  0.9686 -0.5962  0.0621
  542MOL0     H73154   3.625   9.473   6.416  3.6412  0.2399  0.0367
  542MOL0     H73155   3.852   9.382   6.442  0.8053 -1.0016 -1.0963
  542MOL0     H73156   5.183   9.124   5.531 -0.6066  2.4240 -1.3653
  542MOL0     H73157   5.346   8.971   5.437  1.8402 -1.7569  1.8351
  542MOL0     H73158   5.798   9.025   5.197 -3.1827 -0.8947  1.0365
  542MOL0     H73159   6.019   8.941   5.120  0.9352 -2.4803 -2.4549
  542MOL0     H73160   6.174   8.556   5.267 -0.3114  0.8700  0.1373
  542MOL0     H73161   6.083   8.497   5.123  0.8995 -0.2568 -1.3850
  542MOL0     H73162   6.336   8.451   5.135 -0.0556 -0.7134  1.1942
  542MOL0     H73163   6.360   8.626   5.133 -0.8055  1.5445 -0.6381
  542MOL0     H73164   6.272   8.634   4.907 -0.7587 -0.2452  0.5612
  542MOL0     H73165   6.201   8.465   4.934  1.4447 -2.0576  1.8979
  542MOL0     H73166   6.391   8.413   4.791  0.3363 -0.7565  1.4499
  542MOL0     H73167   6.439   8.377   4.952  0.9999  0.1808  0.4200
  542MOL0     H73168   6.726   8.672   4.872  1.0365 -0.3448 -0.8417
  542MOL0     H73169   5.942   8.550   5.290  1.5295 -0.5223 -2.0524
  542MOL0     H73170   5.735   8.637   5.390 -0.3109 -0.0792  0.9580
  543MOL0     O73171  11.085   6.193   8.176 -0.2131 -0.0123 -0.4135
  543MOL0     C73172  11.138   6.260   8.262  1.0507 -0.6195  0.2516
  543MOL0     O73173  11.088   6.278   8.389  0.0600 -0.3707  0.2743
  543MOL0     C73174  10.969   6.232   8.422  0.6606 -0.3578  0.3028
  543MOL0     C73175  10.953   6.118   8.498 -0.5949 -0.3284 -0.5833
  543MOL0     C73176  10.828   6.061   8.519  0.1270 -1.1439  0.5008
  543MOL0     C73177  10.712   6.127   8.475 -0.4355  0.2091  0.2595
  543MOL0     O73178  10.590   6.069   8.493  0.2002 -0.2100  0.5864
  543MOL0     C73179  10.483   6.146   8.561 -0.6346  0.0626  0.1014
  543MOL0     C73180  10.354   6.063   8.536  0.0071  0.3632  0.6281
  543MOL0     C73181  10.234   6.144   8.577 -0.0927 -0.5463  1.1218
  543MOL0     C73182  10.119   6.057   8.631 -0.6101  0.3555 -0.2763
  543MOL0     C73183   9.988   6.133   8.650 -0.2681 -0.0173 -0.1256
  543MOL0     C73184   9.928   6.185   8.515  0.5846  0.0248  0.2715
  543MOL0     C73185   9.892   6.074   8.418  0.4705 -0.0505  0.3484
  543MOL0     C73186   9.815   6.117   8.285  0.1785 -0.7788  0.5949
  543MOL0     N73187   9.693   6.197   8.300  0.4866 -0.1822  0.1542
  543MOL0     C73188   9.667   6.312   8.375  0.4972 -0.6680 -0.2107
  543MOL0     C73189   9.536   6.337   8.356  0.2660  0.5318 -0.4634
  543MOL0     C73190   9.464   6.453   8.413 -0.2668  0.8964  0.0957
  543MOL0     C73191   9.366   6.410   8.533 -0.1692 -0.6797 -0.8170
  543MOL0     C73192   9.439   6.382   8.667  0.7357 -0.1087 -0.8970
  543MOL0     C73193   9.354   6.309   8.771  0.0027  0.6072  0.5572
  543MOL0     O73194   9.249   6.401   8.811  0.4130 -0.1185 -0.0412
  543MOL0     C73195   9.143   6.363   8.896  0.3378  0.2430  0.0176
  543MOL0     C73196   9.135   6.248   8.979 -0.5965  0.4115 -0.2814
  543MOL0     C73197   9.027   6.217   9.057 -0.4954 -0.6115  0.4402
  543MOL0     C73198   9.044   6.100   9.147  0.2311  0.1774 -0.2891
  543MOL0     C73199   8.912   6.297   9.045  0.0456 -0.0702  0.3948
  543MOL0     C73200   8.782   6.285   9.111  1.1221 -0.4240  0.1462
  543MOL0     O73201   8.747   6.166   9.138 -0.5009 -0.4349 -0.1952
  543MOL0     C73202   8.617   6.142   9.172  0.4780 -0.2483  0.1540
  543MOL0     C73203   8.522   6.144   9.068  0.7126 -0.1171  0.9308
  543MOL0     C73204   8.381   6.148   9.101 -0.9007  0.1130 -0.0172
  543MOL0     C73205   8.347   6.141   9.238  0.1281 -0.4684  0.3185
  543MOL0     O73206   8.221   6.144   9.278 -0.1111  0.2080  0.0230
  543MOL0     C73207   8.130   6.241   9.226  0.4903  0.2316 -0.7701
  543MOL0     C73208   7.981   6.213   9.268  0.0370 -0.1249 -0.2885
  543MOL0     C73209   7.887   6.326   9.215  0.7250  0.0011 -0.7476
  543MOL0     C73210   7.736   6.305   9.251 -0.0457  0.8332 -0.8586
  543MOL0     C73211   7.668   6.428   9.193  0.4701 -0.2076  0.1203
  543MOL0     C73212   7.521   6.426   9.233  0.3900  0.2137 -0.1398
  543MOL0     C73213   7.490   6.408   9.386 -0.6456  0.1688 -0.0846
  543MOL0     C73214   7.340   6.430   9.402  0.7785 -0.2032  0.4735
  543MOL0    Cl73215   7.236   6.287   9.361  0.2461  0.1239 -0.0678
  543MOL0     C73216   8.443   6.119   9.336 -0.0211 -0.2597 -0.1306
  543MOL0     C73217   8.576   6.128   9.303  0.0391 -0.5435 -0.0079
  543MOL0     O73218   8.714   6.386   9.130  0.7794 -0.2230 -0.0212
  543MOL0     C73219   8.915   6.407   8.953  0.3854  0.0986  0.7439
  543MOL0     C73220   9.035   6.431   8.877  0.3120 -1.0891  0.3495
  543MOL0     N73221   9.480   6.236   8.273  0.7431 -0.0083 -0.2006
  543MOL0     N73222   9.581   6.159   8.237 -0.1973  0.0022 -0.9554
  543MOL0     C73223  10.728   6.250   8.406  0.4994  0.2692 -0.3669
  543MOL0     C73224  10.853   6.295   8.373 -0.2183 -0.1156  0.4707
  543MOL0     C73225  11.276   6.299   8.249 -1.0380 -0.2893 -0.7029
  543MOL0     C73226  11.351   6.373   8.353  0.8190  0.2995 -0.0885
  543MOL0     C73227  11.478   6.412   8.329 -0.2280 -0.0179  0.2774
  543MOL0     C73228  11.540   6.377   8.207 -0.4144 -0.0598  0.6962
  543MOL0     O73229  11.676   6.420   8.188 -0.6001 -0.2009 -0.4649
  543MOL0     C73230  11.746   6.401   8.063  0.7129 -0.0638 -0.4499
  543MOL0     C73231  11.891   6.436   8.054 -0.5418  0.4354 -0.4613
  543MOL0     C73232  11.974   6.345   8.151  0.1911 -0.3434 -0.6166
  543MOL0     C73233  11.993   6.198   8.114 -0.1024  1.0945 -0.0355
  543MOL0     C73234  12.097   6.180   8.019  0.1148 -0.3040 -0.1347
  543MOL0     C73235  12.191   6.174   7.945 -0.1690  0.5898  0.0990
  543MOL0     C73236  11.479   6.304   8.113  0.0224  0.4371 -0.2506
  543MOL0     C73237  11.350   6.266   8.135  0.8712 -0.2279  0.9345
  543MOL0     H73238  11.046   6.081   8.539 -0.1702 -1.0773 -2.1434
  543MOL0     H73239  10.827   5.964   8.568  1.5531 -1.3723  0.1380
  543MOL0     H73240  10.500   6.155   8.668  0.6485  0.3569 -0.1033
  543MOL0     H73241  10.468   6.242   8.510  0.3017 -1.0842 -2.5260
  543MOL0     H73242  10.357   6.041   8.429  2.7640  1.6781  0.3382
  543MOL0     H73243  10.355   5.968   8.591 -1.5928  0.2068  0.4307
  543MOL0     H73244  10.258   6.222   8.649 -1.1278  0.6258  0.2467
  543MOL0     H73245  10.204   6.202   8.489 -1.1242 -2.9575 -0.2519
  543MOL0     H73246  10.096   5.969   8.569 -0.3909 -0.6557  1.0332
  543MOL0     H73247  10.157   6.028   8.729 -0.5365 -2.6337 -1.0679
  543MOL0     H73248   9.912   6.072   8.702  1.6994 -1.3821  1.2913
  543MOL0     H73249  10.007   6.222   8.711 -1.3098  2.7336 -3.5324
  543MOL0     H73250   9.841   6.247   8.536  0.1685  0.6246 -2.7076
  543MOL0     H73251   9.996   6.250   8.459 -0.3378  0.4797 -0.3459
  543MOL0     H73252   9.986   6.025   8.388  1.3691  1.7565  0.0976
  543MOL0     H73253   9.830   6.006   8.477 -1.3541  0.0108 -1.3819
  543MOL0     H73254   9.796   6.023   8.232  1.7332 -2.5781  3.0828
  543MOL0     H73255   9.883   6.186   8.235 -2.5760  2.5073  0.9753
  543MOL0     H73256   9.742   6.377   8.419  0.4119 -1.3939  1.0405
  543MOL0     H73257   9.540   6.527   8.441  1.1362 -0.4619  0.0164
  543MOL0     H73258   9.396   6.488   8.336  0.6702  2.5807 -0.0135
  543MOL0     H73259   9.323   6.312   8.507  0.9385 -2.1843  2.4284
  543MOL0     H73260   9.286   6.482   8.555 -0.4921 -1.4577  0.6954
  543MOL0     H73261   9.483   6.475   8.703 -0.2522  1.5940 -3.7619
  543MOL0     H73262   9.530   6.327   8.641  2.3564  1.9494  0.1064
  543MOL0     H73263   9.404   6.286   8.866 -0.6597  1.4181  1.1157
  543MOL0     H73264   9.308   6.218   8.730  1.0564  0.1248  0.4049
  543MOL0     H73265   9.230   6.196   8.977 -0.8167 -0.0124 -2.2179
  543MOL0     H73266   9.008   6.012   9.093  0.9865  0.9222 -2.0662
  543MOL0     H73267   9.150   6.083   9.170  0.8306 -0.1901 -3.0056
  543MOL0     H73268   8.983   6.128   9.234  0.2043 -1.2358  0.1751
  543MOL0     H73269   8.560   6.154   8.966 -2.1025  0.4079 -0.1635
  543MOL0     H73270   8.308   6.153   9.021 -1.9508 -0.2269  0.8918
  543MOL0     H73271   8.153   6.347   9.238 -1.6445  1.0703 -3.1062
  543MOL0     H73272   8.130   6.241   9.116 -2.0057 -0.5630 -0.8298
  543MOL0     H73273   7.937   6.119   9.234  0.1312 -0.1538 -0.3317
  543MOL0     H73274   7.982   6.210   9.378 -0.7372  2.9066 -0.1149
  543MOL0     H73275   7.907   6.323   9.107 -1.0638 -0.6270 -1.0935
  543MOL0     H73276   7.929   6.419   9.255  0.7704  0.2590 -1.3722
  543MOL0     H73277   7.700   6.214   9.201 -0.6940  2.4032 -3.4654
  543MOL0     H73278   7.728   6.288   9.359  0.7455 -2.1887 -1.1946
  543MOL0     H73279   7.683   6.444   9.086  1.2429  2.4101  0.5509
  543MOL0     H73280   7.725   6.513   9.232 -0.7391  0.8185 -0.2522
  543MOL0     H73281   7.476   6.523   9.213 -2.1860  0.0199  3.7716
  543MOL0     H73282   7.471   6.354   9.168 -1.3102  2.3137 -1.2774
  543MOL0     H73283   7.544   6.487   9.439  0.6192  0.2003 -1.3517
  543MOL0     H73284   7.532   6.317   9.429  0.5639  0.7370 -0.0342
  543MOL0     H73285   7.311   6.523   9.350 -0.1302 -1.3445 -1.1583
  543MOL0     H73286   7.334   6.444   9.510 -2.3454  0.1868  0.3432
  543MOL0     H73287   8.424   6.096   9.440  1.3599 -2.9568 -0.3832
  543MOL0     H73288   8.654   6.121   9.379 -1.1252 -0.4455  1.2188
  543MOL0     H73289   8.827   6.462   8.919  0.7524 -0.0477 -0.5039
  543MOL0     H73290   9.035   6.507   8.799  1.8173  0.5077  1.8094
  543MOL0     H73291  10.642   6.294   8.357 -1.8969 -2.6623  0.9092
  543MOL0     H73292  10.863   6.377   8.302  1.2381  0.4798  1.3139
  543MOL0     H73293  11.300   6.413   8.440 -0.8365 -1.2043 -0.2982
  543MOL0     H73294  11.539   6.468   8.399  1.7643 -0.0216 -1.3366
  543MOL0     H73295  11.742   6.296   8.035  1.7178 -0.3470  0.4082
  543MOL0     H73296  11.690   6.460   7.988 -0.6679 -0.2476  0.4021
  543MOL0     H73297  11.888   6.538   8.094  2.2231  1.0317 -1.5977
  543MOL0     H73298  11.938   6.444   7.956  1.5154  2.2899  0.6090
  543MOL0     H73299  11.938   6.347   8.254  2.4660  0.7868  0.2151
  543MOL0     H73300  12.074   6.387   8.162 -0.1264 -0.2287  2.5343
  543MOL0     H73301  11.906   6.147   8.071  0.0515 -1.6438  2.5668
  543MOL0     H73302  12.005   6.138   8.204  1.0860 -0.3899 -1.1238
  543MOL0     H73303  12.271   6.152   7.877 -0.2108 -0.8947  0.4923
  543MOL0     H73304  11.524   6.278   8.018  0.2478  3.2907 -1.0136
  543MOL0     H73305  11.302   6.210   8.056  0.6146 -0.6936  1.4135
  544MOL0     O73306   4.284   6.633   6.931 -0.1433 -0.1631 -0.5796
  544MOL0     C73307   4.243   6.521   6.946  0.6857  0.0259 -0.3873
  544MOL0     O73308   4.310   6.406   6.978  0.0216  1.0044 -0.9722
  544MOL0     C73309   4.439   6.399   7.014 -0.6720  1.1232 -0.2696
  544MOL0     C73310   4.490   6.483   7.117  0.0487  0.3798  0.3086
  544MOL0     C73311   4.625   6.487   7.146  0.5027  0.0706  0.2411
  544MOL0     C73312   4.713   6.388   7.089  0.2739  0.7532  0.0549
  544MOL0     O73313   4.840   6.375   7.112  0.3962  0.0577 -0.1122
  544MOL0     C73314   4.878   6.404   7.247 -0.5846 -1.0200 -0.6098
  544MOL0     C73315   5.029   6.421   7.262  0.3820  0.5910 -0.6300
  544MOL0     C73316   5.057   6.391   7.413 -0.7268  0.5590  0.2115
  544MOL0     C73317   5.203   6.383   7.427 -0.0266 -0.2282 -0.1145
  544MOL0     C73318   5.251   6.332   7.569 -0.8457  0.0726  0.4001
  544MOL0     C73319   5.233   6.430   7.684 -0.8354  0.0242  0.5668
  544MOL0     C73320   5.242   6.362   7.819  1.1053 -0.0796  0.5255
  544MOL0     C73321   5.135   6.259   7.856  0.1576 -0.7344 -0.3106
  544MOL0     N73322   4.997   6.308   7.833  0.2495 -0.3309  0.2353
  544MOL0     C73323   4.908   6.379   7.905  0.8048  0.1608  0.0600
  544MOL0     C73324   4.780   6.356   7.849 -0.0967  0.2332  0.2090
  544MOL0     C73325   4.657   6.400   7.919  0.5215 -0.6546  0.4443
  544MOL0     C73326   4.583   6.533   7.876 -0.0343  0.1823 -0.3027
  544MOL0     C73327   4.453   6.534   7.952  0.6131  0.6422 -0.6095
  544MOL0     C73328   4.380   6.672   7.949  0.7389 -0.4559  0.1577
  544MOL0     O73329   4.319   6.702   7.822 -0.2057  0.6950 -0.0579
  544MOL0     C73330   4.178   6.702   7.816  0.1120 -0.8419  0.1003
  544MOL0     C73331   4.113   6.585   7.850 -0.7641  0.0485  0.0954
  544MOL0     C73332   3.971   6.572   7.834 -0.2927 -0.0633 -0.6294
  544MOL0     C73333   3.910   6.451   7.903  1.3378  0.5283  0.4986
  544MOL0     C73334   3.898   6.680   7.779  0.6972  0.1489 -0.4507
  544MOL0     C73335   3.755   6.674   7.745  0.6289 -0.3246 -0.1329
  544MOL0     O73336   3.700   6.782   7.685 -0.5678 -0.2041 -0.2918
  544MOL0     C73337   3.567   6.783   7.651 -0.9698 -0.0770 -1.0233
  544MOL0     C73338   3.497   6.906   7.678 -0.8726 -0.0535  1.0827
  544MOL0     C73339   3.360   6.922   7.644 -0.5830  0.4343  0.5607
  544MOL0     C73340   3.289   6.824   7.574 -0.6125  0.5517  0.1764
  544MOL0     O73341   3.160   6.834   7.534 -0.2355 -0.2276  0.5738
  544MOL0     C73342   3.066   6.885   7.638 -0.0456 -0.8083 -0.6266
  544MOL0     C73343   2.930   6.902   7.566  0.1086 -0.1044 -0.3024
  544MOL0     C73344   2.812   6.962   7.649  0.3832  0.3338 -0.0913
  544MOL0     C73345   2.687   6.973   7.560 -1.4087 -0.6433 -0.5202
  544MOL0     C73346   2.555   6.991   7.622  0.4625  0.1127 -0.6719
  544MOL0     C73347   2.451   7.049   7.525 -0.1345  0.3277 -0.1399
  544MOL0     C73348   2.319   7.065   7.600  0.4547  0.3661 -0.0173
  544MOL0     C73349   2.197   7.099   7.506 -0.2914  0.5018  0.0334
  544MOL0    Cl73350   2.192   7.272   7.474  0.2741 -0.4899 -0.0456
  544MOL0     C73351   3.363   6.707   7.541 -0.1590 -0.1766 -0.2939
  544MOL0     C73352   3.491   6.684   7.585 -0.5902  0.0026  0.7173
  544MOL0     O73353   3.692   6.581   7.782 -0.5609  0.5913 -0.5527
  544MOL0     C73354   3.968   6.795   7.741 -0.3791  0.9736 -0.3907
  544MOL0     C73355   4.102   6.814   7.764 -0.0387 -0.4241 -0.1098
  544MOL0     N73356   4.795   6.289   7.727  0.5488  0.0360 -0.4127
  544MOL0     N73357   4.923   6.267   7.720 -0.7209  0.0957  1.1292
  544MOL0     C73358   4.661   6.292   7.002 -0.1518 -0.8859  0.2602
  544MOL0     C73359   4.518   6.298   6.960  0.1795 -0.5105 -0.7995
  544MOL0     C73360   4.094   6.510   6.932 -0.3235  0.4490 -0.5185
  544MOL0     C73361   4.006   6.619   6.946  0.2182  0.8930  0.2627
  544MOL0     C73362   3.869   6.607   6.921  0.0553 -0.9991  0.1028
  544MOL0     C73363   3.821   6.487   6.868 -0.5472 -0.1456  0.3524
  544MOL0     O73364   3.684   6.467   6.837 -0.1017 -0.9118  0.2348
  544MOL0     C73365   3.591   6.579   6.866  0.2453  0.1257 -0.5391
  544MOL0     C73366   3.599   6.705   6.777 -0.4042 -0.0223  0.0766
  544MOL0     C73367   3.485   6.807   6.815 -0.6502  0.2500  0.5955
  544MOL0     C73368   3.463   6.906   6.699  0.1996  0.2711  0.2816
  544MOL0     C73369   3.580   7.003   6.686  0.8786 -0.0694  0.0324
  544MOL0     C73370   3.677   7.074   6.687  0.7621 -0.1318 -0.1560
  544MOL0     C73371   3.910   6.379   6.867  0.2222 -0.5264  0.0574
  544MOL0     C73372   4.041   6.388   6.904 -0.6154  0.3503  0.3802
  544MOL0     H73373   4.426   6.558   7.162  1.1648  1.4709  0.1481
  544MOL0     H73374   4.655   6.567   7.214  0.0991  0.1112  0.3746
  544MOL0     H73375   4.835   6.496   7.286  0.7623  0.0746 -1.6048
  544MOL0     H73376   4.844   6.318   7.306 -3.3694 -0.1437 -0.7988
  544MOL0     H73377   5.085   6.348   7.202  1.0909  0.0092  0.6993
  544MOL0     H73378   5.055   6.525   7.240  2.4125  0.1816 -0.3219
  544MOL0     H73379   5.005   6.467   7.471 -1.3974  2.1105 -2.2728
  544MOL0     H73380   5.012   6.294   7.436 -2.5628  0.7855 -2.0702
  544MOL0     H73381   5.230   6.316   7.345 -0.4088  0.0560 -0.4727
  544MOL0     H73382   5.250   6.480   7.409 -0.3863 -0.0775 -0.2343
  544MOL0     H73383   5.184   6.247   7.582 -0.9553 -0.4471 -2.7133
  544MOL0     H73384   5.351   6.289   7.557 -2.3619 -3.5258 -0.6468
  544MOL0     H73385   5.306   6.512   7.677 -0.1918 -0.6517 -3.2797
  544MOL0     H73386   5.137   6.481   7.674 -1.2803 -0.9090 -0.1235
  544MOL0     H73387   5.339   6.312   7.813  1.6612  0.7243  2.2728
  544MOL0     H73388   5.246   6.436   7.900 -0.8829  0.8394 -0.1444
  544MOL0     H73389   5.144   6.220   7.958  0.6012 -0.1561 -0.1199
  544MOL0     H73390   5.156   6.173   7.792  1.8918 -0.7861  0.2823
  544MOL0     H73391   4.927   6.438   7.994 -2.8161 -0.1136  1.1787
  544MOL0     H73392   4.583   6.324   7.889 -1.9154  1.4120  0.8802
  544MOL0     H73393   4.664   6.394   8.028 -0.6458 -1.4472  0.4985
  544MOL0     H73394   4.562   6.529   7.768 -1.0965  2.0544 -0.2209
  544MOL0     H73395   4.645   6.621   7.896 -0.6104  0.4736  0.2502
  544MOL0     H73396   4.469   6.501   8.055 -1.2554 -0.0663 -0.5062
  544MOL0     H73397   4.381   6.459   7.917  0.3589  0.2699  0.6765
  544MOL0     H73398   4.449   6.752   7.976  2.5553 -1.3307 -1.6615
  544MOL0     H73399   4.299   6.679   8.023 -1.0966  1.8932 -1.8936
  544MOL0     H73400   4.160   6.491   7.876 -0.4033  0.4218  0.8140
  544MOL0     H73401   3.838   6.478   7.981  1.7443  1.0168  0.7084
  544MOL0     H73402   3.876   6.370   7.837  0.6822  1.8923 -0.8889
  544MOL0     H73403   3.988   6.396   7.957  0.6352 -0.5242  0.4788
  544MOL0     H73404   3.550   6.986   7.729 -1.5943 -1.0265  3.5381
  544MOL0     H73405   3.310   7.017   7.655  2.9618  2.8568 -2.0242
  544MOL0     H73406   3.047   6.803   7.708 -1.8691 -1.0986 -1.3881
  544MOL0     H73407   3.099   6.970   7.699  1.9593 -1.6878 -0.3958
  544MOL0     H73408   2.944   6.969   7.481 -2.1706  3.4333  1.8765
  544MOL0     H73409   2.893   6.804   7.534 -1.8166 -0.4037  2.4716
  544MOL0     H73410   2.836   7.063   7.683 -0.5182  1.8022 -3.4662
  544MOL0     H73411   2.795   6.904   7.741 -0.7176  1.1925  0.2853
  544MOL0     H73412   2.713   7.064   7.505 -0.7076  0.1824  1.1114
  544MOL0     H73413   2.672   6.889   7.490  0.0142  0.7282 -2.5847
  544MOL0     H73414   2.560   7.058   7.708 -0.1366  0.3897 -0.8480
  544MOL0     H73415   2.528   6.889   7.649  0.5379  0.5196  1.0249
  544MOL0     H73416   2.485   7.145   7.486  0.4052 -0.3291 -1.3278
  544MOL0     H73417   2.438   6.993   7.432  2.2332  1.3283 -1.1618
  544MOL0     H73418   2.333   7.148   7.671  2.8044  1.1546 -1.3296
  544MOL0     H73419   2.293   6.966   7.637  4.7597 -0.4539  1.2975
  544MOL0     H73420   2.105   7.064   7.555  1.0988 -1.5813  1.2941
  544MOL0     H73421   2.213   7.042   7.415  1.7334  0.7675  0.1828
  544MOL0     H73422   3.320   6.625   7.484  0.8474 -0.4433 -0.6918
  544MOL0     H73423   3.553   6.598   7.561  0.9960  0.9816  1.1907
  544MOL0     H73424   3.914   6.880   7.700  0.8184  0.8136 -2.4544
  544MOL0     H73425   4.159   6.900   7.731 -0.4808 -0.5708 -1.3180
  544MOL0     H73426   4.717   6.206   6.966  0.7480  0.5512 -1.9427
  544MOL0     H73427   4.486   6.219   6.893 -2.7556 -1.2545  1.3070
  544MOL0     H73428   4.054   6.715   6.959  1.1509  0.8387 -2.2763
  544MOL0     H73429   3.809   6.696   6.932  2.4267  0.6726  0.2332
  544MOL0     H73430   3.489   6.540   6.861  0.1425  0.2495  0.4067
  544MOL0     H73431   3.615   6.603   6.971 -0.3606 -1.2027 -0.0775
  544MOL0     H73432   3.596   6.665   6.676  1.0997 -3.1161  1.1266
  544MOL0     H73433   3.694   6.760   6.783 -0.7993  0.7563 -0.6728
  544MOL0     H73434   3.508   6.870   6.901  2.4957 -0.7393  0.6048
  544MOL0     H73435   3.388   6.761   6.836 -0.0712 -0.3574  2.0599
  544MOL0     H73436   3.373   6.962   6.726 -0.4925  0.5343 -2.3478
  544MOL0     H73437   3.442   6.850   6.608  1.2341 -0.7394  0.6383
  544MOL0     H73438   3.766   7.132   6.697 -0.3700  1.3298  2.4965
  544MOL0     H73439   3.859   6.286   6.843 -4.5904  1.8913 -0.2529
  544MOL0     H73440   4.099   6.296   6.898  0.0260  0.3859  3.7811
  545MOL0     O73441   4.434   6.276  10.190  0.1358 -0.2329 -0.4899
  545MOL0     C73442   4.496   6.167  10.187 -0.5491 -0.0665  0.9199
  545MOL0     O73443   4.452   6.049  10.132 -0.5513  0.0837 -0.1330
  545MOL0     C73444   4.327   6.036  10.087 -0.3479  0.0253 -1.3524
  545MOL0     C73445   4.309   5.956   9.974 -0.2582 -0.3043 -0.2398
  545MOL0     C73446   4.192   5.960   9.907 -0.0707 -0.0877  0.0420
  545MOL0     C73447   4.076   6.025   9.963 -0.3957  0.6239  0.0468
  545MOL0     O73448   3.949   6.029   9.905 -0.1279  0.2746 -0.2245
  545MOL0     C73449   3.953   6.053   9.770 -0.0579 -0.0850  0.2243
  545MOL0     C73450   3.809   6.060   9.729  0.6666 -0.4258 -0.4724
  545MOL0     C73451   3.802   6.070   9.574  0.2835 -0.0100  0.1389
  545MOL0     C73452   3.673   6.141   9.524 -0.4212 -0.2805 -0.4278
  545MOL0     C73453   3.562   6.052   9.548  0.0822  0.5198  0.0067
  545MOL0     C73454   3.425   6.109   9.514  0.2071  1.0979 -0.5802
  545MOL0     C73455   3.308   6.009   9.508 -0.4195 -0.2382 -0.2758
  545MOL0     C73456   3.181   6.084   9.455  0.1716  0.6610  0.4282
  545MOL0     N73457   3.069   5.997   9.479  0.4039 -0.0063  0.4063
  545MOL0     C73458   3.035   5.882   9.414 -0.8682 -0.3907  0.8373
  545MOL0     C73459   2.936   5.833   9.487 -0.6084  0.4875 -0.6578
  545MOL0     C73460   2.883   5.693   9.478  0.4369 -0.9148 -0.8092
  545MOL0     C73461   2.862   5.626   9.336 -0.1479 -1.2424 -0.3116
  545MOL0     C73462   2.795   5.724   9.241  1.0059  0.2550 -0.7552
  545MOL0     C73463   2.647   5.748   9.284  0.9057  0.5191  0.2889
  545MOL0     O73464   2.574   5.625   9.273 -0.0920  0.2010  0.4387
  545MOL0     C73465   2.442   5.641   9.309 -0.2113  0.1439 -0.0772
  545MOL0     C73466   2.375   5.753   9.362 -0.3172  0.1354 -0.2179
  545MOL0     C73467   2.245   5.747   9.415 -0.2256 -0.6021  0.1381
  545MOL0     C73468   2.200   5.876   9.483  0.4246  0.5139 -0.2771
  545MOL0     C73469   2.163   5.632   9.392  0.0687 -0.1437  0.8215
  545MOL0     C73470   2.015   5.619   9.412 -1.3036 -1.4733 -0.3803
  545MOL0     O73471   1.950   5.503   9.374 -0.4529  0.2190  0.7113
  545MOL0     C73472   1.852   5.449   9.447 -0.7956 -0.1677  0.2812
  545MOL0     C73473   1.776   5.355   9.381 -0.0813 -1.1786 -1.0966
  545MOL0     C73474   1.673   5.285   9.455 -0.2258  0.6218 -0.3600
  545MOL0     C73475   1.660   5.322   9.592 -0.3989  0.1310  0.1279
  545MOL0     O73476   1.572   5.253   9.674 -0.5018 -0.1744  0.1589
  545MOL0     C73477   1.511   5.325   9.784 -0.2042  0.1533  0.1961
  545MOL0     C73478   1.357   5.322   9.782  0.2585 -0.2205 -0.4748
  545MOL0     C73479   1.301   5.352   9.649 -0.2658 -0.4509  0.0469
  545MOL0     C73480   1.151   5.334   9.651 -0.1334 -0.5576 -0.5985
  545MOL0     C73481   1.076   5.341   9.513  0.1625 -0.9929 -0.1014
  545MOL0     C73482   0.925   5.306   9.534 -1.2072  0.3473 -0.1218
  545MOL0     C73483   0.830   5.334   9.417  0.2232  0.2191 -1.2595
  545MOL0     C73484   0.688   5.283   9.467 -1.0812 -0.3433  0.5208
  545MOL0    Cl73485   0.619   5.401   9.586 -0.1636  0.1179  0.6733
  545MOL0     C73486   1.755   5.397   9.655 -0.5297  0.4901  0.3670
  545MOL0     C73487   1.853   5.460   9.584  0.2599 -0.0302  0.6642
  545MOL0     O73488   1.961   5.709   9.469  0.4327  0.2176  0.1356
  545MOL0     C73489   2.232   5.518   9.324  0.0659 -0.6150  0.6466
  545MOL0     C73490   2.363   5.526   9.276 -0.3124 -0.7722  0.2537
  545MOL0     N73491   2.913   5.907   9.597  0.2031  0.4472 -0.6009
  545MOL0     N73492   2.987   6.006   9.584 -0.1728 -0.1963 -0.5823
  545MOL0     C73493   4.094   6.095  10.085 -0.3585 -0.1406 -0.1058
  545MOL0     C73494   4.216   6.107  10.149  0.0050  0.3148  0.2438
  545MOL0     C73495   4.627   6.167  10.255  0.0791  0.5863 -0.7365
  545MOL0     C73496   4.665   6.271  10.341 -1.2184 -0.2336  0.3271
  545MOL0     C73497   4.798   6.284  10.391  0.7451 -0.2311 -0.2661
  545MOL0     C73498   4.899   6.193  10.363 -0.0382 -0.4148  0.0843
  545MOL0     O73499   5.031   6.222  10.391 -0.4741 -0.3503 -0.1694
  545MOL0     C73500   5.131   6.118  10.409  0.7818 -0.0149 -0.2691
  545MOL0     C73501   5.119   6.026  10.532 -0.2513  0.3620 -0.2012
  545MOL0     C73502   5.245   5.939  10.530  0.0740 -0.1048 -0.7860
  545MOL0     C73503   5.266   5.871  10.667 -0.9220 -0.2752 -0.0742
  545MOL0     C73504   5.385   5.782  10.681  0.8056 -0.9110 -0.3332
  545MOL0     C73505   5.486   5.720  10.662 -0.6689  0.6573 -0.7563
  545MOL0     C73506   4.855   6.083  10.291  0.2566 -0.0400 -0.0572
  545MOL0     C73507   4.725   6.068  10.232 -0.2559 -0.0710  0.2261
  545MOL0     H73508   4.403   5.910   9.944 -0.2623  0.0516 -0.8086
  545MOL0     H73509   4.193   5.907   9.813 -0.4994  1.4662 -0.8673
  545MOL0     H73510   4.014   6.140   9.746 -0.5954  0.5819  1.1763
  545MOL0     H73511   3.995   5.963   9.724 -1.8511 -0.2079 -1.2930
  545MOL0     H73512   3.754   5.972   9.762 -2.2272  0.5308 -2.3389
  545MOL0     H73513   3.759   6.148   9.770 -1.7260 -1.5589 -0.8362
  545MOL0     H73514   3.879   6.143   9.545  1.6510 -1.7048 -0.6664
  545MOL0     H73515   3.831   5.977   9.525  0.5511 -0.9334  1.9626
  545MOL0     H73516   3.645   6.226   9.586 -1.7591 -1.0029  0.0124
  545MOL0     H73517   3.688   6.169   9.419 -0.2554  5.0530  0.7355
  545MOL0     H73518   3.588   5.966   9.485  2.0239  0.5270  0.7107
  545MOL0     H73519   3.559   6.018   9.651 -2.0027  2.0314  0.5012
  545MOL0     H73520   3.413   6.180   9.596  0.1890  0.2748  0.1395
  545MOL0     H73521   3.424   6.166   9.420  3.0433  0.6638 -0.9503
  545MOL0     H73522   3.337   5.927   9.442 -2.7002 -0.4581 -1.0914
  545MOL0     H73523   3.310   5.967   9.609 -1.2662 -1.6655 -0.8346
  545MOL0     H73524   3.194   6.102   9.348 -0.9558  1.8037  0.4630
  545MOL0     H73525   3.176   6.176   9.515  2.5158  1.3738 -0.3326
  545MOL0     H73526   3.091   5.836   9.333  2.2067  1.8957  1.4789
  545MOL0     H73527   2.953   5.629   9.531  3.2734  0.4297 -2.6849
  545MOL0     H73528   2.794   5.682   9.541 -1.8250  0.3065 -3.5681
  545MOL0     H73529   2.810   5.531   9.343  0.6421 -1.5523  2.0986
  545MOL0     H73530   2.959   5.624   9.284  0.6616  1.2474  0.9426
  545MOL0     H73531   2.804   5.679   9.142  2.1171  0.1854 -0.6383
  545MOL0     H73532   2.851   5.819   9.238 -1.6284  2.2363  3.4555
  545MOL0     H73533   2.617   5.825   9.213  1.2243 -0.0162 -0.4313
  545MOL0     H73534   2.655   5.781   9.388  2.4602  1.2621 -0.0318
  545MOL0     H73535   2.425   5.849   9.369 -1.0720  0.5633 -0.5664
  545MOL0     H73536   2.125   5.861   9.561  0.3082  1.0974 -0.2773
  545MOL0     H73537   2.283   5.926   9.534 -0.5192  0.9388  0.8652
  545MOL0     H73538   2.163   5.949   9.411 -2.4031  0.4937  1.0248
  545MOL0     H73539   1.798   5.353   9.275  1.1847  0.5447 -0.9040
  545MOL0     H73540   1.600   5.223   9.405  1.2854 -0.4156 -1.3807
  545MOL0     H73541   1.553   5.269   9.869 -0.1239 -0.8711 -0.4939
  545MOL0     H73542   1.547   5.428   9.782  1.7479 -0.4528  1.1804
  545MOL0     H73543   1.328   5.227   9.829  0.9990 -2.9200 -4.8192
  545MOL0     H73544   1.313   5.390   9.855  1.0968  1.2574 -1.2982
  545MOL0     H73545   1.339   5.276   9.580  0.8967 -0.3812  0.5771
  545MOL0     H73546   1.306   5.456   9.613 -2.7700 -0.0297  0.7526
  545MOL0     H73547   1.134   5.230   9.680  0.8295 -0.8917 -1.1644
  545MOL0     H73548   1.109   5.398   9.729 -0.3916 -0.9663 -0.4000
  545MOL0     H73549   1.133   5.299   9.430  2.2414  1.1428  0.1520
  545MOL0     H73550   1.068   5.449   9.498  1.4773 -0.5140  2.1456
  545MOL0     H73551   0.927   5.199   9.554  0.9871 -0.2046 -2.6420
  545MOL0     H73552   0.885   5.352   9.625 -0.2600 -0.1214  0.5523
  545MOL0     H73553   0.851   5.286   9.322 -2.0193  0.4484 -1.9181
  545MOL0     H73554   0.824   5.443   9.404  1.4297  0.4570 -0.1639
  545MOL0     H73555   0.693   5.185   9.516  1.0666 -0.0910  0.9210
  545MOL0     H73556   0.625   5.282   9.378 -0.0841 -1.6832 -0.2080
  545MOL0     H73557   1.760   5.412   9.763  1.6558  0.7478  0.2812
  545MOL0     H73558   1.910   5.530   9.645  3.6157 -0.7926 -1.3031
  545MOL0     H73559   2.181   5.425   9.301 -0.6780 -0.4951  1.7473
  545MOL0     H73560   2.415   5.444   9.228  0.9397 -1.3492  2.4559
  545MOL0     H73561   4.010   6.152  10.124 -0.9585 -0.8470 -0.3420
  545MOL0     H73562   4.221   6.175  10.233  2.7961  0.6497 -0.0736
  545MOL0     H73563   4.593   6.346  10.372  1.1808  2.8728 -1.0373
  545MOL0     H73564   4.824   6.370  10.452  1.6548  0.6672 -1.8323
  545MOL0     H73565   5.141   6.058  10.319 -2.1286  1.6652 -1.8850
  545MOL0     H73566   5.225   6.174  10.415  1.0762 -0.6559  2.1779
  545MOL0     H73567   5.038   5.954  10.517  0.1062  0.1281 -1.0475
  545MOL0     H73568   5.107   6.084  10.624 -1.9585  0.1295 -0.2496
  545MOL0     H73569   5.332   6.000  10.504  0.7461 -1.2410 -1.3002
  545MOL0     H73570   5.249   5.864  10.450 -0.1029 -2.0704  0.9620
  545MOL0     H73571   5.178   5.809  10.687 -2.1129  0.8850 -1.4583
  545MOL0     H73572   5.282   5.943  10.747  1.9432  0.0649 -0.8323
  545MOL0     H73573   5.576   5.662  10.664 -0.6086  0.6750  2.2979
  545MOL0     H73574   4.932   6.008  10.275  0.5353  0.2145  0.0840
  545MOL0     H73575   4.704   5.988  10.162 -2.5610  0.7647 -0.1310
  546MOL0     O73576  10.511   9.468   6.277 -0.1577 -0.3738  0.4915
  546MOL0     C73577  10.524   9.470   6.154 -0.1463  0.1523  0.0056
  546MOL0     O73578  10.422   9.442   6.066 -0.3056 -0.4872  0.2577
  546MOL0     C73579  10.308   9.382   6.108  0.5699 -0.7536  0.0070
  546MOL0     C73580  10.194   9.421   6.036  0.2154 -0.4255 -0.3252
  546MOL0     C73581  10.076   9.347   6.035 -0.2442 -0.6081  0.7507
  546MOL0     C73582  10.064   9.249   6.129  0.6416 -0.0852  0.4794
  546MOL0     O73583   9.946   9.174   6.142  0.4528 -0.5557 -0.1854
  546MOL0     C73584   9.961   9.028   6.151  0.9837 -0.9395 -0.2518
  546MOL0     C73585   9.840   8.951   6.095  0.4789  0.1945 -0.4461
  546MOL0     C73586   9.724   8.956   6.188 -0.2417  0.4259 -0.2423
  546MOL0     C73587   9.630   8.856   6.133  0.3622  0.7667 -0.5029
  546MOL0     C73588   9.492   8.863   6.205 -0.1983 -0.5514 -0.0039
  546MOL0     C73589   9.396   8.744   6.176 -0.1916  0.9903 -0.3075
  546MOL0     C73590   9.254   8.762   6.228 -0.1655 -0.1926  0.1258
  546MOL0     C73591   9.169   8.640   6.178 -0.4995 -0.9468  0.0568
  546MOL0     N73592   9.047   8.645   6.253  0.3404  0.1896  0.2972
  546MOL0     C73593   8.933   8.717   6.221 -0.2843 -0.0361 -0.0039
  546MOL0     C73594   8.846   8.680   6.323  0.6367 -0.0631 -0.4408
  546MOL0     C73595   8.706   8.740   6.315  0.7450  0.1878  0.4523
  546MOL0     C73596   8.607   8.630   6.268  0.3886 -0.2801  0.5385
  546MOL0     C73597   8.624   8.604   6.114  0.2332 -0.7426 -0.0212
  546MOL0     C73598   8.492   8.565   6.055 -0.0558 -0.3958  0.1909
  546MOL0     O73599   8.381   8.646   6.093  0.2465 -0.6200 -0.5361
  546MOL0     C73600   8.261   8.578   6.113  0.6143 -0.0614 -1.0204
  546MOL0     C73601   8.214   8.474   6.030 -0.1575 -0.2802 -0.4607
  546MOL0     C73602   8.077   8.429   6.035 -0.5059  0.4383 -0.0221
  546MOL0     C73603   8.028   8.340   5.924 -0.8788 -0.1093 -0.2766
  546MOL0     C73604   8.000   8.454   6.154 -0.6595 -0.2808 -0.1204
  546MOL0     C73605   7.864   8.396   6.184  0.2498  0.4956  0.1514
  546MOL0     O73606   7.822   8.301   6.106  0.2386 -0.0779  0.1264
  546MOL0     C73607   7.703   8.244   6.127  0.1308 -0.5171  0.4973
  546MOL0     C73608   7.684   8.134   6.209 -0.6341 -0.5609  0.3733
  546MOL0     C73609   7.545   8.091   6.234  0.0100 -0.8215 -0.3703
  546MOL0     C73610   7.438   8.161   6.181 -0.4156 -0.0527 -0.5032
  546MOL0     O73611   7.313   8.118   6.230 -0.2901  0.2597  0.3404
  546MOL0     C73612   7.220   8.227   6.260 -0.3952 -0.3283 -0.2473
  546MOL0     C73613   7.088   8.177   6.304  0.2621  0.7327  0.4498
  546MOL0     C73614   6.975   8.203   6.208 -0.5870  0.0943  1.0258
  546MOL0     C73615   6.851   8.188   6.285  0.2648 -0.5128  0.5745
  546MOL0     C73616   6.723   8.159   6.209 -0.7163  0.1706 -0.0320
  546MOL0     C73617   6.606   8.178   6.302  0.0219 -0.1655  0.3152
  546MOL0     C73618   6.464   8.168   6.228  0.0836  0.2884  0.5813
  546MOL0     C73619   6.348   8.148   6.328 -1.3791  0.5583  0.0282
  546MOL0    Cl73620   6.325   8.278   6.456  0.2299  0.3253  0.1790
  546MOL0     C73621   7.461   8.262   6.085 -0.6981 -1.1923  0.2546
  546MOL0     C73622   7.594   8.308   6.067  0.1816 -0.2828  0.1187
  546MOL0     O73623   7.799   8.446   6.269  0.5106 -0.2924 -0.0977
  546MOL0     C73624   8.057   8.548   6.244  0.6532 -0.2523 -0.1135
  546MOL0     C73625   8.177   8.617   6.217 -0.6341 -0.2099  0.3483
  546MOL0     N73626   8.903   8.589   6.413  0.2662 -0.0656  0.0854
  546MOL0     N73627   9.024   8.577   6.369 -0.3208 -0.3187 -0.3155
  546MOL0     C73628  10.172   9.214   6.217 -0.2637  0.2190 -0.9272
  546MOL0     C73629  10.296   9.274   6.194 -0.0463 -0.4629  1.3593
  546MOL0     C73630  10.655   9.517   6.102 -0.0708 -0.7703 -0.2628
  546MOL0     C73631  10.759   9.547   6.191  1.4337  0.0494  1.0140
  546MOL0     C73632  10.879   9.593   6.153 -0.7169 -0.0572 -0.6684
  546MOL0     C73633  10.905   9.588   6.018  0.0648  0.0181 -0.0406
  546MOL0     O73634  11.030   9.630   5.977 -0.6646  0.0126 -0.2871
  546MOL0     C73635  11.142   9.551   6.026  0.3885  0.5204 -0.5427
  546MOL0     C73636  11.227   9.624   6.125  0.0341  0.5297 -0.1956
  546MOL0     C73637  11.384   9.633   6.114 -0.0894 -0.6547 -0.3478
  546MOL0     C73638  11.452   9.492   6.133  0.0929  0.0475  0.2485
  546MOL0     C73639  11.476   9.462   6.267 -0.3626 -0.0006 -0.1909
  546MOL0     C73640  11.492   9.442   6.389 -0.0415 -0.5589 -0.9422
  546MOL0     C73641  10.805   9.560   5.922 -0.4601  0.0820  0.4387
  546MOL0     C73642  10.681   9.526   5.969  0.2499 -0.2902 -0.4013
  546MOL0     H73643  10.220   9.496   5.962  4.0865 -2.6311 -1.4438
  546MOL0     H73644   9.999   9.359   5.960 -0.8816  0.2077  1.5269
  546MOL0     H73645  10.046   8.990   6.095 -0.3012 -3.6563 -0.4963
  546MOL0     H73646   9.970   8.997   6.256 -2.2438 -2.4541 -0.2828
  546MOL0     H73647   9.807   8.985   5.996  0.2558  0.2934 -0.3385
  546MOL0     H73648   9.865   8.846   6.080  0.2528  0.0747  0.0170
  546MOL0     H73649   9.758   8.926   6.288  1.0312  0.3949 -0.6655
  546MOL0     H73650   9.686   9.058   6.189  0.9493  0.8737  0.7416
  546MOL0     H73651   9.612   8.864   6.025 -1.1267 -1.7499 -0.5040
  546MOL0     H73652   9.672   8.758   6.157 -2.2789 -0.0830  1.0919
  546MOL0     H73653   9.517   8.863   6.311  0.4412 -1.3028 -0.1484
  546MOL0     H73654   9.460   8.966   6.186  2.6574  0.0631 -2.1597
  546MOL0     H73655   9.407   8.726   6.068  1.1081 -1.3811  0.1564
  546MOL0     H73656   9.438   8.654   6.220 -0.6917  0.7923 -0.2406
  546MOL0     H73657   9.261   8.762   6.337  2.5858 -1.7069  0.0319
  546MOL0     H73658   9.214   8.860   6.199  0.6055  1.0744  3.0301
  546MOL0     H73659   9.223   8.546   6.196  0.8046 -0.1317  0.5492
  546MOL0     H73660   9.147   8.652   6.072  0.1490 -0.1580  0.0040
  546MOL0     H73661   8.912   8.802   6.157 -1.9394  1.8354  2.8149
  546MOL0     H73662   8.666   8.763   6.414 -0.6610  0.9589 -0.2603
  546MOL0     H73663   8.698   8.825   6.246  0.6196  0.0906  0.3458
  546MOL0     H73664   8.505   8.664   6.287  0.6517  0.8058  0.0418
  546MOL0     H73665   8.642   8.540   6.320  1.4567 -0.9026 -1.1810
  546MOL0     H73666   8.703   8.529   6.104 -0.2193 -1.1568 -0.6002
  546MOL0     H73667   8.666   8.690   6.062 -1.8931  1.0727  1.0826
  546MOL0     H73668   8.472   8.458   6.069 -3.2154 -0.0728 -1.0613
  546MOL0     H73669   8.494   8.583   5.947 -0.4053  3.2071  0.6523
  546MOL0     H73670   8.283   8.440   5.953 -0.5205  1.7343 -1.7575
  546MOL0     H73671   7.931   8.382   5.892 -2.2689 -1.9411  1.3152
  546MOL0     H73672   8.101   8.337   5.842  0.8649 -0.6857  1.2462
  546MOL0     H73673   8.012   8.233   5.940 -2.9414  0.2644  0.4385
  546MOL0     H73674   7.768   8.085   6.257  0.6475  0.2393 -0.9615
  546MOL0     H73675   7.526   8.004   6.296  1.0824 -1.1483 -0.4847
  546MOL0     H73676   7.257   8.297   6.337 -1.2289  1.0897 -1.0849
  546MOL0     H73677   7.205   8.292   6.173  2.1920 -1.7635 -1.9165
  546MOL0     H73678   7.084   8.069   6.324 -2.1967  0.5852 -0.4906
  546MOL0     H73679   7.072   8.232   6.397  2.1518  0.6804  0.8528
  546MOL0     H73680   6.990   8.130   6.129  0.9079  1.1042  0.3288
  546MOL0     H73681   6.977   8.301   6.161 -0.3885 -1.0522 -1.4833
  546MOL0     H73682   6.868   8.102   6.349  2.4692  1.1045  2.3468
  546MOL0     H73683   6.833   8.275   6.349 -0.9796 -0.6240  0.3986
  546MOL0     H73684   6.740   8.060   6.167 -2.9224  0.7259 -2.5276
  546MOL0     H73685   6.705   8.231   6.129  0.3014  1.0667  0.5022
  546MOL0     H73686   6.600   8.100   6.378  0.4831 -1.4779 -0.9360
  546MOL0     H73687   6.617   8.273   6.356  2.4524 -0.0900 -0.2008
  546MOL0     H73688   6.461   8.086   6.156 -0.7480  1.6843 -1.0525
  546MOL0     H73689   6.441   8.250   6.159  0.5199  0.2350  0.3682
  546MOL0     H73690   6.358   8.049   6.373  0.9285  1.4542  1.6425
  546MOL0     H73691   6.256   8.138   6.268 -0.8045 -0.3981 -0.7301
  546MOL0     H73692   7.386   8.292   6.013  0.5676 -1.6111 -1.2853
  546MOL0     H73693   7.618   8.397   6.010  1.3419 -0.6703 -0.0347
  546MOL0     H73694   8.007   8.564   6.339 -1.0539  1.4279 -1.2076
  546MOL0     H73695   8.209   8.700   6.279  4.3998 -1.5062 -0.0357
  546MOL0     H73696  10.165   9.131   6.287  0.6928  0.2516 -0.7792
  546MOL0     H73697  10.376   9.224   6.247 -1.2950 -3.1712  0.8695
  546MOL0     H73698  10.744   9.537   6.298  2.7154  1.3349  1.3453
  546MOL0     H73699  10.965   9.621   6.213 -0.4066  1.3846 -1.7318
  546MOL0     H73700  11.106   9.466   6.085 -1.8943  1.7861  0.0313
  546MOL0     H73701  11.204   9.502   5.950 -0.3298 -0.9119 -0.2602
  546MOL0     H73702  11.209   9.604   6.231  1.9204  0.4687  0.1519
  546MOL0     H73703  11.197   9.729   6.114 -0.9755  0.2738 -0.0063
  546MOL0     H73704  11.415   9.710   6.185  2.7755 -0.2115 -1.9274
  546MOL0     H73705  11.408   9.677   6.016 -0.1422 -0.3639 -0.2319
  546MOL0     H73706  11.543   9.487   6.072  2.1338 -0.5556  3.1246
  546MOL0     H73707  11.384   9.416   6.093  2.3013 -2.9136  1.7222
  546MOL0     H73708  11.505   9.423   6.493 -0.4886 -0.2409 -0.8271
  546MOL0     H73709  10.836   9.564   5.818 -0.4342  4.1040  0.4395
  546MOL0     H73710  10.595   9.519   5.904 -2.9333  2.3106  3.0818
  547MOL0     O73711   4.620   1.950   2.255 -0.7228  0.2000 -0.2550
  547MOL0     C73712   4.705   2.042   2.237  0.0229 -0.2004 -0.3297
  547MOL0     O73713   4.672   2.177   2.214 -0.0788 -0.4299  0.8365
  547MOL0     C73714   4.546   2.221   2.205  0.8633  0.2361  0.5400
  547MOL0     C73715   4.435   2.158   2.141 -0.3571  0.1181  0.3519
  547MOL0     C73716   4.312   2.227   2.126 -0.2023 -0.2252  0.2893
  547MOL0     C73717   4.310   2.358   2.185 -0.0612  0.9142  0.0862
  547MOL0     O73718   4.192   2.423   2.192  0.2243  0.6311 -0.1980
  547MOL0     C73719   4.111   2.428   2.074  0.4005  0.4892  0.6046
  547MOL0     C73720   4.064   2.579   2.055 -0.1862  0.2435 -0.0727
  547MOL0     C73721   3.982   2.619   2.175  0.0477 -0.1491  0.1833
  547MOL0     C73722   3.867   2.714   2.141 -0.1883 -0.4754 -0.5387
  547MOL0     C73723   3.770   2.744   2.258  0.1408 -0.4655  0.5143
  547MOL0     C73724   3.635   2.813   2.206 -0.1542  0.4053 -0.3644
  547MOL0     C73725   3.524   2.804   2.314  0.2797 -0.5091  0.1563
  547MOL0     C73726   3.409   2.905   2.271 -0.8233  0.2527 -1.2438
  547MOL0     N73727   3.298   2.893   2.366  0.6248 -0.6937 -0.0497
  547MOL0     C73728   3.211   2.786   2.379  0.4134 -0.3713  0.5024
  547MOL0     C73729   3.131   2.825   2.487 -0.0011  0.5359 -0.6118
  547MOL0     C73730   3.019   2.743   2.551 -0.8229 -0.8801 -0.0626
  547MOL0     C73731   3.067   2.597   2.588  0.4703 -0.6365  0.6270
  547MOL0     C73732   2.985   2.509   2.682  0.0978 -0.4844 -0.1727
  547MOL0     C73733   2.840   2.510   2.629  0.1142  0.4433  0.2818
  547MOL0     O73734   2.781   2.390   2.673 -0.0994  0.4572  0.5316
  547MOL0     C73735   2.643   2.404   2.662 -0.2777  0.1659 -0.6139
  547MOL0     C73736   2.577   2.422   2.788 -0.9830 -0.4366  0.0303
  547MOL0     C73737   2.440   2.424   2.795 -0.4970 -0.1156  0.0096
  547MOL0     C73738   2.382   2.460   2.933  0.3108  0.7516 -0.2454
  547MOL0     C73739   2.366   2.396   2.682  1.2687 -0.0507  0.8740
  547MOL0     C73740   2.217   2.379   2.690 -0.7076 -0.5905 -0.9067
  547MOL0     O73741   2.167   2.267   2.628  0.3970  0.4533  0.0205
  547MOL0     C73742   2.035   2.249   2.630  0.4281  0.4246  0.5176
  547MOL0     C73743   1.964   2.311   2.531  0.0881  0.4714 -0.3626
  547MOL0     C73744   1.832   2.283   2.498 -0.3700  0.1721 -1.2017
  547MOL0     C73745   1.760   2.205   2.581 -0.4150  0.6318 -0.1216
  547MOL0     O73746   1.621   2.205   2.563 -0.5321 -0.0305 -1.1393
  547MOL0     C73747   1.546   2.206   2.685 -0.6505  1.3350  0.3601
  547MOL0     C73748   1.397   2.200   2.642 -0.4420 -0.6186  0.3703
  547MOL0     C73749   1.317   2.253   2.757  0.4757 -0.3139  0.1435
  547MOL0     C73750   1.167   2.233   2.733  0.3361  0.1867 -0.1862
  547MOL0     C73751   1.091   2.293   2.858 -0.0908  1.0390 -0.1594
  547MOL0     C73752   1.104   2.200   2.989 -0.5427  1.0962  0.4089
  547MOL0     C73753   1.014   2.239   3.104  0.2811 -0.0093  0.3267
  547MOL0     C73754   0.992   2.134   3.208  0.2202  0.3806 -0.6322
  547MOL0    Cl73755   1.127   2.105   3.329 -0.0679 -0.7596  0.1199
  547MOL0     C73756   1.825   2.152   2.698 -0.6159  0.2696  0.5562
  547MOL0     C73757   1.961   2.169   2.717  1.2444 -0.1578 -0.2966
  547MOL0     O73758   2.153   2.471   2.738 -0.2617 -0.4183 -0.8048
  547MOL0     C73759   2.429   2.369   2.559  1.2279  0.1197 -0.4829
  547MOL0     C73760   2.570   2.365   2.551  0.3277 -0.0757 -0.1518
  547MOL0     N73761   3.167   2.956   2.521 -0.4256 -0.0402  0.0403
  547MOL0     N73762   3.269   2.983   2.463 -0.4885 -0.3583  0.3065
  547MOL0     C73763   4.419   2.418   2.254 -0.6870 -0.2596 -0.3638
  547MOL0     C73764   4.537   2.345   2.265 -0.3312 -0.4593  0.9125
  547MOL0     C73765   4.850   2.018   2.256  0.0935 -0.5040  0.5760
  547MOL0     C73766   4.897   1.891   2.274  0.8813 -0.3753 -0.7483
  547MOL0     C73767   5.035   1.859   2.277  0.5786  0.9912 -1.0684
  547MOL0     C73768   5.121   1.968   2.265 -0.1535 -0.0790  0.6045
  547MOL0     O73769   5.256   1.947   2.280 -0.2880  0.1969  0.0396
  547MOL0     C73770   5.302   1.983   2.407 -0.2880  0.3393 -0.8367
  547MOL0     C73771   5.446   1.959   2.429  0.4723  0.5609 -0.8079
  547MOL0     C73772   5.494   1.808   2.404  0.7494  0.8825  1.1928
  547MOL0     C73773   5.642   1.800   2.371 -0.1635  0.2341  0.0346
  547MOL0     C73774   5.735   1.874   2.467  0.9414  0.7247 -0.3666
  547MOL0     C73775   5.792   1.918   2.567  0.0849  0.1266  0.2187
  547MOL0     C73776   5.077   2.102   2.255 -0.3188  0.2488  0.4692
  547MOL0     C73777   4.939   2.128   2.248 -0.4015 -0.2019 -0.2959
  547MOL0     H73778   4.449   2.065   2.088 -1.5963 -0.2968  0.7106
  547MOL0     H73779   4.230   2.181   2.072 -0.2281 -0.2459  0.3456
  547MOL0     H73780   4.152   2.386   1.981 -0.4573  1.0657 -0.0493
  547MOL0     H73781   4.021   2.370   2.097 -0.1323 -0.6809 -3.6304
  547MOL0     H73782   4.145   2.652   2.046 -1.1021  1.1799 -0.9392
  547MOL0     H73783   4.005   2.585   1.963 -1.3988 -0.6445  0.6124
  547MOL0     H73784   3.940   2.537   2.233 -0.8582  0.7170  0.7896
  547MOL0     H73785   4.043   2.680   2.243  1.2445 -0.4537 -0.5802
  547MOL0     H73786   3.908   2.811   2.110  0.8977 -0.3608  1.1077
  547MOL0     H73787   3.813   2.671   2.057  1.8525 -0.6716 -1.8080
  547MOL0     H73788   3.739   2.660   2.320 -0.7895 -0.0451  0.6255
  547MOL0     H73789   3.818   2.818   2.323 -2.0591  0.1737  1.5047
  547MOL0     H73790   3.653   2.921   2.199 -0.6533  0.4355 -1.3129
  547MOL0     H73791   3.608   2.772   2.108 -1.7046  1.7234 -0.5349
  547MOL0     H73792   3.484   2.702   2.318 -2.3242  0.4263 -0.3739
  547MOL0     H73793   3.559   2.826   2.415 -1.1519  2.5386  0.0718
  547MOL0     H73794   3.381   2.881   2.168  1.4344 -0.2268 -1.7935
  547MOL0     H73795   3.457   3.003   2.274  2.8992 -1.4417  0.0115
  547MOL0     H73796   3.208   2.688   2.332 -0.9586 -0.2374  0.2973
  547MOL0     H73797   2.981   2.802   2.635 -0.9809  0.5575 -1.1064
  547MOL0     H73798   2.932   2.742   2.484 -0.2621  2.3212 -1.0207
  547MOL0     H73799   3.167   2.602   2.632  0.8661 -0.5228 -0.2627
  547MOL0     H73800   3.084   2.554   2.489  2.6169 -0.6543  0.9626
  547MOL0     H73801   2.988   2.552   2.783  2.6330  0.5600 -0.6036
  547MOL0     H73802   3.033   2.411   2.684  0.6881 -0.2451 -1.3995
  547MOL0     H73803   2.844   2.509   2.520  1.0678  1.4708  0.2819
  547MOL0     H73804   2.792   2.604   2.659 -0.5964 -0.0283  0.6552
  547MOL0     H73805   2.640   2.446   2.873 -2.5206  1.6342  0.6949
  547MOL0     H73806   2.375   2.569   2.936  0.0787  0.7033  1.1978
  547MOL0     H73807   2.285   2.410   2.935  1.6781 -2.0883  0.3881
  547MOL0     H73808   2.445   2.427   3.017  3.2697 -2.7626 -3.4259
  547MOL0     H73809   2.035   2.355   2.462  2.3488  0.5191  1.8613
  547MOL0     H73810   1.788   2.313   2.403 -2.3997 -0.8541 -0.6378
  547MOL0     H73811   1.557   2.115   2.745  0.2625  2.0809  1.3648
  547MOL0     H73812   1.567   2.294   2.746  1.6819  1.4025 -0.4574
  547MOL0     H73813   1.371   2.250   2.548  0.2068 -0.5138  0.2457
  547MOL0     H73814   1.378   2.092   2.642  1.4049 -1.0681  3.6084
  547MOL0     H73815   1.340   2.356   2.785 -0.2245 -0.5189  1.5364
  547MOL0     H73816   1.352   2.202   2.847  3.2948  0.0249 -0.6804
  547MOL0     H73817   1.134   2.285   2.642  1.2922  1.1912  0.0326
  547MOL0     H73818   1.131   2.130   2.725 -0.3004  0.3221  0.7435
  547MOL0     H73819   0.984   2.296   2.832 -0.3302 -2.2456  0.0108
  547MOL0     H73820   1.125   2.393   2.885 -1.7304  1.2466  1.3400
  547MOL0     H73821   1.082   2.098   2.957 -1.0961  1.1649  0.5584
  547MOL0     H73822   1.205   2.208   3.030 -0.7024  1.0985  0.8026
  547MOL0     H73823   0.916   2.253   3.058 -0.0664 -1.8217  0.4438
  547MOL0     H73824   1.053   2.332   3.146  0.2633  0.4389 -0.6098
  547MOL0     H73825   0.967   2.045   3.149 -2.3058 -1.4853  2.8713
  547MOL0     H73826   0.903   2.166   3.263  1.0481  1.0036  0.4041
  547MOL0     H73827   1.771   2.105   2.780 -0.3574  0.0403  0.5952
  547MOL0     H73828   2.020   2.124   2.796  0.1646  0.7136  1.0475
  547MOL0     H73829   2.372   2.354   2.467  1.2852 -0.2451 -0.4612
  547MOL0     H73830   2.614   2.342   2.455 -3.0947 -0.5459 -1.7767
  547MOL0     H73831   4.408   2.521   2.288 -1.3513 -0.2091 -0.7010
  547MOL0     H73832   4.622   2.400   2.304 -0.0542 -0.2740  0.0782
  547MOL0     H73833   4.831   1.805   2.280 -1.7615  1.6120  0.3958
  547MOL0     H73834   5.077   1.760   2.289  1.4988  1.4389 -0.4868
  547MOL0     H73835   5.286   2.092   2.407 -3.3517 -0.0329 -0.1033
  547MOL0     H73836   5.242   1.946   2.491  0.2388  0.2910 -0.4707
  547MOL0     H73837   5.466   1.988   2.533  0.5427  0.5985 -0.8322
  547MOL0     H73838   5.498   2.034   2.370 -1.6532  1.8937 -1.1074
  547MOL0     H73839   5.443   1.770   2.315 -0.5227  2.6618  1.1018
  547MOL0     H73840   5.459   1.744   2.485 -0.7453 -2.2287 -1.6621
  547MOL0     H73841   5.664   1.836   2.270  1.7606 -2.3682 -0.5846
  547MOL0     H73842   5.674   1.696   2.379 -2.5588 -0.4966  1.0143
  547MOL0     H73843   5.840   1.960   2.653 -0.8471  0.1086  0.7714
  547MOL0     H73844   5.145   2.187   2.260 -1.3554  1.1032  0.4553
  547MOL0     H73845   4.923   2.234   2.231 -3.3408 -0.2223  1.5245
  548MOL0     O73846  10.824   0.692   0.624 -0.2658  0.1489 -0.6502
  548MOL0     C73847  10.820   0.571   0.624 -0.7546 -0.3150 -0.5022
  548MOL0     O73848  10.710   0.494   0.637 -0.3972  0.0756  0.2451
  548MOL0     C73849  10.580   0.541   0.620 -0.2163  0.1182 -0.2583
  548MOL0     C73850  10.477   0.479   0.693  0.0163  0.0698 -0.2607
  548MOL0     C73851  10.348   0.539   0.686  0.0800  0.6611  0.1375
  548MOL0     C73852  10.308   0.633   0.597 -0.3390 -0.0767 -0.4959
  548MOL0     O73853  10.188   0.698   0.586  0.1518 -0.1239  0.1832
  548MOL0     C73854  10.083   0.601   0.553 -0.3870 -0.0699  0.0777
  548MOL0     C73855   9.952   0.670   0.558  0.4617 -0.8581  0.0140
  548MOL0     C73856   9.903   0.712   0.702  0.3479 -0.1888  0.7758
  548MOL0     C73857   9.764   0.779   0.697 -0.2554 -0.0393  0.7648
  548MOL0     C73858   9.634   0.708   0.658 -0.5260 -0.9499 -0.1106
  548MOL0     C73859   9.630   0.561   0.701 -0.1938  0.4545 -1.0241
  548MOL0     C73860   9.493   0.498   0.699  0.0616  1.0056 -0.0968
  548MOL0     C73861   9.479   0.369   0.783  0.0673  0.8201  0.1336
  548MOL0     N73862   9.346   0.312   0.781  0.5104 -0.4128 -0.0648
  548MOL0     C73863   9.296   0.211   0.701 -0.1178 -0.0711  0.1371
  548MOL0     C73864   9.170   0.181   0.741  0.9208  0.5202  0.1016
  548MOL0     C73865   9.086   0.082   0.685 -0.5713  0.5127 -0.0150
  548MOL0     C73866   8.959   0.144   0.614 -0.4327 -0.6526 -0.4679
  548MOL0     C73867   8.898   0.050   0.508 -0.1468 -1.0398 -0.1333
  548MOL0     C73868   8.771   0.114   0.460 -1.7411 -0.0699 -0.6788
  548MOL0     O73869   8.718   0.039   0.358 -0.1306 -0.0957  1.1088
  548MOL0     C73870   8.584   0.021   0.348  0.6949 -0.1150 -0.0255
  548MOL0     C73871   8.552  -0.059   0.244  0.6934  0.1082  0.1955
  548MOL0     C73872   8.417  -0.101   0.213  0.9143  0.0772 -0.2599
  548MOL0     C73873   8.412  -0.200   0.104 -0.0234 -0.4147  0.0710
  548MOL0     C73874   8.311  -0.050   0.292  0.0848 -0.5869 -0.1082
  548MOL0     C73875   8.173  -0.074   0.253  0.4905 -0.8179  0.5260
  548MOL0     O73876   8.083  -0.028   0.344  0.4235  0.1752 -0.6515
  548MOL0     C73877   7.951  -0.031   0.312  0.4605  0.6224  0.2884
  548MOL0     C73878   7.894   0.016   0.190  0.2145 -0.0845  0.5326
  548MOL0     C73879   7.759   0.023   0.172  0.2834 -0.6288  0.8265
  548MOL0     C73880   7.668  -0.013   0.271  1.2713  0.7891 -0.5894
  548MOL0     O73881   7.530  -0.017   0.254 -0.3459 -0.2226 -0.3770
  548MOL0     C73882   7.473   0.055   0.147  0.2481 -0.3849  0.3150
  548MOL0     C73883   7.320   0.052   0.159 -0.0976  0.0121  0.3014
  548MOL0     C73884   7.265   0.075   0.305 -0.9029 -0.6168  0.7093
  548MOL0     C73885   7.114   0.092   0.310  0.8259  0.0266 -0.4900
  548MOL0     C73886   7.069   0.062   0.453  0.9339  0.1560 -0.4077
  548MOL0     C73887   6.921   0.077   0.456 -0.0938 -0.0006 -0.4484
  548MOL0     C73888   6.870   0.109   0.593  0.0484 -0.2218 -0.2154
  548MOL0     C73889   6.725   0.157   0.600 -0.2166 -0.3009 -0.1413
  548MOL0    Cl73890   6.694   0.190   0.771  0.0448  0.0928  0.1063
  548MOL0     C73891   7.723  -0.041   0.396 -0.9576 -0.5776  0.4338
  548MOL0     C73892   7.859  -0.049   0.412  0.3751  0.7960 -0.0275
  548MOL0     O73893   8.147  -0.136   0.149  0.9172 -0.3382  0.3268
  548MOL0     C73894   8.343   0.023   0.409  0.0108 -0.0946  1.0363
  548MOL0     C73895   8.474   0.067   0.429  0.4466  0.7116  0.2895
  548MOL0     N73896   9.140   0.274   0.841  0.0563  0.6642 -0.5363
  548MOL0     N73897   9.242   0.348   0.863  0.3300  0.5200  0.1654
  548MOL0     C73898  10.402   0.675   0.508  0.3234  0.3282  0.0946
  548MOL0     C73899  10.541   0.637   0.526  0.8851  0.3417 -0.0579
  548MOL0     C73900  10.936   0.490   0.579  0.2574 -0.5616  0.0048
  548MOL0     C73901  10.939   0.356   0.592 -1.5692  1.0388 -0.1176
  548MOL0     C73902  11.036   0.284   0.528 -0.0535  0.7900  0.3399
  548MOL0     C73903  11.146   0.344   0.466  0.1449  0.8326 -0.0710
  548MOL0     O73904  11.256   0.279   0.412  0.3395  0.7097  0.3251
  548MOL0     C73905  11.256   0.142   0.393  0.1264  0.3924 -0.4148
  548MOL0     C73906  11.351   0.113   0.276  0.2239  0.3676  0.2945
  548MOL0     C73907  11.492   0.147   0.313  0.3386 -0.0196  0.2436
  548MOL0     C73908  11.596   0.084   0.221  0.0287  0.1957  0.5528
  548MOL0     C73909  11.725   0.134   0.265 -1.0415  0.7594 -0.3591
  548MOL0     C73910  11.833   0.181   0.300 -0.2299  0.3690  0.1544
  548MOL0     C73911  11.147   0.487   0.451  0.4562 -0.4048  1.0004
  548MOL0     C73912  11.034   0.556   0.504  0.2982  0.6172 -0.2815
  548MOL0     H73913  10.508   0.407   0.768  0.5133  0.7570  0.2103
  548MOL0     H73914  10.267   0.489   0.738 -2.0369 -0.7787 -4.0392
  548MOL0     H73915  10.098   0.559   0.453  1.2030  0.7375 -0.0484
  548MOL0     H73916  10.077   0.528   0.635 -2.3292  2.0931  2.0068
  548MOL0     H73917   9.963   0.753   0.487 -1.6013 -0.8015 -0.2891
  548MOL0     H73918   9.870   0.610   0.518  0.4161 -1.9306  1.6594
  548MOL0     H73919   9.901   0.625   0.768  0.6047 -0.9778 -0.2282
  548MOL0     H73920   9.978   0.777   0.750 -1.5199  1.9928  0.9083
  548MOL0     H73921   9.740   0.813   0.798 -0.9057  0.0061  0.6005
  548MOL0     H73922   9.773   0.869   0.636 -2.0189  0.1151  0.6790
  548MOL0     H73923   9.549   0.766   0.697  1.1024  1.4096  0.1321
  548MOL0     H73924   9.620   0.709   0.550 -0.8852 -0.3678 -0.0595
  548MOL0     H73925   9.693   0.514   0.624  0.1600  0.8184 -0.9589
  548MOL0     H73926   9.675   0.546   0.799  0.7256 -0.0621 -1.5080
  548MOL0     H73927   9.421   0.564   0.749  0.9534  1.7418  0.2404
  548MOL0     H73928   9.456   0.502   0.596  0.0840  1.4439 -0.0909
  548MOL0     H73929   9.503   0.392   0.887  0.1191  1.9314 -0.1166
  548MOL0     H73930   9.548   0.293   0.745 -0.0691  1.1005 -0.7021
  548MOL0     H73931   9.352   0.161   0.622 -0.5789  1.7312 -1.4106
  548MOL0     H73932   9.145   0.030   0.609 -3.2417 -0.8227 -1.3375
  548MOL0     H73933   9.069   0.001   0.757  1.5734  0.5951  0.6459
  548MOL0     H73934   8.979   0.241   0.567 -1.4706  0.5399  1.4303
  548MOL0     H73935   8.898   0.164   0.703  1.0964  0.9113  0.2897
  548MOL0     H73936   8.880  -0.049   0.552 -0.8828 -0.5182  0.7663
  548MOL0     H73937   8.963   0.054   0.420  2.5109  2.1595  1.7528
  548MOL0     H73938   8.810   0.210   0.424  1.9017 -1.0721  0.1768
  548MOL0     H73939   8.702   0.120   0.544 -1.2160 -1.4324 -0.1182
  548MOL0     H73940   8.617  -0.083   0.161 -0.0604 -0.9550 -0.1143
  548MOL0     H73941   8.500  -0.266   0.102 -1.2839 -2.1694 -2.3136
  548MOL0     H73942   8.330  -0.272   0.119 -0.5343  0.5950  2.7063
  548MOL0     H73943   8.403  -0.137   0.015  0.6881  1.3685  1.2106
  548MOL0     H73944   7.954   0.044   0.104  0.0414  1.8866  0.9891
  548MOL0     H73945   7.712   0.054   0.079 -2.0709  0.5360  2.3053
  548MOL0     H73946   7.507   0.159   0.148  0.9736 -0.6151  0.2137
  548MOL0     H73947   7.491   0.016   0.046  0.6321 -0.5968  0.4638
  548MOL0     H73948   7.272   0.124   0.092 -0.6165 -0.8517 -0.2743
  548MOL0     H73949   7.283  -0.047   0.128  1.0863 -0.2663 -0.2818
  548MOL0     H73950   7.315   0.158   0.354  1.8220 -2.1291  0.7285
  548MOL0     H73951   7.307  -0.012   0.357  2.2575 -0.5561 -1.4104
  548MOL0     H73952   7.086   0.193   0.280  0.6439 -0.2926 -1.4419
  548MOL0     H73953   7.063   0.020   0.245  0.3407 -0.4924  0.4459
  548MOL0     H73954   7.111   0.142   0.513 -0.2946 -0.5368  1.4583
  548MOL0     H73955   7.112  -0.033   0.488 -0.3455  0.6105  2.7051
  548MOL0     H73956   6.893   0.173   0.411  0.9256  1.2004  1.3329
  548MOL0     H73957   6.866   0.002   0.398 -2.3413 -0.5761  2.2299
  548MOL0     H73958   6.931   0.186   0.642 -0.2690 -0.0965 -0.0184
  548MOL0     H73959   6.893   0.018   0.649 -0.2062  0.3769  0.8801
  548MOL0     H73960   6.662   0.078   0.558 -0.4616 -0.1309 -0.0962
  548MOL0     H73961   6.714   0.249   0.542 -0.3491  0.0476  0.4288
  548MOL0     H73962   7.654  -0.061   0.478  0.0053 -0.4125  1.2990
  548MOL0     H73963   7.892  -0.076   0.512  1.3939 -1.6889 -0.9523
  548MOL0     H73964   8.266   0.048   0.482 -1.4350  1.1083 -0.8209
  548MOL0     H73965   8.499   0.138   0.507  3.3447 -0.9221  1.0085
  548MOL0     H73966  10.372   0.740   0.427 -1.2906  1.0593  1.2340
  548MOL0     H73967  10.621   0.677   0.464  0.7012  0.3117 -0.3144
  548MOL0     H73968  10.866   0.313   0.661  1.8373 -0.2455  2.9857
  548MOL0     H73969  11.038   0.175   0.530  2.0093  0.7162 -1.5913
  548MOL0     H73970  11.275   0.093   0.489 -4.6237  2.4036  1.8800
  548MOL0     H73971  11.156   0.114   0.359 -0.4703  0.4326  1.2029
  548MOL0     H73972  11.332   0.170   0.184 -0.7909  1.1495  0.9747
  548MOL0     H73973  11.347   0.008   0.245 -1.6175  0.7533 -0.9324
  548MOL0     H73974  11.512   0.133   0.420 -1.1343  0.6192  0.6329
  548MOL0     H73975  11.501   0.254   0.294  0.1024 -0.0347  0.0491
  548MOL0     H73976  11.579   0.115   0.118  0.4597  0.9243  0.6948
  548MOL0     H73977  11.581  -0.024   0.225  3.5359 -0.4275 -0.1739
  548MOL0     H73978  11.930   0.222   0.320 -1.4765  2.7790  1.6551
  548MOL0     H73979  11.229   0.540   0.403 -0.3133 -1.7029 -2.0526
  548MOL0     H73980  11.040   0.662   0.484  3.2399  0.4292 -0.8712
  549MOL0     O73981   2.682   5.310   9.169 -0.3140  0.1174 -0.6124
  549MOL0     C73982   2.744   5.206   9.186  0.0253  0.5424 -1.1313
  549MOL0     O73983   2.689   5.079   9.226 -0.5079 -0.2471 -0.2054
  549MOL0     C73984   2.551   5.075   9.260  0.2695 -0.5481  0.3684
  549MOL0     C73985   2.486   4.955   9.221 -0.4133 -0.0038 -0.4117
  549MOL0     C73986   2.343   4.943   9.235 -0.7564 -0.1127 -0.6182
  549MOL0     C73987   2.279   5.056   9.296 -0.9566  0.3453 -0.5470
  549MOL0     O73988   2.150   5.061   9.334 -0.3703 -0.1970 -0.1953
  549MOL0     C73989   2.096   4.936   9.372 -0.3256  0.8152  0.2763
  549MOL0     C73990   1.966   4.951   9.445  0.5539 -0.5736  0.3472
  549MOL0     C73991   1.973   5.043   9.572 -0.0273  0.7027 -0.4051
  549MOL0     C73992   1.870   5.001   9.674  0.8406  0.1991  0.5005
  549MOL0     C73993   1.857   5.084   9.803  0.3736  0.8218  0.5055
  549MOL0     C73994   1.745   5.035   9.902 -0.6697  0.0725  0.7886
  549MOL0     C73995   1.757   5.118  10.025 -0.2379 -0.4709  0.1385
  549MOL0     C73996   1.663   5.053  10.128 -1.1290 -0.2406 -0.3745
  549MOL0     N73997   1.517   5.064  10.094 -0.4262 -1.1426  0.3952
  549MOL0     C73998   1.438   5.166  10.137 -0.4257 -0.4674 -0.4166
  549MOL0     C73999   1.319   5.134  10.088  0.1753 -0.0727 -0.4879
  549MOL0     C74000   1.192   5.221  10.097 -0.6527  0.5086  0.4424
  549MOL0     C74001   1.083   5.176  10.201  0.0235 -0.6594 -0.1467
  549MOL0     C74002   1.081   5.032  10.239 -0.6534 -0.7053  0.0452
  549MOL0     C74003   0.994   5.000  10.361 -0.0046  0.6939  0.1699
  549MOL0     O74004   0.870   5.068  10.355 -0.0823 -0.4215  0.6704
  549MOL0     C74005   0.743   5.016  10.385 -0.2951  0.1470 -0.9791
  549MOL0     C74006   0.634   5.105  10.384  0.3051  0.5402  0.4352
  549MOL0     C74007   0.507   5.057  10.416 -0.2283  0.5399 -0.8099
  549MOL0     C74008   0.395   5.158  10.421 -0.1743  0.5676  0.2762
  549MOL0     C74009   0.485   4.925  10.451 -0.7314  1.2658 -0.5559
  549MOL0     C74010   0.352   4.861  10.490  0.4117  0.1266 -0.0873
  549MOL0     O74011   0.242   4.941  10.511  0.3440 -0.0805  0.1465
  549MOL0     C74012   0.126   4.903  10.577  1.2872 -0.1662 -0.2765
  549MOL0     C74013   0.122   4.792  10.662  0.1133 -0.4108 -0.1281
  549MOL0     C74014   0.003   4.752  10.726 -0.5162 -0.5397 -0.5239
  549MOL0     C74015  -0.118   4.812  10.684 -0.0860  0.0216 -0.4995
  549MOL0     O74016  -0.220   4.760  10.749  0.9523  0.4675  0.6301
  549MOL0     C74017  -0.347   4.819  10.734  1.0360 -0.2007  0.1750
  549MOL0     C74018  -0.436   4.787  10.850  0.4272  0.3837  0.3224
  549MOL0     C74019  -0.415   4.877  10.966  0.0512 -0.3101  0.2305
  549MOL0     C74020  -0.284   4.858  11.042 -0.1661 -0.5702  0.6093
  549MOL0     C74021  -0.253   4.960  11.154 -0.1828 -0.3937  0.9170
  549MOL0     C74022  -0.329   4.941  11.283 -0.4277  0.6416  0.1211
  549MOL0     C74023  -0.238   4.861  11.389 -0.7867  0.8035 -0.3298
  549MOL0     C74024  -0.317   4.862  11.521  0.3068 -0.8975  0.5070
  549MOL0    Cl74025  -0.465   4.777  11.509  0.6680 -0.0304 -0.0460
  549MOL0     C74026  -0.118   4.922  10.601  0.9658  1.1216  0.5827
  549MOL0     C74027  -0.003   4.970  10.547 -1.1399  0.7233 -0.8593
  549MOL0     O74028   0.359   4.735  10.498 -0.2901 -0.3805  0.4548
  549MOL0     C74029   0.600   4.841  10.455  0.0316 -0.7330 -0.3260
  549MOL0     C74030   0.723   4.881  10.417 -0.0704 -0.1748 -0.5869
  549MOL0     N74031   1.323   5.007  10.021 -0.0734  0.0474 -0.3066
  549MOL0     N74032   1.442   4.978  10.026 -0.1839  0.0075  0.1672
  549MOL0     C74033   2.349   5.169   9.334  0.5021 -0.7870 -0.5577
  549MOL0     C74034   2.482   5.180   9.315  0.4881 -0.0772 -0.4400
  549MOL0     C74035   2.887   5.190   9.153 -0.0994 -0.9899 -0.3131
  549MOL0     C74036   2.955   5.068   9.136  0.6372  0.6325  0.7293
  549MOL0     C74037   3.090   5.066   9.122 -0.0644  0.1616 -0.7665
  549MOL0     C74038   3.167   5.188   9.112 -0.7588 -0.3024  0.4802
  549MOL0     O74039   3.300   5.180   9.065  0.0913 -0.3154  0.3059
  549MOL0     C74040   3.380   5.292   9.044  1.0401 -0.5847 -0.4354
  549MOL0     C74041   3.526   5.245   9.047  0.1104 -0.0393  1.0910
  549MOL0     C74042   3.629   5.355   9.018 -0.4267 -0.0622  0.0486
  549MOL0     C74043   3.772   5.298   9.052  1.3816  0.6275  0.0026
  549MOL0     C74044   3.870   5.408   9.030  0.9220  0.1909  0.1527
  549MOL0     C74045   3.948   5.488   8.999 -0.0152  0.1121 -0.4979
  549MOL0     C74046   3.103   5.312   9.119 -0.0195  0.1779 -0.0901
  549MOL0     C74047   2.973   5.306   9.158  0.6183  0.8034 -0.0883
  549MOL0     H74048   2.547   4.876   9.180  0.9740  0.4128  0.7458
  549MOL0     H74049   2.300   4.846   9.216  1.6808 -0.9460 -2.4183
  549MOL0     H74050   2.076   4.877   9.282 -0.1180  0.7306  0.2832
  549MOL0     H74051   2.167   4.881   9.434 -1.3003  0.0537  0.7351
  549MOL0     H74052   1.888   4.988   9.378 -0.3729 -3.6384 -0.4429
  549MOL0     H74053   1.930   4.851   9.472  3.4019 -2.6982 -2.8238
  549MOL0     H74054   2.072   5.044   9.619 -0.5919  1.3677  0.7924
  549MOL0     H74055   1.967   5.151   9.552 -2.7836  0.9265  1.1677
  549MOL0     H74056   1.772   4.989   9.627  0.3060  0.1049  1.6190
  549MOL0     H74057   1.902   4.901   9.704 -0.8178 -1.3402 -2.4629
  549MOL0     H74058   1.958   5.067   9.843  0.1791 -2.2788  0.0017
  549MOL0     H74059   1.847   5.187   9.770  0.6629  0.9592  0.8408
  549MOL0     H74060   1.647   5.051   9.856 -2.4498 -3.0116  3.0593
  549MOL0     H74061   1.752   4.925   9.905  1.0524  0.0691 -1.0175
  549MOL0     H74062   1.855   5.113  10.073 -0.8940 -0.7900  1.5053
  549MOL0     H74063   1.721   5.220  10.008 -3.1479 -1.0661  1.9980
  549MOL0     H74064   1.681   5.101  10.225  0.0796  0.3993 -0.9057
  549MOL0     H74065   1.683   4.945  10.129  2.3045  0.2845  0.8994
  549MOL0     H74066   1.471   5.257  10.186 -1.2775  0.4085 -1.4150
  549MOL0     H74067   1.223   5.326  10.096  2.3797 -0.3091 -0.2314
  549MOL0     H74068   1.155   5.209   9.995 -0.5778 -2.0331  0.6564
  549MOL0     H74069   0.986   5.211  10.164  0.0873  0.0860  0.3716
  549MOL0     H74070   1.108   5.236  10.289 -0.0259 -0.4586 -0.2694
  549MOL0     H74071   1.181   4.993  10.261 -0.7382 -0.5215  0.7638
  549MOL0     H74072   1.043   4.970  10.157  2.9089 -1.6154 -1.1101
  549MOL0     H74073   1.043   5.028  10.454 -1.1512  4.5566 -0.2141
  549MOL0     H74074   0.984   4.891  10.369  0.4533  0.6659  0.3547
  549MOL0     H74075   0.640   5.211  10.357  0.2479  0.2169 -0.9270
  549MOL0     H74076   0.332   5.126  10.337 -0.2768 -0.0541  0.5907
  549MOL0     H74077   0.332   5.149  10.510 -0.0237 -2.0117  0.1932
  549MOL0     H74078   0.435   5.256  10.393 -0.1975  0.1684 -1.2673
  549MOL0     H74079   0.214   4.743  10.691  1.4371  1.1858 -1.3730
  549MOL0     H74080  -0.011   4.673  10.800 -0.4737  1.1371  1.3587
  549MOL0     H74081  -0.335   4.928  10.739  0.1442 -0.1348  1.1284
  549MOL0     H74082  -0.387   4.780  10.640  1.6084  0.0867 -0.1954
  549MOL0     H74083  -0.540   4.809  10.823  0.5952  1.3468  0.4229
  549MOL0     H74084  -0.438   4.682  10.879  0.6477 -1.0271 -4.0777
  549MOL0     H74085  -0.488   4.856  11.045  0.1940 -1.5512  0.0448
  549MOL0     H74086  -0.449   4.977  10.934 -3.2051 -1.7086 -1.1908
  549MOL0     H74087  -0.276   4.756  11.080  0.0750 -0.1731  1.6641
  549MOL0     H74088  -0.205   4.860  10.967 -0.9967 -1.5383 -0.3164
  549MOL0     H74089  -0.275   5.060  11.116  1.3054  0.7439  2.8558
  549MOL0     H74090  -0.147   4.953  11.179 -0.5337 -0.6892  2.3906
  549MOL0     H74091  -0.347   5.035  11.335  1.8131  0.4075  1.4619
  549MOL0     H74092  -0.430   4.902  11.270 -1.3720  2.7622  0.7587
  549MOL0     H74093  -0.147   4.915  11.416 -0.3901 -0.8430  1.9462
  549MOL0     H74094  -0.220   4.764  11.343 -2.8665  0.7922 -1.2333
  549MOL0     H74095  -0.328   4.970  11.533 -0.2329 -0.7900 -0.7418
  549MOL0     H74096  -0.262   4.820  11.605  0.4778 -1.5810  0.0679
  549MOL0     H74097  -0.206   4.963  10.552 -0.0431  1.5169  2.6249
  549MOL0     H74098  -0.002   5.052  10.476  2.1367  0.9788 -0.6682
  549MOL0     H74099   0.585   4.739  10.487 -1.1680 -0.8998 -1.3161
  549MOL0     H74100   0.801   4.804  10.413  0.6048  0.5387 -1.9375
  549MOL0     H74101   2.300   5.256   9.376  1.9770 -0.5025  0.6702
  549MOL0     H74102   2.534   5.271   9.343 -0.1937  1.0291 -2.5202
  549MOL0     H74103   2.891   4.982   9.118 -1.0585  2.0653 -0.4426
  549MOL0     H74104   3.136   4.969   9.107 -2.9723 -1.5587  0.5098
  549MOL0     H74105   3.347   5.331   8.947 -1.9179 -1.8356 -0.0239
  549MOL0     H74106   3.362   5.373   9.116  0.2994  1.2087 -2.5093
  549MOL0     H74107   3.527   5.159   8.979  1.5952  1.0955 -0.4041
  549MOL0     H74108   3.562   5.216   9.146  2.9901 -0.7280 -0.0635
  549MOL0     H74109   3.603   5.439   9.084 -2.6239 -0.2852 -0.4400
  549MOL0     H74110   3.627   5.388   8.914 -3.2652 -1.0329 -0.3099
  549MOL0     H74111   3.792   5.210   8.990  1.3330  1.1087 -0.7007
  549MOL0     H74112   3.778   5.271   9.158  3.1860 -0.5707 -0.3692
  549MOL0     H74113   4.021   5.561   8.972  3.9885 -2.6953  1.6226
  549MOL0     H74114   3.145   5.410   9.098 -1.7621  1.1900  0.9172
  549MOL0     H74115   2.930   5.402   9.184 -0.7270 -0.4941  2.9169
  550MOL0     O74116   3.195   5.108   6.820 -0.2329  0.0821  0.3142
  550MOL0     C74117   3.225   5.048   6.922  0.4642 -0.6126 -0.0793
  550MOL0     O74118   3.138   4.989   7.012 -0.3362  0.3632  0.6592
  550MOL0     C74119   3.005   5.015   6.999 -1.0754  0.8082 -0.1676
  550MOL0     C74120   2.916   4.922   6.950 -0.3226  0.3318 -0.7662
  550MOL0     C74121   2.779   4.944   6.957  0.6857 -0.8907 -0.2583
  550MOL0     C74122   2.727   5.068   6.994  0.9489 -0.0375  0.2167
  550MOL0     O74123   2.594   5.082   6.996 -0.2735 -0.5313 -0.7381
  550MOL0     C74124   2.530   5.118   6.872  0.0612  0.3011 -0.2136
  550MOL0     C74125   2.396   5.047   6.863  0.1040  0.0738 -0.0033
  550MOL0     C74126   2.307   5.084   6.978 -0.0260 -0.2331 -0.7055
  550MOL0     C74127   2.162   5.121   6.951  0.3252  0.3208 -0.5110
  550MOL0     C74128   2.068   5.129   7.065 -0.6747 -0.4694 -0.0247
  550MOL0     C74129   1.929   5.095   7.024 -0.4566 -0.7475  0.1153
  550MOL0     C74130   1.810   5.141   7.114 -0.0576 -0.4643 -0.3233
  550MOL0     C74131   1.789   5.045   7.221  0.6045 -0.0202 -0.2729
  550MOL0     N74132   1.645   5.028   7.254 -0.3167  0.5989 -0.1930
  550MOL0     C74133   1.576   5.113   7.340  0.4667 -0.8434  0.3008
  550MOL0     C74134   1.452   5.059   7.346 -0.2286  0.1422  0.4930
  550MOL0     C74135   1.345   5.112   7.440  0.3014 -0.4490  0.4193
  550MOL0     C74136   1.250   5.009   7.502 -0.1642 -0.1946 -0.3000
  550MOL0     C74137   1.122   5.067   7.556 -0.1505 -0.8644 -0.5917
  550MOL0     C74138   1.030   4.956   7.611 -0.5143 -0.1028 -0.5365
  550MOL0     O74139   0.921   5.040   7.648  0.0189 -0.2034 -0.4317
  550MOL0     C74140   0.804   4.991   7.690  0.9599  0.9131 -0.2580
  550MOL0     C74141   0.761   4.858   7.676 -0.5164  0.0552  0.6121
  550MOL0     C74142   0.629   4.814   7.702 -0.2126  0.2624 -0.2504
  550MOL0     C74143   0.590   4.673   7.684 -0.0321 -0.5126 -0.2648
  550MOL0     C74144   0.525   4.913   7.712  0.2801 -0.7447 -0.7333
  550MOL0     C74145   0.377   4.888   7.722 -0.3910 -0.1293  0.2728
  550MOL0     O74146   0.290   4.973   7.650  0.6585 -0.4386 -0.1668
  550MOL0     C74147   0.161   4.983   7.682  0.2226 -0.4933 -0.2161
  550MOL0     C74148   0.076   4.876   7.692  1.1386  0.5192 -0.8378
  550MOL0     C74149  -0.054   4.888   7.742 -0.5224  0.5003 -0.7851
  550MOL0     C74150  -0.101   5.020   7.770 -0.1429  0.3204  0.1052
  550MOL0     O74151  -0.229   5.048   7.808 -0.4751  0.3415  0.2606
  550MOL0     C74152  -0.325   4.946   7.779 -0.4266  0.0536 -0.4694
  550MOL0     C74153  -0.468   4.995   7.794  1.7805  0.4730  0.7920
  550MOL0     C74154  -0.568   4.901   7.718 -0.1976 -0.1930  0.0200
  550MOL0     C74155  -0.579   4.755   7.777 -0.2992 -0.0932 -0.2764
  550MOL0     C74156  -0.692   4.688   7.707 -0.1336  0.1833  0.5189
  550MOL0     C74157  -0.667   4.542   7.700  0.5801 -0.0752  0.3847
  550MOL0     C74158  -0.777   4.465   7.632  0.2915 -0.8403 -0.6786
  550MOL0     C74159  -0.754   4.315   7.628  0.9343  0.7598 -0.3976
  550MOL0    Cl74160  -0.864   4.237   7.512  0.6410 -0.1056  0.0255
  550MOL0     C74161  -0.024   5.131   7.746  0.6247 -0.5136  0.5165
  550MOL0     C74162   0.109   5.113   7.715 -0.4512  0.6071 -0.2097
  550MOL0     O74163   0.342   4.796   7.783 -0.5430 -0.5711 -0.7947
  550MOL0     C74164   0.569   5.045   7.724  0.2402  0.4778  0.0777
  550MOL0     C74165   0.702   5.085   7.711 -0.4154 -0.2654  0.9526
  550MOL0     N74166   1.442   4.949   7.264  0.0227 -0.3456  0.7825
  550MOL0     N74167   1.566   4.926   7.215 -0.1874  0.0445 -0.3923
  550MOL0     C74168   2.820   5.165   7.034  0.5347  0.2419 -1.0505
  550MOL0     C74169   2.954   5.144   7.044  0.1660  0.0547  0.9102
  550MOL0     C74170   3.370   5.027   6.963 -0.0289  0.8562  0.0003
  550MOL0     C74171   3.417   4.950   7.072 -0.2745 -0.1283  0.0804
  550MOL0     C74172   3.551   4.945   7.103  0.3298  0.7550  0.0047
  550MOL0     C74173   3.647   5.002   7.018  0.1748 -0.3049 -0.3550
  550MOL0     O74174   3.778   5.005   7.051 -0.7619  0.2311  0.3226
  550MOL0     C74175   3.834   4.920   7.148 -0.5813  0.0143  0.0635
  550MOL0     C74176   3.990   4.960   7.152  0.1565 -0.4368  0.2235
  550MOL0     C74177   4.018   5.100   7.226 -0.4884  1.1047 -1.0439
  550MOL0     C74178   4.166   5.142   7.216 -0.2617  0.5674  0.8208
  550MOL0     C74179   4.236   5.135   7.085  0.3221 -0.9664 -0.9266
  550MOL0     C74180   4.288   5.150   6.973  0.1270 -1.4612 -0.5015
  550MOL0     C74181   3.607   5.073   6.902  0.2754  1.2230  0.2900
  550MOL0     C74182   3.467   5.077   6.876  0.5681 -0.4449  0.5470
  550MOL0     H74183   2.951   4.829   6.906  0.8036  0.5100 -0.2660
  550MOL0     H74184   2.711   4.864   6.927 -0.5951  0.3378 -0.7536
  550MOL0     H74185   2.513   5.226   6.870  2.7807  0.8127  0.1377
  550MOL0     H74186   2.591   5.080   6.789  0.5249  0.1719  0.1873
  550MOL0     H74187   2.342   5.058   6.769 -1.1979 -0.1788  0.6942
  550MOL0     H74188   2.423   4.941   6.868  0.9667  0.3183  0.8280
  550MOL0     H74189   2.293   4.996   7.041 -0.4200 -2.9230 -4.2537
  550MOL0     H74190   2.349   5.164   7.040  2.8348 -2.2230  0.1072
  550MOL0     H74191   2.157   5.221   6.907 -0.8737  0.1325 -0.8445
  550MOL0     H74192   2.124   5.056   6.872  1.1471 -1.1951  0.2775
  550MOL0     H74193   2.102   5.069   7.150  1.5401  0.7125  0.0162
  550MOL0     H74194   2.066   5.234   7.098 -0.1441 -0.2330 -0.7149
  550MOL0     H74195   1.896   5.143   6.931 -0.3944 -1.8086 -0.4658
  550MOL0     H74196   1.920   4.988   7.003 -1.9146 -0.3492 -1.5368
  550MOL0     H74197   1.837   5.241   7.150 -1.0354 -0.5062  0.5866
  550MOL0     H74198   1.722   5.144   7.049  0.1109 -0.6450 -0.5608
  550MOL0     H74199   1.839   5.071   7.315 -3.8975 -3.3088  3.5148
  550MOL0     H74200   1.825   4.947   7.188 -0.5638  0.1645 -2.2624
  550MOL0     H74201   1.618   5.195   7.398 -2.3743 -0.9613  2.7732
  550MOL0     H74202   1.396   5.174   7.514  1.4319  1.4316 -1.7704
  550MOL0     H74203   1.280   5.171   7.374 -0.4774 -0.1361  1.4486
  550MOL0     H74204   1.302   4.970   7.590  1.1009  1.5978 -0.2199
  550MOL0     H74205   1.234   4.926   7.432 -0.2230 -0.8948  0.5342
  550MOL0     H74206   1.069   5.123   7.478 -1.3004 -0.1502  0.6622
  550MOL0     H74207   1.134   5.127   7.646  0.9761 -3.0665  0.8181
  550MOL0     H74208   1.075   4.908   7.699  0.7181  1.2843 -0.3632
  550MOL0     H74209   0.994   4.882   7.539  0.4848 -1.5006  0.3286
  550MOL0     H74210   0.829   4.776   7.655 -1.4593 -0.4218 -0.7977
  550MOL0     H74211   0.674   4.609   7.656 -1.5111 -3.0058  0.5900
  550MOL0     H74212   0.561   4.640   7.784 -0.1258  2.7584  0.8991
  550MOL0     H74213   0.510   4.650   7.613  1.2480  1.8636 -2.6272
  550MOL0     H74214   0.116   4.776   7.678  1.7781  0.8418 -1.4053
  550MOL0     H74215  -0.109   4.796   7.755  0.1941 -0.1525 -2.1123
  550MOL0     H74216  -0.309   4.917   7.675  0.8442  0.6760 -0.4734
  550MOL0     H74217  -0.310   4.858   7.842 -1.3236  2.3616  3.3510
  550MOL0     H74218  -0.501   4.989   7.898 -1.3646  3.0738  0.1013
  550MOL0     H74219  -0.490   5.099   7.768  2.6771  0.9999  2.0557
  550MOL0     H74220  -0.540   4.907   7.612  1.5343  0.8382  0.4842
  550MOL0     H74221  -0.667   4.946   7.731  0.8169  1.9298  1.0353
  550MOL0     H74222  -0.487   4.699   7.756 -0.3004  0.3956 -1.7190
  550MOL0     H74223  -0.595   4.749   7.885 -2.2427  2.0042 -0.3572
  550MOL0     H74224  -0.693   4.721   7.603  2.0865 -2.6392 -0.5059
  550MOL0     H74225  -0.780   4.724   7.762  1.0879  1.7746  1.5395
  550MOL0     H74226  -0.570   4.522   7.653 -1.1902 -2.9761 -2.4537
  550MOL0     H74227  -0.663   4.498   7.801  2.1628  2.9957  1.7935
  550MOL0     H74228  -0.790   4.502   7.529 -0.5549  2.0661  0.3619
  550MOL0     H74229  -0.869   4.479   7.690  0.1251  0.8349 -1.3022
  550MOL0     H74230  -0.768   4.267   7.725  1.1229 -2.0348 -1.6689
  550MOL0     H74231  -0.654   4.289   7.592 -0.1145 -1.8628 -1.6463
  550MOL0     H74232  -0.060   5.233   7.758  0.4029 -0.3481 -1.3726
  550MOL0     H74233   0.169   5.199   7.688  0.4150  0.7791  2.0477
  550MOL0     H74234   0.493   5.120   7.742  0.9981  1.2363  0.1908
  550MOL0     H74235   0.732   5.188   7.723 -0.7923 -0.3024  2.3991
  550MOL0     H74236   2.784   5.263   7.065  0.0447  0.1516 -1.3140
  550MOL0     H74237   3.011   5.227   7.085  1.6272 -0.2818 -0.3547
  550MOL0     H74238   3.361   4.900   7.150  0.1336  0.5997  0.8427
  550MOL0     H74239   3.572   4.879   7.187 -2.2189  0.8827  0.8225
  550MOL0     H74240   3.779   4.927   7.242 -0.5013 -3.3147  0.4697
  550MOL0     H74241   3.823   4.815   7.120 -3.4568 -0.3858  2.3451
  550MOL0     H74242   4.020   4.961   7.047 -2.2706 -1.1883 -0.5475
  550MOL0     H74243   4.041   4.885   7.212 -0.3770  0.2582  1.5997
  550MOL0     H74244   3.983   5.083   7.329  2.1145 -1.2873 -0.4305
  550MOL0     H74245   3.950   5.171   7.178  1.1446  2.0772 -1.9871
  550MOL0     H74246   4.231   5.085   7.283 -1.4369 -0.7542  0.8855
  550MOL0     H74247   4.160   5.246   7.250 -0.7438  0.6665  0.4462
  550MOL0     H74248   4.348   5.162   6.886  2.9839  2.7861  1.6782
  550MOL0     H74249   3.680   5.097   6.825  0.9144  1.2697  0.9021
  550MOL0     H74250   3.444   5.126   6.782  0.9942 -0.4905  0.4168
  551MOL0     O74251   7.490   2.953   3.218  0.5748 -0.3265  0.2678
  551MOL0     C74252   7.578   2.913   3.294  0.1899  0.2165 -1.0260
  551MOL0     O74253   7.554   2.886   3.429  1.2630  0.5199 -0.3089
  551MOL0     C74254   7.422   2.865   3.472  0.7637 -0.0399 -0.5222
  551MOL0     C74255   7.303   2.829   3.388  0.2038 -0.2041 -0.2195
  551MOL0     C74256   7.178   2.821   3.448  0.0217 -0.1750 -0.0644
  551MOL0     C74257   7.162   2.867   3.573 -0.0884  0.5046 -0.6858
  551MOL0     O74258   7.033   2.881   3.611  0.0038  0.7231 -0.5946
  551MOL0     C74259   6.997   2.960   3.727 -0.2689 -0.4970  1.0113
  551MOL0     C74260   6.871   3.029   3.678  0.2520  0.2757 -0.4505
  551MOL0     C74261   6.828   3.140   3.770  0.4267  0.0419 -0.0659
  551MOL0     C74262   6.723   3.232   3.698 -0.5488 -0.1507  0.2015
  551MOL0     C74263   6.585   3.165   3.708  0.3908 -1.0658  0.4166
  551MOL0     C74264   6.493   3.234   3.605 -0.0916  0.9422 -0.0229
  551MOL0     C74265   6.334   3.203   3.631 -0.2627 -0.5031 -0.1843
  551MOL0     C74266   6.234   3.226   3.519 -0.3733  0.6086 -0.1727
  551MOL0     N74267   6.093   3.220   3.548  0.2955  0.2895  0.2990
  551MOL0     C74268   5.992   3.164   3.472 -0.4104  0.4209 -0.1391
  551MOL0     C74269   5.873   3.184   3.542 -0.2460 -0.4521  0.5910
  551MOL0     C74270   5.743   3.138   3.510 -0.0803  0.4782  0.2600
  551MOL0     C74271   5.745   2.987   3.476  0.5797  0.3143 -0.8084
  551MOL0     C74272   5.781   2.887   3.592 -0.1550 -0.2599  0.6472
  551MOL0     C74273   5.815   2.748   3.536 -0.7743 -0.1548  0.0028
  551MOL0     O74274   5.721   2.685   3.443  0.3545  0.0654 -0.6606
  551MOL0     C74275   5.591   2.668   3.485 -0.3850  0.0301 -0.4072
  551MOL0     C74276   5.505   2.698   3.382 -0.1137 -0.1258 -0.5086
  551MOL0     C74277   5.362   2.690   3.400 -0.0091 -0.2655  0.1943
  551MOL0     C74278   5.286   2.734   3.277 -0.2681  0.1841 -0.5326
  551MOL0     C74279   5.309   2.655   3.522 -0.7735  0.2039  0.3019
  551MOL0     C74280   5.170   2.667   3.561  0.1074  0.5712  0.5030
  551MOL0     O74281   5.081   2.683   3.468  0.3127 -0.5123  0.1145
  551MOL0     C74282   4.944   2.697   3.493 -0.6855 -0.5092 -0.0478
  551MOL0     C74283   4.875   2.629   3.591 -0.0873  0.0334  0.2556
  551MOL0     C74284   4.739   2.648   3.604 -1.2638 -0.2213  0.3352
  551MOL0     C74285   4.667   2.723   3.508  0.1499  0.2555 -0.3841
  551MOL0     O74286   4.529   2.745   3.508  0.2325 -0.1571  0.1223
  551MOL0     C74287   4.452   2.688   3.611  0.7191  0.1159  0.5380
  551MOL0     C74288   4.305   2.699   3.578  0.2001 -0.0942 -0.6619
  551MOL0     C74289   4.264   2.641   3.443 -0.2143 -0.0876  0.5516
  551MOL0     C74290   4.111   2.619   3.443  0.1004  0.0384 -1.1276
  551MOL0     C74291   4.088   2.599   3.293 -0.1802 -0.9160 -0.3535
  551MOL0     C74292   3.939   2.587   3.274  0.1825 -0.1283 -0.4721
  551MOL0     C74293   3.898   2.565   3.125  0.6109  0.2971 -0.3764
  551MOL0     C74294   3.744   2.551   3.103 -0.9752  0.0593  0.8614
  551MOL0    Cl74295   3.694   2.413   3.199 -0.3048 -0.1574  0.0793
  551MOL0     C74296   4.739   2.768   3.394 -0.1997  0.4024 -0.9703
  551MOL0     C74297   4.871   2.754   3.384 -0.1869  0.0443  0.8780
  551MOL0     O74298   5.144   2.659   3.686  0.2602  0.5339 -0.1452
  551MOL0     C74299   5.404   2.615   3.620 -0.3855  0.4281 -0.2887
  551MOL0     C74300   5.544   2.616   3.607 -0.0716  0.7922 -0.4130
  551MOL0     N74301   5.904   3.267   3.651  0.8852  0.6898  0.1206
  551MOL0     N74302   6.031   3.281   3.646 -0.4985 -0.6088 -1.6966
  551MOL0     C74303   7.272   2.903   3.655  0.9498  0.0637  0.7213
  551MOL0     C74304   7.392   2.903   3.600 -0.3330  0.2415  0.5039
  551MOL0     C74305   7.724   2.923   3.257 -0.7001 -0.1449 -0.0049
  551MOL0     C74306   7.837   2.898   3.347 -0.3896 -0.0559  0.5306
  551MOL0     C74307   7.967   2.903   3.297  0.0371 -0.8150 -0.0923
  551MOL0     C74308   7.998   2.941   3.164  0.0121 -0.0195  0.0345
  551MOL0     O74309   8.119   2.959   3.109  0.1494  0.1523 -0.6385
  551MOL0     C74310   8.228   2.949   3.198 -0.3306  0.4416 -0.6435
  551MOL0     C74311   8.356   2.996   3.128 -0.3453 -0.2699  0.3185
  551MOL0     C74312   8.486   2.935   3.164 -0.6318  0.3026  0.2140
  551MOL0     C74313   8.615   2.978   3.088 -0.1645 -0.8217 -0.5731
  551MOL0     C74314   8.658   3.113   3.134 -0.6592  0.5681 -0.3015
  551MOL0     C74315   8.691   3.233   3.164  0.0534 -0.1680  0.0579
  551MOL0     C74316   7.890   2.970   3.073  0.5113  0.0046  0.5224
  551MOL0     C74317   7.755   2.974   3.127 -0.0870 -0.0220  0.1978
  551MOL0     H74318   7.324   2.799   3.286  0.3294 -1.5995  0.1959
  551MOL0     H74319   7.084   2.789   3.404  0.1304  1.8660 -1.9358
  551MOL0     H74320   6.964   2.904   3.814 -1.8296 -0.3237  0.5682
  551MOL0     H74321   7.073   3.036   3.747  0.5266 -0.3847 -1.9523
  551MOL0     H74322   6.887   3.062   3.574  1.2310 -0.7622 -0.6465
  551MOL0     H74323   6.797   2.950   3.661  1.9433 -1.4528 -0.1530
  551MOL0     H74324   6.781   3.107   3.863  1.9278  1.2720  1.1699
  551MOL0     H74325   6.911   3.208   3.791 -1.9259  2.9000  0.7759
  551MOL0     H74326   6.719   3.333   3.742  1.7615  0.8059 -1.5713
  551MOL0     H74327   6.742   3.242   3.591  1.9411  0.4080  0.6189
  551MOL0     H74328   6.576   3.058   3.690 -3.5068 -0.7911 -0.1718
  551MOL0     H74329   6.554   3.173   3.812  2.0496 -1.3174  0.9719
  551MOL0     H74330   6.507   3.341   3.590 -1.3177  1.0404 -0.5540
  551MOL0     H74331   6.510   3.186   3.508 -0.7044  0.6709 -0.0003
  551MOL0     H74332   6.326   3.097   3.659 -0.0783  0.2019  2.8524
  551MOL0     H74333   6.303   3.260   3.719 -3.5429  0.0020 -1.5342
  551MOL0     H74334   6.255   3.145   3.449  1.5689 -0.4917  1.5887
  551MOL0     H74335   6.255   3.318   3.463  1.4408 -0.2917 -1.0618
  551MOL0     H74336   6.001   3.101   3.384 -1.5605 -1.6341  1.1181
  551MOL0     H74337   5.669   3.161   3.587  0.0145  2.6318 -0.2235
  551MOL0     H74338   5.705   3.190   3.422 -0.3743 -0.2225 -0.0311
  551MOL0     H74339   5.801   2.967   3.384  0.7776  0.4044 -0.7077
  551MOL0     H74340   5.643   2.969   3.441  1.4798 -0.9966 -2.9527
  551MOL0     H74341   5.691   2.871   3.652 -0.3778 -2.0240 -0.0883
  551MOL0     H74342   5.864   2.927   3.651  0.5066  0.9121 -1.0022
  551MOL0     H74343   5.819   2.681   3.623  1.9234 -0.9272 -0.6097
  551MOL0     H74344   5.912   2.760   3.486 -1.8262  5.0067 -1.4034
  551MOL0     H74345   5.547   2.703   3.282 -0.6706  2.1321 -0.6852
  551MOL0     H74346   5.231   2.650   3.235  0.9445 -0.8339 -0.1430
  551MOL0     H74347   5.220   2.820   3.294 -2.0976 -1.3822  0.7237
  551MOL0     H74348   5.360   2.769   3.205  1.1713  0.3694  0.9772
  551MOL0     H74349   4.929   2.580   3.671  1.1162  0.9879  0.0585
  551MOL0     H74350   4.694   2.600   3.690 -1.8681  0.7350  0.5762
  551MOL0     H74351   4.471   2.580   3.615  0.1407  0.0531  2.9242
  551MOL0     H74352   4.479   2.721   3.711 -1.3893  1.1903  0.8033
  551MOL0     H74353   4.256   2.644   3.659  0.0197 -0.4401 -1.0012
  551MOL0     H74354   4.276   2.804   3.580 -0.7677 -0.3561  0.4729
  551MOL0     H74355   4.302   2.540   3.428  0.8281  0.3610  0.0987
  551MOL0     H74356   4.293   2.717   3.370  0.4672 -1.0708 -0.2222
  551MOL0     H74357   4.084   2.534   3.506 -2.7117  0.3507 -1.7782
  551MOL0     H74358   4.070   2.710   3.489 -0.7411 -0.8185 -0.1540
  551MOL0     H74359   4.133   2.508   3.253  0.5557 -1.3336  1.3612
  551MOL0     H74360   4.130   2.675   3.225  0.1367 -1.3190 -0.6126
  551MOL0     H74361   3.898   2.503   3.331 -0.1344  0.5307  0.2726
  551MOL0     H74362   3.895   2.680   3.309 -0.2211  0.1216 -1.5931
  551MOL0     H74363   3.946   2.470   3.098 -0.2853 -0.4242  0.4969
  551MOL0     H74364   3.928   2.643   3.055 -0.8855  1.2780  0.0289
  551MOL0     H74365   3.733   2.538   2.995  0.1627 -1.4760  0.8926
  551MOL0     H74366   3.688   2.639   3.135 -1.3050  0.1091  0.1575
  551MOL0     H74367   4.687   2.828   3.320  0.9414  0.8061 -1.4682
  551MOL0     H74368   4.918   2.796   3.296 -1.8951  1.3391  0.5430
  551MOL0     H74369   5.371   2.585   3.719 -1.8619 -0.8875 -1.1161
  551MOL0     H74370   5.611   2.599   3.691 -3.0401  0.1738  1.9981
  551MOL0     H74371   7.247   2.938   3.754  1.1072  4.8389 -0.6497
  551MOL0     H74372   7.476   2.936   3.661  0.0428 -0.6817  0.5011
  551MOL0     H74373   7.825   2.885   3.454  1.3133 -1.4350  0.5976
  551MOL0     H74374   8.042   2.871   3.368 -0.0837 -0.5980  0.1348
  551MOL0     H74375   8.218   3.011   3.288  1.0130 -2.1211  1.4285
  551MOL0     H74376   8.234   2.847   3.236  0.9086  1.0725  0.9914
  551MOL0     H74377   8.374   3.102   3.144 -1.1370 -0.2318  1.0581
  551MOL0     H74378   8.347   2.973   3.021 -1.5916  0.2476  0.2892
  551MOL0     H74379   8.474   2.826   3.158 -2.9693  0.4498  1.1269
  551MOL0     H74380   8.513   2.952   3.269  1.1268 -1.3540  0.0734
  551MOL0     H74381   8.612   2.973   2.978  1.6975  0.1841 -0.7069
  551MOL0     H74382   8.689   2.901   3.108 -1.7071 -1.6867  2.3718
  551MOL0     H74383   8.740   3.326   3.183  1.2498 -0.6113 -0.7438
  551MOL0     H74384   7.911   3.000   2.971 -0.0758 -0.3641  0.2906
  551MOL0     H74385   7.675   3.005   3.061  1.1664  2.3332 -0.3261
  552MOL0     O74386   1.893   5.233   3.399  0.0628 -0.7285 -0.3994
  552MOL0     C74387   1.907   5.292   3.292  0.0512 -0.1012 -0.2029
  552MOL0     O74388   1.807   5.349   3.215  0.6286  0.5877  0.8359
  552MOL0     C74389   1.673   5.318   3.222  0.0653  0.2406  0.2821
  552MOL0     C74390   1.583   5.403   3.153 -0.5069 -0.2086  0.1954
  552MOL0     C74391   1.451   5.376   3.163  0.7041 -0.5060  0.1855
  552MOL0     C74392   1.396   5.274   3.249  0.9416 -0.9655 -0.1732
  552MOL0     O74393   1.257   5.250   3.259 -0.0240  0.0890 -0.1888
  552MOL0     C74394   1.166   5.342   3.202 -0.4823 -0.2907 -1.1020
  552MOL0     C74395   1.019   5.315   3.206 -0.1852  0.2173 -0.1186
  552MOL0     C74396   1.000   5.182   3.140 -0.0631 -0.7279 -0.0421
  552MOL0     C74397   0.847   5.146   3.143 -0.5208 -0.5939 -0.2908
  552MOL0     C74398   0.786   5.130   2.997  0.2867 -0.0157  0.6794
  552MOL0     C74399   0.778   5.265   2.920  0.7267  0.1142 -0.1710
  552MOL0     C74400   0.681   5.264   2.801  0.0732 -0.4335 -1.2092
  552MOL0     C74401   0.533   5.272   2.858 -0.0223  0.3496 -0.0905
  552MOL0     N74402   0.427   5.282   2.745  0.5563 -1.0081 -0.1105
  552MOL0     C74403   0.375   5.391   2.668  0.1193 -0.8541  0.7756
  552MOL0     C74404   0.284   5.334   2.580 -0.5996 -0.6435  0.1723
  552MOL0     C74405   0.197   5.408   2.481  0.4221  0.3557 -0.1665
  552MOL0     C74406   0.272   5.472   2.365  0.1589  0.2495 -0.2901
  552MOL0     C74407   0.331   5.397   2.243  0.1553 -1.0727 -0.6675
  552MOL0     C74408   0.435   5.294   2.280 -0.4328 -0.4427  0.3391
  552MOL0     O74409   0.524   5.359   2.373  0.4257 -0.1756 -0.6495
  552MOL0     C74410   0.630   5.440   2.335  0.1299 -0.4797 -0.5195
  552MOL0     C74411   0.677   5.454   2.206 -0.1565 -0.1681 -0.1995
  552MOL0     C74412   0.776   5.550   2.163 -0.0001 -0.1291 -0.6689
  552MOL0     C74413   0.812   5.565   2.020 -0.1638 -0.4413 -1.5569
  552MOL0     C74414   0.827   5.640   2.267 -0.9068 -0.0303  0.4946
  552MOL0     C74415   0.935   5.745   2.253  0.3584 -0.3131  0.9040
  552MOL0     O74416   0.966   5.818   2.364  0.4671 -0.0524 -0.5509
  552MOL0     C74417   1.053   5.923   2.363 -0.2502  0.0454 -0.5985
  552MOL0     C74418   1.062   5.985   2.480 -0.6158 -0.4406  0.2210
  552MOL0     C74419   1.149   6.097   2.497 -0.3982 -0.3311  0.1735
  552MOL0     C74420   1.224   6.158   2.389  0.1504 -0.2161 -0.9709
  552MOL0     O74421   1.295   6.274   2.420  0.2533 -0.0884  0.2674
  552MOL0     C74422   1.398   6.308   2.321  0.4181  0.3300 -0.0243
  552MOL0     C74423   1.437   6.461   2.351  0.5965  0.6776 -0.2008
  552MOL0     C74424   1.524   6.457   2.477  0.6554  1.2669 -0.5328
  552MOL0     C74425   1.603   6.576   2.501 -0.6529 -0.4600  0.6588
  552MOL0     C74426   1.659   6.592   2.643 -1.1048 -0.4221 -0.5625
  552MOL0     C74427   1.741   6.464   2.685  0.0921  0.3236 -1.0566
  552MOL0     C74428   1.846   6.413   2.586  0.2770 -0.4753  1.0036
  552MOL0     C74429   1.930   6.532   2.543  0.8984  0.4480 -0.2355
  552MOL0    Cl74430   2.086   6.469   2.492 -0.3383  0.0689  0.2344
  552MOL0     C74431   1.207   6.093   2.273  0.2638  0.1506 -0.2726
  552MOL0     C74432   1.132   5.978   2.260 -0.2143 -0.3301  0.6868
  552MOL0     O74433   0.971   5.764   2.141 -0.5823  0.1328  0.0460
  552MOL0     C74434   0.780   5.613   2.404  0.6962  0.3476  0.1280
  552MOL0     C74435   0.689   5.509   2.437  0.3864 -0.2477 -0.6319
  552MOL0     N74436   0.281   5.194   2.598 -0.7289 -0.6141  0.3979
  552MOL0     N74437   0.365   5.167   2.695 -0.2592  0.4069  0.0517
  552MOL0     C74438   1.483   5.188   3.314 -0.7455  0.0961 -0.2635
  552MOL0     C74439   1.625   5.210   3.299  0.5656 -0.1834  0.1067
  552MOL0     C74440   2.044   5.308   3.245  0.2321  0.0970  0.0862
  552MOL0     C74441   2.079   5.389   3.141  0.5953  0.2500  0.0003
  552MOL0     C74442   2.213   5.402   3.093  0.1831 -0.6304 -0.0517
  552MOL0     C74443   2.319   5.356   3.174 -0.0048  0.7664  0.9949
  552MOL0     O74444   2.452   5.361   3.146 -0.6380 -0.3783 -0.2808
  552MOL0     C74445   2.486   5.426   3.023  0.6726 -0.2693  0.5510
  552MOL0     C74446   2.634   5.422   2.991 -0.4570 -0.6225 -0.1914
  552MOL0     C74447   2.696   5.283   2.975 -0.0628 -0.2237  0.5415
  552MOL0     C74448   2.827   5.290   2.908  0.9329  0.4355 -0.3382
  552MOL0     C74449   2.922   5.356   2.989 -0.6023 -0.1158  0.5706
  552MOL0     C74450   3.010   5.415   3.047  0.1057 -0.1331 -0.6416
  552MOL0     C74451   2.288   5.275   3.281  0.3362 -0.0630  0.1531
  552MOL0     C74452   2.151   5.256   3.318 -0.2029 -0.1432  0.6589
  552MOL0     H74453   1.613   5.488   3.093 -2.3255  0.4232  0.1249
  552MOL0     H74454   1.384   5.443   3.110 -0.2500 -1.9448 -0.5190
  552MOL0     H74455   1.182   5.436   3.257  0.2095 -1.1478  0.2288
  552MOL0     H74456   1.189   5.348   3.095 -2.6323 -2.6047 -1.7807
  552MOL0     H74457   0.987   5.308   3.310  1.9061 -1.2876  0.4760
  552MOL0     H74458   0.963   5.389   3.147 -0.8578  0.0872  0.3438
  552MOL0     H74459   1.030   5.185   3.035  0.2589  1.9002  0.0604
  552MOL0     H74460   1.053   5.103   3.194 -0.8462 -0.1170  1.6927
  552MOL0     H74461   0.833   5.056   3.203 -1.0825  0.8407  1.8604
  552MOL0     H74462   0.790   5.219   3.202  0.1268  0.7846 -1.3013
  552MOL0     H74463   0.837   5.055   2.935 -1.4642 -0.8460  0.1841
  552MOL0     H74464   0.687   5.088   3.016 -0.6021  1.1992 -1.0834
  552MOL0     H74465   0.757   5.345   2.992 -0.8921 -1.0367  0.6947
  552MOL0     H74466   0.875   5.292   2.876  1.1560 -0.4285  0.4225
  552MOL0     H74467   0.686   5.363   2.754 -0.3445  0.4609  0.5289
  552MOL0     H74468   0.700   5.181   2.732 -0.5213 -3.1170  1.6285
  552MOL0     H74469   0.516   5.353   2.929  3.5282  0.3800  0.8920
  552MOL0     H74470   0.504   5.176   2.903 -3.2900  0.8915 -0.7995
  552MOL0     H74471   0.398   5.497   2.673 -0.6681 -0.6089 -0.4469
  552MOL0     H74472   0.122   5.347   2.430  0.2847 -0.8679  1.4229
  552MOL0     H74473   0.152   5.491   2.537  0.7391  1.0370 -0.8971
  552MOL0     H74474   0.349   5.536   2.408  0.6714 -0.7520  0.3282
  552MOL0     H74475   0.195   5.535   2.320 -0.3096 -0.1954 -0.1189
  552MOL0     H74476   0.373   5.473   2.176  1.9764  1.1660  2.7558
  552MOL0     H74477   0.250   5.346   2.190 -1.1175  1.3222 -1.1730
  552MOL0     H74478   0.488   5.259   2.191  3.1407 -1.2617  2.5957
  552MOL0     H74479   0.396   5.199   2.318  2.7237 -1.8896  0.2736
  552MOL0     H74480   0.642   5.387   2.127 -1.3424 -0.6198  0.6787
  552MOL0     H74481   0.772   5.479   1.965  1.7094 -1.6209 -1.1645
  552MOL0     H74482   0.783   5.662   1.979  2.0992  0.8349 -0.3465
  552MOL0     H74483   0.920   5.563   2.008 -0.0490 -0.3058 -0.6067
  552MOL0     H74484   0.997   5.944   2.556  1.4135 -2.3360  1.0484
  552MOL0     H74485   1.153   6.140   2.597  0.9820 -1.1247  0.4782
  552MOL0     H74486   1.474   6.230   2.331  0.8935  0.9812  1.8899
  552MOL0     H74487   1.355   6.318   2.221  0.1899  0.6244  0.1030
  552MOL0     H74488   1.492   6.493   2.262  2.2467  0.2265  0.6143
  552MOL0     H74489   1.341   6.509   2.370  0.0748 -0.6219  0.6529
  552MOL0     H74490   1.594   6.373   2.470 -1.6127 -0.9614  1.5073
  552MOL0     H74491   1.465   6.426   2.564  2.1883 -4.0805 -1.0411
  552MOL0     H74492   1.674   6.589   2.419 -2.2847  1.3681 -0.5750
  552MOL0     H74493   1.543   6.665   2.479 -1.4829 -1.3263 -0.7038
  552MOL0     H74494   1.574   6.605   2.711 -1.1357 -0.5527 -0.5763
  552MOL0     H74495   1.720   6.682   2.642 -3.4154  1.2973  0.9818
  552MOL0     H74496   1.800   6.478   2.776  2.4988  0.8285 -2.5930
  552MOL0     H74497   1.670   6.385   2.712  1.3708  0.2018  2.3330
  552MOL0     H74498   1.804   6.375   2.493  3.2678  1.3022 -1.2594
  552MOL0     H74499   1.908   6.336   2.633 -1.0530 -1.0739  1.8471
  552MOL0     H74500   1.945   6.610   2.618  2.1910  0.6521 -0.6853
  552MOL0     H74501   1.884   6.590   2.462 -0.4977 -1.0485 -0.5615
  552MOL0     H74502   1.258   6.127   2.184  0.3944 -0.3448 -0.3902
  552MOL0     H74503   1.129   5.934   2.161  0.3320 -0.9464  0.9403
  552MOL0     H74504   0.822   5.668   2.488  0.6569  0.6691 -0.0590
  552MOL0     H74505   0.654   5.496   2.539  3.4022  2.8893  1.0383
  552MOL0     H74506   1.439   5.115   3.383 -0.4002 -0.2970 -0.4553
  552MOL0     H74507   1.692   5.147   3.356  0.5992 -0.4609 -0.2373
  552MOL0     H74508   1.997   5.444   3.094 -0.7857 -0.9226  0.9359
  552MOL0     H74509   2.229   5.464   3.006 -0.9637 -1.0535 -0.5926
  552MOL0     H74510   2.431   5.384   2.939  3.6525  1.7132 -2.6682
  552MOL0     H74511   2.467   5.534   3.022  2.5641  0.1271 -1.2511
  552MOL0     H74512   2.682   5.479   3.072 -1.4245 -4.2714  3.2550
  552MOL0     H74513   2.653   5.472   2.896  2.0536  0.7865  0.9532
  552MOL0     H74514   2.628   5.220   2.917 -0.3829 -0.2437  0.9354
  552MOL0     H74515   2.700   5.230   3.071 -3.6714 -1.3218  0.2448
  552MOL0     H74516   2.823   5.342   2.811 -1.7088  0.1282 -0.4570
  552MOL0     H74517   2.870   5.191   2.891  3.1093  1.4650 -1.3246
  552MOL0     H74518   3.081   5.474   3.102 -2.0693 -0.5615  3.0061
  552MOL0     H74519   2.375   5.233   3.331  0.3754  0.5661  0.6147
  552MOL0     H74520   2.136   5.199   3.409  0.7522 -0.1051  0.8429
  553MOL0     O74521   4.493   6.077   5.379  0.4808 -0.0544  0.8111
  553MOL0     C74522   4.530   6.194   5.363  0.2583 -0.1592 -0.1096
  553MOL0     O74523   4.488   6.270   5.261  0.3303 -0.2369 -0.1047
  553MOL0     C74524   4.404   6.233   5.166  0.2986  0.6591  0.0997
  553MOL0     C74525   4.445   6.278   5.034 -0.9407  0.3071  0.2515
  553MOL0     C74526   4.356   6.252   4.929 -1.0143 -0.7506  0.2694
  553MOL0     C74527   4.236   6.191   4.949  0.5275  0.0267  0.6423
  553MOL0     O74528   4.148   6.165   4.848  0.5882  0.1286 -0.2004
  553MOL0     C74529   4.203   6.149   4.716 -0.0589 -1.0668 -0.3393
  553MOL0     C74530   4.110   6.059   4.642 -0.1977 -0.6463  0.5950
  553MOL0     C74531   3.961   6.098   4.627 -0.1735 -0.7586 -0.1058
  553MOL0     C74532   3.926   6.190   4.505  0.0058 -0.2747 -0.2868
  553MOL0     C74533   3.800   6.281   4.537  0.1330  0.5628  0.5144
  553MOL0     C74534   3.674   6.208   4.560  0.8412  0.1126  0.1819
  553MOL0     C74535   3.572   6.305   4.625 -0.4028  0.7810  0.0708
  553MOL0     C74536   3.443   6.234   4.616 -0.3631  0.1677 -0.2785
  553MOL0     N74537   3.327   6.294   4.689 -0.1235  0.3501 -0.1829
  553MOL0     C74538   3.206   6.231   4.714  0.7315 -0.3849  0.6079
  553MOL0     C74539   3.133   6.322   4.788 -0.1385  0.6742 -0.1526
  553MOL0     C74540   2.994   6.300   4.850 -0.2734 -0.1157  0.0268
  553MOL0     C74541   2.890   6.348   4.764  0.4307 -0.0278  0.0516
  553MOL0     C74542   2.770   6.277   4.793  0.1562 -0.1039  0.2509
  553MOL0     C74543   2.661   6.294   4.690 -0.1416  1.1087  0.3592
  553MOL0     O74544   2.545   6.264   4.767  0.4055 -0.5820  0.2151
  553MOL0     C74545   2.429   6.255   4.700 -0.6083 -0.1911  0.3457
  553MOL0     C74546   2.334   6.169   4.746 -0.7667  0.9749  0.1829
  553MOL0     C74547   2.214   6.155   4.684  0.4005  0.7035  0.2117
  553MOL0     C74548   2.109   6.064   4.748  0.3179 -0.3282  0.5379
  553MOL0     C74549   2.173   6.238   4.574 -0.2401  0.1498  0.8547
  553MOL0     C74550   2.046   6.235   4.507 -0.5907 -0.3126  0.6311
  553MOL0     O74551   2.049   6.305   4.387 -0.0575 -0.2731  0.0118
  553MOL0     C74552   1.925   6.339   4.344 -1.2184 -0.1734 -0.8754
  553MOL0     C74553   1.861   6.261   4.250  0.3917 -0.7824 -0.0453
  553MOL0     C74554   1.726   6.293   4.214 -0.5479  0.2960  0.2818
  553MOL0     C74555   1.663   6.405   4.273 -0.3329  0.1631  0.1669
  553MOL0     O74556   1.527   6.433   4.262  0.1089  0.0679  0.2518
  553MOL0     C74557   1.441   6.318   4.252  0.5304 -0.4348 -0.1252
  553MOL0     C74558   1.305   6.388   4.265 -0.3201  0.3838 -1.2339
  553MOL0     C74559   1.195   6.306   4.203 -1.0516 -0.1921  0.0728
  553MOL0     C74560   1.064   6.382   4.188 -0.2253 -0.2720  0.0927
  553MOL0     C74561   0.969   6.309   4.104  0.2185  0.5713  0.2112
  553MOL0     C74562   0.834   6.379   4.117  0.2620 -1.0016  0.4220
  553MOL0     C74563   0.719   6.296   4.069  0.0551 -0.0067  0.2383
  553MOL0     C74564   0.575   6.365   4.092 -0.1570  0.4619  0.5067
  553MOL0    Cl74565   0.447   6.246   4.113  0.5716  0.0695  0.3712
  553MOL0     C74566   1.734   6.475   4.375  0.3091  0.3525 -0.3612
  553MOL0     C74567   1.866   6.454   4.399  0.7590  0.7954 -0.8780
  553MOL0     O74568   1.951   6.165   4.545  0.3567 -0.1594  0.5303
  553MOL0     C74569   2.277   6.335   4.530  0.5153  0.4631 -0.4295
  553MOL0     C74570   2.396   6.345   4.596 -0.4387 -0.2754  0.3370
  553MOL0     N74571   3.213   6.431   4.814 -0.1277  0.4109 -0.1756
  553MOL0     N74572   3.328   6.413   4.753 -0.1350  0.7828  0.1531
  553MOL0     C74573   4.203   6.143   5.072  0.0026 -0.1263  0.7547
  553MOL0     C74574   4.283   6.160   5.185  0.4871  0.0314 -0.5809
  553MOL0     C74575   4.653   6.242   5.434  0.8093  0.5584 -0.0327
  553MOL0     C74576   4.731   6.154   5.511  0.0314 -0.4007 -0.2239
  553MOL0     C74577   4.859   6.205   5.550 -0.5724  0.5626  0.9733
  553MOL0     C74578   4.905   6.333   5.525 -0.7118 -0.1460  0.4551
  553MOL0     O74579   5.038   6.367   5.562 -0.5530  0.2660  0.1327
  553MOL0     C74580   5.105   6.454   5.467 -0.1095  0.2050  0.5763
  553MOL0     C74581   5.115   6.387   5.327  0.1902 -1.2251  0.3195
  553MOL0     C74582   5.184   6.252   5.316  0.9028 -0.3760  0.0487
  553MOL0     C74583   5.177   6.197   5.183  1.5491 -0.1168  0.4481
  553MOL0     C74584   5.250   6.068   5.174  0.7644 -0.2468 -0.0527
  553MOL0     C74585   5.302   5.959   5.187  0.6610  0.4643 -0.2527
  553MOL0     C74586   4.818   6.426   5.455 -0.0751 -0.3837 -0.3091
  553MOL0     C74587   4.696   6.379   5.407 -0.4562 -0.6381  0.2445
  553MOL0     H74588   4.533   6.340   5.025 -0.7033  0.0046  0.4434
  553MOL0     H74589   4.393   6.284   4.832 -0.0787  0.5784  1.0312
  553MOL0     H74590   4.204   6.247   4.668 -0.7605 -1.6026 -1.4913
  553MOL0     H74591   4.305   6.111   4.718  1.2127  1.9410 -1.3186
  553MOL0     H74592   4.156   6.025   4.549  1.7216 -1.3822  1.7479
  553MOL0     H74593   4.116   5.969   4.704 -1.0774  1.4646  4.0259
  553MOL0     H74594   3.893   6.013   4.632 -1.4767  0.2318 -0.3836
  553MOL0     H74595   3.941   6.157   4.718 -0.0619 -2.1157  0.8334
  553MOL0     H74596   4.017   6.249   4.492 -0.7818  1.2604  0.8732
  553MOL0     H74597   3.917   6.131   4.413  1.4616  0.6919 -1.0955
  553MOL0     H74598   3.833   6.336   4.626 -2.6656  3.8467 -0.2653
  553MOL0     H74599   3.779   6.357   4.462 -1.3051 -0.5535 -0.2679
  553MOL0     H74600   3.646   6.174   4.460 -0.2899 -0.4956  0.6911
  553MOL0     H74601   3.689   6.126   4.631  0.9972 -1.1865 -1.2922
  553MOL0     H74602   3.589   6.334   4.729 -1.3381 -1.5004  0.9204
  553MOL0     H74603   3.576   6.401   4.573  0.7816  0.0182 -1.3421
  553MOL0     H74604   3.468   6.138   4.661  0.0062 -0.5599 -1.9320
  553MOL0     H74605   3.422   6.227   4.509 -2.9102  1.6860  0.0482
  553MOL0     H74606   3.167   6.135   4.681 -0.0605  0.4011 -0.8280
  553MOL0     H74607   2.982   6.200   4.894  1.6110  0.0158  0.9324
  553MOL0     H74608   2.986   6.366   4.937 -0.0258 -1.8804  1.4432
  553MOL0     H74609   2.909   6.331   4.657  0.6795  2.3663 -0.3460
  553MOL0     H74610   2.882   6.456   4.778  1.4785  0.1175 -0.3414
  553MOL0     H74611   2.733   6.296   4.895 -1.9035  0.5732 -0.5811
  553MOL0     H74612   2.793   6.173   4.771  0.1117  0.0412 -0.5034
  553MOL0     H74613   2.681   6.226   4.607  1.8090  2.5752 -0.4607
  553MOL0     H74614   2.653   6.399   4.658 -0.2721  0.8960 -0.3316
  553MOL0     H74615   2.357   6.100   4.827  2.3142  1.2065 -0.3580
  553MOL0     H74616   2.029   6.119   4.799  0.1276  0.5720 -0.6803
  553MOL0     H74617   2.076   5.986   4.678  0.3480 -0.6538  0.8854
  553MOL0     H74618   2.157   6.014   4.832  1.2367  0.2900  0.3972
  553MOL0     H74619   1.901   6.170   4.207 -0.2642 -0.6642 -0.9302
  553MOL0     H74620   1.674   6.241   4.135  0.5604  1.5793 -1.3795
  553MOL0     H74621   1.449   6.251   4.166  0.6437 -1.2544  0.5108
  553MOL0     H74622   1.446   6.258   4.343 -0.7915 -0.7028 -0.2111
  553MOL0     H74623   1.281   6.414   4.368  1.8603 -1.4917 -0.1568
  553MOL0     H74624   1.311   6.480   4.206 -0.2865  1.7133  0.7590
  553MOL0     H74625   1.172   6.227   4.275 -2.6995 -0.0613 -0.2560
  553MOL0     H74626   1.229   6.266   4.107  0.5686 -2.0808  1.3569
  553MOL0     H74627   1.027   6.397   4.289  0.6174 -2.1560  0.7366
  553MOL0     H74628   1.088   6.476   4.138  3.6764 -0.2562  1.6904
  553MOL0     H74629   0.963   6.209   4.147  0.5093  1.2251  1.8369
  553MOL0     H74630   0.998   6.301   3.999 -0.3615 -0.0973  0.0939
  553MOL0     H74631   0.818   6.407   4.222  0.0718  0.4349  0.0314
  553MOL0     H74632   0.835   6.473   4.062 -0.0626 -0.9581  0.4876
  553MOL0     H74633   0.723   6.201   4.123 -0.2466  0.5637  1.2812
  553MOL0     H74634   0.717   6.278   3.961 -3.0642  2.1231 -0.1802
  553MOL0     H74635   0.559   6.424   4.001 -2.6788 -1.1581 -0.1941
  553MOL0     H74636   0.567   6.438   4.173 -0.2579  2.9123 -1.5835
  553MOL0     H74637   1.680   6.555   4.425 -2.0392 -1.2741 -0.1155
  553MOL0     H74638   1.903   6.503   4.488 -1.0162 -1.6842  1.3899
  553MOL0     H74639   2.263   6.413   4.457  1.7576  3.3675  2.2212
  553MOL0     H74640   2.466   6.411   4.547 -2.5694  1.2720 -0.7877
  553MOL0     H74641   4.103   6.102   5.081 -1.6689  2.8097 -2.0695
  553MOL0     H74642   4.254   6.121   5.282  0.6549 -0.7745 -0.8522
  553MOL0     H74643   4.697   6.055   5.537  0.2529 -0.0281  1.6070
  553MOL0     H74644   4.929   6.133   5.593  0.1139  0.3273 -0.4884
  553MOL0     H74645   5.045   6.544   5.455 -1.1218 -0.3987  0.9809
  553MOL0     H74646   5.207   6.477   5.498  1.4151 -4.6649  0.0881
  553MOL0     H74647   5.164   6.465   5.269  0.5720 -0.5994  1.4449
  553MOL0     H74648   5.013   6.374   5.289 -0.7076  0.1056  2.1016
  553MOL0     H74649   5.126   6.183   5.377  1.9181  0.1554  1.7069
  553MOL0     H74650   5.288   6.250   5.350  1.5892 -1.5379 -1.9643
  553MOL0     H74651   5.225   6.265   5.112 -2.4305 -0.0580 -2.5119
  553MOL0     H74652   5.074   6.191   5.146  0.6383  1.6993  2.4945
  553MOL0     H74653   5.356   5.868   5.201  0.7946  0.8896  2.4012
  553MOL0     H74654   4.848   6.529   5.438  1.5755 -0.7666  0.0928
  553MOL0     H74655   4.640   6.452   5.350  1.4166 -0.1358 -1.0595
  554MOL0     O74656   6.613  10.884   2.386  0.8518 -0.1088  0.0132
  554MOL0     C74657   6.645  10.780   2.327  0.3318 -0.3208  0.5694
  554MOL0     O74658   6.581  10.660   2.318 -0.3876 -0.3781 -0.0590
  554MOL0     C74659   6.448  10.659   2.361 -0.0053  0.7010  0.3543
  554MOL0     C74660   6.427  10.645   2.496 -0.4687  0.7339 -0.2512
  554MOL0     C74661   6.301  10.620   2.540 -0.7415  0.5096  0.2372
  554MOL0     C74662   6.192  10.617   2.453  0.7341  0.9149 -0.4311
  554MOL0     O74663   6.057  10.594   2.489 -0.8006  0.5206 -0.1521
  554MOL0     C74664   6.028  10.547   2.623 -0.7260 -0.0755 -0.3698
  554MOL0     C74665   5.880  10.575   2.641 -0.6054 -0.7797 -0.7221
  554MOL0     C74666   5.793  10.466   2.572  1.0682 -0.1439  0.2337
  554MOL0     C74667   5.652  10.457   2.632 -0.7065  0.0649 -0.3965
  554MOL0     C74668   5.575  10.352   2.550  0.6479  1.0837  0.2893
  554MOL0     C74669   5.417  10.357   2.580 -0.3119 -0.1237 -0.6927
  554MOL0     C74670   5.381  10.322   2.726 -0.1531  0.0347  0.0561
  554MOL0     C74671   5.231  10.344   2.755 -1.1489 -0.2642  0.4226
  554MOL0     N74672   5.126  10.291   2.671 -0.5421 -0.3647 -0.4688
  554MOL0     C74673   5.094  10.156   2.662 -0.5886 -0.0510  0.9661
  554MOL0     C74674   5.023  10.150   2.544 -0.6962  0.1305  0.1536
  554MOL0     C74675   4.943  10.040   2.496 -0.4437 -0.4529 -0.6319
  554MOL0     C74676   4.821  10.007   2.588 -0.6421 -0.4544 -0.4353
  554MOL0     C74677   4.697  10.109   2.593  0.0784  0.2251 -0.2858
  554MOL0     C74678   4.652  10.178   2.465  0.0356  0.3807  0.5039
  554MOL0     O74679   4.574  10.091   2.362  0.0877 -0.0963 -0.1253
  554MOL0     C74680   4.445  10.129   2.336 -0.6801  0.0758 -0.3868
  554MOL0     C74681   4.354  10.195   2.416 -0.5167 -1.0203  0.1369
  554MOL0     C74682   4.221  10.212   2.374 -0.1826  0.5909 -0.1624
  554MOL0     C74683   4.126  10.240   2.486 -0.3115  0.1914  0.6843
  554MOL0     C74684   4.182  10.184   2.237  0.2252  0.2647 -0.3909
  554MOL0     C74685   4.046  10.196   2.182 -0.7767  0.7832 -0.6660
  554MOL0     O74686   3.991  10.080   2.131  0.1130 -0.4684  0.2687
  554MOL0     C74687   3.874  10.074   2.064 -0.3093 -0.4993  0.1234
  554MOL0     C74688   3.761  10.064   2.149 -0.9000  0.2584  0.1722
  554MOL0     C74689   3.636  10.040   2.089 -0.0234 -0.5087  0.1840
  554MOL0     C74690   3.631  10.029   1.947 -0.3479 -0.3661 -0.4719
  554MOL0     O74691   3.502  10.003   1.897  0.5507 -0.0435  0.4633
  554MOL0     C74692   3.472  10.059   1.763 -1.0312 -0.1203 -0.6711
  554MOL0     C74693   3.323  10.090   1.760 -0.2326  0.9674 -0.0218
  554MOL0     C74694   3.237   9.960   1.754 -0.3616  0.1077  0.5592
  554MOL0     C74695   3.077   9.987   1.737  0.5384  0.4542  0.9921
  554MOL0     C74696   3.023  10.059   1.856 -0.3839  1.0820 -0.6519
  554MOL0     C74697   2.869  10.092   1.842 -0.4880  0.1809  0.3574
  554MOL0     C74698   2.850  10.183   1.723  0.1377  0.6013 -0.5636
  554MOL0     C74699   2.711  10.236   1.740  0.8934  0.2957  0.0389
  554MOL0    Cl74700   2.587  10.112   1.739 -0.1921  0.1964 -0.3959
  554MOL0     C74701   3.749  10.047   1.868 -0.0506  0.4676 -0.4772
  554MOL0     C74702   3.870  10.071   1.926  0.3301 -0.1774  0.4170
  554MOL0     O74703   3.989  10.301   2.182  0.5815  0.1890  0.5845
  554MOL0     C74704   4.279  10.122   2.155  0.1815 -0.9340  0.1750
  554MOL0     C74705   4.409  10.102   2.206 -0.5091  0.5279 -0.6141
  554MOL0     N74706   5.025  10.277   2.488  0.5010  0.0489  0.1890
  554MOL0     N74707   5.076  10.355   2.566 -0.0891 -0.4467  0.1622
  554MOL0     C74708   6.213  10.651   2.320 -0.5346  0.1211  0.6289
  554MOL0     C74709   6.345  10.678   2.275 -0.6089  0.1369 -0.0041
  554MOL0     C74710   6.781  10.790   2.283 -0.7629  0.0091 -0.3767
  554MOL0     C74711   6.867  10.688   2.322  0.6983 -0.6056  0.6318
  554MOL0     C74712   6.997  10.686   2.272 -0.7942  0.0455  1.0522
  554MOL0     C74713   7.054  10.782   2.191  0.4189 -0.1126 -1.1014
  554MOL0     O74714   7.184  10.773   2.152 -0.0623 -0.3015 -0.2676
  554MOL0     C74715   7.261  10.892   2.107 -0.7597 -0.0698  0.4118
  554MOL0     C74716   7.358  10.922   2.225 -0.1751  0.0972  0.8232
  554MOL0     C74717   7.440  10.788   2.267 -0.7439  0.3328 -0.3216
  554MOL0     C74718   7.596  10.806   2.282  0.5396 -1.4671 -0.1555
  554MOL0     C74719   7.653  10.690   2.344  0.3369  0.3776  0.7920
  554MOL0     C74720   7.703  10.592   2.393  0.0154 -0.0613 -0.5228
  554MOL0     C74721   6.968  10.878   2.138  0.1223 -0.5368 -0.4256
  554MOL0     C74722   6.835  10.873   2.177  0.0639  0.9046 -0.1126
  554MOL0     H74723   6.508  10.643   2.569 -0.4445  0.6475 -0.2804
  554MOL0     H74724   6.299  10.605   2.648  4.1359 -0.1843  0.4651
  554MOL0     H74725   6.063  10.447   2.646  3.2114  1.6031  1.8684
  554MOL0     H74726   6.069  10.617   2.697 -0.6227  0.1424 -0.6292
  554MOL0     H74727   5.852  10.569   2.746 -0.1882  2.0362 -0.3797
  554MOL0     H74728   5.860  10.679   2.611 -0.9097 -0.0964  1.6346
  554MOL0     H74729   5.785  10.487   2.465  1.7172 -1.8778 -0.1951
  554MOL0     H74730   5.839  10.366   2.570  2.3747  0.4293 -1.7307
  554MOL0     H74731   5.656  10.445   2.740 -1.7777 -1.1726 -0.4749
  554MOL0     H74732   5.590  10.545   2.612 -0.7797  0.9252  3.1017
  554MOL0     H74733   5.574  10.363   2.441  1.5709  1.2252  0.2875
  554MOL0     H74734   5.620  10.255   2.574 -0.8475  0.9765  3.1024
  554MOL0     H74735   5.382  10.458   2.557 -2.9372 -0.7889  0.0094
  554MOL0     H74736   5.364  10.277   2.526 -2.5629 -2.1124  3.9183
  554MOL0     H74737   5.399  10.214   2.729  1.7825 -0.0993 -5.3896
  554MOL0     H74738   5.449  10.377   2.791 -0.4227  1.6783 -0.9770
  554MOL0     H74739   5.205  10.450   2.764  0.2110  0.1860 -0.6114
  554MOL0     H74740   5.216  10.307   2.857  1.0539 -1.9580  0.2053
  554MOL0     H74741   5.119  10.065   2.715 -0.3973  0.2431  1.3857
  554MOL0     H74742   4.915  10.085   2.400  0.7166 -1.9536 -1.7130
  554MOL0     H74743   5.010   9.954   2.496  1.6207  1.0935  0.1743
  554MOL0     H74744   4.856   9.980   2.688 -0.3466  0.9028 -0.1410
  554MOL0     H74745   4.768   9.915   2.562  0.3523 -0.8749 -1.0093
  554MOL0     H74746   4.713  10.176   2.678 -0.2926  1.3292 -1.0677
  554MOL0     H74747   4.609  10.053   2.626 -0.7735  1.9892  0.6157
  554MOL0     H74748   4.742  10.212   2.411 -0.3370 -1.2987 -1.3021
  554MOL0     H74749   4.592  10.266   2.488 -0.2791  0.9254 -2.0368
  554MOL0     H74750   4.377  10.201   2.522 -0.4294 -2.0651  0.1897
  554MOL0     H74751   4.026  10.260   2.446 -0.4424 -0.9509  0.3900
  554MOL0     H74752   4.123  10.149   2.547  2.3061 -0.0486  0.5658
  554MOL0     H74753   4.159  10.327   2.543  0.1206 -0.5338  1.5787
  554MOL0     H74754   3.773  10.074   2.257 -0.2636 -1.3796  0.2817
  554MOL0     H74755   3.542  10.036   2.143 -0.3089  2.3450  0.0754
  554MOL0     H74756   3.523  10.156   1.767  0.1951 -0.7709  0.3567
  554MOL0     H74757   3.512   9.996   1.683  0.7201  1.5676 -1.1889
  554MOL0     H74758   3.299  10.149   1.849  0.7463  1.8082 -0.2962
  554MOL0     H74759   3.309  10.154   1.673 -0.2277 -0.1563 -0.8772
  554MOL0     H74760   3.253   9.890   1.837 -2.6482 -1.6922 -0.4031
  554MOL0     H74761   3.266   9.898   1.669 -2.2151  0.0742 -0.1051
  554MOL0     H74762   3.050  10.043   1.648 -0.5177 -0.6560  0.5842
  554MOL0     H74763   3.040   9.884   1.731 -1.0386  0.9956  1.0305
  554MOL0     H74764   3.072  10.157   1.866 -0.6730  1.0248  2.2784
  554MOL0     H74765   3.037  10.006   1.951  1.5005  0.1876 -1.3786
  554MOL0     H74766   2.812   9.999   1.841  0.7027 -0.5743  0.0500
  554MOL0     H74767   2.848  10.144   1.936 -0.8327  0.2579  0.2381
  554MOL0     H74768   2.845  10.132   1.626  1.6721 -0.7669  0.0293
  554MOL0     H74769   2.931  10.255   1.732  2.4178 -2.0714  3.0500
  554MOL0     H74770   2.691  10.311   1.663  1.8477  1.4222  0.8521
  554MOL0     H74771   2.702  10.285   1.837  1.4749  1.0207 -0.2630
  554MOL0     H74772   3.746  10.045   1.760 -0.9448  0.8091 -0.4619
  554MOL0     H74773   3.964  10.090   1.875 -0.4495 -0.4497 -1.1906
  554MOL0     H74774   4.267  10.099   2.049 -0.9345  1.8767 -0.4058
  554MOL0     H74775   4.480  10.069   2.131 -0.5335 -1.0525  0.0264
  554MOL0     H74776   6.129  10.660   2.251 -1.8810  0.3634  2.2367
  554MOL0     H74777   6.368  10.690   2.170 -0.3126 -0.6498 -0.0412
  554MOL0     H74778   6.828  10.616   2.393 -0.8415  0.4363  0.8933
  554MOL0     H74779   7.045  10.591   2.292 -1.1405 -0.9258 -2.1486
  554MOL0     H74780   7.319  10.861   2.020 -3.4362 -1.5343 -0.9714
  554MOL0     H74781   7.198  10.979   2.087 -0.3461  1.3501  4.3163
  554MOL0     H74782   7.293  10.969   2.300 -1.8433  0.4249 -0.7652
  554MOL0     H74783   7.431  11.002   2.206  1.3102 -0.8065  2.4179
  554MOL0     H74784   7.423  10.713   2.189 -0.7104  0.8043 -0.7938
  554MOL0     H74785   7.397  10.755   2.362  1.1335 -1.3195  0.0312
  554MOL0     H74786   7.624  10.896   2.339  0.8997 -2.2902  1.0059
  554MOL0     H74787   7.632  10.823   2.180 -0.3339  0.5896 -0.1778
  554MOL0     H74788   7.744  10.506   2.442  1.4316 -0.4642 -2.2924
  554MOL0     H74789   6.986  10.940   2.051  2.6322 -0.2708  0.2088
  554MOL0     H74790   6.768  10.939   2.124  1.3377  1.2072 -1.4035
  555MOL0     O74791   6.188   7.596   2.443  0.3381 -0.9978  0.4028
  555MOL0     C74792   6.198   7.507   2.353  0.7534 -0.3705  0.7936
  555MOL0     O74793   6.116   7.497   2.245  0.1997 -0.0648  0.3835
  555MOL0     C74794   6.030   7.599   2.226  0.2940 -0.4804 -0.5522
  555MOL0     C74795   6.061   7.731   2.197 -0.4624 -0.2523  0.2282
  555MOL0     C74796   5.969   7.821   2.166 -0.0258 -0.2499 -0.3162
  555MOL0     C74797   5.831   7.787   2.182  0.4643  0.2009 -0.1540
  555MOL0     O74798   5.727   7.876   2.176 -0.5882 -0.1877  0.4406
  555MOL0     C74799   5.771   8.013   2.201  0.5204  0.4641  0.3605
  555MOL0     C74800   5.646   8.100   2.240  0.2782  0.2999  0.1167
  555MOL0     C74801   5.558   8.125   2.115  0.3731 -0.1869 -0.1394
  555MOL0     C74802   5.435   8.219   2.147 -0.0754  0.7849 -0.5705
  555MOL0     C74803   5.319   8.194   2.046  0.2538  0.4021  0.4023
  555MOL0     C74804   5.176   8.231   2.101 -0.1448  0.0339  0.3713
  555MOL0     C74805   5.071   8.199   2.004 -0.2264 -0.3075  0.3771
  555MOL0     C74806   4.941   8.247   2.068 -0.6121  0.9326 -0.3701
  555MOL0     N74807   4.828   8.208   1.975  0.6848 -0.8213 -0.3758
  555MOL0     C74808   4.778   8.287   1.870  0.1326 -0.4506  0.6408
  555MOL0     C74809   4.674   8.214   1.818 -0.6619 -1.3823 -0.2020
  555MOL0     C74810   4.585   8.262   1.713 -0.0159 -0.0689  1.0224
  555MOL0     C74811   4.582   8.174   1.588 -0.3668 -0.1661  0.0994
  555MOL0     C74812   4.504   8.043   1.598 -0.2617 -0.8090 -0.4414
  555MOL0     C74813   4.352   8.086   1.608 -0.4463 -0.1537  0.1439
  555MOL0     O74814   4.309   8.156   1.491 -0.3126 -0.0632  0.2804
  555MOL0     C74815   4.184   8.213   1.489 -0.3054 -0.7221  0.0732
  555MOL0     C74816   4.093   8.215   1.602 -1.0619 -0.0940  0.2997
  555MOL0     C74817   3.962   8.256   1.581 -0.0458 -1.0124 -0.4220
  555MOL0     C74818   3.883   8.280   1.709 -0.3092  0.1823  0.0148
  555MOL0     C74819   3.915   8.263   1.447 -0.0220 -0.1839 -0.5014
  555MOL0     C74820   3.770   8.264   1.414 -0.2435  0.0466  0.5618
  555MOL0     O74821   3.732   8.292   1.290 -0.8776 -0.2273  0.3319
  555MOL0     C74822   3.605   8.325   1.257 -0.0213 -0.6625  1.1851
  555MOL0     C74823   3.588   8.454   1.199  0.2239 -0.2914 -1.2457
  555MOL0     C74824   3.454   8.494   1.157  0.3572 -0.8987 -0.5949
  555MOL0     C74825   3.348   8.407   1.166  1.0129 -0.4952 -0.3232
  555MOL0     O74826   3.229   8.467   1.127 -0.3406  0.5549 -0.9456
  555MOL0     C74827   3.112   8.389   1.157  0.1366  0.7879 -0.6222
  555MOL0     C74828   2.974   8.468   1.149 -0.0203 -1.5823 -0.8488
  555MOL0     C74829   2.839   8.387   1.152 -0.1776 -0.1122  0.3661
  555MOL0     C74830   2.712   8.472   1.162 -0.0744  0.7113 -0.0138
  555MOL0     C74831   2.597   8.374   1.140  0.2929 -0.3021 -0.3840
  555MOL0     C74832   2.459   8.434   1.165  0.1028 -0.2972  0.7660
  555MOL0     C74833   2.341   8.342   1.126  0.4288  0.2666 -0.9228
  555MOL0     C74834   2.203   8.402   1.168 -1.0483 -0.1302 -0.2360
  555MOL0    Cl74835   2.066   8.295   1.123  0.0504 -0.0397 -0.4061
  555MOL0     C74836   3.367   8.283   1.222 -0.1032  0.8595 -0.6136
  555MOL0     C74837   3.491   8.241   1.269 -0.1257 -0.7794  0.3411
  555MOL0     O74838   3.696   8.240   1.503  0.1612  0.3770  0.4787
  555MOL0     C74839   4.003   8.247   1.339  0.0334  0.3054 -0.0158
  555MOL0     C74840   4.140   8.237   1.360  1.3005  1.0611 -0.4744
  555MOL0     N74841   4.653   8.111   1.909  0.7110  0.0334 -0.5474
  555MOL0     N74842   4.743   8.106   1.992 -0.1610  0.2126 -0.1978
  555MOL0     C74843   5.797   7.668   2.232 -0.2912 -0.0445  0.3269
  555MOL0     C74844   5.893   7.570   2.242  0.3921  0.6151 -0.5222
  555MOL0     C74845   6.319   7.412   2.353 -0.1515 -0.6406  0.2296
  555MOL0     C74846   6.341   7.316   2.254 -0.7272  0.1135  0.7011
  555MOL0     C74847   6.463   7.246   2.249 -0.5218 -0.1915 -0.6131
  555MOL0     C74848   6.557   7.263   2.346  0.0878  0.0129  0.5074
  555MOL0     O74849   6.670   7.181   2.330 -0.1162  0.0258  0.4173
  555MOL0     C74850   6.759   7.167   2.443  0.7091  0.3529  0.6701
  555MOL0     C74851   6.860   7.065   2.399  0.0493 -0.3140  0.5649
  555MOL0     C74852   6.977   7.057   2.511  0.2408  0.0397 -0.1653
  555MOL0     C74853   7.061   6.932   2.478 -0.0133  0.1537 -0.6696
  555MOL0     C74854   6.990   6.799   2.496 -0.0625 -0.6092 -0.9100
  555MOL0     C74855   6.927   6.700   2.525  0.8961 -0.3236 -0.4696
  555MOL0     C74856   6.543   7.352   2.447  0.5836  0.0979  0.6281
  555MOL0     C74857   6.424   7.427   2.444 -0.5247  0.2331 -0.9799
  555MOL0     H74858   6.163   7.768   2.198 -1.2521  2.1275  0.1182
  555MOL0     H74859   5.999   7.920   2.133  2.6517 -0.9097 -0.1492
  555MOL0     H74860   5.833   8.011   2.291 -0.2496 -3.2483  0.9442
  555MOL0     H74861   5.828   8.047   2.114  1.3030 -2.1376 -0.2191
  555MOL0     H74862   5.591   8.059   2.326 -0.4405 -1.8540 -1.2719
  555MOL0     H74863   5.680   8.198   2.275 -1.3015  0.0791  2.5734
  555MOL0     H74864   5.614   8.165   2.030  2.5053  0.0453  1.2937
  555MOL0     H74865   5.517   8.028   2.085 -0.5731  0.2172 -0.2016
  555MOL0     H74866   5.410   8.196   2.251 -0.5289  2.0467 -0.3727
  555MOL0     H74867   5.471   8.322   2.156 -0.4761  0.7680  1.7767
  555MOL0     H74868   5.338   8.263   1.963  0.5639  0.3536  0.4355
  555MOL0     H74869   5.321   8.092   2.007  2.3767  0.7793 -0.5769
  555MOL0     H74870   5.158   8.189   2.200  0.8684 -0.4636  0.3581
  555MOL0     H74871   5.178   8.340   2.114 -0.0359  0.6445 -3.5002
  555MOL0     H74872   5.090   8.241   1.905  2.2368 -1.2978  0.3453
  555MOL0     H74873   5.071   8.091   1.991  0.6114 -0.6047  2.3584
  555MOL0     H74874   4.932   8.354   2.088 -0.5055  1.3016 -2.1562
  555MOL0     H74875   4.918   8.196   2.163 -1.7934 -0.7290 -1.4842
  555MOL0     H74876   4.826   8.380   1.840 -0.9314  0.7721  2.4867
  555MOL0     H74877   4.488   8.267   1.765  1.2484 -0.2145  3.5611
  555MOL0     H74878   4.603   8.367   1.692  0.4229 -0.3894 -0.2718
  555MOL0     H74879   4.683   8.149   1.556 -0.2477 -0.2215  0.5050
  555MOL0     H74880   4.553   8.231   1.500 -0.4139 -2.6980 -1.6320
  555MOL0     H74881   4.527   7.978   1.682  2.1150 -0.2147 -0.5629
  555MOL0     H74882   4.532   7.991   1.506  1.2164 -2.8941  1.0926
  555MOL0     H74883   4.326   8.155   1.689 -4.2549  0.6511 -1.5111
  555MOL0     H74884   4.289   7.997   1.610 -0.0747 -0.6225 -2.9676
  555MOL0     H74885   4.125   8.177   1.698 -2.2052 -3.4724 -0.5140
  555MOL0     H74886   3.950   8.341   1.770  1.2327  0.0407 -1.4568
  555MOL0     H74887   3.787   8.331   1.692 -1.3864 -1.2333  1.5466
  555MOL0     H74888   3.852   8.185   1.754 -1.2025  0.0162 -0.9199
  555MOL0     H74889   3.680   8.508   1.179  0.8076 -0.4151  0.8213
  555MOL0     H74890   3.437   8.584   1.099 -2.0020  0.0917  1.4549
  555MOL0     H74891   3.111   8.297   1.098  1.8996 -0.9524  1.8898
  555MOL0     H74892   3.116   8.367   1.264  0.9571 -1.7289 -1.1187
  555MOL0     H74893   2.968   8.536   1.235  2.1693 -1.3977 -0.7948
  555MOL0     H74894   2.992   8.534   1.063  2.3330  0.3723  1.0207
  555MOL0     H74895   2.844   8.314   1.233 -1.7261  0.1413  0.7213
  555MOL0     H74896   2.840   8.328   1.059 -1.0659 -0.4765  0.5773
  555MOL0     H74897   2.694   8.521   1.257 -1.4819  1.3720 -0.5901
  555MOL0     H74898   2.711   8.545   1.081 -1.0753 -0.1304 -0.8004
  555MOL0     H74899   2.609   8.286   1.204 -2.0822 -0.7599 -0.5113
  555MOL0     H74900   2.597   8.334   1.038  0.1876 -1.9095  0.2271
  555MOL0     H74901   2.448   8.464   1.270  2.2490  4.4105 -0.0762
  555MOL0     H74902   2.460   8.528   1.109  2.1299 -0.2327  0.8254
  555MOL0     H74903   2.356   8.249   1.181 -0.1909  2.2175  2.9120
  555MOL0     H74904   2.334   8.314   1.021 -0.1344 -2.5671 -0.1949
  555MOL0     H74905   2.197   8.502   1.122  0.7962 -0.5812 -1.5749
  555MOL0     H74906   2.203   8.411   1.277  1.9575 -0.0538 -0.1537
  555MOL0     H74907   3.280   8.219   1.237  0.4580  0.1612 -0.2949
  555MOL0     H74908   3.504   8.144   1.316  0.3841 -0.1639  1.5275
  555MOL0     H74909   3.975   8.253   1.234  0.4590 -0.1464 -0.1595
  555MOL0     H74910   4.214   8.232   1.281  0.6671 -0.3142 -1.0000
  555MOL0     H74911   5.702   7.651   2.284 -1.2233  0.8632 -1.0220
  555MOL0     H74912   5.864   7.480   2.296  1.3180  0.1938 -0.7048
  555MOL0     H74913   6.285   7.310   2.161  2.2088  1.6191 -1.3048
  555MOL0     H74914   6.473   7.178   2.165  1.0661 -0.0158 -0.5987
  555MOL0     H74915   6.808   7.265   2.454  0.2278  0.5198  1.4144
  555MOL0     H74916   6.724   7.135   2.542  2.2721 -2.6075  0.3675
  555MOL0     H74917   6.893   7.093   2.299  2.2608  0.9530  1.5724
  555MOL0     H74918   6.819   6.966   2.382 -0.2340 -0.4304  1.7989
  555MOL0     H74919   6.926   7.051   2.607 -1.5900 -0.3465 -1.0979
  555MOL0     H74920   7.044   7.143   2.501  1.5684 -0.9967 -0.3247
  555MOL0     H74921   7.151   6.936   2.541  1.2935 -0.6738 -2.3897
  555MOL0     H74922   7.091   6.933   2.373  0.2799  0.2400 -0.5870
  555MOL0     H74923   6.876   6.608   2.550  1.4998 -1.4045 -2.9407
  555MOL0     H74924   6.614   7.373   2.527  1.3436 -0.8573  0.2203
  555MOL0     H74925   6.429   7.515   2.509 -0.6282 -0.2343 -0.3286
  556MOL0     O74926   4.703   1.116   7.566 -0.3007 -0.9310 -0.8496
  556MOL0     C74927   4.635   1.016   7.543  0.5069  0.0564  0.6542
  556MOL0     O74928   4.677   0.882   7.547  0.3101  0.2576 -0.0482
  556MOL0     C74929   4.803   0.834   7.535 -0.3191  0.6140  0.2220
  556MOL0     C74930   4.909   0.905   7.493  0.1177 -0.0280 -0.2029
  556MOL0     C74931   5.051   0.862   7.492  1.0590 -0.7166  0.7179
  556MOL0     C74932   5.077   0.735   7.539  0.4107  0.4548  0.1714
  556MOL0     O74933   5.213   0.698   7.534  0.2646 -0.1083 -0.2586
  556MOL0     C74934   5.250   0.595   7.626  0.0968 -0.2344 -0.8418
  556MOL0     C74935   5.400   0.607   7.663 -0.0284  0.3089  0.0920
  556MOL0     C74936   5.498   0.577   7.543 -0.5631  0.8917  0.4353
  556MOL0     C74937   5.523   0.426   7.535  0.2330 -1.0045 -0.7099
  556MOL0     C74938   5.607   0.401   7.411  0.9630 -0.3158  0.2762
  556MOL0     C74939   5.748   0.454   7.399 -0.1479  0.0325  0.0667
  556MOL0     C74940   5.819   0.368   7.298  0.1719  0.5072 -0.3687
  556MOL0     C74941   5.950   0.432   7.277 -0.0885 -0.7108 -0.4121
  556MOL0     N74942   5.942   0.517   7.158  0.2418  0.0117  0.3819
  556MOL0     C74943   5.836   0.589   7.099  0.6229  0.5218  0.6042
  556MOL0     C74944   5.885   0.649   6.988  0.3948  0.2315 -0.1720
  556MOL0     C74945   5.798   0.738   6.896 -1.2136  0.3930 -0.2641
  556MOL0     C74946   5.659   0.676   6.861 -0.0987 -0.3906  0.5603
  556MOL0     C74947   5.586   0.779   6.766 -0.1557 -0.4540 -1.7130
  556MOL0     C74948   5.537   0.907   6.840 -0.2116 -0.3319 -0.5543
  556MOL0     O74949   5.436   0.982   6.761 -0.0759 -0.2492  0.7871
  556MOL0     C74950   5.314   0.939   6.756  0.2084  1.2984 -0.1387
  556MOL0     C74951   5.257   0.844   6.832 -0.0747  0.5306  0.5507
  556MOL0     C74952   5.127   0.792   6.818  0.2170 -0.3900 -0.3531
  556MOL0     C74953   5.082   0.691   6.924  0.5621  0.2310 -0.3453
  556MOL0     C74954   5.045   0.848   6.716 -0.2030  0.3659 -0.1377
  556MOL0     C74955   4.905   0.803   6.675  0.6651  0.4955 -0.8600
  556MOL0     O74956   4.836   0.894   6.604 -0.4215 -0.1988 -0.1819
  556MOL0     C74957   4.712   0.855   6.553 -0.4532  0.0452 -0.4729
  556MOL0     C74958   4.598   0.857   6.636 -0.6163 -0.3328  0.3898
  556MOL0     C74959   4.474   0.806   6.577  0.2769 -0.8287 -0.0754
  556MOL0     C74960   4.476   0.749   6.452 -0.2351  0.3363 -0.2819
  556MOL0     O74961   4.359   0.680   6.419  0.0660 -0.2503 -0.4832
  556MOL0     C74962   4.333   0.695   6.278  0.6254  0.4248 -0.2946
  556MOL0     C74963   4.187   0.692   6.248 -0.1203 -0.1338 -0.3151
  556MOL0     C74964   4.158   0.656   6.102  0.4017  0.2568 -0.2136
  556MOL0     C74965   4.006   0.655   6.071  0.2187 -0.7505  0.0577
  556MOL0     C74966   3.985   0.641   5.922 -0.3477 -0.8519  0.3136
  556MOL0     C74967   3.844   0.686   5.872 -0.2885  0.0396  0.0474
  556MOL0     C74968   3.831   0.836   5.819 -0.2628  0.2675 -0.1191
  556MOL0     C74969   3.865   0.947   5.925 -0.6336 -0.1712 -0.6173
  556MOL0    Cl74970   3.762   0.916   6.072 -0.0994 -0.1561  0.0335
  556MOL0     C74971   4.592   0.757   6.364  0.5681 -0.7596 -0.4577
  556MOL0     C74972   4.710   0.807   6.421 -0.3456  0.1101  0.4458
  556MOL0     O74973   4.868   0.686   6.699  0.4744 -0.0117 -0.3086
  556MOL0     C74974   5.101   0.953   6.645 -0.2615 -0.4979 -0.3320
  556MOL0     C74975   5.228   1.001   6.671  0.8309  0.9334  0.0765
  556MOL0     N74976   6.012   0.631   6.975 -0.4373 -0.9626  0.9871
  556MOL0     N74977   6.052   0.561   7.080  0.0016 -0.1235  0.7638
  556MOL0     C74978   4.967   0.652   7.580  0.0303 -0.4328 -0.4749
  556MOL0     C74979   4.836   0.709   7.586 -0.0314 -0.4018 -0.6328
  556MOL0     C74980   4.499   1.020   7.487 -0.0310 -0.2461 -0.8211
  556MOL0     C74981   4.420   0.903   7.485  0.3949  0.6566  0.8891
  556MOL0     C74982   4.288   0.915   7.438  0.0224  0.1422 -0.3000
  556MOL0     C74983   4.228   1.039   7.415  0.6476  0.8737 -0.1819
  556MOL0     O74984   4.095   1.050   7.393  0.8452 -0.1033  0.5124
  556MOL0     C74985   4.012   0.999   7.501 -0.6100  0.4876  1.3728
  556MOL0     C74986   4.014   1.088   7.624 -0.4565  1.2629 -0.4312
  556MOL0     C74987   3.935   1.218   7.629 -0.1418  0.2918 -0.6619
  556MOL0     C74988   3.980   1.323   7.525 -0.9552  0.6891  1.1074
  556MOL0     C74989   3.886   1.441   7.519 -0.7226  0.2499  0.6104
  556MOL0     C74990   3.815   1.539   7.509  0.3322 -0.4121 -0.9093
  556MOL0     C74991   4.303   1.156   7.418  0.5130  0.2719  0.8289
  556MOL0     C74992   4.438   1.141   7.451 -0.6355 -0.1158 -0.5654
  556MOL0     H74993   4.893   1.005   7.454 -3.5793 -1.4385 -2.9205
  556MOL0     H74994   5.129   0.928   7.456  0.4717  0.1492  1.0029
  556MOL0     H74995   5.187   0.607   7.715 -0.0471  0.5378 -1.0409
  556MOL0     H74996   5.244   0.491   7.592  0.0594  0.0839 -1.8291
  556MOL0     H74997   5.428   0.708   7.695  0.8849 -0.1810  0.9029
  556MOL0     H74998   5.423   0.541   7.748 -0.7517 -0.8660 -0.6085
  556MOL0     H74999   5.449   0.613   7.452 -1.8407 -1.1630  0.2275
  556MOL0     H75000   5.586   0.638   7.559 -0.1684  0.6311 -0.6900
  556MOL0     H75001   5.583   0.395   7.621  0.2731  1.0253  0.0692
  556MOL0     H75002   5.428   0.372   7.538 -1.8001  2.2201 -1.4257
  556MOL0     H75003   5.604   0.292   7.413  0.9208 -0.2966  1.4074
  556MOL0     H75004   5.563   0.450   7.324  1.1852  2.0633  1.4184
  556MOL0     H75005   5.743   0.556   7.359 -0.3078  0.1418  0.3641
  556MOL0     H75006   5.804   0.442   7.492  0.7522 -0.7752 -0.5581
  556MOL0     H75007   5.826   0.267   7.338  1.3593  1.5410  2.2380
  556MOL0     H75008   5.755   0.358   7.210 -3.1584 -0.1988  1.9636
  556MOL0     H75009   6.031   0.359   7.272 -0.4014 -1.1979  1.0560
  556MOL0     H75010   5.982   0.489   7.365  0.5785 -1.0364 -0.4355
  556MOL0     H75011   5.735   0.606   7.133  0.1706 -0.3220 -0.2681
  556MOL0     H75012   5.788   0.829   6.956 -0.8044 -1.0027  2.0436
  556MOL0     H75013   5.873   0.764   6.820  0.8015  0.3122  1.6000
  556MOL0     H75014   5.586   0.658   6.940 -0.8828  0.3957  0.0327
  556MOL0     H75015   5.676   0.578   6.814  0.0350 -1.2440  2.3166
  556MOL0     H75016   5.500   0.733   6.718 -0.0086 -0.3166 -2.1082
  556MOL0     H75017   5.661   0.797   6.689 -0.6845  0.6677 -1.9835
  556MOL0     H75018   5.625   0.970   6.856 -0.8430  1.0709 -2.3838
  556MOL0     H75019   5.503   0.875   6.940  2.2424  0.4142  0.5973
  556MOL0     H75020   5.322   0.811   6.913  1.3990  1.6970 -0.1108
  556MOL0     H75021   5.141   0.680   7.015 -3.1331  0.3798  2.3146
  556MOL0     H75022   4.985   0.725   6.964  0.8846  0.0140  0.6349
  556MOL0     H75023   5.072   0.601   6.864  0.8824  1.7665 -2.8596
  556MOL0     H75024   4.607   0.890   6.740  1.0032 -0.0039  0.1662
  556MOL0     H75025   4.380   0.808   6.631 -0.9159 -2.5893 -1.9430
  556MOL0     H75026   4.369   0.792   6.243 -1.8206  0.4525 -3.1688
  556MOL0     H75027   4.388   0.625   6.215  0.8940 -0.0447  0.4449
  556MOL0     H75028   4.132   0.627   6.316 -0.8387  2.2886  1.5706
  556MOL0     H75029   4.155   0.794   6.270  3.0996  1.1490 -0.9504
  556MOL0     H75030   4.200   0.561   6.069 -1.0310 -0.4226 -0.1130
  556MOL0     H75031   4.212   0.734   6.047 -0.6210  1.6055  0.6090
  556MOL0     H75032   3.963   0.560   6.105  0.2449 -1.2288 -1.1953
  556MOL0     H75033   3.956   0.743   6.113  0.1213 -2.3565  3.7140
  556MOL0     H75034   3.995   0.537   5.889 -3.2607 -0.4311 -2.3207
  556MOL0     H75035   4.064   0.700   5.874 -0.4655 -0.3725  0.7019
  556MOL0     H75036   3.811   0.616   5.795 -0.8548  0.8541 -0.4666
  556MOL0     H75037   3.774   0.662   5.952  0.0420  0.2582  0.4051
  556MOL0     H75038   3.726   0.845   5.789 -0.3990 -1.8150 -0.4062
  556MOL0     H75039   3.882   0.850   5.724  1.4773  1.6177  0.9658
  556MOL0     H75040   3.856   1.041   5.871 -1.5120  1.1663  1.7134
  556MOL0     H75041   3.971   0.942   5.952 -0.5279  0.0671 -0.9820
  556MOL0     H75042   4.587   0.719   6.263 -0.4650 -0.8575 -0.3793
  556MOL0     H75043   4.796   0.803   6.355  0.0966  0.2889  0.9947
  556MOL0     H75044   5.050   1.003   6.563  2.5549 -0.1348 -1.9820
  556MOL0     H75045   5.264   1.083   6.609 -0.7308  0.2543 -1.8412
  556MOL0     H75046   4.983   0.547   7.604 -1.6614 -1.2724 -2.6350
  556MOL0     H75047   4.761   0.647   7.634 -0.4981 -0.0736 -0.9278
  556MOL0     H75048   4.464   0.807   7.508  1.6702  1.2647  1.0724
  556MOL0     H75049   4.230   0.823   7.442  1.3258 -0.7469 -1.2110
  556MOL0     H75050   3.906   0.995   7.471 -1.1232  0.5234  3.0759
  556MOL0     H75051   4.048   0.899   7.523  0.3741  0.8788  1.6083
  556MOL0     H75052   4.121   1.103   7.643 -0.0978 -0.3727 -1.0090
  556MOL0     H75053   3.984   1.028   7.711  0.1519 -0.9743 -1.6856
  556MOL0     H75054   3.948   1.265   7.726 -2.2456  1.1454 -0.7430
  556MOL0     H75055   3.828   1.196   7.629 -0.2210  0.6594 -0.8874
  556MOL0     H75056   3.996   1.276   7.427 -1.7278 -1.0990  1.7931
  556MOL0     H75057   4.074   1.366   7.563  0.3253 -1.4973  0.6055
  556MOL0     H75058   3.743   1.616   7.493  2.9311  1.9205 -2.1316
  556MOL0     H75059   4.257   1.254   7.414 -0.6437 -0.2760  0.3344
  556MOL0     H75060   4.504   1.227   7.454  3.8325 -3.2164  0.1573
  557MOL0     O75061   7.260   8.977  10.184 -0.0857 -0.0533 -0.0393
  557MOL0     C75062   7.324   9.081  10.202  0.8535 -0.2849 -0.4263
  557MOL0     O75063   7.257   9.201  10.219 -0.1652 -0.0347 -0.8336
  557MOL0     C75064   7.116   9.208  10.228 -0.2541 -0.6812  0.0817
  557MOL0     C75065   7.058   9.312  10.162  0.2897  0.0820  0.0589
  557MOL0     C75066   6.921   9.334  10.172 -0.2417 -0.4309 -0.0778
  557MOL0     C75067   6.837   9.259  10.249 -0.1323 -0.0570 -1.1572
  557MOL0     O75068   6.707   9.269  10.238  0.1956 -0.2768  0.9432
  557MOL0     C75069   6.650   9.249  10.110 -0.2993  0.3726  0.4593
  557MOL0     C75070   6.545   9.131  10.110 -0.3638 -0.6696 -0.5959
  557MOL0     C75071   6.460   9.143   9.992  0.6799  0.0256  0.0104
  557MOL0     C75072   6.426   8.996   9.941 -0.0567  0.6935 -0.4804
  557MOL0     C75073   6.328   8.995   9.822 -0.0982  0.2722  0.2268
  557MOL0     C75074   6.281   8.854   9.790 -0.5174  0.5786  0.2612
  557MOL0     C75075   6.225   8.844   9.648 -0.4803 -0.2451 -0.0531
  557MOL0     C75076   6.328   8.879   9.530 -0.9330  0.5737 -0.9660
  557MOL0     N75077   6.433   8.771   9.530  0.0524  0.0189 -0.5456
  557MOL0     C75078   6.552   8.773   9.600  0.0914  0.0464 -0.1983
  557MOL0     C75079   6.599   8.644   9.585  0.9716  0.1930 -0.2505
  557MOL0     C75080   6.715   8.581   9.649  0.3788  0.6352  0.1492
  557MOL0     C75081   6.694   8.564   9.798 -0.6460 -0.2347 -1.0045
  557MOL0     C75082   6.601   8.442   9.837  0.3617 -0.4432  0.0291
  557MOL0     C75083   6.510   8.472   9.947  0.6783 -0.0719 -0.4179
  557MOL0     O75084   6.437   8.351   9.974 -0.3590  0.0467  0.0710
  557MOL0     C75085   6.333   8.303   9.900  0.2529 -0.5704  0.3268
  557MOL0     C75086   6.278   8.381   9.791  0.4963  0.6841 -0.7595
  557MOL0     C75087   6.181   8.327   9.705  0.3458  0.3540  0.9957
  557MOL0     C75088   6.133   8.408   9.589 -0.4661 -0.0485  0.4601
  557MOL0     C75089   6.126   8.196   9.725  0.1358  0.0464 -1.0082
  557MOL0     C75090   6.016   8.131   9.652  0.1759 -0.3718 -0.3076
  557MOL0     O75091   6.014   7.997   9.656 -0.3586  0.0494 -0.3986
  557MOL0     C75092   5.927   7.935   9.574  0.3467  1.1786  0.1324
  557MOL0     C75093   5.967   7.869   9.460 -0.1368 -0.3539 -0.2045
  557MOL0     C75094   5.873   7.820   9.373 -0.4404 -0.2464 -0.0155
  557MOL0     C75095   5.734   7.822   9.401  0.5214 -0.1639 -0.6273
  557MOL0     O75096   5.640   7.764   9.318 -0.9158  0.7632  0.3183
  557MOL0     C75097   5.501   7.779   9.344  0.1686  0.2435 -0.3496
  557MOL0     C75098   5.432   7.713   9.221 -0.5457 -0.4012 -0.1544
  557MOL0     C75099   5.284   7.705   9.233 -0.5637  0.0052  0.1659
  557MOL0     C75100   5.250   7.602   9.338  0.5262 -0.1069 -0.2523
  557MOL0     C75101   5.099   7.577   9.334 -0.5327  0.6079 -0.3865
  557MOL0     C75102   5.062   7.479   9.446  0.0341  0.6452 -0.1478
  557MOL0     C75103   5.101   7.328   9.412 -0.2500 -0.6995 -0.0719
  557MOL0     C75104   5.176   7.252   9.527  0.0956 -0.2733 -0.8076
  557MOL0    Cl75105   5.078   7.230   9.668  0.3588 -0.3253 -0.0960
  557MOL0     C75106   5.696   7.877   9.522  0.6965  0.7600 -0.4432
  557MOL0     C75107   5.794   7.934   9.606  0.2367  0.6250  0.0740
  557MOL0     O75108   5.920   8.201   9.605 -0.5170  0.0474  0.3365
  557MOL0     C75109   6.177   8.130   9.838 -0.9502  0.0505  0.4899
  557MOL0     C75110   6.285   8.170   9.921 -0.3644 -0.0596 -0.7736
  557MOL0     N75111   6.521   8.569   9.496 -0.2859  0.4015 -0.2110
  557MOL0     N75112   6.431   8.656   9.457  0.2187  0.5829  0.3218
  557MOL0     C75113   6.891   9.154  10.314  0.6488 -0.4668  0.3381
  557MOL0     C75114   7.028   9.133  10.305 -0.5631 -0.1387  1.0860
  557MOL0     C75115   7.477   9.081  10.218 -0.0654  1.3165 -0.6194
  557MOL0     C75116   7.549   8.968  10.249  0.2799  0.2464 -0.1813
  557MOL0     C75117   7.690   8.970  10.245 -0.8032  0.8041  0.2767
  557MOL0     C75118   7.763   9.086  10.230 -0.1618  0.8097 -0.4405
  557MOL0     O75119   7.903   9.087  10.240  0.0258  0.0480 -0.6553
  557MOL0     C75120   7.974   9.011  10.340  0.4341  0.0579 -0.6837
  557MOL0     C75121   8.113   9.067  10.348 -0.0155 -0.3144  0.1907
  557MOL0     C75122   8.113   9.216  10.372  0.3745  0.3637  0.2838
  557MOL0     C75123   8.252   9.272  10.414 -0.0948 -0.3543  1.4896
  557MOL0     C75124   8.334   9.205  10.515 -0.6731 -0.3038  1.2508
  557MOL0     C75125   8.405   9.140  10.587 -0.3383  0.4683 -0.4993
  557MOL0     C75126   7.691   9.199  10.216  0.1987 -0.9125 -0.1960
  557MOL0     C75127   7.552   9.200  10.214 -0.1658  0.1869 -0.2116
  557MOL0     H75128   7.125   9.383  10.114 -1.5578  4.2185  2.9893
  557MOL0     H75129   6.857   9.414  10.136 -1.1065 -1.6006 -1.2257
  557MOL0     H75130   6.599   9.342  10.082 -0.0413  0.9331  1.7684
  557MOL0     H75131   6.722   9.234  10.029 -0.2859 -2.5710  0.9120
  557MOL0     H75132   6.600   9.037  10.099  0.1314 -0.3644 -0.7430
  557MOL0     H75133   6.486   9.134  10.203  1.4713  1.2161  0.5934
  557MOL0     H75134   6.369   9.201  10.014 -0.8069 -1.4381 -1.8877
  557MOL0     H75135   6.517   9.190   9.911 -0.5831 -2.4860 -2.5049
  557MOL0     H75136   6.515   8.938   9.913 -0.4588 -1.4095  2.1341
  557MOL0     H75137   6.395   8.931  10.023 -0.8080  0.8959 -0.6007
  557MOL0     H75138   6.230   9.039   9.843 -0.7934 -0.2851 -1.6191
  557MOL0     H75139   6.375   9.046   9.738  0.0012  0.4885  0.4134
  557MOL0     H75140   6.369   8.789   9.801 -0.0540  1.1636  0.0607
  557MOL0     H75141   6.207   8.809   9.856  1.0377 -0.8674  1.1048
  557MOL0     H75142   6.184   8.744   9.630 -1.4206 -0.0930  1.1351
  557MOL0     H75143   6.144   8.917   9.638  1.1826  1.6286 -0.5126
  557MOL0     H75144   6.379   8.975   9.545  0.7362 -0.5320  0.9346
  557MOL0     H75145   6.270   8.883   9.438 -1.5960  1.1027 -0.5288
  557MOL0     H75146   6.580   8.856   9.664 -3.0587  0.7103  0.4931
  557MOL0     H75147   6.746   8.489   9.598 -0.2641 -0.3423  1.4707
  557MOL0     H75148   6.796   8.653   9.635  0.9653 -0.1067 -0.3310
  557MOL0     H75149   6.650   8.656   9.838 -1.5658 -1.1951  0.2913
  557MOL0     H75150   6.786   8.541   9.853 -0.4370  0.0664 -1.2294
  557MOL0     H75151   6.670   8.360   9.860  3.4164  1.6119 -1.2220
  557MOL0     H75152   6.546   8.425   9.744 -0.4330  2.5116 -0.1204
  557MOL0     H75153   6.437   8.552   9.932  0.1226 -0.3315  0.7597
  557MOL0     H75154   6.568   8.501  10.036  1.3119  0.0667 -0.8728
  557MOL0     H75155   6.296   8.485   9.765 -0.5056  1.2122  0.5378
  557MOL0     H75156   6.035   8.453   9.609 -0.0574  0.5920  1.1062
  557MOL0     H75157   6.201   8.488   9.559  3.1808 -2.6182  1.1810
  557MOL0     H75158   6.129   8.354   9.494  2.9657  2.2910 -1.2010
  557MOL0     H75159   6.075   7.862   9.450  0.2776  2.3793  1.2265
  557MOL0     H75160   5.911   7.771   9.284  0.1270 -0.3100  0.2575
  557MOL0     H75161   5.468   7.734   9.439  2.5444 -0.0621  0.4223
  557MOL0     H75162   5.470   7.883   9.342 -0.6387  0.0055 -0.3560
  557MOL0     H75163   5.457   7.773   9.134  0.5890  1.2195  1.2248
  557MOL0     H75164   5.473   7.613   9.203 -0.0677  0.0571 -1.7900
  557MOL0     H75165   5.249   7.659   9.140 -1.9533  0.0537  0.6435
  557MOL0     H75166   5.247   7.803   9.264  1.5118  1.2286 -0.9896
  557MOL0     H75167   5.320   7.519   9.327 -0.0754 -0.9826  2.0628
  557MOL0     H75168   5.286   7.654   9.427 -0.1115 -0.5625  0.2782
  557MOL0     H75169   5.069   7.543   9.235 -0.2267 -0.9432  0.0338
  557MOL0     H75170   5.050   7.674   9.345  0.5023  1.2614 -1.3495
  557MOL0     H75171   5.092   7.513   9.546 -2.8317 -1.4782  1.6154
  557MOL0     H75172   4.955   7.465   9.464  0.2059 -3.2216 -1.1658
  557MOL0     H75173   5.168   7.333   9.326  1.2971  1.4818  1.1600
  557MOL0     H75174   5.015   7.267   9.382 -0.6366  0.7093 -2.0171
  557MOL0     H75175   5.267   7.301   9.562 -0.2178 -1.7531  2.5371
  557MOL0     H75176   5.217   7.156   9.495  2.0275 -0.5433  2.0359
  557MOL0     H75177   5.589   7.874   9.543  0.7624  2.9669  0.3977
  557MOL0     H75178   5.763   7.996   9.689 -0.6013  2.3022 -1.4027
  557MOL0     H75179   6.139   8.033   9.870  0.0569 -0.2453  0.8319
  557MOL0     H75180   6.335   8.107   9.994 -0.8281 -0.9736 -1.2172
  557MOL0     H75181   6.832   9.077  10.363  0.3731 -1.4025 -1.4226
  557MOL0     H75182   7.071   9.044  10.349 -1.6937 -1.2168  0.0924
  557MOL0     H75183   7.495   8.875  10.263  0.4512 -0.1831 -2.0403
  557MOL0     H75184   7.730   8.869  10.247  3.3872  2.2094 -1.4584
  557MOL0     H75185   7.915   9.014  10.431 -3.0383 -4.7591 -2.3536
  557MOL0     H75186   7.968   8.904  10.315 -2.3660 -0.1901  0.6469
  557MOL0     H75187   8.184   9.038  10.270  0.1930 -0.0099  0.2638
  557MOL0     H75188   8.154   9.013  10.434 -3.7480 -0.1992  2.2356
  557MOL0     H75189   8.038   9.237  10.450 -3.4288  1.4044 -3.2612
  557MOL0     H75190   8.082   9.273  10.284  0.7528  1.6438  0.9619
  557MOL0     H75191   8.233   9.373  10.452 -1.1583  0.3823 -0.8671
  557MOL0     H75192   8.312   9.285  10.324 -0.7491 -1.8615  0.8094
  557MOL0     H75193   8.473   9.092  10.655 -1.2420 -0.2598 -0.0919
  557MOL0     H75194   7.744   9.292  10.196 -0.8832 -0.1710  0.2587
  557MOL0     H75195   7.491   9.288  10.199  0.9382  1.2233  1.0937
  558MOL0     O75196   4.771   4.419  11.107 -0.1623 -0.0313  0.4142
  558MOL0     C75197   4.749   4.361  11.209  0.6825  0.2003  0.7240
  558MOL0     O75198   4.693   4.411  11.325  0.3089 -0.6736  0.3078
  558MOL0     C75199   4.639   4.532  11.293  0.4529 -0.5736  0.1949
  558MOL0     C75200   4.502   4.560  11.275 -0.0342 -0.0064  0.0175
  558MOL0     C75201   4.471   4.697  11.252  0.1213 -0.0802 -0.2010
  558MOL0     C75202   4.568   4.804  11.253  0.8041  0.0852  0.2421
  558MOL0     O75203   4.520   4.933  11.229  1.6123  0.5997  0.0322
  558MOL0     C75204   4.593   5.010  11.131  0.5760  0.4292  0.1513
  558MOL0     C75205   4.526   4.991  10.989  0.1628  0.2451  0.0712
  558MOL0     C75206   4.372   4.988  10.989 -0.6504  0.4858  0.2163
  558MOL0     C75207   4.292   5.119  10.997 -0.8157  0.4854 -0.2891
  558MOL0     C75208   4.148   5.096  10.947  0.8812  0.0457 -1.2834
  558MOL0     C75209   4.055   5.044  11.065 -0.3165  1.1019  0.1201
  558MOL0     C75210   3.910   5.037  11.012  1.0542 -0.1926 -0.0767
  558MOL0     C75211   3.808   5.005  11.120 -0.2323  0.1589  0.6123
  558MOL0     N75212   3.667   5.023  11.069 -0.8194  0.6002 -0.1394
  558MOL0     C75213   3.615   4.980  10.951  0.4144  0.3815 -0.2696
  558MOL0     C75214   3.485   5.013  10.949 -0.4692  0.3283  0.0104
  558MOL0     C75215   3.384   5.003  10.840  0.1069  0.4863 -0.1588
  558MOL0     C75216   3.311   4.871  10.826  0.0435 -0.1834 -0.0058
  558MOL0     C75217   3.398   4.769  10.744  0.3273  0.2597  0.9686
  558MOL0     C75218   3.331   4.637  10.723  0.2613 -0.1366  0.4105
  558MOL0     O75219   3.219   4.650  10.633 -0.6356 -0.7970  0.0315
  558MOL0     C75220   3.161   4.534  10.588  1.1564  0.5266  0.5725
  558MOL0     C75221   3.064   4.552  10.487 -0.3255  1.0576  0.3703
  558MOL0     C75222   2.982   4.444  10.445  0.1280  0.0956 -1.1678
  558MOL0     C75223   2.890   4.468  10.338  0.0230  0.6447 -0.1365
  558MOL0     C75224   2.989   4.320  10.518  0.1986 -0.4805  0.5011
  558MOL0     C75225   2.883   4.212  10.513 -0.6578  0.2312  1.4244
  558MOL0     O75226   2.949   4.094  10.486 -0.0416 -0.0098  0.2188
  558MOL0     C75227   2.864   3.991  10.483 -0.4339 -0.1970  0.1722
  558MOL0     C75228   2.777   3.971  10.374  0.3109 -0.5745 -0.2629
  558MOL0     C75229   2.671   3.879  10.388 -0.2253  0.8253 -0.1349
  558MOL0     C75230   2.660   3.798  10.505  0.2224 -0.7601  0.2666
  558MOL0     O75231   2.572   3.698  10.508  0.5367  1.0961  0.0460
  558MOL0     C75232   2.498   3.655  10.395  0.3171  0.5761  0.4772
  558MOL0     C75233   2.421   3.528  10.425 -1.1605 -0.3012 -0.0365
  558MOL0     C75234   2.310   3.506  10.322 -0.1107 -1.1689 -0.0938
  558MOL0     C75235   2.262   3.357  10.333 -0.1848  0.7400  0.3532
  558MOL0     C75236   2.172   3.330  10.454 -0.2621 -0.0493  0.8545
  558MOL0     C75237   2.162   3.195  10.506 -0.2258  0.5102  0.4113
  558MOL0     C75238   2.058   3.157  10.601 -0.5795 -0.0632  0.4114
  558MOL0     C75239   1.924   3.164  10.533  0.0710 -0.4484 -0.2041
  558MOL0    Cl75240   1.812   3.079  10.649 -0.1353 -0.1921  0.2037
  558MOL0     C75241   2.754   3.820  10.606  1.1224 -0.6198 -0.0210
  558MOL0     C75242   2.856   3.913  10.598 -0.9312  0.3684  0.1555
  558MOL0     O75243   2.774   4.226  10.563  0.7214  0.1652 -0.6578
  558MOL0     C75244   3.087   4.307  10.623 -0.1881 -0.0606  0.3929
  558MOL0     C75245   3.171   4.411  10.652  0.1173 -0.1791  0.4972
  558MOL0     N75246   3.456   5.074  11.073  0.2628  0.8842  0.0188
  558MOL0     N75247   3.565   5.083  11.141 -0.2574 -0.2884 -0.1955
  558MOL0     C75248   4.700   4.773  11.290  0.4663 -0.5392  0.3375
  558MOL0     C75249   4.737   4.641  11.308  0.2086 -0.4371 -0.2798
  558MOL0     C75250   4.806   4.228  11.227 -0.2830 -0.7522 -0.4065
  558MOL0     C75251   4.895   4.178  11.140  0.3219  0.2986  0.8483
  558MOL0     C75252   4.972   4.067  11.164  0.7158  0.1941 -0.0422
  558MOL0     C75253   4.957   3.990  11.276  0.2852 -0.4526 -0.1946
  558MOL0     O75254   5.030   3.875  11.277 -0.1031 -0.8883 -0.1477
  558MOL0     C75255   5.042   3.792  11.391 -0.3045 -0.6282 -0.7104
  558MOL0     C75256   5.134   3.865  11.495 -0.5031  0.4009 -0.0707
  558MOL0     C75257   5.270   3.884  11.433 -0.5962 -0.5726 -0.2892
  558MOL0     C75258   5.342   3.999  11.508  0.1712 -0.0124  0.7347
  558MOL0     C75259   5.303   4.131  11.460  0.2788  0.4731  0.0253
  558MOL0     C75260   5.263   4.240  11.442  0.3326 -0.8769  0.0223
  558MOL0     C75261   4.868   4.034  11.373 -0.5510 -0.1876  0.0495
  558MOL0     C75262   4.792   4.153  11.349 -0.6201  0.4262  0.0875
  558MOL0     H75263   4.426   4.483  11.270 -0.2117  0.2022 -0.5711
  558MOL0     H75264   4.367   4.725  11.231  0.6748  2.1072 -0.3313
  558MOL0     H75265   4.606   5.116  11.154  2.8408 -0.0668  1.4945
  558MOL0     H75266   4.695   4.971  11.133 -0.6612 -3.1944  1.7826
  558MOL0     H75267   4.584   5.059  10.926  1.0294  0.2725  0.8576
  558MOL0     H75268   4.556   4.890  10.957  0.9116 -0.1134  1.8000
  558MOL0     H75269   4.345   4.943  10.893  2.6948 -0.6621 -0.3212
  558MOL0     H75270   4.334   4.913  11.059  3.0187 -1.3007  0.5485
  558MOL0     H75271   4.304   5.169  11.093 -0.1355  1.0261 -0.6444
  558MOL0     H75272   4.339   5.183  10.922 -2.1314  0.7393 -0.9241
  558MOL0     H75273   4.108   5.196  10.928 -1.6993 -0.1394  2.1242
  558MOL0     H75274   4.139   5.034  10.858  3.2707  0.2049 -1.7237
  558MOL0     H75275   4.088   4.942  11.086 -1.2631  0.2711 -2.1136
  558MOL0     H75276   4.074   5.104  11.154  0.0253  0.7242  0.3044
  558MOL0     H75277   3.874   5.134  10.978 -3.6984 -1.9394 -0.7190
  558MOL0     H75278   3.923   4.966  10.929  1.6882 -1.4282  1.0436
  558MOL0     H75279   3.821   5.067  11.209  2.2175 -0.0828  0.4965
  558MOL0     H75280   3.830   4.901  11.144  3.6966  0.7990  0.4763
  558MOL0     H75281   3.671   4.921  10.879 -2.4990  0.1141 -2.4807
  558MOL0     H75282   3.310   5.084  10.836  0.2164  0.5776 -0.3903
  558MOL0     H75283   3.431   5.016  10.741  0.3133  2.2001  0.1273
  558MOL0     H75284   3.221   4.895  10.768 -1.4576 -2.6355  1.1319
  558MOL0     H75285   3.289   4.841  10.929  0.7458  0.7327  0.4236
  558MOL0     H75286   3.484   4.747  10.808 -0.0544 -0.7568  1.1502
  558MOL0     H75287   3.422   4.814  10.647 -0.5794 -1.3341 -0.0215
  558MOL0     H75288   3.299   4.592  10.817 -0.8898 -3.2113 -1.3019
  558MOL0     H75289   3.400   4.563  10.681  1.3293  1.0309  0.0649
  558MOL0     H75290   3.056   4.648  10.436  0.2634  0.2894 -1.2355
  558MOL0     H75291   2.945   4.437  10.249 -0.2075 -1.9799  0.5678
  558MOL0     H75292   2.806   4.397  10.343 -0.6383  1.4740  1.8804
  558MOL0     H75293   2.857   4.573  10.344  0.8233  0.8443  1.1216
  558MOL0     H75294   2.787   4.036  10.287 -2.8555  0.6941  0.1631
  558MOL0     H75295   2.607   3.866  10.302 -1.8042 -1.0590  1.2243
  558MOL0     H75296   2.423   3.730  10.369 -0.5198  0.4983  2.4795
  558MOL0     H75297   2.572   3.633  10.318  2.7254  1.6775  2.3396
  558MOL0     H75298   2.497   3.450  10.424 -0.6484  0.1082  1.8227
  558MOL0     H75299   2.378   3.536  10.525  1.6547 -0.3535  1.2972
  558MOL0     H75300   2.343   3.525  10.219 -0.6848  0.3061 -0.0370
  558MOL0     H75301   2.230   3.579  10.336  0.5233 -0.0387 -1.9374
  558MOL0     H75302   2.212   3.322  10.243  0.4726 -0.7656  0.5567
  558MOL0     H75303   2.351   3.294  10.335 -0.8574 -0.2115  1.7844
  558MOL0     H75304   2.079   3.374  10.418  0.7553 -0.2658 -2.4470
  558MOL0     H75305   2.211   3.386  10.539  1.7503  0.0235 -0.0479
  558MOL0     H75306   2.144   3.142  10.412  1.9356 -0.6864  0.5983
  558MOL0     H75307   2.263   3.179  10.546 -0.0405  2.7198  0.9637
  558MOL0     H75308   2.057   3.225  10.687  0.4117 -0.0745  0.4409
  558MOL0     H75309   2.067   3.052  10.631 -5.3388 -0.6524  0.6953
  558MOL0     H75310   1.927   3.107  10.440  0.8181 -2.4297  0.9761
  558MOL0     H75311   1.895   3.267  10.506  0.2260 -0.0643  1.0263
  558MOL0     H75312   2.730   3.761  10.695 -2.0949  0.6594  0.0926
  558MOL0     H75313   2.919   3.929  10.684 -2.7785  1.6292  1.3376
  558MOL0     H75314   3.083   4.216  10.681  0.1641 -1.4688 -1.7008
  558MOL0     H75315   3.253   4.397  10.722  0.2792  3.0546  1.1065
  558MOL0     H75316   4.780   4.846  11.288 -0.2649  0.5015  3.3518
  558MOL0     H75317   4.843   4.626  11.321  0.5258  1.9648  0.5096
  558MOL0     H75318   4.912   4.234  11.049 -0.0920  1.3308  1.3896
  558MOL0     H75319   5.032   4.028  11.083  1.1073  0.3995  0.1498
  558MOL0     H75320   4.944   3.763  11.430  0.3456 -2.5670 -0.3797
  558MOL0     H75321   5.094   3.699  11.363 -1.1381 -1.5878  0.7949
  558MOL0     H75322   5.136   3.810  11.589  0.1809 -2.0046 -1.4250
  558MOL0     H75323   5.093   3.965  11.511 -0.8428  0.5495 -1.7085
  558MOL0     H75324   5.270   3.906  11.326  2.7151 -0.4291 -0.3600
  558MOL0     H75325   5.329   3.793  11.443 -2.0566 -1.7595 -1.8083
  558MOL0     H75326   5.451   4.000  11.495  0.3235  2.2593  1.7877
  558MOL0     H75327   5.326   3.998  11.616  0.1410 -1.8571  0.7459
  558MOL0     H75328   5.220   4.338  11.434 -2.1142 -1.7225  1.6269
  558MOL0     H75329   4.858   3.972  11.462  2.4770 -1.0367 -0.0790
  558MOL0     H75330   4.746   4.201  11.435  1.9807 -0.0217  1.8288
  559MOL0     O75331   2.245   8.920   3.592 -0.5607  0.2440 -0.8239
  559MOL0     C75332   2.319   8.942   3.688 -0.9563 -0.1735 -0.3798
  559MOL0     O75333   2.276   8.990   3.809 -1.1683  0.1733  0.1107
  559MOL0     C75334   2.144   8.970   3.842 -0.1965 -0.7630 -0.1650
  559MOL0     C75335   2.082   9.064   3.931 -0.3901  0.4636  0.4531
  559MOL0     C75336   1.944   9.050   3.968 -0.3060 -0.7643  0.1452
  559MOL0     C75337   1.871   8.942   3.925 -0.6885 -0.7704 -0.0898
  559MOL0     O75338   1.745   8.937   3.969 -0.4321  0.2440  0.4585
  559MOL0     C75339   1.697   8.815   4.027 -0.1557  0.2294 -0.2665
  559MOL0     C75340   1.542   8.822   4.044  0.2028 -0.3162 -0.5784
  559MOL0     C75341   1.463   8.779   3.921 -0.4071 -0.5881  0.6979
  559MOL0     C75342   1.322   8.758   3.953  0.8278 -0.4332  0.5616
  559MOL0     C75343   1.238   8.743   3.824 -0.1825  0.2327  0.1087
  559MOL0     C75344   1.093   8.741   3.851  0.1040 -0.1293  0.0451
  559MOL0     C75345   1.030   8.704   3.718  0.1443  0.2956  0.8301
  559MOL0     C75346   0.882   8.748   3.699  0.2251 -0.3793 -0.0562
  559MOL0     N75347   0.792   8.655   3.768 -0.1794  0.0497 -1.1456
  559MOL0     C75348   0.762   8.674   3.902  0.0421 -0.2925 -0.3162
  559MOL0     C75349   0.733   8.549   3.952 -0.5144  1.1550  0.5839
  559MOL0     C75350   0.695   8.506   4.088  0.1705 -0.2850  0.5174
  559MOL0     C75351   0.551   8.542   4.124  0.7685  0.0556  0.1817
  559MOL0     C75352   0.455   8.453   4.046  0.2931  0.4321  0.7832
  559MOL0     C75353   0.319   8.519   4.049 -0.1819  0.5640 -0.0155
  559MOL0     O75354   0.221   8.488   3.944  0.4562 -0.3466 -0.3843
  559MOL0     C75355   0.153   8.370   3.960  0.5452 -0.1560  0.2156
  559MOL0     C75356   0.220   8.246   3.946 -0.4564  0.2398 -0.2163
  559MOL0     C75357   0.144   8.126   3.957 -0.1449  0.3706 -1.1035
  559MOL0     C75358   0.224   7.996   3.953  0.0049 -0.3213 -0.1282
  559MOL0     C75359  -0.000   8.132   3.966 -0.1566  0.7021 -0.4266
  559MOL0     C75360  -0.090   8.023   3.976 -0.1427  0.1310  0.4039
  559MOL0     O75361  -0.220   8.058   3.988  0.3592  0.3554  0.1228
  559MOL0     C75362  -0.325   7.975   3.949  0.4178  0.8244  0.2115
  559MOL0     C75363  -0.323   7.872   3.852 -0.5256  0.1401  0.5875
  559MOL0     C75364  -0.432   7.789   3.819  0.7175 -0.3948 -0.0129
  559MOL0     C75365  -0.551   7.808   3.893  0.2573  0.2244  0.7148
  559MOL0     O75366  -0.660   7.728   3.855  0.1397 -0.5504  0.6647
  559MOL0     C75367  -0.777   7.801   3.829  0.1651 -0.1100 -0.3660
  559MOL0     C75368  -0.878   7.747   3.727 -0.3293 -0.0184  0.1396
  559MOL0     C75369  -0.906   7.598   3.757 -0.4974  0.1903 -0.2426
  559MOL0     C75370  -0.944   7.516   3.638  0.3950  0.8656 -0.3242
  559MOL0     C75371  -1.094   7.498   3.614  0.6205  0.0373 -0.2861
  559MOL0     C75372  -1.170   7.625   3.602  0.5991  0.1533  0.0755
  559MOL0     C75373  -1.315   7.595   3.585  0.4272  0.5474  0.5726
  559MOL0     C75374  -1.357   7.555   3.448 -0.7763  0.0016 -1.0572
  559MOL0    Cl75375  -1.539   7.536   3.436  0.1515 -0.6867 -0.2945
  559MOL0     C75376  -0.563   7.913   3.991  0.5203 -0.4262  0.2397
  559MOL0     C75377  -0.445   7.990   4.025 -1.3253 -0.7714 -0.3979
  559MOL0     O75378  -0.048   7.908   3.962  0.5716 -0.4891  0.0805
  559MOL0     C75379  -0.060   8.265   3.967 -0.3999  0.2735 -0.2922
  559MOL0     C75380   0.015   8.372   3.975 -0.1036 -0.9119  0.4024
  559MOL0     N75381   0.739   8.459   3.842  0.3806 -0.5154  0.3924
  559MOL0     N75382   0.769   8.527   3.727 -0.0515 -0.2994 -0.3634
  559MOL0     C75383   1.929   8.841   3.855  0.0321  0.8783 -0.6962
  559MOL0     C75384   2.066   8.855   3.806 -0.0333  0.5180  0.8481
  559MOL0     C75385   2.465   8.923   3.667 -0.2007  0.5740  0.4605
  559MOL0     C75386   2.548   8.904   3.779 -0.0777 -0.0243 -0.6500
  559MOL0     C75387   2.677   8.869   3.761  0.3491  0.5253  0.7486
  559MOL0     C75388   2.738   8.847   3.632  0.6613  0.4153 -0.1490
  559MOL0     O75389   2.869   8.798   3.636  0.9514 -0.0335  0.3561
  559MOL0     C75390   2.927   8.742   3.508 -0.1539  0.3732 -0.1306
  559MOL0     C75391   3.040   8.636   3.543  0.4245 -0.1243 -0.4702
  559MOL0     C75392   3.165   8.691   3.594 -0.3715 -0.6481  0.5635
  559MOL0     C75393   3.136   8.779   3.713  0.2329 -0.6498 -0.2868
  559MOL0     C75394   3.262   8.795   3.796  0.2274  0.0227  0.3258
  559MOL0     C75395   3.355   8.821   3.870 -0.3292  0.6609  0.0210
  559MOL0     C75396   2.659   8.859   3.521 -0.0995  0.2092 -0.5025
  559MOL0     C75397   2.526   8.901   3.538  0.1799 -0.0926 -0.9325
  559MOL0     H75398   2.140   9.143   3.978 -0.8613  0.8433  0.4126
  559MOL0     H75399   1.893   9.115   4.039 -3.5929 -1.4133 -1.3823
  559MOL0     H75400   1.720   8.727   3.968 -2.5640 -0.6976  0.0557
  559MOL0     H75401   1.744   8.803   4.125  0.5282 -1.8535 -0.8028
  559MOL0     H75402   1.511   8.758   4.128  0.5790  2.1791  1.5921
  559MOL0     H75403   1.512   8.921   4.080  1.0533 -0.7051  1.3484
  559MOL0     H75404   1.472   8.863   3.852  1.4770 -0.7587  0.6765
  559MOL0     H75405   1.497   8.685   3.875  0.5006 -0.3426  0.8550
  559MOL0     H75406   1.306   8.667   4.012  1.0864 -0.2684  0.8883
  559MOL0     H75407   1.292   8.849   4.005 -1.3405 -0.3260 -0.7564
  559MOL0     H75408   1.263   8.820   3.751  0.5029 -2.1068 -2.2846
  559MOL0     H75409   1.263   8.648   3.775  0.0404  0.9663 -1.2359
  559MOL0     H75410   1.052   8.666   3.918 -0.1068  1.4960  1.8161
  559MOL0     H75411   1.053   8.833   3.895  0.3694 -0.9496  2.1222
  559MOL0     H75412   1.092   8.751   3.641  3.0995 -2.8290  1.0684
  559MOL0     H75413   1.043   8.597   3.699  3.4931  0.6092  0.7984
  559MOL0     H75414   0.865   8.750   3.591  0.1499  0.1691 -0.0366
  559MOL0     H75415   0.881   8.851   3.734  3.3639  0.4798 -2.0989
  559MOL0     H75416   0.755   8.767   3.958 -0.6574  0.6282 -1.8603
  559MOL0     H75417   0.725   8.401   4.086 -0.1503 -0.4023  1.4065
  559MOL0     H75418   0.756   8.547   4.169  0.7469  0.6555 -0.3785
  559MOL0     H75419   0.549   8.647   4.093  1.3535  0.0638  0.1520
  559MOL0     H75420   0.536   8.552   4.232 -0.4026  0.6879 -0.0253
  559MOL0     H75421   0.445   8.351   4.085  0.3350  0.2292  0.2754
  559MOL0     H75422   0.486   8.440   3.942  0.5930  1.3968  0.7356
  559MOL0     H75423   0.323   8.627   4.033  0.8278  0.4426 -0.6752
  559MOL0     H75424   0.275   8.497   4.147 -0.2377 -2.0660 -0.5420
  559MOL0     H75425   0.326   8.238   3.924 -0.8254  0.6560 -2.3310
  559MOL0     H75426   0.193   7.936   4.039  0.0327  1.0386  0.8720
  559MOL0     H75427   0.209   7.944   3.858  0.0087 -2.3512  0.9350
  559MOL0     H75428   0.330   8.019   3.969 -0.2007  2.4875 -2.0582
  559MOL0     H75429  -0.239   7.860   3.784 -0.3057  0.4384  0.8056
  559MOL0     H75430  -0.421   7.715   3.740 -0.1808  0.2046 -0.7189
  559MOL0     H75431  -0.838   7.815   3.919 -0.2235  1.0325 -0.7952
  559MOL0     H75432  -0.742   7.896   3.788 -0.4941 -0.1254 -0.9807
  559MOL0     H75433  -0.973   7.800   3.721 -0.8409 -0.9308 -0.1320
  559MOL0     H75434  -0.826   7.770   3.633 -0.7195  2.5282  0.4899
  559MOL0     H75435  -0.986   7.584   3.831 -0.1661  1.8526  0.4744
  559MOL0     H75436  -0.813   7.557   3.797 -0.6370 -0.4694 -0.5777
  559MOL0     H75437  -0.903   7.558   3.545 -3.2594  1.9761 -1.5788
  559MOL0     H75438  -0.896   7.419   3.651 -0.4055  0.3916 -0.8817
  559MOL0     H75439  -1.125   7.432   3.696  2.3994 -1.0117 -0.3962
  559MOL0     H75440  -1.117   7.449   3.520 -0.4298  2.0130 -1.1006
  559MOL0     H75441  -1.145   7.678   3.694  2.4161 -1.0162  0.3055
  559MOL0     H75442  -1.125   7.677   3.517  0.5365  0.9174  0.4973
  559MOL0     H75443  -1.373   7.681   3.619  0.9062  0.6494  1.1660
  559MOL0     H75444  -1.331   7.509   3.651  2.9633 -0.0513  0.5117
  559MOL0     H75445  -1.303   7.465   3.418  2.0863  1.2429 -0.0506
  559MOL0     H75446  -1.328   7.633   3.377  2.7656  1.5880  1.7819
  559MOL0     H75447  -0.654   7.935   4.046 -0.9222 -2.4611 -1.1554
  559MOL0     H75448  -0.450   8.077   4.089  0.3820 -0.5752 -0.4885
  559MOL0     H75449  -0.166   8.288   3.971 -0.1934  1.2456 -0.1795
  559MOL0     H75450  -0.036   8.468   3.974 -0.7318 -1.2449 -1.2318
  559MOL0     H75451   1.866   8.757   3.826  1.7833 -0.6631 -0.2287
  559MOL0     H75452   2.114   8.776   3.749 -2.1298 -0.4976  0.4009
  559MOL0     H75453   2.512   8.903   3.882  2.9706 -0.8867  0.5139
  559MOL0     H75454   2.739   8.843   3.847  0.7140  0.4570  0.4694
  559MOL0     H75455   2.851   8.679   3.461  1.4754 -1.2165 -0.7750
  559MOL0     H75456   2.963   8.816   3.436  1.3994  2.6343  2.7446
  559MOL0     H75457   3.060   8.580   3.451  0.5941 -0.4222 -0.2518
  559MOL0     H75458   2.998   8.571   3.620 -0.1077  0.5984 -0.1289
  559MOL0     H75459   3.213   8.748   3.514 -0.5013  1.3893  1.8518
  559MOL0     H75460   3.233   8.608   3.611 -0.3509 -0.2298  2.9364
  559MOL0     H75461   3.063   8.746   3.789 -1.4713  0.1995 -1.5051
  559MOL0     H75462   3.104   8.874   3.669  3.2440  0.4404 -0.3559
  559MOL0     H75463   3.431   8.857   3.936  1.0929 -0.7473 -0.7807
  559MOL0     H75464   2.694   8.842   3.420  0.6618  1.7311 -0.5289
  559MOL0     H75465   2.459   8.916   3.453  0.8436  0.2366 -1.4063
  560MOL0     O75466   0.996   6.835   8.599  0.0562 -0.1114  0.2685
  560MOL0     C75467   1.092   6.901   8.547 -0.0885 -0.0722 -0.4531
  560MOL0     O75468   1.081   7.019   8.478  0.4981  0.4531 -0.5325
  560MOL0     C75469   0.950   7.061   8.456 -1.2707 -0.7031  0.1512
  560MOL0     C75470   0.876   7.024   8.348 -0.0412 -0.1368 -0.6216
  560MOL0     C75471   0.745   7.082   8.333  0.2838 -0.5614  0.8084
  560MOL0     C75472   0.694   7.175   8.433  0.6487  0.7494 -0.7389
  560MOL0     O75473   0.565   7.214   8.434  0.0148  0.1435  0.3015
  560MOL0     C75474   0.473   7.148   8.348  0.1619  0.1385  0.7528
  560MOL0     C75475   0.333   7.196   8.387 -0.0266 -0.6359 -0.0650
  560MOL0     C75476   0.226   7.180   8.278 -0.3676 -0.4988 -0.0229
  560MOL0     C75477   0.090   7.229   8.329  0.0414 -0.6190  0.3299
  560MOL0     C75478  -0.019   7.184   8.236  0.3462  0.1801 -0.0477
  560MOL0     C75479  -0.160   7.220   8.284 -0.4016  0.2204  0.6144
  560MOL0     C75480  -0.212   7.163   8.415  0.4592 -0.7612 -0.0348
  560MOL0     C75481  -0.367   7.173   8.433  0.5175  0.2661 -0.1995
  560MOL0     N75482  -0.420   7.158   8.576 -0.7641 -0.1775  0.1738
  560MOL0     C75483  -0.438   7.037   8.641 -0.4533 -0.5757 -0.6252
  560MOL0     C75484  -0.521   7.063   8.744  0.2458 -0.3147  0.5196
  560MOL0     C75485  -0.584   6.968   8.838  0.1917  0.0783  0.4155
  560MOL0     C75486  -0.708   6.909   8.777  0.2526  0.3068  0.5650
  560MOL0     C75487  -0.820   7.011   8.744  0.7564 -0.1325 -0.6599
  560MOL0     C75488  -0.951   6.932   8.703  0.4872 -0.7922  0.1099
  560MOL0     O75489  -1.063   7.012   8.676  0.0241 -0.0900  0.2628
  560MOL0     C75490  -1.187   6.952   8.686  0.0495 -0.5285  0.2558
  560MOL0     C75491  -1.210   6.821   8.636 -0.1374  0.2681  0.3280
  560MOL0     C75492  -1.345   6.779   8.606 -0.7249 -0.0085  0.0363
  560MOL0     C75493  -1.368   6.628   8.559  0.4311 -0.9147 -0.2857
  560MOL0     C75494  -1.461   6.864   8.624 -0.7670 -0.4361  0.2715
  560MOL0     C75495  -1.609   6.836   8.594 -0.4582  0.5063  0.4644
  560MOL0     O75496  -1.701   6.935   8.635 -0.4239  0.7663 -0.2259
  560MOL0     C75497  -1.840   6.910   8.651 -0.6881  0.3244  0.4850
  560MOL0     C75498  -1.913   7.032   8.675  0.1558 -0.2145 -0.3674
  560MOL0     C75499  -2.051   7.033   8.693 -0.4406 -0.2751 -0.1303
  560MOL0     C75500  -2.125   6.911   8.675 -0.7521  0.6663  0.6809
  560MOL0     O75501  -2.261   6.908   8.667 -0.3401  0.3789 -0.4306
  560MOL0     C75502  -2.333   7.016   8.724  0.6756 -0.0976 -0.0799
  560MOL0     C75503  -2.478   6.979   8.754 -0.1086  0.1206  0.4450
  560MOL0     C75504  -2.512   6.850   8.840 -0.7151  0.3683 -0.3343
  560MOL0     C75505  -2.648   6.857   8.907  0.3624  0.3539  0.4268
  560MOL0     C75506  -2.670   6.743   8.996 -0.1107 -0.4926 -0.4454
  560MOL0     C75507  -2.808   6.752   9.068 -0.6006 -0.2400 -0.4809
  560MOL0     C75508  -2.833   6.648   9.182  0.5356  0.2651  0.6746
  560MOL0     C75509  -2.904   6.524   9.139  0.2726 -0.8933 -0.5355
  560MOL0    Cl75510  -3.070   6.574   9.086  0.2154  0.1534 -0.4807
  560MOL0     C75511  -2.050   6.796   8.644  0.2901 -0.1643 -0.5936
  560MOL0     C75512  -1.910   6.789   8.645 -0.0706 -0.5389  0.3315
  560MOL0     O75513  -1.638   6.720   8.560  0.3416  0.7808  0.0628
  560MOL0     C75514  -1.431   6.991   8.685  0.4767  0.3974  0.8546
  560MOL0     C75515  -1.300   7.032   8.713  0.5915 -0.6165  0.5018
  560MOL0     N75516  -0.555   7.195   8.726  0.7410 -0.2455 -0.7847
  560MOL0     N75517  -0.492   7.249   8.628  0.5072 -0.5279 -0.2794
  560MOL0     C75518   0.775   7.208   8.540 -0.3917 -0.3602  0.6724
  560MOL0     C75519   0.899   7.152   8.552 -0.1047 -0.0927 -0.5325
  560MOL0     C75520   1.231   6.868   8.579 -0.4859  0.0477  0.0387
  560MOL0     C75521   1.272   6.765   8.657 -0.1633 -0.9872 -1.3220
  560MOL0     C75522   1.406   6.736   8.679 -0.1408 -0.3278  0.1823
  560MOL0     C75523   1.509   6.807   8.628  0.4063 -0.3316  0.2660
  560MOL0     O75524   1.636   6.766   8.667 -0.7023  0.1767 -0.0854
  560MOL0     C75525   1.747   6.865   8.673  0.1112 -0.2992 -0.0762
  560MOL0     C75526   1.857   6.813   8.767 -0.7977  0.0779  0.7335
  560MOL0     C75527   1.821   6.784   8.910  0.5553 -0.4010 -0.0649
  560MOL0     C75528   1.761   6.913   8.983  0.3692 -0.8821  0.5133
  560MOL0     C75529   1.845   7.033   8.977 -0.9346 -0.1642 -1.0237
  560MOL0     C75530   1.911   7.136   8.977  0.3856  0.1614 -0.8862
  560MOL0     C75531   1.470   6.909   8.539 -0.8665 -0.1724 -0.3023
  560MOL0     C75532   1.333   6.940   8.513 -0.2705  0.1692 -0.1995
  560MOL0     H75533   0.906   6.947   8.279 -0.9401  0.5409 -1.8076
  560MOL0     H75534   0.682   7.034   8.259  0.2352  0.4574  0.1694
  560MOL0     H75535   0.499   7.164   8.243  2.4555 -3.6727  0.5641
  560MOL0     H75536   0.464   7.039   8.356  2.3516 -0.2672 -1.3275
  560MOL0     H75537   0.305   7.141   8.478  4.3460 -2.7671  0.2750
  560MOL0     H75538   0.336   7.304   8.403 -0.3687 -0.2989 -2.0663
  560MOL0     H75539   0.259   7.226   8.184 -2.3472 -0.8870 -0.9488
  560MOL0     H75540   0.211   7.072   8.268  2.0499 -1.0202  1.2882
  560MOL0     H75541   0.084   7.194   8.433 -0.5352  0.9203  0.8386
  560MOL0     H75542   0.083   7.337   8.339  0.4079 -0.3694 -1.6717
  560MOL0     H75543  -0.001   7.223   8.136  0.5911 -0.7910 -0.3982
  560MOL0     H75544  -0.020   7.075   8.228  2.7515  0.1342 -0.3714
  560MOL0     H75545  -0.179   7.327   8.282 -1.8762 -0.0304 -0.0805
  560MOL0     H75546  -0.226   7.182   8.206  0.9404 -1.3133  0.1790
  560MOL0     H75547  -0.176   7.061   8.434  1.1730 -0.0784  2.7093
  560MOL0     H75548  -0.164   7.223   8.493 -0.4283 -0.4451  0.2791
  560MOL0     H75549  -0.408   7.097   8.366 -3.9060  2.4742 -0.3506
  560MOL0     H75550  -0.402   7.275   8.412 -1.1552 -0.2519 -0.0844
  560MOL0     H75551  -0.384   6.946   8.616  2.6031  2.0980 -4.9928
  560MOL0     H75552  -0.514   6.892   8.873  1.3549  0.6702 -0.5725
  560MOL0     H75553  -0.606   7.032   8.925 -3.1393 -0.1082 -0.1633
  560MOL0     H75554  -0.747   6.833   8.845 -0.9479  0.6981  0.3444
  560MOL0     H75555  -0.676   6.853   8.688 -2.0634 -5.1483  2.7150
  560MOL0     H75556  -0.787   7.067   8.656 -0.2137 -1.9532 -2.2617
  560MOL0     H75557  -0.852   7.070   8.830  0.4615  0.1163 -0.9401
  560MOL0     H75558  -0.976   6.857   8.779 -0.6583  0.7467  1.3058
  560MOL0     H75559  -0.925   6.879   8.611  1.0962 -1.0372  0.4206
  560MOL0     H75560  -1.136   6.744   8.615  1.0966  1.7360 -0.9598
  560MOL0     H75561  -1.280   6.564   8.548 -0.5281 -1.9958 -2.2196
  560MOL0     H75562  -1.437   6.579   8.628 -1.1158  0.8826 -0.4533
  560MOL0     H75563  -1.407   6.639   8.457  1.6821  2.5462 -0.5313
  560MOL0     H75564  -1.853   7.122   8.682 -1.6334  0.9085  1.7554
  560MOL0     H75565  -2.109   7.124   8.702 -0.8425 -0.5906  0.6075
  560MOL0     H75566  -2.282   7.066   8.807  3.4788 -1.9671 -0.5611
  560MOL0     H75567  -2.344   7.096   8.651  0.2818  0.8113  0.9403
  560MOL0     H75568  -2.524   7.061   8.810 -2.2482  0.0184 -1.0123
  560MOL0     H75569  -2.516   6.973   8.651  2.3772  0.2579 -0.5544
  560MOL0     H75570  -2.432   6.834   8.912 -0.4528 -1.5886 -0.9925
  560MOL0     H75571  -2.499   6.758   8.782 -1.0240  0.3423 -0.3666
  560MOL0     H75572  -2.658   6.945   8.971 -0.7624  0.7003 -0.1891
  560MOL0     H75573  -2.722   6.861   8.826  3.6096 -1.1802 -2.8836
  560MOL0     H75574  -2.595   6.742   9.075 -0.0564 -3.5040 -0.4036
  560MOL0     H75575  -2.662   6.646   8.945  0.5930 -1.6490  1.7344
  560MOL0     H75576  -2.819   6.853   9.110 -1.6845  0.0146 -1.3161
  560MOL0     H75577  -2.887   6.753   8.992 -2.4894  3.8011  1.2395
  560MOL0     H75578  -2.890   6.693   9.264 -0.5683 -0.5864  0.3948
  560MOL0     H75579  -2.735   6.616   9.219  0.4760  0.5870  1.1265
  560MOL0     H75580  -2.919   6.476   9.236 -2.6210  2.6681  1.0298
  560MOL0     H75581  -2.852   6.466   9.062  0.8134 -1.3287  0.1439
  560MOL0     H75582  -2.099   6.699   8.642  3.2526 -2.0892  3.4818
  560MOL0     H75583  -1.870   6.690   8.626 -0.9954 -0.9868  0.6489
  560MOL0     H75584  -1.506   7.065   8.712  1.5382  0.9896  2.3199
  560MOL0     H75585  -1.276   7.125   8.763 -0.3284 -1.2350  2.1588
  560MOL0     H75586   0.744   7.268   8.625 -0.3413  3.6728 -1.9157
  560MOL0     H75587   0.951   7.179   8.643 -0.1080 -2.2686  0.1558
  560MOL0     H75588   1.198   6.700   8.703 -1.2234 -0.2937 -2.0002
  560MOL0     H75589   1.427   6.652   8.745 -0.3698 -2.0984 -1.9033
  560MOL0     H75590   1.801   6.892   8.581  1.3885  0.6267  0.9062
  560MOL0     H75591   1.712   6.963   8.708 -0.5923  0.1404 -1.8681
  560MOL0     H75592   1.944   6.879   8.757 -1.0565  0.6718  2.1756
  560MOL0     H75593   1.898   6.718   8.730  0.1263  1.1903 -1.2498
  560MOL0     H75594   1.902   6.738   8.968 -0.1308 -1.8240 -0.1843
  560MOL0     H75595   1.738   6.713   8.909 -1.0849  1.4221 -2.0198
  560MOL0     H75596   1.737   6.882   9.084 -1.3909  1.1399  0.7891
  560MOL0     H75597   1.662   6.942   8.946  0.4879  0.6951  1.3311
  560MOL0     H75598   1.945   7.238   8.979 -4.5367  2.1668  2.5821
  560MOL0     H75599   1.553   6.962   8.493  1.8609 -2.7641  1.2653
  560MOL0     H75600   1.321   7.034   8.459  1.1901  0.7306  0.3929
  561MOL0     O75601   1.645   2.169   5.615 -0.0200  0.3729  1.2246
  561MOL0     C75602   1.722   2.238   5.540  0.6649  0.0627  0.6396
  561MOL0     O75603   1.712   2.270   5.406  0.5382 -1.3663  0.5662
  561MOL0     C75604   1.597   2.228   5.341 -0.2116 -0.1043  0.3020
  561MOL0     C75605   1.492   2.308   5.296  0.7155 -0.1556  0.2909
  561MOL0     C75606   1.385   2.256   5.216 -0.3318 -0.3027  0.1058
  561MOL0     C75607   1.382   2.116   5.177  0.7699  0.0673 -0.3520
  561MOL0     O75608   1.273   2.068   5.103 -0.1424 -0.3023  0.0460
  561MOL0     C75609   1.237   1.925   5.125  0.9029 -0.7972  0.0724
  561MOL0     C75610   1.083   1.928   5.144  1.1228 -0.0831 -0.4809
  561MOL0     C75611   1.015   1.978   5.024 -0.2924 -0.5576  0.5453
  561MOL0     C75612   0.862   1.982   5.042 -0.2264  0.0174  0.1743
  561MOL0     C75613   0.791   2.006   4.910 -0.2249 -0.5423  0.0260
  561MOL0     C75614   0.642   1.963   4.908 -0.7224 -0.2396  0.7039
  561MOL0     C75615   0.570   2.019   4.782  0.5392 -1.1808  1.1088
  561MOL0     C75616   0.441   1.944   4.750 -0.2862  0.1252  1.0486
  561MOL0     N75617   0.371   1.987   4.621 -0.0510 -0.1303  0.2225
  561MOL0     C75618   0.269   2.079   4.618 -0.0323  0.0907 -0.3242
  561MOL0     C75619   0.247   2.102   4.485  0.2918  0.8270  0.4095
  561MOL0     C75620   0.164   2.209   4.414  0.0770 -0.4522 -1.0354
  561MOL0     C75621   0.251   2.307   4.335 -1.2265 -0.1210  0.3206
  561MOL0     C75622   0.316   2.422   4.412  0.1409 -0.5947 -0.0884
  561MOL0     C75623   0.232   2.547   4.439  0.4851  0.4190  0.3371
  561MOL0     O75624   0.103   2.518   4.503 -0.8649  0.0583  0.4719
  561MOL0     C75625   0.011   2.610   4.465  1.3073  0.0795 -0.0599
  561MOL0     C75626   0.029   2.736   4.417  0.3600 -0.3732  0.5888
  561MOL0     C75627  -0.083   2.817   4.381 -0.2626 -0.6551  0.1531
  561MOL0     C75628  -0.041   2.943   4.305  0.4847 -0.0627 -1.0517
  561MOL0     C75629  -0.211   2.771   4.400  0.2888  0.2202 -0.5124
  561MOL0     C75630  -0.332   2.844   4.368 -0.2755 -0.4253 -0.1111
  561MOL0     O75631  -0.433   2.852   4.464 -0.7124 -0.1336  0.0375
  561MOL0     C75632  -0.517   2.961   4.467 -0.9720  0.0893 -0.1443
  561MOL0     C75633  -0.655   2.932   4.486 -0.2900  0.0488  0.4720
  561MOL0     C75634  -0.752   3.028   4.492 -0.7055  0.0286 -0.2358
  561MOL0     C75635  -0.712   3.165   4.469 -0.5984 -0.2416 -0.4704
  561MOL0     O75636  -0.803   3.271   4.467  0.7479  0.4156 -0.0605
  561MOL0     C75637  -0.814   3.350   4.596  0.5493  0.4884  0.2095
  561MOL0     C75638  -0.918   3.466   4.582  0.3015  0.7087 -0.0455
  561MOL0     C75639  -1.044   3.428   4.496  0.0504 -1.6953 -0.4633
  561MOL0     C75640  -1.148   3.540   4.544  0.0183 -0.5028 -0.4257
  561MOL0     C75641  -1.224   3.505   4.672 -0.1946  0.3716 -0.7285
  561MOL0     C75642  -1.314   3.610   4.726 -0.5864  1.0466  0.1251
  561MOL0     C75643  -1.378   3.572   4.863 -0.8870  0.8562  0.7741
  561MOL0     C75644  -1.475   3.675   4.922 -0.0704 -0.5571 -0.0024
  561MOL0    Cl75645  -1.380   3.799   5.020 -0.2009  0.1078 -0.3310
  561MOL0     C75646  -0.575   3.190   4.450  0.4048 -0.4737  0.6488
  561MOL0     C75647  -0.479   3.096   4.451 -0.5172  0.9081  0.7087
  561MOL0     O75648  -0.345   2.891   4.261  0.4353 -0.5378  0.2987
  561MOL0     C75649  -0.226   2.648   4.450 -0.8380  0.1110 -0.7123
  561MOL0     C75650  -0.120   2.554   4.482  0.3103 -0.2415 -0.0797
  561MOL0     N75651   0.336   2.019   4.414  0.4190  0.4423 -0.3445
  561MOL0     N75652   0.410   1.961   4.496  0.9293 -0.6108 -0.7295
  561MOL0     C75653   1.491   2.042   5.228  0.3386  0.0304  0.0270
  561MOL0     C75654   1.595   2.090   5.303 -0.6274 -0.1441 -0.7251
  561MOL0     C75655   1.840   2.283   5.607  0.3306 -0.3580 -0.3082
  561MOL0     C75656   1.958   2.317   5.534 -0.2621  0.0481 -0.2466
  561MOL0     C75657   2.075   2.338   5.606  0.4938 -0.0509  0.1259
  561MOL0     C75658   2.080   2.349   5.745  0.2706 -0.0547  0.1971
  561MOL0     O75659   2.198   2.388   5.802 -0.0581 -0.0034  0.7763
  561MOL0     C75660   2.204   2.373   5.945 -0.1767 -0.0592  0.1583
  561MOL0     C75661   2.351   2.398   5.983  0.8145 -0.5617  0.5486
  561MOL0     C75662   2.388   2.547   6.001  0.7863 -1.2670  0.4739
  561MOL0     C75663   2.521   2.570   6.076  0.0636 -0.0563 -0.2036
  561MOL0     C75664   2.547   2.476   6.184 -0.4046  0.4022  0.0993
  561MOL0     C75665   2.580   2.404   6.276 -0.3730  0.5646 -0.1743
  561MOL0     C75666   1.962   2.326   5.816  0.4897 -0.5297  0.3249
  561MOL0     C75667   1.846   2.288   5.746  0.4226  0.0894  0.0137
  561MOL0     H75668   1.498   2.414   5.320  1.3229 -0.1161 -0.0146
  561MOL0     H75669   1.302   2.322   5.193 -0.3154 -0.1941  0.3507
  561MOL0     H75670   1.266   1.860   5.042  0.4305 -0.7870 -0.1030
  561MOL0     H75671   1.284   1.883   5.215  3.7519 -0.3822 -1.1099
  561MOL0     H75672   1.047   1.833   5.184  0.9754  0.8060  1.6274
  561MOL0     H75673   1.058   1.983   5.235 -0.8065 -2.3865  0.4714
  561MOL0     H75674   1.042   2.083   5.008 -1.4396 -0.4279 -0.7171
  561MOL0     H75675   1.040   1.918   4.936 -1.0232 -2.1461  1.3870
  561MOL0     H75676   0.825   1.890   5.087 -0.5064  0.0842  0.0858
  561MOL0     H75677   0.824   2.051   5.119 -2.5382  0.4622 -1.2476
  561MOL0     H75678   0.799   2.110   4.879  1.4128 -0.4083  0.7932
  561MOL0     H75679   0.847   1.948   4.835 -0.0166  1.3082 -1.3262
  561MOL0     H75680   0.633   1.854   4.910 -3.6194 -0.0842  0.4136
  561MOL0     H75681   0.585   2.003   4.993 -1.4541  0.1573  0.0394
  561MOL0     H75682   0.531   2.119   4.804  1.2528 -1.2047  2.5648
  561MOL0     H75683   0.643   2.039   4.702  1.1615  2.0797  2.3159
  561MOL0     H75684   0.372   1.952   4.834  0.0254  1.2330  1.2148
  561MOL0     H75685   0.472   1.841   4.730 -2.8444 -0.1907 -1.9799
  561MOL0     H75686   0.221   2.137   4.696  2.0925  2.5659 -0.7334
  561MOL0     H75687   0.105   2.156   4.339  1.0616 -0.4397 -1.8473
  561MOL0     H75688   0.109   2.265   4.490  1.4889 -2.2896  1.5261
  561MOL0     H75689   0.199   2.350   4.249 -1.4849  2.8523  1.8266
  561MOL0     H75690   0.334   2.245   4.300  0.6181  2.8150 -0.9237
  561MOL0     H75691   0.403   2.453   4.354  0.8298  1.5989  1.9583
  561MOL0     H75692   0.355   2.389   4.508  1.8914 -0.5648 -0.7589
  561MOL0     H75693   0.224   2.600   4.344 -1.2517  3.2227  1.9084
  561MOL0     H75694   0.288   2.605   4.513  1.5500 -0.2533  0.0883
  561MOL0     H75695   0.130   2.775   4.417 -0.1945  1.3896  3.2670
  561MOL0     H75696  -0.118   3.021   4.306  1.1784  0.6342 -0.5657
  561MOL0     H75697   0.037   2.982   4.370 -0.3249 -0.9713  0.5358
  561MOL0     H75698   0.004   2.932   4.206 -0.8878  3.5142 -2.2506
  561MOL0     H75699  -0.682   2.827   4.492  2.0847 -0.5546  2.0643
  561MOL0     H75700  -0.856   2.996   4.497 -1.1010  0.9587 -1.7515
  561MOL0     H75701  -0.848   3.292   4.682  0.7228  2.1846  1.4900
  561MOL0     H75702  -0.721   3.402   4.621 -0.2029  1.3539  1.3712
  561MOL0     H75703  -0.947   3.500   4.682  1.0867 -0.4596  0.6128
  561MOL0     H75704  -0.859   3.542   4.530  0.0505  2.9435  2.6723
  561MOL0     H75705  -1.077   3.326   4.518  1.7155 -2.2166 -0.2521
  561MOL0     H75706  -1.022   3.417   4.389  4.7971  1.2585 -0.0729
  561MOL0     H75707  -1.105   3.640   4.549 -1.2523  0.0014  3.4182
  561MOL0     H75708  -1.229   3.549   4.471  0.1219 -1.2625 -0.6439
  561MOL0     H75709  -1.164   3.468   4.757 -0.7980 -1.4209 -1.0328
  561MOL0     H75710  -1.291   3.420   4.657 -2.6322  2.0241  0.2891
  561MOL0     H75711  -1.262   3.705   4.741 -0.4664  1.2151 -1.1919
  561MOL0     H75712  -1.396   3.615   4.653 -1.0123 -1.8025  0.3122
  561MOL0     H75713  -1.300   3.556   4.938 -1.8713 -1.8987  1.3128
  561MOL0     H75714  -1.429   3.476   4.855  2.3025 -1.0356  1.3574
  561MOL0     H75715  -1.551   3.624   4.983 -0.0999  1.6915  1.9773
  561MOL0     H75716  -1.515   3.728   4.835 -0.7205  2.3787  1.9574
  561MOL0     H75717  -0.543   3.292   4.428 -0.3445 -0.3994 -0.1521
  561MOL0     H75718  -0.375   3.116   4.430 -0.4298 -0.5711 -0.4091
  561MOL0     H75719  -0.323   2.606   4.476  0.6382 -1.1124  3.7925
  561MOL0     H75720  -0.137   2.453   4.518  1.1456 -0.8451 -1.3030
  561MOL0     H75721   1.499   1.938   5.200 -1.0925 -0.4030  1.0942
  561MOL0     H75722   1.682   2.025   5.307 -0.8721 -0.4084  1.6454
  561MOL0     H75723   1.976   2.331   5.428  2.0509 -2.8803 -0.3778
  561MOL0     H75724   2.171   2.358   5.559  0.7788 -0.8825  0.3378
  561MOL0     H75725   2.135   2.435   6.003 -1.5681 -0.4815 -0.9635
  561MOL0     H75726   2.187   2.268   5.973  1.1386 -0.3590 -0.1220
  561MOL0     H75727   2.417   2.353   5.908  1.3678  0.4083  0.4363
  561MOL0     H75728   2.371   2.345   6.076  0.0894 -0.9948  0.4661
  561MOL0     H75729   2.310   2.611   6.044  1.1849  0.5696 -1.3748
  561MOL0     H75730   2.395   2.583   5.898 -0.3903 -2.1340  0.0734
  561MOL0     H75731   2.516   2.672   6.115 -4.0631 -0.5451  0.9437
  561MOL0     H75732   2.600   2.560   6.001  0.4781  0.4355  0.1558
  561MOL0     H75733   2.594   2.335   6.357  1.4806 -1.7420 -2.2643
  561MOL0     H75734   1.962   2.329   5.925  1.1943 -0.9058  0.3364
  561MOL0     H75735   1.760   2.263   5.808 -0.7015  0.7760 -1.2127
  562MOL0     O75736   0.425   8.298   4.818 -0.3802  0.6293  0.5055
  562MOL0     C75737   0.467   8.406   4.836 -0.4152 -0.4417  0.1540
  562MOL0     O75738   0.392   8.512   4.873  0.9098 -0.1597  0.2556
  562MOL0     C75739   0.262   8.500   4.911 -0.4524  0.2267 -0.5829
  562MOL0     C75740   0.207   8.388   4.967  0.5037 -0.5983 -0.1349
  562MOL0     C75741   0.071   8.394   4.991  0.4693  0.3407  0.1768
  562MOL0     C75742  -0.013   8.500   4.945  0.4307  0.4878  0.0602
  562MOL0     O75743  -0.148   8.485   4.973  0.4869  0.3181  0.3773
  562MOL0     C75744  -0.218   8.612   4.994  0.6537  0.2816 -0.1733
  562MOL0     C75745  -0.348   8.570   5.075  0.0039  0.8430 -0.3355
  562MOL0     C75746  -0.441   8.694   5.106 -0.2324 -0.4522  0.0048
  562MOL0     C75747  -0.589   8.665   5.063  0.1355 -0.1608 -0.2761
  562MOL0     C75748  -0.675   8.794   5.036 -0.7413  1.2522  0.0130
  562MOL0     C75749  -0.737   8.860   5.162 -0.4039 -0.5579  0.1764
  562MOL0     C75750  -0.849   8.960   5.130  0.0447  0.2615  0.0092
  562MOL0     C75751  -0.882   9.050   5.248  0.0143  0.9317  0.6715
  562MOL0     N75752  -1.003   9.121   5.230  0.6854  0.5404  0.3568
  562MOL0     C75753  -1.120   9.105   5.297  0.8210  0.7705 -0.0986
  562MOL0     C75754  -1.193   9.215   5.269 -0.3434 -0.3681 -0.6074
  562MOL0     C75755  -1.331   9.242   5.326 -0.8427 -0.8320  0.6420
  562MOL0     C75756  -1.406   9.327   5.222  0.2167  0.4211  0.0268
  562MOL0     C75757  -1.540   9.387   5.280  0.0255  0.2158  0.1916
  562MOL0     C75758  -1.658   9.291   5.303  0.5329  0.0697  0.4266
  562MOL0     O75759  -1.639   9.182   5.400 -0.6650 -0.1703 -0.0988
  562MOL0     C75760  -1.743   9.098   5.436 -0.8711 -0.3042  0.4592
  562MOL0     C75761  -1.717   9.009   5.542 -0.5974  0.9422 -0.1958
  562MOL0     C75762  -1.814   8.920   5.576 -0.0290  0.3093 -0.9550
  562MOL0     C75763  -1.774   8.814   5.681  0.7589 -0.2077 -0.7378
  562MOL0     C75764  -1.945   8.918   5.515 -0.7485 -0.1217  0.5833
  562MOL0     C75765  -2.064   8.836   5.561 -1.0452 -0.4402 -0.0446
  562MOL0     O75766  -2.047   8.728   5.636 -0.6388 -0.6418  0.9796
  562MOL0     C75767  -2.161   8.670   5.675 -0.0249 -0.3775 -0.1493
  562MOL0     C75768  -2.245   8.730   5.778  0.2004 -0.0663 -0.1705
  562MOL0     C75769  -2.346   8.650   5.834 -1.0601 -0.0428 -0.2869
  562MOL0     C75770  -2.368   8.518   5.798  0.5543  0.1377  0.1208
  562MOL0     O75771  -2.474   8.457   5.866  0.1050  0.3315  0.6083
  562MOL0     C75772  -2.512   8.326   5.833 -0.2124  0.3990 -0.7201
  562MOL0     C75773  -2.647   8.301   5.893  0.6098 -0.0114  0.2897
  562MOL0     C75774  -2.703   8.165   5.834  0.2649  0.0495  0.4329
  562MOL0     C75775  -2.839   8.119   5.905 -0.1083  0.3957  0.1911
  562MOL0     C75776  -2.880   7.983   5.858  0.6998  1.0798  0.2389
  562MOL0     C75777  -2.981   7.926   5.957  0.5225 -0.2350 -0.1900
  562MOL0     C75778  -2.922   7.879   6.091 -1.0024 -0.1507  0.3316
  562MOL0     C75779  -2.977   7.953   6.208  0.6334 -0.2077 -0.0690
  562MOL0    Cl75780  -3.151   7.906   6.231 -0.2681  0.1811 -0.1138
  562MOL0     C75781  -2.281   8.455   5.699  0.2950  1.2079 -0.6403
  562MOL0     C75782  -2.179   8.535   5.637 -0.0197 -0.2511  0.3574
  562MOL0     O75783  -2.171   8.874   5.515  0.6188 -0.0441  0.2913
  562MOL0     C75784  -1.960   9.012   5.414  0.4271  0.3121  0.7689
  562MOL0     C75785  -1.864   9.101   5.376 -0.4884  0.4799  0.0199
  562MOL0     N75786  -1.125   9.291   5.173  0.5232 -0.6531  0.8688
  562MOL0     N75787  -1.019   9.225   5.145  1.1953 -0.1696 -0.0381
  562MOL0     C75788   0.042   8.599   4.864  0.2604  0.0165 -0.6621
  562MOL0     C75789   0.180   8.603   4.846 -0.0593  0.0665  0.5746
  562MOL0     C75790   0.612   8.424   4.829  0.9196 -0.6862  0.3084
  562MOL0     C75791   0.703   8.316   4.810  0.8083 -0.2523  1.2773
  562MOL0     C75792   0.839   8.341   4.788  0.5569 -0.7857 -0.1526
  562MOL0     C75793   0.893   8.470   4.784  0.4208 -0.0081 -0.2093
  562MOL0     O75794   1.024   8.481   4.765 -0.1485  0.4552 -0.0750
  562MOL0     C75795   1.072   8.594   4.691 -0.0142 -0.6159 -1.0802
  562MOL0     C75796   1.229   8.594   4.695  0.0956  0.3716  0.1220
  562MOL0     C75797   1.292   8.717   4.623 -0.0393 -0.2580 -0.4376
  562MOL0     C75798   1.407   8.669   4.533 -0.3381  0.2292 -0.6211
  562MOL0     C75799   1.354   8.612   4.410 -0.4517  0.6234 -0.2124
  562MOL0     C75800   1.329   8.556   4.308 -0.3414  0.3117  0.4977
  562MOL0     C75801   0.802   8.581   4.807  0.0651 -0.3878 -0.8760
  562MOL0     C75802   0.666   8.554   4.830  0.4526  0.5293  0.4627
  562MOL0     H75803   0.266   8.307   5.009 -0.2365 -1.9843 -1.6682
  562MOL0     H75804   0.032   8.313   5.052 -0.8911  2.3359  2.0863
  562MOL0     H75805  -0.161   8.682   5.057  1.5931  0.9229 -1.6671
  562MOL0     H75806  -0.251   8.655   4.899 -2.0127 -1.6938 -0.2501
  562MOL0     H75807  -0.405   8.503   5.009 -1.6407  1.0421  0.8197
  562MOL0     H75808  -0.327   8.514   5.166 -0.6296  3.2757  1.4287
  562MOL0     H75809  -0.428   8.734   5.207  0.2158 -3.4829  1.2628
  562MOL0     H75810  -0.399   8.778   5.050  2.1141 -1.1526  0.5944
  562MOL0     H75811  -0.575   8.622   4.963  2.1513  0.2870 -0.2364
  562MOL0     H75812  -0.645   8.598   5.128 -1.1737  0.9715 -0.1910
  562MOL0     H75813  -0.610   8.865   4.984 -1.3402  2.1162  0.4167
  562MOL0     H75814  -0.757   8.756   4.973  0.2349  0.7568 -1.0003
  562MOL0     H75815  -0.772   8.792   5.241 -0.7772 -0.6221 -0.0405
  562MOL0     H75816  -0.657   8.922   5.201 -0.8062 -0.3785  0.7288
  562MOL0     H75817  -0.818   9.030   5.051  1.7847 -0.3697  0.0882
  562MOL0     H75818  -0.937   8.908   5.091  0.6176 -0.5619 -0.2193
  562MOL0     H75819  -0.799   9.118   5.268  1.5195  0.0045 -1.9166
  562MOL0     H75820  -0.896   8.982   5.332 -1.3879  0.0818 -0.1874
  562MOL0     H75821  -1.149   9.028   5.368 -2.4387  1.9254 -0.0056
  562MOL0     H75822  -1.389   9.150   5.339 -1.5322 -0.4944  0.0234
  562MOL0     H75823  -1.323   9.300   5.419  0.1242  1.6219 -0.8673
  562MOL0     H75824  -1.437   9.268   5.135  3.4119  0.1866 -1.0867
  562MOL0     H75825  -1.340   9.408   5.190  0.0123  0.1545 -1.1223
  562MOL0     H75826  -1.586   9.454   5.206 -0.7089 -3.1387 -2.6830
  562MOL0     H75827  -1.521   9.443   5.371  1.8480  1.3631 -0.8400
  562MOL0     H75828  -1.674   9.252   5.202  0.3742  0.6454  0.2276
  562MOL0     H75829  -1.752   9.340   5.330 -0.7334 -1.3775 -1.1235
  562MOL0     H75830  -1.616   9.023   5.581 -0.6135 -0.5456  0.4388
  562MOL0     H75831  -1.682   8.829   5.738  0.0696 -0.6793  0.5554
  562MOL0     H75832  -1.854   8.783   5.750  0.9841 -1.9809 -1.2301
  562MOL0     H75833  -1.759   8.719   5.629  1.5249 -0.1997 -0.5435
  562MOL0     H75834  -2.239   8.836   5.800 -1.2610 -0.1922  0.9980
  562MOL0     H75835  -2.406   8.693   5.914  0.8670 -0.9256  1.7386
  562MOL0     H75836  -2.521   8.312   5.725 -3.3031  2.0915 -0.8021
  562MOL0     H75837  -2.436   8.265   5.883 -1.7561  0.7005  2.1951
  562MOL0     H75838  -2.648   8.306   6.003 -0.3029  2.4909  0.2284
  562MOL0     H75839  -2.726   8.371   5.866 -0.9583 -1.7120  0.2274
  562MOL0     H75840  -2.633   8.087   5.865 -1.2212 -0.5707  2.4563
  562MOL0     H75841  -2.715   8.178   5.726 -1.3072  0.5096  0.6350
  562MOL0     H75842  -2.828   8.115   6.014  0.6216 -4.5531  0.1680
  562MOL0     H75843  -2.908   8.197   5.871  0.4424  0.0307 -1.8802
  562MOL0     H75844  -2.799   7.909   5.858  0.5463  0.9045 -0.4542
  562MOL0     H75845  -2.916   7.988   5.755  0.5893 -0.1907  0.2074
  562MOL0     H75846  -3.056   8.002   5.978 -1.4250 -2.0806 -0.1126
  562MOL0     H75847  -3.032   7.840   5.912 -1.7234  1.2485 -0.6457
  562MOL0     H75848  -2.813   7.877   6.101 -1.0679 -0.2761  1.0515
  562MOL0     H75849  -2.955   7.777   6.116 -3.5210  0.9277  1.7572
  562MOL0     H75850  -2.971   8.059   6.180 -1.6883  0.4320  1.5490
  562MOL0     H75851  -2.926   7.934   6.303 -1.0167 -1.6843  0.5602
  562MOL0     H75852  -2.294   8.352   5.668  0.7430  1.0314 -0.2542
  562MOL0     H75853  -2.120   8.486   5.560 -2.0969  0.2471 -1.6788
  562MOL0     H75854  -2.059   9.015   5.370  0.6877  2.3247  0.1908
  562MOL0     H75855  -1.892   9.179   5.306  0.6258  1.7758  0.9579
  562MOL0     H75856  -0.021   8.676   4.822 -0.2263 -0.4661 -0.8248
  562MOL0     H75857   0.226   8.681   4.787  0.6417 -0.3251  0.6000
  562MOL0     H75858   0.660   8.217   4.810 -1.7243  0.7791  1.5253
  562MOL0     H75859   0.903   8.257   4.766 -0.1034 -1.3343 -0.0161
  562MOL0     H75860   1.049   8.603   4.585 -2.9087  0.5902 -0.4607
  562MOL0     H75861   1.040   8.687   4.740  4.0898  0.6570 -0.4750
  562MOL0     H75862   1.270   8.504   4.648  0.8830  1.5246 -1.4992
  562MOL0     H75863   1.266   8.587   4.798  1.0520  0.1364 -0.2290
  562MOL0     H75864   1.334   8.780   4.702 -0.8177  0.9992 -0.9920
  562MOL0     H75865   1.221   8.773   4.562 -0.1190  1.2654  0.9599
  562MOL0     H75866   1.460   8.592   4.589 -4.0844 -1.3710  1.0601
  562MOL0     H75867   1.467   8.758   4.513 -0.2285 -0.1805 -2.2495
  562MOL0     H75868   1.305   8.506   4.217  0.5605  2.1371 -0.7837
  562MOL0     H75869   0.839   8.683   4.817  0.8254 -0.8172  1.1960
  562MOL0     H75870   0.614   8.650   4.836  1.1531  0.8683  1.3064
  563MOL0     O75871   8.608   8.106   4.978  0.0893  0.0025  0.0240
  563MOL0     C75872   8.602   8.233   4.983 -0.3459 -0.1493  0.9051
  563MOL0     O75873   8.690   8.322   4.933  0.5327 -0.8818 -0.4262
  563MOL0     C75874   8.809   8.267   4.893 -0.1440  0.3123  0.5684
  563MOL0     C75875   8.913   8.262   4.986 -0.6984 -0.4484 -0.2985
  563MOL0     C75876   9.039   8.204   4.962 -0.0706  0.0374 -0.3593
  563MOL0     C75877   9.054   8.140   4.839  0.0886 -0.5732  0.2686
  563MOL0     O75878   9.172   8.081   4.807  0.3753  0.9543  0.0206
  563MOL0     C75879   9.285   8.095   4.888  0.2156 -0.5522  0.0885
  563MOL0     C75880   9.406   8.029   4.820 -0.3685  0.3922  0.0414
  563MOL0     C75881   9.464   8.116   4.700 -0.4763 -0.1250 -0.1831
  563MOL0     C75882   9.559   8.037   4.618 -0.4734 -0.6412  0.1056
  563MOL0     C75883   9.500   8.012   4.477  0.2076  0.8399  0.5460
  563MOL0     C75884   9.607   7.939   4.384  0.7508 -0.2048 -0.0939
  563MOL0     C75885   9.540   7.886   4.261 -1.0313 -0.4096  0.0876
  563MOL0     C75886   9.654   7.852   4.148  0.3087 -0.1843  0.4139
  563MOL0     N75887   9.593   7.839   4.019  1.1117  0.5535  0.3675
  563MOL0     C75888   9.473   7.769   3.993  0.2328 -0.5673 -0.3076
  563MOL0     C75889   9.449   7.787   3.862  0.4787  0.2850  0.3581
  563MOL0     C75890   9.319   7.745   3.799  0.1519 -0.7109 -0.7405
  563MOL0     C75891   9.187   7.806   3.864 -0.3116  0.0284  0.7247
  563MOL0     C75892   9.055   7.766   3.792 -0.3404  0.5698 -0.7190
  563MOL0     C75893   8.920   7.765   3.872 -0.4955 -0.0476  0.1304
  563MOL0     O75894   8.846   7.640   3.848 -0.1164 -0.4916  0.2754
  563MOL0     C75895   8.720   7.623   3.908 -0.1178 -0.1993  0.5223
  563MOL0     C75896   8.664   7.716   4.002  0.2311  0.2119  0.9577
  563MOL0     C75897   8.541   7.686   4.064 -0.0030 -0.1560  0.3256
  563MOL0     C75898   8.506   7.775   4.181 -0.0881  0.2210 -0.0291
  563MOL0     C75899   8.457   7.584   4.006  0.1053 -0.8809  0.9750
  563MOL0     C75900   8.315   7.560   4.040  0.0426 -1.1893 -0.2511
  563MOL0     O75901   8.261   7.641   4.138 -0.0383  0.1351  0.6351
  563MOL0     C75902   8.130   7.641   4.169 -0.4550 -0.1241 -0.4762
  563MOL0     C75903   8.106   7.726   4.279 -0.1210 -0.1915 -0.0629
  563MOL0     C75904   7.976   7.732   4.333 -0.7462  0.0331  0.1190
  563MOL0     C75905   7.874   7.664   4.270 -0.3293  0.2927 -0.0574
  563MOL0     O75906   7.741   7.676   4.305  0.0698 -0.9078 -0.2749
  563MOL0     C75907   7.708   7.724   4.438 -0.4798 -0.0564  0.4020
  563MOL0     C75908   7.566   7.686   4.470 -0.6252 -0.3187  0.5594
  563MOL0     C75909   7.519   7.772   4.591  0.1571 -1.0611  0.0480
  563MOL0     C75910   7.365   7.782   4.618 -0.3194  0.4273  0.2758
  563MOL0     C75911   7.349   7.870   4.739 -0.1856  0.1448  0.4059
  563MOL0     C75912   7.205   7.890   4.776 -0.0618 -0.7891  0.0742
  563MOL0     C75913   7.184   7.943   4.924  0.2861 -0.0195 -0.0951
  563MOL0     C75914   7.040   7.976   4.963  0.5698  0.4535 -0.3579
  563MOL0    Cl75915   6.927   7.832   4.966 -0.3443  0.3556  0.0186
  563MOL0     C75916   7.893   7.580   4.166 -0.3850 -0.6081  0.6176
  563MOL0     C75917   8.021   7.580   4.106  0.1824  0.1738  0.3122
  563MOL0     O75918   8.263   7.465   3.987  0.4025  0.5143  0.2727
  563MOL0     C75919   8.516   7.495   3.908 -0.0601  0.0607  1.3173
  563MOL0     C75920   8.649   7.510   3.872 -0.3918 -0.6159 -0.2531
  563MOL0     N75921   9.554   7.863   3.809  0.2881  0.1810  0.3402
  563MOL0     N75922   9.643   7.878   3.902  0.1159  0.0424  0.4549
  563MOL0     C75923   8.947   8.131   4.744  0.8615 -0.3404  1.1632
  563MOL0     C75924   8.827   8.201   4.771  0.3277  0.3961 -0.3922
  563MOL0     C75925   8.466   8.277   5.034  0.0586  0.2933  0.5646
  563MOL0     C75926   8.444   8.410   5.047 -0.4786 -0.6527 -0.4581
  563MOL0     C75927   8.320   8.474   5.089 -0.3412  0.4914  0.1550
  563MOL0     C75928   8.216   8.391   5.127 -0.0288 -0.0443 -0.0617
  563MOL0     O75929   8.096   8.432   5.185 -0.2279  0.5557 -0.2889
  563MOL0     C75930   8.067   8.572   5.186 -0.1869  0.2276 -0.2107
  563MOL0     C75931   7.922   8.609   5.237  0.2302  0.1617  0.0799
  563MOL0     C75932   7.897   8.766   5.250  0.5961 -0.2923  0.5052
  563MOL0     C75933   7.762   8.802   5.317  0.0960  0.5510  0.4674
  563MOL0     C75934   7.641   8.743   5.259  0.1983 -0.9342 -0.5250
  563MOL0     C75935   7.537   8.704   5.208 -0.2288 -0.4636  0.3306
  563MOL0     C75936   8.238   8.252   5.127  0.2530 -0.3509  0.4856
  563MOL0     C75937   8.353   8.193   5.079 -0.0592 -0.2851 -0.2794
  563MOL0     H75938   8.896   8.308   5.084  3.1239 -0.7962  0.7215
  563MOL0     H75939   9.124   8.224   5.027  0.1914 -2.6003  0.1959
  563MOL0     H75940   9.304   8.197   4.923  0.0965 -0.2795 -0.6159
  563MOL0     H75941   9.263   8.041   4.980 -1.2383 -0.4542 -0.1802
  563MOL0     H75942   9.484   8.009   4.895  0.0692 -2.6862 -1.0835
  563MOL0     H75943   9.387   7.925   4.794  1.5447  0.2525 -1.0109
  563MOL0     H75944   9.380   8.151   4.639 -1.5111 -3.0299 -0.5899
  563MOL0     H75945   9.521   8.200   4.740 -0.0039 -0.7416  0.4824
  563MOL0     H75946   9.654   8.091   4.615 -1.4257  1.1673  1.3550
  563MOL0     H75947   9.576   7.944   4.674 -0.5252  0.4624  2.0245
  563MOL0     H75948   9.426   7.934   4.495  1.4453 -0.5552 -0.1811
  563MOL0     H75949   9.457   8.097   4.422 -0.3699  0.0148 -0.2952
  563MOL0     H75950   9.685   8.010   4.359 -1.4182  2.1990 -0.4481
  563MOL0     H75951   9.661   7.860   4.437  2.0717  1.3876  1.0457
  563MOL0     H75952   9.482   7.795   4.282  1.0654 -1.7219  0.4204
  563MOL0     H75953   9.474   7.961   4.216  0.4760  0.2235 -1.1544
  563MOL0     H75954   9.699   7.755   4.169  1.5559  0.1600 -0.5663
  563MOL0     H75955   9.730   7.929   4.134 -0.5081  0.1808 -2.7361
  563MOL0     H75956   9.406   7.725   4.066 -1.0603 -1.1509 -1.7864
  563MOL0     H75957   9.329   7.792   3.701 -1.8478  0.9782 -0.2143
  563MOL0     H75958   9.325   7.636   3.802  3.2921 -0.6056  1.9607
  563MOL0     H75959   9.183   7.915   3.857 -0.4943 -0.0647 -1.0357
  563MOL0     H75960   9.189   7.772   3.968  0.3091 -3.3271 -0.2581
  563MOL0     H75961   9.076   7.660   3.771 -2.6919  0.0947 -1.0365
  563MOL0     H75962   9.045   7.815   3.695  2.8254 -0.1673 -1.5232
  563MOL0     H75963   8.872   7.857   3.837  1.5552  1.3710  0.8128
  563MOL0     H75964   8.934   7.796   3.976  0.0737  3.6936 -0.9161
  563MOL0     H75965   8.722   7.800   4.040  2.2875  0.0837 -1.5926
  563MOL0     H75966   8.437   7.852   4.145  1.6454  1.5591 -0.6168
  563MOL0     H75967   8.467   7.717   4.266 -0.3199 -2.6878 -1.9803
  563MOL0     H75968   8.597   7.825   4.216  1.9218 -1.2245 -2.8433
  563MOL0     H75969   8.184   7.793   4.314 -3.3893  3.6766  0.5626
  563MOL0     H75970   7.974   7.803   4.415  2.4599 -0.7844  1.0437
  563MOL0     H75971   7.772   7.686   4.518 -1.9289 -4.2119 -0.1817
  563MOL0     H75972   7.711   7.833   4.446 -1.2716  0.0943 -1.0132
  563MOL0     H75973   7.511   7.724   4.384  1.4622 -2.1281 -1.7048
  563MOL0     H75974   7.553   7.579   4.485  2.4040 -0.8981 -0.3114
  563MOL0     H75975   7.544   7.877   4.572  1.6731 -1.3514  0.3114
  563MOL0     H75976   7.563   7.730   4.682 -0.8760  0.6332  1.3936
  563MOL0     H75977   7.323   7.828   4.529  1.4567  2.1140  0.2391
  563MOL0     H75978   7.327   7.681   4.633  0.5019  0.1407  0.4806
  563MOL0     H75979   7.402   7.964   4.722 -1.4279  0.7161 -0.5155
  563MOL0     H75980   7.394   7.813   4.821 -0.0073 -1.9307 -1.0518
  563MOL0     H75981   7.162   7.969   4.714  0.1357 -0.2921  0.5613
  563MOL0     H75982   7.156   7.794   4.756  0.4641 -0.6298 -2.1401
  563MOL0     H75983   7.234   8.040   4.933  0.3126 -0.1348  1.2092
  563MOL0     H75984   7.224   7.877   5.002  0.9492  0.6212  0.1157
  563MOL0     H75985   6.989   8.046   4.897 -3.0880 -1.0770  0.5759
  563MOL0     H75986   7.047   8.025   5.060 -0.6981 -2.6373  1.4631
  563MOL0     H75987   7.814   7.516   4.130 -1.4450  2.1728 -2.5253
  563MOL0     H75988   8.029   7.523   4.014 -0.6972  0.0991  0.2737
  563MOL0     H75989   8.462   7.416   3.857  1.2105  1.3147 -2.2836
  563MOL0     H75990   8.699   7.450   3.796 -1.1456  0.7415 -1.8916
  563MOL0     H75991   8.934   8.073   4.654  0.9641 -1.7771  2.0412
  563MOL0     H75992   8.745   8.189   4.701  0.4408 -1.1904 -0.2922
  563MOL0     H75993   8.515   8.489   5.026 -0.2185 -0.8473 -0.3060
  563MOL0     H75994   8.302   8.580   5.078 -2.0802  0.1396 -0.7874
  563MOL0     H75995   8.143   8.628   5.241 -0.2493  0.2041 -0.1006
  563MOL0     H75996   8.074   8.621   5.088  0.1922  0.6965  0.0501
  563MOL0     H75997   7.913   8.571   5.339  1.3027  2.2492  1.0295
  563MOL0     H75998   7.847   8.554   5.180 -0.5490  1.4186 -0.1415
  563MOL0     H75999   7.893   8.816   5.152  2.3853 -1.2510 -0.1139
  563MOL0     H76000   7.973   8.821   5.306  0.7004 -0.1715  0.2488
  563MOL0     H76001   7.749   8.911   5.320 -1.2629  0.3859  0.9442
  563MOL0     H76002   7.769   8.780   5.424  0.9643  0.9212  0.5006
  563MOL0     H76003   7.441   8.672   5.175 -0.8011 -0.2157  1.6717
  563MOL0     H76004   8.159   8.187   5.164  1.4331 -2.4026 -0.3781
  563MOL0     H76005   8.346   8.084   5.072 -0.1759 -0.3492  0.7338
  564MOL0     O76006   6.873   6.963   3.093 -0.0070  0.2111  0.0684
  564MOL0     C76007   6.925   6.924   2.987  0.5666 -0.5550 -0.5380
  564MOL0     O76008   6.873   6.936   2.858 -0.3179 -0.2387 -0.3888
  564MOL0     C76009   6.750   6.999   2.835  0.3295 -0.2124 -1.2059
  564MOL0     C76010   6.640   6.910   2.798 -0.2545 -0.0437 -0.7484
  564MOL0     C76011   6.515   6.969   2.781  0.6949 -0.6072 -0.7162
  564MOL0     C76012   6.496   7.116   2.791 -0.3726  0.9328 -0.3796
  564MOL0     O76013   6.383   7.186   2.778 -0.6925 -0.2366 -0.4520
  564MOL0     C76014   6.299   7.148   2.672 -0.0255  0.3657  0.5556
  564MOL0     C76015   6.181   7.251   2.663  0.2733 -0.4983  0.0387
  564MOL0     C76016   6.078   7.199   2.560 -0.6038  0.1794 -0.0287
  564MOL0     C76017   5.948   7.290   2.560  0.5153 -0.1476 -0.6502
  564MOL0     C76018   5.852   7.237   2.448  0.2529  0.0877  0.5947
  564MOL0     C76019   5.727   7.325   2.463  0.9031  0.5508 -0.3270
  564MOL0     C76020   5.620   7.301   2.353 -0.0676 -0.3937 -0.1070
  564MOL0     C76021   5.573   7.153   2.352  0.0499 -0.0148  0.7614
  564MOL0     N76022   5.466   7.131   2.253  0.0594 -0.3557  0.4301
  564MOL0     C76023   5.491   7.099   2.116  0.1472 -0.3492 -0.2023
  564MOL0     C76024   5.365   7.100   2.064 -0.0241  0.8937  0.0845
  564MOL0     C76025   5.333   7.082   1.915 -0.3921  1.0072 -0.7031
  564MOL0     C76026   5.187   7.029   1.900  0.4392  0.9422 -0.1933
  564MOL0     C76027   5.189   6.884   1.946 -0.0838 -1.1971 -0.5483
  564MOL0     C76028   5.056   6.806   1.925 -0.0483 -1.0736  0.0420
  564MOL0     O76029   4.946   6.887   1.980  0.6433 -0.0895  0.2886
  564MOL0     C76030   4.814   6.839   1.990  0.0435  0.2095  0.6693
  564MOL0     C76031   4.723   6.894   2.083  0.4542 -0.1120  0.7438
  564MOL0     C76032   4.594   6.844   2.104  0.1334 -0.2132  0.2168
  564MOL0     C76033   4.527   6.909   2.227  0.7194  0.2561 -0.6152
  564MOL0     C76034   4.544   6.746   2.013 -0.7015 -0.5147  0.3609
  564MOL0     C76035   4.406   6.684   2.014 -0.6118  0.0252  0.5962
  564MOL0     O76036   4.361   6.617   1.907  0.3576 -0.2712 -0.1924
  564MOL0     C76037   4.234   6.575   1.912  0.3005  0.3363 -0.5682
  564MOL0     C76038   4.204   6.458   1.991 -0.5577 -0.1035  0.4311
  564MOL0     C76039   4.064   6.418   2.001 -1.2174  0.1805 -0.1082
  564MOL0     C76040   3.968   6.476   1.922 -0.1986  0.1388  0.9065
  564MOL0     O76041   3.840   6.440   1.922  0.9713 -0.5116 -0.4117
  564MOL0     C76042   3.801   6.309   1.962 -0.1576 -0.3210  0.5928
  564MOL0     C76043   3.656   6.280   1.928  0.3702  0.1545  0.1614
  564MOL0     C76044   3.606   6.138   1.967  0.4723  0.6312 -0.3815
  564MOL0     C76045   3.512   6.072   1.852  0.4988 -0.1838 -0.9753
  564MOL0     C76046   3.449   5.940   1.902 -0.0959 -0.0528  0.2416
  564MOL0     C76047   3.381   5.861   1.784 -0.0880  0.6187  0.7280
  564MOL0     C76048   3.270   5.947   1.710 -0.4532 -0.5454 -1.1331
  564MOL0     C76049   3.168   5.859   1.647 -0.6162  0.1702  0.5746
  564MOL0    Cl76050   3.028   5.962   1.595 -0.2706 -0.0907 -0.0443
  564MOL0     C76051   4.009   6.570   1.825 -0.2439  0.5296 -0.5828
  564MOL0     C76052   4.142   6.620   1.816  0.6349 -0.1807  0.0763
  564MOL0     O76053   4.343   6.701   2.116  0.2749 -0.2831 -0.3882
  564MOL0     C76054   4.629   6.706   1.905 -0.5691  0.2102  0.3564
  564MOL0     C76055   4.764   6.742   1.903 -0.1911  0.6424 -0.6214
  564MOL0     N76056   5.272   7.127   2.165  0.0900  0.0416  0.1796
  564MOL0     N76057   5.334   7.140   2.280 -0.3086 -0.0763 -0.2369
  564MOL0     C76058   6.602   7.190   2.845 -0.2224  0.1423  0.1711
  564MOL0     C76059   6.728   7.133   2.862 -0.6090  0.5277 -0.0613
  564MOL0     C76060   7.045   6.841   3.007 -0.2535  1.4472 -0.4974
  564MOL0     C76061   7.104   6.772   2.897 -0.3997  0.8393  0.2438
  564MOL0     C76062   7.224   6.698   2.910  0.6470  0.3482  0.4629
  564MOL0     C76063   7.285   6.694   3.031 -0.2302 -0.3782 -0.1485
  564MOL0     O76064   7.406   6.616   3.028  0.2987 -0.0046 -0.1616
  564MOL0     C76065   7.456   6.576   3.158 -0.5720 -0.1768 -0.2394
  564MOL0     C76066   7.560   6.461   3.147 -0.6265  0.1190 -0.2181
  564MOL0     C76067   7.692   6.510   3.083 -0.4015 -1.0331 -1.1351
  564MOL0     C76068   7.798   6.403   3.066  0.7175 -0.1199 -0.3892
  564MOL0     C76069   7.894   6.460   2.972  0.7599  0.2198  0.2397
  564MOL0     C76070   7.965   6.508   2.883 -0.6078 -0.6272  0.5309
  564MOL0     C76071   7.223   6.748   3.142 -0.1351  0.2991 -0.0169
  564MOL0     C76072   7.107   6.830   3.134 -1.1006  0.0795  1.3302
  564MOL0     H76073   6.655   6.805   2.777 -0.3618 -0.5802  1.5814
  564MOL0     H76074   6.428   6.906   2.763  0.2371  0.3933 -2.2107
  564MOL0     H76075   6.346   7.155   2.574 -2.9601 -1.9283 -1.1936
  564MOL0     H76076   6.263   7.045   2.681  2.0832 -0.5908 -1.1798
  564MOL0     H76077   6.129   7.260   2.758 -0.6840  1.7364 -0.6188
  564MOL0     H76078   6.217   7.351   2.636  1.6726 -0.1755  2.7184
  564MOL0     H76079   6.123   7.207   2.461 -2.3517  0.8401 -0.8142
  564MOL0     H76080   6.049   7.096   2.583  2.2743 -0.6277  0.3271
  564MOL0     H76081   5.898   7.284   2.658 -1.3229  0.1818 -1.5375
  564MOL0     H76082   5.969   7.394   2.533  1.1863 -0.8467 -3.0645
  564MOL0     H76083   5.901   7.244   2.351  1.3217 -2.8339  0.8480
  564MOL0     H76084   5.833   7.130   2.462 -0.2695  0.0349 -0.3881
  564MOL0     H76085   5.675   7.315   2.558 -0.1244  1.1046 -0.8145
  564MOL0     H76086   5.764   7.428   2.466  2.8280 -0.1359  0.8785
  564MOL0     H76087   5.528   7.346   2.393 -2.8277 -3.2068 -2.7317
  564MOL0     H76088   5.647   7.348   2.259 -0.0968  0.5728  0.3563
  564MOL0     H76089   5.536   7.113   2.447 -1.2903 -0.1080  0.2217
  564MOL0     H76090   5.656   7.092   2.314  0.0386 -1.8108  3.3852
  564MOL0     H76091   5.587   7.078   2.070  0.3123 -0.5204  0.2213
  564MOL0     H76092   5.369   7.173   1.866  2.3140  0.5053  0.1935
  564MOL0     H76093   5.396   6.996   1.890 -2.1685 -0.8137  0.6980
  564MOL0     H76094   5.156   7.031   1.795 -2.0246 -0.5993  0.4180
  564MOL0     H76095   5.129   7.096   1.965  0.0000 -0.4519  0.8937
  564MOL0     H76096   5.227   6.877   2.048  0.4909  0.3496 -0.6387
  564MOL0     H76097   5.261   6.826   1.888 -2.4035 -3.5234 -1.3502
  564MOL0     H76098   5.053   6.714   1.984 -2.8009 -1.0898  0.0032
  564MOL0     H76099   5.037   6.790   1.818 -0.2480  0.7821 -0.2428
  564MOL0     H76100   4.772   6.973   2.139  0.4041  2.9981 -3.1223
  564MOL0     H76101   4.480   6.829   2.284 -1.1848  0.6269 -1.5730
  564MOL0     H76102   4.593   6.966   2.293  1.2746 -2.9583  1.8443
  564MOL0     H76103   4.440   6.968   2.197 -0.9495 -1.1333  1.2252
  564MOL0     H76104   4.280   6.409   2.051  1.0178  0.0318 -1.3478
  564MOL0     H76105   4.047   6.331   2.063  0.5058 -1.6300 -2.0059
  564MOL0     H76106   3.851   6.231   1.904  0.6244 -1.0132  2.1262
  564MOL0     H76107   3.832   6.284   2.064  1.3679 -0.8219  0.0464
  564MOL0     H76108   3.599   6.353   1.987 -0.5139 -0.6347  0.3115
  564MOL0     H76109   3.625   6.301   1.825 -0.7055 -1.3056  0.1541
  564MOL0     H76110   3.566   6.133   2.069  2.1748 -1.2179  0.2610
  564MOL0     H76111   3.691   6.070   1.962  0.2927  0.5042 -3.9503
  564MOL0     H76112   3.435   6.146   1.829  2.7057  1.4194 -3.8998
  564MOL0     H76113   3.570   6.057   1.760  2.6635 -1.4513  0.4991
  564MOL0     H76114   3.384   5.955   1.989  2.6917 -1.0420  2.6679
  564MOL0     H76115   3.529   5.874   1.936  0.5952 -0.1650 -1.5116
  564MOL0     H76116   3.454   5.818   1.714 -3.1963 -0.1480 -2.3110
  564MOL0     H76117   3.334   5.769   1.819  1.5958  0.2113  2.0394
  564MOL0     H76118   3.313   6.006   1.629  1.0323 -1.5460 -1.1191
  564MOL0     H76119   3.221   6.004   1.790  1.7687  0.1735 -0.1924
  564MOL0     H76120   3.130   5.780   1.713  0.4478 -1.0164 -0.1787
  564MOL0     H76121   3.206   5.814   1.555 -0.4588  2.2129 -0.3970
  564MOL0     H76122   3.930   6.630   1.780 -0.7918  1.3511  1.3534
  564MOL0     H76123   4.165   6.698   1.745 -1.2127  0.2872 -0.0638
  564MOL0     H76124   4.588   6.636   1.834  0.0292  0.7672 -0.5583
  564MOL0     H76125   4.830   6.715   1.821  3.5324  0.2562  2.2409
  564MOL0     H76126   6.595   7.298   2.855 -0.4033  0.2013 -0.5400
  564MOL0     H76127   6.807   7.203   2.886  1.1538 -2.2116  2.8994
  564MOL0     H76128   7.065   6.786   2.797 -1.2099  3.3748  0.8349
  564MOL0     H76129   7.273   6.655   2.824 -0.6309  0.1155 -0.1714
  564MOL0     H76130   7.511   6.653   3.212 -2.6304 -1.5235  4.2029
  564MOL0     H76131   7.370   6.546   3.219 -0.1985 -3.1428 -1.0309
  564MOL0     H76132   7.506   6.388   3.086  1.3310 -0.2585 -1.5999
  564MOL0     H76133   7.584   6.421   3.247 -0.9205  3.0185  1.1008
  564MOL0     H76134   7.738   6.590   3.142  3.4210 -4.6295  1.2457
  564MOL0     H76135   7.665   6.547   2.983 -0.7890 -0.0940 -0.7030
  564MOL0     H76136   7.751   6.316   3.018  3.3251 -1.5888 -0.4609
  564MOL0     H76137   7.845   6.360   3.155  1.9731 -1.3721 -1.6042
  564MOL0     H76138   8.013   6.561   2.804  3.0111 -1.3540  2.0565
  564MOL0     H76139   7.268   6.733   3.240 -0.0619 -1.1953 -0.2630
  564MOL0     H76140   7.066   6.874   3.225 -0.4985  2.1699  0.6524
  565MOL0     O76141  11.152   2.740   5.648 -0.0177 -0.6334 -0.0632
  565MOL0     C76142  11.185   2.811   5.738 -0.0159 -0.1866 -0.4452
  565MOL0     O76143  11.109   2.918   5.779  0.5825 -0.3176 -0.0857
  565MOL0     C76144  10.988   2.937   5.727  0.5704  0.4373 -0.2195
  565MOL0     C76145  10.973   3.047   5.649 -0.3737 -0.0275  0.2936
  565MOL0     C76146  10.844   3.084   5.603 -0.4742  0.3249 -0.5831
  565MOL0     C76147  10.735   3.003   5.636  0.0004 -0.2742 -0.2342
  565MOL0     O76148  10.603   3.027   5.603 -0.1875  0.0626  0.4090
  565MOL0     C76149  10.580   3.124   5.497 -0.2617 -1.1357 -0.6364
  565MOL0     C76150  10.432   3.109   5.472 -0.7173  0.3494  0.0303
  565MOL0     C76151  10.406   3.228   5.384 -0.0130  0.6978  0.0219
  565MOL0     C76152  10.272   3.220   5.332  0.6996 -0.4369  0.3590
  565MOL0     C76153  10.237   3.362   5.283 -0.8152 -0.2306  0.3676
  565MOL0     C76154  10.118   3.364   5.190 -0.0234  0.1326  0.3464
  565MOL0     C76155   9.988   3.330   5.269  1.0391  0.3441 -0.3535
  565MOL0     C76156   9.871   3.310   5.174  0.1487 -0.2239  0.3024
  565MOL0     N76157   9.742   3.327   5.238 -0.1037  0.8565  0.1439
  565MOL0     C76158   9.678   3.211   5.281  0.0570 -0.1681 -0.0449
  565MOL0     C76159   9.576   3.263   5.358  0.2470  0.2888  1.1335
  565MOL0     C76160   9.480   3.174   5.436  0.0685 -0.8387 -0.4242
  565MOL0     C76161   9.339   3.227   5.414 -0.2475  0.1618 -0.2343
  565MOL0     C76162   9.250   3.143   5.495  0.8298  0.2432 -0.0586
  565MOL0     C76163   9.111   3.124   5.433  0.3857  0.3595  1.1339
  565MOL0     O76164   9.055   2.994   5.471  0.8276 -0.3044  0.3585
  565MOL0     C76165   8.931   2.966   5.417  0.4589  0.4978  0.0246
  565MOL0     C76166   8.870   2.857   5.477 -0.8761  0.3371 -0.0853
  565MOL0     C76167   8.737   2.806   5.440 -0.8801 -0.3877  0.4943
  565MOL0     C76168   8.669   2.696   5.524 -0.8210 -1.1555  0.7006
  565MOL0     C76169   8.669   2.876   5.330  0.2087  0.4776 -1.1104
  565MOL0     C76170   8.539   2.836   5.280  0.1558 -0.2668  0.6653
  565MOL0     O76171   8.536   2.829   5.144  0.1387 -0.0468  0.0116
  565MOL0     C76172   8.416   2.810   5.072 -0.2198 -0.2809 -0.9033
  565MOL0     C76173   8.389   2.691   5.004 -0.2087  0.2380  0.0463
  565MOL0     C76174   8.266   2.677   4.944  0.1333  0.7694 -0.1889
  565MOL0     C76175   8.174   2.787   4.929  0.1470  0.4173 -0.2246
  565MOL0     O76176   8.049   2.769   4.865  1.0693 -0.5225 -0.0600
  565MOL0     C76177   8.008   2.637   4.833 -0.5848 -0.1682  0.0160
  565MOL0     C76178   7.863   2.649   4.784 -0.6578 -0.0088 -0.3684
  565MOL0     C76179   7.852   2.711   4.639 -0.1201 -0.2718 -0.3044
  565MOL0     C76180   7.738   2.806   4.624  0.5805 -0.2746  0.0379
  565MOL0     C76181   7.599   2.744   4.636 -0.6934 -0.7141  0.0779
  565MOL0     C76182   7.483   2.854   4.616  0.6987 -0.0160 -0.1068
  565MOL0     C76183   7.485   2.961   4.732  0.0323  0.5854 -0.4762
  565MOL0     C76184   7.358   3.037   4.733  0.0122 -0.9403 -1.0120
  565MOL0    Cl76185   7.219   2.939   4.807  0.1558 -0.2654  0.1590
  565MOL0     C76186   8.206   2.912   4.985  0.4663 -0.0872 -0.0516
  565MOL0     C76187   8.327   2.917   5.059  0.1025 -0.1293  0.0187
  565MOL0     O76188   8.449   2.810   5.353 -0.1198  0.0024 -0.2214
  565MOL0     C76189   8.728   2.991   5.278 -0.6663 -0.2494  0.1562
  565MOL0     C76190   8.858   3.035   5.313 -0.5151 -0.2541 -0.1469
  565MOL0     N76191   9.578   3.398   5.344  0.2612 -0.2320 -0.4416
  565MOL0     N76192   9.678   3.442   5.272 -0.6834  0.3656 -0.4060
  565MOL0     C76193  10.750   2.890   5.708 -1.0603  0.2443 -0.3869
  565MOL0     C76194  10.876   2.856   5.757  0.8378  0.2177  0.1572
  565MOL0     C76195  11.328   2.796   5.796  0.1262 -0.0667 -0.3864
  565MOL0     C76196  11.403   2.688   5.761  0.2614 -0.1390 -0.2035
  565MOL0     C76197  11.526   2.660   5.824  0.3685  0.6336  0.1360
  565MOL0     C76198  11.581   2.748   5.922  0.0910 -0.7307 -0.1669
  565MOL0     O76199  11.701   2.700   5.977 -0.1803 -0.3475 -0.1220
  565MOL0     C76200  11.773   2.780   6.079  0.8172 -0.3694 -0.1698
  565MOL0     C76201  11.912   2.740   6.085  0.8879  0.2649 -0.4620
  565MOL0     C76202  11.991   2.816   6.197  0.3249  0.2272  0.7251
  565MOL0     C76203  12.148   2.781   6.184  0.3673 -0.7222  0.8346
  565MOL0     C76204  12.238   2.854   6.269  0.2765 -0.4407  0.5176
  565MOL0     C76205  12.322   2.905   6.347  0.5730  0.4610  0.3466
  565MOL0     C76206  11.509   2.862   5.952 -0.2915  0.1133  0.1556
  565MOL0     C76207  11.386   2.885   5.892  1.5159 -0.1213  0.3827
  565MOL0     H76208  11.056   3.111   5.623 -0.0231 -0.3084  0.7235
  565MOL0     H76209  10.844   3.171   5.537 -1.3979  0.2248 -0.7321
  565MOL0     H76210  10.599   3.229   5.518 -2.3793 -0.6240 -0.9982
  565MOL0     H76211  10.645   3.098   5.413  1.4610 -2.2725  0.9627
  565MOL0     H76212  10.410   3.019   5.413  0.5088  1.5391 -2.4116
  565MOL0     H76213  10.370   3.119   5.562  1.0406  0.1213  1.3214
  565MOL0     H76214  10.423   3.324   5.434  0.6711 -0.5651  2.3454
  565MOL0     H76215  10.474   3.225   5.298 -2.5877 -2.3651 -2.1259
  565MOL0     H76216  10.256   3.137   5.262 -1.2049  1.1022 -1.1709
  565MOL0     H76217  10.203   3.197   5.414 -1.6516 -1.8097 -1.8138
  565MOL0     H76218  10.213   3.424   5.369 -1.6601 -0.4013  0.2719
  565MOL0     H76219  10.326   3.404   5.236  1.5858 -3.3549  1.7863
  565MOL0     H76220  10.110   3.468   5.159  0.5213 -0.5503 -2.3152
  565MOL0     H76221  10.136   3.303   5.101 -1.2783 -2.9941  2.0754
  565MOL0     H76222  10.006   3.246   5.336 -0.3390 -0.5092 -1.0205
  565MOL0     H76223   9.968   3.415   5.336  0.7807 -0.3950  0.5202
  565MOL0     H76224   9.882   3.208   5.137  1.2342 -0.0795  0.1815
  565MOL0     H76225   9.862   3.389   5.098  2.0574 -0.0173  0.2265
  565MOL0     H76226   9.705   3.107   5.269 -3.1060 -1.1082 -0.0114
  565MOL0     H76227   9.496   3.069   5.411 -0.9578 -1.2060  0.4107
  565MOL0     H76228   9.506   3.182   5.542  3.4850  0.5821 -1.2282
  565MOL0     H76229   9.310   3.220   5.309  0.2497  0.9945 -0.4420
  565MOL0     H76230   9.338   3.331   5.447 -0.1482 -0.0038  0.2985
  565MOL0     H76231   9.241   3.193   5.592  0.7698 -1.4696  0.8555
  565MOL0     H76232   9.288   3.042   5.512 -1.5530 -1.2047 -2.3930
  565MOL0     H76233   9.115   3.126   5.324 -0.4500 -1.4592  1.0385
  565MOL0     H76234   9.050   3.206   5.470 -0.1399  1.1179 -1.2344
  565MOL0     H76235   8.931   2.810   5.552 -0.8947 -1.2303 -1.0153
  565MOL0     H76236   8.656   2.615   5.451 -1.1325  0.4395 -1.0990
  565MOL0     H76237   8.729   2.671   5.612  0.6765  1.7674  0.6140
  565MOL0     H76238   8.564   2.709   5.551 -1.1067 -0.6850 -0.5779
  565MOL0     H76239   8.450   2.601   5.014 -3.5121 -2.1532  0.6233
  565MOL0     H76240   8.239   2.574   4.920 -1.9593  1.3369 -0.4711
  565MOL0     H76241   8.075   2.592   4.760  0.5579  0.0874  0.8797
  565MOL0     H76242   7.998   2.573   4.922 -2.9529 -0.3037 -0.2737
  565MOL0     H76243   7.826   2.546   4.782 -1.6172  0.3412 -1.2271
  565MOL0     H76244   7.800   2.704   4.854 -0.8149  0.5267 -0.9302
  565MOL0     H76245   7.847   2.625   4.572  2.4348 -0.8713  0.1740
  565MOL0     H76246   7.934   2.779   4.614 -1.1292  0.8177 -0.7425
  565MOL0     H76247   7.746   2.894   4.689  1.0376 -0.7725  0.6647
  565MOL0     H76248   7.743   2.836   4.519  4.1455 -0.8910 -0.0878
  565MOL0     H76249   7.585   2.693   4.732  0.4901 -1.6610 -0.2277
  565MOL0     H76250   7.576   2.667   4.563  2.0530  0.6531 -2.4552
  565MOL0     H76251   7.476   2.898   4.516 -0.6104  1.5883  0.6457
  565MOL0     H76252   7.390   2.798   4.626  0.8090 -0.4822 -1.4408
  565MOL0     H76253   7.568   3.029   4.712  0.2380 -0.0741 -2.0085
  565MOL0     H76254   7.504   2.904   4.823 -0.6601 -2.1109 -1.9074
  565MOL0     H76255   7.344   3.080   4.633  2.1915 -0.1141 -1.0221
  565MOL0     H76256   7.369   3.122   4.801  0.7649  0.2346 -2.5511
  565MOL0     H76257   8.138   2.995   4.973 -0.2386 -0.4450  1.2759
  565MOL0     H76258   8.369   3.009   5.099  2.0147 -1.0523  0.2556
  565MOL0     H76259   8.683   3.036   5.190  1.5097  0.4452 -0.6521
  565MOL0     H76260   8.901   3.115   5.254 -0.9886 -0.7970 -1.2477
  565MOL0     H76261  10.660   2.829   5.721 -1.9468  1.1688 -1.9492
  565MOL0     H76262  10.883   2.768   5.821 -2.4682 -1.2330 -1.2606
  565MOL0     H76263  11.367   2.608   5.696  1.5220 -2.4157  1.7293
  565MOL0     H76264  11.594   2.581   5.793 -1.0582 -0.2334 -0.9496
  565MOL0     H76265  11.769   2.884   6.046  0.3510 -0.1725  0.4829
  565MOL0     H76266  11.722   2.777   6.176  2.9150 -4.2251  1.0016
  565MOL0     H76267  11.953   2.763   5.986 -2.8780  1.8790 -1.8164
  565MOL0     H76268  11.930   2.632   6.084 -1.3801 -0.2565 -4.0815
  565MOL0     H76269  11.955   2.791   6.298  1.6141 -0.9528  0.9300
  565MOL0     H76270  11.977   2.923   6.181  1.5410  0.1605 -0.9585
  565MOL0     H76271  12.175   2.822   6.086 -3.1602  1.1292  0.4809
  565MOL0     H76272  12.159   2.674   6.206 -0.2260 -0.8666  0.4353
  565MOL0     H76273  12.387   2.958   6.414  0.8327 -0.7559  1.0828
  565MOL0     H76274  11.545   2.941   6.017 -2.8420  1.0761  0.5212
  565MOL0     H76275  11.326   2.971   5.920  1.0944  0.0254 -0.8955
  566MOL0     O76276   3.324   0.345   1.996  1.1471 -0.1155  1.2780
  566MOL0     C76277   3.364   0.438   2.065  0.0890  0.5389  0.1528
  566MOL0     O76278   3.279   0.530   2.121  0.0420  0.5804 -0.4710
  566MOL0     C76279   3.147   0.521   2.123  0.2945  0.1693  0.4185
  566MOL0     C76280   3.067   0.408   2.082 -0.4070 -0.5778 -0.9705
  566MOL0     C76281   2.927   0.420   2.089 -0.4897 -0.1861 -0.4435
  566MOL0     C76282   2.861   0.546   2.113 -0.2279 -0.0733 -0.8613
  566MOL0     O76283   2.729   0.553   2.123 -0.4716  0.1284 -0.3773
  566MOL0     C76284   2.679   0.611   2.003  0.0874 -0.3600 -0.4287
  566MOL0     C76285   2.522   0.616   2.018 -0.8374  0.3065  0.1860
  566MOL0     C76286   2.435   0.634   1.889 -0.5251 -1.1313  0.8071
  566MOL0     C76287   2.288   0.656   1.926  0.2265  0.2782  0.1317
  566MOL0     C76288   2.210   0.675   1.794 -0.5470  0.2391 -0.0805
  566MOL0     C76289   2.063   0.661   1.819 -0.2849  1.3212  0.2165
  566MOL0     C76290   1.992   0.691   1.688 -0.3256 -0.5919 -0.1583
  566MOL0     C76291   1.839   0.704   1.728 -0.3521 -0.2975  1.3942
  566MOL0     N76292   1.776   0.573   1.752  0.1418 -0.6347  0.2058
  566MOL0     C76293   1.733   0.486   1.664  0.4571  0.6971  0.1612
  566MOL0     C76294   1.694   0.378   1.733 -0.3493  0.1169  0.1223
  566MOL0     C76295   1.644   0.254   1.676  0.4138 -0.3175  0.0548
  566MOL0     C76296   1.496   0.244   1.639  0.0786 -0.2717 -0.3854
  566MOL0     C76297   1.397   0.252   1.755 -0.5900 -0.3371  0.4776
  566MOL0     C76298   1.253   0.216   1.712  0.9975  0.0671 -0.0105
  566MOL0     O76299   1.210   0.317   1.620 -0.4585 -1.1025  0.0526
  566MOL0     C76300   1.072   0.333   1.613  0.3334 -0.3296 -0.5108
  566MOL0     C76301   0.983   0.228   1.648 -0.0228  0.4483  0.4243
  566MOL0     C76302   0.847   0.236   1.636 -1.4150 -0.5679  0.0699
  566MOL0     C76303   0.766   0.132   1.702 -0.5310  0.4139  0.8350
  566MOL0     C76304   0.790   0.356   1.582 -0.3290 -0.5568  0.6018
  566MOL0     C76305   0.648   0.372   1.542  0.0118  0.1463 -0.2758
  566MOL0     O76306   0.587   0.253   1.510 -0.2363  0.6051  0.0474
  566MOL0     C76307   0.458   0.273   1.474  0.8367 -0.3520  0.5375
  566MOL0     C76308   0.419   0.323   1.339 -0.6153 -0.1358 -0.3663
  566MOL0     C76309   0.276   0.323   1.314  0.0488  0.9338  0.0040
  566MOL0     C76310   0.177   0.281   1.406 -0.1796  0.1424 -0.0429
  566MOL0     O76311   0.052   0.257   1.346 -0.2749 -0.4403  0.3090
  566MOL0     C76312  -0.046   0.225   1.449 -0.6304 -0.8354  0.6384
  566MOL0     C76313  -0.180   0.202   1.395  0.5410 -0.6153  0.5083
  566MOL0     C76314  -0.274   0.160   1.502 -0.2369  0.2225 -0.3536
  566MOL0     C76315  -0.419   0.138   1.452  0.6993 -0.0700  0.4656
  566MOL0     C76316  -0.528   0.143   1.561 -0.1997  0.5390 -0.4106
  566MOL0     C76317  -0.517   0.021   1.663 -0.3938 -0.0111  0.1761
  566MOL0     C76318  -0.638   0.002   1.753 -0.9112  0.2766 -0.7982
  566MOL0     C76319  -0.601  -0.104   1.857 -0.3738 -0.8140  0.0097
  566MOL0    Cl76320  -0.610  -0.270   1.792  0.1154 -0.4213  0.1058
  566MOL0     C76321   0.221   0.247   1.533 -0.3985  0.7396  0.8158
  566MOL0     C76322   0.355   0.258   1.564 -1.1236  0.0198 -0.5399
  566MOL0     O76323   0.598   0.488   1.543  0.3236  0.2880  0.7441
  566MOL0     C76324   0.880   0.468   1.558  0.5795  0.0816  0.1098
  566MOL0     C76325   1.013   0.451   1.568  0.3573  0.6506 -0.4959
  566MOL0     N76326   1.731   0.397   1.868 -0.2955 -0.1788  0.0298
  566MOL0     N76327   1.782   0.516   1.877  0.2655  0.0774 -0.8119
  566MOL0     C76328   2.939   0.650   2.169 -0.8358 -0.1050 -0.0216
  566MOL0     C76329   3.081   0.634   2.172 -0.2655  0.4122  0.7286
  566MOL0     C76330   3.508   0.452   2.095  0.5789 -0.6704 -0.2350
  566MOL0     C76331   3.562   0.579   2.142  0.0142  0.1115 -0.6154
  566MOL0     C76332   3.698   0.577   2.179  0.6572  0.0139  0.2003
  566MOL0     C76333   3.779   0.461   2.165 -0.0987  0.2346 -1.1984
  566MOL0     O76334   3.909   0.472   2.203 -0.2273  0.0451  1.2158
  566MOL0     C76335   3.995   0.474   2.086  0.1569 -0.1130  0.0883
  566MOL0     C76336   3.979   0.602   2.002  0.0114 -0.4058  0.4720
  566MOL0     C76337   4.015   0.734   2.072 -0.6332 -0.2391 -0.4424
  566MOL0     C76338   4.162   0.758   2.119  0.6640 -0.3899  0.1371
  566MOL0     C76339   4.255   0.747   2.007  0.1391 -0.9504 -0.5297
  566MOL0     C76340   4.334   0.749   1.917 -0.1330  0.3180 -0.8509
  566MOL0     C76341   3.727   0.342   2.112  0.2803  0.0983 -0.6743
  566MOL0     C76342   3.589   0.339   2.076  0.7082 -0.3746 -0.9429
  566MOL0     H76343   3.108   0.311   2.054  3.1509  0.4695  0.1622
  566MOL0     H76344   2.871   0.329   2.070 -3.6369  1.4069  0.6015
  566MOL0     H76345   2.732   0.706   1.989 -1.3355  0.4780 -0.3547
  566MOL0     H76346   2.702   0.553   1.913 -1.3222 -1.4972 -0.0913
  566MOL0     H76347   2.508   0.513   2.053  0.0813 -0.4850 -1.6418
  566MOL0     H76348   2.494   0.684   2.098 -0.2294  0.7393  0.0419
  566MOL0     H76349   2.473   0.722   1.837  1.4917 -2.4756 -0.1263
  566MOL0     H76350   2.448   0.555   1.815  0.9387 -0.8497  0.7229
  566MOL0     H76351   2.250   0.575   1.989 -3.3096  2.3675  0.9612
  566MOL0     H76352   2.266   0.743   1.988 -1.4141 -1.4646  2.1448
  566MOL0     H76353   2.234   0.775   1.756 -0.4325  0.3211  0.2099
  566MOL0     H76354   2.230   0.593   1.724 -3.0957  0.3860 -1.1009
  566MOL0     H76355   2.034   0.564   1.861  0.1403  0.3003 -1.7670
  566MOL0     H76356   2.040   0.741   1.891  3.4601  2.7058  0.1255
  566MOL0     H76357   2.022   0.793   1.661  1.0432 -0.7815  0.6189
  566MOL0     H76358   2.000   0.620   1.605  1.2719 -0.1294 -0.4314
  566MOL0     H76359   1.780   0.753   1.649  1.5566 -2.4455 -1.5758
  566MOL0     H76360   1.830   0.770   1.815  3.0097 -0.0383  1.6926
  566MOL0     H76361   1.729   0.491   1.555 -0.4765 -1.7135  0.0261
  566MOL0     H76362   1.696   0.230   1.582  1.6876 -3.3461  1.3946
  566MOL0     H76363   1.663   0.162   1.733  0.2965  0.0966  0.7668
  566MOL0     H76364   1.487   0.154   1.577  1.1376 -0.3306 -0.4737
  566MOL0     H76365   1.467   0.325   1.571 -1.3953 -0.7961 -0.4162
  566MOL0     H76366   1.407   0.355   1.792  1.3065  0.5377 -2.1561
  566MOL0     H76367   1.423   0.183   1.836  0.2837  0.1870  0.6620
  566MOL0     H76368   1.191   0.212   1.802 -0.2458 -0.3622 -0.8672
  566MOL0     H76369   1.252   0.119   1.662  0.0116 -0.4362  0.9566
  566MOL0     H76370   1.026   0.141   1.696  0.2798  0.3541 -0.0056
  566MOL0     H76371   0.805   0.094   1.796  2.1110  0.3489 -0.2131
  566MOL0     H76372   0.667   0.172   1.725 -0.9038 -0.3286  0.5793
  566MOL0     H76373   0.749   0.038   1.647  2.1228 -0.9275  2.1359
  566MOL0     H76374   0.488   0.348   1.259  0.4402 -0.8647  0.3021
  566MOL0     H76375   0.250   0.353   1.213  4.2545  2.5195 -0.8284
  566MOL0     H76376  -0.015   0.132   1.498  0.7426 -0.6690  0.1308
  566MOL0     H76377  -0.050   0.304   1.524 -1.2393 -2.1542  2.0303
  566MOL0     H76378  -0.208   0.300   1.355 -2.4585 -1.7707 -0.5408
  566MOL0     H76379  -0.176   0.126   1.316 -1.8673  1.4331 -1.7715
  566MOL0     H76380  -0.263   0.231   1.585  0.3502 -0.8783  0.5457
  566MOL0     H76381  -0.239   0.060   1.532  0.6707  0.2853 -1.1486
  566MOL0     H76382  -0.446   0.220   1.384 -0.3706 -1.6613 -1.1318
  566MOL0     H76383  -0.424   0.049   1.389  0.1613 -0.4200  0.9906
  566MOL0     H76384  -0.627   0.160   1.518 -1.1177  3.3803  2.4541
  566MOL0     H76385  -0.512   0.238   1.612  2.0328  0.5590 -1.0654
  566MOL0     H76386  -0.506  -0.072   1.607 -4.2035 -1.2700  1.2145
  566MOL0     H76387  -0.435   0.053   1.728 -1.9354  4.5735  0.2527
  566MOL0     H76388  -0.725  -0.020   1.690 -0.9141  2.6083 -1.6934
  566MOL0     H76389  -0.647   0.103   1.793  0.8830 -0.2359  1.0872
  566MOL0     H76390  -0.664  -0.095   1.946  0.4035 -4.8047  1.1789
  566MOL0     H76391  -0.498  -0.083   1.887 -0.1292 -2.8160  0.7279
  566MOL0     H76392   0.174   0.204   1.620  2.7616 -2.9970  0.9608
  566MOL0     H76393   0.388   0.225   1.662 -0.7731 -1.9866 -1.2724
  566MOL0     H76394   0.846   0.563   1.517  0.4289  1.1481  2.5377
  566MOL0     H76395   1.081   0.534   1.549 -0.2163  1.0013 -1.0753
  566MOL0     H76396   2.886   0.744   2.186 -2.6271 -0.6513 -2.1129
  566MOL0     H76397   3.143   0.720   2.193 -0.0062  0.5359 -0.4759
  566MOL0     H76398   3.493   0.663   2.143  0.0240  0.1225  0.0606
  566MOL0     H76399   3.726   0.672   2.224 -3.0122  0.8375  1.0818
  566MOL0     H76400   4.098   0.477   2.121  0.0676  0.7720  0.3074
  566MOL0     H76401   3.970   0.390   2.020 -0.5959  1.3399 -1.5608
  566MOL0     H76402   3.877   0.615   1.963  0.9571  0.3426 -1.9353
  566MOL0     H76403   4.036   0.584   1.911 -0.0163  0.0632  0.3609
  566MOL0     H76404   3.947   0.743   2.158 -1.8491 -0.0498 -1.3952
  566MOL0     H76405   4.003   0.818   2.003  0.9006 -0.5207 -1.0779
  566MOL0     H76406   4.180   0.689   2.202 -1.2038  0.3765  1.2544
  566MOL0     H76407   4.161   0.859   2.160 -0.8588 -0.2122 -0.2675
  566MOL0     H76408   4.393   0.744   1.828 -0.4041  2.1706 -1.1606
  566MOL0     H76409   3.786   0.255   2.085 -0.0403 -0.4217  0.2523
  566MOL0     H76410   3.543   0.245   2.048 -0.8920 -0.2548  1.1245
  567MOL0     O76411   7.012   4.317  10.355 -0.0241  0.1004  1.1422
  567MOL0     C76412   7.040   4.437  10.382 -0.1091 -0.5760 -0.6159
  567MOL0     O76413   6.973   4.520  10.476 -0.0241  0.4469  0.3800
  567MOL0     C76414   6.853   4.470  10.510 -0.1962 -0.1549 -0.7494
  567MOL0     C76415   6.826   4.426  10.640  0.8730  0.3829 -0.5946
  567MOL0     C76416   6.696   4.365  10.672  0.6474 -1.3844 -0.6817
  567MOL0     C76417   6.596   4.358  10.579  0.2054 -0.2782  0.1073
  567MOL0     O76418   6.470   4.311  10.618 -0.0004 -0.5045 -0.1562
  567MOL0     C76419   6.354   4.367  10.561 -0.5311 -0.8428  0.4582
  567MOL0     C76420   6.239   4.322  10.646 -0.2640 -0.0013  0.4089
  567MOL0     C76421   6.099   4.377  10.589 -0.4022 -0.0059 -0.3868
  567MOL0     C76422   5.995   4.340  10.698  0.1350  0.1709  0.1873
  567MOL0     C76423   5.871   4.421  10.674  0.1718  0.3239 -0.0179
  567MOL0     C76424   5.760   4.374  10.769 -0.1641 -0.8295 -0.5262
  567MOL0     C76425   5.618   4.437  10.754 -0.1265  0.5958  0.4600
  567MOL0     C76426   5.545   4.362  10.639 -0.4530 -1.1161 -0.2176
  567MOL0     N76427   5.398   4.387  10.635 -0.1980 -0.9548 -0.6450
  567MOL0     C76428   5.300   4.287  10.666 -0.0494  0.6938 -0.6593
  567MOL0     C76429   5.192   4.346  10.621  0.0918 -0.2988  1.3568
  567MOL0     C76430   5.055   4.287  10.633  1.0748  0.6686  0.1513
  567MOL0     C76431   4.956   4.389  10.686 -0.0065 -0.4690 -0.0418
  567MOL0     C76432   4.818   4.323  10.712 -1.1734 -1.6600 -0.4447
  567MOL0     C76433   4.717   4.436  10.721 -0.1837  0.3268 -1.0661
  567MOL0     O76434   4.593   4.372  10.726 -0.0452  0.3087 -0.7541
  567MOL0     C76435   4.493   4.422  10.798 -1.2944  0.2942  0.0877
  567MOL0     C76436   4.378   4.356  10.776  0.3042  1.1689 -0.7195
  567MOL0     C76437   4.250   4.404  10.811  0.6165  0.9233  0.5018
  567MOL0     C76438   4.123   4.322  10.781  0.6612 -0.2088 -0.1177
  567MOL0     C76439   4.238   4.512  10.895  0.2187 -0.8045 -0.1967
  567MOL0     C76440   4.116   4.569  10.968 -0.0736  0.1962 -0.2436
  567MOL0     O76441   3.999   4.503  10.948  0.5623 -0.5887 -0.3278
  567MOL0     C76442   3.881   4.542  11.008 -0.0011  0.4286  0.6028
  567MOL0     C76443   3.848   4.490  11.136 -0.8766 -0.6450 -0.2965
  567MOL0     C76444   3.744   4.548  11.214  0.1658  0.0604  0.5974
  567MOL0     C76445   3.653   4.633  11.144  0.9415  0.7411  1.0288
  567MOL0     O76446   3.546   4.684  11.212  0.2983  1.3838 -0.0351
  567MOL0     C76447   3.422   4.620  11.221  0.8694 -0.5329 -0.4844
  567MOL0     C76448   3.353   4.705  11.340 -0.3009 -0.0896  0.4134
  567MOL0     C76449   3.302   4.844  11.288 -0.7169 -0.1549  0.4070
  567MOL0     C76450   3.243   4.934  11.402 -0.2456 -0.3645 -0.1952
  567MOL0     C76451   3.186   5.061  11.340 -0.4844  0.5988  0.7782
  567MOL0     C76452   3.115   5.149  11.448 -0.8623  0.4002  0.6460
  567MOL0     C76453   2.977   5.092  11.486  0.0728 -0.6186  0.0644
  567MOL0     C76454   2.900   5.174  11.583  0.2686 -1.3869  0.1548
  567MOL0    Cl76455   2.765   5.076  11.651  0.1679  0.2301 -0.0701
  567MOL0     C76456   3.675   4.656  11.005  0.4873  0.1787  0.5051
  567MOL0     C76457   3.790   4.618  10.935 -0.6000  0.0266  0.6375
  567MOL0     O76458   4.130   4.673  11.039 -0.3296 -0.2503  0.2605
  567MOL0     C76459   4.366   4.577  10.925  0.8913 -0.3223 -0.2774
  567MOL0     C76460   4.486   4.535  10.872  0.1453  0.3882 -0.2885
  567MOL0     N76461   5.214   4.466  10.560 -0.7936 -0.7478  0.4051
  567MOL0     N76462   5.342   4.494  10.571 -0.2970  1.1214  0.2866
  567MOL0     C76463   6.623   4.394  10.446 -0.3606 -0.1168  0.2310
  567MOL0     C76464   6.748   4.450  10.414 -0.0143 -1.0094  0.4145
  567MOL0     C76465   7.163   4.504  10.316 -0.2526 -0.4815  0.5130
  567MOL0     C76466   7.211   4.633  10.359 -0.0461  1.0598 -0.2352
  567MOL0     C76467   7.323   4.694  10.308 -1.0729  0.6554 -0.0232
  567MOL0     C76468   7.401   4.634  10.210  0.1911  0.0299 -0.1803
  567MOL0     O76469   7.507   4.700  10.156  0.1803  0.7301  0.1015
  567MOL0     C76470   7.637   4.621  10.178  0.3051 -0.4830 -0.2579
  567MOL0     C76471   7.744   4.718  10.229 -0.5083 -0.9937 -0.7853
  567MOL0     C76472   7.860   4.628  10.274 -0.4334 -0.7432 -0.3050
  567MOL0     C76473   7.982   4.622  10.184  0.3232 -0.1407  0.5611
  567MOL0     C76474   8.067   4.508  10.229 -0.3373 -1.0896 -0.3921
  567MOL0     C76475   8.142   4.418  10.263  0.2417  0.0701  0.2740
  567MOL0     C76476   7.362   4.509  10.170  0.0277  0.3814 -0.2149
  567MOL0     C76477   7.251   4.436  10.225  0.4747 -0.6550 -0.2570
  567MOL0     H76478   6.902   4.456  10.712  1.2688  0.0140 -0.8532
  567MOL0     H76479   6.688   4.337  10.777  2.5070  0.3572 -0.0032
  567MOL0     H76480   6.362   4.476  10.557  2.4665 -1.0162 -1.0398
  567MOL0     H76481   6.338   4.332  10.459 -0.6723 -0.6877  0.4284
  567MOL0     H76482   6.232   4.213  10.648  2.1973 -0.2137  0.1443
  567MOL0     H76483   6.257   4.352  10.749 -1.3451  0.9176  0.3541
  567MOL0     H76484   6.110   4.486  10.586 -0.5228  0.2525  3.4064
  567MOL0     H76485   6.071   4.334  10.492  0.7436 -1.6407 -0.0301
  567MOL0     H76486   5.980   4.232  10.700  3.0072 -0.3589 -1.7173
  567MOL0     H76487   6.037   4.359  10.797 -0.9325  0.0728  0.6714
  567MOL0     H76488   5.889   4.528  10.680 -0.2550  0.4016 -0.1261
  567MOL0     H76489   5.838   4.403  10.571  0.2984 -0.2775  0.0410
  567MOL0     H76490   5.755   4.265  10.768 -1.9210 -0.8041  0.4849
  567MOL0     H76491   5.800   4.386  10.870  1.3862  2.1461 -1.3675
  567MOL0     H76492   5.568   4.424  10.850  1.6997  0.9312  1.5228
  567MOL0     H76493   5.611   4.545  10.739 -1.5304  0.8057  2.2835
  567MOL0     H76494   5.567   4.256  10.651  0.6056 -1.0418 -1.3432
  567MOL0     H76495   5.587   4.400  10.545 -2.8897  0.4882 -0.7485
  567MOL0     H76496   5.298   4.193  10.720 -2.6899  0.6547 -0.7012
  567MOL0     H76497   5.022   4.236  10.542 -0.7584  0.0901  1.1056
  567MOL0     H76498   5.061   4.218  10.717 -1.0933  2.4158  1.8665
  567MOL0     H76499   4.944   4.475  10.619 -1.7262  1.2785  2.3776
  567MOL0     H76500   4.987   4.412  10.788 -1.3831  1.1318  0.0418
  567MOL0     H76501   4.816   4.264  10.805  4.0859  0.6616  1.5373
  567MOL0     H76502   4.800   4.265  10.622 -0.5142  1.0159 -2.4352
  567MOL0     H76503   4.719   4.500  10.633  0.0777  3.3709  1.0116
  567MOL0     H76504   4.752   4.497  10.805  1.4786 -0.5626 -1.0720
  567MOL0     H76505   4.381   4.274  10.705 -0.0304  1.9022 -1.5977
  567MOL0     H76506   4.041   4.389  10.753 -0.0760 -0.6934  0.8210
  567MOL0     H76507   4.146   4.262  10.693  1.7528  2.1096 -1.5314
  567MOL0     H76508   4.089   4.256  10.861  0.4634  0.0501  0.0158
  567MOL0     H76509   3.914   4.421  11.188  0.1385 -1.1690 -2.1794
  567MOL0     H76510   3.727   4.513  11.315 -0.3296 -2.4775 -0.2784
  567MOL0     H76511   3.372   4.618  11.123  1.7104 -1.4156 -0.9181
  567MOL0     H76512   3.425   4.519  11.263  1.4017 -1.0863 -1.8059
  567MOL0     H76513   3.262   4.650  11.368  0.1648 -1.6685 -0.9840
  567MOL0     H76514   3.416   4.719  11.428 -0.3835 -0.5491  0.5470
  567MOL0     H76515   3.218   4.821  11.223  0.9877 -2.4689 -1.1251
  567MOL0     H76516   3.364   4.897  11.215  2.5258 -0.8353  2.4733
  567MOL0     H76517   3.158   4.886  11.450  1.1398 -2.4796  0.2970
  567MOL0     H76518   3.319   4.956  11.477 -0.4170  1.6491 -0.5636
  567MOL0     H76519   3.115   5.028  11.264 -0.3738 -1.4999  1.5244
  567MOL0     H76520   3.265   5.123  11.295 -0.2335  0.7401  1.4033
  567MOL0     H76521   3.167   5.164  11.543 -0.1565 -1.7181  0.6420
  567MOL0     H76522   3.123   5.250  11.408  1.4445  0.4195  0.9813
  567MOL0     H76523   2.988   4.998  11.540  1.9989 -0.4612  0.0158
  567MOL0     H76524   2.910   5.074  11.402 -3.2278  0.2193  2.3011
  567MOL0     H76525   2.861   5.267  11.541  1.1086 -0.3365  1.6147
  567MOL0     H76526   2.970   5.223  11.651  0.4583  3.0592 -2.8099
  567MOL0     H76527   3.600   4.721  10.962 -2.0367 -2.0320  1.2638
  567MOL0     H76528   3.786   4.656  10.834 -2.6255  0.5543  0.8678
  567MOL0     H76529   4.364   4.665  10.989 -0.8379  0.0467 -0.7873
  567MOL0     H76530   4.574   4.595  10.894  2.5573 -2.6961 -0.8537
  567MOL0     H76531   6.546   4.376  10.372 -2.5343  2.1869  1.7724
  567MOL0     H76532   6.764   4.478  10.311 -1.4435 -0.0747  0.4128
  567MOL0     H76533   7.147   4.689  10.426 -1.1829 -1.9880  1.4572
  567MOL0     H76534   7.349   4.791  10.350 -0.7637  0.5059  0.1323
  567MOL0     H76535   7.621   4.542  10.253  2.2117 -1.3249 -0.6912
  567MOL0     H76536   7.672   4.577  10.084  3.3012  0.8697  0.1171
  567MOL0     H76537   7.701   4.773  10.312  2.4247  1.3421 -0.6456
  567MOL0     H76538   7.770   4.789  10.150 -0.8659  0.4383  0.3627
  567MOL0     H76539   7.823   4.526  10.280 -0.5104 -0.7798 -1.2200
  567MOL0     H76540   7.897   4.659  10.372  3.2365 -1.0229 -1.4552
  567MOL0     H76541   8.037   4.714  10.203  1.1928 -0.9523  2.2022
  567MOL0     H76542   7.959   4.619  10.077  2.4776 -1.3096  0.0676
  567MOL0     H76543   8.211   4.349  10.306 -0.0314  1.9229  4.0511
  567MOL0     H76544   7.412   4.463  10.086  1.0618 -0.0905  0.6427
  567MOL0     H76545   7.216   4.337  10.195 -0.9342 -1.3684  3.2255
  568MOL0     O76546   0.433   9.381   4.412  0.2319 -0.1532  0.5252
  568MOL0     C76547   0.462   9.408   4.529  0.1685 -0.2295 -0.6335
  568MOL0     O76548   0.372   9.450   4.621 -0.2777  0.0164 -0.5478
  568MOL0     C76549   0.240   9.487   4.595 -0.1131  0.0400  0.1518
  568MOL0     C76550   0.183   9.565   4.694  0.7777  0.4381 -0.2253
  568MOL0     C76551   0.052   9.620   4.681 -0.0186  0.0225 -0.5316
  568MOL0     C76552  -0.017   9.592   4.566  0.3058 -0.2834  0.0055
  568MOL0     O76553  -0.132   9.662   4.549 -0.1863  0.1580  1.3546
  568MOL0     C76554  -0.265   9.617   4.589  0.5042 -0.3451  0.3612
  568MOL0     C76555  -0.341   9.562   4.462  1.1183 -0.0694  0.5315
  568MOL0     C76556  -0.465   9.487   4.506 -0.4084 -0.3352 -0.0300
  568MOL0     C76557  -0.570   9.587   4.530 -0.2449  0.0042  1.1153
  568MOL0     C76558  -0.700   9.517   4.568 -0.0471 -0.4403  0.2124
  568MOL0     C76559  -0.813   9.623   4.601 -0.9921 -0.3975  0.5635
  568MOL0     C76560  -0.933   9.541   4.650 -0.1329 -0.2290  0.0291
  568MOL0     C76561  -1.053   9.511   4.557 -1.0193 -0.9104  0.1122
  568MOL0     N76562  -1.150   9.424   4.622  0.0915  0.2706 -0.2684
  568MOL0     C76563  -1.141   9.358   4.745  0.7401  0.6825  0.4892
  568MOL0     C76564  -1.258   9.283   4.746  0.4245 -0.0199 -0.5793
  568MOL0     C76565  -1.294   9.182   4.857  0.0641 -0.1434  0.2072
  568MOL0     C76566  -1.182   9.077   4.856  0.4008  0.0765  0.7413
  568MOL0     C76567  -1.228   8.955   4.941 -0.7015 -0.4835 -0.7024
  568MOL0     C76568  -1.311   8.867   4.856 -0.0001 -0.6037 -0.7341
  568MOL0     O76569  -1.234   8.787   4.763 -0.1760  0.2650  0.2377
  568MOL0     C76570  -1.291   8.779   4.638 -0.1698 -0.6064  0.0667
  568MOL0     C76571  -1.328   8.648   4.603 -0.2098 -0.8885 -0.5062
  568MOL0     C76572  -1.401   8.624   4.488 -0.5852  0.8357  0.1506
  568MOL0     C76573  -1.397   8.473   4.451 -0.4756 -0.8518 -0.2176
  568MOL0     C76574  -1.452   8.732   4.411  0.4732 -0.7439  0.3411
  568MOL0     C76575  -1.543   8.712   4.294 -0.5012  1.4121  1.0268
  568MOL0     O76576  -1.571   8.830   4.238 -0.2717  0.2652  1.1310
  568MOL0     C76577  -1.630   8.833   4.110 -0.4614  0.0962  0.1025
  568MOL0     C76578  -1.585   8.741   4.013 -0.4755 -0.4234  0.1631
  568MOL0     C76579  -1.615   8.755   3.881  0.0480 -0.2202  0.3119
  568MOL0     C76580  -1.707   8.849   3.837 -0.6852 -0.2857  0.3188
  568MOL0     O76581  -1.736   8.850   3.702 -0.0275  0.0664 -0.2842
  568MOL0     C76582  -1.790   8.970   3.639  0.4219  0.1440 -1.0000
  568MOL0     C76583  -1.765   8.966   3.491  0.1639  0.2327  0.3162
  568MOL0     C76584  -1.620   8.984   3.457 -0.0563 -0.5928 -0.3003
  568MOL0     C76585  -1.585   9.015   3.309  0.1599 -0.1808  0.1086
  568MOL0     C76586  -1.622   8.898   3.214  0.0366 -0.4807  1.0508
  568MOL0     C76587  -1.699   8.923   3.086  0.6904 -0.0441  0.0734
  568MOL0     C76588  -1.609   9.014   2.992  0.1046  0.5758  0.3173
  568MOL0     C76589  -1.669   9.050   2.856 -0.8513 -0.3802  0.1140
  568MOL0    Cl76590  -1.521   9.110   2.757  0.2881  0.0817  0.0746
  568MOL0     C76591  -1.757   8.942   3.931 -0.9431 -0.2359  0.1732
  568MOL0     C76592  -1.719   8.935   4.063 -0.0930  0.2981 -0.1388
  568MOL0     O76593  -1.608   8.614   4.280 -0.3338  0.1951  0.4416
  568MOL0     C76594  -1.422   8.864   4.457  0.5615  0.0149 -1.0534
  568MOL0     C76595  -1.339   8.880   4.571  1.0919 -0.4842  0.0961
  568MOL0     N76596  -1.338   9.303   4.633  0.3201 -0.6846  0.5134
  568MOL0     N76597  -1.276   9.386   4.563  0.5796 -0.9321  0.0037
  568MOL0     C76598   0.027   9.506   4.473 -0.3609  0.0799 -0.1215
  568MOL0     C76599   0.161   9.457   4.482  0.0052  0.0815 -0.8347
  568MOL0     C76600   0.609   9.383   4.561 -0.4422 -0.6648  0.0619
  568MOL0     C76601   0.666   9.438   4.677 -0.0592  0.4205  0.2055
  568MOL0     C76602   0.795   9.405   4.718  0.1752  0.1415 -0.2153
  568MOL0     C76603   0.876   9.320   4.629  0.2831  0.8568 -0.2075
  568MOL0     O76604   1.007   9.277   4.659 -0.8265  0.0609  0.1271
  568MOL0     C76605   1.084   9.321   4.775 -0.2696  0.1896  0.2779
  568MOL0     C76606   1.208   9.234   4.809  0.3589 -1.1793  0.0757
  568MOL0     C76607   1.181   9.089   4.854 -0.0852 -0.0606 -0.1969
  568MOL0     C76608   1.301   9.017   4.924 -0.3821 -0.3657 -0.1264
  568MOL0     C76609   1.416   9.022   4.840 -0.5267 -0.9957 -0.7994
  568MOL0     C76610   1.513   9.028   4.764 -0.2002 -0.8838  0.5799
  568MOL0     C76611   0.827   9.281   4.507 -0.1350  0.2921  0.4538
  568MOL0     C76612   0.690   9.308   4.485  0.2064  0.0258  0.1559
  568MOL0     H76613   0.246   9.590   4.779 -0.3631 -0.6703  0.9860
  568MOL0     H76614   0.002   9.687   4.750 -1.2401 -1.1920 -0.1723
  568MOL0     H76615  -0.265   9.547   4.673 -0.9960 -0.2147  0.4954
  568MOL0     H76616  -0.326   9.701   4.625 -1.4693 -2.3936  2.1062
  568MOL0     H76617  -0.376   9.646   4.402 -0.4344  0.0877  1.5752
  568MOL0     H76618  -0.273   9.496   4.407 -1.8142 -0.7383 -2.6202
  568MOL0     H76619  -0.493   9.420   4.424 -4.1163 -0.0589  0.8026
  568MOL0     H76620  -0.438   9.423   4.591  3.6805  0.6065 -0.4489
  568MOL0     H76621  -0.546   9.660   4.608 -0.2544  1.3361 -0.0968
  568MOL0     H76622  -0.594   9.643   4.440  0.1191  0.7838  1.4943
  568MOL0     H76623  -0.727   9.453   4.484  0.3508 -2.5032  1.5796
  568MOL0     H76624  -0.674   9.447   4.649  0.9992 -0.4207 -0.0857
  568MOL0     H76625  -0.780   9.694   4.677  1.2619 -1.8990  1.0836
  568MOL0     H76626  -0.838   9.678   4.509 -0.8026  1.8644  1.7934
  568MOL0     H76627  -0.895   9.446   4.688  1.9649  0.5798  0.0580
  568MOL0     H76628  -0.982   9.597   4.730 -5.5976 -2.7346 -1.0941
  568MOL0     H76629  -1.005   9.457   4.476  2.1454 -0.0950  1.2802
  568MOL0     H76630  -1.087   9.605   4.512 -1.8042 -1.2244  0.0412
  568MOL0     H76631  -1.059   9.358   4.817  0.3534 -2.8540  1.1353
  568MOL0     H76632  -1.312   9.228   4.955 -1.9603  0.1053 -0.2253
  568MOL0     H76633  -1.384   9.126   4.830  1.0704 -2.3854  1.2240
  568MOL0     H76634  -1.091   9.120   4.899  1.6223  0.0218 -1.6378
  568MOL0     H76635  -1.143   9.041   4.761  0.5442  0.7988  0.5196
  568MOL0     H76636  -1.289   8.984   5.027 -0.5276 -4.9412  1.1687
  568MOL0     H76637  -1.151   8.890   4.983  0.0404  1.6733  1.5381
  568MOL0     H76638  -1.395   8.918   4.807  0.6810  0.7436 -0.5608
  568MOL0     H76639  -1.367   8.812   4.933 -0.3995  1.9299  0.9451
  568MOL0     H76640  -1.290   8.576   4.674 -0.3535  0.7536  1.3290
  568MOL0     H76641  -1.336   8.462   4.361 -1.8092 -4.1851 -0.8606
  568MOL0     H76642  -1.363   8.409   4.532 -1.8441 -2.7422 -1.0685
  568MOL0     H76643  -1.497   8.436   4.425  0.0542 -1.4419 -1.5025
  568MOL0     H76644  -1.506   8.667   4.022  0.9723  1.1532  1.1587
  568MOL0     H76645  -1.574   8.690   3.804 -2.3691 -1.0767 -0.3502
  568MOL0     H76646  -1.897   8.961   3.662  0.4662  2.5603  0.4265
  568MOL0     H76647  -1.746   9.059   3.685  0.2193 -1.1554  1.8857
  568MOL0     H76648  -1.811   8.875   3.452 -1.7008  0.0093  2.8609
  568MOL0     H76649  -1.823   9.048   3.447 -0.0777 -0.0899  0.0346
  568MOL0     H76650  -1.563   8.895   3.484 -1.0460 -1.0153  0.4565
  568MOL0     H76651  -1.578   9.064   3.518  0.9409 -0.8058 -0.6940
  568MOL0     H76652  -1.626   9.111   3.277  2.3124  0.7980  0.1074
  568MOL0     H76653  -1.476   9.026   3.306 -0.0113  3.5302  1.6518
  568MOL0     H76654  -1.676   8.822   3.271  0.6617 -1.1773  0.7422
  568MOL0     H76655  -1.523   8.855   3.194  0.2610 -0.0281  1.1763
  568MOL0     H76656  -1.707   8.829   3.030 -0.8949 -0.2953  0.6540
  568MOL0     H76657  -1.797   8.964   3.113  1.8379  0.2719  4.5412
  568MOL0     H76658  -1.511   8.966   2.982 -0.1108  0.3085 -0.6055
  568MOL0     H76659  -1.590   9.111   3.039 -0.0218  0.5229  0.4788
  568MOL0     H76660  -1.753   9.120   2.853 -0.3569  0.1807 -1.8974
  568MOL0     H76661  -1.708   8.962   2.805 -0.5019  0.1037 -1.0080
  568MOL0     H76662  -1.823   9.019   3.892  0.2574  0.7328 -0.0150
  568MOL0     H76663  -1.754   9.018   4.124  2.3980  1.2899  0.0939
  568MOL0     H76664  -1.467   8.956   4.422 -1.1028 -0.2503  0.2516
  568MOL0     H76665  -1.308   8.978   4.607  3.3730 -0.6606 -1.2059
  568MOL0     H76666  -0.028   9.489   4.381  2.7034 -0.0487 -2.0832
  568MOL0     H76667   0.196   9.403   4.394 -0.4503  2.6669 -2.7292
  568MOL0     H76668   0.616   9.509   4.741  1.8600  0.4607  1.7664
  568MOL0     H76669   0.829   9.442   4.814 -0.7754 -2.1406  1.0827
  568MOL0     H76670   1.112   9.426   4.758  0.5784  0.1721  1.4430
  568MOL0     H76671   1.024   9.333   4.866  0.2788  4.4393  0.3024
  568MOL0     H76672   1.260   9.288   4.889 -0.2830  2.5597 -1.8046
  568MOL0     H76673   1.264   9.227   4.716 -0.2003 -2.7057 -0.1746
  568MOL0     H76674   1.158   9.028   4.766  3.0369 -1.0449 -0.4669
  568MOL0     H76675   1.098   9.085   4.925  0.4955  2.7586  0.7746
  568MOL0     H76676   1.285   8.910   4.940 -1.2740 -0.4274 -1.3078
  568MOL0     H76677   1.318   9.068   5.020  0.7593  0.6037 -0.8220
  568MOL0     H76678   1.600   9.009   4.705  0.6856 -3.0621  2.4276
  568MOL0     H76679   0.885   9.226   4.434 -0.7739 -2.5782  1.9465
  568MOL0     H76680   0.652   9.270   4.390 -2.3814 -0.0521  1.1534
  569MOL0     O76681   6.929   1.321   4.260 -0.1407 -0.0677  0.4811
  569MOL0     C76682   6.942   1.193   4.251 -0.0877 -0.3634 -1.4061
  569MOL0     O76683   6.845   1.092   4.270  0.2704  0.2373 -0.2698
  569MOL0     C76684   6.718   1.140   4.296  0.6664  0.4553  0.0719
  569MOL0     C76685   6.674   1.164   4.427  0.1538 -0.3642  0.4861
  569MOL0     C76686   6.542   1.201   4.460 -0.9100 -0.5575  0.3821
  569MOL0     C76687   6.460   1.251   4.356  0.1730  0.3606  0.5357
  569MOL0     O76688   6.333   1.296   4.383 -0.0545 -0.8941  0.5035
  569MOL0     C76689   6.264   1.234   4.482 -0.1001 -0.8015  0.1405
  569MOL0     C76690   6.127   1.294   4.466 -0.3092  0.4455 -0.2185
  569MOL0     C76691   6.047   1.211   4.366 -0.5764  0.4840 -1.0188
  569MOL0     C76692   5.899   1.253   4.357 -0.0330 -0.3731  0.2390
  569MOL0     C76693   5.826   1.161   4.258 -0.6075 -0.3355 -0.1261
  569MOL0     C76694   5.730   1.064   4.328 -0.4991 -0.3037  0.2635
  569MOL0     C76695   5.598   1.135   4.355  0.5527  0.2454  0.2370
  569MOL0     C76696   5.517   1.045   4.441 -0.0974  0.5067 -0.4152
  569MOL0     N76697   5.367   1.077   4.448 -0.3052 -0.0692  0.3465
  569MOL0     C76698   5.314   1.173   4.527 -0.5644  0.4209  0.2629
  569MOL0     C76699   5.180   1.163   4.500 -0.0914 -0.3926 -0.5114
  569MOL0     C76700   5.082   1.260   4.553 -0.0191 -0.0348 -0.1074
  569MOL0     C76701   5.035   1.204   4.695 -0.6486  0.4058 -0.3411
  569MOL0     C76702   4.896   1.136   4.688 -0.1148 -0.5924 -0.1753
  569MOL0     C76703   4.831   1.098   4.827  0.8460 -0.0212 -0.2332
  569MOL0     O76704   4.786   1.220   4.897  0.5940  0.4566 -0.7479
  569MOL0     C76705   4.651   1.247   4.900  0.0114 -0.6050 -0.5622
  569MOL0     C76706   4.609   1.322   5.015  0.2060  0.5161 -0.2007
  569MOL0     C76707   4.478   1.365   5.024 -0.4921 -0.3486 -0.5595
  569MOL0     C76708   4.435   1.459   5.137  0.3746  0.4950 -0.1945
  569MOL0     C76709   4.381   1.332   4.918 -0.2125  0.2245 -0.8864
  569MOL0     C76710   4.249   1.368   4.929 -0.3680  0.2802  0.5355
  569MOL0     O76711   4.186   1.371   5.050 -0.1635  0.2524 -0.0978
  569MOL0     C76712   4.052   1.396   5.059 -0.2406  0.5938  0.3825
  569MOL0     C76713   3.992   1.509   5.010 -0.1957 -0.9103 -1.0361
  569MOL0     C76714   3.860   1.532   5.032 -0.0662  0.0359 -0.7557
  569MOL0     C76715   3.785   1.453   5.114  0.4328  0.2870  0.2812
  569MOL0     O76716   3.658   1.505   5.122  0.2276 -0.1751 -0.0264
  569MOL0     C76717   3.555   1.414   5.163 -0.8632  0.3523 -0.6422
  569MOL0     C76718   3.423   1.494   5.178 -0.7388 -0.9424 -0.1648
  569MOL0     C76719   3.318   1.399   5.226  0.2228 -0.6103  0.1600
  569MOL0     C76720   3.190   1.482   5.259 -0.1185  0.6034  0.3107
  569MOL0     C76721   3.080   1.391   5.300  0.5089  0.1082  0.1194
  569MOL0     C76722   2.977   1.443   5.398 -0.1518  0.1742  0.0204
  569MOL0     C76723   2.908   1.573   5.365 -0.4854 -0.8894  0.2542
  569MOL0     C76724   2.775   1.584   5.439 -0.3183  0.5513 -0.9378
  569MOL0    Cl76725   2.800   1.605   5.610  0.4923 -0.4829 -0.2670
  569MOL0     C76726   3.839   1.337   5.170  1.0015 -0.2317  0.6360
  569MOL0     C76727   3.973   1.305   5.138 -0.3605  0.0548 -0.2469
  569MOL0     O76728   4.194   1.383   4.819  0.6219 -0.4423  0.3110
  569MOL0     C76729   4.427   1.255   4.806  1.1294  0.7960 -0.1458
  569MOL0     C76730   4.558   1.218   4.802 -0.0407 -0.9469  0.1816
  569MOL0     N76731   5.156   1.060   4.418 -0.8350  0.2097 -0.0094
  569MOL0     N76732   5.273   1.012   4.378 -0.3038 -0.2598  0.9746
  569MOL0     C76733   6.505   1.224   4.223  0.3463 -0.0668  0.0573
  569MOL0     C76734   6.636   1.171   4.186  0.0243 -0.0949 -0.1280
  569MOL0     C76735   7.077   1.137   4.212 -0.1718  0.0397 -0.0710
  569MOL0     C76736   7.120   1.010   4.249 -0.0955  0.7148  0.7213
  569MOL0     C76737   7.251   0.974   4.224  0.2112 -0.5406  0.3044
  569MOL0     C76738   7.335   1.055   4.143  0.1259  1.5585 -0.3407
  569MOL0     O76739   7.467   1.015   4.133 -0.2062 -0.0270 -0.0008
  569MOL0     C76740   7.567   1.098   4.072  0.2179 -0.8838  0.0505
  569MOL0     C76741   7.705   1.059   4.108 -0.1451  0.7232  0.0858
  569MOL0     C76742   7.807   1.140   4.034  0.1546  0.1660 -0.3080
  569MOL0     C76743   7.947   1.085   4.045 -0.0584  0.0279 -0.7116
  569MOL0     C76744   8.005   1.090   4.182 -0.2966  0.5926 -0.1843
  569MOL0     C76745   8.045   1.108   4.297 -0.8252  0.3805 -0.1367
  569MOL0     C76746   7.288   1.174   4.092  1.0405  0.4862 -0.6328
  569MOL0     C76747   7.165   1.224   4.139  0.0224  0.0762  0.9436
  569MOL0     H76748   6.738   1.145   4.512 -0.2591  0.8262  1.0761
  569MOL0     H76749   6.510   1.211   4.563 -2.1665  0.1276 -0.0456
  569MOL0     H76750   6.256   1.125   4.486  0.4349 -0.8200  0.8890
  569MOL0     H76751   6.303   1.271   4.578 -0.7156  0.6127 -0.1226
  569MOL0     H76752   6.071   1.297   4.560 -1.4751  2.5705 -0.9096
  569MOL0     H76753   6.129   1.398   4.435 -0.2925  0.1321 -1.3011
  569MOL0     H76754   6.103   1.205   4.272  1.8229 -0.8410  0.3941
  569MOL0     H76755   6.051   1.112   4.412  2.8252  0.8632 -0.2691
  569MOL0     H76756   5.862   1.261   4.460  2.4282 -0.2911  1.1860
  569MOL0     H76757   5.884   1.356   4.322 -2.1427  0.2947  2.7723
  569MOL0     H76758   5.774   1.217   4.180 -1.4011 -0.3276  0.3953
  569MOL0     H76759   5.903   1.101   4.209 -0.0268  0.6083 -0.3825
  569MOL0     H76760   5.716   0.979   4.261  1.6310 -0.9740  0.6052
  569MOL0     H76761   5.768   1.034   4.426 -0.2582  1.4383  0.7394
  569MOL0     H76762   5.617   1.230   4.405 -1.2886  0.7846 -0.0177
  569MOL0     H76763   5.530   1.152   4.271 -1.9149 -0.9001  1.8755
  569MOL0     H76764   5.550   1.061   4.544  0.6474  1.3943 -0.7831
  569MOL0     H76765   5.525   0.939   4.415  1.4308  0.4802  0.0596
  569MOL0     H76766   5.362   1.242   4.596  1.5668 -1.0954  0.3788
  569MOL0     H76767   5.119   1.361   4.571  0.7143  0.0161 -1.7696
  569MOL0     H76768   5.002   1.268   4.479  1.9052  1.3455 -2.1354
  569MOL0     H76769   5.028   1.290   4.762  2.7773  3.3809 -3.3387
  569MOL0     H76770   5.119   1.139   4.722  2.1644  3.5943 -0.6877
  569MOL0     H76771   4.914   1.043   4.635 -1.4789 -0.6047 -0.6500
  569MOL0     H76772   4.820   1.178   4.621  0.8391 -1.9463 -2.1848
  569MOL0     H76773   4.906   1.043   4.886  0.0814 -2.0911 -1.0963
  569MOL0     H76774   4.748   1.028   4.811 -1.2167  1.5334  2.5949
  569MOL0     H76775   4.693   1.334   5.083  0.4204 -0.3519 -0.2956
  569MOL0     H76776   4.516   1.503   5.197  0.1324  1.3716 -0.4915
  569MOL0     H76777   4.364   1.540   5.115  0.9785  1.2422  0.5318
  569MOL0     H76778   4.376   1.391   5.200  0.1811 -0.5855 -1.4922
  569MOL0     H76779   4.054   1.576   4.950  1.6657 -1.5888  0.0500
  569MOL0     H76780   3.824   1.629   4.999  0.9789  0.8149  0.3140
  569MOL0     H76781   3.538   1.337   5.087 -1.5454  1.3696 -1.5612
  569MOL0     H76782   3.595   1.381   5.259 -1.1852  2.1364  0.1459
  569MOL0     H76783   3.436   1.577   5.249  2.2649 -0.9522 -0.5688
  569MOL0     H76784   3.401   1.532   5.078 -1.8404 -0.0985  0.3786
  569MOL0     H76785   3.351   1.356   5.321 -0.1737  0.3154  0.7306
  569MOL0     H76786   3.299   1.322   5.150  2.1294 -0.6443 -0.3153
  569MOL0     H76787   3.209   1.562   5.332 -1.3217  1.1164  0.0832
  569MOL0     H76788   3.158   1.527   5.164  1.5839  2.4163  0.5417
  569MOL0     H76789   3.121   1.299   5.341  1.3172  0.6297  0.5122
  569MOL0     H76790   3.030   1.368   5.206  2.2905  0.1089 -0.8679
  569MOL0     H76791   2.898   1.368   5.392 -1.1968  1.2506 -0.0044
  569MOL0     H76792   3.011   1.445   5.502 -1.8533 -2.3418  0.7483
  569MOL0     H76793   2.890   1.576   5.258 -0.8678  2.0377  0.3391
  569MOL0     H76794   2.966   1.661   5.392 -1.2498 -0.9064  2.1146
  569MOL0     H76795   2.709   1.498   5.424  0.0967  0.0571 -0.0223
  569MOL0     H76796   2.725   1.675   5.405 -0.6072  0.5743 -0.4639
  569MOL0     H76797   3.784   1.275   5.240  3.1669 -1.5577  1.2493
  569MOL0     H76798   4.015   1.215   5.181 -3.1242 -0.0973  2.5393
  569MOL0     H76799   4.374   1.228   4.716  2.4387  0.6917 -0.9035
  569MOL0     H76800   4.589   1.168   4.711 -1.7944 -0.8607 -0.4933
  569MOL0     H76801   6.434   1.244   4.143  0.6331  2.4449  0.3348
  569MOL0     H76802   6.668   1.142   4.086  3.2381 -2.0822  1.3315
  569MOL0     H76803   7.064   0.949   4.319  1.1727  1.0309  2.0664
  569MOL0     H76804   7.299   0.886   4.265  0.8208 -0.2905  0.1452
  569MOL0     H76805   7.554   1.097   3.963 -0.9054  1.4316  0.0859
  569MOL0     H76806   7.543   1.199   4.109 -2.5091 -1.1201 -0.8561
  569MOL0     H76807   7.727   0.953   4.088  2.6848  1.4482 -0.9990
  569MOL0     H76808   7.715   1.067   4.217 -0.5921  0.1934  0.1746
  569MOL0     H76809   7.807   1.247   4.060 -0.0253 -0.0539  0.6491
  569MOL0     H76810   7.781   1.126   3.929 -2.2805  1.8155 -0.0196
  569MOL0     H76811   8.022   1.145   3.992  1.8655 -0.0504  1.7670
  569MOL0     H76812   7.950   0.985   3.999 -3.6782  0.8990 -3.2590
  569MOL0     H76813   8.091   1.130   4.391 -0.8469 -0.0399 -0.0254
  569MOL0     H76814   7.344   1.237   4.024  0.5056 -0.6602 -2.1847
  569MOL0     H76815   7.131   1.325   4.116 -1.4857 -0.6366 -0.1713
  570MOL0     O76816   1.451  10.612   5.055  0.1222  0.0039  0.1166
  570MOL0     C76817   1.497  10.663   5.153 -0.6668 -0.5501  0.2664
  570MOL0     O76818   1.427  10.730   5.251 -0.3556 -0.5971  0.3183
  570MOL0     C76819   1.301  10.758   5.220  0.6734  0.0997 -0.3666
  570MOL0     C76820   1.257  10.865   5.135 -0.2173 -0.6803 -0.1788
  570MOL0     C76821   1.123  10.907   5.134 -0.0616  0.2928  0.0330
  570MOL0     C76822   1.026  10.838   5.210  0.1358  0.5745  0.2448
  570MOL0     O76823   0.904  10.892   5.210  0.0734 -0.2171  0.1624
  570MOL0     C76824   0.805  10.869   5.312  0.3921  0.4557  1.3635
  570MOL0     C76825   0.660  10.883   5.246  0.3014  0.3568 -0.4951
  570MOL0     C76826   0.578  10.982   5.319 -0.2163  0.1342  0.2600
  570MOL0     C76827   0.433  10.980   5.284  0.7769  0.1309 -0.1771
  570MOL0     C76828   0.357  11.078   5.367  0.8277 -0.3708  0.5617
  570MOL0     C76829   0.376  11.223   5.317  0.0712  0.1271 -0.8234
  570MOL0     C76830   0.251  11.313   5.325 -0.4422  0.3041 -0.0274
  570MOL0     C76831   0.296  11.461   5.300  0.3296 -0.2846 -0.7819
  570MOL0     N76832   0.271  11.502   5.160 -0.3033 -0.4364  0.0120
  570MOL0     C76833   0.149  11.521   5.099 -0.0366 -0.6446 -0.1435
  570MOL0     C76834   0.185  11.552   4.976  0.5085 -0.8067  0.5213
  570MOL0     C76835   0.090  11.584   4.862  0.9494  0.3719 -0.5251
  570MOL0     C76836   0.059  11.444   4.804  0.0486 -0.5750 -0.2241
  570MOL0     C76837  -0.024  11.459   4.680  0.5332  0.8400 -0.5877
  570MOL0     C76838  -0.098  11.323   4.652 -0.7316 -0.0625  0.7378
  570MOL0     O76839  -0.169  11.281   4.767  0.6678 -0.1604  0.1969
  570MOL0     C76840  -0.287  11.347   4.782  0.8830  0.4375 -1.5186
  570MOL0     C76841  -0.306  11.440   4.882  1.0978 -0.3709 -0.3961
  570MOL0     C76842  -0.425  11.519   4.889 -0.9308  0.5044 -0.4709
  570MOL0     C76843  -0.416  11.635   4.985 -0.0682 -0.0066 -0.3583
  570MOL0     C76844  -0.536  11.483   4.804 -0.1141 -1.0217  0.3962
  570MOL0     C76845  -0.671  11.550   4.816 -1.1608 -0.3486 -0.2105
  570MOL0     O76846  -0.780  11.481   4.774 -0.0796 -0.9212 -0.1740
  570MOL0     C76847  -0.903  11.547   4.766  0.1724  0.4886  0.3419
  570MOL0     C76848  -0.944  11.597   4.639  0.2347  0.3314  0.5468
  570MOL0     C76849  -1.070  11.658   4.619  0.1281 -0.0857 -0.5066
  570MOL0     C76850  -1.156  11.650   4.728  0.7038 -0.9925 -0.4140
  570MOL0     O76851  -1.271  11.717   4.697  0.2068 -0.1563  0.7308
  570MOL0     C76852  -1.394  11.688   4.763 -0.0819 -0.1389 -0.4195
  570MOL0     C76853  -1.475  11.812   4.754  0.2805  0.1318 -0.4849
  570MOL0     C76854  -1.608  11.782   4.822  1.1992  0.2687 -0.1876
  570MOL0     C76855  -1.730  11.873   4.785 -0.2467  0.5594 -0.7959
  570MOL0     C76856  -1.865  11.830   4.846 -0.2845 -0.0001  0.3116
  570MOL0     C76857  -1.968  11.915   4.786 -0.0315  0.3147  0.2853
  570MOL0     C76858  -2.095  11.908   4.864  0.1931 -0.0055  0.2962
  570MOL0     C76859  -2.218  11.949   4.780 -0.5882 -0.0251  0.6131
  570MOL0    Cl76860  -2.210  12.121   4.711  0.7046 -0.0622  0.3866
  570MOL0     C76861  -1.120  11.608   4.849 -0.4267  0.5470 -0.3558
  570MOL0     C76862  -0.987  11.574   4.877  0.5208 -0.0053  0.1725
  570MOL0     O76863  -0.676  11.670   4.852 -0.2108 -0.3407 -0.2228
  570MOL0     C76864  -0.523  11.381   4.712  0.0912  0.7876  0.6196
  570MOL0     C76865  -0.397  11.316   4.703  0.5213  0.1443  0.4826
  570MOL0     N76866   0.323  11.565   4.965  0.3562  0.1660 -0.0149
  570MOL0     N76867   0.372  11.526   5.073 -0.1268  0.7431 -0.6108
  570MOL0     C76868   1.064  10.722   5.277 -0.2015  0.0987  0.5133
  570MOL0     C76869   1.199  10.694   5.295 -0.4607  1.1436 -0.3624
  570MOL0     C76870   1.640  10.658   5.174 -0.2417  0.4790 -0.0826
  570MOL0     C76871   1.727  10.587   5.086  0.2684  0.1764  0.7165
  570MOL0     C76872   1.862  10.567   5.109  0.4111 -0.0834  0.0509
  570MOL0     C76873   1.927  10.637   5.215 -0.1454  0.2240  0.6909
  570MOL0     O76874   2.063  10.625   5.217  0.4783 -0.5693  0.0823
  570MOL0     C76875   2.133  10.705   5.303  0.2481 -0.4163  0.1833
  570MOL0     C76876   2.286  10.706   5.276  0.0648  0.4854  0.0044
  570MOL0     C76877   2.335  10.564   5.315 -0.1563 -0.4314  0.7569
  570MOL0     C76878   2.472  10.531   5.256 -0.1641  0.2057 -0.2736
  570MOL0     C76879   2.552  10.471   5.369  0.4922 -0.2459 -0.2080
  570MOL0     C76880   2.623  10.429   5.463  0.7198  0.0061  0.1198
  570MOL0     C76881   1.845  10.707   5.307 -0.5124 -0.6721 -0.2503
  570MOL0     C76882   1.703  10.716   5.290  0.4267  0.5310 -0.1319
  570MOL0     H76883   1.339  10.920   5.091 -2.4472  1.2069 -2.2817
  570MOL0     H76884   1.093  11.000   5.086 -1.4602 -0.2369 -0.1632
  570MOL0     H76885   0.816  10.769   5.353  1.1051  0.5278  1.3559
  570MOL0     H76886   0.832  10.943   5.389  1.6545  4.3993 -2.4462
  570MOL0     H76887   0.682  10.911   5.142  1.5498  0.3988 -0.2392
  570MOL0     H76888   0.609  10.786   5.250  1.7762 -0.4512 -0.7103
  570MOL0     H76889   0.589  10.968   5.426 -2.0122  1.8269  0.7210
  570MOL0     H76890   0.615  11.081   5.291 -0.5892  0.3322  0.4743
  570MOL0     H76891   0.415  10.997   5.177 -0.8319 -0.6817 -0.0504
  570MOL0     H76892   0.386  10.885   5.309 -0.6665  0.8687 -0.0037
  570MOL0     H76893   0.250  11.052   5.366  0.9781 -0.9910 -0.3056
  570MOL0     H76894   0.387  11.067   5.472  2.0393 -0.6894  0.1899
  570MOL0     H76895   0.470  11.261   5.358  0.3099 -0.2792 -0.9904
  570MOL0     H76896   0.398  11.223   5.210 -0.9433  0.3876 -1.0483
  570MOL0     H76897   0.173  11.285   5.254  1.9184  2.0938 -3.6731
  570MOL0     H76898   0.216  11.306   5.428 -0.4119  2.9244  0.2325
  570MOL0     H76899   0.401  11.475   5.329  0.6012 -0.7371 -1.5189
  570MOL0     H76900   0.238  11.525   5.367  1.8023 -1.0893  1.3729
  570MOL0     H76901   0.054  11.501   5.146 -0.1420  0.1614  0.0017
  570MOL0     H76902   0.002  11.637   4.900 -0.2049 -1.7046 -0.1571
  570MOL0     H76903   0.152  11.638   4.789  2.7184  0.6128  1.0863
  570MOL0     H76904   0.020  11.374   4.878  1.7454 -1.2440  0.0768
  570MOL0     H76905   0.155  11.400   4.778  1.7204  0.2457  3.8158
  570MOL0     H76906   0.044  11.484   4.597 -0.1631 -1.8250 -2.0851
  570MOL0     H76907  -0.091  11.544   4.698  0.4951  0.3557  1.7857
  570MOL0     H76908  -0.021  11.249   4.628 -0.1931  0.5889  0.4280
  570MOL0     H76909  -0.164  11.343   4.567  1.2086  0.2980 -0.7534
  570MOL0     H76910  -0.219  11.471   4.939 -0.7776  1.3083  1.7147
  570MOL0     H76911  -0.427  11.732   4.935 -2.7441 -0.1280 -0.1605
  570MOL0     H76912  -0.499  11.627   5.056  0.6350 -0.9957  0.3708
  570MOL0     H76913  -0.321  11.636   5.038  0.3539  1.2447 -1.0722
  570MOL0     H76914  -0.870  11.574   4.563 -2.2347 -3.5217 -1.0054
  570MOL0     H76915  -1.089  11.711   4.527 -1.3947  4.6262  2.1453
  570MOL0     H76916  -1.441  11.605   4.711  4.0198 -1.9804 -1.6344
  570MOL0     H76917  -1.381  11.667   4.870 -2.0362  0.7274  0.0190
  570MOL0     H76918  -1.414  11.888   4.804 -0.4982  0.5318 -0.1244
  570MOL0     H76919  -1.492  11.850   4.653 -1.4416 -1.3432 -0.8027
  570MOL0     H76920  -1.590  11.790   4.930  1.4989 -1.0077 -0.1245
  570MOL0     H76921  -1.644  11.679   4.809  1.9324 -0.0547  0.2925
  570MOL0     H76922  -1.711  11.973   4.824  2.9650 -1.0838  2.4654
  570MOL0     H76923  -1.730  11.858   4.677  0.2065  0.7410 -0.8213
  570MOL0     H76924  -1.869  11.840   4.955 -1.2309 -2.3734  0.5584
  570MOL0     H76925  -1.888  11.724   4.832 -0.9218 -0.2710  2.8428
  570MOL0     H76926  -1.932  12.018   4.776  0.8357 -0.0568 -0.5169
  570MOL0     H76927  -1.985  11.886   4.682 -1.7140 -0.1442  0.6591
  570MOL0     H76928  -2.097  11.971   4.953  1.8869 -1.0764  1.1411
  570MOL0     H76929  -2.116  11.806   4.896  1.5701 -0.3460  0.1523
  570MOL0     H76930  -2.308  11.931   4.840 -0.3277  3.9750  2.5222
  570MOL0     H76931  -2.218  11.872   4.702  1.2460  0.1693  0.3657
  570MOL0     H76932  -1.192  11.615   4.931  1.2691  2.7105  1.0758
  570MOL0     H76933  -0.949  11.549   4.975  0.0986 -2.8643 -0.3030
  570MOL0     H76934  -0.605  11.351   4.647 -0.7231 -1.5918  2.5654
  570MOL0     H76935  -0.372  11.254   4.619 -0.1336  3.2381 -2.2060
  570MOL0     H76936   0.973  10.677   5.316 -2.9620  2.2505 -2.8117
  570MOL0     H76937   1.232  10.606   5.350 -1.2802  0.3698 -1.0703
  570MOL0     H76938   1.688  10.546   4.994 -1.7775 -0.7220  1.9204
  570MOL0     H76939   1.930  10.508   5.048  1.4262  1.8769 -0.7853
  570MOL0     H76940   2.106  10.808   5.280  1.5240  0.3118  1.8047
  570MOL0     H76941   2.102  10.674   5.403 -0.0321  0.7787  0.4747
  570MOL0     H76942   2.328  10.790   5.331 -1.2740  0.2055  1.5375
  570MOL0     H76943   2.303  10.728   5.170 -1.4140  3.6680  0.3083
  570MOL0     H76944   2.266  10.482   5.295 -1.1039  0.0372  1.9315
  570MOL0     H76945   2.342  10.569   5.424  0.1079  1.7311  0.6903
  570MOL0     H76946   2.527  10.619   5.223  2.2951 -0.5702  1.4669
  570MOL0     H76947   2.451  10.465   5.171  1.1397  0.5413 -0.8741
  570MOL0     H76948   2.694  10.410   5.541 -0.6967 -1.0428  1.1909
  570MOL0     H76949   1.892  10.753   5.393  0.9569 -1.3596 -0.6509
  570MOL0     H76950   1.650  10.765   5.371  3.0361  0.0187  2.0313
  571MOL0     O76951   2.745   1.601   6.006 -0.3890 -0.1995  0.3595
  571MOL0     C76952   2.650   1.524   6.051 -0.5183  0.0130 -0.3544
  571MOL0     O76953   2.662   1.445   6.163 -0.1815 -0.2847 -0.3278
  571MOL0     C76954   2.787   1.435   6.216  0.2347 -0.2132 -0.2772
  571MOL0     C76955   2.858   1.537   6.273  0.0047  0.0212  0.4767
  571MOL0     C76956   2.992   1.521   6.299  1.0426 -0.2753 -0.2447
  571MOL0     C76957   3.064   1.403   6.269  0.9680 -0.3311 -0.4086
  571MOL0     O76958   3.200   1.400   6.282 -0.3868 -0.1922  0.1457
  571MOL0     C76959   3.252   1.434   6.412 -0.9252  0.5131  0.0798
  571MOL0     C76960   3.388   1.384   6.434  0.3437  0.2712  0.3491
  571MOL0     C76961   3.398   1.232   6.437  0.9636  0.8103  0.0584
  571MOL0     C76962   3.536   1.182   6.492  0.3982  0.3204 -0.2474
  571MOL0     C76963   3.522   1.032   6.521  0.5607 -0.5038 -0.3143
  571MOL0     C76964   3.579   0.941   6.398 -0.6069  0.5006 -0.7522
  571MOL0     C76965   3.525   0.802   6.407 -0.4411 -0.0325 -0.1610
  571MOL0     C76966   3.369   0.784   6.374 -0.1449 -0.2722 -0.1795
  571MOL0     N76967   3.329   0.837   6.241 -0.3706 -0.3663 -0.4952
  571MOL0     C76968   3.358   0.776   6.119  0.5860 -0.1879  0.0300
  571MOL0     C76969   3.308   0.846   6.016  0.5456 -0.2650  0.0175
  571MOL0     C76970   3.317   0.811   5.865 -0.4671 -0.2716  0.6717
  571MOL0     C76971   3.179   0.809   5.808  0.3522 -0.0128 -0.0718
  571MOL0     C76972   3.145   0.663   5.770 -0.6838 -0.1275  0.1688
  571MOL0     C76973   2.999   0.655   5.726  0.4830 -0.6562 -0.2703
  571MOL0     O76974   2.951   0.525   5.756  0.4138  0.0872 -0.1092
  571MOL0     C76975   2.811   0.518   5.774 -0.4455 -0.1352  0.1895
  571MOL0     C76976   2.713   0.617   5.740 -0.4053 -0.8310  0.7141
  571MOL0     C76977   2.576   0.593   5.754  0.7559  0.1906  0.3839
  571MOL0     C76978   2.476   0.690   5.686  0.8928  0.4806  0.2975
  571MOL0     C76979   2.537   0.475   5.827 -0.1823 -1.0375 -0.2046
  571MOL0     C76980   2.385   0.438   5.858 -0.3910  0.5028 -0.1073
  571MOL0     O76981   2.354   0.305   5.842 -0.2069  0.0870 -0.4380
  571MOL0     C76982   2.224   0.260   5.847  0.6226  0.0633  0.8609
  571MOL0     C76983   2.207   0.145   5.771 -0.0897  0.0411  0.1119
  571MOL0     C76984   2.077   0.097   5.763  0.1193  0.0632  0.4268
  571MOL0     C76985   1.972   0.141   5.844  0.4422 -0.3827  0.6317
  571MOL0     O76986   1.854   0.073   5.817 -0.1017  0.1655 -1.0706
  571MOL0     C76987   1.740   0.111   5.902 -0.2357  0.6412 -0.1386
  571MOL0     C76988   1.633   0.010   5.861 -0.3637  0.0165  0.8292
  571MOL0     C76989   1.499   0.024   5.937 -0.8333 -0.3063  0.1643
  571MOL0     C76990   1.406  -0.093   5.915 -0.1634 -0.2693  0.7102
  571MOL0     C76991   1.281  -0.096   6.005  0.2863 -0.1481  0.8283
  571MOL0     C76992   1.304  -0.079   6.156  0.0611  0.5565  0.5097
  571MOL0     C76993   1.175  -0.100   6.241 -0.4075  0.1106 -0.1579
  571MOL0     C76994   1.070  -0.197   6.197 -0.2524 -0.1665  0.1957
  571MOL0    Cl76995   0.929  -0.191   6.299  0.1130 -0.3009 -0.7673
  571MOL0     C76996   1.993   0.241   5.937  0.0118 -0.5071 -0.4075
  571MOL0     C76997   2.121   0.305   5.935 -0.6971  0.3501  1.2827
  571MOL0     O76998   2.306   0.527   5.879  0.4754 -0.0332  0.2817
  571MOL0     C76999   2.636   0.393   5.879 -0.3122 -0.1517  0.2814
  571MOL0     C77000   2.768   0.406   5.849  0.3956 -0.1377 -0.2681
  571MOL0     N77001   3.252   0.958   6.075 -0.2239  0.8903  0.4921
  571MOL0     N77002   3.265   0.947   6.207  0.0579 -0.1707 -0.2125
  571MOL0     C77003   2.987   1.294   6.215  0.2316 -0.2345  0.3372
  571MOL0     C77004   2.847   1.310   6.199 -0.1301  0.3293 -0.0888
  571MOL0     C77005   2.529   1.513   5.967  0.2714 -0.3339  0.3449
  571MOL0     C77006   2.515   1.581   5.847  0.2575 -0.3165  0.0759
  571MOL0     C77007   2.402   1.570   5.768  0.2762  0.3205 -0.8827
  571MOL0     C77008   2.299   1.485   5.798 -0.0106  0.5226 -1.7470
  571MOL0     O77009   2.194   1.473   5.710 -0.9808 -0.3890 -0.3857
  571MOL0     C77010   2.101   1.374   5.745  0.3894 -0.9539  0.8434
  571MOL0     C77011   1.989   1.355   5.636 -1.4305 -0.3899  0.6654
  571MOL0     C77012   1.860   1.305   5.696  0.0707 -0.1040  0.3225
  571MOL0     C77013   1.742   1.317   5.604  0.3342  0.1081 -0.3482
  571MOL0     C77014   1.740   1.199   5.513  0.3749 -0.7199 -0.1234
  571MOL0     C77015   1.724   1.111   5.438  0.0478 -0.1949 -0.4270
  571MOL0     C77016   2.302   1.417   5.921 -0.5615  0.4243 -0.5903
  571MOL0     C77017   2.417   1.428   6.003 -0.7774 -0.8388  1.1426
  571MOL0     H77018   2.807   1.631   6.286 -2.2003 -1.3389  2.4428
  571MOL0     H77019   3.044   1.606   6.342  0.6196  0.7482 -1.6574
  571MOL0     H77020   3.260   1.542   6.423 -1.9822  0.5280  0.9254
  571MOL0     H77021   3.183   1.405   6.492 -0.5021  1.5550  0.8384
  571MOL0     H77022   3.448   1.420   6.350 -0.3918 -2.1983 -1.3419
  571MOL0     H77023   3.438   1.426   6.521 -2.1820 -0.9080  2.5037
  571MOL0     H77024   3.312   1.197   6.495  0.7196  1.9374  0.4011
  571MOL0     H77025   3.386   1.184   6.340 -4.0027 -1.9723  1.6942
  571MOL0     H77026   3.605   1.179   6.407  0.0372 -0.6552 -0.5333
  571MOL0     H77027   3.576   1.230   6.581 -3.4136  0.5605  1.5376
  571MOL0     H77028   3.571   1.007   6.616  1.4238 -4.6160 -1.6148
  571MOL0     H77029   3.417   1.009   6.545  0.4884  0.7749  0.7042
  571MOL0     H77030   3.539   0.991   6.309 -1.7973  0.3163 -0.3382
  571MOL0     H77031   3.688   0.934   6.386 -0.5949 -1.2608  0.1052
  571MOL0     H77032   3.583   0.740   6.339  1.8908  3.4777 -1.6619
  571MOL0     H77033   3.537   0.755   6.505  1.1825  2.3818  0.9100
  571MOL0     H77034   3.311   0.822   6.459  1.2005  0.9609  0.2266
  571MOL0     H77035   3.346   0.677   6.376  1.9482 -0.7524 -0.2170
  571MOL0     H77036   3.412   0.683   6.102  0.1142 -0.2954 -0.9801
  571MOL0     H77037   3.376   0.892   5.821 -2.0383  0.2862 -0.5021
  571MOL0     H77038   3.371   0.716   5.855 -0.6174 -0.4647  1.5979
  571MOL0     H77039   3.181   0.863   5.713 -0.9230  1.5580  0.7460
  571MOL0     H77040   3.107   0.852   5.878 -0.3047 -0.5360 -0.4031
  571MOL0     H77041   3.161   0.605   5.861  1.5765 -1.8052 -1.1681
  571MOL0     H77042   3.216   0.632   5.692 -1.0620 -0.0562 -0.2057
  571MOL0     H77043   2.981   0.682   5.621 -1.1974 -1.9917 -0.3652
  571MOL0     H77044   2.941   0.734   5.775 -1.0921 -2.7238  1.3953
  571MOL0     H77045   2.745   0.709   5.691  1.4357 -1.2583  1.0679
  571MOL0     H77046   2.379   0.642   5.673  1.0620  0.1409  0.2958
  571MOL0     H77047   2.471   0.786   5.739  0.1665  2.3030 -2.7805
  571MOL0     H77048   2.499   0.713   5.581 -0.7960  0.2175 -0.1506
  571MOL0     H77049   2.289   0.096   5.720  0.3611 -1.7666  2.4008
  571MOL0     H77050   2.051   0.028   5.683 -1.4897  0.9229  0.1593
  571MOL0     H77051   1.769   0.094   6.006 -1.8914 -0.4204  0.1765
  571MOL0     H77052   1.701   0.209   5.876  1.1694  0.9096 -1.3964
  571MOL0     H77053   1.609   0.021   5.755  1.0007 -1.5377  0.3191
  571MOL0     H77054   1.666  -0.090   5.891  2.4181  1.4547  3.0484
  571MOL0     H77055   1.447   0.115   5.907  1.3108  1.2578  0.9715
  571MOL0     H77056   1.521   0.033   6.044  1.5477  0.4945 -0.3207
  571MOL0     H77057   1.385  -0.094   5.808  0.7037 -0.4546  0.5293
  571MOL0     H77058   1.456  -0.189   5.933  0.2253 -0.5644 -1.6006
  571MOL0     H77059   1.227  -0.186   5.978  0.4591  0.4792 -1.8651
  571MOL0     H77060   1.216  -0.013   5.976  0.8665  0.6179  1.6459
  571MOL0     H77061   1.367  -0.164   6.184  0.3452  0.3476 -0.7083
  571MOL0     H77062   1.346   0.021   6.169 -1.1591  1.0988  0.4345
  571MOL0     H77063   1.115  -0.008   6.247 -0.8004  0.0718 -2.5029
  571MOL0     H77064   1.206  -0.123   6.343  3.0668  3.1074 -0.3246
  571MOL0     H77065   1.119  -0.295   6.199  3.3484  1.4024 -1.3900
  571MOL0     H77066   1.039  -0.172   6.095  2.7082 -1.7923 -1.2239
  571MOL0     H77067   1.920   0.277   6.008  1.1745  2.3014 -0.4751
  571MOL0     H77068   2.136   0.382   6.010 -0.7222 -0.1870  1.8442
  571MOL0     H77069   2.593   0.307   5.930  0.1966  0.5915  2.0279
  571MOL0     H77070   2.832   0.328   5.889 -0.1493  0.6067  2.2434
  571MOL0     H77071   3.038   1.203   6.184  1.8326 -0.0017  2.0705
  571MOL0     H77072   2.790   1.227   6.159 -0.1443 -0.5179  1.5679
  571MOL0     H77073   2.593   1.650   5.816 -0.0965 -0.2163 -0.6096
  571MOL0     H77074   2.398   1.636   5.682 -2.1537  0.9586 -0.3503
  571MOL0     H77075   2.153   1.281   5.769  3.1012  0.4210  0.5805
  571MOL0     H77076   2.054   1.399   5.840  0.3793 -4.0974  1.7847
  571MOL0     H77077   2.028   1.288   5.559 -1.3067 -1.6081  1.7293
  571MOL0     H77078   1.961   1.443   5.578 -1.2555 -1.8575 -1.7629
  571MOL0     H77079   1.835   1.370   5.781  1.7153  0.9048  0.0717
  571MOL0     H77080   1.875   1.205   5.738 -1.0153 -1.0797 -1.4661
  571MOL0     H77081   1.737   1.415   5.556  2.0452 -0.5936 -2.0892
  571MOL0     H77082   1.652   1.311   5.666  1.3022 -2.0737  0.9377
  571MOL0     H77083   1.700   1.024   5.380  2.2834  0.5352 -2.6753
  571MOL0     H77084   2.229   1.344   5.956  2.8888 -3.6095 -1.0456
  571MOL0     H77085   2.428   1.378   6.099 -0.6057  0.9799  2.1202
  572MOL0     O77086   7.263   5.174   1.788  0.0259 -0.6392 -0.6596
  572MOL0     C77087   7.277   5.093   1.699 -0.0252  0.2183  0.0463
  572MOL0     O77088   7.184   5.009   1.651  0.1185  0.7943 -0.6105
  572MOL0     C77089   7.061   5.016   1.714 -0.4219 -0.4214 -0.3245
  572MOL0     C77090   6.978   5.129   1.692  0.0109 -0.0156  0.5190
  572MOL0     C77091   6.877   5.146   1.778  0.4481  0.9747  0.0959
  572MOL0     C77092   6.842   5.050   1.881 -0.2266 -0.0172  0.5683
  572MOL0     O77093   6.738   5.068   1.972 -0.0089 -0.3941 -0.1946
  572MOL0     C77094   6.634   5.161   1.950 -0.2111  0.3439 -0.1789
  572MOL0     C77095   6.520   5.124   2.050 -0.1055 -0.1000 -0.2680
  572MOL0     C77096   6.549   5.123   2.198  0.3927  1.1034  0.2078
  572MOL0     C77097   6.430   5.148   2.281  1.4560  0.9273 -1.2371
  572MOL0     C77098   6.310   5.054   2.244 -0.3485  0.4020 -0.0945
  572MOL0     C77099   6.217   5.037   2.363  0.5688 -0.3255  0.3377
  572MOL0     C77100   6.091   4.941   2.339 -0.1713 -0.9071 -0.4880
  572MOL0     C77101   6.016   4.905   2.460 -0.3662  0.5759 -0.0088
  572MOL0     N77102   5.987   5.024   2.535  0.3698  0.5581 -0.2273
  572MOL0     C77103   6.050   5.063   2.650  0.4465 -0.7606 -0.4706
  572MOL0     C77104   5.979   5.175   2.690  1.1409 -0.1784 -0.7349
  572MOL0     C77105   6.010   5.262   2.809  0.1337 -0.4657 -0.3364
  572MOL0     C77106   5.888   5.288   2.897 -0.3253 -0.3812  0.1496
  572MOL0     C77107   5.867   5.166   2.999  0.2352  0.0663 -0.2852
  572MOL0     C77108   5.840   5.037   2.932 -0.5278  1.0914 -0.1555
  572MOL0     O77109   5.748   4.959   3.006 -0.4721 -0.0302  0.4688
  572MOL0     C77110   5.616   4.995   3.015 -0.0423  0.4254  0.2615
  572MOL0     C77111   5.550   4.906   3.106 -0.2263 -0.6663 -0.1175
  572MOL0     C77112   5.415   4.928   3.134  1.0141 -0.7473  0.6079
  572MOL0     C77113   5.351   4.835   3.234  0.4447 -0.1590 -0.3496
  572MOL0     C77114   5.346   5.034   3.075 -0.0563 -0.2110  0.0232
  572MOL0     C77115   5.214   5.076   3.129  0.2871  0.5085  0.0184
  572MOL0     O77116   5.199   5.207   3.149  1.1929 -0.1975  0.3075
  572MOL0     C77117   5.079   5.256   3.185 -0.3691 -0.0951  0.9682
  572MOL0     C77118   5.002   5.211   3.299  0.5501 -0.1452  0.2435
  572MOL0     C77119   4.882   5.279   3.339 -0.5124  0.8746  0.3842
  572MOL0     C77120   4.842   5.394   3.271  0.3453  0.3734 -0.2669
  572MOL0     O77121   4.734   5.463   3.327 -0.5279  0.9551 -0.3258
  572MOL0     C77122   4.617   5.497   3.242  0.5674  0.3939 -0.9112
  572MOL0     C77123   4.513   5.565   3.333  0.6315  0.4309  0.3772
  572MOL0     C77124   4.392   5.599   3.244  0.3748 -0.2299  0.1684
  572MOL0     C77125   4.266   5.616   3.334  0.2931 -0.3893  0.1342
  572MOL0     C77126   4.172   5.701   3.251 -0.5548 -0.0257 -0.3834
  572MOL0     C77127   4.041   5.742   3.325 -0.5789  0.5041 -0.2475
  572MOL0     C77128   3.957   5.836   3.240  0.2224 -0.0166 -0.0046
  572MOL0     C77129   3.828   5.899   3.300 -0.6619  0.1417 -0.1816
  572MOL0    Cl77130   3.762   6.016   3.173 -0.0320  0.3301 -0.1971
  572MOL0     C77131   4.919   5.434   3.161 -0.1074  0.0967  0.9437
  572MOL0     C77132   5.030   5.364   3.110  0.3762  0.5269  0.0064
  572MOL0     O77133   5.120   4.993   3.130 -0.5334 -0.8196  0.3103
  572MOL0     C77134   5.409   5.126   2.988  0.3533  0.1808  0.4372
  572MOL0     C77135   5.543   5.099   2.955  0.0827 -0.1608 -0.2287
  572MOL0     N77136   5.875   5.196   2.606  0.2052  1.4584  0.3766
  572MOL0     N77137   5.875   5.103   2.516  0.0077  0.4030  0.2923
  572MOL0     C77138   6.916   4.932   1.882  0.3176  0.2950 -0.2867
  572MOL0     C77139   7.026   4.912   1.798  0.3625  0.5858 -0.3067
  572MOL0     C77140   7.413   5.080   1.649 -0.7709  0.5759  0.0319
  572MOL0     C77141   7.519   5.160   1.694 -0.5260  0.4317 -0.6344
  572MOL0     C77142   7.648   5.164   1.627  0.0890  0.2907 -0.2587
  572MOL0     C77143   7.672   5.082   1.520  0.4612 -0.3603 -0.3558
  572MOL0     O77144   7.802   5.096   1.475  0.4424  0.4634  0.1447
  572MOL0     C77145   7.836   5.020   1.363 -0.4237 -0.6254 -0.1725
  572MOL0     C77146   7.773   5.077   1.238 -0.0885 -0.5226  0.5320
  572MOL0     C77147   7.879   5.163   1.166 -0.3288  0.2093  1.1637
  572MOL0     C77148   7.833   5.224   1.040 -0.6841 -0.2066  0.4997
  572MOL0     C77149   7.803   5.111   0.945 -0.4205 -0.2531  0.6011
  572MOL0     C77150   7.794   5.008   0.887 -0.5459  0.8663 -0.0322
  572MOL0     C77151   7.571   4.990   1.483 -0.4697 -0.4660 -0.9018
  572MOL0     C77152   7.444   4.999   1.543  0.0560  1.4740 -0.2674
  572MOL0     H77153   6.990   5.196   1.607 -2.0055 -0.7074 -0.3693
  572MOL0     H77154   6.812   5.232   1.773  0.9813  1.3494 -0.6809
  572MOL0     H77155   6.674   5.261   1.971  0.0278  0.4456 -1.0650
  572MOL0     H77156   6.588   5.157   1.850  0.7393 -1.3452 -0.5849
  572MOL0     H77157   6.435   5.190   2.032 -0.9471 -1.3396 -1.0434
  572MOL0     H77158   6.480   5.024   2.029 -2.7789  1.2083 -2.1049
  572MOL0     H77159   6.596   5.032   2.238  0.6937  2.0606  2.1532
  572MOL0     H77160   6.623   5.198   2.226  3.0673 -1.5503  0.8225
  572MOL0     H77161   6.453   5.122   2.385  0.0087  2.8991 -0.3359
  572MOL0     H77162   6.405   5.255   2.278  0.2302  0.7231  0.2624
  572MOL0     H77163   6.261   5.089   2.153 -1.0316  0.1005  0.1547
  572MOL0     H77164   6.345   4.954   2.218  0.5674  0.6625  0.0965
  572MOL0     H77165   6.286   5.002   2.440 -0.4968  0.7910  1.8562
  572MOL0     H77166   6.187   5.136   2.398  2.0853  0.8359 -1.4377
  572MOL0     H77167   6.024   4.982   2.263 -0.7387 -0.2056  0.3726
  572MOL0     H77168   6.127   4.847   2.296 -1.3222 -1.6920  0.2151
  572MOL0     H77169   6.074   4.835   2.521 -1.6665 -2.1055 -1.6460
  572MOL0     H77170   5.925   4.849   2.435  1.2661 -2.6429  0.7535
  572MOL0     H77171   6.135   5.009   2.691  0.3953  1.1816  2.5346
  572MOL0     H77172   6.088   5.225   2.876 -0.7435  1.2598  1.7410
  572MOL0     H77173   6.051   5.357   2.773  0.2798  0.0539  1.1336
  572MOL0     H77174   5.795   5.298   2.841 -1.4330 -2.5773  1.4571
  572MOL0     H77175   5.912   5.384   2.944  2.2391  0.1319 -1.9892
  572MOL0     H77176   5.778   5.195   3.054 -2.0918 -2.6671 -2.2959
  572MOL0     H77177   5.952   5.147   3.066 -0.0507 -1.9811 -0.4404
  572MOL0     H77178   5.934   4.982   2.919 -0.4856  0.5560  1.9332
  572MOL0     H77179   5.793   5.053   2.835  0.0320 -0.7146 -0.7744
  572MOL0     H77180   5.600   4.818   3.145 -0.9244 -0.8079  0.4777
  572MOL0     H77181   5.411   4.750   3.267 -1.4693 -0.9699  1.2238
  572MOL0     H77182   5.337   4.891   3.326 -2.0393 -2.2453  0.6563
  572MOL0     H77183   5.258   4.787   3.202  1.3003 -1.6710 -0.6446
  572MOL0     H77184   5.019   5.113   3.342  1.1977 -0.9159 -1.6239
  572MOL0     H77185   4.823   5.237   3.421 -0.7803 -1.2586 -0.8330
  572MOL0     H77186   4.663   5.559   3.164  1.9836  0.4536 -0.0564
  572MOL0     H77187   4.581   5.404   3.196  1.4973 -1.4888  1.8951
  572MOL0     H77188   4.485   5.495   3.412 -0.4705 -0.0533 -0.4225
  572MOL0     H77189   4.556   5.654   3.381 -0.0650  0.0422  1.7863
  572MOL0     H77190   4.383   5.517   3.172  1.9969 -3.4395  3.2826
  572MOL0     H77191   4.411   5.692   3.189  0.5880  0.6417  1.6689
  572MOL0     H77192   4.222   5.517   3.353  2.7067 -1.1348  2.4654
  572MOL0     H77193   4.293   5.669   3.426  1.6580 -1.2039  0.2367
  572MOL0     H77194   4.148   5.645   3.160 -1.0355 -1.6850  0.7072
  572MOL0     H77195   4.219   5.796   3.225 -1.8066  0.1517 -2.1532
  572MOL0     H77196   3.994   5.649   3.360 -0.1030  0.5812  0.6145
  572MOL0     H77197   4.075   5.793   3.415 -0.1916 -3.0165  1.8011
  572MOL0     H77198   3.922   5.784   3.150 -2.0976 -2.6114  2.2501
  572MOL0     H77199   4.019   5.921   3.207  0.4771 -0.3567 -0.4212
  572MOL0     H77200   3.852   5.966   3.384  3.0006 -0.2909 -0.7206
  572MOL0     H77201   3.760   5.823   3.337  0.6360 -1.0911 -0.2248
  572MOL0     H77202   4.894   5.529   3.115 -0.2458 -0.5788 -0.4473
  572MOL0     H77203   5.093   5.412   3.036 -0.2164  0.6327 -0.4307
  572MOL0     H77204   5.361   5.216   2.952  0.3993  0.3323  0.7572
  572MOL0     H77205   5.598   5.166   2.890  1.4673 -1.6001 -0.5990
  572MOL0     H77206   6.886   4.851   1.948 -0.6439  3.2687  3.3045
  572MOL0     H77207   7.080   4.818   1.804  0.0104  0.4072  0.1643
  572MOL0     H77208   7.513   5.235   1.773  3.2389 -0.0938  0.3296
  572MOL0     H77209   7.726   5.228   1.667 -0.5170  0.2101  1.1301
  572MOL0     H77210   7.945   5.028   1.373 -0.2028 -2.2573 -0.9404
  572MOL0     H77211   7.813   4.913   1.366  0.3886 -0.8857 -1.6937
  572MOL0     H77212   7.688   5.138   1.270  0.7387 -0.3271  2.4756
  572MOL0     H77213   7.741   5.002   1.165 -0.0545 -1.2770  1.2737
  572MOL0     H77214   7.973   5.112   1.145  0.2115  1.9739 -1.2246
  572MOL0     H77215   7.908   5.248   1.229 -0.1207  1.2259 -0.2715
  572MOL0     H77216   7.907   5.295   1.003  2.0252 -2.0004  2.0953
  572MOL0     H77217   7.742   5.279   1.067 -0.4750  0.1872  0.4062
  572MOL0     H77218   7.772   4.915   0.838 -1.5637  1.3388 -0.5295
  572MOL0     H77219   7.579   4.922   1.399 -0.5952 -1.9789  0.2684
  572MOL0     H77220   7.378   4.923   1.501  0.6167 -1.0319  2.9307
  573MOL0     O77221   0.097   3.548   5.488  0.0900 -0.0254  0.1806
  573MOL0     C77222   0.186   3.508   5.561 -0.8738 -0.1937  0.7179
  573MOL0     O77223   0.190   3.517   5.693  0.6827  0.1221 -0.5879
  573MOL0     C77224   0.079   3.570   5.753  0.0530  0.0281  0.6081
  573MOL0     C77225  -0.021   3.488   5.794  0.3924 -0.5953  1.0898
  573MOL0     C77226  -0.141   3.543   5.842 -0.6733  0.0466 -0.8915
  573MOL0     C77227  -0.156   3.681   5.851 -0.2306 -1.2844  0.0131
  573MOL0     O77228  -0.275   3.724   5.914 -0.4752  0.1662 -0.1386
  573MOL0     C77229  -0.302   3.860   5.900 -0.2228  0.9342  0.1787
  573MOL0     C77230  -0.450   3.861   5.917  0.1976  0.5847  0.3567
  573MOL0     C77231  -0.517   3.773   5.806 -0.6369 -0.3660 -0.7111
  573MOL0     C77232  -0.670   3.782   5.808 -0.4530  0.3408  1.6302
  573MOL0     C77233  -0.739   3.659   5.732 -1.1174 -1.1135 -0.9583
  573MOL0     C77234  -0.879   3.695   5.711  0.8922  0.9828  0.3888
  573MOL0     C77235  -0.957   3.575   5.639  0.6509 -0.1533  0.2923
  573MOL0     C77236  -1.102   3.609   5.615 -0.1757  0.4024 -0.0284
  573MOL0     N77237  -1.167   3.639   5.742  0.1612  0.5172  0.3913
  573MOL0     C77238  -1.185   3.553   5.847 -0.4304  0.5710 -1.1716
  573MOL0     C77239  -1.246   3.632   5.936 -0.4136  0.0155  0.3720
  573MOL0     C77240  -1.282   3.610   6.090 -1.0833  0.1966  0.2554
  573MOL0     C77241  -1.221   3.475   6.158  0.6128 -0.3409  0.9117
  573MOL0     C77242  -1.069   3.483   6.173 -0.0221  0.4708 -0.1438
  573MOL0     C77243  -1.017   3.611   6.238  0.2887 -0.3228 -0.1251
  573MOL0     O77244  -1.091   3.630   6.363 -0.2771 -0.6532  0.1973
  573MOL0     C77245  -1.031   3.724   6.445  0.2196 -0.1971 -0.2965
  573MOL0     C77246  -0.935   3.686   6.535 -0.8489  0.4269  0.1314
  573MOL0     C77247  -0.863   3.783   6.605  0.3404  0.4347 -0.1103
  573MOL0     C77248  -0.753   3.728   6.692 -0.2927  0.5331  0.2929
  573MOL0     C77249  -0.880   3.918   6.576  0.3409  0.2008  0.2765
  573MOL0     C77250  -0.813   4.018   6.663 -0.7122  0.0379  0.6726
  573MOL0     O77251  -0.801   3.990   6.796  0.7528 -0.1216 -0.5277
  573MOL0     C77252  -0.710   4.059   6.876  1.1373 -0.3020 -0.4878
  573MOL0     C77253  -0.735   4.054   7.014 -0.1840 -0.0499  0.3802
  573MOL0     C77254  -0.656   4.124   7.103 -0.3803 -0.8222  0.7894
  573MOL0     C77255  -0.555   4.210   7.062  0.4250  0.2863 -0.1325
  573MOL0     O77256  -0.476   4.291   7.140  0.4223  0.0775 -0.1055
  573MOL0     C77257  -0.502   4.282   7.281  0.2114 -1.0376 -0.2363
  573MOL0     C77258  -0.412   4.379   7.358  0.7631 -0.0431  0.1873
  573MOL0     C77259  -0.438   4.521   7.322  0.1098 -0.2639  0.4450
  573MOL0     C77260  -0.310   4.602   7.361  0.3096  0.3146  0.3140
  573MOL0     C77261  -0.330   4.755   7.330  0.1641  0.5280 -0.2981
  573MOL0     C77262  -0.192   4.822   7.350 -0.0126 -0.7796  0.2897
  573MOL0     C77263  -0.210   4.970   7.343  0.1659  0.0655  0.4740
  573MOL0     C77264  -0.084   5.041   7.388  0.2448 -0.4563 -0.5555
  573MOL0    Cl77265   0.046   5.010   7.266  0.1518 -0.1006 -0.0306
  573MOL0     C77266  -0.530   4.210   6.928 -0.6980  0.1834  0.3075
  573MOL0     C77267  -0.610   4.145   6.834  0.2218 -0.4217 -0.7316
  573MOL0     O77268  -0.803   4.129   6.608  0.5182 -0.0064  0.3461
  573MOL0     C77269  -0.986   3.948   6.489 -0.4007 -0.0703  0.0227
  573MOL0     C77270  -1.060   3.855   6.420 -0.4868 -0.5116 -0.0019
  573MOL0     N77271  -1.266   3.763   5.888 -0.9789  0.4386  0.6582
  573MOL0     N77272  -1.210   3.763   5.775 -0.6008 -0.4908 -0.0426
  573MOL0     C77273  -0.055   3.761   5.806  0.0409  0.2396 -0.0851
  573MOL0     C77274   0.067   3.710   5.758  0.7434  0.1487 -0.3429
  573MOL0     C77275   0.312   3.462   5.493 -0.6161 -0.3519 -0.4960
  573MOL0     C77276   0.328   3.430   5.359  0.0260 -1.0277 -0.0975
  573MOL0     C77277   0.451   3.385   5.307  0.2241 -0.3081 -0.0022
  573MOL0     C77278   0.567   3.385   5.389 -0.0262  0.1330 -0.2997
  573MOL0     O77279   0.689   3.330   5.344  0.6535  0.2507  0.1045
  573MOL0     C77280   0.715   3.338   5.200 -0.0584 -0.5223 -0.3122
  573MOL0     C77281   0.864   3.337   5.179 -0.4319 -0.1161  0.2366
  573MOL0     C77282   0.930   3.197   5.212 -0.8346  0.3228  0.3573
  573MOL0     C77283   1.070   3.202   5.262  0.2078  0.3716  0.0260
  573MOL0     C77284   1.175   3.269   5.178  0.9724 -0.2881 -0.3742
  573MOL0     C77285   1.249   3.347   5.121  0.1163 -0.3345 -0.2092
  573MOL0     C77286   0.553   3.403   5.527 -0.4554 -0.4711 -0.1912
  573MOL0     C77287   0.432   3.458   5.574  0.6231  0.2899  0.4023
  573MOL0     H77288  -0.017   3.380   5.798 -2.0831 -0.8133 -0.5591
  573MOL0     H77289  -0.213   3.471   5.878  1.2478 -0.4090  2.5673
  573MOL0     H77290  -0.245   3.926   5.966 -0.4082  0.8779  0.3937
  573MOL0     H77291  -0.276   3.901   5.802  0.2592  1.8528  0.6812
  573MOL0     H77292  -0.478   3.822   6.015  0.7542 -1.2619 -0.1863
  573MOL0     H77293  -0.485   3.965   5.910  0.8296  0.6967 -1.7446
  573MOL0     H77294  -0.490   3.800   5.704  1.0885 -0.6288 -0.3555
  573MOL0     H77295  -0.481   3.671   5.826  3.0472  1.1162  1.1826
  573MOL0     H77296  -0.709   3.798   5.909 -2.5734  0.0833  0.9035
  573MOL0     H77297  -0.687   3.875   5.754 -0.1527  0.1135  1.1281
  573MOL0     H77298  -0.691   3.662   5.634 -3.4734  1.4138 -2.1556
  573MOL0     H77299  -0.711   3.568   5.788  0.3928 -0.3855 -0.4595
  573MOL0     H77300  -0.917   3.713   5.812  0.5760 -0.9873  0.6589
  573MOL0     H77301  -0.895   3.789   5.658 -1.1542 -0.0271 -0.8938
  573MOL0     H77302  -0.908   3.549   5.544  0.3156 -1.0729  0.3654
  573MOL0     H77303  -0.946   3.489   5.705 -2.1612 -0.6013  0.2930
  573MOL0     H77304  -1.155   3.522   5.575  0.8799 -1.5429  2.5606
  573MOL0     H77305  -1.083   3.686   5.540  0.0556 -0.9325 -1.3888
  573MOL0     H77306  -1.155   3.451   5.868 -3.5901  0.1718  2.4465
  573MOL0     H77307  -1.257   3.696   6.153 -1.7335  1.6793 -1.4280
  573MOL0     H77308  -1.391   3.612   6.091 -1.1143  2.6200  1.7326
  573MOL0     H77309  -1.247   3.391   6.093  1.6073  0.5499 -0.7009
  573MOL0     H77310  -1.257   3.455   6.259  1.7886 -1.3017  1.1616
  573MOL0     H77311  -1.013   3.464   6.081  0.6697 -1.1683  0.5646
  573MOL0     H77312  -1.039   3.398   6.236 -1.3475 -0.9689 -1.3726
  573MOL0     H77313  -1.044   3.694   6.172  2.4280  1.7204  1.3785
  573MOL0     H77314  -0.908   3.614   6.248  0.2151  1.4697  0.6386
  573MOL0     H77315  -0.903   3.584   6.555  1.3627  1.4030  1.9850
  573MOL0     H77316  -0.737   3.621   6.672 -1.0594  0.3137  0.8039
  573MOL0     H77317  -0.660   3.785   6.684  1.5630 -2.4649 -2.0388
  573MOL0     H77318  -0.790   3.740   6.794 -2.4677  4.8181 -0.7685
  573MOL0     H77319  -0.806   3.977   7.045  0.9082 -1.0499  0.5030
  573MOL0     H77320  -0.668   4.100   7.208  0.1916  0.0847  1.0703
  573MOL0     H77321  -0.603   4.306   7.313  0.8959  2.9517 -0.4859
  573MOL0     H77322  -0.469   4.180   7.306 -0.8389 -1.0015  1.4287
  573MOL0     H77323  -0.438   4.363   7.463 -1.2850 -0.5418 -0.3693
  573MOL0     H77324  -0.304   4.362   7.358  0.9215  0.8278 -0.6270
  573MOL0     H77325  -0.531   4.557   7.368  0.4881  1.4935 -0.0942
  573MOL0     H77326  -0.450   4.539   7.215  1.0669 -0.5821  0.2785
  573MOL0     H77327  -0.288   4.589   7.467  0.6281  1.0740  0.3479
  573MOL0     H77328  -0.228   4.559   7.303 -1.1315  1.2189 -2.6391
  573MOL0     H77329  -0.402   4.788   7.407 -2.6649 -0.3757 -2.3949
  573MOL0     H77330  -0.376   4.782   7.235  0.6542  2.0955 -0.1359
  573MOL0     H77331  -0.161   4.796   7.452  0.8112 -0.0699  0.2350
  573MOL0     H77332  -0.120   4.776   7.281 -1.4326 -1.3194 -0.8978
  573MOL0     H77333  -0.300   4.993   7.401 -1.2630 -0.5877 -1.3818
  573MOL0     H77334  -0.231   5.002   7.241  0.2946 -1.6512 -0.1318
  573MOL0     H77335  -0.047   5.002   7.484  0.7546 -1.6469 -1.2094
  573MOL0     H77336  -0.101   5.149   7.398 -0.9439 -0.6175 -0.7622
  573MOL0     H77337  -0.452   4.271   6.882 -1.4037  0.4739 -0.5309
  573MOL0     H77338  -0.591   4.167   6.729  1.2029 -1.6319 -0.8262
  573MOL0     H77339  -1.007   4.053   6.471  2.2156  0.8566  1.7033
  573MOL0     H77340  -1.133   3.881   6.344 -0.9399 -0.5706  0.4109
  573MOL0     H77341  -0.071   3.869   5.805  0.3997  0.3084  0.8414
  573MOL0     H77342   0.139   3.769   5.702  0.3924 -0.3936 -1.4013
  573MOL0     H77343   0.233   3.428   5.306 -1.1514  3.2811  1.4208
  573MOL0     H77344   0.445   3.358   5.202  0.7406 -0.6971  0.0673
  573MOL0     H77345   0.684   3.261   5.130  1.0465 -1.1988 -0.0724
  573MOL0     H77346   0.682   3.435   5.162 -0.4035 -0.6504 -0.3399
  573MOL0     H77347   0.896   3.427   5.233 -1.0032 -0.4913  1.2080
  573MOL0     H77348   0.881   3.355   5.072 -0.7584  0.0081  0.2042
  573MOL0     H77349   0.941   3.136   5.122  2.8362 -0.1300  0.9793
  573MOL0     H77350   0.874   3.137   5.285 -0.9200 -0.0372  0.0014
  573MOL0     H77351   1.117   3.103   5.269  1.8077  1.0585 -0.4734
  573MOL0     H77352   1.067   3.247   5.362  1.4424  2.0168 -0.6316
  573MOL0     H77353   1.299   3.402   5.043 -0.3500  0.1993 -0.1384
  573MOL0     H77354   0.645   3.394   5.583 -0.4619 -3.3422 -0.4786
  573MOL0     H77355   0.425   3.489   5.677 -2.0227  0.1768  0.3308
  574MOL0     O77356   8.207   8.227   2.713 -0.4662 -0.2412 -0.3899
  574MOL0     C77357   8.262   8.335   2.677  0.1946 -0.2653  0.2863
  574MOL0     O77358   8.255   8.456   2.739 -0.4327 -0.3819  1.1120
  574MOL0     C77359   8.188   8.463   2.851 -0.1435  0.3730 -0.4944
  574MOL0     C77360   8.057   8.502   2.846 -0.0566 -0.6049 -1.3661
  574MOL0     C77361   7.993   8.540   2.967 -0.0117  1.1015 -0.5063
  574MOL0     C77362   8.060   8.518   3.093 -0.5704 -0.1133  0.2986
  574MOL0     O77363   7.983   8.530   3.204  0.2793  0.0266  0.1937
  574MOL0     C77364   8.039   8.530   3.339  0.4663  0.0142 -0.0250
  574MOL0     C77365   7.930   8.577   3.437  0.5814  0.0417  0.0031
  574MOL0     C77366   7.916   8.732   3.424  0.3358 -0.1597  0.1954
  574MOL0     C77367   7.809   8.773   3.527 -0.2979  0.0900  0.4098
  574MOL0     C77368   7.726   8.899   3.496 -0.3144  0.0862  0.5799
  574MOL0     C77369   7.809   9.022   3.463 -0.5445  0.3863  0.0186
  574MOL0     C77370   7.724   9.142   3.448 -0.0685 -0.4943  0.1141
  574MOL0     C77371   7.818   9.263   3.418  0.0084 -0.4573 -0.8278
  574MOL0     N77372   7.869   9.315   3.546 -0.5756 -0.5807 -0.3639
  574MOL0     C77373   7.976   9.262   3.622  0.3713  0.1394  0.2015
  574MOL0     C77374   8.015   9.361   3.706  0.0552 -0.3955  0.9368
  574MOL0     C77375   8.126   9.356   3.811 -0.4992  0.2527  1.0249
  574MOL0     C77376   8.109   9.440   3.940  0.1263 -0.6381  0.0457
  574MOL0     C77377   7.991   9.386   4.021 -1.0556 -0.1843 -0.7192
  574MOL0     C77378   7.964   9.484   4.137  0.1067 -0.3088 -0.6934
  574MOL0     O77379   7.883   9.404   4.226 -0.1798 -1.3478  0.0072
  574MOL0     C77380   7.742   9.414   4.219  0.3372  0.4655  0.5374
  574MOL0     C77381   7.678   9.351   4.329 -0.3813  0.4787  0.4747
  574MOL0     C77382   7.542   9.338   4.348 -0.2413 -0.0682  0.5940
  574MOL0     C77383   7.488   9.258   4.462 -0.2543  0.4929  0.2394
  574MOL0     C77384   7.461   9.394   4.253  0.4074 -0.1276 -0.3663
  574MOL0     C77385   7.305   9.388   4.259  0.3038 -0.1645  0.6441
  574MOL0     O77386   7.252   9.356   4.138 -0.6479 -0.1143  0.7967
  574MOL0     C77387   7.119   9.337   4.133 -0.9428 -0.0634 -0.6112
  574MOL0     C77388   7.033   9.431   4.077  0.6638 -0.6377 -0.6410
  574MOL0     C77389   6.892   9.408   4.049  0.4577  0.1357 -0.1924
  574MOL0     C77390   6.836   9.283   4.093  0.6497 -0.8918 -0.3874
  574MOL0     O77391   6.704   9.255   4.054  0.5576 -0.1821 -0.2318
  574MOL0     C77392   6.638   9.142   4.085  1.5336 -0.2567  0.3756
  574MOL0     C77393   6.512   9.128   3.998  0.2049 -1.2254 -0.4647
  574MOL0     C77394   6.396   9.222   4.045  0.1870  0.3249 -0.0782
  574MOL0     C77395   6.266   9.194   3.955 -0.0687  0.7428  0.5965
  574MOL0     C77396   6.142   9.261   4.021  0.6821  0.3447  0.5764
  574MOL0     C77397   6.008   9.258   3.938  1.1600 -1.0079  0.9211
  574MOL0     C77398   5.878   9.271   4.024 -0.4473 -0.0140  0.0935
  574MOL0     C77399   5.761   9.306   3.938  0.1430  0.1032  0.1930
  574MOL0    Cl77400   5.608   9.295   4.029 -0.1826 -0.0829  0.0784
  574MOL0     C77401   6.921   9.187   4.159 -0.0352  0.1862 -0.3929
  574MOL0     C77402   7.059   9.211   4.171  0.0958  0.1198 -0.2614
  574MOL0     O77403   7.250   9.431   4.357 -0.0110 -0.2530  0.3473
  574MOL0     C77404   7.518   9.464   4.137 -0.8771 -0.2757 -0.4942
  574MOL0     C77405   7.656   9.470   4.120 -0.2434  0.1977  0.2820
  574MOL0     N77406   7.934   9.469   3.680  0.5424  0.2305  0.4039
  574MOL0     N77407   7.850   9.447   3.580 -0.0746  0.2359 -0.2946
  574MOL0     C77408   8.195   8.481   3.089 -1.1147 -1.0055 -0.2101
  574MOL0     C77409   8.259   8.457   2.973 -0.7513  0.0651  0.6820
  574MOL0     C77410   8.371   8.321   2.576  0.3435  0.4087  0.4717
  574MOL0     C77411   8.416   8.196   2.538  0.0959  0.2330 -0.7698
  574MOL0     C77412   8.509   8.185   2.435  0.3265  0.2449  0.8632
  574MOL0     C77413   8.569   8.294   2.372 -0.5325 -0.5032 -1.1865
  574MOL0     O77414   8.652   8.299   2.267 -0.0788  0.1779 -0.6513
  574MOL0     C77415   8.704   8.176   2.212  0.2421  0.8436 -0.0721
  574MOL0     C77416   8.771   8.198   2.071 -0.2879 -0.0539 -0.3686
  574MOL0     C77417   8.702   8.288   1.968 -0.1052 -0.4383 -0.5358
  574MOL0     C77418   8.766   8.250   1.838 -0.1471  0.5761  0.3664
  574MOL0     C77419   8.766   8.348   1.730 -0.2045 -0.0744  0.5616
  574MOL0     C77420   8.783   8.405   1.621 -0.1871  0.7111  0.0213
  574MOL0     C77421   8.529   8.416   2.426  0.0490 -0.1575 -0.2460
  574MOL0     C77422   8.438   8.430   2.525 -0.0459 -0.2321  0.5212
  574MOL0     H77423   8.015   8.518   2.748 -0.4478  2.1355 -0.8427
  574MOL0     H77424   7.891   8.577   2.972 -0.4404 -0.0554 -0.3215
  574MOL0     H77425   8.076   8.431   3.368  0.3765 -0.6121 -1.9374
  574MOL0     H77426   8.121   8.602   3.345  0.5422 -0.0838  0.1191
  574MOL0     H77427   7.831   8.532   3.424  0.5788  0.4128 -1.5299
  574MOL0     H77428   7.966   8.550   3.537  0.7855  1.8959  0.4691
  574MOL0     H77429   8.014   8.780   3.428  1.3376 -2.1965  1.2697
  574MOL0     H77430   7.886   8.743   3.319  3.3027  0.3999 -0.6840
  574MOL0     H77431   7.742   8.690   3.552 -0.2782  0.3639  1.4433
  574MOL0     H77432   7.864   8.798   3.619  1.0364 -0.7640 -0.1337
  574MOL0     H77433   7.651   8.872   3.420  0.3140 -2.5398  0.8116
  574MOL0     H77434   7.670   8.921   3.587 -0.2360 -0.4792  0.7659
  574MOL0     H77435   7.876   9.030   3.549 -0.3677 -1.3044  0.0630
  574MOL0     H77436   7.866   9.006   3.371 -0.2856  0.8559  0.0918
  574MOL0     H77437   7.663   9.120   3.360  3.3361  0.9510 -2.8277
  574MOL0     H77438   7.660   9.155   3.536  0.4198 -1.4454  0.6303
  574MOL0     H77439   7.751   9.340   3.378 -0.8047  0.4426  2.0475
  574MOL0     H77440   7.896   9.257   3.342 -0.5390  0.9221 -1.5376
  574MOL0     H77441   8.028   9.171   3.595  0.5897 -0.1560  1.5459
  574MOL0     H77442   8.149   9.253   3.840  0.0834  0.6508  2.0325
  574MOL0     H77443   8.220   9.393   3.769 -0.4251 -0.5414  0.4760
  574MOL0     H77444   8.076   9.538   3.904  0.3526 -0.1321  1.1686
  574MOL0     H77445   8.198   9.441   4.004  0.0557 -0.0235  0.1399
  574MOL0     H77446   8.023   9.290   4.062 -4.3014  0.2813  3.5964
  574MOL0     H77447   7.900   9.371   3.963 -2.0508  0.2539  0.6805
  574MOL0     H77448   7.916   9.576   4.102  1.0238 -0.5323 -2.6342
  574MOL0     H77449   8.055   9.503   4.193 -1.3518  0.6477  1.4850
  574MOL0     H77450   7.750   9.315   4.402  0.0699  1.7475  0.6834
  574MOL0     H77451   7.554   9.174   4.485 -1.6792 -0.6560  0.2914
  574MOL0     H77452   7.477   9.316   4.554 -1.8644  2.1048 -0.9153
  574MOL0     H77453   7.389   9.215   4.442 -1.0428  1.3083  2.1386
  574MOL0     H77454   7.077   9.524   4.042 -1.6011  0.5783 -0.4599
  574MOL0     H77455   6.837   9.483   3.993  2.0277  1.1135 -0.5107
  574MOL0     H77456   6.706   9.068   4.042  0.5413  0.2402 -2.2021
  574MOL0     H77457   6.619   9.135   4.192  4.2566 -2.9624  0.8444
  574MOL0     H77458   6.542   9.146   3.895 -0.2096 -0.8455 -0.5196
  574MOL0     H77459   6.477   9.024   4.001  1.8474 -1.8563 -1.7064
  574MOL0     H77460   6.422   9.323   4.014  3.1689 -0.0646  0.8217
  574MOL0     H77461   6.374   9.223   4.153 -2.0495  2.9676 -0.4560
  574MOL0     H77462   6.277   9.235   3.855 -1.1297  4.0027  1.6765
  574MOL0     H77463   6.252   9.085   3.948 -1.4782  0.8659  1.2230
  574MOL0     H77464   6.164   9.365   4.048 -0.3056  1.1739 -1.5503
  574MOL0     H77465   6.118   9.212   4.115 -1.3798  3.5684  1.8695
  574MOL0     H77466   6.012   9.348   3.876 -1.0514 -0.1920  1.8465
  574MOL0     H77467   6.000   9.167   3.877 -0.6945  1.0256 -2.1781
  574MOL0     H77468   5.891   9.357   4.091  0.6360  1.4333 -1.8872
  574MOL0     H77469   5.849   9.185   4.086 -3.0876  0.7494  0.0375
  574MOL0     H77470   5.749   9.252   3.843 -1.8107  1.3786 -0.3593
  574MOL0     H77471   5.768   9.410   3.904  0.2557 -0.2051 -0.7771
  574MOL0     H77472   6.887   9.086   4.179  0.5452  0.0328 -0.1639
  574MOL0     H77473   7.114   9.124   4.203 -2.4634 -1.1201  0.9985
  574MOL0     H77474   7.456   9.520   4.068 -0.9377  1.5556  0.9831
  574MOL0     H77475   7.693   9.528   4.037 -0.3900 -0.6893 -0.4172
  574MOL0     H77476   8.263   8.472   3.174 -0.7776  1.3497 -0.1598
  574MOL0     H77477   8.362   8.425   2.968 -0.2021  1.9899 -1.1308
  574MOL0     H77478   8.375   8.110   2.591 -0.3942  2.0114  1.9369
  574MOL0     H77479   8.537   8.089   2.394  0.1190  0.7504 -0.5062
  574MOL0     H77480   8.783   8.132   2.273  1.6787  1.7666 -1.1911
  574MOL0     H77481   8.619   8.107   2.203 -0.0963  1.0869  1.1510
  574MOL0     H77482   8.806   8.101   2.036  1.9429  0.5838 -0.0350
  574MOL0     H77483   8.867   8.244   2.096 -0.3674  0.8214 -1.5499
  574MOL0     H77484   8.727   8.391   1.996  3.4812 -1.2727 -0.1652
  574MOL0     H77485   8.594   8.267   1.970 -0.8194  2.5876 -1.7821
  574MOL0     H77486   8.720   8.160   1.796 -0.0795 -1.1586  3.6830
  574MOL0     H77487   8.871   8.223   1.851 -0.2629 -2.6653 -3.4765
  574MOL0     H77488   8.785   8.459   1.529 -2.6927 -0.7508 -0.9723
  574MOL0     H77489   8.570   8.509   2.388  0.5328  0.1256  0.9184
  574MOL0     H77490   8.411   8.523   2.575 -0.6303 -0.1797  0.1230
  575MOL0     O77491   5.993   5.177   5.858  0.5679 -0.0499  0.3254
  575MOL0     C77492   6.013   5.285   5.907  0.1576  0.3429 -0.6997
  575MOL0     O77493   5.918   5.366   5.962  0.1772 -0.4675  0.2457
  575MOL0     C77494   5.800   5.313   6.010  0.5395 -0.0088  0.5115
  575MOL0     C77495   5.762   5.354   6.138 -0.2138  0.9077 -0.2981
  575MOL0     C77496   5.635   5.316   6.190  0.1362 -0.1322 -0.2751
  575MOL0     C77497   5.554   5.230   6.127 -0.7306  0.9140  0.5516
  575MOL0     O77498   5.462   5.185   6.208  0.5413 -0.0220 -0.0866
  575MOL0     C77499   5.375   5.085   6.155  0.5628 -0.2870 -0.1714
  575MOL0     C77500   5.271   5.055   6.268  0.6026  0.3009  0.4147
  575MOL0     C77501   5.147   5.142   6.256 -0.8603  0.1943 -0.0905
  575MOL0     C77502   5.049   5.118   6.368 -0.2445  0.0993 -0.1332
  575MOL0     C77503   4.912   5.198   6.353  0.4343 -0.7775 -0.0497
  575MOL0     C77504   4.925   5.350   6.379 -0.5284 -0.2520  0.1099
  575MOL0     C77505   4.794   5.428   6.399  0.7271  0.0468  0.2145
  575MOL0     C77506   4.831   5.575   6.435  0.2898 -0.5768 -0.7823
  575MOL0     N77507   4.710   5.667   6.439  0.5708  0.6569 -0.4148
  575MOL0     C77508   4.680   5.767   6.352  0.4728  0.0824 -0.9388
  575MOL0     C77509   4.546   5.796   6.376  0.0129  0.2303 -0.4528
  575MOL0     C77510   4.465   5.899   6.305 -0.0293 -0.3113  0.0309
  575MOL0     C77511   4.320   5.859   6.301  0.8324 -0.3632 -0.4062
  575MOL0     C77512   4.240   5.959   6.223  0.7887  0.4119 -0.6605
  575MOL0     C77513   4.093   5.931   6.226 -0.3147 -0.2679  0.0008
  575MOL0     O77514   4.058   5.806   6.158  0.3758 -0.2581  0.2034
  575MOL0     C77515   3.923   5.780   6.148  0.5896 -0.5148 -0.1100
  575MOL0     C77516   3.882   5.655   6.106 -0.1834 -0.3523 -0.2096
  575MOL0     C77517   3.751   5.618   6.084  0.0245  0.0261 -0.2491
  575MOL0     C77518   3.730   5.466   6.041 -0.1883 -0.7100  0.3428
  575MOL0     C77519   3.648   5.715   6.107  0.1046  0.3772  0.0876
  575MOL0     C77520   3.512   5.680   6.090 -0.2100 -0.2418 -0.2124
  575MOL0     O77521   3.485   5.601   5.977  0.3187 -0.1960 -0.4441
  575MOL0     C77522   3.356   5.569   5.942 -0.2579  0.5866 -0.3591
  575MOL0     C77523   3.244   5.564   6.028 -0.2353  0.5352  0.3484
  575MOL0     C77524   3.120   5.531   5.982  0.9689  0.3891  0.2637
  575MOL0     C77525   3.104   5.495   5.842  0.2985 -0.2252 -0.4211
  575MOL0     O77526   2.985   5.444   5.790 -0.5295  0.0779 -0.0459
  575MOL0     C77527   2.869   5.519   5.796  0.2005  0.3091  0.0009
  575MOL0     C77528   2.760   5.435   5.874  0.0371 -0.2845 -0.5277
  575MOL0     C77529   2.625   5.497   5.857  0.0103  0.2053 -0.1803
  575MOL0     C77530   2.604   5.638   5.923  0.0582  0.8001  0.2293
  575MOL0     C77531   2.678   5.657   6.069  0.7154  1.1968  0.5799
  575MOL0     C77532   2.622   5.580   6.192  0.6725  0.2692  0.6690
  575MOL0     C77533   2.707   5.562   6.318 -0.7435 -0.0710 -0.4845
  575MOL0     C77534   2.730   5.699   6.394  0.0795  0.6851  0.1903
  575MOL0    Cl77535   2.863   5.808   6.317 -0.2172 -0.5332 -0.2592
  575MOL0     C77536   3.220   5.498   5.762  0.0165  0.2795  0.8780
  575MOL0     C77537   3.346   5.522   5.813  0.2028 -0.4222  0.7040
  575MOL0     O77538   3.431   5.741   6.156 -0.0170 -0.3036  0.1472
  575MOL0     C77539   3.688   5.847   6.140  1.3168 -0.1809 -0.0384
  575MOL0     C77540   3.820   5.880   6.168  0.5337 -0.3304 -0.4279
  575MOL0     N77541   4.498   5.720   6.478 -0.0252  0.6564 -0.5305
  575MOL0     N77542   4.598   5.637   6.509  0.3088 -0.5505  0.9495
  575MOL0     C77543   5.596   5.182   5.995 -0.6914  0.6229 -0.8948
  575MOL0     C77544   5.717   5.225   5.940  0.3501  1.1452  0.2021
  575MOL0     C77545   6.154   5.346   5.892  0.5825 -0.1986  0.0818
  575MOL0     C77546   6.270   5.263   5.870  0.9677  0.3793 -0.6819
  575MOL0     C77547   6.410   5.315   5.874  1.3861  0.0926 -0.6590
  575MOL0     C77548   6.415   5.451   5.899 -0.8293  0.1367  0.3764
  575MOL0     O77549   6.543   5.496   5.892 -0.1317 -0.2794  0.0150
  575MOL0     C77550   6.572   5.614   5.968 -0.1121 -0.1026 -0.6298
  575MOL0     C77551   6.718   5.664   5.923  0.6250  0.6216  0.5207
  575MOL0     C77552   6.831   5.573   5.969 -0.2115  0.2094 -0.0676
  575MOL0     C77553   6.970   5.619   5.943 -0.0363 -0.0928  0.0836
  575MOL0     C77554   7.082   5.527   5.975 -0.3484  0.3992 -0.0960
  575MOL0     C77555   7.176   5.454   6.020  0.2570  0.0662  0.2164
  575MOL0     C77556   6.304   5.533   5.923 -1.1860  0.2749 -0.6995
  575MOL0     C77557   6.176   5.483   5.914  0.4221 -0.4557 -0.6120
  575MOL0     H77558   5.813   5.430   6.196  1.1525  0.4298 -0.8284
  575MOL0     H77559   5.605   5.362   6.284 -0.9276 -2.8464  0.8268
  575MOL0     H77560   5.329   5.122   6.062 -0.1270 -0.3183  0.1565
  575MOL0     H77561   5.433   4.994   6.141  1.7054  0.6292 -1.7532
  575MOL0     H77562   5.238   4.952   6.254 -2.3507  1.0718  1.1044
  575MOL0     H77563   5.318   5.065   6.366  0.6037 -1.9755  0.6792
  575MOL0     H77564   5.165   5.249   6.244  0.2410 -0.1415 -2.0711
  575MOL0     H77565   5.091   5.130   6.163 -0.9903  1.1596 -0.1452
  575MOL0     H77566   5.033   5.011   6.377  1.4124 -0.1910 -0.1980
  575MOL0     H77567   5.096   5.148   6.463 -1.6543 -0.9916  0.9515
  575MOL0     H77568   4.883   5.173   6.251  4.8062 -2.7040 -1.0463
  575MOL0     H77569   4.831   5.172   6.422 -2.0144  2.7422 -1.3156
  575MOL0     H77570   4.991   5.352   6.466 -1.1464 -0.0458  0.5871
  575MOL0     H77571   4.977   5.398   6.296  2.9108  0.0729  2.2564
  575MOL0     H77572   4.734   5.428   6.308 -2.3917 -0.1771  2.1321
  575MOL0     H77573   4.735   5.380   6.478  2.9856 -1.8220  0.9040
  575MOL0     H77574   4.903   5.625   6.369 -1.8347  1.0638 -1.9807
  575MOL0     H77575   4.869   5.575   6.538 -0.6393 -0.1467 -0.4321
  575MOL0     H77576   4.742   5.822   6.282 -0.2583 -0.6681 -2.2010
  575MOL0     H77577   4.473   5.996   6.354 -0.6875 -1.5358  2.7438
  575MOL0     H77578   4.506   5.903   6.203 -0.8442  0.7540 -0.2745
  575MOL0     H77579   4.286   5.868   6.404  2.9075 -0.0836  0.3001
  575MOL0     H77580   4.309   5.754   6.276  1.1747 -0.2135 -1.2364
  575MOL0     H77581   4.268   5.967   6.118 -1.4664 -0.1259 -1.3669
  575MOL0     H77582   4.249   6.061   6.264  1.4605  1.3250 -2.9483
  575MOL0     H77583   4.038   6.018   6.189 -0.0973  1.1421  2.7634
  575MOL0     H77584   4.063   5.909   6.329  0.8379 -3.3751 -0.2032
  575MOL0     H77585   3.959   5.583   6.081  0.8111  0.9125 -0.8951
  575MOL0     H77586   3.825   5.412   6.037  1.5248  2.0712  0.2432
  575MOL0     H77587   3.650   5.412   6.093 -4.2521  0.1003 -4.3739
  575MOL0     H77588   3.699   5.463   5.936  2.4498 -1.0467 -0.4957
  575MOL0     H77589   3.264   5.587   6.132  1.4855 -1.0925  0.4134
  575MOL0     H77590   3.035   5.532   6.051 -1.6124  1.6586 -2.6954
  575MOL0     H77591   2.890   5.613   5.846  3.9588 -0.9264  1.0891
  575MOL0     H77592   2.827   5.537   5.697 -0.4518 -3.1486 -0.4848
  575MOL0     H77593   2.764   5.336   5.827  1.0354  1.0067 -3.3974
  575MOL0     H77594   2.790   5.424   5.979 -2.0281 -0.2655  0.1114
  575MOL0     H77595   2.560   5.417   5.893  0.9445 -1.8317 -2.6740
  575MOL0     H77596   2.610   5.499   5.749  0.8700 -0.9796 -0.3370
  575MOL0     H77597   2.641   5.717   5.857 -1.5426  2.5852  1.3910
  575MOL0     H77598   2.497   5.660   5.926  0.2829  1.8559  0.7207
  575MOL0     H77599   2.673   5.763   6.093  0.1917  1.1811  0.5446
  575MOL0     H77600   2.784   5.629   6.068  0.9427  1.9170  2.1580
  575MOL0     H77601   2.525   5.623   6.218  0.2471 -0.0052 -0.4005
  575MOL0     H77602   2.587   5.482   6.157  0.1434  0.7326 -0.1175
  575MOL0     H77603   2.795   5.510   6.280 -2.0870  0.2041 -4.3965
  575MOL0     H77604   2.652   5.499   6.388  2.4027 -2.5493  0.0076
  575MOL0     H77605   2.771   5.680   6.493  2.2817  4.3594  0.1894
  575MOL0     H77606   2.632   5.748   6.388  0.5871  1.6257 -0.8446
  575MOL0     H77607   3.218   5.452   5.663  1.8412  0.1576  0.8641
  575MOL0     H77608   3.433   5.524   5.749  1.3410  1.0924  2.2096
  575MOL0     H77609   3.607   5.914   6.166  2.3077 -0.0674  3.1387
  575MOL0     H77610   3.849   5.983   6.181 -2.1246  0.8918 -2.9715
  575MOL0     H77611   5.536   5.105   5.947  0.2660 -1.8375  1.5650
  575MOL0     H77612   5.746   5.173   5.850 -0.1331  2.7480 -0.9209
  575MOL0     H77613   6.256   5.156   5.854  2.7613 -0.0102  0.1478
  575MOL0     H77614   6.503   5.264   5.854  0.8997 -0.6624 -1.0741
  575MOL0     H77615   6.504   5.698   5.952  0.2300  1.1411  3.2852
  575MOL0     H77616   6.573   5.595   6.076  0.2665  1.2766 -0.3713
  575MOL0     H77617   6.732   5.763   5.966 -3.8873  1.5628  0.2963
  575MOL0     H77618   6.708   5.669   5.814 -0.9009 -1.2557  0.5230
  575MOL0     H77619   6.811   5.477   5.920 -1.2222  0.8672 -1.0144
  575MOL0     H77620   6.821   5.552   6.075 -1.6188  0.5386 -0.1043
  575MOL0     H77621   6.993   5.712   5.995  1.1617 -0.7942  0.8373
  575MOL0     H77622   6.976   5.647   5.837  0.2234 -2.4953 -0.6153
  575MOL0     H77623   7.264   5.402   6.054  1.2500  1.5474  0.0258
  575MOL0     H77624   6.313   5.640   5.937 -1.8511  0.3450 -0.8247
  575MOL0     H77625   6.094   5.553   5.931  1.6148  0.7782  0.3747
  576MOL0     O77626   1.880   5.107   2.506 -0.6121 -0.3082  0.1077
  576MOL0     C77627   1.917   4.987   2.505 -0.7666 -0.4335  0.2821
  576MOL0     O77628   1.856   4.873   2.551  0.5542  0.3087 -0.0171
  576MOL0     C77629   1.715   4.887   2.560 -0.4572  0.3007  0.7883
  576MOL0     C77630   1.637   4.951   2.465 -0.6904 -0.1147 -0.6311
  576MOL0     C77631   1.494   4.933   2.474 -0.4239  0.1662  0.7555
  576MOL0     C77632   1.434   4.860   2.575  0.0484 -0.0245  0.0700
  576MOL0     O77633   1.304   4.821   2.568  0.8033 -0.4499  0.7121
  576MOL0     C77634   1.205   4.910   2.522 -0.2250 -0.9599 -0.2506
  576MOL0     C77635   1.081   4.933   2.613 -1.0260  0.5958  0.2004
  576MOL0     C77636   1.012   4.804   2.686 -0.0241 -0.3648 -0.3827
  576MOL0     C77637   0.904   4.752   2.578 -0.0198  0.1262 -0.3104
  576MOL0     C77638   0.830   4.626   2.614  0.0185 -0.1499  0.1807
  576MOL0     C77639   0.736   4.665   2.725 -0.5999 -0.7222 -0.0100
  576MOL0     C77640   0.598   4.589   2.719 -0.5036  1.3341 -0.1834
  576MOL0     C77641   0.605   4.438   2.751 -0.5668 -0.1278  0.1679
  576MOL0     N77642   0.480   4.357   2.733 -0.5457  0.2831  0.3974
  576MOL0     C77643   0.377   4.344   2.826 -0.3613  0.0547 -0.0582
  576MOL0     C77644   0.276   4.270   2.764  0.3435  0.3750 -0.0503
  576MOL0     C77645   0.142   4.223   2.818 -0.0261 -0.0109 -0.5500
  576MOL0     C77646   0.108   4.069   2.797 -0.4420 -0.2315 -0.1760
  576MOL0     C77647  -0.037   4.037   2.839  0.3745 -0.8959 -0.8333
  576MOL0     C77648  -0.072   3.890   2.829 -0.1005 -0.3956 -0.0127
  576MOL0     O77649  -0.215   3.876   2.870  0.2254  0.3191 -0.1566
  576MOL0     C77650  -0.248   3.771   2.950  1.1655  0.3820 -0.0212
  576MOL0     C77651  -0.368   3.787   3.021 -0.5999  0.1715  0.1404
  576MOL0     C77652  -0.428   3.693   3.090 -0.4315  1.2997 -0.0050
  576MOL0     C77653  -0.567   3.726   3.140 -0.1268  0.2331  0.4014
  576MOL0     C77654  -0.367   3.569   3.118  0.4272 -0.1158 -0.2583
  576MOL0     C77655  -0.436   3.461   3.194 -0.5406  0.0633  0.6631
  576MOL0     O77656  -0.346   3.385   3.257 -0.0202 -0.9872 -0.3968
  576MOL0     C77657  -0.377   3.281   3.347 -0.3548  0.0941 -0.0752
  576MOL0     C77658  -0.503   3.245   3.395  0.6374 -0.1276 -0.0679
  576MOL0     C77659  -0.522   3.126   3.477 -0.2832  0.3889  0.4826
  576MOL0     C77660  -0.412   3.051   3.507 -0.9814  0.3753 -0.2298
  576MOL0     O77661  -0.425   2.933   3.575  0.3784  0.1805  0.1352
  576MOL0     C77662  -0.398   2.816   3.498  0.9541 -0.0894 -0.7622
  576MOL0     C77663  -0.526   2.735   3.481 -0.4254  0.2770 -1.0159
  576MOL0     C77664  -0.596   2.691   3.616 -0.3107  0.4393  0.2268
  576MOL0     C77665  -0.738   2.640   3.581  0.3576 -0.2537  0.9156
  576MOL0     C77666  -0.819   2.625   3.710  0.4798 -0.4901  0.0914
  576MOL0     C77667  -0.969   2.607   3.681  0.6705 -0.0702  0.8590
  576MOL0     C77668  -1.049   2.655   3.798  0.0981 -0.2539 -0.2220
  576MOL0     C77669  -1.186   2.661   3.749 -0.3673 -0.0756  0.8174
  576MOL0    Cl77670  -1.317   2.660   3.876  0.2965 -0.4297 -0.1027
  576MOL0     C77671  -0.285   3.101   3.471  0.0688 -0.4743  0.3436
  576MOL0     C77672  -0.267   3.213   3.395  0.0734  0.0051 -0.4856
  576MOL0     O77673  -0.561   3.438   3.181 -0.2456 -0.3573  0.2231
  576MOL0     C77674  -0.247   3.543   3.057  0.5091 -0.3785  0.2192
  576MOL0     C77675  -0.187   3.644   2.974 -0.7854 -0.2864 -0.5040
  576MOL0     N77676   0.322   4.242   2.635 -0.1469  0.7149  0.3232
  576MOL0     N77677   0.444   4.287   2.623 -0.6814 -0.9654 -0.4409
  576MOL0     C77678   1.516   4.800   2.670  0.2010 -0.4620 -0.8980
  576MOL0     C77679   1.654   4.814   2.666 -0.6469 -0.6484  0.8928
  576MOL0     C77680   2.051   4.968   2.446 -0.3732 -0.1866 -0.3312
  576MOL0     C77681   2.122   5.072   2.384  0.0860  0.1522  0.7381
  576MOL0     C77682   2.241   5.038   2.319 -0.2865 -0.9745  0.0552
  576MOL0     C77683   2.287   4.912   2.305 -0.7303  0.4216 -0.2099
  576MOL0     O77684   2.409   4.890   2.240  0.1475  0.1083 -0.3086
  576MOL0     C77685   2.457   4.756   2.212 -0.2838  1.2671 -0.3136
  576MOL0     C77686   2.378   4.688   2.101 -0.6494 -1.0611  0.6965
  576MOL0     C77687   2.392   4.536   2.088  0.8443 -0.0360  0.5260
  576MOL0     C77688   2.523   4.497   2.028 -0.6339  0.6364  0.0115
  576MOL0     C77689   2.645   4.522   2.109 -0.1252 -0.7575 -0.4415
  576MOL0     C77690   2.749   4.548   2.180  0.4925 -0.6292  0.0572
  576MOL0     C77691   2.215   4.811   2.371 -1.3905  0.6725 -0.0189
  576MOL0     C77692   2.097   4.840   2.435  0.6581  0.5204 -0.0628
  576MOL0     H77693   1.676   4.998   2.375 -0.8560  1.5028  0.0958
  576MOL0     H77694   1.447   4.967   2.382  0.9056 -0.7199 -0.2842
  576MOL0     H77695   1.235   5.013   2.501 -0.4142 -0.3373  2.2745
  576MOL0     H77696   1.171   4.868   2.427 -0.6664 -0.7480 -0.1848
  576MOL0     H77697   1.110   5.002   2.692  1.4558  0.8331 -0.8323
  576MOL0     H77698   1.003   4.977   2.550 -0.9432 -3.5628 -3.2729
  576MOL0     H77699   1.087   4.728   2.711 -0.9046 -1.3725 -0.6987
  576MOL0     H77700   0.962   4.832   2.779  2.4051 -0.1169  0.9307
  576MOL0     H77701   0.834   4.834   2.559  1.1313  0.9190 -1.3300
  576MOL0     H77702   0.954   4.735   2.482 -1.1201  0.0274 -0.8860
  576MOL0     H77703   0.782   4.594   2.521  2.8588 -2.2038 -0.7410
  576MOL0     H77704   0.896   4.541   2.635 -2.4579 -2.4659 -0.8340
  576MOL0     H77705   0.792   4.664   2.820  1.1469  0.4473 -0.9730
  576MOL0     H77706   0.710   4.767   2.696  3.0289  0.0507 -1.0348
  576MOL0     H77707   0.527   4.634   2.789  1.4107 -0.7826  3.4011
  576MOL0     H77708   0.567   4.608   2.616  2.8615  1.2720 -1.3360
  576MOL0     H77709   0.632   4.428   2.857 -0.8851 -0.1862  0.2449
  576MOL0     H77710   0.682   4.398   2.685 -1.2029 -1.0121 -0.0549
  576MOL0     H77711   0.363   4.380   2.927 -0.8732  0.9932 -0.4551
  576MOL0     H77712   0.134   4.237   2.927 -0.1710 -0.9344 -0.4376
  576MOL0     H77713   0.064   4.286   2.773 -0.9397 -0.9390 -0.2994
  576MOL0     H77714   0.177   4.005   2.852 -1.6135  0.8839  2.7945
  576MOL0     H77715   0.129   4.048   2.691 -2.0264  3.3053 -1.3458
  576MOL0     H77716  -0.108   4.094   2.779 -0.2326  0.2739  0.9242
  576MOL0     H77717  -0.046   4.061   2.945  2.0092 -4.6263  0.3036
  576MOL0     H77718  -0.018   3.823   2.897 -0.9891 -1.4902 -0.3425
  576MOL0     H77719  -0.053   3.853   2.728  1.0705 -2.0293  0.7666
  576MOL0     H77720  -0.418   3.882   3.007 -1.5552  0.0892  2.4726
  576MOL0     H77721  -0.640   3.663   3.089 -1.5685  2.6369 -0.6975
  576MOL0     H77722  -0.578   3.706   3.247 -1.0412 -1.9757 -0.0563
  576MOL0     H77723  -0.593   3.830   3.116 -0.2074  0.0927 -0.1396
  576MOL0     H77724  -0.597   3.293   3.374  0.2524  0.1084  1.9845
  576MOL0     H77725  -0.619   3.099   3.517 -1.2111  0.3211 -1.6504
  576MOL0     H77726  -0.354   2.844   3.402  0.1969  1.8550 -0.5883
  576MOL0     H77727  -0.325   2.760   3.557 -0.7253  0.0456  1.5742
  576MOL0     H77728  -0.595   2.802   3.429  0.9697  2.1134 -0.6510
  576MOL0     H77729  -0.514   2.650   3.414 -1.5404 -0.1707 -0.6682
  576MOL0     H77730  -0.592   2.775   3.685  0.7644  0.2951  0.3643
  576MOL0     H77731  -0.548   2.604   3.663 -1.6143  0.2019  1.1469
  576MOL0     H77732  -0.791   2.720   3.530 -2.4342 -2.8698 -0.6312
  576MOL0     H77733  -0.744   2.544   3.529 -0.0809  0.0701  0.3618
  576MOL0     H77734  -0.806   2.720   3.763  1.8707 -1.4539  1.5731
  576MOL0     H77735  -0.784   2.547   3.779 -0.2190 -0.9308 -0.0432
  576MOL0     H77736  -0.992   2.671   3.596 -2.2733 -0.6564  1.1035
  576MOL0     H77737  -0.988   2.502   3.658  2.2063 -0.7596  2.4674
  576MOL0     H77738  -1.021   2.758   3.822  0.2386 -0.0016 -1.3879
  576MOL0     H77739  -1.035   2.584   3.880  0.7515  0.5511  0.3797
  576MOL0     H77740  -1.216   2.573   3.690 -0.5150 -0.1196  0.9587
  576MOL0     H77741  -1.196   2.753   3.692  3.6279  1.3215  2.0487
  576MOL0     H77742  -0.193   3.062   3.514  2.3358  0.9412 -2.7636
  576MOL0     H77743  -0.169   3.257   3.382  0.0174  1.2340  2.5244
  576MOL0     H77744  -0.195   3.449   3.072 -1.0172 -1.5660 -1.4949
  576MOL0     H77745  -0.100   3.618   2.914 -0.8626 -1.1321 -0.2599
  576MOL0     H77746   1.465   4.742   2.746 -0.1058  1.4901  0.4684
  576MOL0     H77747   1.711   4.773   2.749 -1.4081  1.0724  2.3493
  576MOL0     H77748   2.084   5.173   2.381  1.9632  0.8930 -0.1329
  576MOL0     H77749   2.296   5.113   2.263 -0.8040 -0.9003 -0.3594
  576MOL0     H77750   2.561   4.772   2.184 -0.9373  1.4271 -2.9648
  576MOL0     H77751   2.456   4.685   2.295  2.1673  3.2160  1.5356
  576MOL0     H77752   2.414   4.742   2.012 -2.9140 -1.2463 -0.4070
  576MOL0     H77753   2.271   4.707   2.111 -0.6428 -0.9236  0.5192
  576MOL0     H77754   2.314   4.497   2.022 -0.3409 -0.5498  2.1566
  576MOL0     H77755   2.366   4.485   2.181 -1.3725 -1.0485 -0.5781
  576MOL0     H77756   2.544   4.546   1.933  1.2893  3.4574  1.7402
  576MOL0     H77757   2.512   4.390   2.012 -1.1981  0.9463 -1.9302
  576MOL0     H77758   2.833   4.582   2.236  0.6871 -0.5095 -0.3070
  576MOL0     H77759   2.245   4.707   2.377 -1.7332  0.5802  0.1069
  576MOL0     H77760   2.047   4.761   2.489  0.9425  0.6327  0.3687
  577MOL0     O77761   3.420   5.989   4.836 -0.6758 -0.1102  0.2858
  577MOL0     C77762   3.455   5.899   4.915  0.8677 -0.6410  0.6561
  577MOL0     O77763   3.369   5.810   4.976  0.5030  0.2363  0.3053
  577MOL0     C77764   3.238   5.838   4.989  0.4125 -0.7082  0.9167
  577MOL0     C77765   3.199   5.921   5.096  0.8231  0.2776  0.1501
  577MOL0     C77766   3.063   5.955   5.114 -0.5525  0.0778  0.2295
  577MOL0     C77767   2.968   5.899   5.030  0.1603  0.3237 -0.2834
  577MOL0     O77768   2.830   5.915   5.038  0.0346  0.1590  0.3269
  577MOL0     C77769   2.780   6.030   5.106  0.2904 -0.0804  0.2888
  577MOL0     C77770   2.640   6.067   5.066  0.6403  0.2468  0.4535
  577MOL0     C77771   2.536   5.978   5.137 -0.8180 -0.1514 -0.7539
  577MOL0     C77772   2.394   6.021   5.106  0.1778 -0.6649  0.2569
  577MOL0     C77773   2.280   5.969   5.193  0.2718 -0.2015  0.5083
  577MOL0     C77774   2.150   5.964   5.119 -0.0612 -0.3974  0.8301
  577MOL0     C77775   2.038   5.989   5.224 -0.9395  0.4340 -0.7316
  577MOL0     C77776   1.914   5.957   5.145  0.2286 -0.2574 -0.1428
  577MOL0     N77777   1.793   6.018   5.200  0.7876 -0.4960 -0.5160
  577MOL0     C77778   1.768   6.152   5.202  1.1237  0.5949  0.2103
  577MOL0     C77779   1.649   6.167   5.257  0.4012  0.5551  0.5188
  577MOL0     C77780   1.596   6.304   5.295 -0.2425  0.1463  0.0512
  577MOL0     C77781   1.453   6.309   5.328 -0.0245 -0.7077  0.0513
  577MOL0     C77782   1.373   6.343   5.203  0.7022 -0.0939  0.6296
  577MOL0     C77783   1.385   6.237   5.093 -0.1394 -0.7320  0.1241
  577MOL0     O77784   1.327   6.286   4.973  0.5883 -0.1429  0.7897
  577MOL0     C77785   1.189   6.274   4.969  0.7915  0.3177 -0.1365
  577MOL0     C77786   1.139   6.143   4.956  0.7979  0.0791  0.1872
  577MOL0     C77787   1.004   6.122   4.932  0.1071  0.6854  0.2656
  577MOL0     C77788   0.962   5.975   4.906 -0.3010  0.1024  0.1526
  577MOL0     C77789   0.912   6.232   4.922 -0.3028 -0.0127  0.7425
  577MOL0     C77790   0.772   6.221   4.888 -0.1963 -0.6291 -1.0395
  577MOL0     O77791   0.723   6.097   4.876 -0.2636 -0.4642 -0.0574
  577MOL0     C77792   0.591   6.070   4.847 -0.0913 -0.3343 -0.4193
  577MOL0     C77793   0.486   6.117   4.921 -0.3714 -1.1131 -0.0247
  577MOL0     C77794   0.356   6.075   4.899  0.5820  0.3859 -0.4727
  577MOL0     C77795   0.324   5.979   4.798 -0.0512  0.2201  0.4034
  577MOL0     O77796   0.204   5.930   4.751  0.3952  0.5726 -0.3192
  577MOL0     C77797   0.098   5.913   4.847  0.4821 -0.2273 -1.0601
  577MOL0     C77798  -0.018   6.001   4.813  0.0789 -0.5759 -0.1402
  577MOL0     C77799  -0.087   5.957   4.684  0.0280  0.2810  0.0276
  577MOL0     C77800  -0.195   6.053   4.647 -0.0686 -0.1756  0.8085
  577MOL0     C77801  -0.322   5.996   4.571 -0.0307  0.1810 -0.2408
  577MOL0     C77802  -0.406   5.902   4.660  0.7054 -0.1688  0.9828
  577MOL0     C77803  -0.519   5.844   4.581 -0.0113  0.0197 -0.0924
  577MOL0     C77804  -0.614   5.775   4.681  0.6885 -0.6364  0.2301
  577MOL0    Cl77805  -0.742   5.698   4.582 -0.3189  0.0292 -0.1669
  577MOL0     C77806   0.429   5.944   4.717  0.5044 -0.6900  0.1275
  577MOL0     C77807   0.558   5.984   4.745 -0.0739  0.4809  0.2283
  577MOL0     O77808   0.712   6.322   4.882 -0.1957 -0.1329  0.1967
  577MOL0     C77809   0.966   6.367   4.943  0.0142  0.1507  0.0401
  577MOL0     C77810   1.103   6.387   4.965  0.0747  0.1164 -0.3899
  577MOL0     N77811   1.597   6.038   5.295  1.3454  0.0626  0.8169
  577MOL0     N77812   1.683   5.953   5.259  0.1233 -0.5763 -0.4184
  577MOL0     C77813   3.016   5.818   4.921  0.3315 -0.2758 -0.0329
  577MOL0     C77814   3.145   5.774   4.909 -0.6948 -0.6617 -0.1045
  577MOL0     C77815   3.600   5.887   4.932 -0.6156 -1.1103  0.5122
  577MOL0     C77816   3.654   5.767   4.977 -0.5450  0.5336  0.2589
  577MOL0     C77817   3.792   5.755   4.997 -0.0730 -0.6966 -0.4137
  577MOL0     C77818   3.882   5.862   4.975 -0.2605 -0.5763  0.3970
  577MOL0     O77819   4.017   5.849   4.984 -0.2749 -0.2315 -0.3137
  577MOL0     C77820   4.075   5.731   5.045  0.1366 -0.2606  0.6544
  577MOL0     C77821   4.226   5.764   5.065  0.4987  0.5490  0.0476
  577MOL0     C77822   4.305   5.794   4.929  0.2158 -0.4162 -0.3037
  577MOL0     C77823   4.455   5.812   4.968 -0.3234 -0.3730 -0.1238
  577MOL0     C77824   4.532   5.703   5.035  1.1051  0.2358 -0.4331
  577MOL0     C77825   4.600   5.623   5.082  0.7283  0.8034 -0.5312
  577MOL0     C77826   3.827   5.982   4.928 -0.5468 -0.0580 -0.3330
  577MOL0     C77827   3.688   5.997   4.904 -0.1940  0.2291  0.1657
  577MOL0     H77828   3.275   5.963   5.161  2.2465 -0.3680 -1.0356
  577MOL0     H77829   3.030   6.007   5.204  0.2731  0.7661  0.1495
  577MOL0     H77830   2.788   6.021   5.215 -3.1127 -1.2663  0.5842
  577MOL0     H77831   2.842   6.112   5.070 -0.1980  0.2517  0.1951
  577MOL0     H77832   2.620   6.167   5.107  2.2983  1.3684 -1.2574
  577MOL0     H77833   2.627   6.059   4.958  0.8796  2.2037  0.2270
  577MOL0     H77834   2.556   5.871   5.125  1.6734  0.0595  0.7611
  577MOL0     H77835   2.554   5.999   5.243  1.0690  2.1411 -1.4403
  577MOL0     H77836   2.385   6.129   5.097 -2.3439 -0.3773  3.7215
  577MOL0     H77837   2.371   5.983   5.007 -1.8263  0.1463  0.3693
  577MOL0     H77838   2.293   5.863   5.219 -0.8915 -0.1920  1.2097
  577MOL0     H77839   2.277   6.028   5.285 -0.1104  0.0707  0.3204
  577MOL0     H77840   2.138   6.045   5.047  1.7960  0.9532  1.9534
  577MOL0     H77841   2.138   5.868   5.068  0.7719 -0.3523  0.5290
  577MOL0     H77842   2.037   5.924   5.312  2.2418  0.0536 -0.8621
  577MOL0     H77843   2.027   6.094   5.251 -4.8037 -0.0408  0.1431
  577MOL0     H77844   1.901   5.852   5.119  0.4479  0.3662 -3.0993
  577MOL0     H77845   1.918   5.999   5.044  0.2233 -1.1313 -0.5143
  577MOL0     H77846   1.832   6.232   5.165 -0.9130  0.9997 -2.7554
  577MOL0     H77847   1.644   6.336   5.388 -0.6456 -0.0040  0.3143
  577MOL0     H77848   1.629   6.370   5.214  0.2550  0.3753  0.4355
  577MOL0     H77849   1.437   6.388   5.402 -1.1341 -0.8787  0.0121
  577MOL0     H77850   1.400   6.224   5.373 -2.6501  1.3106  1.0310
  577MOL0     H77851   1.406   6.434   5.153  0.0381 -0.4118 -0.4322
  577MOL0     H77852   1.271   6.367   5.235  1.2407  3.3575  0.1632
  577MOL0     H77853   1.364   6.132   5.116  1.4624 -1.6010 -2.0583
  577MOL0     H77854   1.490   6.226   5.065  0.3480 -0.7229  1.8244
  577MOL0     H77855   1.203   6.056   4.947  0.5626 -0.0181 -0.5655
  577MOL0     H77856   1.043   5.903   4.921 -1.8211 -1.5248  0.7537
  577MOL0     H77857   0.888   5.953   4.983  0.5746  1.3233  1.3888
  577MOL0     H77858   0.932   5.967   4.801  0.4903 -2.0661  0.0541
  577MOL0     H77859   0.519   6.175   5.006  2.5424 -0.9046 -1.1887
  577MOL0     H77860   0.269   6.096   4.961  0.2559  0.6850 -1.0193
  577MOL0     H77861   0.064   5.810   4.833 -3.6983  0.7658  0.1642
  577MOL0     H77862   0.132   5.920   4.950 -1.8286 -1.9068 -0.0899
  577MOL0     H77863  -0.094   5.984   4.890  1.5390 -1.3748  1.1688
  577MOL0     H77864   0.023   6.102   4.800 -3.1417  0.9828  0.5954
  577MOL0     H77865  -0.121   5.854   4.697 -2.4599  1.3095  2.3990
  577MOL0     H77866  -0.010   5.963   4.606 -1.5747  1.5946 -1.5288
  577MOL0     H77867  -0.230   6.116   4.730  1.3092  0.1352  1.1718
  577MOL0     H77868  -0.150   6.118   4.571 -1.7881 -0.9186 -0.9378
  577MOL0     H77869  -0.289   5.929   4.491 -3.0114 -2.9539  0.9014
  577MOL0     H77870  -0.386   6.077   4.536 -3.9090 -2.7748 -0.6493
  577MOL0     H77871  -0.341   5.822   4.696 -0.7534 -2.8803 -1.8691
  577MOL0     H77872  -0.454   5.960   4.738 -0.0025  0.7536 -0.1075
  577MOL0     H77873  -0.490   5.775   4.502 -0.9189 -1.0756  0.5013
  577MOL0     H77874  -0.574   5.921   4.527  0.5421 -0.8169 -1.9109
  577MOL0     H77875  -0.658   5.847   4.750 -1.0402 -0.5858 -0.8591
  577MOL0     H77876  -0.552   5.701   4.732  0.3801 -1.1986 -0.1999
  577MOL0     H77877   0.408   5.894   4.623  1.8032  0.9843 -1.1268
  577MOL0     H77878   0.641   5.954   4.682  0.1628 -0.4422  0.9576
  577MOL0     H77879   0.893   6.447   4.949 -0.2419 -0.1261  0.6890
  577MOL0     H77880   1.146   6.485   4.985  4.0442 -1.3045 -1.0012
  577MOL0     H77881   2.947   5.769   4.853  0.9485 -1.2867  0.0440
  577MOL0     H77882   3.168   5.701   4.832  0.7069 -2.4671  1.9187
  577MOL0     H77883   3.606   5.671   4.996  2.0824 -1.2096 -1.3002
  577MOL0     H77884   3.834   5.662   5.032  1.5932  0.3024  0.4050
  577MOL0     H77885   4.032   5.704   5.142  1.6471 -0.0359  1.4188
  577MOL0     H77886   4.067   5.647   4.976  2.2397  2.0134 -2.6957
  577MOL0     H77887   4.263   5.674   5.115  1.2304  0.6860 -0.2497
  577MOL0     H77888   4.241   5.852   5.129  1.6959  0.9381 -0.7397
  577MOL0     H77889   4.261   5.869   4.864  0.7421 -0.3853 -0.6296
  577MOL0     H77890   4.289   5.704   4.869 -3.5904 -0.6440  0.7838
  577MOL0     H77891   4.473   5.897   5.035 -1.0366 -1.4659  1.5381
  577MOL0     H77892   4.502   5.831   4.871 -0.3413  1.3611  0.1766
  577MOL0     H77893   4.664   5.542   5.108 -1.0918 -0.5686 -0.1637
  577MOL0     H77894   3.887   6.067   4.898  0.0747 -1.4769 -3.5199
  577MOL0     H77895   3.656   6.086   4.851  2.9826  0.9516 -0.7430
  578MOL0     O77896   2.084  10.981   8.240  0.2177  0.2094  0.9199
  578MOL0     C77897   2.075  11.107   8.239  0.1967 -0.3707 -0.3851
  578MOL0     O77898   2.186  11.189   8.221  0.0786 -0.6683 -0.2360
  578MOL0     C77899   2.313  11.139   8.229 -0.1600 -0.1849 -0.9867
  578MOL0     C77900   2.404  11.202   8.318  0.2353 -0.0845  0.0262
  578MOL0     C77901   2.532  11.153   8.320 -0.4280 -0.5962 -0.2675
  578MOL0     C77902   2.576  11.046   8.247 -1.6071  0.1095 -0.0045
  578MOL0     O77903   2.702  11.001   8.251 -0.5241  0.8753  0.0451
  578MOL0     C77904   2.771  10.982   8.377 -0.0242 -1.0015  0.2465
  578MOL0     C77905   2.843  10.844   8.381  0.3905 -0.5007 -0.1321
  578MOL0     C77906   2.914  10.829   8.510 -0.1954  0.3649 -0.3604
  578MOL0     C77907   2.972  10.681   8.497  0.8709 -0.4704  0.7282
  578MOL0     C77908   3.031  10.637   8.628 -0.4922  0.4066  0.5730
  578MOL0     C77909   3.182  10.680   8.625 -0.2624 -0.0656  0.1578
  578MOL0     C77910   3.243  10.671   8.765  0.3946  0.0738  0.1651
  578MOL0     C77911   3.247  10.520   8.826  0.0024 -0.6953  0.2247
  578MOL0     N77912   3.126  10.474   8.894 -0.6236  0.1028  0.8478
  578MOL0     C77913   3.055  10.364   8.858  0.3966 -0.8202  0.0378
  578MOL0     C77914   2.953  10.367   8.948  0.0411  0.6308  0.6101
  578MOL0     C77915   2.837  10.265   8.936 -0.1442  0.1833 -0.4456
  578MOL0     C77916   2.738  10.327   8.839 -0.6472 -0.2392  0.2430
  578MOL0     C77917   2.636  10.217   8.816  0.3274 -0.0516 -0.2978
  578MOL0     C77918   2.532  10.232   8.704  0.4803 -0.7115  0.4163
  578MOL0     O77919   2.458  10.108   8.699  0.3231  0.7943  0.0149
  578MOL0     C77920   2.338  10.104   8.630  0.0017 -0.1597 -0.6031
  578MOL0     C77921   2.296  10.210   8.558 -0.5533  0.4949  0.5784
  578MOL0     C77922   2.171  10.198   8.492  0.6434  0.0896  0.5497
  578MOL0     C77923   2.146  10.300   8.387  0.0627 -1.0026 -0.1200
  578MOL0     C77924   2.085  10.088   8.506  0.0623 -0.1065  0.1255
  578MOL0     C77925   1.954  10.064   8.433 -0.6440 -0.6349 -0.0977
  578MOL0     O77926   1.890  10.175   8.381 -0.1546 -0.1561  0.1859
  578MOL0     C77927   1.810  10.149   8.272 -0.1003 -0.3151 -0.3101
  578MOL0     C77928   1.686  10.092   8.298 -0.5737  0.4940 -0.0076
  578MOL0     C77929   1.590  10.077   8.202 -0.5313  0.0343  0.2274
  578MOL0     C77930   1.626  10.126   8.075 -0.0238 -0.0350 -0.5780
  578MOL0     O77931   1.531  10.107   7.978  1.0385  0.2333  0.0259
  578MOL0     C77932   1.538  10.158   7.842  0.1561 -0.5218 -0.1715
  578MOL0     C77933   1.409  10.176   7.768  0.3861  0.0918 -0.5108
  578MOL0     C77934   1.307  10.253   7.855 -0.4845  0.1393  0.2402
  578MOL0     C77935   1.172  10.258   7.776 -0.1654  0.0413 -0.0220
  578MOL0     C77936   1.069  10.352   7.846 -0.4985  0.6221 -0.2461
  578MOL0     C77937   1.097  10.502   7.815  0.1002 -0.3017 -0.7313
  578MOL0     C77938   1.035  10.545   7.683  0.0408  0.4604 -0.6179
  578MOL0     C77939   1.051  10.700   7.662 -0.6892  0.4554  0.2008
  578MOL0    Cl77940   0.923  10.781   7.753 -0.1704 -0.1335  0.4148
  578MOL0     C77941   1.753  10.175   8.049 -0.1172 -0.2811  0.1321
  578MOL0     C77942   1.849  10.182   8.146  0.2152  0.0180 -0.8590
  578MOL0     O77943   1.930   9.941   8.405 -0.6497  0.5490  0.0849
  578MOL0     C77944   2.131   9.987   8.589  0.4441 -0.3689 -0.2796
  578MOL0     C77945   2.259   9.996   8.645  0.6627  0.4212  1.3650
  578MOL0     N77946   2.976  10.460   9.045 -0.2986 -0.4127  0.2937
  578MOL0     N77947   3.079  10.533   9.006 -0.2709  0.0009  0.5200
  578MOL0     C77948   2.496  10.978   8.155 -0.9390 -0.1305  0.3213
  578MOL0     C77949   2.360  11.027   8.149  0.4254  0.4562 -0.0674
  578MOL0     C77950   1.944  11.164   8.235  0.7018  0.5501  0.3492
  578MOL0     C77951   1.926  11.306   8.245 -0.5606 -0.7992 -0.2804
  578MOL0     C77952   1.807  11.364   8.228  0.4460  0.8688 -0.7234
  578MOL0     C77953   1.694  11.279   8.202 -0.7515 -0.1304 -1.3153
  578MOL0     O77954   1.561  11.330   8.207 -0.1948  0.0249  0.2426
  578MOL0     C77955   1.445  11.272   8.143  0.0736  0.2684 -0.7270
  578MOL0     C77956   1.342  11.375   8.118  0.2881 -0.2946 -0.0184
  578MOL0     C77957   1.225  11.336   8.025 -0.1358  0.4171  0.3602
  578MOL0     C77958   1.136  11.460   8.001 -0.3162 -0.7800 -0.2688
  578MOL0     C77959   0.998  11.416   7.996  0.4831 -0.0465 -0.1265
  578MOL0     C77960   0.886  11.363   7.993 -0.4614 -0.1861  0.7849
  578MOL0     C77961   1.709  11.140   8.198  0.2275  0.5247 -0.3360
  578MOL0     C77962   1.836  11.080   8.215  0.0808 -0.5925 -0.3340
  578MOL0     H77963   2.381  11.286   8.383  4.5075  1.8023 -0.5639
  578MOL0     H77964   2.607  11.206   8.378 -0.8965 -1.2000  0.9193
  578MOL0     H77965   2.838  11.068   8.386  1.0091 -1.8518  0.8555
  578MOL0     H77966   2.699  10.986   8.459  0.3047  1.5866  0.4887
  578MOL0     H77967   2.768  10.767   8.364  0.8256 -0.3355 -3.3870
  578MOL0     H77968   2.913  10.847   8.297  0.9473  1.3291  0.3474
  578MOL0     H77969   3.000  10.895   8.521  0.5853 -0.6886  0.0985
  578MOL0     H77970   2.843  10.844   8.592 -1.6157  3.3486 -1.9886
  578MOL0     H77971   2.892  10.608   8.484 -0.4344  0.9880  0.2752
  578MOL0     H77972   3.040  10.668   8.412  0.7907  0.6520  0.4695
  578MOL0     H77973   2.982  10.686   8.712  1.2315  1.4532  1.0162
  578MOL0     H77974   3.028  10.529   8.644  1.3055 -0.1792 -2.1844
  578MOL0     H77975   3.243  10.621   8.556 -0.4322  1.4468 -1.3622
  578MOL0     H77976   3.186  10.783   8.589  1.4994 -0.6845 -1.6149
  578MOL0     H77977   3.350  10.682   8.748  0.2518  2.1940  0.4019
  578MOL0     H77978   3.184  10.735   8.831 -2.7181 -1.0928 -1.2870
  578MOL0     H77979   3.331  10.513   8.896  0.1440  1.6472  0.3651
  578MOL0     H77980   3.277  10.452   8.745  0.4261 -0.0750 -0.1456
  578MOL0     H77981   3.065  10.292   8.777 -2.8369  0.2795 -1.4958
  578MOL0     H77982   2.879  10.169   8.905  0.1649  0.3401 -0.5132
  578MOL0     H77983   2.792  10.251   9.035 -1.5714  0.7452 -0.9812
  578MOL0     H77984   2.787  10.351   8.745  1.0567 -1.9974  0.6175
  578MOL0     H77985   2.685  10.415   8.880  1.3566  0.8046  0.7075
  578MOL0     H77986   2.574  10.202   8.905  1.0762  0.0678  0.2519
  578MOL0     H77987   2.683  10.119   8.800  1.5945  0.5861 -0.6540
  578MOL0     H77988   2.586  10.245   8.610 -0.5356  2.8729  0.1723
  578MOL0     H77989   2.468  10.318   8.725  2.6241  0.7272  1.3203
  578MOL0     H77990   2.364  10.292   8.539 -1.2868  0.4723 -2.6070
  578MOL0     H77991   2.129  10.242   8.295 -0.4711 -0.6894 -0.2215
  578MOL0     H77992   2.055  10.360   8.396  0.6345 -0.1147 -0.2207
  578MOL0     H77993   2.230  10.369   8.375 -0.1650 -0.6958  0.0363
  578MOL0     H77994   1.673  10.047   8.396 -2.5605 -1.2616 -0.9794
  578MOL0     H77995   1.498  10.025   8.224 -0.0791 -0.1765  1.8065
  578MOL0     H77996   1.593  10.252   7.845  0.3862 -0.6747  1.9283
  578MOL0     H77997   1.593  10.095   7.771 -0.2412 -2.1455  0.9017
  578MOL0     H77998   1.431  10.229   7.675  1.3146 -1.0361 -0.9626
  578MOL0     H77999   1.373  10.078   7.735  0.6143 -0.5562  1.0874
  578MOL0     H78000   1.346  10.353   7.874 -1.7087  1.0461 -1.6886
  578MOL0     H78001   1.299  10.215   7.957 -1.5668  3.6254  1.5633
  578MOL0     H78002   1.182  10.287   7.671 -0.4909 -1.2156 -0.4242
  578MOL0     H78003   1.127  10.158   7.773 -1.3169  0.4567  1.8955
  578MOL0     H78004   1.060  10.325   7.951 -1.4762 -1.3082 -0.7795
  578MOL0     H78005   0.972  10.322   7.807  0.3547  0.8891 -2.7697
  578MOL0     H78006   1.068  10.556   7.906  1.1307  0.9882 -1.1318
  578MOL0     H78007   1.206  10.506   7.809  0.3837 -2.5820  1.3332
  578MOL0     H78008   0.934  10.510   7.663  0.6280  0.0834 -3.1835
  578MOL0     H78009   1.090  10.489   7.608 -1.9485 -1.3789 -0.7891
  578MOL0     H78010   1.048  10.729   7.557 -0.0080  1.5456  0.4611
  578MOL0     H78011   1.152  10.729   7.693 -1.5177 -0.9676  5.2547
  578MOL0     H78012   1.768  10.225   7.954 -1.9079  0.5309  0.2291
  578MOL0     H78013   1.952  10.214   8.135  0.7225 -0.5469  1.5796
  578MOL0     H78014   2.072   9.900   8.614 -0.0498 -0.1399 -0.6281
  578MOL0     H78015   2.291   9.904   8.694 -2.0228 -0.4530  1.6897
  578MOL0     H78016   2.527  10.901   8.086 -3.1627  0.0513 -0.9646
  578MOL0     H78017   2.301  10.962   8.087  3.3591 -2.3093 -0.2074
  578MOL0     H78018   2.006  11.376   8.268 -1.9354  1.7872 -2.7030
  578MOL0     H78019   1.788  11.466   8.260 -0.1866  0.7237 -0.6186
  578MOL0     H78020   1.484  11.238   8.046 -1.0450  1.6335 -1.7070
  578MOL0     H78021   1.407  11.185   8.197 -0.0243  1.9567  2.0889
  578MOL0     H78022   1.387  11.466   8.077  0.6117 -0.1244  0.7121
  578MOL0     H78023   1.298  11.406   8.214  2.7110 -0.0934  1.0923
  578MOL0     H78024   1.171  11.250   8.066  1.1709 -0.6695 -0.1121
  578MOL0     H78025   1.262  11.307   7.926 -0.7786  3.1172 -0.7661
  578MOL0     H78026   1.178  11.513   7.914  0.0757  0.8451  0.8640
  578MOL0     H78027   1.143  11.526   8.088  1.5310 -1.1811 -0.0728
  578MOL0     H78028   0.788  11.321   8.006  0.3453 -1.4373  3.7458
  578MOL0     H78029   1.624  11.075   8.179  1.6550 -1.5520  0.0747
  578MOL0     H78030   1.849  10.972   8.222 -0.3254 -0.7218 -1.4331
  579MOL0     O78031   4.997  10.468   6.222  0.2907 -0.9015  0.0003
  579MOL0     C78032   4.955  10.356   6.199 -0.6493  0.2732  0.7016
  579MOL0     O78033   4.829  10.321   6.221 -0.0891 -0.0507 -0.4477
  579MOL0     C78034   4.727  10.407   6.241  0.0367 -0.0286 -0.0472
  579MOL0     C78035   4.722  10.524   6.306 -0.2112 -0.4936  0.4258
  579MOL0     C78036   4.605  10.602   6.309 -0.4278 -0.4902 -0.0873
  579MOL0     C78037   4.488  10.564   6.237 -0.7080  0.1892  0.5003
  579MOL0     O78038   4.378  10.642   6.218 -0.2338 -1.0127  0.2660
  579MOL0     C78039   4.390  10.787   6.244  0.0650 -0.3188  0.0063
  579MOL0     C78040   4.283  10.863   6.162  0.3388  0.0615 -1.1653
  579MOL0     C78041   4.203  10.938   6.268  0.8676 -0.5011 -0.0912
  579MOL0     C78042   4.086  11.014   6.201  0.2593 -0.5672  0.1651
  579MOL0     C78043   3.975  11.074   6.300 -0.1545 -0.5541  0.8088
  579MOL0     C78044   3.877  11.150   6.218 -0.0310 -0.1556 -0.1899
  579MOL0     C78045   3.785  11.221   6.309 -0.2971  0.9994 -0.2823
  579MOL0     C78046   3.717  11.348   6.242 -0.7231  0.9196 -0.8453
  579MOL0     N78047   3.590  11.371   6.305  0.6506  0.5625  0.2402
  579MOL0     C78048   3.568  11.398   6.434  0.2846  0.1996  0.0292
  579MOL0     C78049   3.439  11.379   6.463  0.3590  0.5740  0.3591
  579MOL0     C78050   3.375  11.392   6.601 -0.0343 -0.7722  0.6861
  579MOL0     C78051   3.224  11.404   6.604 -0.3723 -0.3060  0.3070
  579MOL0     C78052   3.169  11.434   6.746 -0.3451  0.2204  0.2068
  579MOL0     C78053   3.011  11.427   6.760 -0.2437 -0.4029 -0.0187
  579MOL0     O78054   2.966  11.556   6.720  0.2529  0.1320  0.6825
  579MOL0     C78055   2.831  11.578   6.701  0.0759 -0.1103 -0.1588
  579MOL0     C78056   2.779  11.681   6.629 -0.1256 -0.3419  0.7932
  579MOL0     C78057   2.644  11.711   6.606  1.3425 -0.1117  0.0282
  579MOL0     C78058   2.607  11.837   6.530 -0.5541 -0.2228  0.0176
  579MOL0     C78059   2.550  11.614   6.661 -0.5009 -0.2360 -0.7073
  579MOL0     C78060   2.404  11.625   6.646  0.6396 -0.5742  0.1431
  579MOL0     O78061   2.364  11.670   6.512 -0.2970  0.2828  0.0158
  579MOL0     C78062   2.225  11.663   6.490 -0.9905 -0.0404  0.1923
  579MOL0     C78063   2.165  11.545   6.472 -1.0436 -0.8340  0.9047
  579MOL0     C78064   2.020  11.532   6.470 -0.1913 -0.0651  0.1765
  579MOL0     C78065   1.944  11.646   6.482  0.2791 -0.3481  0.1751
  579MOL0     O78066   1.809  11.662   6.480  0.2520 -0.5658  0.2566
  579MOL0     C78067   1.726  11.553   6.503 -0.2358  0.3494 -0.4770
  579MOL0     C78068   1.574  11.593   6.482  0.3344 -0.0470 -0.0767
  579MOL0     C78069   1.488  11.466   6.495 -0.1538  0.0532  0.4626
  579MOL0     C78070   1.344  11.506   6.521 -0.3320 -0.1882  0.5104
  579MOL0     C78071   1.265  11.396   6.589 -0.2047 -1.1386  0.1792
  579MOL0     C78072   1.113  11.415   6.580  0.2331 -0.1613 -0.0281
  579MOL0     C78073   1.058  11.347   6.714  0.1039  0.0318  0.2101
  579MOL0     C78074   0.907  11.310   6.704 -1.3831  0.0585  0.4954
  579MOL0    Cl78075   0.797  11.446   6.656 -0.2953  0.3681  0.2495
  579MOL0     C78076   2.015  11.767   6.488 -0.2140  0.0303 -1.1328
  579MOL0     C78077   2.154  11.778   6.492  0.5317 -0.6354  0.2606
  579MOL0     O78078   2.327  11.604   6.736  0.4963 -0.4120  0.2581
  579MOL0     C78079   2.597  11.500   6.722 -0.6373 -0.5053  0.1877
  579MOL0     C78080   2.737  11.480   6.745 -0.1075 -0.8557 -0.0943
  579MOL0     N78081   3.371  11.345   6.348 -0.3844 -0.1109  0.1861
  579MOL0     N78082   3.462  11.342   6.251  0.2127  0.0649  0.0885
  579MOL0     C78083   4.492  10.441   6.183 -0.3351  0.3605  0.6440
  579MOL0     C78084   4.611  10.362   6.180 -0.3253 -0.0562  0.3491
  579MOL0     C78085   5.044  10.259   6.144  0.0593  0.7446 -0.1371
  579MOL0     C78086   5.180  10.283   6.147 -0.2536  0.1309 -0.2069
  579MOL0     C78087   5.275  10.191   6.094  0.6115  0.2216  0.4377
  579MOL0     C78088   5.226  10.078   6.032 -0.6989 -0.0940 -0.4458
  579MOL0     O78089   5.308   9.989   5.959 -0.4760 -0.2566 -0.0929
  579MOL0     C78090   5.452  10.005   5.965  0.4440 -0.1015  0.6399
  579MOL0     C78091   5.479   9.958   6.100 -0.5920 -0.2179 -0.5000
  579MOL0     C78092   5.461   9.804   6.111 -0.6172 -0.5280 -0.7608
  579MOL0     C78093   5.539   9.759   6.236  0.7897  0.1572  0.9905
  579MOL0     C78094   5.464   9.815   6.346  0.6542  0.5728  0.1187
  579MOL0     C78095   5.388   9.865   6.425 -0.7010 -0.3589 -0.3252
  579MOL0     C78096   5.097  10.052   6.032  0.4693  0.6084 -0.2697
  579MOL0     C78097   5.004  10.139   6.091  0.5555  0.0533 -0.2449
  579MOL0     H78098   4.800  10.556   6.373 -0.1551  2.0602 -0.7593
  579MOL0     H78099   4.607  10.697   6.362  1.3445 -0.2398 -0.5393
  579MOL0     H78100   4.379  10.804   6.351 -0.5799 -1.3201  0.1183
  579MOL0     H78101   4.491  10.823   6.222  0.5106 -0.8879  1.0500
  579MOL0     H78102   4.319  10.939   6.092  0.4045  1.4335  0.3084
  579MOL0     H78103   4.226  10.788   6.107  0.9867 -1.6052  0.3239
  579MOL0     H78104   4.161  10.858   6.330 -2.0233 -0.4487 -1.7881
  579MOL0     H78105   4.260  11.007   6.331  0.5796 -1.7140  1.5596
  579MOL0     H78106   4.128  11.091   6.135  2.1575  0.2147  2.1631
  579MOL0     H78107   4.021  10.946   6.146  1.1309 -1.4829  0.2319
  579MOL0     H78108   3.928  10.989   6.351  0.6223 -0.7228  1.2584
  579MOL0     H78109   4.020  11.144   6.371 -0.2228  1.0393 -0.6483
  579MOL0     H78110   3.933  11.215   6.152  0.6972  0.8227  1.3363
  579MOL0     H78111   3.826  11.100   6.135  1.5419 -1.0038 -0.6798
  579MOL0     H78112   3.711  11.157   6.358  1.1851 -0.1428  0.5459
  579MOL0     H78113   3.853  11.255   6.388  0.7624  1.9772 -1.5713
  579MOL0     H78114   3.705  11.335   6.134 -1.6221  2.2299 -0.9333
  579MOL0     H78115   3.779  11.438   6.249 -0.6992  0.9223 -1.0784
  579MOL0     H78116   3.644  11.419   6.510 -1.7482  0.7599  2.0273
  579MOL0     H78117   3.395  11.297   6.652 -3.1745 -1.5541  0.7173
  579MOL0     H78118   3.422  11.476   6.652  1.8133 -0.6818 -1.0624
  579MOL0     H78119   3.180  11.316   6.556  0.4986  0.1460 -1.4137
  579MOL0     H78120   3.205  11.491   6.541  3.1101  2.4668  2.7197
  579MOL0     H78121   3.209  11.527   6.786 -1.8371  0.0980  2.1566
  579MOL0     H78122   3.201  11.351   6.811 -3.5259 -1.1790  0.1838
  579MOL0     H78123   2.971  11.410   6.861  1.8176  2.6841  1.4610
  579MOL0     H78124   2.973  11.350   6.693  0.1180  0.4224 -1.2025
  579MOL0     H78125   2.841  11.758   6.584 -2.4543  0.9415 -0.3862
  579MOL0     H78126   2.531  11.896   6.582  0.3325  1.4419 -0.5052
  579MOL0     H78127   2.691  11.901   6.502 -0.6742  0.7377  1.7175
  579MOL0     H78128   2.560  11.809   6.435  1.3328  1.6112 -1.5521
  579MOL0     H78129   2.222  11.453   6.481 -1.1507 -0.9886  0.1081
  579MOL0     H78130   1.972  11.435   6.462  1.9151 -1.1868  0.2693
  579MOL0     H78131   1.756  11.485   6.422  1.0877  2.1660 -1.5928
  579MOL0     H78132   1.758  11.506   6.596  0.4934 -1.6328 -1.6547
  579MOL0     H78133   1.539  11.674   6.547  2.3488 -0.6147  1.8657
  579MOL0     H78134   1.567  11.634   6.381 -1.3411  0.0583  0.0622
  579MOL0     H78135   1.530  11.420   6.585  1.0881  0.9708  0.3794
  579MOL0     H78136   1.493  11.404   6.405 -0.8983 -2.2959  1.9454
  579MOL0     H78137   1.345  11.601   6.576 -1.1850  2.4391 -3.5827
  579MOL0     H78138   1.300  11.535   6.425  1.3486 -1.1184 -0.5807
  579MOL0     H78139   1.307  11.387   6.690  0.3069  2.8093  0.4568
  579MOL0     H78140   1.295  11.314   6.523 -0.2769  0.7525 -2.3438
  579MOL0     H78141   1.080  11.517   6.556  1.0182 -0.1131 -0.9832
  579MOL0     H78142   1.083  11.347   6.500 -2.6482 -0.7530  1.4115
  579MOL0     H78143   1.073  11.413   6.801 -1.4281  0.7802 -0.0578
  579MOL0     H78144   1.112  11.254   6.729  0.4507  0.0418 -0.9330
  579MOL0     H78145   0.885  11.264   6.800  3.1046 -2.6829  0.4804
  579MOL0     H78146   0.896  11.240   6.620  1.9181  2.0699 -1.8813
  579MOL0     H78147   1.967  11.863   6.501 -1.1399 -0.3770 -1.4655
  579MOL0     H78148   2.205  11.872   6.512 -0.9794  0.1440  0.6126
  579MOL0     H78149   2.526  11.437   6.774 -3.0707  2.2707  0.4770
  579MOL0     H78150   2.768  11.389   6.795  1.6367  0.1495  0.7480
  579MOL0     H78151   4.411  10.397   6.125  0.7467 -1.3628  0.3672
  579MOL0     H78152   4.615  10.268   6.125 -2.6891  0.4368 -0.7994
  579MOL0     H78153   5.220  10.377   6.186 -1.3599  0.1515  0.9344
  579MOL0     H78154   5.379  10.219   6.106  0.6958  0.4320 -0.6800
  579MOL0     H78155   5.499   9.939   5.891 -2.1042 -1.9934  0.5656
  579MOL0     H78156   5.494  10.105   5.949 -0.7098  0.3955  0.6487
  579MOL0     H78157   5.418  10.008   6.175 -1.3368 -0.9408 -0.6034
  579MOL0     H78158   5.585   9.987   6.107 -1.2554  2.2386  0.0980
  579MOL0     H78159   5.505   9.751   6.027  0.5854 -0.1997 -0.3520
  579MOL0     H78160   5.358   9.768   6.121 -0.6452  0.1452  2.6264
  579MOL0     H78161   5.639   9.802   6.244  1.2701 -0.5076 -1.0098
  579MOL0     H78162   5.534   9.649   6.243 -1.8706  0.2689  2.4272
  579MOL0     H78163   5.322   9.908   6.496  0.9393 -1.2690  1.8689
  579MOL0     H78164   5.060   9.959   5.989  3.8378  0.0656 -2.3677
  579MOL0     H78165   4.899  10.111   6.100  0.6999 -0.5508 -0.4348
  580MOL0     O78166   4.656   0.676   2.511 -0.2747 -0.3394 -0.6645
  580MOL0     C78167   4.609   0.664   2.396 -1.0061  0.3821  0.0316
  580MOL0     O78168   4.475   0.635   2.368 -0.4696  0.2630 -0.2023
  580MOL0     C78169   4.385   0.627   2.470 -0.7965  0.6093  0.0971
  580MOL0     C78170   4.386   0.704   2.586 -0.5060  0.5376 -0.1377
  580MOL0     C78171   4.287   0.694   2.684 -0.2106 -0.0624  0.4871
  580MOL0     C78172   4.175   0.614   2.660 -0.8168  0.0296  0.5173
  580MOL0     O78173   4.072   0.587   2.745  0.8491 -0.7343 -0.1571
  580MOL0     C78174   4.105   0.612   2.886  0.3584 -0.5001 -0.1815
  580MOL0     C78175   3.979   0.593   2.978 -0.6359  0.3655  0.4714
  580MOL0     C78176   3.923   0.443   2.953 -0.7708 -0.1686  0.2475
  580MOL0     C78177   3.951   0.353   3.075 -0.5306  0.6756  0.2714
  580MOL0     C78178   3.859   0.377   3.191 -0.4677  1.0607 -0.4838
  580MOL0     C78179   3.894   0.308   3.331  0.3516 -0.7745  0.1405
  580MOL0     C78180   3.780   0.347   3.433  0.1595  0.9925  0.1050
  580MOL0     C78181   3.639   0.293   3.393  0.2614  1.0680  0.5957
  580MOL0     N78182   3.633   0.144   3.366  0.5763  0.4147 -0.2116
  580MOL0     C78183   3.598   0.054   3.467 -0.0154  0.2926  0.7265
  580MOL0     C78184   3.562  -0.064   3.403 -0.2172 -0.4811  0.1539
  580MOL0     C78185   3.497  -0.176   3.473 -0.3318  0.1232  0.2945
  580MOL0     C78186   3.353  -0.177   3.455  0.6371  0.1290 -0.3386
  580MOL0     C78187   3.295  -0.315   3.456  1.1194  0.6295 -0.2588
  580MOL0     C78188   3.142  -0.312   3.439 -0.7805  0.2312  0.4422
  580MOL0     O78189   3.075  -0.437   3.448 -0.2131 -0.2639 -0.0701
  580MOL0     C78190   2.947  -0.445   3.426  0.0067 -0.5774  0.4481
  580MOL0     C78191   2.885  -0.558   3.462  0.0799 -0.8334  1.1208
  580MOL0     C78192   2.751  -0.588   3.432 -0.6986  0.4740 -0.0195
  580MOL0     C78193   2.700  -0.726   3.475 -0.3210  0.5838 -0.4143
  580MOL0     C78194   2.679  -0.488   3.368  0.1514 -0.1099 -0.2310
  580MOL0     C78195   2.540  -0.501   3.316  0.6036  0.7338  0.0033
  580MOL0     O78196   2.491  -0.626   3.320  0.1056  0.4153  0.2503
  580MOL0     C78197   2.367  -0.650   3.266  0.1945 -0.5884 -0.7219
  580MOL0     C78198   2.235  -0.605   3.317 -0.3265 -0.5988 -0.1324
  580MOL0     C78199   2.122  -0.617   3.241  0.0244 -0.1040  0.7945
  580MOL0     C78200   2.123  -0.672   3.108 -0.7294 -0.7127  0.4871
  580MOL0     O78201   2.009  -0.661   3.031  0.0825 -0.2327 -0.0073
  580MOL0     C78202   2.013  -0.722   2.902 -0.3526  0.2380  0.2479
  580MOL0     C78203   1.875  -0.741   2.842 -0.0527 -0.2709  1.2319
  580MOL0     C78204   1.821  -0.604   2.792 -0.6992  0.6903 -0.1929
  580MOL0     C78205   1.684  -0.627   2.723 -0.6924 -0.4317 -0.4068
  580MOL0     C78206   1.627  -0.491   2.675 -0.7247 -0.1405 -0.2088
  580MOL0     C78207   1.505  -0.519   2.592  0.3683 -0.0159  0.2585
  580MOL0     C78208   1.538  -0.594   2.452 -0.1047 -0.9964 -0.0859
  580MOL0     C78209   1.422  -0.569   2.359 -0.1782 -0.0339 -0.2335
  580MOL0    Cl78210   1.463  -0.669   2.214  0.6087 -0.3027 -0.1690
  580MOL0     C78211   2.249  -0.714   3.057 -0.7957  0.3151  0.1095
  580MOL0     C78212   2.363  -0.703   3.137 -0.2259  0.1876 -0.1081
  580MOL0     O78213   2.475  -0.408   3.267 -0.7170  0.3260  0.9344
  580MOL0     C78214   2.744  -0.368   3.327 -0.1945 -0.3318  0.1439
  580MOL0     C78215   2.876  -0.353   3.354  0.5572  0.7069  0.3500
  580MOL0     N78216   3.580  -0.041   3.264 -0.7385 -0.4229  0.4990
  580MOL0     N78217   3.632   0.076   3.249  0.2466  0.6844 -0.7181
  580MOL0     C78218   4.165   0.546   2.543  0.7447  0.2109  0.7896
  580MOL0     C78219   4.263   0.559   2.445 -0.1967 -0.1628 -0.1056
  580MOL0     C78220   4.697   0.651   2.281  0.0501  0.3037 -0.5166
  580MOL0     C78221   4.835   0.643   2.292  0.2789  0.4065  0.9874
  580MOL0     C78222   4.918   0.645   2.184  0.1700  0.4925  0.1177
  580MOL0     C78223   4.869   0.630   2.052  0.1361 -0.0974 -0.6640
  580MOL0     O78224   4.943   0.628   1.933  0.3527 -0.5169  0.2462
  580MOL0     C78225   5.084   0.580   1.934 -0.0169  0.2176  1.1509
  580MOL0     C78226   5.129   0.543   1.794 -0.1806 -0.3892 -1.4943
  580MOL0     C78227   5.016   0.503   1.705  0.6009 -0.3783  0.4745
  580MOL0     C78228   4.938   0.378   1.753  0.2194  0.2947 -0.4682
  580MOL0     C78229   4.856   0.325   1.644 -0.9478 -0.1352  0.0863
  580MOL0     C78230   4.795   0.278   1.548  1.1740 -0.6052 -0.2276
  580MOL0     C78231   4.728   0.625   2.029 -0.3097 -0.1545 -0.5103
  580MOL0     C78232   4.645   0.638   2.149 -0.1537 -0.3368 -0.1734
  580MOL0     H78233   4.468   0.773   2.598  1.0091 -1.1882 -0.1535
  580MOL0     H78234   4.305   0.752   2.774 -0.2778  0.2770  0.2806
  580MOL0     H78235   4.185   0.543   2.915  2.8509  2.5818  0.9307
  580MOL0     H78236   4.156   0.706   2.909  2.6025 -1.8706  0.7624
  580MOL0     H78237   4.015   0.604   3.081  1.5977 -1.2566 -0.0741
  580MOL0     H78238   3.906   0.671   2.953  0.1923  0.9503 -0.1511
  580MOL0     H78239   3.817   0.440   2.926 -0.8392  0.4679  0.4333
  580MOL0     H78240   3.974   0.404   2.864 -0.7126  3.0375 -1.2838
  580MOL0     H78241   3.938   0.247   3.050 -2.2020  0.6669  1.0276
  580MOL0     H78242   4.053   0.361   3.112 -1.2873 -1.3310  3.2348
  580MOL0     H78243   3.852   0.485   3.204  1.6319  1.4221 -1.7393
  580MOL0     H78244   3.763   0.339   3.157  0.9248 -1.4857 -1.8910
  580MOL0     H78245   3.896   0.199   3.323  0.0338 -1.0347  2.6459
  580MOL0     H78246   3.996   0.338   3.358  0.0335  2.5771 -1.9128
  580MOL0     H78247   3.811   0.317   3.533  1.2006  3.0683  0.4456
  580MOL0     H78248   3.771   0.456   3.436  0.1731  1.2243 -3.4098
  580MOL0     H78249   3.601   0.346   3.305  2.3395  4.5645  1.6086
  580MOL0     H78250   3.574   0.310   3.479  0.3584 -2.1779  1.4611
  580MOL0     H78251   3.589   0.083   3.571 -4.8836  1.7432  0.1265
  580MOL0     H78252   3.545  -0.265   3.430  2.6025  1.7518 -0.0675
  580MOL0     H78253   3.519  -0.174   3.580 -3.4472  1.5777  1.0186
  580MOL0     H78254   3.329  -0.142   3.354  0.7905 -0.0773 -0.4483
  580MOL0     H78255   3.318  -0.113   3.536  1.1439  3.0138 -2.2493
  580MOL0     H78256   3.315  -0.369   3.548 -1.4515  0.3966  0.2307
  580MOL0     H78257   3.342  -0.366   3.371  2.6248  1.0936  0.2547
  580MOL0     H78258   3.110  -0.256   3.351 -1.1992 -0.4722  0.1427
  580MOL0     H78259   3.132  -0.260   3.534 -1.4733  0.5405  0.2025
  580MOL0     H78260   2.950  -0.631   3.509  4.0001  2.7998  1.9350
  580MOL0     H78261   2.596  -0.723   3.509  0.2811  1.8492  1.5248
  580MOL0     H78262   2.715  -0.804   3.400 -1.7763 -0.0671 -0.0520
  580MOL0     H78263   2.756  -0.759   3.563 -1.1927 -1.3739 -0.5594
  580MOL0     H78264   2.240  -0.550   3.411 -0.4055  0.3492 -0.6657
  580MOL0     H78265   2.032  -0.583   3.290  1.0298  0.8722  2.0205
  580MOL0     H78266   2.080  -0.659   2.842  0.0832  0.9487  1.4631
  580MOL0     H78267   2.063  -0.819   2.906  0.3220  0.5219 -0.7884
  580MOL0     H78268   1.880  -0.812   2.759  1.9781  0.1271  0.9575
  580MOL0     H78269   1.809  -0.773   2.923  2.4645 -0.4270  3.3464
  580MOL0     H78270   1.889  -0.555   2.721  0.6330 -1.8209 -0.7678
  580MOL0     H78271   1.809  -0.538   2.879 -2.1053 -1.0175  0.9649
  580MOL0     H78272   1.690  -0.702   2.643  0.8281  0.0200 -0.7650
  580MOL0     H78273   1.614  -0.655   2.802  0.5463 -1.3722  0.4084
  580MOL0     H78274   1.704  -0.439   2.618  1.1681 -1.6432  0.8411
  580MOL0     H78275   1.609  -0.433   2.766  0.6417 -1.4660  0.9770
  580MOL0     H78276   1.442  -0.591   2.645 -1.6822  1.9784  0.6774
  580MOL0     H78277   1.449  -0.427   2.577  0.8331 -0.0560 -2.0332
  580MOL0     H78278   1.540  -0.702   2.468  0.5396 -0.6181  3.0755
  580MOL0     H78279   1.628  -0.553   2.405  1.0843 -0.0738  2.7814
  580MOL0     H78280   1.417  -0.465   2.325  0.6101 -0.3942 -1.5277
  580MOL0     H78281   1.330  -0.590   2.414 -0.6728  1.2445 -0.5225
  580MOL0     H78282   2.263  -0.760   2.960  2.5077  0.0857  0.5704
  580MOL0     H78283   2.458  -0.740   3.098  0.6675  0.5077  1.6758
  580MOL0     H78284   2.690  -0.293   3.270 -0.8710 -0.0926  1.0768
  580MOL0     H78285   2.917  -0.256   3.327  2.0834  0.2351  0.9060
  580MOL0     H78286   4.077   0.485   2.528  2.4746 -2.5183  0.9295
  580MOL0     H78287   4.263   0.510   2.348  0.8690  0.0366 -0.2192
  580MOL0     H78288   4.875   0.652   2.393 -0.6038 -1.8279  1.5990
  580MOL0     H78289   5.026   0.658   2.183  0.6073 -1.6717 -4.2659
  580MOL0     H78290   5.149   0.663   1.961  4.3706 -1.3069 -3.1795
  580MOL0     H78291   5.104   0.501   2.007 -0.7125  0.5904  1.7546
  580MOL0     H78292   5.198   0.458   1.791  1.9628  1.1219  0.7511
  580MOL0     H78293   5.189   0.628   1.762  5.1190 -1.5012  3.7211
  580MOL0     H78294   5.055   0.492   1.604  0.3494  1.9313  0.0643
  580MOL0     H78295   4.944   0.585   1.698 -1.2760 -2.0343 -0.6846
  580MOL0     H78296   4.870   0.389   1.837 -1.8216 -1.1425 -1.8316
  580MOL0     H78297   5.015   0.302   1.770 -0.0980 -0.4699 -2.1902
  580MOL0     H78298   4.736   0.231   1.472 -0.7421 -0.2709  0.9751
  580MOL0     H78299   4.687   0.626   1.929  1.0689 -0.2236 -1.0984
  580MOL0     H78300   4.538   0.643   2.129 -0.4146 -1.4876  0.8313
  581MOL0     O78301   8.735   6.146   8.574  0.3058  0.0450  1.0628
  581MOL0     C78302   8.826   6.175   8.496  0.0497 -0.4334  1.0343
  581MOL0     O78303   8.806   6.211   8.362 -0.5436 -0.5573 -0.8331
  581MOL0     C78304   8.682   6.257   8.340  0.0148 -0.1533 -0.3001
  581MOL0     C78305   8.570   6.179   8.346  0.3457 -0.7755 -0.3760
  581MOL0     C78306   8.447   6.254   8.319 -0.4100 -0.1201 -0.4672
  581MOL0     C78307   8.441   6.389   8.289 -0.2287 -0.2956  0.2037
  581MOL0     O78308   8.334   6.466   8.260  0.1184 -0.1890  0.2918
  581MOL0     C78309   8.219   6.415   8.179  0.3556  0.0258  0.8515
  581MOL0     C78310   8.176   6.516   8.071 -0.5686 -0.0609 -0.1339
  581MOL0     C78311   8.283   6.554   7.972  0.0576  0.2054  0.1906
  581MOL0     C78312   8.368   6.670   8.024  0.0240  0.7332  0.1791
  581MOL0     C78313   8.492   6.682   7.933 -0.5333  0.2002 -0.1961
  581MOL0     C78314   8.585   6.803   7.986  0.4038  0.3470 -0.0090
  581MOL0     C78315   8.727   6.789   7.927  0.2403  0.4840  0.8226
  581MOL0     C78316   8.797   6.925   7.921 -0.4007 -0.0401  1.0594
  581MOL0     N78317   8.931   6.914   7.854 -0.3134 -0.0776 -0.2262
  581MOL0     C78318   9.036   6.851   7.911 -0.8782 -0.3699  0.8290
  581MOL0     C78319   9.136   6.852   7.819 -0.4218 -0.0977  1.3965
  581MOL0     C78320   9.272   6.791   7.842 -0.5916  1.0091 -0.0918
  581MOL0     C78321   9.385   6.888   7.870 -0.4061 -0.4642  0.8380
  581MOL0     C78322   9.414   6.975   7.738 -0.3505 -0.8625  0.3512
  581MOL0     C78323   9.531   6.919   7.655 -0.9758 -0.1810  0.3745
  581MOL0     O78324   9.535   6.985   7.530 -0.0854  0.1001 -0.2094
  581MOL0     C78325   9.645   6.940   7.463  0.5800  0.1349  0.2439
  581MOL0     C78326   9.639   6.839   7.369 -0.4927 -0.1420  0.1325
  581MOL0     C78327   9.763   6.790   7.305  0.8485 -0.3012 -0.7400
  581MOL0     C78328   9.737   6.694   7.183  0.4155  0.1593  0.0255
  581MOL0     C78329   9.886   6.850   7.343  0.2593  0.4729  0.2019
  581MOL0     C78330  10.011   6.812   7.274  0.5138  0.8952 -0.2013
  581MOL0     O78331  10.100   6.903   7.232 -0.0905 -0.7094  0.7056
  581MOL0     C78332  10.211   6.871   7.157  0.5255 -0.8924 -0.2901
  581MOL0     C78333  10.335   6.886   7.211 -0.0676  0.1496 -1.1624
  581MOL0     C78334  10.451   6.896   7.131  0.0797 -0.6367 -0.2726
  581MOL0     C78335  10.443   6.849   6.999 -0.0918  0.1895 -0.6189
  581MOL0     O78336  10.558   6.830   6.923 -0.3655 -0.0578  0.0580
  581MOL0     C78337  10.552   6.826   6.782 -0.7129  0.1720 -0.6920
  581MOL0     C78338  10.690   6.811   6.718 -0.6854  0.3743  0.1544
  581MOL0     C78339  10.790   6.929   6.748 -0.0504 -0.0776 -0.3587
  581MOL0     C78340  10.916   6.900   6.666 -0.6201  0.0949 -0.0323
  581MOL0     C78341  11.028   6.996   6.683 -0.3266  0.4456 -0.9178
  581MOL0     C78342  11.002   7.139   6.658  0.3238 -0.4257  0.4800
  581MOL0     C78343  11.138   7.205   6.676  1.3858 -0.4646  0.2554
  581MOL0     C78344  11.117   7.353   6.676 -0.1243 -0.7188 -0.6001
  581MOL0    Cl78345  11.282   7.425   6.714 -0.1537  0.3475 -0.1532
  581MOL0     C78346  10.310   6.815   6.946 -0.0386 -0.3853 -0.3959
  581MOL0     C78347  10.194   6.828   7.022 -0.0693 -0.5505 -0.4205
  581MOL0     O78348  10.026   6.692   7.266 -0.4018  0.3669 -0.1102
  581MOL0     C78349   9.886   6.951   7.443 -0.6305  0.4486 -0.3267
  581MOL0     C78350   9.767   6.998   7.489  0.6737 -0.7269 -0.8581
  581MOL0     N78351   9.088   6.924   7.702  0.1759  0.2752 -0.1910
  581MOL0     N78352   8.966   6.954   7.732  0.6938  0.4763  0.4335
  581MOL0     C78353   8.561   6.460   8.285  0.1324 -0.4384 -0.6146
  581MOL0     C78354   8.678   6.399   8.306 -0.5613  0.5469 -0.2389
  581MOL0     C78355   8.961   6.131   8.538  1.7504 -0.2058 -0.0126
  581MOL0     C78356   8.997   6.110   8.664  0.4124 -0.0770 -1.6178
  581MOL0     C78357   9.111   6.035   8.703 -0.4276 -0.4781  0.3909
  581MOL0     C78358   9.201   6.006   8.604  0.0696 -0.1267 -0.4580
  581MOL0     O78359   9.316   5.941   8.640  0.3140  0.3104  0.2706
  581MOL0     C78360   9.440   5.978   8.572 -1.0679 -0.3480  0.4954
  581MOL0     C78361   9.554   5.942   8.665 -0.2202  0.7972 -0.3780
  581MOL0     C78362   9.580   5.793   8.667 -0.0790  0.8293  0.5310
  581MOL0     C78363   9.716   5.753   8.605  0.7782  0.7158 -0.0441
  581MOL0     C78364   9.704   5.726   8.459 -0.1768 -0.1489 -0.1657
  581MOL0     C78365   9.686   5.710   8.337 -0.4259 -0.0632  0.7674
  581MOL0     C78366   9.182   6.054   8.467  0.6710  0.9630 -0.7040
  581MOL0     C78367   9.055   6.109   8.432 -0.7084  0.7720 -0.1456
  581MOL0     H78368   8.576   6.072   8.365 -1.4177 -0.5490  1.7586
  581MOL0     H78369   8.355   6.197   8.325 -2.7871  3.2604 -1.9512
  581MOL0     H78370   8.233   6.323   8.122 -0.1612  1.3768 -1.5620
  581MOL0     H78371   8.133   6.397   8.244 -0.5169  0.0766 -0.2776
  581MOL0     H78372   8.095   6.471   8.013  0.3367  0.8156 -2.1563
  581MOL0     H78373   8.132   6.605   8.119 -2.0207 -1.0997  0.5532
  581MOL0     H78374   8.347   6.474   7.931  1.2686  0.1974  2.0008
  581MOL0     H78375   8.232   6.596   7.884 -1.7719  1.7144  1.8858
  581MOL0     H78376   8.317   6.766   8.035 -0.0412  0.7850 -0.5664
  581MOL0     H78377   8.412   6.659   8.124  0.4366 -0.9309 -0.1510
  581MOL0     H78378   8.542   6.585   7.934  1.4406  1.0604 -3.1251
  581MOL0     H78379   8.474   6.699   7.826 -0.1936  1.5693 -0.0635
  581MOL0     H78380   8.536   6.898   7.960  1.8288  0.8713 -0.9113
  581MOL0     H78381   8.588   6.807   8.095  0.8469  0.9321 -0.0338
  581MOL0     H78382   8.779   6.714   7.988 -2.5802 -1.3651  1.1480
  581MOL0     H78383   8.726   6.750   7.824 -2.0471  0.3446  0.8544
  581MOL0     H78384   8.811   6.974   8.018 -1.9295  3.1545 -0.1915
  581MOL0     H78385   8.730   6.978   7.853  1.2888 -2.1391 -2.5047
  581MOL0     H78386   9.043   6.817   8.014  2.6572 -0.6415  0.6260
  581MOL0     H78387   9.264   6.721   7.926 -1.3952  0.0548 -0.9305
  581MOL0     H78388   9.301   6.721   7.763  2.3853  0.9091  0.9497
  581MOL0     H78389   9.474   6.830   7.898 -1.1842 -2.9175 -1.3148
  581MOL0     H78390   9.348   6.956   7.947 -0.8055  1.7670 -1.1816
  581MOL0     H78391   9.433   7.077   7.772 -1.0233 -1.1510  1.6751
  581MOL0     H78392   9.321   6.986   7.682  0.4973  1.8908 -0.6805
  581MOL0     H78393   9.530   6.812   7.631  1.8724 -0.2133  0.0053
  581MOL0     H78394   9.627   6.918   7.708 -0.7492 -2.3946  0.0405
  581MOL0     H78395   9.544   6.799   7.334 -0.9696 -0.5327  1.7972
  581MOL0     H78396   9.782   6.730   7.090 -1.4377 -1.0676 -1.3840
  581MOL0     H78397   9.784   6.598   7.205  3.5065  1.2379 -1.2323
  581MOL0     H78398   9.631   6.672   7.171  0.7224 -0.7173 -1.2563
  581MOL0     H78399  10.333   6.909   7.317 -2.0781  1.4522 -1.4409
  581MOL0     H78400  10.550   6.919   7.171 -0.2856  0.0300  0.2732
  581MOL0     H78401  10.487   6.743   6.753 -1.8488 -0.5260  3.1564
  581MOL0     H78402  10.510   6.917   6.740 -1.7711 -0.8057 -1.8366
  581MOL0     H78403  10.742   6.723   6.756  0.1686 -0.0830 -1.9007
  581MOL0     H78404  10.690   6.781   6.613  3.1855 -3.2426  0.9316
  581MOL0     H78405  10.811   6.937   6.855  1.1078  0.7089 -0.6341
  581MOL0     H78406  10.733   7.015   6.712  1.5203  0.9745 -0.4089
  581MOL0     H78407  10.948   6.801   6.698 -0.4167  0.4534  0.9293
  581MOL0     H78408  10.893   6.898   6.559  2.2741 -0.0832 -0.7203
  581MOL0     H78409  11.105   6.960   6.615 -0.2048 -0.7930 -0.1469
  581MOL0     H78410  11.061   6.974   6.785  1.8483 -2.7118 -2.1769
  581MOL0     H78411  10.977   7.154   6.552  1.9814 -2.2363 -0.2299
  581MOL0     H78412  10.926   7.180   6.725 -0.9167 -1.2023 -0.4007
  581MOL0     H78413  11.215   7.172   6.606  1.2886 -2.3482  0.9905
  581MOL0     H78414  11.188   7.170   6.767 -0.0162 -0.0477  1.2234
  581MOL0     H78415  11.039   7.387   6.745 -0.4810 -0.3567 -1.1759
  581MOL0     H78416  11.091   7.387   6.575  2.9793  0.6929 -1.0450
  581MOL0     H78417  10.304   6.783   6.843  0.4873 -0.9285 -0.2617
  581MOL0     H78418  10.094   6.805   6.986  0.4880 -1.5029 -1.4043
  581MOL0     H78419   9.977   7.001   7.475  0.1380 -0.5816 -0.8193
  581MOL0     H78420   9.765   7.089   7.547  2.9250 -0.4856 -1.0533
  581MOL0     H78421   8.560   6.567   8.266  2.5283 -0.6556 -2.3805
  581MOL0     H78422   8.780   6.436   8.312  0.7012 -2.7484  2.3702
  581MOL0     H78423   8.945   6.140   8.755 -0.0198  0.1403 -1.9348
  581MOL0     H78424   9.118   6.001   8.806 -0.1995 -1.0260  0.1932
  581MOL0     H78425   9.464   5.926   8.479 -0.7203  1.6018 -0.5555
  581MOL0     H78426   9.433   6.085   8.553 -3.1742 -0.6193 -0.5587
  581MOL0     H78427   9.518   5.980   8.761  0.5915  2.1096 -0.5591
  581MOL0     H78428   9.645   5.995   8.633 -0.8291  1.5358 -0.9383
  581MOL0     H78429   9.499   5.737   8.618  1.8275  0.1346 -2.0530
  581MOL0     H78430   9.584   5.768   8.774  0.5119 -0.2158  0.2890
  581MOL0     H78431   9.748   5.662   8.656 -0.7831  0.8188  1.1964
  581MOL0     H78432   9.791   5.829   8.630  0.9236  0.9035 -0.9918
  581MOL0     H78433   9.684   5.687   8.232  1.1706 -1.6474  1.0349
  581MOL0     H78434   9.252   6.034   8.386 -0.1908 -1.9328 -0.8424
  581MOL0     H78435   9.035   6.138   8.330 -1.9053  1.8412  0.3726
  582MOL0     O78436   1.889   0.372   9.702  0.2541  0.0077 -0.6881
  582MOL0     C78437   1.910   0.249   9.681  0.3692 -0.2684 -0.7451
  582MOL0     O78438   1.806   0.158   9.663  0.0276  0.0954  0.2150
  582MOL0     C78439   1.672   0.211   9.658 -0.2936 -0.3412  0.2278
  582MOL0     C78440   1.616   0.287   9.759 -0.5229 -0.2540  0.4656
  582MOL0     C78441   1.478   0.338   9.757  0.0077  0.4068  0.0113
  582MOL0     C78442   1.410   0.318   9.633 -0.1329  0.5218  0.2344
  582MOL0     O78443   1.273   0.358   9.614  0.0481 -0.4351 -0.5184
  582MOL0     C78444   1.191   0.358   9.732 -0.6400  0.2309 -0.9017
  582MOL0     C78445   1.049   0.383   9.702 -0.6764  0.2083  0.1755
  582MOL0     C78446   0.982   0.273   9.620  1.1865  0.2582  0.2221
  582MOL0     C78447   0.850   0.328   9.563 -0.7689  0.5097 -0.3610
  582MOL0     C78448   0.789   0.232   9.459 -0.4484 -0.5531  0.0102
  582MOL0     C78449   0.729   0.093   9.517  0.2225  0.3134  0.3133
  582MOL0     C78450   0.587   0.109   9.574 -0.3615  0.0229 -0.1397
  582MOL0     C78451   0.536  -0.023   9.629  0.0197 -0.2777  1.0009
  582MOL0     N78452   0.402  -0.027   9.695 -1.2362  0.3234 -0.1062
  582MOL0     C78453   0.282   0.006   9.655  0.2050  0.2734 -0.8720
  582MOL0     C78454   0.199  -0.015   9.762  0.2597  0.0807  0.5617
  582MOL0     C78455   0.058   0.028   9.769  1.4802  0.7114  0.1407
  582MOL0     C78456  -0.025  -0.089   9.840 -1.1558 -0.1002  0.1610
  582MOL0     C78457  -0.170  -0.047   9.877  0.0071  0.6137  0.9889
  582MOL0     C78458  -0.224  -0.178   9.929  0.1118 -0.3658 -0.0513
  582MOL0     O78459  -0.372  -0.188   9.925  0.3611 -0.1226  0.2814
  582MOL0     C78460  -0.444  -0.221   9.805 -0.8906  0.0606 -0.1313
  582MOL0     C78461  -0.580  -0.215   9.829 -0.3122  0.0972  0.3821
  582MOL0     C78462  -0.675  -0.249   9.725 -1.3145 -0.4090  0.6020
  582MOL0     C78463  -0.817  -0.235   9.765  0.1015  0.0502 -0.5940
  582MOL0     C78464  -0.627  -0.273   9.590 -0.4018  0.0107  0.5425
  582MOL0     C78465  -0.707  -0.297   9.473  0.7199 -0.0504 -0.5329
  582MOL0     O78466  -0.842  -0.274   9.501  0.0857 -0.2439  0.4213
  582MOL0     C78467  -0.942  -0.313   9.412  0.0891  0.1631 -0.5779
  582MOL0     C78468  -1.054  -0.235   9.395 -0.1845  0.4461 -0.3757
  582MOL0     C78469  -1.169  -0.285   9.321 -1.2906 -0.8551  0.1572
  582MOL0     C78470  -1.160  -0.410   9.259  0.0634  0.1738  0.0316
  582MOL0     O78471  -1.264  -0.449   9.179  0.1007 -0.2252  0.7545
  582MOL0     C78472  -1.394  -0.440   9.240 -0.0491  1.3413  0.4473
  582MOL0     C78473  -1.491  -0.360   9.159 -0.4566 -0.6595 -0.8000
  582MOL0     C78474  -1.640  -0.375   9.210 -0.9734 -1.3476  1.4150
  582MOL0     C78475  -1.655  -0.356   9.358  0.3255  0.0317  0.1144
  582MOL0     C78476  -1.798  -0.310   9.397 -0.1878  0.2362 -0.1474
  582MOL0     C78477  -1.795  -0.273   9.546  0.5916  0.3887  1.0091
  582MOL0     C78478  -1.917  -0.205   9.582  0.6330 -0.3664 -0.4950
  582MOL0     C78479  -1.920  -0.185   9.735 -0.3324  0.6963  0.3880
  582MOL0    Cl78480  -2.070  -0.095   9.782 -0.3787  0.0261 -0.3294
  582MOL0     C78481  -1.052  -0.489   9.278 -0.0469 -0.5584 -0.6915
  582MOL0     C78482  -0.943  -0.442   9.353 -1.0070  0.1495  0.0946
  582MOL0     O78483  -0.663  -0.347   9.368 -0.9962  0.4628 -0.0723
  582MOL0     C78484  -0.488  -0.276   9.584 -0.4327 -0.2747 -0.4448
  582MOL0     C78485  -0.398  -0.251   9.685  0.4362  0.2697 -0.4972
  582MOL0     N78486   0.281  -0.067   9.865 -0.6052  0.7580 -0.0134
  582MOL0     N78487   0.395  -0.079   9.823 -0.1966 -0.4227 -0.3485
  582MOL0     C78488   1.469   0.241   9.532 -0.8404 -0.3696  0.0926
  582MOL0     C78489   1.594   0.182   9.543  0.2824 -0.3576  0.7219
  582MOL0     C78490   2.052   0.208   9.667 -0.8390 -0.4604 -0.0612
  582MOL0     C78491   2.075   0.106   9.575  0.2266  0.4668  0.3481
  582MOL0     C78492   2.195   0.041   9.558  0.4474 -0.1043  0.6539
  582MOL0     C78493   2.307   0.088   9.625  0.4719 -0.2518 -0.1957
  582MOL0     O78494   2.421   0.011   9.628 -0.6314  0.4102  0.6743
  582MOL0     C78495   2.420  -0.098   9.717 -0.2770  0.2871 -0.5096
  582MOL0     C78496   2.491  -0.056   9.841 -0.6378 -0.6622  0.1941
  582MOL0     C78497   2.628   0.007   9.817 -0.8764  0.1639 -0.7602
  582MOL0     C78498   2.720  -0.016   9.933  0.1884 -0.2719 -0.3318
  582MOL0     C78499   2.853   0.039   9.907 -0.1992 -0.9039 -0.8254
  582MOL0     C78500   2.954   0.095   9.885  0.1650 -0.4854  0.1306
  582MOL0     C78501   2.284   0.192   9.720 -0.0275  0.3657 -0.2356
  582MOL0     C78502   2.159   0.252   9.747 -0.7856 -0.3715  0.1639
  582MOL0     H78503   1.676   0.303   9.848  1.8066  0.2781 -1.1207
  582MOL0     H78504   1.437   0.388   9.845 -0.8454  0.1282 -0.2162
  582MOL0     H78505   1.184   0.265   9.789 -1.3415  0.6591 -0.2737
  582MOL0     H78506   1.234   0.429   9.803  0.9874 -0.6619 -0.9520
  582MOL0     H78507   0.991   0.411   9.790 -0.6103  0.7814  0.0438
  582MOL0     H78508   1.047   0.472   9.638 -0.3976  0.3826  0.4108
  582MOL0     H78509   1.044   0.241   9.536 -0.1817 -1.1503 -0.3001
  582MOL0     H78510   0.958   0.183   9.678  0.0090 -0.0311 -0.6757
  582MOL0     H78511   0.784   0.339   9.651  2.8418 -1.1894  2.8618
  582MOL0     H78512   0.868   0.426   9.519  1.1155 -0.8537 -2.8742
  582MOL0     H78513   0.711   0.299   9.421  1.6212  3.2990  1.9237
  582MOL0     H78514   0.859   0.219   9.377  2.1251 -0.2708  2.0475
  582MOL0     H78515   0.718   0.031   9.428 -1.4697  2.1401 -0.8070
  582MOL0     H78516   0.798   0.048   9.589  1.9532  1.6128 -0.4529
  582MOL0     H78517   0.590   0.175   9.660  1.9768 -1.2147  0.8069
  582MOL0     H78518   0.522   0.145   9.493  1.5250  0.7498 -1.4110
  582MOL0     H78519   0.610  -0.058   9.702 -0.9258  0.5801  2.4159
  582MOL0     H78520   0.534  -0.096   9.548 -2.6957  0.9303 -0.1602
  582MOL0     H78521   0.250   0.058   9.565 -4.6525 -0.2466  0.2583
  582MOL0     H78522   0.060   0.120   9.829 -1.2396  1.7533 -1.2009
  582MOL0     H78523   0.018   0.045   9.669 -0.3301  1.4812  0.9440
  582MOL0     H78524   0.040  -0.113   9.924 -0.6627  1.9384  0.4146
  582MOL0     H78525  -0.025  -0.177   9.775 -0.7137  0.6045 -0.8357
  582MOL0     H78526  -0.229  -0.023   9.788  0.1266 -1.3682  0.3314
  582MOL0     H78527  -0.163   0.027   9.958  3.9764  2.1969 -0.5436
  582MOL0     H78528  -0.195  -0.188  10.034  0.8303  1.4548 -0.0536
  582MOL0     H78529  -0.176  -0.259   9.874 -2.0344 -0.9666 -1.1758
  582MOL0     H78530  -0.618  -0.191   9.928 -1.3253  2.6893 -0.5387
  582MOL0     H78531  -0.831  -0.231   9.874  3.0055 -0.7083 -0.0911
  582MOL0     H78532  -0.869  -0.151   9.719 -4.2066 -1.7848  0.4437
  582MOL0     H78533  -0.871  -0.327   9.740 -0.3619 -0.2796  1.4420
  582MOL0     H78534  -1.068  -0.148   9.460 -0.8495  0.8705 -1.0718
  582MOL0     H78535  -1.258  -0.223   9.314  0.0672  1.7179  3.2889
  582MOL0     H78536  -1.430  -0.543   9.247  2.6442  0.3905  1.7986
  582MOL0     H78537  -1.403  -0.408   9.344 -3.2081 -1.5292  1.2486
  582MOL0     H78538  -1.470  -0.253   9.163  0.5934 -0.8255 -1.3427
  582MOL0     H78539  -1.487  -0.384   9.052  0.1300 -0.5463 -0.8104
  582MOL0     H78540  -1.684  -0.471   9.182 -0.9564 -1.0906  0.4955
  582MOL0     H78541  -1.697  -0.298   9.158  1.5430  0.1751  0.7153
  582MOL0     H78542  -1.634  -0.447   9.416 -2.3887 -0.5492  0.3203
  582MOL0     H78543  -1.582  -0.279   9.384  2.9925 -2.1309 -0.4793
  582MOL0     H78544  -1.870  -0.390   9.377 -1.5664  1.9838 -2.5415
  582MOL0     H78545  -1.838  -0.226   9.341 -2.2707 -0.5375  0.1154
  582MOL0     H78546  -1.793  -0.369   9.599  1.2884 -0.9276 -1.2059
  582MOL0     H78547  -1.708  -0.213   9.573  1.7403 -2.5476  4.5551
  582MOL0     H78548  -2.000  -0.269   9.550  0.9300 -0.5850 -0.8294
  582MOL0     H78549  -1.910  -0.106   9.536  1.3922 -1.8942 -3.9084
  582MOL0     H78550  -1.835  -0.119   9.758 -1.4810  2.1521  0.6098
  582MOL0     H78551  -1.905  -0.280   9.786 -1.9196  1.2876  2.0752
  582MOL0     H78552  -1.065  -0.588   9.236  0.0707 -0.4374 -1.0177
  582MOL0     H78553  -0.858  -0.504   9.378 -0.4060  1.2934  0.9750
  582MOL0     H78554  -0.448  -0.310   9.489  2.0740  1.4960 -0.1205
  582MOL0     H78555  -0.292  -0.260   9.662  0.4367 -1.1604 -0.0227
  582MOL0     H78556   1.413   0.227   9.440 -0.9024 -0.4153  0.1370
  582MOL0     H78557   1.631   0.125   9.458 -1.6468 -2.0696  0.9531
  582MOL0     H78558   1.998   0.082   9.502  0.5789  1.0177 -0.2156
  582MOL0     H78559   2.213  -0.038   9.485 -1.6228  0.3910 -0.4788
  582MOL0     H78560   2.317  -0.128   9.738 -0.2817 -1.1223 -2.2326
  582MOL0     H78561   2.470  -0.181   9.665 -0.9484  0.0580 -0.8059
  582MOL0     H78562   2.501  -0.151   9.894 -1.4242 -2.9129 -3.3287
  582MOL0     H78563   2.434   0.019   9.896 -2.0663 -1.1133 -0.6348
  582MOL0     H78564   2.622   0.115   9.800  1.2848  0.2342 -1.3565
  582MOL0     H78565   2.671  -0.038   9.728  2.2856 -1.5500  1.4296
  582MOL0     H78566   2.737  -0.123   9.942  1.1753 -0.0910  0.1114
  582MOL0     H78567   2.680   0.022  10.027 -0.1193 -1.8774  0.2160
  582MOL0     H78568   3.042   0.151   9.859 -1.7314  1.5786 -2.4103
  582MOL0     H78569   2.377   0.218   9.770 -0.5629 -0.8783  1.5257
  582MOL0     H78570   2.135   0.331   9.817  0.0361 -0.7569  0.8935
  583MOL0     O78571  10.070  10.288   5.845 -0.2797 -0.9282  0.4176
  583MOL0     C78572  10.032  10.404   5.826 -0.3300 -0.3187  0.2708
  583MOL0     O78573  10.111  10.505   5.788 -0.5386 -0.2571  0.1350
  583MOL0     C78574  10.239  10.471   5.736 -0.1025 -0.2445  0.0016
  583MOL0     C78575  10.334  10.393   5.801  0.4265 -0.9961 -0.2352
  583MOL0     C78576  10.463  10.373   5.745  0.2048  0.0825  0.2431
  583MOL0     C78577  10.489  10.427   5.613 -0.0993 -0.3459  0.3757
  583MOL0     O78578  10.619  10.419   5.571  0.3847  0.6133  0.1174
  583MOL0     C78579  10.660  10.478   5.447 -0.5389 -0.7174 -0.3047
  583MOL0     C78580  10.806  10.453   5.418  0.2175  0.3851 -0.0090
  583MOL0     C78581  10.843  10.498   5.276  0.1102 -0.0753  0.3477
  583MOL0     C78582  10.992  10.546   5.270 -0.8191  0.6839 -0.1410
  583MOL0     C78583  11.078  10.497   5.153 -0.5776 -0.2536  0.3971
  583MOL0     C78584  11.046  10.540   5.006  0.5063 -0.4118 -0.6396
  583MOL0     C78585  10.907  10.484   4.962 -0.5156 -0.9131 -0.3181
  583MOL0     C78586  10.890  10.527   4.818  0.8961  0.1655  0.4515
  583MOL0     N78587  10.748  10.522   4.780 -0.1566  0.2454  0.6576
  583MOL0     C78588  10.684  10.422   4.705  0.1439 -0.7473  0.6681
  583MOL0     C78589  10.555  10.469   4.689 -0.7953 -0.3101  0.3338
  583MOL0     C78590  10.447  10.391   4.613 -0.6321 -0.2641  0.6437
  583MOL0     C78591  10.298  10.439   4.639  0.1260  0.7298 -0.6429
  583MOL0     C78592  10.252  10.559   4.558  0.0113  0.5282  0.1054
  583MOL0     C78593  10.125  10.631   4.594 -0.4595 -0.1180  0.5206
  583MOL0     O78594  10.008  10.552   4.566 -0.2706 -0.5116 -0.3765
  583MOL0     C78595   9.891  10.599   4.624 -0.0310  1.3204  0.0649
  583MOL0     C78596   9.778  10.509   4.634 -0.1867 -0.8161  0.8406
  583MOL0     C78597   9.662  10.553   4.695 -0.1955  0.3788 -0.0405
  583MOL0     C78598   9.545  10.451   4.683 -0.3181  0.1274 -0.4667
  583MOL0     C78599   9.650  10.679   4.758 -0.0884 -0.3692  1.1422
  583MOL0     C78600   9.516  10.731   4.809 -0.6490  0.6311 -0.3967
  583MOL0     O78601   9.531  10.842   4.879 -0.1987  0.4736 -0.6358
  583MOL0     C78602   9.414  10.911   4.908  0.2077 -0.3592  0.2350
  583MOL0     C78603   9.385  11.032   4.841  0.4817 -0.4689 -0.3693
  583MOL0     C78604   9.274  11.109   4.875 -0.7252 -0.1803 -0.1133
  583MOL0     C78605   9.183  11.065   4.967 -0.0335  0.2695 -0.4407
  583MOL0     O78606   9.072  11.143   4.988  0.3140  1.1259 -0.7689
  583MOL0     C78607   8.987  11.121   5.099 -0.9561  0.0257 -0.5087
  583MOL0     C78608   8.877  11.222   5.117  1.1641  0.6268 -0.3624
  583MOL0     C78609   8.777  11.200   5.219  0.1826  0.0677 -0.5584
  583MOL0     C78610   8.674  11.090   5.188  0.0107  0.1266 -0.7300
  583MOL0     C78611   8.575  11.069   5.301  0.5159  0.4112 -0.9841
  583MOL0     C78612   8.478  11.186   5.319 -0.1042 -0.9315  0.0554
  583MOL0     C78613   8.372  11.140   5.430  0.4936 -0.1490 -0.7476
  583MOL0     C78614   8.233  11.212   5.426  0.3681  0.5910 -0.9960
  583MOL0    Cl78615   8.132  11.157   5.296 -0.2113 -0.3655 -0.5819
  583MOL0     C78616   9.207  10.943   5.030 -0.0692 -0.4469  0.2898
  583MOL0     C78617   9.322  10.866   4.998 -0.1678 -0.3379  0.3590
  583MOL0     O78618   9.406  10.680   4.777 -0.0986 -0.3849 -0.6574
  583MOL0     C78619   9.761  10.765   4.747 -0.2028 -0.7161  0.0583
  583MOL0     C78620   9.878  10.728   4.678 -0.1095  0.6093 -0.1310
  583MOL0     N78621  10.552  10.595   4.757 -0.2033 -0.2731 -0.6276
  583MOL0     N78622  10.667  10.629   4.804 -0.0843 -0.6715  0.4704
  583MOL0     C78623  10.388  10.505   5.551 -0.0904  0.3034 -0.9979
  583MOL0     C78624  10.266  10.523   5.608 -0.3740  0.7175  0.1250
  583MOL0     C78625   9.889  10.429   5.851  1.0648  0.4969  0.0620
  583MOL0     C78626   9.803  10.321   5.860 -0.7340 -0.0660 -0.8035
  583MOL0     C78627   9.667  10.344   5.887  0.9567  0.4546  0.0282
  583MOL0     C78628   9.618  10.480   5.895  0.8057 -0.6479 -0.6521
  583MOL0     O78629   9.485  10.503   5.923  0.0232 -0.3582 -0.1968
  583MOL0     C78630   9.439  10.640   5.941 -0.1157 -0.3276  0.0949
  583MOL0     C78631   9.300  10.642   5.993 -0.2991 -1.3796 -0.1133
  583MOL0     C78632   9.288  10.784   6.062 -0.3639  0.3193  0.2795
  583MOL0     C78633   9.145  10.815   6.087  0.3532 -0.3076 -0.2277
  583MOL0     C78634   9.074  10.708   6.169  0.5062  0.0783  0.4439
  583MOL0     C78635   9.032  10.613   6.228  0.4069 -0.3689  0.5728
  583MOL0     C78636   9.712  10.592   5.878  0.8633 -0.2774 -0.0489
  583MOL0     C78637   9.844  10.562   5.856 -0.0966 -0.5484 -0.6272
  583MOL0     H78638  10.307  10.364   5.903 -2.7894  2.2584  0.0756
  583MOL0     H78639  10.540  10.314   5.793  0.1783  0.9734  1.4299
  583MOL0     H78640  10.604  10.437   5.362 -0.2418 -1.5179 -0.1187
  583MOL0     H78641  10.635  10.584   5.448 -0.5007 -0.6463 -2.4165
  583MOL0     H78642  10.862  10.510   5.493  1.7879  1.9619 -2.2398
  583MOL0     H78643  10.831  10.348   5.438  0.2463  0.6721  1.6097
  583MOL0     H78644  10.831  10.421   5.199 -1.2138 -0.5957  1.0500
  583MOL0     H78645  10.774  10.576   5.243  2.3756  1.1421 -1.9174
  583MOL0     H78646  10.985  10.655   5.271  0.1961  0.7461  0.3531
  583MOL0     H78647  11.044  10.520   5.362  1.4567  0.7676 -1.3427
  583MOL0     H78648  11.180  10.535   5.163 -0.8794  1.2091 -1.4929
  583MOL0     H78649  11.085  10.388   5.158 -1.0281 -0.3305 -0.5164
  583MOL0     H78650  11.067  10.647   4.999  2.0962 -0.5864  0.8325
  583MOL0     H78651  11.123  10.490   4.946 -0.7016 -0.7098 -1.9988
  583MOL0     H78652  10.896  10.375   4.960 -1.2995 -0.8599  0.3857
  583MOL0     H78653  10.827  10.524   5.025 -1.1885  0.2837 -1.8747
  583MOL0     H78654  10.961  10.466   4.761 -0.6568 -2.0447  0.7953
  583MOL0     H78655  10.912  10.634   4.807 -2.9115  1.0426  0.2392
  583MOL0     H78656  10.724  10.326   4.674  1.4956 -0.3472  1.0526
  583MOL0     H78657  10.473  10.401   4.507  5.2509 -0.1887  1.7767
  583MOL0     H78658  10.454  10.285   4.639  0.7558  0.0103  1.4389
  583MOL0     H78659  10.286  10.475   4.741  0.2742  1.4691 -0.8830
  583MOL0     H78660  10.233  10.351   4.637  0.1423  0.7124 -0.4531
  583MOL0     H78661  10.234  10.526   4.455  0.2698 -1.0784  0.5481
  583MOL0     H78662  10.334  10.632   4.555  1.9871 -1.5725  0.6008
  583MOL0     H78663  10.132  10.717   4.527 -4.0022 -2.2166 -3.0024
  583MOL0     H78664  10.117  10.657   4.699 -0.3322  1.8584  0.0750
  583MOL0     H78665   9.783  10.413   4.585 -2.2531 -0.3389 -0.4668
  583MOL0     H78666   9.490  10.434   4.776 -1.1212  1.0474 -0.7651
  583MOL0     H78667   9.466  10.483   4.615  0.0976  2.8377  0.2279
  583MOL0     H78668   9.581  10.353   4.650 -1.1872 -0.0236 -0.9864
  583MOL0     H78669   9.450  11.083   4.771 -1.4877 -0.9554 -2.6609
  583MOL0     H78670   9.256  11.207   4.829  1.9435 -0.2132 -1.3908
  583MOL0     H78671   8.944  11.022   5.081 -0.2648 -0.1730 -1.1043
  583MOL0     H78672   9.048  11.114   5.190 -0.1468 -1.2696 -1.1193
  583MOL0     H78673   8.924  11.320   5.131 -2.1624  2.3524 -0.2176
  583MOL0     H78674   8.833  11.226   5.017 -0.8698 -3.5803  0.1588
  583MOL0     H78675   8.722  11.294   5.210  0.1033  0.2961  1.7175
  583MOL0     H78676   8.810  11.204   5.323 -0.5901  2.0513 -0.3532
  583MOL0     H78677   8.627  11.117   5.093 -1.5803 -1.2006 -0.3562
  583MOL0     H78678   8.732  11.002   5.159  1.9421  1.4010 -0.9540
  583MOL0     H78679   8.630  11.056   5.394  0.6088 -1.4355 -1.2594
  583MOL0     H78680   8.517  10.978   5.283 -0.2863  0.7701 -0.2638
  583MOL0     H78681   8.535  11.268   5.364  0.4466 -1.3695  0.1768
  583MOL0     H78682   8.444  11.226   5.223  3.3339 -0.8330 -1.2872
  583MOL0     H78683   8.415  11.159   5.529  0.2394  0.4040 -0.7390
  583MOL0     H78684   8.350  11.033   5.424 -3.3276  0.0613  3.7730
  583MOL0     H78685   8.255  11.319   5.420  2.4459  0.2698 -0.2803
  583MOL0     H78686   8.180  11.185   5.517 -1.2803 -0.1401 -2.1367
  583MOL0     H78687   9.139  10.908   5.106  1.3367  0.5123  2.0568
  583MOL0     H78688   9.341  10.772   5.048 -1.1982  0.5062  2.4634
  583MOL0     H78689   9.753  10.860   4.799 -0.0218  0.4764 -2.0119
  583MOL0     H78690   9.956  10.803   4.670  1.7789 -1.3112 -0.8212
  583MOL0     H78691  10.411  10.567   5.465 -0.2385  0.1019 -1.1852
  583MOL0     H78692  10.193  10.586   5.559  3.1346  2.6521 -3.2164
  583MOL0     H78693   9.833  10.217   5.865  0.0904  0.2014  0.0547
  583MOL0     H78694   9.594  10.264   5.886  0.5084  0.8148 -2.2863
  583MOL0     H78695   9.496  10.688   6.021  1.0321 -0.2281 -0.7570
  583MOL0     H78696   9.463  10.691   5.847  1.7938  1.5698  1.5315
  583MOL0     H78697   9.272  10.565   6.065  0.3822  0.9141  2.7646
  583MOL0     H78698   9.232  10.638   5.907 -2.6316 -0.7937  1.5894
  583MOL0     H78699   9.320  10.864   5.994 -0.8689 -1.1218 -1.7562
  583MOL0     H78700   9.345  10.787   6.156 -1.4392 -2.5191  1.1229
  583MOL0     H78701   9.089  10.826   5.993 -1.8675  0.9892  1.1439
  583MOL0     H78702   9.137  10.911   6.140 -0.2990 -0.9908  0.9450
  583MOL0     H78703   8.988  10.530   6.280 -0.7684  0.1341  0.4138
  583MOL0     H78704   9.682  10.695   5.887 -0.5006 -0.6422 -0.1447
  583MOL0     H78705   9.900  10.650   5.828 -0.5217 -0.1384 -0.2087
  584MOL0     O78706   9.244   0.422   5.465  0.2782 -0.3567 -0.0496
  584MOL0     C78707   9.289   0.496   5.556  0.5425 -0.1180  0.5253
  584MOL0     O78708   9.235   0.624   5.588 -0.1670 -0.0676 -0.4978
  584MOL0     C78709   9.108   0.664   5.556 -0.5243  0.2226 -0.2039
  584MOL0     C78710   9.081   0.801   5.541  0.9356 -0.1516  0.0655
  584MOL0     C78711   8.954   0.848   5.499 -0.0518  1.0286  0.4936
  584MOL0     C78712   8.858   0.757   5.474  0.9653  0.4151  1.3119
  584MOL0     O78713   8.730   0.793   5.440 -0.2003 -0.7659 -0.0668
  584MOL0     C78714   8.700   0.784   5.299 -0.9657 -1.3812 -0.5006
  584MOL0     C78715   8.777   0.890   5.219  1.2342 -0.0964 -0.4803
  584MOL0     C78716   8.714   0.902   5.080 -0.0876  0.3221 -0.4984
  584MOL0     C78717   8.741   1.038   5.014  0.3555  0.0936 -0.4572
  584MOL0     C78718   8.891   1.029   4.976  0.4713 -0.2060 -1.1704
  584MOL0     C78719   8.940   1.158   4.898  0.0148  0.6490 -1.2093
  584MOL0     C78720   8.939   1.287   4.981 -0.7056  0.9352 -0.3641
  584MOL0     C78721   8.986   1.404   4.889 -0.4190 -1.7561 -0.2641
  584MOL0     N78722   9.122   1.399   4.850 -0.6044 -0.1201 -0.1148
  584MOL0     C78723   9.174   1.450   4.732 -0.3355  0.5343 -0.2054
  584MOL0     C78724   9.300   1.425   4.747  0.0356  0.0260  1.3439
  584MOL0     C78725   9.411   1.428   4.640  0.1217  0.5625 -0.3694
  584MOL0     C78726   9.530   1.512   4.691  0.0008 -0.5028 -0.4388
  584MOL0     C78727   9.660   1.509   4.609  0.0975 -0.2454  0.1681
  584MOL0     C78728   9.707   1.368   4.577  0.0575 -0.5248  1.0082
  584MOL0     O78729   9.847   1.376   4.549  0.2108  0.0653  0.7474
  584MOL0     C78730   9.942   1.367   4.655  0.5085 -0.3100 -0.7130
  584MOL0     C78731   9.905   1.370   4.793  0.3044  0.4495 -0.0418
  584MOL0     C78732   9.996   1.357   4.896 -0.8021 -0.0498  0.5605
  584MOL0     C78733   9.928   1.356   5.035 -0.5295  0.1864  0.3516
  584MOL0     C78734  10.134   1.344   4.863  0.3284 -0.2196 -0.6720
  584MOL0     C78735  10.250   1.308   4.965  0.6832 -0.1464  0.1260
  584MOL0     O78736  10.379   1.298   4.907 -0.1263 -0.3169 -0.1361
  584MOL0     C78737  10.481   1.242   4.990 -0.0548 -0.2777  0.4494
  584MOL0     C78738  10.464   1.120   5.062  0.1494 -0.2630  0.2104
  584MOL0     C78739  10.573   1.065   5.134 -0.1737  0.4348 -0.2468
  584MOL0     C78740  10.697   1.126   5.125 -0.0523  0.5568  0.2886
  584MOL0     O78741  10.799   1.075   5.201 -0.1897 -0.9088 -0.8165
  584MOL0     C78742  10.922   1.150   5.204 -0.1461 -0.7135  0.2796
  584MOL0     C78743  11.023   1.088   5.303 -0.0744  0.2161  0.6886
  584MOL0     C78744  11.158   1.138   5.307 -0.7395 -0.3603 -0.4731
  584MOL0     C78745  11.263   1.055   5.388 -0.4411 -0.0813 -0.3586
  584MOL0     C78746  11.409   1.109   5.345  0.1246  0.1586  0.0468
  584MOL0     C78747  11.509   1.012   5.412 -0.6290  0.2656  0.1240
  584MOL0     C78748  11.654   1.073   5.392 -0.8451 -0.0265  0.3764
  584MOL0     C78749  11.761   0.977   5.437  0.1853  0.1753 -0.2430
  584MOL0    Cl78750  11.782   0.959   5.610  0.3211  0.1518  0.0261
  584MOL0     C78751  10.709   1.246   5.052  0.9937  0.6577  0.5108
  584MOL0     C78752  10.603   1.309   4.991  0.5304  0.1296  0.1469
  584MOL0     O78753  10.217   1.299   5.082  0.0697 -0.3754 -0.1709
  584MOL0     C78754  10.169   1.347   4.725  0.1469 -0.7050  1.4788
  584MOL0     C78755  10.070   1.358   4.623  0.4125  0.3715  0.1648
  584MOL0     N78756   9.332   1.379   4.867  0.0365 -0.1207 -0.6220
  584MOL0     N78757   9.221   1.360   4.931 -0.1604  0.1602 -0.4637
  584MOL0     C78758   8.881   0.617   5.502  0.5948  0.8714  0.9650
  584MOL0     C78759   9.004   0.577   5.543  0.1007 -0.4094 -0.7410
  584MOL0     C78760   9.405   0.446   5.623  0.1481 -0.4480  0.3224
  584MOL0     C78761   9.470   0.335   5.577 -0.0056 -0.4063  0.2429
  584MOL0     C78762   9.556   0.269   5.667 -0.0733  0.3527 -0.2818
  584MOL0     C78763   9.605   0.328   5.787 -0.3951  0.2133 -0.0663
  584MOL0     O78764   9.696   0.271   5.871  0.2008  0.1199  0.0385
  584MOL0     C78765   9.784   0.170   5.832 -0.4058 -0.0088  0.2217
  584MOL0     C78766   9.879   0.193   5.709  0.8238 -0.3799  0.4082
  584MOL0     C78767   9.993   0.091   5.690 -0.4064 -0.4207 -0.6849
  584MOL0     C78768  10.105   0.115   5.786 -0.8329  0.8674  1.1118
  584MOL0     C78769  10.222   0.024   5.758 -0.1145 -0.5440  0.0420
  584MOL0     C78770  10.325  -0.042   5.746 -0.4332  0.2705 -0.9356
  584MOL0     C78771   9.537   0.437   5.832  0.0743 -0.3695  0.5622
  584MOL0     C78772   9.445   0.503   5.742  0.8401  0.4569 -0.2392
  584MOL0     H78773   9.166   0.868   5.544  2.5536 -2.0852  0.0298
  584MOL0     H78774   8.933   0.953   5.481 -1.1208  0.7553  0.0710
  584MOL0     H78775   8.714   0.686   5.252  0.7588 -1.1069 -0.6100
  584MOL0     H78776   8.593   0.806   5.288 -0.8492 -0.0133  0.7358
  584MOL0     H78777   8.786   0.986   5.271  3.4502 -0.1912 -0.5903
  584MOL0     H78778   8.880   0.854   5.211  1.4173 -0.0400  1.2135
  584MOL0     H78779   8.732   0.812   5.020 -1.5117 -0.5762  0.3543
  584MOL0     H78780   8.607   0.911   5.102  0.4163  0.0472  2.4088
  584MOL0     H78781   8.678   1.054   4.926 -0.0040 -0.7258 -0.3625
  584MOL0     H78782   8.699   1.109   5.086 -2.9845 -0.5429 -1.5935
  584MOL0     H78783   8.953   1.018   5.065 -1.0128 -2.3161 -0.3183
  584MOL0     H78784   8.905   0.947   4.905 -0.4939 -0.9460 -0.5205
  584MOL0     H78785   9.046   1.140   4.875  1.0371 -0.7778  3.4521
  584MOL0     H78786   8.880   1.165   4.807 -0.5339 -2.0760 -1.1525
  584MOL0     H78787   8.847   1.311   5.035  1.2450  2.9130  2.3142
  584MOL0     H78788   9.016   1.272   5.058 -1.1404 -2.5666 -0.4379
  584MOL0     H78789   8.980   1.502   4.937  2.4096 -1.6550  0.0397
  584MOL0     H78790   8.928   1.415   4.797  0.2427 -0.8212 -0.5890
  584MOL0     H78791   9.113   1.486   4.650 -1.2185  0.2485  0.3118
  584MOL0     H78792   9.433   1.327   4.606 -1.9456  0.3813 -1.3567
  584MOL0     H78793   9.368   1.471   4.549  0.6799  1.2154 -0.3297
  584MOL0     H78794   9.571   1.461   4.778  1.0146 -0.3716 -0.8330
  584MOL0     H78795   9.503   1.617   4.705 -0.3188 -0.6056 -0.2656
  584MOL0     H78796   9.744   1.562   4.655  0.7273 -0.4337 -0.7371
  584MOL0     H78797   9.655   1.557   4.511 -1.5535 -0.5479  0.0816
  584MOL0     H78798   9.665   1.336   4.481  0.4664 -1.8743  1.2636
  584MOL0     H78799   9.687   1.290   4.650 -0.6615  0.5211  1.9513
  584MOL0     H78800   9.797   1.381   4.806  0.3766  2.6109 -0.9046
  584MOL0     H78801   9.960   1.450   5.082 -0.3752  1.2090 -1.6729
  584MOL0     H78802   9.819   1.356   5.035 -0.5362  0.8612 -0.0866
  584MOL0     H78803   9.955   1.261   5.082  0.1571  0.4237  0.4493
  584MOL0     H78804  10.365   1.075   5.066  0.3031 -0.5469  0.8770
  584MOL0     H78805  10.557   0.980   5.200 -2.0454  0.8034 -0.1665
  584MOL0     H78806  10.963   1.139   5.103 -1.2093 -0.9106 -0.1414
  584MOL0     H78807  10.903   1.253   5.235  1.9240 -0.3671  0.5353
  584MOL0     H78808  10.985   1.094   5.405 -0.4464  0.8760  0.5181
  584MOL0     H78809  11.042   0.984   5.278  4.2469  1.3536 -1.7892
  584MOL0     H78810  11.152   1.240   5.348  0.8376  0.2306 -1.6162
  584MOL0     H78811  11.187   1.165   5.205 -0.4623 -2.1678 -0.8985
  584MOL0     H78812  11.255   1.075   5.495  0.5536  0.0668 -0.3036
  584MOL0     H78813  11.245   0.949   5.370 -1.7924 -0.2724  1.7934
  584MOL0     H78814  11.441   1.205   5.387  0.2876 -0.8660  2.4250
  584MOL0     H78815  11.428   1.120   5.237 -0.0839 -3.5054 -0.5010
  584MOL0     H78816  11.489   0.983   5.515  0.5527 -2.0200 -0.2333
  584MOL0     H78817  11.501   0.919   5.355 -2.5608 -0.1421  0.9849
  584MOL0     H78818  11.660   1.166   5.449  0.3284 -1.1543  2.1753
  584MOL0     H78819  11.663   1.090   5.285 -2.1947 -1.1559  0.0526
  584MOL0     H78820  11.855   1.028   5.414  1.2250  0.0807  3.3209
  584MOL0     H78821  11.738   0.876   5.400 -0.0489 -1.3982  3.7285
  584MOL0     H78822  10.804   1.296   5.035  0.7753  0.2433 -2.4877
  584MOL0     H78823  10.620   1.406   4.947 -1.2823  1.8915  3.0087
  584MOL0     H78824  10.273   1.342   4.694  0.1523 -0.6266  1.4821
  584MOL0     H78825  10.104   1.343   4.521  0.5304  0.3827  0.2028
  584MOL0     H78826   8.799   0.550   5.476  0.9404  1.8511 -3.2958
  584MOL0     H78827   9.018   0.472   5.563 -1.4130 -0.6978 -1.1115
  584MOL0     H78828   9.449   0.292   5.479 -0.7936 -0.5286  0.4630
  584MOL0     H78829   9.603   0.180   5.627  2.0994  0.1594  2.3903
  584MOL0     H78830   9.845   0.125   5.911  0.7716 -0.6787 -1.0231
  584MOL0     H78831   9.723   0.082   5.809 -0.6079  0.2173 -0.1059
  584MOL0     H78832   9.927   0.291   5.721  0.5405 -0.4816  2.9236
  584MOL0     H78833   9.818   0.191   5.618 -1.1852 -0.7561  1.7054
  584MOL0     H78834  10.022   0.109   5.586  0.9003  2.7446  0.1058
  584MOL0     H78835   9.944  -0.007   5.686 -2.6627  0.6733 -1.7052
  584MOL0     H78836  10.067   0.098   5.887  1.7114  0.8630  2.1347
  584MOL0     H78837  10.139   0.218   5.779 -0.2353  0.5665 -1.8011
  584MOL0     H78838  10.411  -0.105   5.741  0.4616  1.5309 -1.8784
  584MOL0     H78839   9.561   0.490   5.923  1.5919  0.4723 -0.2995
  584MOL0     H78840   9.391   0.585   5.789 -0.5026  0.5523 -1.8574
  585MOL0     O78841   0.041  10.043   6.743 -0.3715 -0.3751  0.0341
  585MOL0     C78842   0.114   9.968   6.813 -0.4128 -0.2586 -0.4643
  585MOL0     O78843   0.068   9.867   6.897 -0.2243 -0.2948 -0.3443
  585MOL0     C78844  -0.057   9.833   6.916 -0.4757 -0.8013  0.6665
  585MOL0     C78845  -0.151   9.819   6.806  0.6992 -0.3337 -0.2326
  585MOL0     C78846  -0.281   9.761   6.834 -0.1935 -0.3235  0.5237
  585MOL0     C78847  -0.320   9.729   6.962 -0.6794  0.3735  0.2291
  585MOL0     O78848  -0.438   9.660   6.993 -0.4508 -0.0622 -0.3432
  585MOL0     C78849  -0.545   9.697   6.912  0.5460 -0.4061  0.4914
  585MOL0     C78850  -0.681   9.671   6.982 -0.4561  1.2035 -0.2786
  585MOL0     C78851  -0.810   9.658   6.899  0.2542 -0.1867  0.9975
  585MOL0     C78852  -0.932   9.596   6.980  0.0613 -0.0941  0.0396
  585MOL0     C78853  -1.050   9.543   6.886 -0.1856 -0.1005  0.1253
  585MOL0     C78854  -1.172   9.576   6.970 -0.0965 -0.5268  0.6002
  585MOL0     C78855  -1.182   9.477   7.085 -0.4999 -0.3091 -0.0453
  585MOL0     C78856  -1.231   9.335   7.043  0.3117 -0.1919 -0.1118
  585MOL0     N78857  -1.381   9.336   7.042 -0.3665 -0.3065  0.0131
  585MOL0     C78858  -1.471   9.325   7.151 -0.2057  0.3539  0.2961
  585MOL0     C78859  -1.592   9.318   7.090 -0.2346  0.6977  0.0104
  585MOL0     C78860  -1.720   9.315   7.172 -0.3835  0.2989 -0.0770
  585MOL0     C78861  -1.759   9.455   7.221  0.1290  0.3778  0.8558
  585MOL0     C78862  -1.789   9.538   7.097 -0.2432  0.1870 -0.1824
  585MOL0     C78863  -1.818   9.676   7.136 -0.0728  0.0612  0.4758
  585MOL0     O78864  -1.931   9.679   7.214 -0.5726 -0.2008  0.2021
  585MOL0     C78865  -2.055   9.676   7.164  0.3904  0.1556 -0.4760
  585MOL0     C78866  -2.104   9.695   7.038 -0.5071 -0.2485  0.7011
  585MOL0     C78867  -2.242   9.707   7.013  0.6323 -0.3715  0.4282
  585MOL0     C78868  -2.292   9.755   6.879  0.0618 -0.7322 -0.0158
  585MOL0     C78869  -2.336   9.681   7.122  0.0046  0.4306 -0.6253
  585MOL0     C78870  -2.485   9.687   7.122  0.6123 -0.9045  0.7975
  585MOL0     O78871  -2.549   9.694   7.247 -0.0388  0.7427  0.7867
  585MOL0     C78872  -2.679   9.710   7.251  0.2026  0.0164  0.1806
  585MOL0     C78873  -2.752   9.637   7.346  0.2686  0.6040 -0.0678
  585MOL0     C78874  -2.894   9.656   7.357 -0.1775  0.0293  0.2172
  585MOL0     C78875  -2.959   9.746   7.276  0.2548  0.3195 -0.3165
  585MOL0     O78876  -3.096   9.726   7.271 -0.6719  0.0913 -0.0961
  585MOL0     C78877  -3.169   9.849   7.267  0.3007  0.3459 -0.6097
  585MOL0     C78878  -3.315   9.819   7.312 -0.2075 -0.7735  0.3901
  585MOL0     C78879  -3.319   9.775   7.456  1.4241 -0.4388  0.3930
  585MOL0     C78880  -3.458   9.814   7.523 -0.6973  0.1689  0.3311
  585MOL0     C78881  -3.483   9.737   7.651  0.1218 -0.7310 -0.6897
  585MOL0     C78882  -3.609   9.768   7.731 -0.0168  0.3588 -0.0828
  585MOL0     C78883  -3.605   9.917   7.786 -0.2711 -0.5338  0.9401
  585MOL0     C78884  -3.700   9.937   7.912 -0.3141  0.0786 -1.2587
  585MOL0    Cl78885  -3.858   9.929   7.848 -0.1923 -0.2522  0.3115
  585MOL0     C78886  -2.891   9.812   7.173  0.2542  0.0807  0.1298
  585MOL0     C78887  -2.753   9.801   7.170 -0.5771 -0.1409 -0.6300
  585MOL0     O78888  -2.542   9.681   7.009  0.1354  0.0031  0.3386
  585MOL0     C78889  -2.281   9.650   7.241 -0.1497 -0.9828  0.2432
  585MOL0     C78890  -2.145   9.652   7.262  1.2428  0.5594  0.1229
  585MOL0     N78891  -1.576   9.331   6.951 -0.1458 -0.2631 -0.5469
  585MOL0     N78892  -1.448   9.345   6.932 -0.4192 -0.4882 -0.4164
  585MOL0     C78893  -0.229   9.737   7.060 -0.0557 -1.3345  0.0434
  585MOL0     C78894  -0.094   9.789   7.040  0.0821 -0.3511 -0.0176
  585MOL0     C78895   0.260  10.002   6.824 -0.0131  0.7231  0.5372
  585MOL0     C78896   0.323  10.096   6.742  0.1268  0.0405  0.3280
  585MOL0     C78897   0.463  10.119   6.753  0.7328 -0.5222  0.2273
  585MOL0     C78898   0.543  10.055   6.844  0.5295  0.3548 -0.3447
  585MOL0     O78899   0.669  10.089   6.875  0.1629 -0.0167  0.2062
  585MOL0     C78900   0.706  10.226   6.852  0.1542 -0.0440 -0.4752
  585MOL0     C78901   0.828  10.271   6.948  0.0057  0.7038  0.5029
  585MOL0     C78902   0.962  10.216   6.890 -0.1599 -0.2124 -0.4220
  585MOL0     C78903   1.087  10.269   6.950  0.2149 -1.4910 -0.1660
  585MOL0     C78904   1.121  10.412   6.914 -0.5027  0.5257  0.8074
  585MOL0     C78905   1.144  10.529   6.893 -0.5923 -0.6721  0.4315
  585MOL0     C78906   0.475   9.966   6.928 -0.4405  0.0975 -0.0901
  585MOL0     C78907   0.339   9.934   6.917  0.3461  0.2634  0.0341
  585MOL0     H78908  -0.125   9.846   6.704 -2.2004 -2.3578 -1.6372
  585MOL0     H78909  -0.354   9.731   6.759  1.2400 -3.8652  0.3488
  585MOL0     H78910  -0.542   9.803   6.884  1.0501 -0.5763 -0.1239
  585MOL0     H78911  -0.540   9.641   6.818  0.7790  2.5254 -1.3562
  585MOL0     H78912  -0.670   9.570   7.023 -2.1094  1.4599  0.9153
  585MOL0     H78913  -0.692   9.736   7.070  2.3489 -0.0824  1.1420
  585MOL0     H78914  -0.836   9.752   6.850  1.6351  1.1670  2.7177
  585MOL0     H78915  -0.790   9.584   6.821  1.8256  1.0261  0.1679
  585MOL0     H78916  -0.902   9.520   7.053 -1.1972 -0.0732  0.6094
  585MOL0     H78917  -0.968   9.682   7.038 -0.6644 -1.5112  1.8148
  585MOL0     H78918  -1.038   9.596   6.791  0.3517 -0.4023  0.0226
  585MOL0     H78919  -1.042   9.434   6.879 -1.8562 -0.3529  1.3691
  585MOL0     H78920  -1.172   9.682   6.998  3.5487 -0.5650  1.1204
  585MOL0     H78921  -1.256   9.574   6.900 -0.0162  0.8093  0.4404
  585MOL0     H78922  -1.086   9.470   7.139 -1.1614 -2.1532  0.9928
  585MOL0     H78923  -1.257   9.515   7.154 -0.1049  1.9075 -0.7683
  585MOL0     H78924  -1.205   9.263   7.122 -4.3827 -3.4195 -1.1259
  585MOL0     H78925  -1.192   9.298   6.948 -0.1661 -3.2479  0.7607
  585MOL0     H78926  -1.442   9.328   7.256  1.8182 -1.9221 -0.0899
  585MOL0     H78927  -1.800   9.265   7.117 -0.6718  2.0919 -1.3545
  585MOL0     H78928  -1.702   9.243   7.253  1.5142 -1.2360 -1.7481
  585MOL0     H78929  -1.670   9.492   7.273  1.3560 -0.2949 -0.6661
  585MOL0     H78930  -1.839   9.444   7.295 -1.1107  0.3572 -0.4522
  585MOL0     H78931  -1.878   9.499   7.046 -1.7280 -0.1690  2.5054
  585MOL0     H78932  -1.704   9.538   7.028 -0.5679 -0.1513 -0.5869
  585MOL0     H78933  -1.828   9.752   7.057  1.3146  1.2718  1.3942
  585MOL0     H78934  -1.729   9.703   7.194  2.5327 -3.1780 -1.6486
  585MOL0     H78935  -2.026   9.688   6.964 -0.6618 -2.3537  0.6930
  585MOL0     H78936  -2.342   9.674   6.827 -1.0624  0.3714 -0.7238
  585MOL0     H78937  -2.362   9.838   6.894 -1.0906 -1.4225 -1.3439
  585MOL0     H78938  -2.210   9.786   6.814  0.4251 -0.6825  0.4594
  585MOL0     H78939  -2.698   9.577   7.419  1.7668  1.3958 -0.4722
  585MOL0     H78940  -2.942   9.593   7.431 -0.4322  2.0084  1.8176
  585MOL0     H78941  -3.135   9.922   7.341  2.0595 -0.3828 -0.6487
  585MOL0     H78942  -3.162   9.898   7.169 -0.2391  0.1383 -0.7551
  585MOL0     H78943  -3.373   9.912   7.306 -0.3642 -0.8855  0.1186
  585MOL0     H78944  -3.368   9.746   7.250 -0.4427  0.9074 -1.5243
  585MOL0     H78945  -3.254   9.844   7.511  0.3513  0.7395  0.2188
  585MOL0     H78946  -3.293   9.671   7.479 -0.0019 -0.6548  1.1718
  585MOL0     H78947  -3.469   9.921   7.541  1.9249  0.4480  0.5151
  585MOL0     H78948  -3.537   9.780   7.455 -2.0434  0.5305  1.6473
  585MOL0     H78949  -3.395   9.761   7.712 -0.2041  1.8163 -1.1362
  585MOL0     H78950  -3.475   9.630   7.628 -1.1868 -1.4090  1.7086
  585MOL0     H78951  -3.694   9.749   7.665  0.1228 -0.6256 -0.0011
  585MOL0     H78952  -3.618   9.699   7.815 -0.2386  2.0221  1.2827
  585MOL0     H78953  -3.623   9.999   7.716  0.7040 -0.8427  0.3140
  585MOL0     H78954  -3.502   9.930   7.822  0.8260 -2.0209 -1.4404
  585MOL0     H78955  -3.682  10.034   7.961 -0.3029 -1.1492  1.3801
  585MOL0     H78956  -3.683   9.866   7.994  0.1568 -0.7972 -2.1029
  585MOL0     H78957  -2.943   9.860   7.091 -0.5494 -2.2738 -0.8217
  585MOL0     H78958  -2.707   9.871   7.100  1.4753 -1.1168 -0.3248
  585MOL0     H78959  -2.336   9.631   7.333  0.6268  1.0166  1.1666
  585MOL0     H78960  -2.099   9.628   7.357  0.7760 -0.4266  0.1120
  585MOL0     H78961  -0.264   9.695   7.153 -2.9155  0.9217  0.1436
  585MOL0     H78962  -0.027   9.785   7.126 -1.8610  0.4983  1.6275
  585MOL0     H78963   0.263  10.150   6.669  0.2785 -0.4097 -0.1363
  585MOL0     H78964   0.518  10.188   6.690  0.0516 -0.2866 -0.1248
  585MOL0     H78965   0.737  10.261   6.753 -0.7589  0.5033 -0.5756
  585MOL0     H78966   0.630  10.297   6.886  0.6278 -1.0451  3.0157
  585MOL0     H78967   0.810  10.229   7.047  0.3573 -1.0637 -0.1588
  585MOL0     H78968   0.821  10.380   6.960 -2.4734  0.7877 -0.9375
  585MOL0     H78969   0.978  10.227   6.782  0.9053  1.4952 -0.1363
  585MOL0     H78970   0.955  10.109   6.911  1.0118 -0.4360 -1.0830
  585MOL0     H78971   1.175  10.216   6.914  1.6814  1.6974 -1.6743
  585MOL0     H78972   1.078  10.270   7.059  0.8122  2.0834 -0.0171
  585MOL0     H78973   1.176  10.630   6.874  0.4663 -1.3479 -1.5595
  585MOL0     H78974   0.526   9.919   7.011 -1.8976  0.7729  1.2195
  585MOL0     H78975   0.296   9.859   6.981  1.3555  0.8239  1.4315
  586MOL0     O78976   3.023   9.694   7.818  0.4486 -0.1947 -0.1769
  586MOL0     C78977   3.005   9.732   7.929  0.4186 -0.2928  0.2917
  586MOL0     O78978   2.881   9.764   7.977  0.1484  0.1215 -0.4019
  586MOL0     C78979   2.769   9.735   7.908  0.0853 -0.2901 -0.3900
  586MOL0     C78980   2.667   9.842   7.891  0.0060 -0.5129  0.3625
  586MOL0     C78981   2.548   9.822   7.819 -0.4112 -0.0448 -0.9191
  586MOL0     C78982   2.524   9.698   7.758  0.4221 -0.5234 -0.9641
  586MOL0     O78983   2.421   9.701   7.675 -0.0032  0.0458 -0.0573
  586MOL0     C78984   2.355   9.577   7.632  0.1763 -0.0207  1.0033
  586MOL0     C78985   2.211   9.613   7.585 -0.4037 -0.8462 -0.3820
  586MOL0     C78986   2.144   9.487   7.549 -0.4009 -0.0404  0.1379
  586MOL0     C78987   1.990   9.507   7.563  0.7372  0.2441 -0.3717
  586MOL0     C78988   1.918   9.380   7.513  0.2171  0.0835 -0.1091
  586MOL0     C78989   1.766   9.372   7.537  0.2950  0.1271  0.4017
  586MOL0     C78990   1.687   9.502   7.517 -0.1706 -1.1696  0.3084
  586MOL0     C78991   1.700   9.536   7.364 -0.3535 -0.0410  0.1729
  586MOL0     N78992   1.615   9.452   7.276  1.0019 -0.2855 -0.3604
  586MOL0     C78993   1.478   9.470   7.263 -0.0845 -0.5375  0.3887
  586MOL0     C78994   1.440   9.363   7.185  0.7287 -0.0867  0.3745
  586MOL0     C78995   1.303   9.323   7.139 -0.8408  0.6294  0.8326
  586MOL0     C78996   1.298   9.196   7.048  0.6085  0.2229 -1.1914
  586MOL0     C78997   1.165   9.151   7.008  0.1928 -0.1922 -0.3940
  586MOL0     C78998   1.060   9.260   6.975 -1.8553  0.2845 -0.6900
  586MOL0     O78999   0.956   9.197   6.916  0.2690  0.5087  0.1846
  586MOL0     C79000   0.923   9.242   6.790 -0.4048  1.1507 -0.5762
  586MOL0     C79001   1.016   9.274   6.693  0.7444 -0.4501 -0.1085
  586MOL0     C79002   0.976   9.320   6.567 -0.2787  0.3748 -0.0878
  586MOL0     C79003   1.086   9.363   6.467  0.4857 -0.3308  0.6189
  586MOL0     C79004   0.835   9.337   6.539  0.4472  0.7845  0.4437
  586MOL0     C79005   0.791   9.391   6.408 -0.2112  0.0163 -0.3570
  586MOL0     O79006   0.799   9.527   6.388  1.0378  0.5553  0.1454
  586MOL0     C79007   0.719   9.583   6.282 -0.6135  0.2907 -1.0970
  586MOL0     C79008   0.787   9.677   6.209 -0.4871  1.0299  1.3236
  586MOL0     C79009   0.720   9.745   6.103  0.2802  0.4176 -0.4455
  586MOL0     C79010   0.584   9.708   6.072 -0.0636  0.2072  0.3075
  586MOL0     O79011   0.518   9.767   5.965  0.7831  0.3556  0.4143
  586MOL0     C79012   0.574   9.731   5.843 -0.2808 -0.1924  0.7242
  586MOL0     C79013   0.481   9.732   5.720 -0.6497 -0.2265 -0.5572
  586MOL0     C79014   0.363   9.639   5.757 -0.2145  0.0257  0.2447
  586MOL0     C79015   0.268   9.625   5.650 -0.3451 -0.4881 -0.7895
  586MOL0     C79016   0.149   9.539   5.684 -0.6008  0.5880  0.8779
  586MOL0     C79017   0.028   9.544   5.587  0.4273 -0.2039  0.4640
  586MOL0     C79018  -0.058   9.678   5.603  0.4038  0.2213 -0.1093
  586MOL0     C79019  -0.204   9.645   5.618 -0.4071  0.3514 -0.1350
  586MOL0    Cl79020  -0.291   9.799   5.587  0.0312 -0.0952  0.0984
  586MOL0     C79021   0.517   9.602   6.135 -0.1214 -0.6260 -0.6592
  586MOL0     C79022   0.586   9.544   6.244  0.8736  0.3712  1.1965
  586MOL0     O79023   0.748   9.314   6.326 -0.1355 -0.4464 -0.1989
  586MOL0     C79024   0.746   9.293   6.633  0.2906  0.5307 -0.4767
  586MOL0     C79025   0.786   9.247   6.758 -0.1900 -0.5106 -0.0259
  586MOL0     N79026   1.548   9.288   7.155  0.4213  0.1381  0.3424
  586MOL0     N79027   1.648   9.333   7.219 -0.3718 -0.0899 -0.2731
  586MOL0     C79028   2.613   9.591   7.778 -0.6592  0.4816  0.0238
  586MOL0     C79029   2.732   9.613   7.852  0.2041 -0.6224 -0.2556
  586MOL0     C79030   3.120   9.754   8.019 -0.5704 -0.0527 -0.2533
  586MOL0     C79031   3.226   9.670   8.016  0.4809  0.4707  0.4267
  586MOL0     C79032   3.333   9.690   8.107 -0.6136  1.0871 -0.2735
  586MOL0     C79033   3.344   9.806   8.192  0.5257 -0.3306 -0.4665
  586MOL0     O79034   3.452   9.841   8.277  0.5731 -0.8354 -0.5180
  586MOL0     C79035   3.572   9.755   8.275  0.5520 -0.0153  0.0112
  586MOL0     C79036   3.664   9.785   8.157 -0.2630 -0.8088  0.0294
  586MOL0     C79037   3.709   9.935   8.161 -0.6755  0.2559  0.0593
  586MOL0     C79038   3.849   9.957   8.105 -0.2016 -0.2092  0.0972
  586MOL0     C79039   3.875   9.902   7.970  0.3341  0.4574 -0.1641
  586MOL0     C79040   3.880   9.862   7.857  0.4468  0.0172 -0.0556
  586MOL0     C79041   3.238   9.897   8.189 -0.0200  0.8188  0.3161
  586MOL0     C79042   3.119   9.868   8.110 -0.6984  0.1379  0.1924
  586MOL0     H79043   2.697   9.940   7.926 -0.9640 -0.0514 -0.0715
  586MOL0     H79044   2.477   9.904   7.808 -1.1618 -0.6769 -0.8021
  586MOL0     H79045   2.419   9.531   7.556  2.2831  1.1781  1.9520
  586MOL0     H79046   2.332   9.511   7.716 -4.1059 -2.8426 -1.9529
  586MOL0     H79047   2.159   9.653   7.673 -0.3451 -2.4475  0.4295
  586MOL0     H79048   2.218   9.694   7.513 -0.5158  1.3395  1.9340
  586MOL0     H79049   2.175   9.469   7.445 -2.4157  1.0896 -0.7325
  586MOL0     H79050   2.180   9.407   7.613 -0.1086  1.0476  1.3668
  586MOL0     H79051   1.948   9.539   7.659 -0.8773  1.4521 -1.4268
  586MOL0     H79052   1.963   9.595   7.504 -0.6721  1.0600  1.4145
  586MOL0     H79053   1.940   9.365   7.407 -0.5777 -0.7112 -0.1742
  586MOL0     H79054   1.961   9.298   7.571 -2.0066 -3.0626 -2.5568
  586MOL0     H79055   1.718   9.294   7.479  1.5938 -0.4654  0.0737
  586MOL0     H79056   1.763   9.330   7.638  0.5375  0.3029  0.4847
  586MOL0     H79057   1.578   9.489   7.523  0.0942 -3.6271  0.7823
  586MOL0     H79058   1.717   9.581   7.585 -1.1158 -0.6683  0.1606
  586MOL0     H79059   1.803   9.522   7.333 -0.2533  2.6938 -0.9941
  586MOL0     H79060   1.675   9.642   7.349 -0.0418 -0.3539 -3.2963
  586MOL0     H79061   1.413   9.550   7.299 -1.9366 -0.4604 -2.7629
  586MOL0     H79062   1.249   9.312   7.234 -2.0870  1.8887  0.3099
  586MOL0     H79063   1.262   9.411   7.088  0.2424  1.5162  1.4547
  586MOL0     H79064   1.356   9.111   7.084 -1.2969 -0.1325  1.3110
  586MOL0     H79065   1.341   9.223   6.951  2.5788 -0.7767 -0.6557
  586MOL0     H79066   1.127   9.098   7.096  0.7258  0.6193  0.3350
  586MOL0     H79067   1.168   9.083   6.922  1.2299  1.0892 -1.4189
  586MOL0     H79068   1.105   9.332   6.906  1.4311 -2.7185 -1.9713
  586MOL0     H79069   1.029   9.323   7.059  0.2469  0.6784 -0.1397
  586MOL0     H79070   1.123   9.270   6.711  1.1886 -0.5451 -2.4454
  586MOL0     H79071   1.188   9.346   6.503  1.0889  1.6575 -0.0286
  586MOL0     H79072   1.071   9.306   6.375 -2.5979 -0.7148  1.2605
  586MOL0     H79073   1.082   9.470   6.444 -0.8519 -0.4291  0.3391
  586MOL0     H79074   0.882   9.722   6.234 -0.2331  0.1945  1.9203
  586MOL0     H79075   0.769   9.830   6.057  0.2518  0.9649  0.5161
  586MOL0     H79076   0.643   9.816   5.835 -1.4679  0.7705  0.5081
  586MOL0     H79077   0.624   9.634   5.849  1.9006  0.8735  0.8788
  586MOL0     H79078   0.442   9.832   5.701 -2.4638 -0.9633 -0.9135
  586MOL0     H79079   0.538   9.704   5.630 -0.9105 -3.2383  0.1108
  586MOL0     H79080   0.311   9.682   5.844 -2.0025  1.0758 -1.2602
  586MOL0     H79081   0.404   9.540   5.777  0.2514  0.2377  0.3684
  586MOL0     H79082   0.225   9.719   5.613  1.4775 -0.6465 -3.5312
  586MOL0     H79083   0.314   9.587   5.559  0.0923 -0.4725 -0.5742
  586MOL0     H79084   0.108   9.570   5.780 -3.2973  1.5901 -0.4997
  586MOL0     H79085   0.184   9.435   5.692  0.9528  0.9978 -0.1512
  586MOL0     H79086   0.062   9.541   5.483 -0.4169  0.6936  0.1436
  586MOL0     H79087  -0.039   9.463   5.617  1.3149 -0.2914  2.3488
  586MOL0     H79088  -0.043   9.736   5.511  0.8691  0.5866  0.1930
  586MOL0     H79089  -0.024   9.736   5.689  0.2804  3.0286 -1.8350
  586MOL0     H79090  -0.214   9.602   5.718 -0.2209 -0.1507 -0.3272
  586MOL0     H79091  -0.239   9.574   5.542 -3.2654  1.4271  0.0375
  586MOL0     H79092   0.417   9.571   6.106 -0.5696 -1.1002  1.2629
  586MOL0     H79093   0.533   9.462   6.291 -2.0141  0.3808 -1.7722
  586MOL0     H79094   0.643   9.302   6.599  0.8033 -2.1683 -3.2173
  586MOL0     H79095   0.713   9.222   6.834 -0.2353 -1.7043 -0.4496
  586MOL0     H79096   2.600   9.487   7.748 -1.8976  0.4333  0.6592
  586MOL0     H79097   2.800   9.533   7.877 -2.2595 -2.3082  1.6318
  586MOL0     H79098   3.236   9.590   7.943  0.6776  0.8063  0.0808
  586MOL0     H79099   3.406   9.609   8.102 -2.1687 -0.5107  1.4650
  586MOL0     H79100   3.622   9.760   8.372 -1.0028 -0.9447  0.9036
  586MOL0     H79101   3.539   9.651   8.267  0.0541  0.2436 -1.8562
  586MOL0     H79102   3.615   9.755   8.064 -1.3407 -2.7914  1.1554
  586MOL0     H79103   3.747   9.714   8.156  0.5296  0.0115 -3.3803
  586MOL0     H79104   3.707   9.976   8.263 -0.9059  3.4256 -1.0996
  586MOL0     H79105   3.637   9.983   8.094 -1.5337  0.2512  0.9600
  586MOL0     H79106   3.915   9.908   8.178  1.8457  2.3619  0.0788
  586MOL0     H79107   3.869  10.064   8.105  0.4562 -0.2838  1.9434
  586MOL0     H79108   3.898   9.819   7.760  1.1884 -0.6361  0.3547
  586MOL0     H79109   3.235   9.983   8.256  0.0766 -1.0243  2.8319
  586MOL0     H79110   3.033   9.934   8.109 -0.8119  0.0198  1.1217
  587MOL0     O79111  11.079   6.163   7.344  0.3515 -0.3440  0.2146
  587MOL0     C79112  11.175   6.093   7.333  1.5297  0.2008  0.0748
  587MOL0     O79113  11.172   5.961   7.354 -0.4453  0.3724  0.3085
  587MOL0     C79114  11.060   5.891   7.383 -0.3592 -0.0343 -0.0661
  587MOL0     C79115  11.032   5.779   7.304 -0.7164 -0.7173 -0.9064
  587MOL0     C79116  10.918   5.704   7.326 -0.1524 -0.2825 -0.3585
  587MOL0     C79117  10.826   5.741   7.428 -0.6153 -0.1402  0.9492
  587MOL0     O79118  10.709   5.674   7.447  0.1299 -0.4491  0.0825
  587MOL0     C79119  10.710   5.614   7.580 -0.4271 -1.1450  0.4058
  587MOL0     C79120  10.634   5.481   7.561  0.0811 -0.5517  0.5448
  587MOL0     C79121  10.725   5.391   7.479  0.3605  0.3953  0.6856
  587MOL0     C79122  10.651   5.253   7.453  0.0836 -0.0832  0.0187
  587MOL0     C79123  10.734   5.167   7.354  0.0894  0.6214 -0.4058
  587MOL0     C79124  10.742   5.226   7.205  0.2117  0.7863  0.4619
  587MOL0     C79125  10.607   5.259   7.129 -0.7881  0.2031  0.4353
  587MOL0     C79126  10.500   5.149   7.142  1.0774 -0.3932 -0.5106
  587MOL0     N79127  10.550   5.012   7.120  0.7215 -0.0133  0.2137
  587MOL0     C79128  10.489   4.908   7.176 -0.3610  0.1445  0.0330
  587MOL0     C79129  10.554   4.798   7.132 -0.3411 -0.1042 -0.4742
  587MOL0     C79130  10.540   4.654   7.170 -0.9464 -0.3333 -0.4615
  587MOL0     C79131  10.491   4.566   7.049  1.2732  1.1425  0.2607
  587MOL0     C79132  10.402   4.432   7.084 -0.1870 -0.7536 -0.2772
  587MOL0     C79133  10.354   4.373   6.951  0.3005  0.0051  0.4370
  587MOL0     O79134  10.241   4.452   6.900 -1.2952  0.6985 -0.1132
  587MOL0     C79135  10.166   4.392   6.799  0.0597  0.5539 -0.0340
  587MOL0     C79136  10.057   4.470   6.752 -0.1121 -0.0272  1.0558
  587MOL0     C79137   9.966   4.416   6.650  0.3571  0.2363 -0.3020
  587MOL0     C79138   9.856   4.516   6.607  0.0799  0.4794 -0.3657
  587MOL0     C79139   9.987   4.288   6.607  0.2772  0.0801 -0.4569
  587MOL0     C79140   9.913   4.241   6.492  0.0905  0.6042  0.1379
  587MOL0     O79141   9.983   4.176   6.398 -0.1869 -0.4911 -0.3331
  587MOL0     C79142   9.930   4.150   6.275  0.0170  0.4654  0.5568
  587MOL0     C79143   9.907   4.250   6.185 -0.3255  0.7428 -0.9057
  587MOL0     C79144   9.857   4.231   6.060 -0.9318  0.1902 -0.3869
  587MOL0     C79145   9.834   4.104   6.013 -0.4394 -0.2956 -0.7025
  587MOL0     O79146   9.792   4.092   5.881 -0.2184  0.1862  0.8423
  587MOL0     C79147   9.735   3.966   5.836  0.5024 -0.5639 -0.5181
  587MOL0     C79148   9.646   4.001   5.719  0.2833 -0.6556 -0.2454
  587MOL0     C79149   9.510   4.056   5.765  0.1087 -0.5304 -0.2168
  587MOL0     C79150   9.408   4.077   5.655 -0.0232  0.1008  0.3419
  587MOL0     C79151   9.267   4.102   5.695  0.1768 -0.4298 -0.5371
  587MOL0     C79152   9.211   3.973   5.765  0.1412 -0.4448  0.6792
  587MOL0     C79153   9.059   4.002   5.811 -0.4505  0.6804  0.1460
  587MOL0     C79154   8.986   3.870   5.832 -0.3354 -0.4479  0.5072
  587MOL0    Cl79155   9.020   3.797   6.002 -0.0515 -0.0384 -0.4488
  587MOL0     C79156   9.875   3.996   6.094  0.2990  0.8510  0.5421
  587MOL0     C79157   9.918   4.022   6.223 -1.3608 -0.2282 -0.0309
  587MOL0     O79158   9.792   4.261   6.477  0.0728  0.0925  0.0976
  587MOL0     C79159  10.097   4.214   6.654 -0.4511  0.0307 -0.2577
  587MOL0     C79160  10.183   4.262   6.751  0.0825  0.1931 -0.7464
  587MOL0     N79161  10.658   4.842   7.052 -0.1670  0.3026  0.6353
  587MOL0     N79162  10.643   4.967   7.035  0.3966 -0.0271  0.3025
  587MOL0     C79163  10.859   5.850   7.509 -0.4942  0.4942  0.3053
  587MOL0     C79164  10.981   5.925   7.492 -0.1824 -0.8087  0.7396
  587MOL0     C79165  11.305   6.151   7.299  0.0327 -0.7831  0.1059
  587MOL0     C79166  11.324   6.292   7.301  0.0870 -0.0390 -0.4473
  587MOL0     C79167  11.446   6.353   7.268  0.6985 -0.2604  0.4942
  587MOL0     C79168  11.556   6.276   7.232  0.3676 -0.1606 -0.4959
  587MOL0     O79169  11.688   6.318   7.196 -0.3752  0.2933  0.3308
  587MOL0     C79170  11.718   6.463   7.193  0.0350  0.0147 -0.1284
  587MOL0     C79171  11.860   6.475   7.136  0.1628 -0.2666 -0.1903
  587MOL0     C79172  11.965   6.395   7.213  0.1050 -0.0872 -0.1147
  587MOL0     C79173  11.968   6.430   7.364 -0.3843  0.8930 -0.7974
  587MOL0     C79174  12.015   6.569   7.393 -0.2067 -0.8899  0.1001
  587MOL0     C79175  12.044   6.687   7.422  0.4321  0.3885 -0.0441
  587MOL0     C79176  11.541   6.136   7.218  0.3936  0.9667  0.2277
  587MOL0     C79177  11.420   6.077   7.254 -0.0983 -0.1868  0.2743
  587MOL0     H79178  11.103   5.751   7.226 -1.6341  0.0275 -2.0342
  587MOL0     H79179  10.885   5.625   7.260 -0.9581 -0.4072  0.1794
  587MOL0     H79180  10.808   5.589   7.623  1.4995 -0.2498 -3.0396
  587MOL0     H79181  10.664   5.681   7.653 -1.8176 -2.0709  0.4119
  587MOL0     H79182  10.617   5.438   7.660  0.2088 -1.4683  0.1773
  587MOL0     H79183  10.538   5.493   7.510  0.2199 -2.6432 -0.3149
  587MOL0     H79184  10.740   5.437   7.381 -1.6119  1.0651  0.6477
  587MOL0     H79185  10.825   5.379   7.521  0.2876  0.3082  0.8391
  587MOL0     H79186  10.639   5.205   7.551 -0.3040 -1.6813 -0.7870
  587MOL0     H79187  10.547   5.262   7.421  0.0229  2.0152  0.6829
  587MOL0     H79188  10.837   5.145   7.386 -0.1293 -1.0298 -0.7374
  587MOL0     H79189  10.687   5.069   7.341 -0.5691  0.8270  0.3430
  587MOL0     H79190  10.802   5.317   7.200 -1.3846  1.8243 -0.7612
  587MOL0     H79191  10.799   5.153   7.148 -0.9812  0.7560 -0.7438
  587MOL0     H79192  10.561   5.352   7.164 -1.1167  0.8642 -1.6343
  587MOL0     H79193  10.629   5.271   7.022 -1.5240 -3.3295 -0.2564
  587MOL0     H79194  10.422   5.167   7.067 -0.2770 -0.3536  0.8606
  587MOL0     H79195  10.460   5.152   7.244  0.9360  1.7998 -0.5663
  587MOL0     H79196  10.408   4.912   7.247 -0.4352  2.2982 -0.1154
  587MOL0     H79197  10.639   4.621   7.204  1.3638  4.6347 -1.3668
  587MOL0     H79198  10.465   4.649   7.250  1.0750 -1.3642  1.4701
  587MOL0     H79199  10.576   4.528   6.992  0.5441  2.6337 -1.9282
  587MOL0     H79200  10.429   4.625   6.981  0.1778 -0.3965 -0.1374
  587MOL0     H79201  10.317   4.451   7.150 -0.7642 -1.1627 -0.8844
  587MOL0     H79202  10.465   4.358   7.133  2.3940 -0.7779 -3.2858
  587MOL0     H79203  10.308   4.276   6.973  1.1524 -1.0119 -1.9619
  587MOL0     H79204  10.434   4.359   6.877  1.7448  2.7804  1.3523
  587MOL0     H79205  10.053   4.575   6.782  1.6789  0.9495 -1.6625
  587MOL0     H79206   9.766   4.494   6.666 -1.6834 -1.1470 -3.4233
  587MOL0     H79207   9.890   4.617   6.629  0.1283 -0.0090  2.1212
  587MOL0     H79208   9.823   4.512   6.503 -1.7497  1.8458  0.0896
  587MOL0     H79209   9.932   4.347   6.226 -0.0630  0.9507 -1.5533
  587MOL0     H79210   9.842   4.319   5.998 -1.5223  0.2822 -0.1159
  587MOL0     H79211   9.808   3.889   5.809  1.1016  0.1507 -0.9457
  587MOL0     H79212   9.680   3.921   5.920  1.8080  1.3032  1.4391
  587MOL0     H79213   9.694   4.068   5.647  0.3557 -2.6203 -2.1377
  587MOL0     H79214   9.632   3.907   5.665 -3.6788 -0.6982  0.5531
  587MOL0     H79215   9.512   4.149   5.822 -1.7620 -0.1741 -0.6692
  587MOL0     H79216   9.483   3.977   5.835  0.3516 -1.1015 -0.7631
  587MOL0     H79217   9.444   4.168   5.607  0.5468  0.3466  1.2140
  587MOL0     H79218   9.415   3.995   5.584 -1.3567 -2.0493  2.5302
  587MOL0     H79219   9.213   4.117   5.601 -2.2463  0.5007  0.9105
  587MOL0     H79220   9.268   4.191   5.759 -1.2457  0.6015 -1.8715
  587MOL0     H79221   9.202   3.888   5.697  0.7852 -1.2009  1.5235
  587MOL0     H79222   9.272   3.935   5.847  1.0276  0.0428  0.2618
  587MOL0     H79223   9.013   4.052   5.726  0.6665  0.6118 -0.5304
  587MOL0     H79224   9.060   4.066   5.899 -0.5318 -0.5304  1.0575
  587MOL0     H79225   8.995   3.795   5.753 -0.9196  0.1302 -0.1148
  587MOL0     H79226   8.880   3.898   5.826 -0.9311 -2.6422 -0.3160
  587MOL0     H79227   9.866   3.895   6.056  2.8404  1.7357 -2.9512
  587MOL0     H79228   9.951   3.930   6.271  1.1084  0.4184 -0.3697
  587MOL0     H79229  10.116   4.115   6.614 -0.1791  0.9677 -2.6162
  587MOL0     H79230  10.261   4.195   6.785  0.0543  0.8951  0.7748
  587MOL0     H79231  10.799   5.876   7.596 -2.8339  0.4040 -1.1923
  587MOL0     H79232  10.992   6.018   7.548  0.0154  1.9157 -3.4383
  587MOL0     H79233  11.238   6.352   7.329  0.2858 -0.2433  0.6272
  587MOL0     H79234  11.451   6.461   7.265 -2.5362  0.0758 -4.2088
  587MOL0     H79235  11.644   6.513   7.130 -4.7134 -2.4934  2.9507
  587MOL0     H79236  11.722   6.512   7.291 -0.8220  1.1233 -0.6300
  587MOL0     H79237  11.898   6.577   7.128  1.2074 -0.0630  4.5632
  587MOL0     H79238  11.871   6.417   7.043 -0.4718 -1.1435  0.2636
  587MOL0     H79239  12.062   6.425   7.172 -0.3404  0.5459 -0.7521
  587MOL0     H79240  11.946   6.288   7.202 -0.1100  0.1903 -4.3802
  587MOL0     H79241  12.037   6.357   7.406 -2.6152 -1.0881 -0.3594
  587MOL0     H79242  11.872   6.417   7.416  0.0538 -2.0063 -0.5827
  587MOL0     H79243  12.093   6.776   7.457  1.2224  0.4424 -1.2155
  587MOL0     H79244  11.630   6.087   7.179 -0.0735  0.8751 -0.7419
  587MOL0     H79245  11.413   5.969   7.246  0.1134 -0.0686 -2.1512
  588MOL0     O79246   1.885   3.586   8.864  0.2516 -0.0259  0.1158
  588MOL0     C79247   1.944   3.659   8.943 -0.1532  0.6347  0.2350
  588MOL0     O79248   1.881   3.710   9.055 -0.4794 -0.1000 -0.1027
  588MOL0     C79249   1.746   3.692   9.076 -0.2182 -0.0736  0.1230
  588MOL0     C79250   1.677   3.586   9.138 -0.5416 -0.3459  0.4881
  588MOL0     C79251   1.538   3.590   9.171 -0.0918 -0.7294 -0.3125
  588MOL0     C79252   1.465   3.703   9.127 -0.3582 -0.1759  0.6849
  588MOL0     O79253   1.329   3.710   9.158 -0.3047 -0.6261  0.4403
  588MOL0     C79254   1.245   3.828   9.139  0.8838 -0.5715 -0.6236
  588MOL0     C79255   1.111   3.801   9.221 -0.0696 -0.2084  0.2893
  588MOL0     C79256   1.024   3.686   9.162 -0.6938 -0.5416 -0.1804
  588MOL0     C79257   0.878   3.710   9.204 -0.5636  0.7051 -0.0919
  588MOL0     C79258   0.778   3.590   9.180 -0.5337 -0.4851  0.1037
  588MOL0     C79259   0.630   3.645   9.172  0.3326 -0.5148 -0.5989
  588MOL0     C79260   0.525   3.540   9.136  0.2447  0.6103  0.1563
  588MOL0     C79261   0.391   3.578   9.199  0.1285 -0.0762  0.1660
  588MOL0     N79262   0.268   3.518   9.151 -1.4178 -0.0787 -0.2886
  588MOL0     C79263   0.249   3.384   9.136 -0.1039  0.3777 -0.4911
  588MOL0     C79264   0.118   3.374   9.125  0.9081  0.5257 -0.2955
  588MOL0     C79265   0.043   3.241   9.115  0.7464 -0.4032  0.5051
  588MOL0     C79266  -0.059   3.224   9.000 -0.4872  0.8449 -0.3503
  588MOL0     C79267  -0.148   3.113   9.046 -0.5845 -0.0642 -0.5678
  588MOL0     C79268  -0.231   3.072   8.931  0.8509  1.3257 -0.0118
  588MOL0     O79269  -0.291   2.951   8.973 -0.7038 -0.3741 -0.5556
  588MOL0     C79270  -0.405   2.912   8.903 -0.3755 -1.1367  0.4731
  588MOL0     C79271  -0.495   2.837   8.969  0.1789 -0.6516 -0.4893
  588MOL0     C79272  -0.602   2.769   8.916 -0.1983  0.2996 -0.5066
  588MOL0     C79273  -0.687   2.683   9.008 -0.6924 -0.2976  0.1025
  588MOL0     C79274  -0.626   2.785   8.777  0.1860 -0.0552  0.8653
  588MOL0     C79275  -0.738   2.721   8.697  0.3662 -0.0487 -1.0768
  588MOL0     O79276  -0.770   2.765   8.571 -0.6450 -0.7369 -0.1441
  588MOL0     C79277  -0.817   2.668   8.480 -0.6457 -0.4134 -0.2656
  588MOL0     C79278  -0.747   2.549   8.466 -0.4915  0.3629  0.3576
  588MOL0     C79279  -0.793   2.453   8.382 -0.1340 -0.0148  0.2206
  588MOL0     C79280  -0.914   2.476   8.313 -0.6548 -0.1254  0.1197
  588MOL0     O79281  -0.967   2.375   8.235 -0.4510 -0.3847  0.4034
  588MOL0     C79282  -1.031   2.263   8.298  1.2365 -0.7643  0.4767
  588MOL0     C79283  -0.994   2.121   8.237 -0.7979 -0.5953 -0.5798
  588MOL0     C79284  -0.992   2.130   8.085 -0.1455  0.0388  0.1257
  588MOL0     C79285  -1.120   2.179   8.020 -0.8705  0.0207 -0.8340
  588MOL0     C79286  -1.107   2.133   7.874  0.4609 -0.5234  0.7339
  588MOL0     C79287  -1.231   2.169   7.787 -0.2909  0.2345  0.1230
  588MOL0     C79288  -1.223   2.094   7.651  0.0137 -0.0112  1.0305
  588MOL0     C79289  -1.348   2.144   7.571 -0.5241  0.7384  0.2641
  588MOL0    Cl79290  -1.500   2.080   7.640 -0.0060  0.0941 -0.1081
  588MOL0     C79291  -0.998   2.590   8.333  0.2215 -0.9928 -0.3467
  588MOL0     C79292  -0.943   2.696   8.422 -1.0231 -0.6064 -0.0616
  588MOL0     O79293  -0.788   2.620   8.748  0.3590 -0.4213 -0.2535
  588MOL0     C79294  -0.536   2.871   8.710  0.0320  0.1175  0.3050
  588MOL0     C79295  -0.422   2.929   8.766  0.0522  0.7815  0.1378
  588MOL0     N79296   0.062   3.502   9.106  0.4925 -0.0165 -0.0460
  588MOL0     N79297   0.148   3.591   9.144 -0.6242  0.0682 -1.1772
  588MOL0     C79298   1.529   3.809   9.058 -0.8928 -0.1274 -0.2248
  588MOL0     C79299   1.671   3.804   9.036  0.0474  0.3603  0.2256
  588MOL0     C79300   2.076   3.701   8.901  0.6752  0.3947 -0.1806
  588MOL0     C79301   2.119   3.709   8.771  0.0691  1.0529  0.7672
  588MOL0     C79302   2.251   3.741   8.748  0.7609 -0.1175  0.1042
  588MOL0     C79303   2.339   3.779   8.853  0.1892 -0.3823  0.1615
  588MOL0     O79304   2.466   3.822   8.808  0.4089  0.3904 -0.2784
  588MOL0     C79305   2.574   3.835   8.902 -0.6033 -0.4614 -0.3011
  588MOL0     C79306   2.670   3.932   8.841  0.2559  0.0124 -0.1682
  588MOL0     C79307   2.771   3.978   8.952 -0.8495  0.1077  0.3426
  588MOL0     C79308   2.895   4.032   8.895  0.0110  0.1969  0.5161
  588MOL0     C79309   2.870   4.134   8.790  0.7769  0.1711  0.0709
  588MOL0     C79310   2.869   4.202   8.692 -0.8649 -0.1223 -0.3133
  588MOL0     C79311   2.293   3.774   8.985  0.5162  0.3045  0.3126
  588MOL0     C79312   2.162   3.739   9.011 -0.3366  0.7232  0.3719
  588MOL0     H79313   1.732   3.494   9.153  1.5851  0.9878  1.2741
  588MOL0     H79314   1.490   3.508   9.222  0.6047 -1.5036 -0.8831
  588MOL0     H79315   1.294   3.918   9.178 -0.9235  0.9544 -1.7055
  588MOL0     H79316   1.207   3.844   9.038 -0.7417 -0.6476 -0.0501
  588MOL0     H79317   1.143   3.785   9.325  3.2203  3.2850  0.0287
  588MOL0     H79318   1.051   3.892   9.217 -1.2329 -1.0166 -3.2002
  588MOL0     H79319   1.029   3.688   9.053  1.5914 -1.2498 -0.1287
  588MOL0     H79320   1.061   3.592   9.202  0.4784 -0.3576 -0.7843
  588MOL0     H79321   0.880   3.720   9.313  1.3264  2.3990 -0.2362
  588MOL0     H79322   0.848   3.806   9.162 -0.0519 -0.3153 -2.9649
  588MOL0     H79323   0.802   3.536   9.088  3.9286  0.2371  0.6122
  588MOL0     H79324   0.790   3.518   9.261  1.0658 -1.0098 -0.5607
  588MOL0     H79325   0.605   3.696   9.265  0.6292 -0.4937 -0.5292
  588MOL0     H79326   0.632   3.726   9.099 -2.1204  1.7896  1.6860
  588MOL0     H79327   0.522   3.531   9.027  2.1074  2.6660 -0.1308
  588MOL0     H79328   0.555   3.446   9.183 -2.5633  0.1604  1.1884
  588MOL0     H79329   0.375   3.686   9.191  1.6224  0.3687  2.2634
  588MOL0     H79330   0.388   3.557   9.306 -2.4664 -0.5692  0.0456
  588MOL0     H79331   0.319   3.305   9.161 -1.5823 -0.6027  0.6964
  588MOL0     H79332   0.114   3.160   9.102  0.3500 -0.5651 -0.7183
  588MOL0     H79333   0.001   3.227   9.216  0.8445 -1.1188  0.4512
  588MOL0     H79334  -0.015   3.194   8.905 -0.1869 -0.5437  0.2100
  588MOL0     H79335  -0.119   3.315   8.987 -2.1857 -0.4344 -1.8624
  588MOL0     H79336  -0.206   3.163   9.124  2.2922  0.9157  1.1041
  588MOL0     H79337  -0.096   3.032   9.097 -0.2113  0.8419  0.5273
  588MOL0     H79338  -0.174   3.047   8.841  1.2519  0.7623  0.3921
  588MOL0     H79339  -0.296   3.157   8.907  1.1672  2.1556  1.9051
  588MOL0     H79340  -0.472   2.828   9.074  2.2345  2.5059 -0.5566
  588MOL0     H79341  -0.664   2.702   9.113 -1.8267  3.4411 -0.1884
  588MOL0     H79342  -0.794   2.705   8.999 -0.8953 -1.0751  0.5572
  588MOL0     H79343  -0.670   2.580   8.976  1.6965 -0.4091  1.4878
  588MOL0     H79344  -0.659   2.525   8.525 -2.1019 -0.2327  2.6401
  588MOL0     H79345  -0.742   2.358   8.370 -0.8820 -0.2814 -1.0339
  588MOL0     H79346  -1.027   2.270   8.408 -2.7410  0.2554  0.7314
  588MOL0     H79347  -1.139   2.271   8.278  1.2564  2.7035  1.0861
  588MOL0     H79348  -0.897   2.090   8.278 -0.8711 -0.5567 -0.3729
  588MOL0     H79349  -1.062   2.041   8.268  1.4900 -1.5507  2.5593
  588MOL0     H79350  -0.965   2.030   8.051  0.3293 -0.1541  1.0223
  588MOL0     H79351  -0.916   2.208   8.069  0.1032  0.3928  2.6007
  588MOL0     H79352  -1.207   2.137   8.071 -0.9323 -0.0138 -0.9693
  588MOL0     H79353  -1.132   2.288   8.018 -4.0226 -0.2029  0.1365
  588MOL0     H79354  -1.084   2.026   7.876  3.3528 -0.1184 -1.8882
  588MOL0     H79355  -1.028   2.191   7.824 -2.3768  1.8196 -1.4461
  588MOL0     H79356  -1.328   2.160   7.835 -0.3079 -0.2135  0.0108
  588MOL0     H79357  -1.227   2.277   7.769  1.8382  0.0284 -0.9903
  588MOL0     H79358  -1.214   1.986   7.668  2.8088  0.3038  2.0498
  588MOL0     H79359  -1.133   2.129   7.601  0.6917  0.6225  2.6105
  588MOL0     H79360  -1.336   2.102   7.471 -1.0366  0.7521  0.1911
  588MOL0     H79361  -1.356   2.252   7.558  1.4329  1.1182  1.7135
  588MOL0     H79362  -1.094   2.590   8.284  0.2361 -2.5982 -0.4345
  588MOL0     H79363  -1.001   2.784   8.447 -0.3325  0.3975 -1.8125
  588MOL0     H79364  -0.541   2.897   8.605  0.3284 -1.0471 -0.0112
  588MOL0     H79365  -0.351   2.989   8.711  1.5021  1.2497  2.3713
  588MOL0     H79366   1.471   3.898   9.041  1.4960  1.4740 -0.4360
  588MOL0     H79367   1.716   3.888   8.985 -2.4387  1.3613 -0.4878
  588MOL0     H79368   2.044   3.687   8.695  0.6669 -1.2583  0.7703
  588MOL0     H79369   2.298   3.728   8.650  0.4322  0.1912 -0.0995
  588MOL0     H79370   2.537   3.872   8.998 -1.7108 -0.6212 -0.6506
  588MOL0     H79371   2.625   3.739   8.916 -0.5867 -0.0759  3.0002
  588MOL0     H79372   2.608   4.014   8.803  0.6934 -0.3202 -1.6382
  588MOL0     H79373   2.721   3.887   8.756  2.5484 -0.1675  1.2393
  588MOL0     H79374   2.807   3.900   9.020  3.9967  2.8758  1.4378
  588MOL0     H79375   2.722   4.052   9.016 -0.1657  1.5357 -0.7330
  588MOL0     H79376   2.949   3.954   8.838 -0.5148 -2.0558  2.9094
  588MOL0     H79377   2.957   4.076   8.973 -0.7479  2.8085 -0.2628
  588MOL0     H79378   2.885   4.268   8.609  0.0673 -0.4213 -0.3848
  588MOL0     H79379   2.352   3.799   9.073  0.3728 -0.6223  0.6893
  588MOL0     H79380   2.136   3.745   9.116  1.2521 -3.6321  1.2437
  589MOL0     O79381   4.575   7.692   6.313  0.2043 -0.3476 -0.1802
  589MOL0     C79382   4.617   7.574   6.290  0.2224  0.5140 -0.9794
  589MOL0     O79383   4.567   7.492   6.201  0.4571  0.3334  0.3915
  589MOL0     C79384   4.454   7.521   6.130  0.1313  0.2271  0.2849
  589MOL0     C79385   4.336   7.563   6.195  0.0437 -0.0828 -0.2517
  589MOL0     C79386   4.227   7.595   6.119 -0.0645 -0.0515 -0.8395
  589MOL0     C79387   4.222   7.591   5.978  0.7090  0.2894  0.1087
  589MOL0     O79388   4.107   7.626   5.908 -0.1977  0.6784  0.5299
  589MOL0     C79389   3.984   7.634   5.978  0.7064  0.5758 -0.1415
  589MOL0     C79390   3.949   7.772   6.020  0.2591 -0.2461  0.2176
  589MOL0     C79391   3.950   7.871   5.895 -0.5972 -0.2701 -0.4509
  589MOL0     C79392   3.863   7.990   5.931 -0.2304 -0.0235 -0.2241
  589MOL0     C79393   3.844   8.079   5.807  0.1099 -0.9603 -0.0661
  589MOL0     C79394   3.756   8.207   5.834 -0.6416  0.2907  0.3582
  589MOL0     C79395   3.608   8.163   5.858  0.1297 -0.3008  0.1663
  589MOL0     C79396   3.530   8.295   5.869 -0.0833 -0.7182 -0.7338
  589MOL0     N79397   3.390   8.290   5.852 -0.0438  0.3604 -0.0628
  589MOL0     C79398   3.313   8.401   5.831  0.5190 -0.3935 -0.0678
  589MOL0     C79399   3.183   8.370   5.865 -1.1792 -0.1479  0.5761
  589MOL0     C79400   3.070   8.469   5.859  0.1371 -0.1906 -0.6315
  589MOL0     C79401   2.939   8.414   5.812  0.2569  0.1967  0.4614
  589MOL0     C79402   2.823   8.522   5.789 -0.5305  0.3388  0.0990
  589MOL0     C79403   2.685   8.459   5.771 -0.0446  0.2783  0.3899
  589MOL0     O79404   2.592   8.562   5.723  0.1474  0.1080 -0.0992
  589MOL0     C79405   2.458   8.530   5.735  1.1787  0.5403  0.6142
  589MOL0     C79406   2.376   8.622   5.799 -0.1722 -0.6873  0.4083
  589MOL0     C79407   2.232   8.619   5.807  0.2194  0.5681 -0.1362
  589MOL0     C79408   2.169   8.716   5.894 -0.5797  0.0673 -0.0744
  589MOL0     C79409   2.168   8.521   5.733  0.0937  0.5428  0.6494
  589MOL0     C79410   2.027   8.510   5.721  0.0262  0.2689 -0.3639
  589MOL0     O79411   1.974   8.383   5.696 -0.0801 -0.3737 -0.1019
  589MOL0     C79412   1.833   8.365   5.684 -0.4703 -0.5537  0.2227
  589MOL0     C79413   1.777   8.373   5.557  0.7548  0.1299  0.3571
  589MOL0     C79414   1.643   8.364   5.540  0.0105 -0.0453 -0.4406
  589MOL0     C79415   1.558   8.369   5.653  0.6139 -0.9712 -0.6210
  589MOL0     O79416   1.421   8.387   5.629  0.0046 -0.4044 -0.1448
  589MOL0     C79417   1.345   8.451   5.733 -0.7086  0.2746  0.5562
  589MOL0     C79418   1.290   8.576   5.671  0.4129 -0.8573  0.1476
  589MOL0     C79419   1.184   8.640   5.763 -0.2002 -0.8640  1.1268
  589MOL0     C79420   1.115   8.756   5.684 -0.3007 -0.4613  0.5942
  589MOL0     C79421   1.203   8.890   5.675 -0.0025 -0.0332 -0.4633
  589MOL0     C79422   1.202   8.977   5.805 -0.1782  0.1747 -0.5064
  589MOL0     C79423   1.299   9.098   5.784  0.7511 -0.8055 -0.6271
  589MOL0     C79424   1.289   9.216   5.893 -0.3153  0.4329  1.2367
  589MOL0    Cl79425   1.390   9.182   6.035 -0.0801 -0.5098 -0.2546
  589MOL0     C79426   1.617   8.364   5.783 -0.1095 -0.4904  0.4609
  589MOL0     C79427   1.754   8.365   5.794 -0.2922  0.8823 -0.4132
  589MOL0     O79428   1.964   8.611   5.728  0.0084  0.7006  0.1885
  589MOL0     C79429   2.248   8.416   5.685  0.4627  0.0528 -0.0553
  589MOL0     C79430   2.394   8.417   5.685 -0.5757  0.1708 -0.0117
  589MOL0     N79431   3.190   8.240   5.912 -0.1873 -0.3104 -0.0650
  589MOL0     N79432   3.311   8.199   5.914 -0.2386  0.1365  0.0787
  589MOL0     C79433   4.341   7.555   5.912 -0.3340  0.0642 -0.4608
  589MOL0     C79434   4.452   7.509   5.989 -0.4716 -0.0244 -0.3861
  589MOL0     C79435   4.735   7.525   6.369  0.1541  0.8332 -0.2572
  589MOL0     C79436   4.792   7.602   6.468 -0.1338 -0.1016 -0.2988
  589MOL0     C79437   4.893   7.551   6.551  0.4992  0.4649  0.2230
  589MOL0     C79438   4.947   7.424   6.535 -0.3764  0.7863 -0.0028
  589MOL0     O79439   5.048   7.384   6.616  0.2513  0.3076  0.6209
  589MOL0     C79440   5.083   7.241   6.619  0.2658 -0.2279  0.8949
  589MOL0     C79441   5.133   7.211   6.761  0.4166 -0.0567 -0.3890
  589MOL0     C79442   5.274   7.266   6.784 -0.0980  0.1621  0.0234
  589MOL0     C79443   5.324   7.222   6.919 -0.3577  1.0879  0.5999
  589MOL0     C79444   5.451   7.283   6.954 -0.7235 -0.3671  0.1011
  589MOL0     C79445   5.563   7.319   6.973 -0.0126  0.4302  0.1272
  589MOL0     C79446   4.899   7.352   6.424  0.0373  0.5901  0.0663
  589MOL0     C79447   4.798   7.402   6.340 -0.3349  0.1855 -0.4161
  589MOL0     H79448   4.324   7.577   6.302  0.6112  0.6688 -0.2832
  589MOL0     H79449   4.140   7.616   6.181  0.9521  1.9174  0.0194
  589MOL0     H79450   3.906   7.593   5.914 -0.4340 -0.5498  1.8924
  589MOL0     H79451   3.972   7.570   6.065  2.1727 -1.8971 -1.6174
  589MOL0     H79452   3.846   7.777   6.057  0.5173 -0.4815  0.9821
  589MOL0     H79453   4.010   7.803   6.106  0.6902  0.5781 -0.3779
  589MOL0     H79454   4.053   7.886   5.864 -0.1710 -1.4477  0.3149
  589MOL0     H79455   3.896   7.819   5.815 -1.8528 -0.4478  0.4674
  589MOL0     H79456   3.769   7.967   5.984 -0.9125 -1.1623 -1.8322
  589MOL0     H79457   3.917   8.046   6.007  3.4470 -0.5700 -2.2347
  589MOL0     H79458   3.933   8.128   5.764 -1.1437  0.3788 -1.2563
  589MOL0     H79459   3.796   8.022   5.727  3.2184  0.2441 -3.0400
  589MOL0     H79460   3.795   8.264   5.918 -1.1767 -0.8993  1.4437
  589MOL0     H79461   3.758   8.261   5.739 -0.1984 -1.0637 -0.4318
  589MOL0     H79462   3.556   8.116   5.774 -1.2008  1.6893 -0.1852
  589MOL0     H79463   3.603   8.099   5.947 -0.7175  3.1753  2.8097
  589MOL0     H79464   3.565   8.362   5.789  0.5554 -0.8046 -0.5302
  589MOL0     H79465   3.548   8.343   5.965  0.7740  0.3160 -1.3828
  589MOL0     H79466   3.348   8.497   5.794  1.4354 -1.5761 -2.5194
  589MOL0     H79467   3.062   8.502   5.963 -0.7714 -2.8937  0.2388
  589MOL0     H79468   3.098   8.548   5.789 -0.1270 -1.4816 -2.2481
  589MOL0     H79469   2.902   8.337   5.880  0.2099  2.1044  2.6989
  589MOL0     H79470   2.958   8.373   5.712 -0.2091 -0.6635  0.7124
  589MOL0     H79471   2.846   8.587   5.704  0.8321  0.4741  0.5569
  589MOL0     H79472   2.813   8.574   5.884  0.6132  0.2484  0.2815
  589MOL0     H79473   2.655   8.409   5.863  0.7135 -0.7093  0.1156
  589MOL0     H79474   2.684   8.377   5.699 -1.1497 -1.4072  2.2241
  589MOL0     H79475   2.425   8.705   5.849  1.3141 -0.8243 -0.7292
  589MOL0     H79476   2.121   8.662   5.976 -4.4856  2.8693 -0.2955
  589MOL0     H79477   2.245   8.785   5.932 -1.2429 -0.0457  1.5588
  589MOL0     H79478   2.094   8.783   5.852 -2.0365 -0.4097  1.6136
  589MOL0     H79479   1.844   8.381   5.472 -0.2639 -2.2320 -0.7796
  589MOL0     H79480   1.594   8.360   5.443 -0.2008  0.8751 -0.3797
  589MOL0     H79481   1.259   8.388   5.756 -1.5381  1.7682  1.7523
  589MOL0     H79482   1.399   8.477   5.825  1.1808  0.7134 -0.6249
  589MOL0     H79483   1.368   8.650   5.651 -1.0052  0.9009  0.8849
  589MOL0     H79484   1.235   8.563   5.577 -1.1882 -0.3317  0.9785
  589MOL0     H79485   1.240   8.679   5.849  1.4902 -0.6187 -0.0377
  589MOL0     H79486   1.118   8.564   5.807  1.7171 -1.9156  2.3421
  589MOL0     H79487   1.095   8.738   5.578  1.4670  1.3306 -0.0945
  589MOL0     H79488   1.036   8.783   5.755 -0.9010  0.6843 -0.4873
  589MOL0     H79489   1.162   8.961   5.602 -1.1356  0.3157  0.4788
  589MOL0     H79490   1.309   8.871   5.654  0.0493 -2.6955  1.6439
  589MOL0     H79491   1.100   9.010   5.828 -0.1882 -0.0457 -0.2311
  589MOL0     H79492   1.238   8.927   5.895 -0.9560  0.4778 -0.0085
  589MOL0     H79493   1.261   9.151   5.696  0.4013  0.9774  0.5544
  589MOL0     H79494   1.404   9.073   5.766  0.7211 -0.3286 -1.5041
  589MOL0     H79495   1.186   9.235   5.926 -0.3859 -1.6480  2.3920
  589MOL0     H79496   1.336   9.308   5.856 -1.3324  0.2939 -0.5258
  589MOL0     H79497   1.550   8.341   5.865 -0.4916  0.8305  0.5360
  589MOL0     H79498   1.799   8.355   5.892  0.2185  1.4909 -0.5826
  589MOL0     H79499   2.197   8.336   5.631  2.4635 -0.5750 -1.1019
  589MOL0     H79500   2.448   8.330   5.652 -2.2240 -1.1728  0.6530
  589MOL0     H79501   4.343   7.554   5.804 -1.0974  2.0891 -0.5500
  589MOL0     H79502   4.534   7.465   5.933 -0.9082 -0.3743 -0.7654
  589MOL0     H79503   4.767   7.705   6.490  2.1101  0.2421  0.9003
  589MOL0     H79504   4.940   7.618   6.622  1.5453 -0.7922  0.7541
  589MOL0     H79505   4.995   7.177   6.605 -1.9774  2.9352 -0.6395
  589MOL0     H79506   5.156   7.209   6.544  0.6996  0.9895  0.7789
  589MOL0     H79507   5.136   7.102   6.761 -3.8674 -0.3222 -0.4506
  589MOL0     H79508   5.061   7.251   6.833 -0.9699 -0.7829 -1.3408
  589MOL0     H79509   5.256   7.374   6.790  0.8540  0.2500  2.1858
  589MOL0     H79510   5.356   7.258   6.712  0.2761  1.1892  0.3088
  589MOL0     H79511   5.334   7.113   6.922 -1.2802  0.9818  0.3635
  589MOL0     H79512   5.249   7.261   6.990  0.0050 -2.2063  3.0575
  589MOL0     H79513   5.663   7.356   6.987  0.3517  0.5951 -2.3995
  589MOL0     H79514   4.940   7.254   6.404  2.3850  0.8773  2.8027
  589MOL0     H79515   4.755   7.332   6.270 -1.7572  0.9219 -0.3051
  590MOL0     O79516  11.186  10.527   9.491  0.2933  0.1763 -0.4227
  590MOL0     C79517  11.186  10.415   9.438  0.6428  0.0453  0.1029
  590MOL0     O79518  11.071  10.351   9.397 -0.1120  0.2916  0.0602
  590MOL0     C79519  10.950  10.382   9.436  1.1021 -0.4857 -0.2003
  590MOL0     C79520  10.894  10.511   9.407  0.0187  0.0723  1.4179
  590MOL0     C79521  10.763  10.545   9.450  0.0349 -0.0752 -0.3680
  590MOL0     C79522  10.680  10.449   9.503  0.1918  0.3880  0.3412
  590MOL0     O79523  10.546  10.478   9.527 -0.1047  0.1552  0.4304
  590MOL0     C79524  10.469  10.389   9.609  0.6083 -0.1162  0.0961
  590MOL0     C79525  10.337  10.469   9.638  0.4841 -0.1863 -0.3186
  590MOL0     C79526  10.370  10.556   9.758  0.9101 -0.0146 -1.1109
  590MOL0     C79527  10.237  10.635   9.791 -0.2783 -0.4505 -0.1975
  590MOL0     C79528  10.261  10.723   9.913  0.0753  0.6629  0.0369
  590MOL0     C79529  10.135  10.796   9.952  0.4860  0.2593  0.4933
  590MOL0     C79530  10.059  10.861   9.840  0.6306 -0.4648 -0.1864
  590MOL0     C79531  10.115  10.977   9.768  0.1397 -0.3765  0.0248
  590MOL0     N79532  10.020  11.065   9.702 -0.9229  0.4400 -0.5206
  590MOL0     C79533  10.012  11.197   9.727 -0.1601 -0.4378 -0.1713
  590MOL0     C79534   9.928  11.243   9.634  0.6253  0.4735 -0.6666
  590MOL0     C79535   9.885  11.384   9.622  0.7198  0.3879 -0.3864
  590MOL0     C79536   9.754  11.402   9.690  0.7306 -0.0112 -0.7409
  590MOL0     C79537   9.692  11.538   9.660 -0.7913 -0.0805 -0.0151
  590MOL0     C79538   9.765  11.652   9.725  0.6632 -0.8367 -0.4306
  590MOL0     O79539   9.753  11.770   9.642 -0.2192  0.3090 -0.2199
  590MOL0     C79540   9.656  11.862   9.665 -0.0629 -0.0000 -0.8926
  590MOL0     C79541   9.684  11.985   9.620  0.2674 -0.1955 -0.2054
  590MOL0     C79542   9.600  12.095   9.657  0.3097  0.0453  0.3524
  590MOL0     C79543   9.653  12.236   9.622 -0.3666  0.4791  0.1194
  590MOL0     C79544   9.482  12.079   9.733 -0.6361 -0.2788  0.5419
  590MOL0     C79545   9.395  12.190   9.789  0.2792 -1.1525 -0.2194
  590MOL0     O79546   9.278  12.138   9.857 -0.5979  0.6163 -0.1565
  590MOL0     C79547   9.177  12.220   9.906 -0.2732  0.8601  1.4893
  590MOL0     C79548   9.077  12.149   9.969 -0.9862 -0.0351  0.0826
  590MOL0     C79549   8.966  12.211  10.012  0.0155 -0.1983 -0.1317
  590MOL0     C79550   8.936  12.346   9.988  0.3410  0.7866 -0.1617
  590MOL0     O79551   8.823  12.397  10.042 -0.3687 -0.6745 -0.0708
  590MOL0     C79552   8.783  12.529   9.987  0.4712  0.4481  0.2665
  590MOL0     C79553   8.655  12.568  10.061 -0.4257  0.3138 -0.2615
  590MOL0     C79554   8.542  12.482  10.024 -0.6612  0.5306  0.4578
  590MOL0     C79555   8.407  12.504  10.093 -0.2909 -0.2582  0.3198
  590MOL0     C79556   8.315  12.381  10.073 -0.0458 -0.7092  0.3148
  590MOL0     C79557   8.169  12.398  10.112  0.0514 -0.4437 -0.9079
  590MOL0     C79558   8.095  12.262  10.113 -0.2148 -0.2871 -0.3978
  590MOL0     C79559   7.961  12.282  10.187 -0.0804  0.3554 -0.2487
  590MOL0    Cl79560   7.989  12.322  10.361 -0.2203  0.9191 -0.3625
  590MOL0     C79561   9.031  12.412   9.908  0.5490 -0.0452  1.0293
  590MOL0     C79562   9.157  12.354   9.878 -0.0240  0.0294 -0.0535
  590MOL0     O79563   9.432  12.311   9.776  0.7120 -0.4369  0.1811
  590MOL0     C79564   9.448  11.946   9.757  0.5102  0.5376  1.0244
  590MOL0     C79565   9.533  11.838   9.730 -1.2535  0.5647  0.1549
  590MOL0     N79566   9.891  11.137   9.560  0.1702  0.2114  0.1426
  590MOL0     N79567   9.942  11.024   9.592 -0.8497 -0.1843 -0.0376
  590MOL0     C79568  10.736  10.323   9.516  0.1118 -0.4211  1.1298
  590MOL0     C79569  10.865  10.283   9.487 -0.1954  0.2842 -0.8397
  590MOL0     C79570  11.322  10.353   9.427  0.0923 -0.2143 -0.3582
  590MOL0     C79571  11.339  10.228   9.361  1.2339 -0.6833  0.0345
  590MOL0     C79572  11.469  10.178   9.359  1.1002 -0.4763  0.1996
  590MOL0     C79573  11.584  10.229   9.412  0.8098 -0.7127 -0.1207
  590MOL0     O79574  11.701  10.171   9.406  0.3007  0.0474 -0.2156
  590MOL0     C79575  11.801  10.183   9.508  0.0420  0.0335  0.5406
  590MOL0     C79576  11.918  10.246   9.436  0.1465  0.2144 -0.0714
  590MOL0     C79577  12.048  10.265   9.511  0.6957  0.5766  0.8467
  590MOL0     C79578  12.127  10.140   9.536  0.0968  0.1968  0.4481
  590MOL0     C79579  12.168  10.048   9.424 -0.3648  0.7072  0.4097
  590MOL0     C79580  12.189   9.976   9.328 -1.0275  0.8052 -0.4535
  590MOL0     C79581  11.562  10.355   9.478  0.3252  0.2677 -0.3209
  590MOL0     C79582  11.436  10.414   9.485  0.0755  0.1723  0.3007
  590MOL0     H79583  10.948  10.587   9.351 -1.4488  0.2261  0.1381
  590MOL0     H79584  10.722  10.643   9.429  0.6790 -0.1721 -2.2084
  590MOL0     H79585  10.449  10.297   9.553  2.9547  1.0496 -2.9801
  590MOL0     H79586  10.519  10.359   9.702  2.0386  1.2697 -0.1869
  590MOL0     H79587  10.315  10.524   9.546  2.3022 -1.2217 -1.4336
  590MOL0     H79588  10.255  10.400   9.656 -0.0439  0.8007  1.2421
  590MOL0     H79589  10.401  10.492   9.841  3.7761  1.3911 -0.9991
  590MOL0     H79590  10.452  10.623   9.733  1.1581 -0.0480 -0.4050
  590MOL0     H79591  10.210  10.703   9.709 -0.9454 -0.4029  0.0591
  590MOL0     H79592  10.154  10.565   9.803 -2.7191  2.3070  0.0463
  590MOL0     H79593  10.296  10.667  10.000 -0.5580  1.7780  1.0259
  590MOL0     H79594  10.340  10.793   9.882  0.0786 -0.2192 -2.2016
  590MOL0     H79595  10.075  10.720  10.002  1.3542 -0.1793  0.8848
  590MOL0     H79596  10.163  10.870  10.027 -1.4074 -1.5879  3.1841
  590MOL0     H79597  10.022  10.785   9.770  1.6630 -0.5116 -0.7062
  590MOL0     H79598   9.973  10.899   9.896 -1.1969 -2.5543 -1.3933
  590MOL0     H79599  10.167  10.937   9.680 -0.7782  1.6469 -1.5186
  590MOL0     H79600  10.194  11.025   9.825  1.2788 -3.1059  0.9110
  590MOL0     H79601  10.062  11.265   9.796  1.0410 -0.3775 -1.0853
  590MOL0     H79602   9.969  11.439   9.665  1.7516 -1.5464  0.1881
  590MOL0     H79603   9.879  11.416   9.517 -0.5286  4.0996  0.6370
  590MOL0     H79604   9.758  11.389   9.798  0.3776 -3.5778 -1.0227
  590MOL0     H79605   9.679  11.328   9.662 -2.3304  1.9243  1.6569
  590MOL0     H79606   9.587  11.524   9.687 -1.3560 -2.0535 -2.8070
  590MOL0     H79607   9.690  11.551   9.551  1.8956 -1.3245 -0.2715
  590MOL0     H79608   9.870  11.646   9.758  0.5416  1.2385  0.4773
  590MOL0     H79609   9.713  11.666   9.820 -1.6013 -0.8147 -1.6285
  590MOL0     H79610   9.780  11.990   9.569  0.8698 -1.5386  0.7192
  590MOL0     H79611   9.674  12.289   9.716 -1.1465 -0.1071  0.6423
  590MOL0     H79612   9.753  12.224   9.579 -0.9096  0.3954 -1.1553
  590MOL0     H79613   9.586  12.284   9.551 -0.3008  0.2867 -0.0732
  590MOL0     H79614   9.088  12.043   9.989  0.7072  0.0216 -0.3623
  590MOL0     H79615   8.896  12.159  10.077 -0.3430  1.9096  1.2509
  590MOL0     H79616   8.864  12.600  10.004  0.2357  0.6349  0.6174
  590MOL0     H79617   8.764  12.518   9.880  0.4278 -1.3412  0.4266
  590MOL0     H79618   8.664  12.549  10.169 -0.9574 -0.4094 -0.3443
  590MOL0     H79619   8.627  12.670  10.034 -0.6431  0.3113 -0.0549
  590MOL0     H79620   8.568  12.377  10.040 -3.3115 -0.2597  0.1752
  590MOL0     H79621   8.546  12.501   9.916  1.4751 -1.0419  0.2104
  590MOL0     H79622   8.416  12.515  10.202  3.1928 -0.6642  0.1877
  590MOL0     H79623   8.356  12.590  10.049 -2.3367 -0.8222  1.4829
  590MOL0     H79624   8.359  12.304  10.137  0.9103 -2.4966 -2.3310
  590MOL0     H79625   8.310  12.346   9.970 -0.1736 -0.8983  0.3839
  590MOL0     H79626   8.163  12.445  10.211  0.0668  1.4799 -1.7715
  590MOL0     H79627   8.118  12.460  10.038  0.1842 -0.1587 -0.7633
  590MOL0     H79628   8.160  12.191  10.165  1.9325 -0.1600 -2.7455
  590MOL0     H79629   8.085  12.217  10.014  1.6308 -1.1348 -0.2438
  590MOL0     H79630   7.899  12.192  10.182 -0.4129  0.5831 -0.3115
  590MOL0     H79631   7.904  12.363  10.140 -2.6858 -1.6366 -0.8130
  590MOL0     H79632   9.020  12.516   9.877 -0.4142 -0.0458  1.3259
  590MOL0     H79633   9.228  12.418   9.827 -1.5289 -0.7003 -3.3359
  590MOL0     H79634   9.352  11.926   9.803  0.2187  1.5625  0.8794
  590MOL0     H79635   9.503  11.737   9.754 -0.0158 -0.6281 -2.7815
  590MOL0     H79636  10.670  10.247   9.558 -0.3554  0.5086  2.1362
  590MOL0     H79637  10.893  10.179   9.497 -1.1260  0.1961  1.7778
  590MOL0     H79638  11.263  10.170   9.311 -0.4864  3.1340 -2.2624
  590MOL0     H79639  11.475  10.074   9.329  1.0379  0.0237 -1.6401
  590MOL0     H79640  11.787  10.241   9.600  2.9517 -0.3353  1.3034
  590MOL0     H79641  11.830  10.083   9.543  0.0509  0.1049  0.7382
  590MOL0     H79642  11.891  10.347   9.404  1.6893  0.3512 -1.0331
  590MOL0     H79643  11.928  10.191   9.342  2.7694  0.8757 -0.2383
  590MOL0     H79644  12.023  10.313   9.606 -0.7106  3.0612 -0.6937
  590MOL0     H79645  12.107  10.334   9.449 -0.3383 -0.5709 -1.5442
  590MOL0     H79646  12.071  10.081   9.609 -0.6087  1.3945  0.8900
  590MOL0     H79647  12.224  10.166   9.579  0.5554  0.2031 -0.5424
  590MOL0     H79648  12.206   9.905   9.249  0.8486  1.2329 -0.4845
  590MOL0     H79649  11.642  10.420   9.514  0.5656 -0.3334  0.2442
  590MOL0     H79650  11.415  10.512   9.527  0.4336  0.4950 -0.2586
  591MOL0     O79651   7.219   3.754   8.141  0.1197  0.1189 -0.5390
  591MOL0     C79652   7.245   3.794   8.030  0.0844 -0.4412 -0.0750
  591MOL0     O79653   7.177   3.775   7.918  0.1922 -0.4217  0.3858
  591MOL0     C79654   7.047   3.731   7.925 -0.1667 -0.0378  1.0880
  591MOL0     C79655   6.953   3.800   8.002  0.0391  0.4072  0.6318
  591MOL0     C79656   6.818   3.759   8.006  0.0074 -0.5495 -0.1317
  591MOL0     C79657   6.789   3.629   7.943 -0.4163 -1.6674 -0.2360
  591MOL0     O79658   6.670   3.564   7.955  0.7470  0.5134  0.2772
  591MOL0     C79659   6.554   3.650   7.982  0.2315  0.3762 -0.0876
  591MOL0     C79660   6.424   3.559   7.952  0.1223  0.6887  0.0282
  591MOL0     C79661   6.398   3.491   7.814 -0.0051 -0.1196 -0.3002
  591MOL0     C79662   6.317   3.360   7.825  0.0563  0.2839  0.7748
  591MOL0     C79663   6.211   3.346   7.704 -0.1649 -0.7143  0.1856
  591MOL0     C79664   6.129   3.222   7.740  0.8436  0.3743 -0.0241
  591MOL0     C79665   6.035   3.170   7.631  0.8267 -0.0667  0.1896
  591MOL0     C79666   5.897   3.242   7.623 -0.4293 -0.4001  0.4849
  591MOL0     N79667   5.814   3.184   7.515 -0.3315 -1.1496  0.0720
  591MOL0     C79668   5.745   3.059   7.509 -0.1267 -0.1543  0.1662
  591MOL0     C79669   5.703   3.052   7.387  1.1091  0.1521  0.3780
  591MOL0     C79670   5.631   2.934   7.332  0.6363 -0.4852 -0.0886
  591MOL0     C79671   5.478   2.956   7.341  0.9036  0.2613  0.7396
  591MOL0     C79672   5.409   2.835   7.280  1.0219  0.9253  0.7240
  591MOL0     C79673   5.255   2.842   7.290 -0.6354 -0.4708  0.6681
  591MOL0     O79674   5.198   2.717   7.251  0.4328  0.3496  0.0096
  591MOL0     C79675   5.065   2.706   7.268  0.2175 -0.6182  0.0139
  591MOL0     C79676   4.983   2.801   7.333  1.1544  0.2336  0.4725
  591MOL0     C79677   4.857   2.769   7.388  0.4324  0.3771  0.3952
  591MOL0     C79678   4.796   2.883   7.467  0.1180  0.1960 -0.3397
  591MOL0     C79679   4.793   2.654   7.342 -0.2628  0.1949  0.1733
  591MOL0     C79680   4.650   2.616   7.377 -0.1826  0.1696 -0.0529
  591MOL0     O79681   4.603   2.502   7.305 -0.0666  0.1961 -0.0857
  591MOL0     C79682   4.475   2.462   7.318  0.5976  0.7273 -1.3407
  591MOL0     C79683   4.406   2.449   7.442  0.5285 -0.8597  0.7898
  591MOL0     C79684   4.272   2.404   7.450 -0.3517  0.6799  0.4269
  591MOL0     C79685   4.214   2.358   7.326  0.1919  0.4447  0.1820
  591MOL0     O79686   4.087   2.295   7.331 -1.1621 -0.2103 -0.4634
  591MOL0     C79687   4.064   2.176   7.269 -0.1338 -0.4039  0.0316
  591MOL0     C79688   3.968   2.089   7.352 -0.3569  0.0609  0.0810
  591MOL0     C79689   4.011   2.073   7.504  0.3558 -0.3892 -0.0608
  591MOL0     C79690   3.936   2.178   7.596 -0.2778  0.0842 -0.5718
  591MOL0     C79691   3.784   2.160   7.616 -0.1436  0.4539 -0.6312
  591MOL0     C79692   3.756   2.031   7.697 -0.1549  0.4440 -0.3132
  591MOL0     C79693   3.607   2.016   7.729 -0.3421  0.8997  0.9244
  591MOL0     C79694   3.570   2.049   7.877 -0.5115 -0.6819 -0.7316
  591MOL0    Cl79695   3.645   1.948   7.993  0.0567  0.3662 -0.1831
  591MOL0     C79696   4.287   2.360   7.210 -0.8307  0.0983  0.6162
  591MOL0     C79697   4.411   2.415   7.201 -0.2682  0.2071  0.1132
  591MOL0     O79698   4.583   2.688   7.446 -0.2812 -0.3607 -0.1878
  591MOL0     C79699   4.866   2.573   7.264  0.3662  0.0650  0.0657
  591MOL0     C79700   4.997   2.593   7.229  0.8070  0.3401 -0.7329
  591MOL0     N79701   5.728   3.166   7.320  0.2363 -0.1336  0.3578
  591MOL0     N79702   5.808   3.240   7.388  0.0667 -0.1316 -0.0502
  591MOL0     C79703   6.891   3.561   7.880  0.3746 -0.3839  0.2299
  591MOL0     C79704   7.014   3.612   7.858 -0.1035 -0.9502 -1.3048
  591MOL0     C79705   7.373   3.862   8.025 -0.5520  0.2091 -0.1901
  591MOL0     C79706   7.416   3.938   8.130  0.3854 -0.2674 -0.4321
  591MOL0     C79707   7.543   4.006   8.122  1.0860  0.1903 -0.1061
  591MOL0     C79708   7.614   4.011   7.999  0.4033  0.5618  0.5948
  591MOL0     O79709   7.736   4.078   7.978  0.1167 -0.9466  0.0874
  591MOL0     C79710   7.789   4.132   8.096  0.2623  0.2319 -0.4600
  591MOL0     C79711   7.920   4.200   8.064  0.1518 -0.6654  0.3196
  591MOL0     C79712   8.001   4.258   8.184  0.0806  0.6008  0.9140
  591MOL0     C79713   8.156   4.266   8.144 -0.2255  0.0794 -0.0321
  591MOL0     C79714   8.197   4.340   8.024  0.8542 -0.2199 -0.5493
  591MOL0     C79715   8.233   4.410   7.936  0.1476 -0.2472 -0.4365
  591MOL0     C79716   7.565   3.939   7.891  0.0500 -0.7183 -0.1421
  591MOL0     C79717   7.446   3.858   7.910 -0.6331 -0.2813 -0.2165
  591MOL0     H79718   6.981   3.893   8.051 -0.5166  0.9763 -0.0926
  591MOL0     H79719   6.742   3.826   8.046  0.3514  0.6259 -1.3804
  591MOL0     H79720   6.560   3.685   8.086 -2.4073 -2.5366  1.1920
  591MOL0     H79721   6.546   3.737   7.916  1.4363 -0.5780 -1.5675
  591MOL0     H79722   6.422   3.475   8.022  1.5689  3.6985  4.0132
  591MOL0     H79723   6.338   3.619   7.979 -1.4303 -2.1219  1.8663
  591MOL0     H79724   6.338   3.564   7.758 -2.6419 -1.2511  0.9182
  591MOL0     H79725   6.492   3.481   7.759  1.0248  1.4407  1.0793
  591MOL0     H79726   6.383   3.274   7.841 -0.5879 -0.1203  1.3042
  591MOL0     H79727   6.259   3.356   7.917  0.1037 -0.5100  0.7732
  591MOL0     H79728   6.142   3.430   7.690 -2.1369 -2.1954  0.5577
  591MOL0     H79729   6.253   3.337   7.603  2.3701  2.5044  0.7691
  591MOL0     H79730   6.203   3.143   7.757  1.2280  0.2656 -2.0312
  591MOL0     H79731   6.064   3.231   7.827  3.6397 -1.0903  2.4116
  591MOL0     H79732   6.089   3.177   7.536  1.8576 -2.0687  0.5750
  591MOL0     H79733   6.011   3.064   7.643 -1.9338  0.2141 -1.9532
  591MOL0     H79734   5.917   3.348   7.608  0.2937 -0.0009  3.5431
  591MOL0     H79735   5.845   3.242   7.720  0.9333 -1.5933  1.2579
  591MOL0     H79736   5.739   2.971   7.572 -0.1808  0.0481  0.4436
  591MOL0     H79737   5.662   2.920   7.228  0.5876  0.7786 -0.2841
  591MOL0     H79738   5.640   2.839   7.386 -2.7118 -1.5113 -1.1173
  591MOL0     H79739   5.459   3.036   7.269  0.6466 -0.0983  0.4075
  591MOL0     H79740   5.434   2.970   7.440 -2.0131  0.0294 -0.4340
  591MOL0     H79741   5.446   2.750   7.338  1.4262 -1.0817 -2.2569
  591MOL0     H79742   5.432   2.810   7.176 -1.0198  2.1861 -0.0882
  591MOL0     H79743   5.214   2.918   7.223 -0.4648 -1.2679 -0.3824
  591MOL0     H79744   5.226   2.875   7.390  0.2986 -0.6943  1.0278
  591MOL0     H79745   5.016   2.903   7.342 -2.6643  1.8739 -1.6116
  591MOL0     H79746   4.734   2.859   7.553  0.3428  0.4741 -0.1006
  591MOL0     H79747   4.874   2.950   7.503 -1.5930  1.4970  1.1266
  591MOL0     H79748   4.735   2.938   7.395 -0.7415 -0.1366  0.1194
  591MOL0     H79749   4.443   2.480   7.539  0.9506  0.1411  0.3175
  591MOL0     H79750   4.215   2.429   7.539  3.0827 -0.2438  3.1085
  591MOL0     H79751   4.018   2.199   7.172 -2.4902 -1.8166  0.7115
  591MOL0     H79752   4.163   2.134   7.252  0.0208 -0.2323  0.5026
  591MOL0     H79753   3.871   2.134   7.329 -0.6886 -0.8211 -0.3046
  591MOL0     H79754   3.963   1.991   7.303 -1.3598  1.4005 -2.7202
  591MOL0     H79755   4.119   2.089   7.511  0.2038  1.7392 -1.8759
  591MOL0     H79756   3.997   1.967   7.528  0.4410 -0.8458 -1.9111
  591MOL0     H79757   3.983   2.182   7.694  2.7399 -1.0023 -1.8822
  591MOL0     H79758   3.952   2.280   7.558  1.6161 -0.2540 -0.7633
  591MOL0     H79759   3.734   2.153   7.519  0.2409 -4.1372 -0.7200
  591MOL0     H79760   3.737   2.238   7.677 -0.1659 -0.6073  0.7653
  591MOL0     H79761   3.781   1.944   7.634 -1.0821 -0.4952  0.5639
  591MOL0     H79762   3.815   2.038   7.788 -1.9889  3.5791  0.7778
  591MOL0     H79763   3.579   1.916   7.693  1.1029  0.5709  0.6196
  591MOL0     H79764   3.537   2.082   7.678 -3.0215 -0.2961  2.8079
  591MOL0     H79765   3.461   2.047   7.890 -0.5879 -2.0459 -1.4010
  591MOL0     H79766   3.608   2.150   7.898 -0.4970 -0.6590 -0.8686
  591MOL0     H79767   4.244   2.302   7.129 -0.7795 -0.3248  0.8865
  591MOL0     H79768   4.438   2.432   7.097 -1.0272 -1.3953 -0.3900
  591MOL0     H79769   4.825   2.478   7.231  2.1518 -0.4348 -0.8876
  591MOL0     H79770   5.046   2.515   7.171 -2.9540 -1.4505 -1.8128
  591MOL0     H79771   6.876   3.462   7.837  0.5255  0.9573 -3.1726
  591MOL0     H79772   7.102   3.563   7.816  1.5509  0.1181  0.6939
  591MOL0     H79773   7.364   3.944   8.225 -0.9589  1.8295 -1.2131
  591MOL0     H79774   7.575   4.052   8.215 -3.0196 -0.7535  2.0061
  591MOL0     H79775   7.727   4.211   8.138  0.7956  0.1258  0.5478
  591MOL0     H79776   7.811   4.048   8.162 -2.2261 -2.4868 -2.7768
  591MOL0     H79777   7.891   4.281   7.997 -1.5296 -3.3289 -2.4222
  591MOL0     H79778   7.989   4.127   8.019  1.3522 -1.2958  2.9424
  591MOL0     H79779   8.002   4.187   8.268  2.5569 -1.1324 -0.4534
  591MOL0     H79780   7.956   4.351   8.219 -0.3981  1.9070 -2.8074
  591MOL0     H79781   8.197   4.166   8.125  0.0381  0.2130 -0.1790
  591MOL0     H79782   8.217   4.299   8.228  1.2703 -2.6595  0.0763
  591MOL0     H79783   8.266   4.488   7.870  0.1249 -1.4248 -1.8883
  591MOL0     H79784   7.634   3.926   7.808  0.3644 -0.4181  0.0718
  591MOL0     H79785   7.424   3.788   7.829 -0.4203 -1.4397  0.6997
  592MOL0     O79786   3.514   4.808   2.259  0.7785  0.4624 -0.1550
  592MOL0     C79787   3.570   4.762   2.357  1.2879 -0.2280  0.1669
  592MOL0     O79788   3.498   4.695   2.453  0.1430 -0.1186  0.9911
  592MOL0     C79789   3.359   4.704   2.456  0.1263  0.3116 -0.8130
  592MOL0     C79790   3.269   4.683   2.347 -0.2062 -0.0686 -0.0981
  592MOL0     C79791   3.127   4.675   2.370  0.2705 -0.1778  0.1379
  592MOL0     C79792   3.074   4.690   2.495 -0.0448 -0.0282  0.2616
  592MOL0     O79793   2.937   4.677   2.496 -0.2064  0.1072 -0.3058
  592MOL0     C79794   2.866   4.632   2.617 -1.0239 -0.1563  0.3297
  592MOL0     C79795   2.726   4.579   2.586  0.2665  0.3849  0.3024
  592MOL0     C79796   2.744   4.439   2.528 -0.9191 -0.0370 -0.0358
  592MOL0     C79797   2.612   4.367   2.497 -0.2218 -0.4529  0.1241
  592MOL0     C79798   2.628   4.226   2.435 -0.7852 -0.2035 -0.0236
  592MOL0     C79799   2.686   4.220   2.295  0.0856 -0.3014  0.8483
  592MOL0     C79800   2.692   4.079   2.244 -0.2868  0.2136 -0.5574
  592MOL0     C79801   2.704   4.070   2.087 -0.3480  0.1667 -0.1101
  592MOL0     N79802   2.717   3.923   2.048  0.4618  0.4692 -0.0627
  592MOL0     C79803   2.626   3.826   2.077 -0.2243 -0.6638  0.5216
  592MOL0     C79804   2.687   3.713   2.033 -0.1399  0.2840 -0.0717
  592MOL0     C79805   2.654   3.568   2.044 -0.2678  0.8264  0.0041
  592MOL0     C79806   2.507   3.569   1.997  0.2612  0.6572  0.2624
  592MOL0     C79807   2.458   3.430   1.971 -0.7046  0.4219  0.4160
  592MOL0     C79808   2.305   3.431   1.947  0.2557 -0.2851 -1.5033
  592MOL0     O79809   2.268   3.499   1.824  0.3075  0.7568  0.3829
  592MOL0     C79810   2.131   3.503   1.795 -0.0234  0.1571  0.0691
  592MOL0     C79811   2.091   3.563   1.676  0.0365 -0.7544  0.0099
  592MOL0     C79812   1.954   3.566   1.643 -0.6823 -0.0381  0.0802
  592MOL0     C79813   1.915   3.632   1.509 -0.7429 -0.4610  0.6846
  592MOL0     C79814   1.857   3.517   1.731  0.0115 -0.3649 -0.7232
  592MOL0     C79815   1.721   3.532   1.706  1.2941 -0.1138  0.3629
  592MOL0     O79816   1.652   3.605   1.800  0.4266 -0.2577 -0.0050
  592MOL0     C79817   1.522   3.640   1.780  0.1253  0.6927 -0.3429
  592MOL0     C79818   1.421   3.594   1.860 -0.4151  0.6141 -0.6086
  592MOL0     C79819   1.290   3.635   1.854  0.9834  0.0730  0.0773
  592MOL0     C79820   1.249   3.713   1.745 -0.3156  1.1199  1.3801
  592MOL0     O79821   1.112   3.725   1.713 -0.3182 -0.5134 -0.7668
  592MOL0     C79822   1.051   3.809   1.806  0.1590  0.1619  0.0188
  592MOL0     C79823   0.898   3.802   1.793 -0.1204 -0.2232 -0.5281
  592MOL0     C79824   0.828   3.865   1.919 -0.2785 -0.7498  0.3536
  592MOL0     C79825   0.680   3.898   1.888 -0.8495 -0.6337 -0.4212
  592MOL0     C79826   0.664   4.038   1.830 -0.6365 -0.7639 -0.4403
  592MOL0     C79827   0.688   4.151   1.936 -0.3119  0.2532  0.5117
  592MOL0     C79828   0.714   4.291   1.879 -0.8107  1.0224  0.3423
  592MOL0     C79829   0.661   4.413   1.957  0.3670  1.5060 -0.0971
  592MOL0    Cl79830   0.495   4.388   2.024  0.3240 -0.0826  0.0167
  592MOL0     C79831   1.351   3.747   1.654  0.3894  0.1968 -1.0466
  592MOL0     C79832   1.483   3.714   1.672  0.3296 -0.2843  0.5513
  592MOL0     O79833   1.683   3.474   1.614  0.0634 -0.2367 -0.0630
  592MOL0     C79834   1.901   3.440   1.845  0.7040 -0.0147  0.1073
  592MOL0     C79835   2.036   3.434   1.872  0.3402  0.4267  0.2645
  592MOL0     N79836   2.808   3.745   1.972  0.1663  0.1553  0.4322
  592MOL0     N79837   2.825   3.873   1.989 -0.2284 -0.4664 -0.4989
  592MOL0     C79838   3.161   4.707   2.609  0.2887  0.3742  0.7185
  592MOL0     C79839   3.302   4.704   2.589 -0.4553 -0.1321 -0.0870
  592MOL0     C79840   3.716   4.774   2.373  0.5439 -0.1239 -0.3527
  592MOL0     C79841   3.771   4.781   2.501 -0.5226 -0.8094 -0.4547
  592MOL0     C79842   3.907   4.813   2.517  0.2675 -0.2096  0.3452
  592MOL0     C79843   3.984   4.849   2.400  0.3482 -0.0409 -0.4593
  592MOL0     O79844   4.115   4.890   2.429 -0.5823 -0.0766 -0.0022
  592MOL0     C79845   4.215   4.845   2.335 -0.0600  0.3021  0.4472
  592MOL0     C79846   4.352   4.911   2.353 -0.4651 -0.1959 -0.3219
  592MOL0     C79847   4.357   5.054   2.294  0.2691 -0.4566 -0.4729
  592MOL0     C79848   4.478   5.134   2.356  0.1695 -0.3919 -0.5256
  592MOL0     C79849   4.604   5.065   2.345  0.1949  0.7693  0.1478
  592MOL0     C79850   4.718   5.025   2.359  0.4329 -1.2984  0.6603
  592MOL0     C79851   3.926   4.847   2.276  0.1645 -0.5782  0.1403
  592MOL0     C79852   3.797   4.800   2.258  0.6531 -0.0519 -1.0747
  592MOL0     H79853   3.309   4.674   2.247  0.5209  1.0081  0.0838
  592MOL0     H79854   3.054   4.661   2.290 -0.7873 -1.8982  1.3366
  592MOL0     H79855   2.916   4.548   2.665  0.6269 -0.0388 -1.0757
  592MOL0     H79856   2.865   4.713   2.690  0.6919 -2.5004  3.1744
  592MOL0     H79857   2.670   4.575   2.679 -0.1440 -1.3963  0.0099
  592MOL0     H79858   2.668   4.641   2.516 -0.5060 -1.5701 -0.8695
  592MOL0     H79859   2.801   4.447   2.435 -1.6296 -3.0890 -0.8623
  592MOL0     H79860   2.808   4.380   2.593 -0.2560 -0.1999 -0.8151
  592MOL0     H79861   2.549   4.360   2.586  0.4397 -0.8176  0.5737
  592MOL0     H79862   2.561   4.425   2.419 -0.2554 -1.7704 -0.8778
  592MOL0     H79863   2.691   4.168   2.503  1.2667  2.6563  0.7089
  592MOL0     H79864   2.528   4.184   2.448 -1.7303  2.6610  4.0875
  592MOL0     H79865   2.619   4.274   2.227  2.3112  0.5806 -0.7542
  592MOL0     H79866   2.784   4.265   2.281  0.4416 -1.1564  0.4869
  592MOL0     H79867   2.780   4.047   2.300 -1.0692  3.0450  2.6255
  592MOL0     H79868   2.612   4.018   2.288  0.7455  1.0220  2.6958
  592MOL0     H79869   2.798   4.118   2.056  0.2000 -0.4390  0.5964
  592MOL0     H79870   2.621   4.113   2.031  1.7382  2.3982 -1.6958
  592MOL0     H79871   2.539   3.839   2.141  0.3444 -0.4553  1.2568
  592MOL0     H79872   2.722   3.506   1.985 -1.1050 -0.1314  0.0145
  592MOL0     H79873   2.653   3.533   2.148 -2.8368  0.2245 -0.1551
  592MOL0     H79874   2.503   3.631   1.907 -2.2497  1.7722  1.0273
  592MOL0     H79875   2.445   3.615   2.074 -1.4433 -1.0514 -0.0054
  592MOL0     H79876   2.475   3.369   2.060  2.7258 -0.5419 -0.7620
  592MOL0     H79877   2.507   3.376   1.890  0.6260  3.2643 -0.8126
  592MOL0     H79878   2.255   3.474   2.034 -0.5041 -2.8007 -0.5936
  592MOL0     H79879   2.273   3.326   1.943  1.6041 -1.1985  3.8778
  592MOL0     H79880   2.157   3.608   1.603 -0.0903  0.5780  0.6786
  592MOL0     H79881   1.999   3.626   1.439 -1.7002 -1.9466 -0.3724
  592MOL0     H79882   1.838   3.573   1.460 -0.2690 -0.3338 -0.2286
  592MOL0     H79883   1.889   3.737   1.526 -0.8992 -0.3151 -0.4031
  592MOL0     H79884   1.471   3.524   1.926  0.6987  0.4221 -1.6140
  592MOL0     H79885   1.228   3.588   1.930  3.6474 -0.9446  1.7375
  592MOL0     H79886   1.079   3.779   1.907 -1.5463  2.5197  1.3129
  592MOL0     H79887   1.079   3.915   1.797 -2.1222  0.6958 -2.2082
  592MOL0     H79888   0.872   3.850   1.698  0.2288 -0.0875 -0.5596
  592MOL0     H79889   0.881   3.695   1.779  2.4261 -0.6898 -0.5425
  592MOL0     H79890   0.881   3.952   1.959 -0.0750 -0.5143 -0.3986
  592MOL0     H79891   0.822   3.786   1.993  0.5559  0.5586  1.8725
  592MOL0     H79892   0.657   3.826   1.809  2.0560 -0.9096 -1.1417
  592MOL0     H79893   0.625   3.882   1.981  0.0632 -3.9023 -0.3004
  592MOL0     H79894   0.563   4.036   1.787 -3.4980 -1.6637  5.2997
  592MOL0     H79895   0.733   4.039   1.746 -1.7038  1.0811 -1.3390
  592MOL0     H79896   0.605   4.146   2.008 -1.5974 -0.3915 -0.9576
  592MOL0     H79897   0.780   4.137   1.994 -0.9611 -0.3871  1.4212
  592MOL0     H79898   0.670   4.303   1.780  1.0975 -0.3631 -0.7332
  592MOL0     H79899   0.823   4.293   1.869 -0.9929  1.4321 -2.0105
  592MOL0     H79900   0.651   4.495   1.885 -0.2377  1.8715  0.3942
  592MOL0     H79901   0.739   4.446   2.026  2.5352  0.7860 -2.0887
  592MOL0     H79902   1.339   3.819   1.574  0.8961  2.6864  0.9602
  592MOL0     H79903   1.550   3.744   1.592  0.9817  2.6745  2.0478
  592MOL0     H79904   1.844   3.372   1.908  2.6022 -1.4828  0.3541
  592MOL0     H79905   2.059   3.366   1.954 -2.5299 -1.0993 -0.0592
  592MOL0     H79906   3.128   4.707   2.712  0.8883  0.2919  0.9135
  592MOL0     H79907   3.363   4.699   2.680  2.2426  1.2954 -1.6732
  592MOL0     H79908   3.714   4.765   2.592  0.5911  0.8760  0.6148
  592MOL0     H79909   3.952   4.823   2.615  4.2769  0.3483 -1.3428
  592MOL0     H79910   4.222   4.737   2.347 -0.5234  0.0002 -1.6988
  592MOL0     H79911   4.198   4.873   2.231  0.6325 -0.2478  0.1816
  592MOL0     H79912   4.425   4.855   2.294 -1.6271 -3.3354  0.9575
  592MOL0     H79913   4.381   4.905   2.458 -0.9164 -0.6104 -0.2146
  592MOL0     H79914   4.259   5.097   2.314 -1.8311 -3.3562 -3.5641
  592MOL0     H79915   4.373   5.050   2.186  1.4012 -0.6231 -0.3171
  592MOL0     H79916   4.460   5.149   2.463 -1.5515 -1.2559 -0.6529
  592MOL0     H79917   4.485   5.235   2.313  1.3361  0.1438  0.8340
  592MOL0     H79918   4.821   4.994   2.360  1.1586  0.5812 -2.3779
  592MOL0     H79919   3.995   4.884   2.202 -1.2292 -0.1872 -1.0102
  592MOL0     H79920   3.747   4.803   2.161 -0.1294  3.4790 -0.7042
  593MOL0     O79921   8.270   5.461   7.440  0.2508 -0.6023  0.1997
  593MOL0     C79922   8.346   5.410   7.358 -0.3546 -0.7633  0.1952
  593MOL0     O79923   8.318   5.405   7.224  0.9939 -0.2923  0.5111
  593MOL0     C79924   8.187   5.431   7.178 -0.3788  0.1385 -0.2182
  593MOL0     C79925   8.156   5.536   7.087 -0.1448  0.1929  0.2736
  593MOL0     C79926   8.029   5.544   7.034 -0.4324 -0.4889 -0.3538
  593MOL0     C79927   7.936   5.448   7.067 -0.5350  0.4511  0.3638
  593MOL0     O79928   7.806   5.465   7.012 -0.4135  0.4138  0.6171
  593MOL0     C79929   7.709   5.383   7.077 -1.4969 -0.2635 -0.3518
  593MOL0     C79930   7.577   5.431   7.008  0.2291 -1.0755 -0.0933
  593MOL0     C79931   7.539   5.575   7.049 -0.1871 -0.6819 -0.9033
  593MOL0     C79932   7.498   5.670   6.937 -0.0003 -0.0706 -0.4378
  593MOL0     C79933   7.360   5.634   6.868  0.1908 -0.5280 -0.5050
  593MOL0     C79934   7.242   5.688   6.964  1.1874 -0.1934 -0.4860
  593MOL0     C79935   7.100   5.659   6.911 -0.4418 -0.6002 -0.7692
  593MOL0     C79936   7.054   5.509   6.923  0.1745  0.2677  0.3192
  593MOL0     N79937   6.926   5.484   6.856  0.6159  0.1832  0.0059
  593MOL0     C79938   6.831   5.391   6.896 -0.4071 -0.5791 -0.0385
  593MOL0     C79939   6.729   5.409   6.815 -0.0555 -0.0012 -0.2524
  593MOL0     C79940   6.608   5.329   6.811  0.4177 -0.6194 -0.1458
  593MOL0     C79941   6.517   5.353   6.938 -0.2301 -0.6830  0.2764
  593MOL0     C79942   6.396   5.258   6.947 -1.2486  0.8216  0.3993
  593MOL0     C79943   6.361   5.260   7.095  0.4444 -0.2210 -0.2285
  593MOL0     O79944   6.236   5.199   7.116  0.5813  0.3370 -0.3901
  593MOL0     C79945   6.176   5.203   7.239  0.2409 -0.8328  0.8227
  593MOL0     C79946   6.043   5.165   7.245 -0.5049 -0.5410  0.8892
  593MOL0     C79947   5.966   5.173   7.363  0.1832 -1.4803  0.2463
  593MOL0     C79948   5.822   5.145   7.347 -0.7042  1.3883 -0.5323
  593MOL0     C79949   6.032   5.225   7.481 -0.0867  0.4942  0.3430
  593MOL0     C79950   5.965   5.238   7.611 -0.8145 -0.2264  0.3124
  593MOL0     O79951   5.829   5.226   7.619 -0.4791  0.4154  0.1737
  593MOL0     C79952   5.764   5.209   7.738  0.0135 -0.7642 -0.2990
  593MOL0     C79953   5.692   5.092   7.759 -0.5440 -0.7783  0.2313
  593MOL0     C79954   5.649   5.055   7.885 -0.2763  0.8173 -0.2018
  593MOL0     C79955   5.659   5.156   7.988  0.9773 -0.5799 -0.7361
  593MOL0     O79956   5.622   5.106   8.107  1.4825  0.0873 -0.0394
  593MOL0     C79957   5.663   5.176   8.222 -0.2197 -0.0807 -0.3396
  593MOL0     C79958   5.655   5.098   8.356  0.2151 -0.4141  0.6564
  593MOL0     C79959   5.500   5.062   8.388  0.1083 -0.5496  0.0653
  593MOL0     C79960   5.493   4.949   8.492  0.2282 -0.0515  0.8294
  593MOL0     C79961   5.490   4.816   8.430 -0.3259  0.6310  0.1771
  593MOL0     C79962   5.484   4.701   8.538  0.6345 -0.2643  0.3500
  593MOL0     C79963   5.545   4.569   8.500  0.3052 -0.6870  0.1422
  593MOL0     C79964   5.432   4.480   8.465  0.4118  0.1388  0.4541
  593MOL0    Cl79965   5.338   4.431   8.605 -0.1353 -0.2957 -0.1394
  593MOL0     C79966   5.735   5.268   7.972  0.3639 -0.2635  0.2224
  593MOL0     C79967   5.786   5.301   7.843  0.2765  0.0067  0.4933
  593MOL0     O79968   6.042   5.262   7.706  0.9312 -0.1532  0.5186
  593MOL0     C79969   6.164   5.254   7.473 -0.5578  0.3401 -0.0460
  593MOL0     C79970   6.236   5.246   7.353  1.6299  0.0319 -0.3759
  593MOL0     N79971   6.755   5.509   6.724 -0.0726  0.5359 -0.2021
  593MOL0     N79972   6.872   5.555   6.754 -0.6159  1.3871  0.9053
  593MOL0     C79973   7.975   5.334   7.151 -0.4562 -0.2983 -0.4329
  593MOL0     C79974   8.099   5.327   7.210 -0.3546 -0.1969  0.6649
  593MOL0     C79975   8.466   5.345   7.421  0.2941 -0.5837  0.2507
  593MOL0     C79976   8.525   5.238   7.350 -0.9023  0.1591  0.3233
  593MOL0     C79977   8.636   5.169   7.405  0.7071  0.7031 -0.1522
  593MOL0     C79978   8.691   5.214   7.534  0.1784  0.0365 -0.2886
  593MOL0     O79979   8.801   5.165   7.588 -0.3591 -0.0170 -0.2767
  593MOL0     C79980   8.892   5.090   7.507  0.5964  0.5042 -0.0303
  593MOL0     C79981   9.017   5.046   7.571  0.0579  0.6461 -0.5759
  593MOL0     C79982   9.106   5.165   7.605 -0.0047 -0.0455  0.8223
  593MOL0     C79983   9.254   5.132   7.607  0.3234 -0.7344 -0.2032
  593MOL0     C79984   9.290   5.009   7.679  0.3169  0.2430 -0.1664
  593MOL0     C79985   9.325   4.912   7.749  0.4065  0.1507  1.0280
  593MOL0     C79986   8.632   5.324   7.599  0.0321 -1.3044  0.1034
  593MOL0     C79987   8.517   5.383   7.547  0.8369 -0.0087  0.8773
  593MOL0     H79988   8.230   5.613   7.067 -0.1471 -0.6573 -3.6802
  593MOL0     H79989   8.009   5.628   6.967 -0.2763  0.2458  0.4992
  593MOL0     H79990   7.729   5.277   7.054  3.8165 -0.5222  3.6584
  593MOL0     H79991   7.710   5.398   7.185  0.5368  2.5712 -0.6780
  593MOL0     H79992   7.584   5.424   6.899  2.8389 -0.3963 -0.0457
  593MOL0     H79993   7.497   5.362   7.037 -1.0196  0.1105 -0.6650
  593MOL0     H79994   7.459   5.576   7.123  0.6995 -0.1840  0.0756
  593MOL0     H79995   7.624   5.623   7.099 -1.8678  2.8686 -1.1533
  593MOL0     H79996   7.497   5.773   6.972  0.1147 -0.4665  0.7641
  593MOL0     H79997   7.578   5.670   6.863  0.1088  0.6926 -0.3296
  593MOL0     H79998   7.339   5.695   6.779 -3.3710  1.3073  1.4000
  593MOL0     H79999   7.370   5.528   6.844  0.5077 -0.7107  0.4192
  593MOL0     H80000   7.252   5.631   7.058 -2.5154 -0.5549 -0.1521
  593MOL0     H80001   7.250   5.796   6.978 -0.0851  0.0799 -1.7163
  593MOL0     H80002   7.038   5.728   6.969  2.6364 -0.0224  2.1357
  593MOL0     H80003   7.099   5.688   6.806 -1.7791  0.2849 -0.5417
  593MOL0     H80004   7.052   5.480   7.029 -0.3317 -0.0866  0.2148
  593MOL0     H80005   7.130   5.451   6.868 -0.2027 -0.7340  0.8260
  593MOL0     H80006   6.826   5.321   6.979  0.6530 -0.9655 -0.2831
  593MOL0     H80007   6.559   5.327   6.713  1.8327 -1.8221 -0.8565
  593MOL0     H80008   6.632   5.224   6.834  1.4562 -0.8569 -2.1716
  593MOL0     H80009   6.479   5.456   6.943  1.6007  0.3086 -3.0883
  593MOL0     H80010   6.594   5.332   7.013  1.3352 -0.8257 -1.3003
  593MOL0     H80011   6.425   5.157   6.919 -0.4825  1.1050  0.1475
  593MOL0     H80012   6.315   5.280   6.877  0.1057 -2.7611 -2.6256
  593MOL0     H80013   6.346   5.365   7.121  0.8092  0.4415 -2.4989
  593MOL0     H80014   6.440   5.208   7.151 -0.1089  0.4901  1.2630
  593MOL0     H80015   5.985   5.145   7.156  0.0663  2.3743 -0.2415
  593MOL0     H80016   5.797   5.091   7.255  0.2171 -2.5605  1.3510
  593MOL0     H80017   5.774   5.082   7.422 -3.7680  2.9974 -0.9572
  593MOL0     H80018   5.767   5.240   7.345  0.7607  2.3531  1.6533
  593MOL0     H80019   5.698   5.016   7.681 -0.1869 -0.0346 -0.4862
  593MOL0     H80020   5.601   4.960   7.902  0.3249  0.4990 -0.2568
  593MOL0     H80021   5.771   5.186   8.219 -0.3828  1.7930 -1.4399
  593MOL0     H80022   5.624   5.279   8.218  2.3677  0.9639 -0.2013
  593MOL0     H80023   5.709   5.004   8.341  0.4883  0.0709 -1.6178
  593MOL0     H80024   5.706   5.160   8.431  0.6020 -0.3060  0.3023
  593MOL0     H80025   5.452   5.018   8.300  0.6680 -0.0582 -0.4938
  593MOL0     H80026   5.440   5.146   8.424 -2.0025 -2.1977  0.6063
  593MOL0     H80027   5.572   4.950   8.567 -1.5157 -4.4802  3.1267
  593MOL0     H80028   5.397   4.953   8.545 -0.9113 -3.6822 -0.5555
  593MOL0     H80029   5.581   4.798   8.371 -1.6477 -0.7396 -1.5334
  593MOL0     H80030   5.414   4.794   8.355  2.2234  1.4114 -2.8834
  593MOL0     H80031   5.532   4.738   8.630 -0.9618  0.1847  1.0352
  593MOL0     H80032   5.381   4.680   8.567  1.5034 -1.8150  2.6354
  593MOL0     H80033   5.599   4.530   8.587  0.3705  0.7807  0.7904
  593MOL0     H80034   5.608   4.573   8.411 -1.9747 -1.3762 -1.6196
  593MOL0     H80035   5.471   4.389   8.418  3.7454  1.6283  0.0452
  593MOL0     H80036   5.363   4.535   8.400  0.3530 -1.2335 -0.6933
  593MOL0     H80037   5.757   5.332   8.056 -3.5849  1.2782  0.2887
  593MOL0     H80038   5.848   5.390   7.831  0.6688 -0.5650 -2.5319
  593MOL0     H80039   6.220   5.277   7.563  0.8402  1.5890 -1.1661
  593MOL0     H80040   6.339   5.282   7.346  1.7308 -0.0909  0.3937
  593MOL0     H80041   7.907   5.253   7.174  0.9962 -1.1576  0.9953
  593MOL0     H80042   8.140   5.251   7.274  0.0402  1.0361  1.9291
  593MOL0     H80043   8.490   5.211   7.251  0.2170 -0.5446  0.0951
  593MOL0     H80044   8.678   5.085   7.352  2.0411 -0.2316  2.2287
  593MOL0     H80045   8.851   4.993   7.476  2.0622  0.7029 -2.8555
  593MOL0     H80046   8.915   5.150   7.419 -2.7812  0.8539 -0.8382
  593MOL0     H80047   9.066   4.985   7.494 -0.4845 -2.5574  1.4802
  593MOL0     H80048   8.997   4.982   7.657  0.6326  4.0642  2.3515
  593MOL0     H80049   9.091   5.204   7.706  1.6454  1.7139  0.4482
  593MOL0     H80050   9.083   5.239   7.528 -1.1533 -0.2972  0.9061
  593MOL0     H80051   9.309   5.219   7.645 -1.3192  1.4125 -2.4064
  593MOL0     H80052   9.288   5.122   7.503  0.4986 -1.6370 -0.0658
  593MOL0     H80053   9.347   4.831   7.815 -1.6488 -0.4402  1.0370
  593MOL0     H80054   8.676   5.352   7.694  1.9975 -2.0583 -0.5488
  593MOL0     H80055   8.456   5.447   7.610 -0.2158 -0.8224  0.7107
  594MOL0     O80056   8.425   5.581  10.564  0.6755  0.0707 -0.2646
  594MOL0     C80057   8.440   5.506  10.467  0.3115 -0.1282  1.0634
  594MOL0     O80058   8.336   5.442  10.387 -0.2797 -0.0762 -0.2588
  594MOL0     C80059   8.203   5.464  10.400 -0.5714  0.2210  0.5071
  594MOL0     C80060   8.128   5.396  10.298  0.0846 -0.3848  0.7392
  594MOL0     C80061   7.986   5.411  10.289 -0.5244 -0.2238 -0.2161
  594MOL0     C80062   7.922   5.489  10.388  0.0235 -0.6362 -0.3674
  594MOL0     O80063   7.786   5.511  10.368  0.9812 -0.2404  0.1310
  594MOL0     C80064   7.712   5.542  10.484 -0.2125  0.0761 -0.5139
  594MOL0     C80065   7.561   5.536  10.455  0.6344 -1.3160  0.0192
  594MOL0     C80066   7.482   5.581  10.579 -0.4438 -0.3181 -0.0412
  594MOL0     C80067   7.329   5.609  10.554 -0.5354  0.4891 -0.0368
  594MOL0     C80068   7.243   5.644  10.675 -0.3788 -0.4798  0.3741
  594MOL0     C80069   7.091   5.632  10.649  0.1047  0.2310  0.4997
  594MOL0     C80070   7.054   5.512  10.560  1.7108 -0.2620 -0.1576
  594MOL0     C80071   6.912   5.465  10.599 -0.7433  0.2791 -0.4346
  594MOL0     N80072   6.809   5.554  10.548  0.7718 -0.4332 -0.2265
  594MOL0     C80073   6.782   5.565  10.416  0.8255  0.2276 -0.2790
  594MOL0     C80074   6.673   5.651  10.404 -0.6019  0.4718  0.0595
  594MOL0     C80075   6.606   5.705  10.286  0.5870 -0.2295 -0.0851
  594MOL0     C80076   6.480   5.615  10.250  0.1092 -0.5335  0.2137
  594MOL0     C80077   6.411   5.673  10.127 -0.4403  0.2259  0.2615
  594MOL0     C80078   6.277   5.597  10.109  0.3892  0.9477 -0.1257
  594MOL0     O80079   6.178   5.669  10.178  0.3550  0.2578  0.3194
  594MOL0     C80080   6.045   5.649  10.150  0.0930  0.4042 -0.6016
  594MOL0     C80081   5.958   5.726  10.216 -0.5550  0.7750  0.2476
  594MOL0     C80082   5.818   5.707  10.225 -0.3195 -0.1487 -0.0257
  594MOL0     C80083   5.734   5.790  10.319  0.0183 -0.3966 -0.0388
  594MOL0     C80084   5.760   5.604  10.147 -0.6908  0.1553  0.5308
  594MOL0     C80085   5.618   5.578  10.128  0.0669  0.3864  0.4042
  594MOL0     O80086   5.578   5.519  10.012  0.6302  0.4080  1.3853
  594MOL0     C80087   5.451   5.480  10.015  0.4201  0.4840 -0.3644
  594MOL0     C80088   5.415   5.352  10.079 -0.0742 -0.1599  0.6032
  594MOL0     C80089   5.277   5.323  10.081  0.4936  1.5918 -0.4832
  594MOL0     C80090   5.184   5.420  10.033 -0.7494  0.0751 -1.1562
  594MOL0     O80091   5.049   5.399  10.042  0.3079  0.1055  0.6600
  594MOL0     C80092   5.001   5.315  10.145  0.6219  0.4209 -0.7601
  594MOL0     C80093   4.841   5.311  10.144  0.0556  0.1387 -0.6247
  594MOL0     C80094   4.795   5.238  10.271  0.0870  0.0965  0.4812
  594MOL0     C80095   4.651   5.268  10.308  0.7026  0.6629  0.2351
  594MOL0     C80096   4.607   5.190  10.428 -0.3384  0.6673  0.5618
  594MOL0     C80097   4.477   5.232  10.494 -0.5754  0.0576  0.3844
  594MOL0     C80098   4.353   5.196  10.408 -0.1814 -0.4037  0.6797
  594MOL0     C80099   4.217   5.253  10.447  0.9229  0.9099 -0.5304
  594MOL0    Cl80100   4.174   5.165  10.599 -0.1865  0.0412 -0.1676
  594MOL0     C80101   5.217   5.540   9.974  0.6048  0.2665 -0.4812
  594MOL0     C80102   5.348   5.570   9.967 -0.9194 -0.3406 -0.6564
  594MOL0     O80103   5.552   5.579  10.231 -0.1171 -0.4845  0.0116
  594MOL0     C80104   5.855   5.522  10.073  0.0174 -0.9322  0.0782
  594MOL0     C80105   5.992   5.544  10.077 -0.0063  0.0450  0.5094
  594MOL0     N80106   6.644   5.689  10.540 -0.3589  0.8447  0.1529
  594MOL0     N80107   6.724   5.634  10.627 -0.3396 -0.2288  0.0943
  594MOL0     C80108   7.995   5.569  10.482 -0.2831  1.2699 -0.0733
  594MOL0     C80109   8.134   5.557  10.481 -0.3338 -0.7540 -0.1362
  594MOL0     C80110   8.580   5.467  10.437  0.3529  0.3661 -0.1834
  594MOL0     C80111   8.607   5.355  10.358 -1.3105  1.0568 -0.8905
  594MOL0     C80112   8.736   5.314  10.323  0.0177 -0.3423  0.0834
  594MOL0     C80113   8.843   5.390  10.352 -0.2448  0.1618 -0.6753
  594MOL0     O80114   8.964   5.368  10.298  0.5699  0.7503  0.1860
  594MOL0     C80115   9.077   5.346  10.389  0.1552  0.4931 -0.2204
  594MOL0     C80116   9.153   5.205  10.360 -0.1830 -0.7290  0.1486
  594MOL0     C80117   9.226   5.218  10.229 -0.7617 -0.2585  0.5222
  594MOL0     C80118   9.375   5.263  10.238  0.1080 -0.2693 -0.1449
  594MOL0     C80119   9.457   5.150  10.220  0.1155  0.0299  0.1242
  594MOL0     C80120   9.528   5.054  10.206 -0.0150  1.4255 -0.9442
  594MOL0     C80121   8.823   5.504  10.433 -0.5066  0.4925 -0.0349
  594MOL0     C80122   8.694   5.533  10.482  0.3401 -0.1197  0.8056
  594MOL0     H80123   8.182   5.338  10.224  0.2495  3.1808 -2.2425
  594MOL0     H80124   7.939   5.376  10.198 -0.6187  3.3262 -1.6954
  594MOL0     H80125   7.742   5.471  10.563 -0.0975  1.0154  0.3069
  594MOL0     H80126   7.752   5.636  10.523  0.1183 -0.9500  1.8106
  594MOL0     H80127   7.530   5.594  10.367  1.1817  1.0952  1.3440
  594MOL0     H80128   7.538   5.431  10.432 -0.2623 -1.1251 -0.0017
  594MOL0     H80129   7.493   5.500  10.652  0.4144  0.7956  1.1186
  594MOL0     H80130   7.520   5.675  10.621  0.1587 -0.0375 -1.1745
  594MOL0     H80131   7.325   5.700  10.493  0.7677  2.2272  2.3163
  594MOL0     H80132   7.293   5.524  10.495 -0.2676  2.0702 -2.6462
  594MOL0     H80133   7.277   5.573  10.751 -1.6666 -1.8198 -0.2569
  594MOL0     H80134   7.265   5.745  10.713  0.2661 -0.4070 -0.1847
  594MOL0     H80135   7.048   5.625  10.750 -1.8355 -1.1894 -0.3666
  594MOL0     H80136   7.065   5.721  10.591 -0.0969 -0.5815 -0.6716
  594MOL0     H80137   7.069   5.540  10.455  1.1252  0.9272  0.0578
  594MOL0     H80138   7.116   5.430  10.598 -0.1872 -0.9698  1.5933
  594MOL0     H80139   6.911   5.461  10.709 -0.1050  1.5493 -0.3530
  594MOL0     H80140   6.887   5.365  10.564 -2.0968 -0.6330  2.7054
  594MOL0     H80141   6.830   5.503  10.342  0.7364  0.4924 -0.5599
  594MOL0     H80142   6.580   5.809  10.308  1.7342 -0.1928  1.2002
  594MOL0     H80143   6.680   5.706  10.205 -0.5056  1.0769 -1.1157
  594MOL0     H80144   6.406   5.609  10.329  1.6515 -0.9681  1.6920
  594MOL0     H80145   6.505   5.510  10.227  3.0814  0.2774 -0.7845
  594MOL0     H80146   6.471   5.647  10.039 -2.2732  2.4195 -1.7747
  594MOL0     H80147   6.403   5.782  10.137  1.7992  0.3382  1.4398
  594MOL0     H80148   6.278   5.493  10.142  0.2350  0.9404 -0.1422
  594MOL0     H80149   6.264   5.590  10.001  1.4928 -0.5587 -0.1883
  594MOL0     H80150   6.001   5.806  10.276 -0.1639  2.3105 -1.9645
  594MOL0     H80151   5.742   5.899  10.307  2.1674 -0.5345 -0.1508
  594MOL0     H80152   5.627   5.768  10.316  0.0594 -1.4617  2.7938
  594MOL0     H80153   5.768   5.770  10.421 -1.2633  2.7533  1.1618
  594MOL0     H80154   5.500   5.302  10.125  0.8830  1.8279  1.1292
  594MOL0     H80155   5.240   5.235  10.132 -0.7862  1.3792 -1.7436
  594MOL0     H80156   5.020   5.207  10.141  0.5913  0.2949  1.6392
  594MOL0     H80157   5.044   5.354  10.237 -1.0425 -0.7547  0.5728
  594MOL0     H80158   4.809   5.416  10.147  1.8185  0.7243 -1.0220
  594MOL0     H80159   4.807   5.277  10.046  1.8196 -1.4714 -0.7586
  594MOL0     H80160   4.870   5.274  10.342  0.6001 -0.2449  0.1176
  594MOL0     H80161   4.812   5.130  10.264  1.7997  0.3697 -0.0834
  594MOL0     H80162   4.643   5.377  10.317 -0.3236  0.6395 -0.2358
  594MOL0     H80163   4.592   5.242  10.219  0.5526  2.2598 -0.1699
  594MOL0     H80164   4.689   5.192  10.500 -0.7925 -1.2840  1.1950
  594MOL0     H80165   4.595   5.087  10.393 -0.3261  1.0762 -0.6898
  594MOL0     H80166   4.462   5.186  10.592 -0.2434 -0.3440  0.2478
  594MOL0     H80167   4.476   5.342  10.496 -3.2784  0.1008  1.1680
  594MOL0     H80168   4.353   5.090  10.384  3.0462 -0.1959 -0.7519
  594MOL0     H80169   4.380   5.240  10.311  0.1442 -0.3053  0.8137
  594MOL0     H80170   4.139   5.247  10.370  0.5497  2.6236 -0.3213
  594MOL0     H80171   4.229   5.357  10.478  2.9952  0.2618  1.0978
  594MOL0     H80172   5.134   5.606   9.950  0.2716  1.0298  2.4556
  594MOL0     H80173   5.391   5.662   9.929  1.9456 -1.1771  0.2929
  594MOL0     H80174   5.820   5.447  10.003 -1.3022  0.4059 -0.7791
  594MOL0     H80175   6.069   5.497  10.016  1.3859  4.6831 -1.7193
  594MOL0     H80176   7.960   5.645  10.551  0.7950  1.7989 -0.0855
  594MOL0     H80177   8.193   5.634  10.530 -0.5175  1.6045 -3.3155
  594MOL0     H80178   8.519   5.302  10.323  0.0414 -3.0598  1.2574
  594MOL0     H80179   8.749   5.224  10.264  1.5747  0.1323 -0.3483
  594MOL0     H80180   9.155   5.423  10.387 -0.0762  0.7239 -0.4763
  594MOL0     H80181   9.043   5.339  10.493  1.3157  0.8779  0.1946
  594MOL0     H80182   9.088   5.117  10.357  0.9511 -1.5636 -0.3073
  594MOL0     H80183   9.211   5.178  10.448  1.5212  0.2301 -0.6444
  594MOL0     H80184   9.180   5.303  10.176  0.1862 -1.5085 -2.5118
  594MOL0     H80185   9.215   5.131  10.164  3.7160 -0.7853  0.1371
  594MOL0     H80186   9.399   5.305  10.336  1.9454 -0.9348 -0.2791
  594MOL0     H80187   9.396   5.328  10.152  0.6261  0.1484  0.2888
  594MOL0     H80188   9.593   4.970  10.219  1.8926  3.0006  0.3004
  594MOL0     H80189   8.899   5.573  10.467  0.9031 -1.6128  1.2989
  594MOL0     H80190   8.672   5.612  10.554 -0.9227  1.1286 -0.8580
  595MOL0     O80191   5.960   2.470   7.192  0.1177 -0.3397  0.5780
  595MOL0     C80192   5.925   2.584   7.152 -0.1533  0.1092 -0.1263
  595MOL0     O80193   5.799   2.630   7.150  0.5768  0.6582 -0.3626
  595MOL0     C80194   5.690   2.541   7.174  0.3269 -0.5010 -0.3844
  595MOL0     C80195   5.581   2.565   7.096 -0.4387 -0.1046  1.0541
  595MOL0     C80196   5.465   2.491   7.104  0.3841  0.7301 -0.4585
  595MOL0     C80197   5.451   2.375   7.184  0.3070 -1.0393 -0.6381
  595MOL0     O80198   5.330   2.307   7.179 -0.3411 -0.3502  0.3879
  595MOL0     C80199   5.326   2.174   7.223  0.6000  0.0169 -0.3616
  595MOL0     C80200   5.198   2.144   7.313  0.0915 -0.3400 -0.7444
  595MOL0     C80201   5.073   2.201   7.242  0.8951  0.0813  0.1029
  595MOL0     C80202   4.951   2.106   7.247 -0.3885 -0.4458 -1.0631
  595MOL0     C80203   4.845   2.151   7.163  0.8829  1.8626 -0.1715
  595MOL0     C80204   4.735   2.034   7.185 -0.4705 -0.0993  0.0452
  595MOL0     C80205   4.612   2.075   7.101 -0.3542 -0.4358 -0.1606
  595MOL0     C80206   4.493   1.978   7.095  0.1465  0.1663 -0.1702
  595MOL0     N80207   4.385   2.030   7.003  0.0873 -0.0820  0.3454
  595MOL0     C80208   4.411   2.093   6.884 -0.0896 -0.2140  0.7793
  595MOL0     C80209   4.292   2.132   6.842 -0.6778 -0.0834  0.1610
  595MOL0     C80210   4.270   2.215   6.720  0.6646 -0.3579 -0.7938
  595MOL0     C80211   4.337   2.177   6.593 -0.6448  0.4548 -0.2066
  595MOL0     C80212   4.296   2.027   6.542 -0.0575 -0.8948 -0.5879
  595MOL0     C80213   4.151   1.989   6.526  0.4325 -0.0766  0.8541
  595MOL0     O80214   4.103   2.058   6.415  0.3271 -1.1403  0.0681
  595MOL0     C80215   3.981   2.111   6.404 -0.7523  0.5614 -0.0904
  595MOL0     C80216   3.960   2.211   6.307 -0.0841 -0.7583 -0.0592
  595MOL0     C80217   3.842   2.280   6.294 -0.0911  0.5815 -0.0603
  595MOL0     C80218   3.817   2.392   6.198 -0.0470  0.3081  0.0796
  595MOL0     C80219   3.733   2.236   6.378 -0.1421 -0.5292 -0.0276
  595MOL0     C80220   3.597   2.297   6.384 -0.4726 -0.2908 -0.8015
  595MOL0     O80221   3.487   2.219   6.420 -0.9354  0.6920  0.0716
  595MOL0     C80222   3.364   2.278   6.434  0.0608 -0.8407 -0.5361
  595MOL0     C80223   3.310   2.278   6.567  0.3532 -0.6192 -0.9231
  595MOL0     C80224   3.182   2.335   6.592 -0.5699 -0.6139 -0.3593
  595MOL0     C80225   3.117   2.395   6.481  0.3072 -0.4403 -0.5181
  595MOL0     O80226   2.998   2.464   6.499 -0.9056 -0.6378  0.7921
  595MOL0     C80227   2.967   2.581   6.415 -0.3035 -0.0083 -0.6193
  595MOL0     C80228   3.067   2.695   6.419 -0.5408  0.1301  0.0644
  595MOL0     C80229   3.116   2.725   6.565  0.6395 -0.5666  0.6939
  595MOL0     C80230   3.167   2.871   6.566  0.4012 -0.1633  0.1241
  595MOL0     C80231   3.302   2.889   6.491 -0.1798 -0.3598  0.4922
  595MOL0     C80232   3.362   3.030   6.477  0.1124 -0.0575 -0.4854
  595MOL0     C80233   3.265   3.127   6.404 -1.6513  0.2271  0.7697
  595MOL0     C80234   3.251   3.100   6.251  0.4521 -0.4771 -0.1476
  595MOL0    Cl80235   3.365   3.211   6.157 -0.2335  0.3063  0.3313
  595MOL0     C80236   3.163   2.378   6.354  0.6968  0.0236  0.4982
  595MOL0     C80237   3.285   2.324   6.326  0.2060  1.1402 -0.2061
  595MOL0     O80238   3.593   2.421   6.377  0.0675 -0.3792 -0.5220
  595MOL0     C80239   3.750   2.135   6.467 -0.3451  0.0018  0.1659
  595MOL0     C80240   3.876   2.071   6.485  0.0979 -0.5934 -0.1156
  595MOL0     N80241   4.193   2.085   6.928 -0.4791  0.9425  0.7130
  595MOL0     N80242   4.253   2.020   7.025  0.0718  0.0484 -0.1690
  595MOL0     C80243   5.554   2.356   7.276  0.1589 -0.2727  0.5689
  595MOL0     C80244   5.670   2.437   7.272 -0.2109 -0.9762  0.3065
  595MOL0     C80245   6.019   2.678   7.084  0.3504 -0.7980  0.0315
  595MOL0     C80246   6.159   2.650   7.090 -0.9393 -0.0266  0.4797
  595MOL0     C80247   6.250   2.736   7.022 -0.6266 -0.3349 -0.2890
  595MOL0     C80248   6.212   2.858   6.966  0.7897  0.5515  0.2239
  595MOL0     O80249   6.303   2.941   6.908 -0.1447  0.0098 -0.3701
  595MOL0     C80250   6.374   2.885   6.799  0.1030 -0.3303  0.2227
  595MOL0     C80251   6.470   2.991   6.738 -0.3049 -0.2159 -0.4362
  595MOL0     C80252   6.390   3.104   6.678  0.2282 -0.8478 -0.4779
  595MOL0     C80253   6.286   3.068   6.576  0.8770  0.0069 -0.1957
  595MOL0     C80254   6.258   3.187   6.495  0.1003 -0.1447 -0.1241
  595MOL0     C80255   6.221   3.284   6.429  0.3263 -0.4646  0.4048
  595MOL0     C80256   6.074   2.880   6.955 -0.3935 -0.4900  0.3426
  595MOL0     C80257   5.976   2.788   7.010 -0.2051 -0.4852  0.1520
  595MOL0     H80258   5.581   2.654   7.034 -2.7639  1.7443  3.5068
  595MOL0     H80259   5.385   2.518   7.036 -0.7258  2.2682  1.3920
  595MOL0     H80260   5.331   2.108   7.136  0.5711  1.3343 -1.4044
  595MOL0     H80261   5.411   2.141   7.284  2.1237 -1.9034 -3.2682
  595MOL0     H80262   5.187   2.036   7.325 -1.2209  0.0518  2.8199
  595MOL0     H80263   5.201   2.191   7.412 -1.6996 -0.8159 -0.4328
  595MOL0     H80264   5.049   2.302   7.278  0.5930  0.2877 -0.6506
  595MOL0     H80265   5.102   2.203   7.137  0.5552 -1.6736 -0.0469
  595MOL0     H80266   4.985   2.007   7.215  0.2065  0.3254 -2.9277
  595MOL0     H80267   4.911   2.113   7.349  1.1012  2.1096 -0.5544
  595MOL0     H80268   4.803   2.246   7.198  0.6088  1.0612  1.8245
  595MOL0     H80269   4.871   2.141   7.058  0.1164  2.5913 -0.4490
  595MOL0     H80270   4.769   1.933   7.157  1.1885  0.2587  0.6543
  595MOL0     H80271   4.715   2.030   7.292 -1.3472 -0.3348 -0.1174
  595MOL0     H80272   4.583   2.175   7.137 -1.5561 -0.9368  0.3171
  595MOL0     H80273   4.649   2.095   7.000  2.7365  1.6704  1.2185
  595MOL0     H80274   4.466   1.962   7.200 -0.0432 -1.8572 -0.4840
  595MOL0     H80275   4.534   1.885   7.054  0.8978  0.2481  0.3631
  595MOL0     H80276   4.505   2.105   6.831  0.0350 -0.3781  0.9591
  595MOL0     H80277   4.162   2.219   6.702  0.8130  1.1962 -1.5011
  595MOL0     H80278   4.312   2.311   6.750  0.7623 -1.0139  1.3366
  595MOL0     H80279   4.445   2.193   6.599 -0.7658  1.6078 -0.7109
  595MOL0     H80280   4.308   2.252   6.519  0.2755  1.0530  0.0157
  595MOL0     H80281   4.335   1.959   6.618  0.7455  0.8864  0.6455
  595MOL0     H80282   4.338   1.998   6.445 -1.1503 -0.5873 -1.1747
  595MOL0     H80283   4.090   2.023   6.610 -1.3636  2.2447 -1.2665
  595MOL0     H80284   4.143   1.882   6.504 -0.8318 -0.3585  2.4783
  595MOL0     H80285   4.040   2.252   6.246 -3.0307  4.4344 -0.9646
  595MOL0     H80286   3.715   2.387   6.157  0.7314 -2.4074 -1.7970
  595MOL0     H80287   3.828   2.492   6.241  0.7312 -0.2825  1.3144
  595MOL0     H80288   3.881   2.394   6.110 -0.7067 -2.6596 -0.5722
  595MOL0     H80289   3.374   2.231   6.641 -1.7524 -0.6379  0.9700
  595MOL0     H80290   3.129   2.334   6.687 -2.7972  0.1463 -1.5301
  595MOL0     H80291   2.941   2.559   6.312  0.3326  0.3245 -0.8577
  595MOL0     H80292   2.867   2.615   6.446 -0.4007 -2.1056  1.7020
  595MOL0     H80293   3.154   2.681   6.354  0.7838  3.4673  0.9276
  595MOL0     H80294   3.010   2.783   6.385 -0.7240  0.9121  2.2363
  595MOL0     H80295   3.199   2.657   6.585 -0.8494 -3.5143 -2.1782
  595MOL0     H80296   3.040   2.720   6.644  2.4309  4.4037  3.1248
  595MOL0     H80297   3.084   2.934   6.534  0.3714 -0.4266 -0.3235
  595MOL0     H80298   3.192   2.893   6.670 -1.5700 -1.1941  0.8639
  595MOL0     H80299   3.288   2.851   6.389 -3.0284  2.6968 -0.4390
  595MOL0     H80300   3.379   2.841   6.552  2.5419 -0.6520 -2.8589
  595MOL0     H80301   3.379   3.068   6.578  0.4264  2.1941 -1.3172
  595MOL0     H80302   3.457   3.021   6.424  0.3451 -0.6097  0.0209
  595MOL0     H80303   3.311   3.225   6.421  0.7283 -0.8932  1.2227
  595MOL0     H80304   3.167   3.123   6.453 -2.0353  1.3724  0.1339
  595MOL0     H80305   3.151   3.124   6.215 -0.0247 -2.6988 -0.4294
  595MOL0     H80306   3.259   2.996   6.218  4.3679 -0.7360  1.0279
  595MOL0     H80307   3.101   2.409   6.270 -0.7485  0.2982  1.6320
  595MOL0     H80308   3.328   2.306   6.228  1.4346 -1.4864  0.7404
  595MOL0     H80309   3.663   2.092   6.517 -1.3526 -0.1552 -1.6480
  595MOL0     H80310   3.879   1.982   6.547 -1.3147  0.1321  1.0573
  595MOL0     H80311   5.541   2.280   7.352  0.1908 -0.7786  0.0759
  595MOL0     H80312   5.751   2.419   7.342 -1.0393 -1.3777  1.1815
  595MOL0     H80313   6.204   2.562   7.133 -0.1093  0.3019  0.3046
  595MOL0     H80314   6.354   2.711   7.038 -0.5265 -1.5631 -2.4564
  595MOL0     H80315   6.432   2.802   6.840  0.2385  0.1322  0.9879
  595MOL0     H80316   6.311   2.839   6.722  1.4245 -1.9691  0.0555
  595MOL0     H80317   6.531   2.955   6.655  0.5438  2.0219 -0.8395
  595MOL0     H80318   6.543   3.013   6.816 -0.1891 -1.9125 -0.0201
  595MOL0     H80319   6.461   3.178   6.640  3.2488 -2.8875  0.8129
  595MOL0     H80320   6.329   3.150   6.757  0.4111  3.0017 -2.3546
  595MOL0     H80321   6.198   3.029   6.629  0.1511  0.8706 -0.7163
  595MOL0     H80322   6.321   2.993   6.505 -0.6321 -1.1601  0.2426
  595MOL0     H80323   6.186   3.357   6.359  3.4928 -0.5513 -1.4816
  595MOL0     H80324   6.046   2.965   6.893 -5.3752 -1.3125  1.0718
  595MOL0     H80325   5.874   2.822   6.995 -0.0791 -1.1814 -2.8225
  596MOL0     O80326   0.555   1.118   7.032 -1.1268 -0.1598  0.2631
  596MOL0     C80327   0.519   1.012   7.080  0.3811 -0.0670  0.3244
  596MOL0     O80328   0.555   0.969   7.203  0.4189  0.2570 -0.4339
  596MOL0     C80329   0.643   1.040   7.279  0.3496  0.6178  0.5675
  596MOL0     C80330   0.775   1.063   7.231 -0.3320  0.3120  0.7862
  596MOL0     C80331   0.873   1.128   7.302  0.2996 -0.0700 -0.9800
  596MOL0     C80332   0.849   1.174   7.435  0.6514 -0.1190  0.4781
  596MOL0     O80333   0.956   1.237   7.493  0.1431 -0.9481  0.4684
  596MOL0     C80334   0.930   1.336   7.592 -0.1599 -0.4278 -0.2138
  596MOL0     C80335   1.058   1.398   7.632  0.2951  0.3579  0.4165
  596MOL0     C80336   1.120   1.333   7.751  0.1519 -0.3538  0.0675
  596MOL0     C80337   1.262   1.367   7.778 -0.1682 -0.2341  0.7596
  596MOL0     C80338   1.327   1.257   7.864 -0.0600  0.3777  0.8812
  596MOL0     C80339   1.476   1.296   7.884  1.1434  0.2178 -0.2858
  596MOL0     C80340   1.523   1.232   8.007 -0.4007  0.4379 -0.6405
  596MOL0     C80341   1.675   1.226   8.037 -0.5610 -0.1972 -0.4421
  596MOL0     N80342   1.740   1.354   8.000 -0.9195  0.1997 -0.0191
  596MOL0     C80343   1.761   1.464   8.082 -0.3380 -0.6779  1.3243
  596MOL0     C80344   1.821   1.555   8.004 -0.1763  0.1863 -0.7381
  596MOL0     C80345   1.859   1.699   8.040  0.3211  0.2681 -0.3604
  596MOL0     C80346   1.774   1.760   8.147 -0.2843  0.1496  0.2878
  596MOL0     C80347   1.636   1.779   8.104 -0.0781 -0.4679  0.1040
  596MOL0     C80348   1.547   1.812   8.229 -0.0195 -0.3669 -0.6440
  596MOL0     O80349   1.555   1.712   8.332  0.4534  0.8519  0.5544
  596MOL0     C80350   1.468   1.602   8.323 -0.2635  0.1087  0.4394
  596MOL0     C80351   1.374   1.567   8.223  0.1377  1.2675  0.3796
  596MOL0     C80352   1.272   1.463   8.243  0.1636 -0.2456  0.7198
  596MOL0     C80353   1.176   1.427   8.135  0.4317  0.2887  0.4516
  596MOL0     C80354   1.253   1.410   8.372  0.0961 -0.6469 -0.2579
  596MOL0     C80355   1.144   1.314   8.412 -0.1593 -0.2108 -0.2092
  596MOL0     O80356   1.020   1.309   8.343 -1.0541 -0.1703 -0.0537
  596MOL0     C80357   0.920   1.227   8.370  0.6385  0.2451  0.8598
  596MOL0     C80358   0.786   1.266   8.340 -0.5077 -0.3427  0.2747
  596MOL0     C80359   0.679   1.190   8.373 -0.1099  0.2373  0.6795
  596MOL0     C80360   0.694   1.064   8.429 -0.5528 -0.2541 -0.2387
  596MOL0     O80361   0.595   0.983   8.472 -0.5243  0.5022 -1.0583
  596MOL0     C80362   0.465   1.029   8.434  0.2443 -0.7646  0.0841
  596MOL0     C80363   0.358   0.933   8.486  0.5869  0.0177 -0.2588
  596MOL0     C80364   0.214   0.991   8.489  0.2796  0.0073  0.2781
  596MOL0     C80365   0.107   0.895   8.530 -1.4094  0.6745 -0.2832
  596MOL0     C80366  -0.019   0.980   8.545  0.2616  0.9449  0.2019
  596MOL0     C80367  -0.134   0.889   8.591  1.0857  0.5281 -0.0735
  596MOL0     C80368  -0.257   0.975   8.637  0.4556  0.3214 -0.0817
  596MOL0     C80369  -0.357   1.035   8.541  0.0942 -0.3450 -0.0039
  596MOL0    Cl80370  -0.419   1.183   8.627 -0.1675 -0.0024  0.1919
  596MOL0     C80371   0.829   1.020   8.448  0.1000  0.5169 -0.7273
  596MOL0     C80372   0.941   1.097   8.414  1.1703 -0.5277 -0.9178
  596MOL0     O80373   1.173   1.243   8.504  0.1619  0.0734 -0.4462
  596MOL0     C80374   1.348   1.450   8.475  0.3276  0.2538  0.4917
  596MOL0     C80375   1.446   1.546   8.449  0.3520 -0.4079  0.9075
  596MOL0     N80376   1.836   1.507   7.876 -0.6065 -0.2855 -0.4034
  596MOL0     N80377   1.786   1.385   7.874  0.3804 -0.0193 -0.1882
  596MOL0     C80378   0.715   1.152   7.482  0.0328 -0.2897 -0.3210
  596MOL0     C80379   0.615   1.082   7.407 -0.4168  0.2596 -0.4353
  596MOL0     C80380   0.427   0.932   7.007  0.2111  0.1054  0.4014
  596MOL0     C80381   0.383   0.982   6.879  0.5027  0.9244  0.1384
  596MOL0     C80382   0.298   0.912   6.804  0.4076  0.5217 -0.6602
  596MOL0     C80383   0.247   0.790   6.840  0.4413 -0.5775 -0.6580
  596MOL0     O80384   0.154   0.733   6.759 -0.0209 -0.1269  0.8313
  596MOL0     C80385   0.083   0.616   6.798 -0.1591 -0.3676 -0.1686
  596MOL0     C80386  -0.020   0.593   6.695  0.0270  0.1603 -0.4981
  596MOL0     C80387  -0.106   0.714   6.651  0.3789 -0.1369  0.4851
  596MOL0     C80388  -0.199   0.675   6.535  0.0182  0.7272  0.0527
  596MOL0     C80389  -0.290   0.565   6.574 -0.0152 -0.0487  0.2463
  596MOL0     C80390  -0.375   0.489   6.617  0.1865 -0.1952  0.6771
  596MOL0     C80391   0.279   0.741   6.972  0.7604 -0.2946  0.8482
  596MOL0     C80392   0.370   0.809   7.050  0.0032  0.2295  0.2064
  596MOL0     H80393   0.808   1.036   7.131  0.0630 -1.1104  1.2782
  596MOL0     H80394   0.973   1.151   7.265  0.1950  1.9242 -0.1672
  596MOL0     H80395   0.862   1.408   7.545  1.7640 -1.4955 -5.2559
  596MOL0     H80396   0.882   1.300   7.683 -1.3761  1.3021 -0.1234
  596MOL0     H80397   1.130   1.388   7.550 -2.7163 -2.8426 -2.1169
  596MOL0     H80398   1.040   1.505   7.647 -2.5282 -0.1436  1.2591
  596MOL0     H80399   1.059   1.358   7.838  1.5995  2.0347  0.4956
  596MOL0     H80400   1.117   1.225   7.736  1.2204 -0.5814  1.3228
  596MOL0     H80401   1.311   1.385   7.682  2.9420  0.0064  2.2556
  596MOL0     H80402   1.265   1.462   7.832  1.4622  1.3390 -1.8668
  596MOL0     H80403   1.277   1.227   7.957 -0.4421 -0.8777  0.2963
  596MOL0     H80404   1.310   1.166   7.806 -2.0872  0.2266  1.6054
  596MOL0     H80405   1.540   1.265   7.801 -0.1495 -1.4154 -0.7272
  596MOL0     H80406   1.490   1.403   7.896 -0.6915  0.6048 -1.2969
  596MOL0     H80407   1.480   1.271   8.100  0.3396 -1.0361  0.3637
  596MOL0     H80408   1.481   1.132   8.009  1.1140 -0.2211  0.6908
  596MOL0     H80409   1.717   1.149   7.970  1.2800  1.4287 -1.2626
  596MOL0     H80410   1.698   1.205   8.142 -1.0697  1.2079 -0.0433
  596MOL0     H80411   1.728   1.467   8.186 -0.3995 -0.6858  1.3062
  596MOL0     H80412   1.960   1.693   8.081  1.1846 -3.3711 -2.5327
  596MOL0     H80413   1.857   1.759   7.949 -0.7972 -0.3327 -0.7482
  596MOL0     H80414   1.821   1.854   8.176 -1.0708  0.6249  0.0347
  596MOL0     H80415   1.790   1.705   8.241 -0.3139  0.9235  0.7524
  596MOL0     H80416   1.600   1.686   8.061  0.7320 -0.5631 -0.3879
  596MOL0     H80417   1.622   1.846   8.019 -0.0038  2.4081  2.2050
  596MOL0     H80418   1.441   1.832   8.213 -0.3078 -1.4914 -0.1687
  596MOL0     H80419   1.590   1.910   8.253 -0.2551  0.1600 -2.2401
  596MOL0     H80420   1.382   1.609   8.124  1.3749  2.9064  1.1192
  596MOL0     H80421   1.080   1.467   8.167  0.2903  1.5511 -1.3827
  596MOL0     H80422   1.219   1.479   8.049  1.0193  0.1490  0.6562
  596MOL0     H80423   1.169   1.323   8.100  1.8138  1.0227 -2.2603
  596MOL0     H80424   0.773   1.364   8.296  0.4923  0.2319  1.2009
  596MOL0     H80425   0.580   1.235   8.370 -1.0434 -1.7501 -1.4073
  596MOL0     H80426   0.434   1.129   8.467 -4.0433 -1.8747  0.0684
  596MOL0     H80427   0.454   1.032   8.325  2.4793  1.3912 -0.1528
  596MOL0     H80428   0.356   0.845   8.420 -1.5959  0.5119 -0.9317
  596MOL0     H80429   0.375   0.889   8.585 -2.4433 -2.3839 -0.6342
  596MOL0     H80430   0.198   1.029   8.387  0.0629 -0.6639  0.0574
  596MOL0     H80431   0.213   1.077   8.556 -3.4393  0.1002  0.2737
  596MOL0     H80432   0.098   0.823   8.448  0.2358  0.1798 -0.0634
  596MOL0     H80433   0.129   0.838   8.621  1.1496  1.1083 -0.5401
  596MOL0     H80434  -0.047   1.051   8.467  1.0274  0.4811 -0.5026
  596MOL0     H80435  -0.007   1.042   8.634 -0.5777  0.3865  0.7300
  596MOL0     H80436  -0.175   0.838   8.503  0.7530 -0.4571  0.6373
  596MOL0     H80437  -0.101   0.816   8.665  0.3316 -1.7486 -1.8792
  596MOL0     H80438  -0.216   1.049   8.706 -2.0009  2.1926 -0.4651
  596MOL0     H80439  -0.303   0.892   8.692 -1.9073  1.2240 -0.5833
  596MOL0     H80440  -0.426   0.953   8.519 -1.8944  1.9940 -3.4068
  596MOL0     H80441  -0.294   1.077   8.462 -0.8283  2.8853  0.8153
  596MOL0     H80442   0.843   0.923   8.494 -0.1034  0.9592  0.3004
  596MOL0     H80443   1.039   1.054   8.433  1.7013  0.0041 -2.2993
  596MOL0     H80444   1.336   1.415   8.577  2.1911  2.9220  1.7727
  596MOL0     H80445   1.498   1.591   8.533 -1.0746  0.0948  1.5493
  596MOL0     H80446   0.700   1.193   7.581 -3.3211  1.4069 -1.3560
  596MOL0     H80447   0.516   1.061   7.448 -0.5645  0.8165 -0.5005
  596MOL0     H80448   0.418   1.074   6.833  2.8924  0.8584  1.6620
  596MOL0     H80449   0.258   0.956   6.714 -3.3659 -1.5897 -0.2541
  596MOL0     H80450   0.156   0.534   6.798  0.8312  0.4932 -0.8563
  596MOL0     H80451   0.032   0.622   6.895  0.1210  1.0508 -0.0827
  596MOL0     H80452  -0.087   0.509   6.716 -2.3529  1.5885 -1.9061
  596MOL0     H80453   0.032   0.552   6.608 -2.3018 -0.3891 -1.7131
  596MOL0     H80454  -0.029   0.787   6.625  0.6564 -1.1463 -1.6699
  596MOL0     H80455  -0.158   0.751   6.740  2.8235  3.2991  0.6736
  596MOL0     H80456  -0.140   0.637   6.452 -2.1958 -0.1628 -1.2088
  596MOL0     H80457  -0.250   0.765   6.499  1.6032  0.9417 -1.7840
  596MOL0     H80458  -0.451   0.419   6.647 -0.3706  0.0404 -0.1581
  596MOL0     H80459   0.225   0.656   7.013 -1.5590  1.3859  1.4200
  596MOL0     H80460   0.403   0.762   7.142 -1.3923 -1.5842 -0.1679
  597MOL0     O80461   6.595   2.581   6.615 -0.6809  0.5125 -0.0333
  597MOL0     C80462   6.600   2.456   6.634  0.0267 -0.2645 -0.5858
  597MOL0     O80463   6.498   2.373   6.613  0.1516  0.2128  0.3341
  597MOL0     C80464   6.382   2.430   6.576  0.2574  0.2135 -0.4674
  597MOL0     C80465   6.325   2.429   6.450  0.5726 -0.2349 -0.3802
  597MOL0     C80466   6.203   2.489   6.418 -0.1519 -0.1535  0.2202
  597MOL0     C80467   6.136   2.564   6.519 -0.4223 -0.4938  0.0250
  597MOL0     O80468   6.029   2.629   6.483 -0.2085 -0.0452 -0.4914
  597MOL0     C80469   5.977   2.745   6.555  0.4703 -0.0535 -0.1204
  597MOL0     C80470   5.862   2.808   6.466  0.2384  0.4367  0.0749
  597MOL0     C80471   5.908   2.863   6.334 -0.5153  0.1689 -0.2961
  597MOL0     C80472   5.803   2.928   6.244 -0.0321 -0.1435 -0.0141
  597MOL0     C80473   5.686   3.008   6.315 -0.4084 -0.4677  0.1608
  597MOL0     C80474   5.748   3.142   6.365 -0.3477 -0.0429 -0.0868
  597MOL0     C80475   5.636   3.249   6.374 -0.2939  0.4667 -0.5884
  597MOL0     C80476   5.550   3.223   6.501 -0.3611  0.9013  0.0557
  597MOL0     N80477   5.450   3.333   6.506 -0.2612 -0.6584  0.5468
  597MOL0     C80478   5.313   3.324   6.496 -0.4282 -0.0760 -0.3205
  597MOL0     C80479   5.266   3.439   6.546  0.4642 -0.5944 -0.5805
  597MOL0     C80480   5.118   3.469   6.536 -0.1289  1.1505  0.4914
  597MOL0     C80481   5.036   3.396   6.645 -0.1309 -0.0555  0.6668
  597MOL0     C80482   4.903   3.330   6.607 -0.3518 -0.0879 -0.7601
  597MOL0     C80483   4.867   3.212   6.702  0.1468 -0.1114 -0.1061
  597MOL0     O80484   4.748   3.143   6.648  0.2714 -0.6513  0.1727
  597MOL0     C80485   4.665   3.083   6.729  0.3411  0.1255  0.7893
  597MOL0     C80486   4.706   3.006   6.837 -0.4542  0.6983  0.4810
  597MOL0     C80487   4.617   2.923   6.912  0.1278 -0.3367 -0.5244
  597MOL0     C80488   4.683   2.828   7.016  0.1956  0.2956  0.1079
  597MOL0     C80489   4.481   2.955   6.907  0.4482 -0.7822  0.2959
  597MOL0     C80490   4.377   2.919   7.008  0.7876  0.0691  0.6782
  597MOL0     O80491   4.245   2.949   6.985 -0.0052 -0.1099  0.5029
  597MOL0     C80492   4.150   2.866   7.029  0.1717  0.0374 -0.2125
  597MOL0     C80493   4.167   2.729   7.056 -0.5435 -0.2421  0.2663
  597MOL0     C80494   4.060   2.651   7.102 -0.4363  1.3460 -0.2894
  597MOL0     C80495   3.931   2.702   7.110 -0.0282  0.8833  0.1064
  597MOL0     O80496   3.820   2.623   7.136  0.6616 -0.3851  0.4476
  597MOL0     C80497   3.828   2.498   7.201  0.0537  0.1788 -0.9477
  597MOL0     C80498   3.871   2.500   7.348  0.2934  1.0722 -0.2753
  597MOL0     C80499   3.790   2.603   7.430 -0.0862  0.1206  0.4896
  597MOL0     C80500   3.738   2.545   7.566 -0.3414  0.0985  0.4159
  597MOL0     C80501   3.653   2.642   7.643  0.2897  0.2057 -0.1825
  597MOL0     C80502   3.721   2.755   7.722  0.1907 -0.4528 -0.1256
  597MOL0     C80503   3.618   2.858   7.773 -0.2088  0.0585  0.1616
  597MOL0     C80504   3.665   2.947   7.887  0.0195 -0.5050 -0.4255
  597MOL0    Cl80505   3.832   3.025   7.863 -0.0165  0.4439 -0.3090
  597MOL0     C80506   3.918   2.844   7.096 -0.3901  0.2633 -1.1919
  597MOL0     C80507   4.027   2.923   7.049  0.2580  0.0890  0.9919
  597MOL0     O80508   4.420   2.841   7.091  0.0726 -0.0978 -0.4234
  597MOL0     C80509   4.436   3.040   6.801 -0.1619 -0.2764 -0.6879
  597MOL0     C80510   4.522   3.102   6.709 -0.2974 -0.0317 -0.6241
  597MOL0     N80511   5.372   3.523   6.577  0.4188  0.2047  0.1162
  597MOL0     N80512   5.478   3.450   6.564 -0.5978 -0.3002  0.3429
  597MOL0     C80513   6.177   2.554   6.652 -0.4990 -0.8280 -0.2741
  597MOL0     C80514   6.295   2.486   6.681  0.0726 -0.8665  0.0051
  597MOL0     C80515   6.721   2.397   6.706 -0.5069 -0.2331  0.2654
  597MOL0     C80516   6.831   2.476   6.754  0.2721 -0.0996 -0.3815
  597MOL0     C80517   6.942   2.410   6.807 -0.1828 -0.3525  0.4668
  597MOL0     C80518   6.954   2.271   6.822 -0.9390  1.2821 -0.3168
  597MOL0     O80519   7.072   2.213   6.872  0.1399  0.3291  0.1186
  597MOL0     C80520   7.079   2.067   6.876  0.8589 -0.3459  0.0976
  597MOL0     C80521   7.217   2.008   6.886  0.4307  0.2792  0.2829
  597MOL0     C80522   7.278   2.035   7.024  0.0018  0.0620 -0.4311
  597MOL0     C80523   7.419   1.983   7.043 -0.1011 -0.6315 -0.1357
  597MOL0     C80524   7.457   1.996   7.184  0.0852  0.1679 -0.5436
  597MOL0     C80525   7.494   2.002   7.297  0.1162 -0.0039 -0.2988
  597MOL0     C80526   6.842   2.200   6.778 -0.2905 -0.4209  0.0547
  597MOL0     C80527   6.725   2.263   6.731  0.0048  0.6330  0.1026
  597MOL0     H80528   6.370   2.376   6.367  0.2669 -0.6126 -0.3087
  597MOL0     H80529   6.166   2.501   6.316  1.1153  2.4427 -0.0227
  597MOL0     H80530   5.930   2.710   6.648  0.9394 -3.9779 -1.1870
  597MOL0     H80531   6.056   2.818   6.579  1.2211 -0.1173 -2.2552
  597MOL0     H80532   5.787   2.733   6.439  0.1601 -0.1878  1.9017
  597MOL0     H80533   5.805   2.880   6.526  0.6271  0.0093  0.9836
  597MOL0     H80534   5.980   2.938   6.367 -3.0156  2.5682  0.0769
  597MOL0     H80535   5.960   2.794   6.267 -0.9735  1.2428 -1.8105
  597MOL0     H80536   5.851   2.997   6.174 -0.4876  1.2337  0.9777
  597MOL0     H80537   5.746   2.857   6.183 -1.7497  2.1233 -1.2527
  597MOL0     H80538   5.613   3.024   6.235  2.2505  0.4676 -2.2213
  597MOL0     H80539   5.623   2.960   6.391 -1.6659  2.0551  0.8568
  597MOL0     H80540   5.801   3.132   6.460 -1.8073  2.6994  1.1336
  597MOL0     H80541   5.822   3.193   6.303  3.0541 -1.7785  2.2043
  597MOL0     H80542   5.685   3.347   6.385 -0.2412  0.3079  0.8487
  597MOL0     H80543   5.568   3.241   6.290 -3.4793  3.2539  1.4752
  597MOL0     H80544   5.624   3.227   6.582  0.3399  4.2645 -0.5850
  597MOL0     H80545   5.494   3.129   6.500 -1.7426  1.6590  1.3281
  597MOL0     H80546   5.248   3.245   6.461 -1.3365  0.8386 -0.7649
  597MOL0     H80547   5.104   3.578   6.536  0.3413  1.2352 -0.9000
  597MOL0     H80548   5.079   3.435   6.439  1.8661 -0.6891  0.2518
  597MOL0     H80549   5.008   3.483   6.706  1.2887  0.7049  0.2843
  597MOL0     H80550   5.107   3.334   6.701  1.8705  0.1758 -1.4448
  597MOL0     H80551   4.902   3.310   6.500  0.8055 -0.6976 -0.6735
  597MOL0     H80552   4.825   3.406   6.620 -0.6397 -0.1592 -1.9675
  597MOL0     H80553   4.860   3.238   6.808  1.3940 -1.0712  0.2369
  597MOL0     H80554   4.954   3.145   6.707  2.4476  2.6691  0.0256
  597MOL0     H80555   4.813   2.992   6.848 -0.5811  0.6661  1.8724
  597MOL0     H80556   4.791   2.824   7.004  0.2416  1.2466  0.1272
  597MOL0     H80557   4.665   2.868   7.116  2.2123 -0.0523  0.6452
  597MOL0     H80558   4.646   2.726   7.008  0.3276  0.2106  0.5636
  597MOL0     H80559   4.263   2.689   7.025 -0.8325 -0.3719 -0.4831
  597MOL0     H80560   4.071   2.543   7.103  0.3607  1.3813 -2.1529
  597MOL0     H80561   3.723   2.469   7.205  0.3009 -0.6920 -0.5045
  597MOL0     H80562   3.893   2.422   7.158  2.0715 -1.3338  4.0058
  597MOL0     H80563   3.864   2.400   7.393 -2.5229  1.3582  0.1533
  597MOL0     H80564   3.974   2.534   7.350  0.6404  0.1517  2.9001
  597MOL0     H80565   3.701   2.642   7.379 -0.0681 -1.0822 -0.5008
  597MOL0     H80566   3.856   2.686   7.454  0.6930 -0.6217  0.9756
  597MOL0     H80567   3.686   2.451   7.552  1.1831 -0.8079  0.6061
  597MOL0     H80568   3.823   2.522   7.631 -0.6156  1.8746  1.4860
  597MOL0     H80569   3.583   2.598   7.715 -1.2233  3.6894  0.6560
  597MOL0     H80570   3.597   2.697   7.567  0.9446  2.8063  1.1053
  597MOL0     H80571   3.801   2.716   7.784  0.6507 -1.9835 -1.5964
  597MOL0     H80572   3.792   2.808   7.658  2.5480 -3.6952 -0.4385
  597MOL0     H80573   3.532   2.803   7.813  1.2360 -1.0213  1.9467
  597MOL0     H80574   3.595   2.909   7.679 -1.7046 -0.1416  0.3817
  597MOL0     H80575   3.676   2.886   7.976  2.3215  0.5658  0.1217
  597MOL0     H80576   3.598   3.024   7.925  0.3191 -1.4628  2.2381
  597MOL0     H80577   3.816   2.876   7.115  0.7254  2.0761  2.8693
  597MOL0     H80578   4.022   3.031   7.051  0.1694  0.0946  0.4474
  597MOL0     H80579   4.331   3.069   6.801  0.3564  1.9310 -2.1520
  597MOL0     H80580   4.486   3.169   6.632 -0.9866 -1.1459 -1.2884
  597MOL0     H80581   6.125   2.601   6.735  1.0650 -0.0290  0.2945
  597MOL0     H80582   6.320   2.479   6.787  0.2440 -2.8415 -0.1304
  597MOL0     H80583   6.832   2.584   6.739  2.5009  0.3553  2.2384
  597MOL0     H80584   7.028   2.472   6.833 -1.2305  0.9351  0.9417
  597MOL0     H80585   7.020   2.022   6.957  0.9293 -1.6921 -0.5712
  597MOL0     H80586   7.029   2.021   6.791  1.3431 -3.0175  1.1553
  597MOL0     H80587   7.277   2.062   6.811 -0.0246  1.4970  0.7741
  597MOL0     H80588   7.197   1.908   6.846 -2.1454  2.0337 -3.3947
  597MOL0     H80589   7.209   2.000   7.102  0.8388 -0.4539  0.0889
  597MOL0     H80590   7.270   2.143   7.039 -3.9646  0.0245 -1.0550
  597MOL0     H80591   7.488   2.034   6.975  0.9303  0.2326  1.5019
  597MOL0     H80592   7.420   1.875   7.024  0.7909 -1.3129  3.1289
  597MOL0     H80593   7.541   2.017   7.392 -3.1173  0.2550  1.4034
  597MOL0     H80594   6.830   2.093   6.786  2.6872 -0.8275 -0.0254
  597MOL0     H80595   6.644   2.205   6.689 -0.0060  1.0124 -0.4097
  598MOL0     O80596   5.531   8.755   8.145 -0.8033  0.1209  0.8643
  598MOL0     C80597   5.514   8.848   8.228 -0.1535  0.5518  0.0924
  598MOL0     O80598   5.394   8.881   8.284 -0.1973  0.5208 -0.2331
  598MOL0     C80599   5.282   8.803   8.252  0.3523 -0.1750  0.2349
  598MOL0     C80600   5.282   8.668   8.282  0.4171 -0.1583 -0.4575
  598MOL0     C80601   5.194   8.574   8.234 -0.3603  0.1970 -0.2262
  598MOL0     C80602   5.094   8.616   8.144 -0.2032  0.6936  0.2876
  598MOL0     O80603   5.028   8.517   8.064  0.1588 -0.0099 -0.1023
  598MOL0     C80604   5.004   8.543   7.925 -0.0813  0.3690  0.1460
  598MOL0     C80605   4.932   8.429   7.862 -0.0238 -0.2735 -0.0987
  598MOL0     C80606   4.787   8.408   7.913  0.1630 -0.4198  0.9220
  598MOL0     C80607   4.685   8.414   7.799  0.2574 -0.1871  0.6375
  598MOL0     C80608   4.547   8.403   7.858  1.0361  0.2186 -0.1079
  598MOL0     C80609   4.444   8.394   7.745  0.1235  0.8935 -0.8247
  598MOL0     C80610   4.299   8.376   7.798  0.9810 -0.6644 -0.3024
  598MOL0     C80611   4.265   8.240   7.862  0.2799 -0.1749 -0.0886
  598MOL0     N80612   4.306   8.128   7.774 -0.6494 -0.0917  0.2760
  598MOL0     C80613   4.418   8.043   7.787  0.1052  0.6842 -0.2777
  598MOL0     C80614   4.389   7.943   7.690  0.0586 -0.2517  0.0677
  598MOL0     C80615   4.459   7.813   7.672 -0.0058  0.1711 -1.0459
  598MOL0     C80616   4.550   7.813   7.554  0.0822 -1.3006  0.2931
  598MOL0     C80617   4.579   7.678   7.482  1.0637  0.0681  0.1289
  598MOL0     C80618   4.663   7.685   7.357 -0.0642 -0.1486 -0.0028
  598MOL0     O80619   4.736   7.807   7.342 -0.1678  0.2784  0.3375
  598MOL0     C80620   4.862   7.815   7.408 -0.2913 -0.5108  0.4504
  598MOL0     C80621   4.919   7.717   7.490  0.2649 -0.6865 -1.3109
  598MOL0     C80622   5.049   7.717   7.541 -0.0608  0.1723  0.5524
  598MOL0     C80623   5.108   7.588   7.612 -0.2767 -0.1721  0.0293
  598MOL0     C80624   5.129   7.828   7.500  0.1510 -0.3841  0.4355
  598MOL0     C80625   5.268   7.854   7.542  0.0958  0.2035 -0.1810
  598MOL0     O80626   5.317   7.980   7.544  0.2555  0.4647 -0.9175
  598MOL0     C80627   5.439   8.012   7.575 -0.0243  0.1404  0.1187
  598MOL0     C80628   5.485   7.988   7.710  0.2096 -0.1119 -0.5530
  598MOL0     C80629   5.614   8.036   7.747  0.6485 -0.8705  0.9969
  598MOL0     C80630   5.699   8.094   7.652 -0.9501 -0.4491  0.0177
  598MOL0     O80631   5.826   8.142   7.674 -0.7683  0.7372  1.2305
  598MOL0     C80632   5.893   8.096   7.788  0.3324  0.7647  0.3428
  598MOL0     C80633   6.043   8.117   7.764  0.1515  0.5643  0.5684
  598MOL0     C80634   6.099   8.247   7.808 -0.8873 -0.8252  0.0754
  598MOL0     C80635   6.245   8.270   7.767 -0.0234 -0.1855  0.4671
  598MOL0     C80636   6.286   8.416   7.778 -0.0727 -0.1958 -0.7417
  598MOL0     C80637   6.446   8.430   7.781 -0.2509  0.8886  0.3065
  598MOL0     C80638   6.515   8.409   7.651 -0.0226 -0.8955  0.4334
  598MOL0     C80639   6.651   8.487   7.647 -0.0538 -1.2673  0.0991
  598MOL0    Cl80640   6.753   8.420   7.524  0.2328  0.0622 -0.3140
  598MOL0     C80641   5.647   8.114   7.521  0.0562 -0.4662  0.5757
  598MOL0     C80642   5.522   8.075   7.481 -1.1297 -0.2957  0.1819
  598MOL0     O80643   5.334   7.761   7.568 -0.2792 -0.4917  0.1846
  598MOL0     C80644   5.072   7.930   7.420 -0.0884 -0.3879 -0.4479
  598MOL0     C80645   4.945   7.924   7.371  0.0575  0.4441 -0.5320
  598MOL0     N80646   4.267   7.968   7.632 -0.1785  0.4633  0.2988
  598MOL0     N80647   4.224   8.082   7.679 -0.4011  0.9699  0.0378
  598MOL0     C80648   5.078   8.759   8.115 -0.3875  0.0430 -0.2415
  598MOL0     C80649   5.175   8.851   8.168 -0.1056  0.4849 -0.7106
  598MOL0     C80650   5.628   8.936   8.264 -0.7543 -0.4218 -0.0160
  598MOL0     C80651   5.760   8.905   8.218 -0.2623 -0.1239  0.0190
  598MOL0     C80652   5.869   8.978   8.256  0.0738 -0.2350  0.0529
  598MOL0     C80653   5.852   9.086   8.341  0.3180  0.8824  0.1579
  598MOL0     O80654   5.978   9.143   8.383 -0.1405 -0.1327 -0.0450
  598MOL0     C80655   5.977   9.245   8.480 -0.2016  0.1831 -0.4089
  598MOL0     C80656   6.114   9.311   8.468 -0.5030  0.1062 -0.0651
  598MOL0     C80657   6.228   9.261   8.566 -0.8532  0.2487  0.1739
  598MOL0     C80658   6.263   9.108   8.550  0.0352 -0.7728 -0.3254
  598MOL0     C80659   6.377   9.084   8.639  0.3205  0.0674  0.0834
  598MOL0     C80660   6.473   9.080   8.709  0.4683 -0.0676  0.3735
  598MOL0     C80661   5.725   9.130   8.377  1.4187 -0.1705  0.5778
  598MOL0     C80662   5.614   9.055   8.333  0.8778 -0.1149  0.1049
  598MOL0     H80663   5.364   8.623   8.337  0.0136  0.6606  0.8444
  598MOL0     H80664   5.220   8.470   8.247 -0.8809  0.0439 -0.3956
  598MOL0     H80665   4.937   8.629   7.918  0.2830  0.9156  2.5653
  598MOL0     H80666   5.096   8.558   7.867 -0.3712 -1.6501 -0.9324
  598MOL0     H80667   4.926   8.446   7.754  1.7135  0.3444 -0.1305
  598MOL0     H80668   4.990   8.337   7.876 -0.7815 -1.1734 -2.4459
  598MOL0     H80669   4.773   8.308   7.953 -2.0258  0.0485  1.4847
  598MOL0     H80670   4.776   8.484   7.991  2.6863  2.7157 -1.5210
  598MOL0     H80671   4.697   8.513   7.753  2.1016  0.7063  2.8614
  598MOL0     H80672   4.701   8.328   7.733 -0.1068 -1.4321  2.1058
  598MOL0     H80673   4.534   8.312   7.918  1.2929  0.5683  0.4776
  598MOL0     H80674   4.534   8.488   7.926  0.1797 -1.5665  2.1198
  598MOL0     H80675   4.461   8.487   7.690  1.3005 -0.2751 -2.5296
  598MOL0     H80676   4.465   8.306   7.684  0.6960 -1.5333  2.5620
  598MOL0     H80677   4.270   8.464   7.856  1.4780  0.3325 -1.4888
  598MOL0     H80678   4.226   8.385   7.717 -0.0294 -1.4402  0.5017
  598MOL0     H80679   4.156   8.236   7.866  0.0946  2.8034  2.6870
  598MOL0     H80680   4.302   8.227   7.964 -1.6522  1.8929  0.9619
  598MOL0     H80681   4.481   8.049   7.875 -1.2507  2.9296  0.6427
  598MOL0     H80682   4.515   7.793   7.764  1.2193 -0.3624 -1.8731
  598MOL0     H80683   4.386   7.732   7.660  0.4309 -0.6809  1.3922
  598MOL0     H80684   4.641   7.866   7.582 -2.0687  2.0832  1.4367
  598MOL0     H80685   4.505   7.883   7.483  0.9331 -1.1744 -0.1359
  598MOL0     H80686   4.480   7.637   7.459  0.7111 -0.7337  2.8053
  598MOL0     H80687   4.621   7.610   7.556  0.9767 -0.0646  0.0574
  598MOL0     H80688   4.586   7.690   7.280 -0.2824  0.3872  0.2425
  598MOL0     H80689   4.715   7.591   7.336  0.3901 -0.4217  2.1540
  598MOL0     H80690   4.852   7.639   7.527 -3.5494  2.3647 -1.0921
  598MOL0     H80691   5.029   7.513   7.618  1.7708 -2.6444 -1.5458
  598MOL0     H80692   5.194   7.550   7.556  0.0002 -1.3475  1.2178
  598MOL0     H80693   5.128   7.618   7.715 -1.5630  0.4790  0.1057
  598MOL0     H80694   5.411   7.961   7.785 -0.2819  0.9728 -0.6356
  598MOL0     H80695   5.648   8.017   7.848 -1.9513  1.9819  2.5479
  598MOL0     H80696   5.859   8.159   7.871 -2.1776 -1.7931  1.4288
  598MOL0     H80697   5.868   7.991   7.802 -1.3671  0.7110 -2.2688
  598MOL0     H80698   6.097   8.044   7.825  0.3298 -0.0173 -0.2725
  598MOL0     H80699   6.073   8.089   7.663  0.3175 -3.4403  1.5800
  598MOL0     H80700   6.085   8.244   7.916 -1.2948  1.0448  0.1076
  598MOL0     H80701   6.039   8.331   7.772  1.1809  1.1061  0.8934
  598MOL0     H80702   6.303   8.204   7.832  0.7566 -1.0955 -1.1002
  598MOL0     H80703   6.262   8.241   7.663  0.8170 -3.4193  1.4041
  598MOL0     H80704   6.250   8.458   7.873 -0.8133 -1.7305 -0.3230
  598MOL0     H80705   6.243   8.483   7.703  0.1490  0.3785 -0.3615
  598MOL0     H80706   6.472   8.529   7.819  2.4372  0.0363  0.9629
  598MOL0     H80707   6.492   8.357   7.850  0.1255  1.4077  0.6134
  598MOL0     H80708   6.439   8.449   7.584 -1.7248 -1.5882  1.8684
  598MOL0     H80709   6.525   8.308   7.609 -1.4432 -0.1624 -1.8595
  598MOL0     H80710   6.689   8.485   7.749 -2.5492 -1.7819  1.1030
  598MOL0     H80711   6.642   8.591   7.612  0.5375 -0.7899  1.3003
  598MOL0     H80712   5.718   8.159   7.453  1.2496 -1.7837  0.8924
  598MOL0     H80713   5.497   8.100   7.378  1.5596 -0.7328 -0.6507
  598MOL0     H80714   5.143   8.007   7.392  1.1088 -1.8600 -1.6026
  598MOL0     H80715   4.912   7.997   7.298 -1.2354  1.1376  0.6796
  598MOL0     H80716   4.994   8.791   8.054 -1.1261 -3.5402 -1.3700
  598MOL0     H80717   5.184   8.957   8.149 -1.0084  0.6596 -0.1910
  598MOL0     H80718   5.773   8.817   8.155  0.6304  0.1412 -0.1779
  598MOL0     H80719   5.962   8.941   8.215 -1.0319 -0.3859 -2.4733
  598MOL0     H80720   5.899   9.315   8.451  1.1802  0.6282 -3.3797
  598MOL0     H80721   5.967   9.190   8.574  3.1784  0.3812  0.1802
  598MOL0     H80722   6.093   9.418   8.474  0.3377  0.2649  0.2185
  598MOL0     H80723   6.156   9.293   8.368  0.3568  1.6632 -0.0137
  598MOL0     H80724   6.209   9.287   8.670  3.6678  0.1297  1.2407
  598MOL0     H80725   6.324   9.308   8.540 -1.0135  0.7118  0.4244
  598MOL0     H80726   6.293   9.084   8.448 -0.8081 -1.6302 -0.3785
  598MOL0     H80727   6.183   9.042   8.584  0.4541 -0.5341  1.2095
  598MOL0     H80728   6.562   9.070   8.768  0.4090  0.2188  0.5167
  598MOL0     H80729   5.708   9.207   8.452 -0.0290  1.5238 -1.3982
  598MOL0     H80730   5.511   9.075   8.361  0.3428 -1.5199 -0.7502
  599MOL0     O80731   0.446  10.376   9.840  0.1540 -0.6548 -0.2009
  599MOL0     C80732   0.430  10.296   9.932  0.2355  0.3443  0.0423
  599MOL0     O80733   0.327  10.290  10.023  0.9054 -0.3496  0.6707
  599MOL0     C80734   0.214  10.365   9.992 -0.2576  0.2159  0.0841
  599MOL0     C80735   0.154  10.356   9.860  0.2992 -0.2827  0.6583
  599MOL0     C80736   0.034  10.438   9.836  0.1056  0.2937 -0.0843
  599MOL0     C80737  -0.011  10.524   9.937 -0.3949 -0.3086 -0.1881
  599MOL0     O80738  -0.126  10.595   9.933  0.5955 -0.3782 -0.4217
  599MOL0     C80739  -0.193  10.613   9.808  0.1600 -0.3472  0.0324
  599MOL0     C80740  -0.315  10.689   9.842 -0.9147  0.5496  0.0305
  599MOL0     C80741  -0.425  10.595   9.896  0.0116  0.3145 -0.7113
  599MOL0     C80742  -0.555  10.662   9.926 -0.4032  0.4698  0.9029
  599MOL0     C80743  -0.668  10.565   9.974  0.0570 -0.8093 -0.8279
  599MOL0     C80744  -0.630  10.496  10.104 -0.4132 -0.0989  0.0971
  599MOL0     C80745  -0.757  10.440  10.168  0.0228 -0.4491 -0.5393
  599MOL0     C80746  -0.826  10.543  10.261 -0.2365  0.0524  0.1095
  599MOL0     N80747  -0.922  10.480  10.348 -0.5577  0.2694 -0.1517
  599MOL0     C80748  -0.904  10.426  10.474  0.5471  0.4880  0.0006
  599MOL0     C80749  -1.018  10.363  10.498  0.5871  0.0626  0.1597
  599MOL0     C80750  -1.048  10.285  10.631  0.7615 -0.1535  0.4593
  599MOL0     C80751  -1.082  10.145  10.603  0.0375  0.6675  0.5975
  599MOL0     C80752  -1.073  10.066  10.735 -0.7613  0.1809  0.0782
  599MOL0     C80753  -1.117   9.923  10.719  0.3553 -0.1517 -0.4337
  599MOL0     O80754  -1.252   9.914  10.670 -0.2492  0.2781 -0.1647
  599MOL0     C80755  -1.323   9.796  10.665  0.0834  0.3088 -0.8191
  599MOL0     C80756  -1.268   9.673  10.699  0.0432 -0.3800 -0.5795
  599MOL0     C80757  -1.349   9.555  10.698  0.5814  0.7767 -0.1288
  599MOL0     C80758  -1.272   9.431  10.726  0.7430  0.5174  0.1451
  599MOL0     C80759  -1.487   9.560  10.678  0.8763  0.0587  0.1392
  599MOL0     C80760  -1.575   9.441  10.683  0.0085 -0.1482 -0.5866
  599MOL0     O80761  -1.538   9.333  10.757  0.7225 -0.2047  0.3873
  599MOL0     C80762  -1.633   9.231  10.789  0.0369 -1.3211  0.7086
  599MOL0     C80763  -1.780   9.224  10.773 -0.5635 -0.0703 -0.1653
  599MOL0     C80764  -1.841   9.103  10.798 -0.2344 -0.1246 -0.2524
  599MOL0     C80765  -1.767   8.990  10.834  0.0471  0.5583 -0.1898
  599MOL0     O80766  -1.817   8.862  10.862 -0.0488  0.3141 -0.1257
  599MOL0     C80767  -1.951   8.817  10.819  0.2049  0.3037  0.0964
  599MOL0     C80768  -2.065   8.834  10.931 -0.1851  0.0118  0.0452
  599MOL0     C80769  -2.192   8.757  10.878  0.1795 -0.2269  0.2230
  599MOL0     C80770  -2.275   8.821  10.765 -0.0873  0.2223 -0.6048
  599MOL0     C80771  -2.387   8.731  10.712  0.5160 -0.8841  0.4674
  599MOL0     C80772  -2.358   8.606  10.630 -0.2446  0.0476 -0.1044
  599MOL0     C80773  -2.279   8.633  10.495  0.2775 -0.5994 -0.6419
  599MOL0     C80774  -2.288   8.525  10.394 -0.2798  1.2298 -0.3330
  599MOL0    Cl80775  -2.447   8.539  10.304 -0.5200  0.0674  0.1500
  599MOL0     C80776  -1.629   8.998  10.846  0.1297  0.7484 -0.3388
  599MOL0     C80777  -1.562   9.118  10.823  0.2851  0.4745  0.6058
  599MOL0     O80778  -1.679   9.448  10.614  0.1487  0.0331 -0.6073
  599MOL0     C80779  -1.539   9.685  10.639 -0.2417  0.3507  0.0051
  599MOL0     C80780  -1.461   9.796  10.625 -0.5186 -0.6158  0.5469
  599MOL0     N80781  -1.110  10.378  10.393  0.2289 -0.6280 -0.3838
  599MOL0     N80782  -1.052  10.448  10.305  0.1710 -0.4947  0.7083
  599MOL0     C80783   0.065  10.535  10.054 -0.4603 -0.2146  0.0968
  599MOL0     C80784   0.173  10.457  10.082 -0.1114 -0.3699 -0.4704
  599MOL0     C80785   0.547  10.199   9.945 -0.9660 -0.0772  0.3973
  599MOL0     C80786   0.541  10.095  10.035 -0.5385 -0.4615  0.0053
  599MOL0     C80787   0.660  10.021  10.060 -0.1801 -0.8449  0.6814
  599MOL0     C80788   0.787  10.050   9.998 -0.1102 -0.3721  0.3069
  599MOL0     O80789   0.892   9.977  10.044  0.0290  0.1265 -0.1436
  599MOL0     C80790   1.032   9.982  10.008 -0.1733  0.0350 -0.1262
  599MOL0     C80791   1.106  10.109  10.079 -0.1526  0.2790 -0.1758
  599MOL0     C80792   1.262  10.093  10.060 -0.2288 -0.3506  0.3368
  599MOL0     C80793   1.328  10.220  10.109  0.6716 -0.0366 -0.2198
  599MOL0     C80794   1.472  10.197  10.132  0.1361  0.6236 -0.1272
  599MOL0     C80795   1.588  10.172  10.156  0.1386 -0.8414  0.2619
  599MOL0     C80796   0.791  10.151   9.907  0.0877 -0.1135  0.2026
  599MOL0     C80797   0.673  10.227   9.883 -0.5298  0.1002 -0.3603
  599MOL0     H80798   0.192  10.294   9.779 -0.4955 -0.0013  0.0598
  599MOL0     H80799  -0.022  10.418   9.745  0.5148  1.7336 -0.6749
  599MOL0     H80800  -0.135  10.676   9.739  1.9942 -2.5150 -0.4967
  599MOL0     H80801  -0.212  10.517   9.760  2.0394 -0.1219 -1.2876
  599MOL0     H80802  -0.299  10.774   9.908 -0.3289  1.5172 -1.3188
  599MOL0     H80803  -0.343  10.728   9.744  1.6765 -0.0449 -1.0425
  599MOL0     H80804  -0.443  10.508   9.831  2.1743 -2.4162  2.0343
  599MOL0     H80805  -0.383  10.548   9.985  1.5565 -0.1697 -1.6557
  599MOL0     H80806  -0.536  10.738  10.002 -2.9610  1.1665  0.9405
  599MOL0     H80807  -0.586  10.714   9.836  0.2116 -0.7646 -0.0509
  599MOL0     H80808  -0.764  10.614   9.990 -0.2234 -1.1806 -1.3161
  599MOL0     H80809  -0.691  10.492   9.895  0.9830  0.2406 -2.1037
  599MOL0     H80810  -0.556  10.418  10.081  0.3746  1.2414 -2.3662
  599MOL0     H80811  -0.584  10.572  10.168  1.0460 -2.5791  2.1768
  599MOL0     H80812  -0.828  10.408  10.091 -1.4671  1.3418  0.0304
  599MOL0     H80813  -0.727  10.355  10.231 -1.7878 -0.1770  0.7700
  599MOL0     H80814  -0.871  10.618  10.195 -2.4580 -1.2429  0.0447
  599MOL0     H80815  -0.753  10.593  10.325 -0.9234  1.4681 -0.1687
  599MOL0     H80816  -0.817  10.426  10.540  1.2276  1.6559 -0.8389
  599MOL0     H80817  -0.963  10.296  10.698  2.0173 -3.7574 -0.2950
  599MOL0     H80818  -1.130  10.331  10.686 -2.8305 -1.8415 -2.9515
  599MOL0     H80819  -1.015  10.103  10.527 -0.2026  0.5993  0.4221
  599MOL0     H80820  -1.185  10.132  10.567  1.0478 -3.3866 -1.5011
  599MOL0     H80821  -1.135  10.115  10.811  0.5632 -1.8327  2.6283
  599MOL0     H80822  -0.969  10.071  10.768 -0.5106  1.7726 -0.8434
  599MOL0     H80823  -1.115   9.866  10.812 -0.4599  0.8638  0.2322
  599MOL0     H80824  -1.050   9.878  10.645 -0.0192 -1.1110 -0.2014
  599MOL0     H80825  -1.160   9.666  10.711  0.1571 -2.1195 -2.1592
  599MOL0     H80826  -1.284   9.413  10.833  0.7309  1.6141  0.3389
  599MOL0     H80827  -1.317   9.347  10.673 -0.0647  0.3835  1.0158
  599MOL0     H80828  -1.166   9.446  10.705  0.3323  3.8124 -0.0336
  599MOL0     H80829  -1.834   9.306  10.727  1.7456  1.3904 -0.4111
  599MOL0     H80830  -1.947   9.114  10.778  0.1956  2.0115 -1.7205
  599MOL0     H80831  -1.982   8.866  10.726  0.7605 -1.0148 -0.8100
  599MOL0     H80832  -1.934   8.712  10.795  0.9243  0.4298  0.0473
  599MOL0     H80833  -2.028   8.797  11.027  2.6915  4.6641  1.0311
  599MOL0     H80834  -2.093   8.937  10.954 -0.5284 -0.0152 -0.2399
  599MOL0     H80835  -2.252   8.762  10.969  1.1495  2.5358  0.8050
  599MOL0     H80836  -2.170   8.654  10.847 -1.1778 -0.5559  0.2888
  599MOL0     H80837  -2.323   8.910  10.807  0.2096 -0.1009  0.4612
  599MOL0     H80838  -2.207   8.845  10.682  0.4308  1.7979  0.2344
  599MOL0     H80839  -2.439   8.803  10.649  0.4711 -1.1662  0.1770
  599MOL0     H80840  -2.461   8.698  10.786 -1.1286  0.0669 -0.7034
  599MOL0     H80841  -2.299   8.532  10.686  1.7642  3.6729  3.0285
  599MOL0     H80842  -2.452   8.563  10.595 -0.7922  0.4653  0.8159
  599MOL0     H80843  -2.173   8.651  10.514  0.4150 -0.5209 -1.4442
  599MOL0     H80844  -2.310   8.726  10.446 -0.8986 -0.9053 -0.4939
  599MOL0     H80845  -2.305   8.432  10.449  1.1641  0.7945 -0.5884
  599MOL0     H80846  -2.198   8.523  10.332  0.5813  2.1488  0.8474
  599MOL0     H80847  -1.576   8.906  10.867 -0.8372  0.7184  2.3450
  599MOL0     H80848  -1.454   9.108  10.820  0.0747 -2.7668 -0.0907
  599MOL0     H80849  -1.638   9.697  10.598 -0.1123 -1.8251 -1.1146
  599MOL0     H80850  -1.500   9.892  10.594 -1.6891 -0.6469  1.7732
  599MOL0     H80851   0.033  10.613  10.123  1.2111  1.7002 -1.1799
  599MOL0     H80852   0.242  10.476  10.164  0.1308 -0.4070 -0.6646
  599MOL0     H80853   0.453  10.086  10.097 -0.5142 -0.0243  0.1063
  599MOL0     H80854   0.654   9.952  10.143 -2.7543  0.0786  1.3576
  599MOL0     H80855   1.070   9.882  10.029 -0.4255 -0.5908 -2.4049
  599MOL0     H80856   1.047  10.003   9.902 -0.4091  0.3801 -0.0948
  599MOL0     H80857   1.086  10.108  10.187 -2.0656 -1.5727 -0.4894
  599MOL0     H80858   1.073  10.196  10.022 -2.0666 -1.4888 -1.9144
  599MOL0     H80859   1.281  10.095   9.953 -3.3560  1.1480 -0.3079
  599MOL0     H80860   1.303  10.004  10.109  0.0313  0.1462  1.0458
  599MOL0     H80861   1.283  10.242  10.206 -0.0747 -2.0299 -0.0735
  599MOL0     H80862   1.307  10.309  10.048  2.3090  1.0884  0.7689
  599MOL0     H80863   1.689  10.146  10.178 -0.1072 -0.4916  1.9286
  599MOL0     H80864   0.886  10.159   9.855 -0.9473  0.8359 -1.6644
  599MOL0     H80865   0.691  10.317   9.826 -0.8514  0.0797 -0.4953
  600MOL0     O80866   2.106  10.742   5.648  0.1399 -0.1724  0.3421
  600MOL0     C80867   2.138  10.844   5.712 -0.3649  0.0500  0.0195
  600MOL0     O80868   2.056  10.946   5.744  0.1211  0.3350 -0.6544
  600MOL0     C80869   1.919  10.940   5.732  0.6882 -0.0062 -0.8236
  600MOL0     C80870   1.845  10.820   5.737  0.0182 -0.6284  0.2808
  600MOL0     C80871   1.705  10.821   5.713 -0.4830  0.3427 -0.3682
  600MOL0     C80872   1.645  10.935   5.676 -0.0334 -0.2408  0.1206
  600MOL0     O80873   1.522  10.952   5.639  0.1448 -0.5183  0.1013
  600MOL0     C80874   1.442  10.838   5.627 -0.6559  0.5284 -0.2733
  600MOL0     C80875   1.300  10.879   5.585  0.1930 -0.9766  0.2591
  600MOL0     C80876   1.226  10.964   5.692 -0.9176  0.7798 -0.0141
  600MOL0     C80877   1.089  11.004   5.659  0.0712 -0.3403 -0.3951
  600MOL0     C80878   1.015  11.074   5.765 -0.0791 -0.5136 -0.3802
  600MOL0     C80879   0.873  11.105   5.741 -0.0605  0.1883 -0.1702
  600MOL0     C80880   0.807  11.186   5.850  0.4523  0.0766 -0.6201
  600MOL0     C80881   0.695  11.268   5.778  0.2636  0.4701  0.1724
  600MOL0     N80882   0.575  11.189   5.751 -0.3891  0.1670  0.8338
  600MOL0     C80883   0.448  11.244   5.750  0.1318  0.2611 -0.1222
  600MOL0     C80884   0.355  11.140   5.755  0.2825 -0.8988  1.3017
  600MOL0     C80885   0.211  11.148   5.755 -0.1211 -0.1114  0.5113
  600MOL0     C80886   0.151  11.143   5.899 -0.3811  0.0792  0.0726
  600MOL0     C80887  -0.002  11.139   5.901 -0.0788 -0.2194  0.2856
  600MOL0     C80888  -0.057  11.125   6.046  0.0969  0.2911  1.3352
  600MOL0     O80889  -0.203  11.122   6.035 -0.5385  0.2305  0.8152
  600MOL0     C80890  -0.272  11.148   6.152 -0.8430 -0.1852 -0.3022
  600MOL0     C80891  -0.405  11.181   6.139  0.0472  0.0543 -0.0714
  600MOL0     C80892  -0.490  11.203   6.247 -0.3514 -1.0735  0.7412
  600MOL0     C80893  -0.636  11.233   6.207 -0.0187 -0.9338  0.3677
  600MOL0     C80894  -0.436  11.206   6.376  0.2316 -0.3258 -0.0474
  600MOL0     C80895  -0.516  11.227   6.498 -0.6535 -0.3949  1.2775
  600MOL0     O80896  -0.455  11.286   6.606 -0.0757 -0.3532  0.0849
  600MOL0     C80897  -0.510  11.370   6.697  0.0820  0.0045  0.6246
  600MOL0     C80898  -0.443  11.391   6.815 -0.5458  0.7567 -0.8071
  600MOL0     C80899  -0.486  11.478   6.909  0.1777 -0.3255 -0.5883
  600MOL0     C80900  -0.612  11.545   6.897 -0.3415  0.4318  0.2360
  600MOL0     O80901  -0.667  11.616   7.006 -0.5888  0.3046 -0.8298
  600MOL0     C80902  -0.593  11.743   7.029 -0.2188  0.1005 -0.3337
  600MOL0     C80903  -0.662  11.872   6.975 -0.5556  0.4751  0.4135
  600MOL0     C80904  -0.580  11.975   6.897 -0.5237  0.4921 -0.6769
  600MOL0     C80905  -0.669  12.048   6.797 -0.6819  0.6040 -0.2308
  600MOL0     C80906  -0.588  12.149   6.720  0.2657 -0.2263  0.3557
  600MOL0     C80907  -0.664  12.213   6.607  0.5580 -0.4476 -0.4953
  600MOL0     C80908  -0.575  12.325   6.549  0.5466 -1.0212  0.1206
  600MOL0     C80909  -0.617  12.343   6.405 -0.0256 -1.7890  0.3146
  600MOL0    Cl80910  -0.792  12.370   6.378  0.0436  0.2451 -1.0938
  600MOL0     C80911  -0.685  11.529   6.774 -0.5847 -1.0144 -0.5017
  600MOL0     C80912  -0.631  11.445   6.673 -0.9236 -0.3927 -0.2901
  600MOL0     O80913  -0.632  11.194   6.491  0.2242 -0.2296  0.7494
  600MOL0     C80914  -0.296  11.182   6.389  0.8189  0.6653 -0.5121
  600MOL0     C80915  -0.218  11.151   6.277 -0.7802  0.3878 -0.0792
  600MOL0     N80916   0.430  11.026   5.753  0.3302 -0.1923  0.8955
  600MOL0     N80917   0.556  11.055   5.746 -0.4197  0.6918 -0.5182
  600MOL0     C80918   1.718  11.056   5.672 -0.3608 -0.3821  0.4067
  600MOL0     C80919   1.857  11.060   5.695 -0.6841  0.4429 -0.1717
  600MOL0     C80920   2.281  10.864   5.733 -0.7133  0.7649  0.0792
  600MOL0     C80921   2.316  10.944   5.844  0.3997  0.3457 -1.1118
  600MOL0     C80922   2.452  10.962   5.878 -0.3921 -0.3124  0.6563
  600MOL0     C80923   2.559  10.922   5.792  0.6618 -0.2541  0.0836
  600MOL0     O80924   2.695  10.955   5.820  0.3301 -0.8110  0.0448
  600MOL0     C80925   2.743  11.061   5.738  0.0947 -0.3253  0.1822
  600MOL0     C80926   2.718  11.195   5.814 -0.1882  0.1630 -0.2802
  600MOL0     C80927   2.783  11.314   5.743  0.0211 -1.3479 -0.7581
  600MOL0     C80928   2.704  11.352   5.617  0.1091  0.4506 -0.0839
  600MOL0     C80929   2.758  11.481   5.578 -0.7538  0.5823 -0.1850
  600MOL0     C80930   2.800  11.590   5.550  0.4551 -0.8140  0.3476
  600MOL0     C80931   2.525  10.840   5.684 -0.6277 -0.1669 -0.6463
  600MOL0     C80932   2.389  10.810   5.652  1.0725 -0.4186 -0.5601
  600MOL0     H80933   1.886  10.719   5.745 -1.1630 -1.2506 -1.0560
  600MOL0     H80934   1.649  10.728   5.719  3.6530 -2.3674  0.1409
  600MOL0     H80935   1.473  10.761   5.556 -0.1971 -0.8378  1.3381
  600MOL0     H80936   1.434  10.779   5.719  2.0814 -0.2875 -0.4657
  600MOL0     H80937   1.322  10.942   5.498  2.1369 -1.7473  0.1413
  600MOL0     H80938   1.244  10.792   5.549  0.3755 -1.9603  2.2571
  600MOL0     H80939   1.220  10.901   5.781 -1.6290 -0.9024 -1.1922
  600MOL0     H80940   1.295  11.048   5.695 -0.2158  0.2958 -1.5210
  600MOL0     H80941   1.092  11.072   5.574 -0.4123  3.3798  2.3273
  600MOL0     H80942   1.032  10.917   5.626 -1.7858  0.0841  1.4857
  600MOL0     H80943   1.019  11.019   5.860 -2.6803  1.3307  0.9035
  600MOL0     H80944   1.063  11.170   5.784  0.6436 -0.7854 -0.7828
  600MOL0     H80945   0.883  11.160   5.647  0.9162  1.2011  0.5010
  600MOL0     H80946   0.825  11.008   5.726  1.4257 -0.5159 -0.5453
  600MOL0     H80947   0.774  11.114   5.926 -3.9308  0.0652 -2.2337
  600MOL0     H80948   0.871  11.261   5.897  1.7875 -1.4329  0.0718
  600MOL0     H80949   0.723  11.326   5.690 -1.3261 -0.6746 -1.1395
  600MOL0     H80950   0.663  11.348   5.846  0.0443  0.6685 -0.1661
  600MOL0     H80951   0.415  11.347   5.756 -1.4180 -0.0735 -1.9744
  600MOL0     H80952   0.181  11.244   5.715  2.2246 -0.3787 -2.2338
  600MOL0     H80953   0.168  11.069   5.693 -0.0780  1.1651 -1.1895
  600MOL0     H80954   0.181  11.229   5.960  0.2011 -0.3946  0.4657
  600MOL0     H80955   0.184  11.051   5.949  2.7425  0.1991 -1.5120
  600MOL0     H80956  -0.048  11.056   5.846 -0.9026  0.8382 -0.6426
  600MOL0     H80957  -0.040  11.231   5.857  0.3738  0.4252  1.2185
  600MOL0     H80958  -0.022  11.206   6.110 -4.0430  0.4257  3.8383
  600MOL0     H80959  -0.011  11.036   6.089  1.8479  0.1044 -0.7415
  600MOL0     H80960  -0.438  11.183   6.036 -0.8940 -1.0457  0.1904
  600MOL0     H80961  -0.678  11.319   6.260  0.9853  0.6777 -1.3327
  600MOL0     H80962  -0.643  11.265   6.103  1.1407  0.9647  0.8237
  600MOL0     H80963  -0.702  11.148   6.228  0.8521 -1.0463  3.0918
  600MOL0     H80964  -0.343  11.353   6.834 -0.0199 -0.0974 -4.5306
  600MOL0     H80965  -0.424  11.499   6.995 -0.0128  1.6817 -0.8969
  600MOL0     H80966  -0.589  11.765   7.137  4.0032  2.6619 -0.7627
  600MOL0     H80967  -0.488  11.739   6.998 -0.6095  0.2546 -1.7380
  600MOL0     H80968  -0.725  11.828   6.897 -0.1058  1.5550 -0.5673
  600MOL0     H80969  -0.727  11.913   7.053 -0.5940 -0.3886  0.8586
  600MOL0     H80970  -0.497  11.927   6.845 -0.1924  2.2579 -1.8141
  600MOL0     H80971  -0.544  12.053   6.965  0.4120 -0.5343  0.0446
  600MOL0     H80972  -0.710  11.977   6.724 -1.0611  2.4701 -1.9214
  600MOL0     H80973  -0.756  12.092   6.847  0.0663  3.3695 -1.2109
  600MOL0     H80974  -0.502  12.098   6.675 -0.2807 -0.0759 -0.9149
  600MOL0     H80975  -0.573  12.228   6.793 -0.9066 -0.7868  1.2347
  600MOL0     H80976  -0.694  12.136   6.535  2.5037 -2.3767  0.6577
  600MOL0     H80977  -0.753  12.268   6.640  3.2478  2.4877  2.5255
  600MOL0     H80978  -0.469  12.296   6.551  0.8194 -0.1571 -1.1803
  600MOL0     H80979  -0.578  12.417   6.609 -0.0650 -0.1743 -1.1819
  600MOL0     H80980  -0.594  12.251   6.349 -1.3136 -2.1308  0.3315
  600MOL0     H80981  -0.553  12.424   6.369 -0.2962 -1.1835  1.1824
  600MOL0     H80982  -0.780  11.579   6.756  1.1199  1.8295 -2.6239
  600MOL0     H80983  -0.683  11.439   6.578 -3.1004  3.3018  0.4524
  600MOL0     H80984  -0.257  11.162   6.488  1.1841 -2.1910 -1.1513
  600MOL0     H80985  -0.114  11.124   6.291 -0.7750  1.2448  1.8950
  600MOL0     H80986   1.665  11.140   5.627  1.0142 -1.5482 -3.8058
  600MOL0     H80987   1.923  11.146   5.683  0.8340 -0.3528  1.8892
  600MOL0     H80988   2.239  10.989   5.907  0.6705  0.7293 -1.0481
  600MOL0     H80989   2.471  11.023   5.966  3.3590 -0.7426  0.3398
  600MOL0     H80990   2.848  11.040   5.715  0.1914  0.6740 -0.3332
  600MOL0     H80991   2.690  11.067   5.642 -0.7466 -0.6455  0.6126
  600MOL0     H80992   2.758  11.187   5.916  1.4787 -1.6832 -1.0188
  600MOL0     H80993   2.611  11.197   5.835 -0.2524 -0.3382 -0.5531
  600MOL0     H80994   2.887  11.299   5.714 -0.1596 -3.1732 -0.6132
  600MOL0     H80995   2.778  11.395   5.816  3.4125  0.0227 -1.8608
  600MOL0     H80996   2.599  11.368   5.639 -0.0316 -0.9710  0.4114
  600MOL0     H80997   2.700  11.273   5.541  0.4204 -1.0940  1.4369
  600MOL0     H80998   2.842  11.685   5.524 -2.0493  0.1069 -0.6626
  600MOL0     H80999   2.610  10.802   5.629 -1.2039 -1.1384 -0.8973
  600MOL0     H81000   2.367  10.748   5.566 -1.9476 -1.1249  0.6140
  601MOL0     O81001   3.203   4.342   0.075  0.2213  0.4132  0.2826
  601MOL0     C81002   3.210   4.241   0.141 -0.9781 -0.0752  0.9509
  601MOL0     O81003   3.105   4.160   0.178  0.7946  0.1924 -0.4669
  601MOL0     C81004   2.973   4.179   0.130 -0.1439 -0.1761 -0.2875
  601MOL0     C81005   2.889   4.081   0.171  0.2637  0.8549  0.0944
  601MOL0     C81006   2.748   4.091   0.145 -0.8526  0.7071 -0.2298
  601MOL0     C81007   2.704   4.197   0.062  0.2220 -0.8056 -0.9814
  601MOL0     O81008   2.569   4.225   0.038 -0.2285  0.0828  0.3942
  601MOL0     C81009   2.474   4.125   0.078  0.0961 -0.3695 -0.0082
  601MOL0     C81010   2.334   4.177   0.034 -0.3816  1.3785  0.7612
  601MOL0     C81011   2.226   4.082   0.079  0.0444 -0.8600 -0.2644
  601MOL0     C81012   2.086   4.145   0.066  0.8027  0.1968 -0.1571
  601MOL0     C81013   1.973   4.038   0.102 -0.6010  0.3081 -0.6153
  601MOL0     C81014   1.846   4.082   0.037  1.0945  0.1628  0.2170
  601MOL0     C81015   1.730   3.989   0.084 -0.6706  0.4180  0.0195
  601MOL0     C81016   1.600   4.032   0.030  0.0595 -0.0905 -0.2389
  601MOL0     N81017   1.501   3.931   0.047  0.2159  0.3474  0.2183
  601MOL0     C81018   1.450   3.912   0.176  0.0994  0.2653  0.2379
  601MOL0     C81019   1.362   3.801   0.157 -0.1380 -0.0528 -0.0884
  601MOL0     C81020   1.279   3.752   0.276 -0.4760 -0.2442 -0.4442
  601MOL0     C81021   1.139   3.793   0.278  0.1560 -0.3437  0.0243
  601MOL0     C81022   1.077   3.773   0.413 -0.2162  0.6458  0.1502
  601MOL0     C81023   1.062   3.637   0.457 -0.2190  1.2070 -0.4673
  601MOL0     O81024   1.027   3.635   0.592  0.3607 -0.0017  0.4926
  601MOL0     C81025   0.902   3.620   0.636 -0.6345 -0.0717  0.1601
  601MOL0     C81026   0.886   3.580   0.767  1.1324  0.3426  0.3844
  601MOL0     C81027   0.761   3.587   0.830  0.9787  0.6460  0.4480
  601MOL0     C81028   0.761   3.535   0.969 -0.4734 -0.3941  0.2895
  601MOL0     C81029   0.645   3.632   0.757  0.6716 -0.2975 -0.4053
  601MOL0     C81030   0.506   3.637   0.815  0.3197 -1.4420  0.6623
  601MOL0     O81031   0.422   3.714   0.741  0.4313 -0.2089  0.3266
  601MOL0     C81032   0.289   3.717   0.773 -0.0173 -1.1945  0.8348
  601MOL0     C81033   0.222   3.834   0.751 -0.1972  0.2929  0.1958
  601MOL0     C81034   0.078   3.838   0.758  0.5288 -0.2287  0.0116
  601MOL0     C81035   0.006   3.737   0.823  0.9101 -0.5740 -1.0519
  601MOL0     O81036  -0.131   3.743   0.853  0.1385 -1.2096  0.2148
  601MOL0     C81037  -0.196   3.875   0.864 -0.2216  0.4657 -0.5775
  601MOL0     C81038  -0.335   3.846   0.922 -1.1179  0.5975  0.0773
  601MOL0     C81039  -0.409   3.967   0.973 -0.7365 -0.0374  0.1446
  601MOL0     C81040  -0.359   4.019   1.107  0.0686  0.5607  0.1771
  601MOL0     C81041  -0.458   4.120   1.162  0.4714 -0.5769 -0.5738
  601MOL0     C81042  -0.478   4.243   1.074  0.3049 -0.3109 -0.9223
  601MOL0     C81043  -0.540   4.354   1.166  0.8823  0.1726 -0.3445
  601MOL0     C81044  -0.557   4.482   1.086  0.0947 -0.7493 -0.1416
  601MOL0    Cl81045  -0.650   4.457   0.941 -0.3952 -0.2490 -0.3700
  601MOL0     C81046   0.075   3.619   0.845 -0.4102 -0.4947 -0.6343
  601MOL0     C81047   0.213   3.603   0.810 -0.0268 -0.1889  0.3811
  601MOL0     O81048   0.478   3.580   0.919  0.1236 -0.6406  0.1426
  601MOL0     C81049   0.663   3.662   0.620 -0.0672  0.4065 -0.3949
  601MOL0     C81050   0.789   3.654   0.561 -0.0819  0.2882  0.8185
  601MOL0     N81051   1.360   3.757   0.026 -0.1595  0.1466 -0.2350
  601MOL0     N81052   1.437   3.844  -0.039  0.6478  0.7710 -0.3123
  601MOL0     C81053   2.789   4.292   0.014 -1.0158 -0.3381  0.2183
  601MOL0     C81054   2.926   4.289   0.056 -0.0082 -0.3087  1.4374
  601MOL0     C81055   3.341   4.191   0.191 -0.2435  0.1292 -1.1586
  601MOL0     C81056   3.360   4.081   0.287  0.4640 -0.4922  0.2995
  601MOL0     C81057   3.486   4.058   0.332 -0.4501 -0.6547 -0.1084
  601MOL0     C81058   3.594   4.131   0.292  0.3413  0.5762 -0.5850
  601MOL0     O81059   3.722   4.119   0.336  0.0046  0.0009 -0.4326
  601MOL0     C81060   3.741   4.073   0.468  0.2104  0.3345  0.1370
  601MOL0     C81061   3.886   4.080   0.521 -0.6162  0.0855  0.4376
  601MOL0     C81062   3.985   3.982   0.445  0.4156 -0.1368  0.0557
  601MOL0     C81063   4.134   3.995   0.483 -0.0911  0.0974  0.3285
  601MOL0     C81064   4.170   3.932   0.607  0.3153 -0.0732  0.1414
  601MOL0     C81065   4.200   3.891   0.719 -0.1562  0.6646  0.2788
  601MOL0     C81066   3.572   4.225   0.190 -0.0267 -0.3418 -0.1192
  601MOL0     C81067   3.449   4.255   0.148  0.3125  0.4586  0.4474
  601MOL0     H81068   2.918   4.000   0.237 -0.8441 -0.1412 -0.5930
  601MOL0     H81069   2.687   4.011   0.185 -2.7553  2.2235  0.0986
  601MOL0     H81070   2.497   4.032   0.027 -3.0157 -0.6367 -1.1623
  601MOL0     H81071   2.473   4.109   0.187 -0.0185  1.5276  0.3131
  601MOL0     H81072   2.319   4.273   0.085  2.1003  0.2187  4.0704
  601MOL0     H81073   2.330   4.190  -0.074  1.4937 -0.1242  0.4705
  601MOL0     H81074   2.232   3.995   0.014  1.1738 -1.9370  1.2117
  601MOL0     H81075   2.249   4.048   0.180 -1.5997  1.7353  1.0912
  601MOL0     H81076   2.079   4.232   0.131 -0.8188  1.6463 -2.1391
  601MOL0     H81077   2.070   4.188  -0.033 -1.1835  3.4023  1.4045
  601MOL0     H81078   1.998   3.942   0.056  2.2807  1.6989 -2.2181
  601MOL0     H81079   1.958   4.027   0.210 -4.2459 -1.4218 -1.1248
  601MOL0     H81080   1.821   4.183   0.068 -0.5046 -0.8865  2.6263
  601MOL0     H81081   1.856   4.087  -0.072 -0.9180  1.8134  0.0546
  601MOL0     H81082   1.742   3.886   0.050  2.4173  1.4633 -2.5837
  601MOL0     H81083   1.713   4.009   0.190  0.2166  1.9268 -0.0813
  601MOL0     H81084   1.608   4.059  -0.076  1.2787 -2.6871 -0.9089
  601MOL0     H81085   1.558   4.122   0.074  0.4288  0.6368 -1.3457
  601MOL0     H81086   1.466   3.979   0.261 -2.1302  0.1413  0.8188
  601MOL0     H81087   1.276   3.644   0.260  2.6184 -0.2714 -1.6393
  601MOL0     H81088   1.330   3.772   0.370  0.1564 -0.4810 -0.7278
  601MOL0     H81089   1.070   3.759   0.200 -2.5755  2.5407  0.9807
  601MOL0     H81090   1.143   3.902   0.277  1.1111 -0.2616  3.0952
  601MOL0     H81091   0.978   3.820   0.418 -0.2391  0.9991 -2.4911
  601MOL0     H81092   1.138   3.830   0.484  0.5799 -1.9689  1.7146
  601MOL0     H81093   1.146   3.570   0.437 -2.8844 -3.5404  2.3452
  601MOL0     H81094   0.993   3.587   0.389 -0.5395 -0.9876  1.3324
  601MOL0     H81095   0.968   3.579   0.839  1.0069 -2.1695  0.5650
  601MOL0     H81096   0.857   3.499   1.006 -0.9773 -0.9889  1.0545
  601MOL0     H81097   0.719   3.603   1.045  0.3552 -0.8965  1.2253
  601MOL0     H81098   0.706   3.441   0.979 -0.6270 -0.1372  2.6687
  601MOL0     H81099   0.276   3.917   0.706 -1.2768  0.4870 -0.7788
  601MOL0     H81100   0.030   3.930   0.725  2.0400  1.5884  2.5151
  601MOL0     H81101  -0.143   3.944   0.930 -2.0457  1.8762 -0.4968
  601MOL0     H81102  -0.203   3.920   0.764  2.3036  0.6369 -0.7360
  601MOL0     H81103  -0.399   3.796   0.849 -1.0233  0.5705  0.0129
  601MOL0     H81104  -0.314   3.779   1.006 -0.6732  1.5488  0.7468
  601MOL0     H81105  -0.515   3.940   0.975 -0.4067 -1.9299 -2.7121
  601MOL0     H81106  -0.394   4.048   0.901 -1.2978  0.0616  0.1359
  601MOL0     H81107  -0.359   3.933   1.174 -2.4473  0.5785  0.3011
  601MOL0     H81108  -0.262   4.065   1.091 -1.2271  3.6585  0.4895
  601MOL0     H81109  -0.426   4.160   1.258  0.0945 -1.6349  0.0097
  601MOL0     H81110  -0.546   4.060   1.182  0.4157  0.0908  1.3388
  601MOL0     H81111  -0.379   4.272   1.037  1.1344  0.7498  1.8766
  601MOL0     H81112  -0.541   4.204   0.993  0.9428  0.5358 -1.8472
  601MOL0     H81113  -0.470   4.382   1.245  1.0961 -0.1609 -0.4155
  601MOL0     H81114  -0.635   4.319   1.207 -0.3649  1.5950 -1.8640
  601MOL0     H81115  -0.458   4.525   1.072 -0.2064  1.2822  2.8497
  601MOL0     H81116  -0.612   4.561   1.140 -0.1130 -1.1859  0.2968
  601MOL0     H81117   0.018   3.537   0.889  0.2165 -0.0588  1.0628
  601MOL0     H81118   0.253   3.502   0.820  1.2275  0.3794  1.4035
  601MOL0     H81119   0.585   3.679   0.547  0.7366 -3.1838 -2.2892
  601MOL0     H81120   0.810   3.680   0.458  1.1703 -2.8582  0.1465
  601MOL0     H81121   2.769   4.383  -0.042 -0.3356  0.7581  1.6663
  601MOL0     H81122   2.995   4.371   0.038 -0.2169 -0.4985 -0.4243
  601MOL0     H81123   3.273   4.026   0.322  0.5191 -1.2731 -0.7595
  601MOL0     H81124   3.500   3.979   0.406  2.7441  0.6435  0.8289
  601MOL0     H81125   3.692   4.145   0.533  1.3865  0.5193  0.8357
  601MOL0     H81126   3.701   3.974   0.490  0.5372  0.4478  1.3032
  601MOL0     H81127   3.892   4.059   0.628  4.2437  0.3697  0.4253
  601MOL0     H81128   3.919   4.183   0.507 -2.2337  0.7336  1.1892
  601MOL0     H81129   3.985   4.004   0.338  1.5462 -0.0651  0.0601
  601MOL0     H81130   3.956   3.877   0.461  1.5729 -0.2892  1.2722
  601MOL0     H81131   4.164   4.100   0.477 -0.5219  0.3610  2.1400
  601MOL0     H81132   4.198   3.950   0.406  2.3764 -0.5709  2.6129
  601MOL0     H81133   4.234   3.843   0.808  1.4657  0.0826 -0.6159
  601MOL0     H81134   3.650   4.290   0.151  0.4245 -0.0370  1.2260
  601MOL0     H81135   3.445   4.328   0.068 -0.6191  1.2674  1.2127
  602MOL0     O81136   0.040   4.863   9.352  0.8084 -0.6350  0.4873
  602MOL0     C81137   0.070   4.865   9.231 -0.4733 -0.0288  0.2967
  602MOL0     O81138  -0.017   4.848   9.127  0.4106  0.1187  0.2488
  602MOL0     C81139  -0.153   4.800   9.147  0.2893 -0.8384 -0.1309
  602MOL0     C81140  -0.188   4.686   9.220 -0.3852 -1.2945 -0.2049
  602MOL0     C81141  -0.324   4.645   9.231  0.3991  0.2690 -0.6005
  602MOL0     C81142  -0.421   4.723   9.175 -0.2501  0.5906  0.7752
  602MOL0     O81143  -0.553   4.667   9.177 -0.0479  0.1820  0.1204
  602MOL0     C81144  -0.661   4.754   9.131 -0.2409  0.6016  0.5366
  602MOL0     C81145  -0.791   4.701   9.205 -0.6482 -0.0936  0.0996
  602MOL0     C81146  -0.930   4.745   9.151 -0.2369 -0.0196 -0.3918
  602MOL0     C81147  -1.041   4.693   9.238  0.5603  0.4642 -0.8552
  602MOL0     C81148  -1.166   4.758   9.191  0.5468 -0.3292  0.3367
  602MOL0     C81149  -1.280   4.704   9.277  0.8022 -0.5376 -0.3170
  602MOL0     C81150  -1.420   4.754   9.269 -0.7886 -0.0689  0.0965
  602MOL0     C81151  -1.467   4.788   9.125 -0.4594 -0.6325 -0.1850
  602MOL0     N81152  -1.610   4.806   9.128  0.7339  0.4247 -0.3906
  602MOL0     C81153  -1.705   4.724   9.077 -0.2858  0.2898  0.5828
  602MOL0     C81154  -1.819   4.792   9.090 -0.6766 -0.4330 -0.8624
  602MOL0     C81155  -1.942   4.748   9.015 -0.2141  0.1938 -1.0425
  602MOL0     C81156  -1.991   4.860   8.923  1.0875  0.9874 -0.3535
  602MOL0     C81157  -2.105   4.797   8.841 -0.0984 -0.0494 -0.1181
  602MOL0     C81158  -2.245   4.806   8.904  0.6262  0.5210  0.5738
  602MOL0     O81159  -2.339   4.754   8.803  0.0106 -0.4494 -0.0728
  602MOL0     C81160  -2.474   4.785   8.820 -0.5710  0.1913 -0.7732
  602MOL0     C81161  -2.523   4.863   8.926  0.3630  0.1785  0.3524
  602MOL0     C81162  -2.658   4.885   8.944 -0.3889  0.0134  0.0131
  602MOL0     C81163  -2.698   4.974   9.060  0.0058 -0.0944 -1.0246
  602MOL0     C81164  -2.753   4.852   8.838  0.1747  0.0151  0.8251
  602MOL0     C81165  -2.898   4.878   8.838 -0.1525 -0.3115  0.5879
  602MOL0     O81166  -2.966   4.832   8.727  0.5291  0.1420  0.6175
  602MOL0     C81167  -3.098   4.846   8.706  0.8600  1.4472 -0.9113
  602MOL0     C81168  -3.172   4.732   8.711 -0.1134 -0.6816  1.5509
  602MOL0     C81169  -3.308   4.736   8.692  0.6799  0.4217  0.9158
  602MOL0     C81170  -3.376   4.854   8.668 -0.2277 -0.9024  0.3356
  602MOL0     O81171  -3.516   4.865   8.650  0.6643  0.0973 -0.0537
  602MOL0     C81172  -3.593   4.767   8.733  0.9339  0.1170 -0.1085
  602MOL0     C81173  -3.732   4.827   8.755  0.7141  0.2937 -0.1966
  602MOL0     C81174  -3.732   4.970   8.817  0.5900  0.3217 -0.1217
  602MOL0     C81175  -3.874   5.011   8.856  0.1021 -0.4715 -0.8503
  602MOL0     C81176  -3.967   5.011   8.735 -0.6533  0.0033 -0.4203
  602MOL0     C81177  -4.096   5.100   8.762  0.7259 -0.3843  0.8129
  602MOL0     C81178  -4.168   5.120   8.620 -0.3741 -0.0574 -0.7371
  602MOL0     C81179  -4.280   5.230   8.638  0.1459  0.0645 -0.3345
  602MOL0    Cl81180  -4.379   5.181   8.782 -0.3112  0.4157  0.3037
  602MOL0     C81181  -3.298   4.971   8.658  0.0122 -0.5105 -0.2002
  602MOL0     C81182  -3.164   4.958   8.677 -0.4196 -0.1244  0.3488
  602MOL0     O81183  -2.949   4.934   8.929 -0.2585  0.7537  0.3349
  602MOL0     C81184  -2.698   4.768   8.734  0.2363 -0.1998 -0.1576
  602MOL0     C81185  -2.564   4.729   8.735 -0.3382  0.0036 -0.5479
  602MOL0     N81186  -1.793   4.917   9.148 -0.2589 -0.0173 -0.1329
  602MOL0     N81187  -1.663   4.929   9.159  0.0554 -0.0943  1.0501
  602MOL0     C81188  -0.390   4.832   9.100 -0.3080 -0.2934  0.4644
  602MOL0     C81189  -0.259   4.867   9.082  1.2563 -0.2622  0.2164
  602MOL0     C81190   0.207   4.877   9.198 -0.1161 -0.3239  0.2473
  602MOL0     C81191   0.311   4.896   9.294  1.1877  0.3673  0.0209
  602MOL0     C81192   0.437   4.923   9.253  0.0591  0.0595  0.6579
  602MOL0     C81193   0.478   4.904   9.125 -0.2292 -0.1690 -0.5548
  602MOL0     O81194   0.602   4.934   9.084  0.2620  0.0687  0.6333
  602MOL0     C81195   0.703   4.941   9.180 -0.7425 -0.1770 -0.8272
  602MOL0     C81196   0.841   4.944   9.110 -0.9846  0.0391 -0.2526
  602MOL0     C81197   0.950   4.976   9.215  0.6645 -0.0568 -0.0748
  602MOL0     C81198   1.082   4.998   9.141  0.5024  0.1273 -0.4666
  602MOL0     C81199   1.184   5.024   9.250  0.6212 -0.8005  0.4436
  602MOL0     C81200   1.258   5.068   9.342  0.2181  0.8841 -0.2347
  602MOL0     C81201   0.379   4.880   9.028  0.0849 -0.8175 -0.2471
  602MOL0     C81202   0.246   4.874   9.067  0.0906  0.6507  0.3204
  602MOL0     H81203  -0.103   4.638   9.268  0.2471 -0.9265 -0.9362
  602MOL0     H81204  -0.343   4.561   9.297  1.5199  1.5965  1.4959
  602MOL0     H81205  -0.640   4.859   9.154 -0.6284  0.8958 -0.4151
  602MOL0     H81206  -0.670   4.749   9.022  0.1187  1.1908  0.4778
  602MOL0     H81207  -0.792   4.592   9.194 -0.7507  0.1621 -4.4053
  602MOL0     H81208  -0.783   4.722   9.312 -0.8019 -1.9868  0.5163
  602MOL0     H81209  -0.940   4.853   9.139 -0.4978 -0.2433 -2.7789
  602MOL0     H81210  -0.956   4.693   9.058 -1.4061 -0.4931  0.1796
  602MOL0     H81211  -1.058   4.586   9.222  1.6665  0.1325  0.0815
  602MOL0     H81212  -1.016   4.707   9.344  2.1940 -2.3199 -0.7882
  602MOL0     H81213  -1.157   4.867   9.195  2.8299 -0.4860  0.8165
  602MOL0     H81214  -1.186   4.728   9.087  1.1205 -0.6580  0.3155
  602MOL0     H81215  -1.289   4.597   9.254 -0.7322 -0.7872  1.2397
  602MOL0     H81216  -1.248   4.709   9.382  0.1835  1.0794 -0.1756
  602MOL0     H81217  -1.489   4.685   9.319 -1.8243  1.9861  1.6521
  602MOL0     H81218  -1.424   4.846   9.328  3.2967 -0.2928  0.9959
  602MOL0     H81219  -1.433   4.716   9.050  0.0879 -0.5135 -0.0517
  602MOL0     H81220  -1.421   4.886   9.109 -1.7498  0.9215  4.2103
  602MOL0     H81221  -1.702   4.628   9.027  0.5245  0.4045  0.3850
  602MOL0     H81222  -1.933   4.653   8.962 -2.4422  0.6515 -2.3918
  602MOL0     H81223  -2.014   4.723   9.093  0.6122 -1.5327 -0.7990
  602MOL0     H81224  -1.919   4.891   8.846 -1.6611  2.5480 -2.4795
  602MOL0     H81225  -2.015   4.955   8.970 -1.0291  1.3879 -2.0934
  602MOL0     H81226  -2.078   4.698   8.802 -1.0377 -0.5690  0.5122
  602MOL0     H81227  -2.123   4.850   8.748  0.8648  2.6466  1.1412
  602MOL0     H81228  -2.260   4.911   8.931 -1.6897  0.7514 -1.2886
  602MOL0     H81229  -2.256   4.753   8.999 -1.1108  1.1983  0.7975
  602MOL0     H81230  -2.462   4.903   9.006  0.2182  1.2775 -0.0648
  602MOL0     H81231  -2.623   4.979   9.140 -2.4487  2.7030  1.3535
  602MOL0     H81232  -2.715   5.076   9.026 -2.2730 -0.9460 -2.6733
  602MOL0     H81233  -2.785   4.937   9.115  2.0793 -0.7951  2.0664
  602MOL0     H81234  -3.125   4.635   8.716  0.1585 -0.7074 -0.7017
  602MOL0     H81235  -3.363   4.642   8.691  1.7841 -0.2478  1.4319
  602MOL0     H81236  -3.616   4.679   8.673  1.9357  0.1807 -0.6094
  602MOL0     H81237  -3.544   4.743   8.828 -0.0457  2.7521  1.1573
  602MOL0     H81238  -3.773   4.828   8.654 -0.6589 -0.3878  0.3169
  602MOL0     H81239  -3.797   4.760   8.813  1.8372 -0.6643 -0.0063
  602MOL0     H81240  -3.684   5.033   8.742 -0.6799  0.4492 -0.8551
  602MOL0     H81241  -3.667   4.959   8.904 -2.3061 -4.1976  1.9206
  602MOL0     H81242  -3.914   4.943   8.933 -0.0006 -2.7615 -2.7836
  602MOL0     H81243  -3.863   5.111   8.899  1.0294 -0.8981 -0.0523
  602MOL0     H81244  -3.995   4.909   8.706 -1.7095  0.5545 -1.4426
  602MOL0     H81245  -3.916   5.070   8.657  3.0037 -2.3709 -0.0812
  602MOL0     H81246  -4.165   5.038   8.821  0.7166 -0.7549  0.4190
  602MOL0     H81247  -4.070   5.192   8.815  2.5430 -0.3102 -0.1612
  602MOL0     H81248  -4.216   5.025   8.596  1.4604 -0.7486 -1.9187
  602MOL0     H81249  -4.097   5.145   8.541 -0.0449  2.8853  0.3466
  602MOL0     H81250  -4.348   5.244   8.554  0.6464 -0.4735 -0.8332
  602MOL0     H81251  -4.225   5.324   8.653  1.4782 -0.5811 -1.0319
  602MOL0     H81252  -3.337   5.067   8.629  2.3438  0.0352 -1.8574
  602MOL0     H81253  -3.102   5.047   8.668  0.7942 -0.7913  1.6434
  602MOL0     H81254  -2.761   4.728   8.656  0.0605  0.2957 -0.2739
  602MOL0     H81255  -2.525   4.660   8.660 -0.9514 -1.1509  0.1678
  602MOL0     H81256  -0.463   4.890   9.044  1.8060  0.7167 -1.3802
  602MOL0     H81257  -0.236   4.947   9.012 -1.5106  0.6662  0.2791
  602MOL0     H81258   0.274   4.914   9.395 -0.8089  0.7924 -0.7540
  602MOL0     H81259   0.512   4.952   9.326  2.1090 -2.2141 -0.3954
  602MOL0     H81260   0.691   5.029   9.244 -4.7458 -2.0295  1.3274
  602MOL0     H81261   0.708   4.852   9.243  1.7128  1.3105  1.2902
  602MOL0     H81262   0.841   5.014   9.025 -1.6556  0.7273  0.3010
  602MOL0     H81263   0.850   4.847   9.060 -0.2936  0.4979 -1.0399
  602MOL0     H81264   0.971   4.891   9.281  0.2242  0.9919  1.4677
  602MOL0     H81265   0.920   5.063   9.274 -0.9606  0.4094 -1.5071
  602MOL0     H81266   1.081   5.081   9.070 -0.7999  0.8276  0.3278
  602MOL0     H81267   1.103   4.910   9.080 -0.4342 -0.5196  0.1092
  602MOL0     H81268   1.321   5.114   9.414  2.9210 -2.4003 -0.2275
  602MOL0     H81269   0.408   4.872   8.923  0.2396  3.2306 -0.6557
  602MOL0     H81270   0.180   4.861   8.982 -0.4568  3.3872  0.2368
  603MOL0     O81271   1.972   9.832   4.507 -0.2874 -0.1222 -0.5302
  603MOL0     C81272   2.069   9.879   4.437  0.3705  0.5898  0.3025
  603MOL0     O81273   2.065   9.945   4.311  0.2265 -0.2168  0.6420
  603MOL0     C81274   1.946   9.937   4.241 -0.2053  1.4994  0.4316
  603MOL0     C81275   1.821   9.982   4.293 -0.0191  0.3729 -0.0555
  603MOL0     C81276   1.713   9.991   4.200  0.1762  0.3153 -0.7123
  603MOL0     C81277   1.724   9.952   4.070 -0.1133  0.8169  0.4965
  603MOL0     O81278   1.622   9.952   3.981  0.7873  0.5103 -0.0839
  603MOL0     C81279   1.494  10.004   4.025  0.2211 -0.1436  0.4364
  603MOL0     C81280   1.412   9.993   3.898  0.1497  0.5335  1.3017
  603MOL0     C81281   1.265   9.971   3.932  0.1394  0.0783 -0.1646
  603MOL0     C81282   1.202  10.090   4.011 -0.9718 -0.0875  0.0196
  603MOL0     C81283   1.053  10.109   3.986 -0.3071 -0.2899  0.1409
  603MOL0     C81284   0.948  10.013   4.057 -0.4747  0.0857  1.2160
  603MOL0     C81285   0.961  10.005   4.211  0.5481  0.5108  0.1655
  603MOL0     C81286   0.901  10.126   4.284 -0.9302 -0.2245  0.0967
  603MOL0     N81287   0.766  10.162   4.233 -0.3019 -0.9722 -0.0936
  603MOL0     C81288   0.753  10.284   4.165 -0.3698  0.2645 -0.8202
  603MOL0     C81289   0.619  10.284   4.143 -0.5833 -0.1448  0.4601
  603MOL0     C81290   0.561  10.388   4.051  0.2045 -0.0137  0.7544
  603MOL0     C81291   0.409  10.409   4.080 -0.1520 -0.6221 -0.7145
  603MOL0     C81292   0.362  10.534   4.007 -0.1120 -0.5023  0.3243
  603MOL0     C81293   0.215  10.553   4.013  0.4056  0.5719 -0.5303
  603MOL0     O81294   0.150  10.464   3.916 -0.2736 -0.1768 -0.4047
  603MOL0     C81295   0.014  10.479   3.902 -0.5002 -0.6971  0.1984
  603MOL0     C81296  -0.068  10.451   4.010  0.7473  1.0602 -0.5213
  603MOL0     C81297  -0.211  10.456   4.006 -0.1342 -0.8095  0.1132
  603MOL0     C81298  -0.271  10.412   4.131  0.5445  0.5714  0.1637
  603MOL0     C81299  -0.268  10.494   3.880 -0.0695 -0.1052 -0.0823
  603MOL0     C81300  -0.407  10.525   3.865  0.1749 -0.3145 -0.6132
  603MOL0     O81301  -0.461  10.551   3.739 -0.3754 -0.6322  0.1401
  603MOL0     C81302  -0.589  10.595   3.723  0.0356  0.2416  0.4910
  603MOL0     C81303  -0.614  10.710   3.634  0.0724 -0.2779  0.6071
  603MOL0     C81304  -0.748  10.751   3.608 -0.3726 -0.4386 -0.1231
  603MOL0     C81305  -0.859  10.698   3.674  0.0348  0.5996 -0.5337
  603MOL0     O81306  -0.980  10.759   3.655  0.2768  0.1216  0.1487
  603MOL0     C81307  -1.074  10.766   3.768  0.4978 -0.3654  0.6524
  603MOL0     C81308  -1.200  10.841   3.733  0.4993 -0.3914  0.2226
  603MOL0     C81309  -1.290  10.855   3.854  0.6316 -0.0832 -1.4700
  603MOL0     C81310  -1.413  10.934   3.808  0.1909 -0.0328  0.8733
  603MOL0     C81311  -1.393  11.082   3.851  1.2239 -0.3123  0.7717
  603MOL0     C81312  -1.518  11.162   3.799 -0.2497 -0.2959 -0.4884
  603MOL0     C81313  -1.522  11.299   3.862  0.5794 -0.6972 -0.5304
  603MOL0     C81314  -1.640  11.391   3.801 -0.6255  0.0121  0.1472
  603MOL0    Cl81315  -1.807  11.316   3.813  0.0983  0.1824  0.3746
  603MOL0     C81316  -0.835  10.585   3.759 -1.0265 -0.0035  0.0810
  603MOL0     C81317  -0.704  10.530   3.778  0.4299 -0.3819  0.7583
  603MOL0     O81318  -0.470  10.537   3.969  0.2287  0.7930 -0.1505
  603MOL0     C81319  -0.183  10.497   3.768  0.1042 -0.1389 -0.3121
  603MOL0     C81320  -0.046  10.492   3.773  0.5161  0.6509 -0.3506
  603MOL0     N81321   0.559  10.180   4.204  0.0180 -0.2530 -0.4637
  603MOL0     N81322   0.649  10.104   4.254 -0.0766 -0.0567 -0.7144
  603MOL0     C81323   1.844   9.904   4.021 -0.3711  0.5226 -0.1134
  603MOL0     C81324   1.954   9.888   4.105  0.1832 -0.3559 -0.0280
  603MOL0     C81325   2.204   9.868   4.494 -0.5724  0.5513 -0.8482
  603MOL0     C81326   2.213   9.804   4.618  1.2059 -0.5370 -0.1149
  603MOL0     C81327   2.331   9.797   4.682 -0.3806  0.1880 -0.2730
  603MOL0     C81328   2.450   9.845   4.622  0.3447  0.1724  0.6508
  603MOL0     O81329   2.583   9.830   4.664 -0.3341 -0.1587 -0.3626
  603MOL0     C81330   2.607   9.747   4.781 -0.9540 -0.5678 -0.7220
  603MOL0     C81331   2.747   9.769   4.819 -1.1265  0.5461  0.6540
  603MOL0     C81332   2.816   9.633   4.849  0.3805  0.4527  0.0383
  603MOL0     C81333   2.969   9.641   4.853  0.8202 -0.5613 -0.1202
  603MOL0     C81334   3.052   9.521   4.865  0.2990  0.4034  0.0459
  603MOL0     C81335   3.118   9.420   4.870 -0.3827  0.1967  0.1174
  603MOL0     C81336   2.442   9.900   4.499  0.3850  0.5023 -0.8003
  603MOL0     C81337   2.320   9.919   4.431  0.5142  0.5234  0.2711
  603MOL0     H81338   1.819  10.034   4.388  0.9142 -1.2172  0.8791
  603MOL0     H81339   1.618  10.026   4.241  0.3566  0.1486 -0.1431
  603MOL0     H81340   1.450   9.947   4.107  0.2374 -0.9037 -0.0715
  603MOL0     H81341   1.508  10.107   4.057  0.5591 -0.4344  1.2452
  603MOL0     H81342   1.418  10.087   3.843  0.4508  0.6635  1.5500
  603MOL0     H81343   1.449   9.914   3.832 -1.4864  2.2918 -1.9502
  603MOL0     H81344   1.213   9.952   3.838  1.8894  0.6089 -1.2851
  603MOL0     H81345   1.244   9.880   3.989 -2.5767  0.5620 -0.2607
  603MOL0     H81346   1.230  10.074   4.115  3.2738 -2.8821 -1.2663
  603MOL0     H81347   1.243  10.190   3.991  1.0893 -1.1913 -1.7330
  603MOL0     H81348   1.028  10.211   4.018 -3.6674 -1.3305  1.2942
  603MOL0     H81349   1.041  10.101   3.877  0.2881  1.0913 -0.0502
  603MOL0     H81350   0.849  10.049   4.028  0.7408  0.9192 -2.4295
  603MOL0     H81351   0.960   9.910   4.021  2.1244  0.2674  1.3458
  603MOL0     H81352   0.918   9.908   4.240 -0.5927  0.9829  0.1102
  603MOL0     H81353   1.069  10.010   4.225  0.7844  0.7950 -1.5422
  603MOL0     H81354   0.974  10.207   4.279 -1.3572  0.0913 -2.0408
  603MOL0     H81355   0.892  10.102   4.390  0.0160  1.8418  0.7010
  603MOL0     H81356   0.822  10.356   4.122 -2.9607  1.4918 -3.2489
  603MOL0     H81357   0.607  10.481   4.084 -0.2851  0.1099  1.1093
  603MOL0     H81358   0.582  10.370   3.945 -0.0781  4.2925 -0.2367
  603MOL0     H81359   0.381  10.400   4.185  0.4159 -0.0025 -0.5002
  603MOL0     H81360   0.359  10.325   4.031 -0.2252  0.0507 -1.8269
  603MOL0     H81361   0.390  10.523   3.902  0.9835 -1.3583  0.6954
  603MOL0     H81362   0.428  10.607   4.055  1.9661 -1.3813 -1.0436
  603MOL0     H81363   0.188  10.655   3.986 -1.0995  0.7314  1.3596
  603MOL0     H81364   0.172  10.534   4.112 -1.6840 -1.9105 -1.7774
  603MOL0     H81365  -0.022  10.411   4.100  2.8661 -1.4938 -2.5611
  603MOL0     H81366  -0.210  10.334   4.178 -2.5503 -1.9948  0.2354
  603MOL0     H81367  -0.302  10.496   4.194 -1.3449  1.4384 -1.8143
  603MOL0     H81368  -0.367  10.362   4.120  0.2262  0.3231  3.1595
  603MOL0     H81369  -0.529  10.772   3.607 -2.2626  3.8938  1.8019
  603MOL0     H81370  -0.749  10.836   3.541 -0.6905 -1.8382 -1.9972
  603MOL0     H81371  -1.107  10.669   3.806  1.0250 -0.1666  1.6538
  603MOL0     H81372  -1.030  10.813   3.856 -0.8820 -1.8065  2.1616
  603MOL0     H81373  -1.173  10.935   3.686  1.2222 -1.1147 -0.8550
  603MOL0     H81374  -1.254  10.777   3.662 -3.0089 -0.2141  2.4824
  603MOL0     H81375  -1.233  10.913   3.927 -1.6348  0.5632 -0.1186
  603MOL0     H81376  -1.310  10.758   3.900  0.5412  1.3827  1.8413
  603MOL0     H81377  -1.421  10.920   3.700  1.9710 -0.7270  0.8061
  603MOL0     H81378  -1.505  10.899   3.856 -0.0260  0.4510  0.8182
  603MOL0     H81379  -1.312  11.118   3.786  0.3610  0.8981  0.3200
  603MOL0     H81380  -1.365  11.098   3.955  1.4335  2.6811  0.3449
  603MOL0     H81381  -1.520  11.170   3.690  0.6576  1.3113 -0.4143
  603MOL0     H81382  -1.610  11.108   3.823 -0.7734 -0.4934 -2.7125
  603MOL0     H81383  -1.435  11.360   3.837  1.3567 -1.0020  1.2768
  603MOL0     H81384  -1.528  11.281   3.970 -0.0008 -0.0317 -0.4386
  603MOL0     H81385  -1.602  11.396   3.699  0.4133 -0.8097  0.4861
  603MOL0     H81386  -1.648  11.493   3.840 -3.2394  0.8202 -2.1974
  603MOL0     H81387  -0.913  10.535   3.815  1.0281 -2.6950  0.7596
  603MOL0     H81388  -0.679  10.443   3.838 -0.2678 -1.6492 -0.7113
  603MOL0     H81389  -0.219  10.526   3.670  0.5186 -1.7311 -0.9642
  603MOL0     H81390   0.011  10.505   3.682 -0.1592  1.7253 -0.6396
  603MOL0     H81391   1.850   9.877   3.916  0.0399  1.8231 -0.4387
  603MOL0     H81392   2.048   9.845   4.071  0.6563  1.3308 -0.9930
  603MOL0     H81393   2.136   9.763   4.682  0.4497 -1.0643 -1.3240
  603MOL0     H81394   2.327   9.757   4.783 -1.0071 -0.4452 -0.5370
  603MOL0     H81395   2.542   9.767   4.867 -0.9037 -1.4541 -0.4695
  603MOL0     H81396   2.590   9.643   4.753 -3.1796 -1.3384  2.8161
  603MOL0     H81397   2.755   9.833   4.907  1.7993 -0.0796  0.9610
  603MOL0     H81398   2.802   9.822   4.740 -1.3977 -0.3527 -0.1640
  603MOL0     H81399   2.794   9.572   4.761  0.2497  1.0704 -0.3596
  603MOL0     H81400   2.777   9.590   4.942  1.8187 -0.3764  0.2766
  603MOL0     H81401   3.007   9.708   4.931  0.4150 -0.4581 -0.0122
  603MOL0     H81402   2.992   9.686   4.756  2.5800  0.7549  0.8401
  603MOL0     H81403   3.183   9.335   4.866 -0.9486 -0.3080  1.1869
  603MOL0     H81404   2.539   9.929   4.458  1.9834 -1.6327  1.1807
  603MOL0     H81405   2.307   9.979   4.341 -3.7530  2.1330  1.6963
  604MOL0     O81406  10.011  10.887   3.377  0.4822  0.3594 -0.5847
  604MOL0     C81407   9.992  10.951   3.274  0.4820  0.0079 -0.2532
  604MOL0     O81408   9.871  10.973   3.218 -0.0034 -0.0322  0.8059
  604MOL0     C81409   9.755  10.913   3.259 -0.8978 -0.0393 -0.2150
  604MOL0     C81410   9.717  10.907   3.391  0.2983 -1.1194 -0.2234
  604MOL0     C81411   9.596  10.846   3.425 -0.3985 -0.1830  0.0462
  604MOL0     C81412   9.518  10.788   3.323 -0.2918 -0.2415 -0.7867
  604MOL0     O81413   9.405  10.718   3.369 -0.2895 -0.0317 -0.5858
  604MOL0     C81414   9.286  10.738   3.295 -0.6015 -0.4730  0.1469
  604MOL0     C81415   9.179  10.653   3.362 -0.2936  0.0338  0.1554
  604MOL0     C81416   9.031  10.691   3.326 -0.3234  0.0294  0.1997
  604MOL0     C81417   8.930  10.574   3.327 -0.1540  0.5274 -0.6978
  604MOL0     C81418   8.909  10.514   3.460  0.2224  0.4826 -0.9925
  604MOL0     C81419   8.846  10.602   3.567  0.4143 -0.2106  0.7489
  604MOL0     C81420   8.778  10.517   3.674 -0.4496  0.2585 -0.0390
  604MOL0     C81421   8.867  10.440   3.768 -0.2331 -0.1143  0.6563
  604MOL0     N81422   8.929  10.534   3.861  0.7192  0.3794 -0.4963
  604MOL0     C81423   8.861  10.579   3.971  0.3574 -0.4013 -0.4325
  604MOL0     C81424   8.958  10.624   4.054  0.2272 -0.2039 -0.2836
  604MOL0     C81425   8.949  10.677   4.191  0.0034 -0.6575 -0.4608
  604MOL0     C81426   8.990  10.831   4.205 -0.6954  0.2766  0.9516
  604MOL0     C81427   8.913  10.921   4.111 -0.4392  0.1545  0.8813
  604MOL0     C81428   8.765  10.956   4.137  0.2177  0.0377  0.9500
  604MOL0     O81429   8.673  10.849   4.103 -0.2572  0.0573  0.1138
  604MOL0     C81430   8.567  10.893   4.026  0.7598 -0.5657  0.6770
  604MOL0     C81431   8.503  11.015   4.040 -0.2984 -0.7688 -0.4372
  604MOL0     C81432   8.377  11.054   3.978 -0.0760 -0.7092  0.2173
  604MOL0     C81433   8.311  11.195   3.985  0.2109  0.1657 -0.9192
  604MOL0     C81434   8.322  10.949   3.888 -0.2988  0.0721  0.2153
  604MOL0     C81435   8.196  10.958   3.813  0.2012 -1.2574  0.2846
  604MOL0     O81436   8.177  10.861   3.714  0.8273  0.4609 -0.0817
  604MOL0     C81437   8.054  10.865   3.646 -0.8794  1.3454 -0.3103
  604MOL0     C81438   8.027  10.977   3.567  0.3125 -0.9118  0.5983
  604MOL0     C81439   7.901  10.987   3.504 -0.2005 -0.0074 -0.2529
  604MOL0     C81440   7.809  10.888   3.509 -0.5175 -0.1332 -0.5647
  604MOL0     O81441   7.694  10.907   3.432  0.3609  0.2138  0.2272
  604MOL0     C81442   7.577  10.846   3.486 -0.2651  0.4004  0.5002
  604MOL0     C81443   7.459  10.930   3.446  0.7313 -0.6638 -0.0323
  604MOL0     C81444   7.321  10.859   3.464  0.1391 -0.2756  0.5259
  604MOL0     C81445   7.187  10.940   3.437 -0.4719 -0.5080 -0.1058
  604MOL0     C81446   7.167  11.026   3.558  0.5660 -0.4358 -1.3556
  604MOL0     C81447   7.031  11.098   3.553 -0.5314  0.9685 -0.6041
  604MOL0     C81448   7.015  11.199   3.672  0.7222  0.3339  0.2009
  604MOL0     C81449   6.879  11.263   3.667  1.1082  0.6224 -0.4490
  604MOL0    Cl81450   6.746  11.141   3.688 -0.2260 -0.0012  0.0089
  604MOL0     C81451   7.844  10.771   3.586 -0.1018  0.2625  0.1919
  604MOL0     C81452   7.964  10.761   3.660 -0.1335 -0.4925 -0.3820
  604MOL0     O81453   8.108  11.038   3.850 -0.1048 -0.3357  0.2847
  604MOL0     C81454   8.392  10.828   3.872  0.3555 -0.6149 -0.1330
  604MOL0     C81455   8.508  10.802   3.944 -0.4481 -0.2905  0.7637
  604MOL0     N81456   9.079  10.595   3.997  0.3880  0.1014 -0.0348
  604MOL0     N81457   9.059  10.547   3.881 -0.1144  0.0923  0.8160
  604MOL0     C81458   9.558  10.789   3.184  0.0776 -0.5491  0.5224
  604MOL0     C81459   9.675  10.860   3.156  0.2138 -1.1013  0.1677
  604MOL0     C81460  10.117  11.005   3.205  0.9752 -0.1533  0.2904
  604MOL0     C81461  10.096  11.082   3.086 -0.2666 -0.0978 -0.2491
  604MOL0     C81462  10.210  11.138   3.027  0.4820 -0.5085  0.0285
  604MOL0     C81463  10.339  11.134   3.082  0.1058  0.9885 -0.3770
  604MOL0     O81464  10.446  11.195   3.023  0.4640 -0.0877  0.3468
  604MOL0     C81465  10.574  11.112   3.025  0.3979  0.5521 -0.5711
  604MOL0     C81466  10.580  11.000   2.913 -0.9684 -0.3030 -0.0107
  604MOL0     C81467  10.608  11.080   2.780 -0.4161  0.3758 -0.9627
  604MOL0     C81468  10.613  10.987   2.657  0.2792 -0.0305 -0.5103
  604MOL0     C81469  10.745  10.931   2.636 -0.7260  0.0901  0.5535
  604MOL0     C81470  10.855  10.879   2.619 -0.1174  0.6273  0.3298
  604MOL0     C81471  10.358  11.053   3.203  0.2064  0.3660 -0.2252
  604MOL0     C81472  10.242  10.988   3.256 -0.9697  0.7079  0.3165
  604MOL0     H81473   9.776  10.958   3.467 -2.4902  2.2447 -0.0674
  604MOL0     H81474   9.573  10.833   3.530  1.6895 -0.3295  0.5288
  604MOL0     H81475   9.253  10.842   3.289  1.5813  0.1886 -1.8080
  604MOL0     H81476   9.298  10.711   3.190  0.9322  3.6165 -0.8964
  604MOL0     H81477   9.205  10.552   3.329  1.4090  0.2355  0.7840
  604MOL0     H81478   9.193  10.660   3.471  0.5590 -1.6478  0.1875
  604MOL0     H81479   8.998  10.760   3.405  2.0376 -0.2806  1.5530
  604MOL0     H81480   9.031  10.739   3.227  0.3354 -1.1158 -0.3653
  604MOL0     H81481   8.829  10.600   3.292  0.0337 -1.0652 -2.6332
  604MOL0     H81482   8.972  10.488   3.274  1.6306  1.0931 -0.2660
  604MOL0     H81483   8.857  10.418   3.451  1.2254 -0.3583  1.4441
  604MOL0     H81484   9.008  10.497   3.503 -0.4886  0.5546  0.7311
  604MOL0     H81485   8.913  10.676   3.612  0.1350 -0.0518  0.9045
  604MOL0     H81486   8.768  10.661   3.519  0.8675 -0.9509 -0.9821
  604MOL0     H81487   8.721  10.585   3.738 -0.5711 -0.0781  0.2122
  604MOL0     H81488   8.707  10.445   3.632 -0.0991 -0.0300 -0.1300
  604MOL0     H81489   8.941  10.378   3.717  0.7999  1.4227  0.2347
  604MOL0     H81490   8.796  10.373   3.818  0.6653 -2.1928 -0.7280
  604MOL0     H81491   8.754  10.579   3.994  0.4153  0.3014 -0.1296
  604MOL0     H81492   8.849  10.672   4.233 -1.1559  1.6568 -2.6590
  604MOL0     H81493   9.017  10.617   4.252  1.4760  1.1866 -0.1809
  604MOL0     H81494   9.099  10.843   4.196 -0.7440 -0.1800 -0.4975
  604MOL0     H81495   8.977  10.855   4.311  1.5526 -0.5483  1.4809
  604MOL0     H81496   8.928  10.862   4.020  1.8198  0.1905  1.1750
  604MOL0     H81497   8.972  11.013   4.103 -0.1612  0.0272  1.4812
  604MOL0     H81498   8.753  11.038   4.066 -2.7396 -1.3258 -0.3017
  604MOL0     H81499   8.761  10.993   4.240  0.5171 -2.2935  1.8656
  604MOL0     H81500   8.551  11.095   4.095 -3.5843  0.5821  0.7103
  604MOL0     H81501   8.363  11.260   4.056 -1.7919  0.6178  0.2243
  604MOL0     H81502   8.310  11.247   3.889  1.9864  1.6493 -0.1819
  604MOL0     H81503   8.208  11.191   4.022 -0.1497 -1.9784 -1.9711
  604MOL0     H81504   8.093  11.060   3.542 -0.1592 -0.9999 -1.1033
  604MOL0     H81505   7.877  11.078   3.451 -0.1458  0.2629  0.1770
  604MOL0     H81506   7.562  10.743   3.452 -0.7481 -0.3772  2.8698
  604MOL0     H81507   7.582  10.841   3.595 -0.0497  0.7885  0.5095
  604MOL0     H81508   7.444  11.015   3.513 -2.4982 -1.4759  0.4494
  604MOL0     H81509   7.467  10.966   3.343  0.0440 -2.6834 -0.8333
  604MOL0     H81510   7.325  10.815   3.563  1.5848 -0.9274  0.1979
  604MOL0     H81511   7.322  10.778   3.390 -0.2432  0.7306 -0.6241
  604MOL0     H81512   7.203  11.017   3.361  2.8873  1.6103  2.4380
  604MOL0     H81513   7.107  10.866   3.425 -0.1531 -0.8003 -0.4474
  604MOL0     H81514   7.240  11.107   3.559  0.4711 -0.3261  0.7534
  604MOL0     H81515   7.175  10.971   3.652 -1.1342 -0.3875 -1.1604
  604MOL0     H81516   7.013  11.157   3.462 -1.8470  0.8575 -0.4354
  604MOL0     H81517   6.946  11.030   3.557 -1.8235  2.5097 -0.8650
  604MOL0     H81518   7.089  11.279   3.665 -3.0359  4.1100 -0.4237
  604MOL0     H81519   7.025  11.145   3.767 -1.5932 -0.4478  0.0612
  604MOL0     H81520   6.865  11.302   3.566 -1.3887  0.8720 -0.0549
  604MOL0     H81521   6.873  11.345   3.739  0.2058 -0.7516  1.1111
  604MOL0     H81522   7.778  10.685   3.585 -1.8582  1.5461 -1.5697
  604MOL0     H81523   7.981  10.672   3.720  3.0831  0.3527  0.1525
  604MOL0     H81524   8.358  10.741   3.818 -1.6673  0.5347 -0.8070
  604MOL0     H81525   8.565  10.712   3.925  0.2810  0.4230 -0.5856
  604MOL0     H81526   9.496  10.747   3.106 -2.2712  2.2211  0.7239
  604MOL0     H81527   9.712  10.869   3.054  2.0952 -1.2536  0.7961
  604MOL0     H81528   9.999  11.105   3.044 -0.5888  0.7410  0.8821
  604MOL0     H81529  10.207  11.204   2.941  1.3271 -1.1856 -0.5417
  604MOL0     H81530  10.652  11.187   3.009 -0.1812  0.6048 -3.8829
  604MOL0     H81531  10.590  11.055   3.117 -1.8542  0.2608 -0.3150
  604MOL0     H81532  10.488  10.942   2.901 -3.4571  3.3298  0.0058
  604MOL0     H81533  10.669  10.936   2.919 -0.3436  0.6489  1.1892
  604MOL0     H81534  10.705  11.127   2.796  0.4240 -1.8183  1.1126
  604MOL0     H81535  10.530  11.153   2.756  0.5730  2.2108  1.0247
  604MOL0     H81536  10.588  11.047   2.569  3.4759  1.9079 -0.2629
  604MOL0     H81537  10.535  10.909   2.658  1.0168 -0.7722  0.2921
  604MOL0     H81538  10.953  10.841   2.601  0.1072  1.1902  0.3677
  604MOL0     H81539  10.450  11.041   3.259  0.1350  0.7528 -0.0202
  604MOL0     H81540  10.233  10.927   3.345 -0.5219  0.1850  0.0106
  605MOL0     O81541   0.583   9.679  10.806  0.4752  0.0338  0.0813
  605MOL0     C81542   0.623   9.668  10.920  0.2497  0.4512 -0.6552
  605MOL0     O81543   0.537   9.667  11.030 -0.2269  0.4655  0.1509
  605MOL0     C81544   0.405   9.688  11.019 -0.3626  0.3952  0.1494
  605MOL0     C81545   0.350   9.806  11.049  0.4056 -0.1834  0.2338
  605MOL0     C81546   0.204   9.826  11.036 -0.3567  0.2118  0.4741
  605MOL0     C81547   0.130   9.717  10.986  0.4066 -0.4381 -0.0122
  605MOL0     O81548  -0.004   9.730  10.956 -0.2669  0.0824 -0.3067
  605MOL0     C81549  -0.092   9.656  11.044  0.7469  0.6657 -0.2396
  605MOL0     C81550  -0.227   9.637  10.991 -0.3147  0.1273  0.2141
  605MOL0     C81551  -0.321   9.592  11.111  0.0351 -0.3393 -0.8801
  605MOL0     C81552  -0.456   9.557  11.044 -0.5052  0.8119  0.2487
  605MOL0     C81553  -0.567   9.477  11.125  0.4151  0.2395 -0.7749
  605MOL0     C81554  -0.510   9.335  11.173  0.4243 -0.3878 -1.0370
  605MOL0     C81555  -0.622   9.260  11.256 -0.0699  0.3073 -0.0516
  605MOL0     C81556  -0.743   9.217  11.171  0.9844  0.2707  1.1371
  605MOL0     N81557  -0.824   9.116  11.238  0.1773  0.5086 -0.7787
  605MOL0     C81558  -0.856   9.115  11.372 -0.2028 -0.5010  0.4518
  605MOL0     C81559  -0.927   9.005  11.388  0.7263  0.4001 -0.3304
  605MOL0     C81560  -0.985   8.947  11.511 -0.0127  1.0844  0.6200
  605MOL0     C81561  -1.140   8.948  11.505  0.1215 -0.1214  0.2616
  605MOL0     C81562  -1.199   8.867  11.622 -0.5639 -0.0394  0.7480
  605MOL0     C81563  -1.352   8.875  11.637 -1.0313 -0.4825  0.2967
  605MOL0     O81564  -1.387   8.779  11.743 -0.2000 -1.3636  0.2288
  605MOL0     C81565  -1.426   8.649  11.719 -0.2621  0.3028  0.0332
  605MOL0     C81566  -1.499   8.590  11.819  0.5599 -0.7760 -0.3534
  605MOL0     C81567  -1.579   8.476  11.789 -0.0623  0.1136  0.4982
  605MOL0     C81568  -1.681   8.430  11.893 -0.6872  0.1548  0.6220
  605MOL0     C81569  -1.564   8.411  11.659  0.4569  0.4569  0.0422
  605MOL0     C81570  -1.649   8.292  11.625 -0.6985  0.1621  0.0428
  605MOL0     O81571  -1.675   8.276  11.492 -0.2653 -0.4117 -0.3359
  605MOL0     C81572  -1.738   8.162  11.447 -0.7201  0.8244  0.3561
  605MOL0     C81573  -1.810   8.171  11.326  0.3961 -0.3368  0.2614
  605MOL0     C81574  -1.859   8.056  11.266  0.3848 -0.2814  0.3774
  605MOL0     C81575  -1.835   7.930  11.310  0.0824  0.9390 -0.4217
  605MOL0     O81576  -1.893   7.816  11.262  0.2649 -0.2182  0.6513
  605MOL0     C81577  -2.026   7.822  11.216  0.8480 -0.0414 -0.8098
  605MOL0     C81578  -2.075   7.676  11.216  0.6275  0.4313  0.2586
  605MOL0     C81579  -2.228   7.667  11.203  1.8657  0.2275 -0.1569
  605MOL0     C81580  -2.279   7.713  11.071 -0.2921 -0.1374 -0.1459
  605MOL0     C81581  -2.428   7.731  11.065 -0.3653 -0.1163  0.1369
  605MOL0     C81582  -2.461   7.773  10.925 -0.0500 -0.6697 -0.2696
  605MOL0     C81583  -2.608   7.837  10.915 -0.1176  0.2502 -0.9085
  605MOL0     C81584  -2.648   7.827  10.768  0.5105  0.2265 -0.9230
  605MOL0    Cl81585  -2.824   7.864  10.740  0.5139  0.0366  0.4196
  605MOL0     C81586  -1.754   7.921  11.422 -0.0139  0.7990  0.4388
  605MOL0     C81587  -1.711   8.031  11.490  0.0468  0.2209 -0.3643
  605MOL0     O81588  -1.659   8.208  11.713  0.0248 -0.6833 -0.7320
  605MOL0     C81589  -1.480   8.464  11.562  0.1618 -0.2375  0.6640
  605MOL0     C81590  -1.416   8.586  11.593 -0.6480 -0.0995  0.5917
  605MOL0     N81591  -0.921   8.932  11.272  0.0906 -0.6268  0.1234
  605MOL0     N81592  -0.859   8.997  11.181 -0.7560 -0.3614  0.1596
  605MOL0     C81593   0.190   9.597  10.964 -0.5070  0.6096 -0.2469
  605MOL0     C81594   0.331   9.579  10.977  0.1981  0.6085 -0.0624
  605MOL0     C81595   0.767   9.639  10.938 -1.1041 -0.4715 -0.0228
  605MOL0     C81596   0.813   9.560  11.044  0.0542  0.4784  0.1743
  605MOL0     C81597   0.947   9.532  11.060  0.7902 -0.3159  0.6300
  605MOL0     C81598   1.042   9.578  10.967 -0.1288  0.9028 -0.1400
  605MOL0     O81599   1.178   9.540  10.993  0.2787 -0.3867 -0.5575
  605MOL0     C81600   1.282   9.585  10.905 -0.2484 -0.0673  0.2008
  605MOL0     C81601   1.424   9.549  10.961  0.3841  1.0415 -0.1996
  605MOL0     C81602   1.542   9.581  10.867  0.1566  0.4703  0.2830
  605MOL0     C81603   1.672   9.586  10.955 -0.7287 -0.9009 -0.0478
  605MOL0     C81604   1.788   9.620  10.870  0.5052 -1.4217 -0.2705
  605MOL0     C81605   1.883   9.664  10.808  0.3587 -0.4979 -0.4213
  605MOL0     C81606   1.004   9.661  10.868 -0.5247  0.3298  0.1298
  605MOL0     C81607   0.867   9.688  10.848  0.1510  0.4019 -0.5204
  605MOL0     H81608   0.401   9.898  11.076 -0.1522  0.1567  0.1379
  605MOL0     H81609   0.159   9.920  11.066 -0.4449 -0.3180  2.1184
  605MOL0     H81610  -0.044   9.558  11.047  2.1633  1.3462 -0.0346
  605MOL0     H81611  -0.093   9.701  11.144 -0.7797 -0.1368  0.1337
  605MOL0     H81612  -0.265   9.731  10.951 -2.5957 -0.4621  0.8354
  605MOL0     H81613  -0.221   9.563  10.910 -0.3232  1.0135 -0.6100
  605MOL0     H81614  -0.290   9.497  11.156 -0.9729 -0.2855 -0.0603
  605MOL0     H81615  -0.326   9.670  11.187  0.5857 -0.7215 -0.4457
  605MOL0     H81616  -0.503   9.648  11.004 -0.2964  1.5892  1.7173
  605MOL0     H81617  -0.428   9.489  10.963  0.7956 -0.2578  1.5560
  605MOL0     H81618  -0.597   9.533  11.214 -1.7055 -0.4914 -0.9847
  605MOL0     H81619  -0.654   9.467  11.059 -1.8939 -0.0045  2.0990
  605MOL0     H81620  -0.491   9.285  11.078  1.4469  2.4790 -2.4500
  605MOL0     H81621  -0.414   9.332  11.225  0.6512 -1.5306 -1.4811
  605MOL0     H81622  -0.568   9.172  11.291  0.8561  1.2711  1.0108
  605MOL0     H81623  -0.632   9.316  11.349  3.4105 -0.8942  1.1714
  605MOL0     H81624  -0.705   9.187  11.073 -0.1493  1.7875  0.2134
  605MOL0     H81625  -0.802   9.306  11.150 -0.4590 -0.9610 -0.2783
  605MOL0     H81626  -0.830   9.196  11.439  0.6799 -0.4429  0.0552
  605MOL0     H81627  -0.936   8.850  11.512  0.4576  1.2413 -1.5474
  605MOL0     H81628  -0.953   9.013  11.592  1.1605 -1.6488  2.5309
  605MOL0     H81629  -1.176   8.908  11.410 -2.0163 -0.8845  1.3325
  605MOL0     H81630  -1.166   9.053  11.517 -1.5471 -0.4422 -0.2809
  605MOL0     H81631  -1.156   8.901  11.717  1.1310  0.4332 -0.1436
  605MOL0     H81632  -1.173   8.761  11.611 -3.4226 -0.9000  1.2910
  605MOL0     H81633  -1.420   8.865  11.552 -3.1693  4.7047  1.0377
  605MOL0     H81634  -1.386   8.967  11.685  0.2001 -1.3932  3.1105
  605MOL0     H81635  -1.501   8.644  11.912 -1.1996 -2.0430  0.3955
  605MOL0     H81636  -1.713   8.509  11.961 -0.2384 -0.3235  1.3961
  605MOL0     H81637  -1.769   8.399  11.836 -0.6877 -1.8671  1.6336
  605MOL0     H81638  -1.644   8.339  11.940  1.6638  0.3110 -0.7746
  605MOL0     H81639  -1.808   8.268  11.278  1.5579 -1.1841 -1.4793
  605MOL0     H81640  -1.912   8.073  11.173  0.8014 -1.7795 -0.1747
  605MOL0     H81641  -2.094   7.881  11.278 -0.7739 -3.7232  1.2468
  605MOL0     H81642  -2.022   7.859  11.113  1.9465 -0.5514 -0.9620
  605MOL0     H81643  -2.028   7.627  11.131  1.1438  1.2326  0.0763
  605MOL0     H81644  -2.054   7.636  11.315  0.9718  3.4050  1.4930
  605MOL0     H81645  -2.268   7.737  11.278 -1.2565  0.6867 -2.0660
  605MOL0     H81646  -2.270   7.569  11.225  0.6681  0.8555  0.4205
  605MOL0     H81647  -2.234   7.812  11.055 -1.0799  0.4967  1.3497
  605MOL0     H81648  -2.250   7.640  10.995 -2.0315 -0.6560 -0.3466
  605MOL0     H81649  -2.455   7.808  11.138  1.0513 -0.1157  0.6957
  605MOL0     H81650  -2.481   7.638  11.088 -0.1871 -0.1136  0.5586
  605MOL0     H81651  -2.387   7.840  10.881  2.6070 -3.0197  0.3579
  605MOL0     H81652  -2.464   7.687  10.858 -1.7004  0.2035 -1.3900
  605MOL0     H81653  -2.592   7.943  10.937  2.4310  0.3841 -2.8929
  605MOL0     H81654  -2.681   7.789  10.981  0.7298  2.4979  1.8894
  605MOL0     H81655  -2.642   7.718  10.761 -3.3931 -0.3673  1.6794
  605MOL0     H81656  -2.594   7.878  10.688  0.6139  0.6970 -0.5553
  605MOL0     H81657  -1.726   7.824  11.460  0.8602  0.6294 -0.5646
  605MOL0     H81658  -1.639   8.008  11.568  0.4443 -0.2586 -0.8602
  605MOL0     H81659  -1.474   8.428  11.460 -3.1171  0.8415 -0.0104
  605MOL0     H81660  -1.382   8.646  11.509 -3.7303  2.2135  0.8136
  605MOL0     H81661   0.126   9.517  10.927  0.5107 -0.8345  0.9701
  605MOL0     H81662   0.377   9.484  10.950  1.5836  1.7084 -1.8226
  605MOL0     H81663   0.746   9.504  11.108 -0.5971 -0.2280 -1.0866
  605MOL0     H81664   0.974   9.477  11.149 -1.2981  1.5709  2.5682
  605MOL0     H81665   1.278   9.543  10.804 -0.6488 -2.0607  1.0017
  605MOL0     H81666   1.279   9.693  10.889 -3.8775 -0.1287 -0.5137
  605MOL0     H81667   1.434   9.440  10.968  1.8872  1.0085 -1.8923
  605MOL0     H81668   1.430   9.595  11.060 -1.3261 -0.4060  0.6375
  605MOL0     H81669   1.520   9.672  10.811 -2.3354  0.4009  1.0275
  605MOL0     H81670   1.546   9.494  10.800  0.3930 -1.0980  2.2478
  605MOL0     H81671   1.673   9.484  10.993 -1.4509 -1.0477 -0.3985
  605MOL0     H81672   1.663   9.659  11.036  2.2632  0.4280 -0.7521
  605MOL0     H81673   1.961   9.709  10.750 -0.7727  2.0595 -0.1039
  605MOL0     H81674   1.071   9.705  10.795  0.7737 -2.5090 -0.5556
  605MOL0     H81675   0.832   9.761  10.776  0.3674  3.6872  2.4023
  606MOL0     O81676   5.281   0.275   3.972 -0.3805  0.0476 -0.4229
  606MOL0     C81677   5.312   0.162   3.990 -0.7150  0.3646 -0.6857
  606MOL0     O81678   5.242   0.064   4.053 -0.0860 -0.2709 -0.4210
  606MOL0     C81679   5.122   0.111   4.099 -0.4044 -0.1089 -0.0351
  606MOL0     C81680   5.016   0.155   4.019 -0.5013  0.8073 -0.5928
  606MOL0     C81681   4.886   0.171   4.080  0.3756  0.2466 -0.1364
  606MOL0     C81682   4.864   0.128   4.209 -1.0240 -0.4640  0.3824
  606MOL0     O81683   4.727   0.139   4.258 -0.1099 -0.0371  0.0490
  606MOL0     C81684   4.674   0.083   4.379  0.1870 -1.0921 -0.8404
  606MOL0     C81685   4.628   0.194   4.476 -0.1656  0.0188 -0.1252
  606MOL0     C81686   4.487   0.253   4.449  0.3224 -0.5335  0.4713
  606MOL0     C81687   4.462   0.374   4.532  0.6624  1.8095  0.7801
  606MOL0     C81688   4.317   0.410   4.525  0.5291  0.1248  0.1991
  606MOL0     C81689   4.289   0.550   4.575 -0.3331  0.0962  0.1419
  606MOL0     C81690   4.166   0.614   4.520  1.3409  0.2881 -0.1702
  606MOL0     C81691   4.046   0.540   4.587  0.2288 -0.4934  1.1343
  606MOL0     N81692   3.932   0.624   4.579 -0.1285  0.8582  0.1982
  606MOL0     C81693   3.833   0.636   4.481 -0.3757 -0.0493 -0.9717
  606MOL0     C81694   3.746   0.720   4.538  0.2498  0.1984 -0.1440
  606MOL0     C81695   3.622   0.756   4.473  0.4771  0.1953  0.3738
  606MOL0     C81696   3.501   0.788   4.576  0.1373 -0.0071 -0.1311
  606MOL0     C81697   3.378   0.836   4.493 -0.4359 -0.3233  0.2836
  606MOL0     C81698   3.331   0.753   4.373 -0.1084  0.8708  0.2078
  606MOL0     O81699   3.200   0.790   4.344  0.2604 -0.2837 -0.0315
  606MOL0     C81700   3.134   0.703   4.254  0.4376  0.8405 -0.4982
  606MOL0     C81701   3.185   0.605   4.163 -0.5424  0.4463  0.2635
  606MOL0     C81702   3.111   0.550   4.057  0.6651  0.2653  0.2291
  606MOL0     C81703   3.186   0.450   3.977 -0.6938  1.2172 -0.1903
  606MOL0     C81704   2.977   0.595   4.034 -0.2756 -0.3403 -0.0419
  606MOL0     C81705   2.885   0.541   3.932  0.0701 -0.1408 -0.2338
  606MOL0     O81706   2.763   0.603   3.922  0.0837 -0.3195 -0.3723
  606MOL0     C81707   2.662   0.552   3.842  0.1016  0.2612  1.0423
  606MOL0     C81708   2.600   0.637   3.742  0.2448 -0.1886 -0.5844
  606MOL0     C81709   2.492   0.585   3.672 -0.1504 -0.2407  0.4032
  606MOL0     C81710   2.448   0.449   3.684  0.5713  0.2028 -0.4343
  606MOL0     O81711   2.359   0.400   3.591  0.6835  0.0176  0.6839
  606MOL0     C81712   2.298   0.271   3.607  1.0635  0.7204 -0.5139
  606MOL0     C81713   2.202   0.244   3.488 -0.4465  0.2940  0.4066
  606MOL0     C81714   2.275   0.260   3.349  0.4069 -0.2343  0.8235
  606MOL0     C81715   2.196   0.231   3.221 -0.4638  0.5616 -0.8720
  606MOL0     C81716   2.162   0.086   3.205 -0.2592  0.2964  0.1663
  606MOL0     C81717   2.274  -0.020   3.236  0.1307  0.4430  0.3986
  606MOL0     C81718   2.388   0.001   3.139  0.2744 -0.7467  0.3067
  606MOL0     C81719   2.499  -0.096   3.168  0.6360 -0.5410 -0.2996
  606MOL0    Cl81720   2.632  -0.072   3.048  0.0373 -0.2485 -0.2851
  606MOL0     C81721   2.511   0.374   3.783 -0.0485  0.0182 -0.3116
  606MOL0     C81722   2.611   0.421   3.861 -0.0530 -0.2903 -0.2709
  606MOL0     O81723   2.918   0.445   3.863  0.7771  0.0445 -0.9114
  606MOL0     C81724   2.935   0.695   4.116  0.6322  0.6474  0.0407
  606MOL0     C81725   3.009   0.746   4.214 -0.1857  0.1537 -0.3945
  606MOL0     N81726   3.794   0.761   4.663 -0.4882 -0.2531 -0.0661
  606MOL0     N81727   3.911   0.713   4.680  0.9782  0.6484  0.7700
  606MOL0     C81728   4.971   0.082   4.295 -0.9698 -0.4500  0.5758
  606MOL0     C81729   5.100   0.076   4.233 -0.1612  0.0877 -0.2074
  606MOL0     C81730   5.449   0.126   3.951 -1.2009 -0.9198 -0.7925
  606MOL0     C81731   5.537   0.212   3.890  0.5521  0.1523 -0.3994
  606MOL0     C81732   5.670   0.174   3.861 -0.1982 -0.3844  0.2687
  606MOL0     C81733   5.715   0.045   3.893 -0.6220  0.2293 -0.0437
  606MOL0     O81734   5.842  -0.005   3.870 -0.2372 -0.0915 -0.5607
  606MOL0     C81735   5.942   0.072   3.800  0.0366 -0.4719 -0.1907
  606MOL0     C81736   5.987   0.200   3.867 -1.1354 -0.0544 -0.0883
  606MOL0     C81737   5.996   0.192   4.017 -0.9034  0.3246 -0.2545
  606MOL0     C81738   6.138   0.130   4.052 -0.8465  0.0200 -0.1775
  606MOL0     C81739   6.163   0.133   4.199  0.1395 -0.0283  0.0971
  606MOL0     C81740   6.168   0.122   4.317  0.8034 -0.2656 -0.2087
  606MOL0     C81741   5.637  -0.033   3.980  0.3200 -0.7592 -0.2186
  606MOL0     C81742   5.504   0.007   4.003  0.1516  0.2054 -0.1462
  606MOL0     H81743   5.035   0.180   3.915 -0.4703 -1.3908 -1.1655
  606MOL0     H81744   4.801   0.210   4.026 -0.9299 -4.0262 -1.5732
  606MOL0     H81745   4.589   0.016   4.363 -1.6724  1.0580 -0.5607
  606MOL0     H81746   4.745   0.017   4.429 -0.0256 -1.1478 -0.6096
  606MOL0     H81747   4.611   0.143   4.571 -0.0788 -1.8692 -1.0822
  606MOL0     H81748   4.709   0.268   4.479  1.0928 -0.9952 -3.7805
  606MOL0     H81749   4.487   0.295   4.348 -1.3231  3.0575  1.7765
  606MOL0     H81750   4.421   0.166   4.457  1.1147 -1.2069 -0.1330
  606MOL0     H81751   4.487   0.334   4.631 -0.8404 -2.9749 -0.4851
  606MOL0     H81752   4.529   0.457   4.509 -0.5750  2.2501 -1.6323
  606MOL0     H81753   4.281   0.413   4.422 -2.8863  2.0255  1.2914
  606MOL0     H81754   4.265   0.331   4.582  2.2932 -0.9386  0.4181
  606MOL0     H81755   4.297   0.559   4.684 -1.0212  0.8549  0.1404
  606MOL0     H81756   4.360   0.620   4.528 -1.4723  1.8107  0.8551
  606MOL0     H81757   4.176   0.718   4.551 -0.1283 -0.4989  3.4744
  606MOL0     H81758   4.158   0.600   4.412  1.9054 -2.0301  0.0298
  606MOL0     H81759   4.069   0.512   4.690  2.0203  0.7727  1.1236
  606MOL0     H81760   4.024   0.444   4.538  0.0012 -1.4700  3.0507
  606MOL0     H81761   3.830   0.575   4.391  0.7358  1.4700 -2.0973
  606MOL0     H81762   3.645   0.840   4.406  0.3748 -0.1633 -0.1182
  606MOL0     H81763   3.606   0.676   4.400 -2.2918 -0.1820  1.2943
  606MOL0     H81764   3.531   0.862   4.650 -1.7938  1.1553 -0.4201
  606MOL0     H81765   3.477   0.696   4.630  0.1253  0.5791  0.8769
  606MOL0     H81766   3.392   0.939   4.461 -1.4449  0.5207  2.3382
  606MOL0     H81767   3.301   0.840   4.571  2.2847 -0.3319  3.1741
  606MOL0     H81768   3.338   0.648   4.404 -1.9935  1.1216  1.7511
  606MOL0     H81769   3.391   0.773   4.284 -0.8942  1.0582 -0.2918
  606MOL0     H81770   3.288   0.575   4.179 -0.3454  0.5527 -0.7836
  606MOL0     H81771   3.171   0.450   3.868  2.8466 -3.4757 -1.0442
  606MOL0     H81772   3.292   0.475   3.987 -0.3094 -0.7481  1.1278
  606MOL0     H81773   3.160   0.348   4.007  0.2596  0.0944 -2.8393
  606MOL0     H81774   2.626   0.741   3.725  0.4270 -0.3421 -1.2930
  606MOL0     H81775   2.443   0.658   3.608 -3.6067 -0.8693  2.0941
  606MOL0     H81776   2.368   0.187   3.618 -1.7074 -1.5417  1.2378
  606MOL0     H81777   2.234   0.273   3.695  1.7111 -4.3152  0.3708
  606MOL0     H81778   2.145   0.151   3.491 -2.2781  1.3860  0.7754
  606MOL0     H81779   2.117   0.313   3.483 -0.6945 -0.1007 -1.6423
  606MOL0     H81780   2.357   0.188   3.351  0.3421 -0.3062  0.8509
  606MOL0     H81781   2.310   0.363   3.335 -3.4010  1.2464  0.9775
  606MOL0     H81782   2.115   0.303   3.209  0.1516  1.6706  1.1659
  606MOL0     H81783   2.270   0.251   3.142 -1.7913 -1.5071 -2.7887
  606MOL0     H81784   2.122   0.077   3.104 -2.8117  2.5506  0.8796
  606MOL0     H81785   2.085   0.070   3.281 -0.7147  1.6861  0.0216
  606MOL0     H81786   2.307  -0.012   3.340  1.1771  1.9300 -0.0185
  606MOL0     H81787   2.227  -0.119   3.227  1.2168 -0.0182 -0.5164
  606MOL0     H81788   2.430   0.101   3.152 -3.0303  0.5395  2.5039
  606MOL0     H81789   2.342  -0.010   3.040  2.2031 -6.8110 -0.3119
  606MOL0     H81790   2.471  -0.202   3.167  2.7511 -1.1708 -2.1432
  606MOL0     H81791   2.541  -0.080   3.268  2.0575  0.0445 -0.9531
  606MOL0     H81792   2.505   0.266   3.797  0.9983  0.1147  1.1160
  606MOL0     H81793   2.657   0.363   3.940 -1.2113 -2.3231 -1.0161
  606MOL0     H81794   2.833   0.730   4.102 -0.1371 -0.8715  1.4740
  606MOL0     H81795   2.957   0.827   4.265  0.7690  0.1414  0.6198
  606MOL0     H81796   4.948   0.045   4.394 -1.4969  2.1177  1.4942
  606MOL0     H81797   5.188   0.060   4.294  0.7226 -0.7670 -1.6505
  606MOL0     H81798   5.505   0.314   3.874  1.0456  0.6688  1.7028
  606MOL0     H81799   5.740   0.240   3.812 -1.6813  1.5033  0.5853
  606MOL0     H81800   6.034   0.014   3.784  0.1560 -0.1813 -0.5667
  606MOL0     H81801   5.909   0.100   3.700  0.0440  2.2100  0.4716
  606MOL0     H81802   5.931   0.288   3.835 -0.1994  0.4586 -0.3488
  606MOL0     H81803   6.088   0.213   3.827 -1.1866  0.5108 -0.0411
  606MOL0     H81804   5.921   0.120   4.051 -0.3750 -0.4017 -0.5817
  606MOL0     H81805   5.993   0.289   4.067 -0.4871  1.6016 -2.6089
  606MOL0     H81806   6.213   0.186   3.995  0.1076 -3.0878 -2.2414
  606MOL0     H81807   6.140   0.029   4.011 -0.9638 -0.4052  0.8382
  606MOL0     H81808   6.187   0.107   4.422  1.1482  0.7940 -0.1049
  606MOL0     H81809   5.669  -0.132   4.008  0.9237 -1.4769 -3.1594
  606MOL0     H81810   5.452  -0.064   4.066  2.1126 -0.7403  0.4511
  607MOL0     O81811   3.828   2.185   2.243  0.6470 -0.6161  0.7952
  607MOL0     C81812   3.836   2.108   2.335 -0.0112 -0.5139  0.2233
  607MOL0     O81813   3.753   2.003   2.353  0.2119  0.0207 -0.8617
  607MOL0     C81814   3.629   1.993   2.290  0.4418  0.4216  0.5803
  607MOL0     C81815   3.543   2.104   2.271  0.5487  0.2791  1.2080
  607MOL0     C81816   3.413   2.085   2.216  0.2242 -0.4456 -0.7112
  607MOL0     C81817   3.371   1.962   2.179  0.1067  0.2882 -0.8642
  607MOL0     O81818   3.246   1.950   2.133 -0.0594 -0.1490 -0.4488
  607MOL0     C81819   3.227   1.831   2.048 -0.4375 -0.8904  0.2616
  607MOL0     C81820   3.093   1.818   1.992  0.4080  0.6530  0.5736
  607MOL0     C81821   2.997   1.751   2.094 -0.0214  0.1670 -0.2471
  607MOL0     C81822   2.854   1.768   2.050 -0.1570 -0.4754  0.4712
  607MOL0     C81823   2.748   1.722   2.150 -0.4196 -1.1423  0.1436
  607MOL0     C81824   2.603   1.774   2.114  0.6743  0.0757  0.7143
  607MOL0     C81825   2.511   1.762   2.228  0.6260  0.9375 -0.5430
  607MOL0     C81826   2.459   1.622   2.262  0.4544  0.2028 -0.7568
  607MOL0     N81827   2.364   1.563   2.170 -0.0153 -0.4548  0.6627
  607MOL0     C81828   2.251   1.628   2.116 -0.4627  0.4220 -1.2513
  607MOL0     C81829   2.193   1.533   2.037  0.1581 -0.2590  0.2485
  607MOL0     C81830   2.074   1.550   1.944  0.3412  0.0196 -1.5650
  607MOL0     C81831   1.947   1.544   2.026 -0.5798 -0.2488  0.7375
  607MOL0     C81832   1.831   1.519   1.923 -1.3537 -0.8244  0.5543
  607MOL0     C81833   1.781   1.647   1.854  0.2272 -0.1834  0.4812
  607MOL0     O81834   1.664   1.608   1.777 -0.3541  0.9507 -0.0642
  607MOL0     C81835   1.592   1.696   1.694 -0.7305  0.7382 -0.2618
  607MOL0     C81836   1.622   1.835   1.681  0.4734  0.7267 -0.2862
  607MOL0     C81837   1.536   1.922   1.605  0.2844  0.3903 -1.2787
  607MOL0     C81838   1.573   2.070   1.604  0.0239  0.3045  0.5571
  607MOL0     C81839   1.423   1.877   1.533 -0.2259  0.3901  0.1950
  607MOL0     C81840   1.324   1.948   1.440 -0.6910 -0.0395  0.4688
  607MOL0     O81841   1.314   2.083   1.455  0.4314 -0.5666 -0.1554
  607MOL0     C81842   1.228   2.154   1.372 -0.4856 -0.6010  0.4426
  607MOL0     C81843   1.094   2.130   1.365 -0.5879 -0.2027  0.0850
  607MOL0     C81844   1.009   2.198   1.286  0.7058  0.2495 -0.6187
  607MOL0     C81845   1.054   2.315   1.216 -0.0904 -0.2921  1.1959
  607MOL0     O81846   0.972   2.378   1.120  0.4064 -0.4061 -0.0687
  607MOL0     C81847   0.833   2.366   1.134  0.6361  0.6011  0.1806
  607MOL0     C81848   0.761   2.457   1.027 -0.4946 -0.6278  0.0912
  607MOL0     C81849   0.762   2.378   0.889  0.2343 -0.1051  0.3240
  607MOL0     C81850   0.697   2.458   0.772  0.1705  0.2313  1.1086
  607MOL0     C81851   0.560   2.521   0.809 -0.1438  0.1802  0.4393
  607MOL0     C81852   0.483   2.563   0.682 -0.1815  0.3775  0.2026
  607MOL0     C81853   0.386   2.663   0.713  0.5016  0.3585 -0.0773
  607MOL0     C81854   0.307   2.710   0.586 -0.6754  0.8158  0.6885
  607MOL0    Cl81855   0.197   2.858   0.626 -0.2875  0.3105  0.1920
  607MOL0     C81856   1.192   2.355   1.227  1.2678 -0.1949 -0.0709
  607MOL0     C81857   1.275   2.278   1.303 -0.1442  1.0445  0.2532
  607MOL0     O81858   1.255   1.875   1.359 -0.4666 -1.2249  0.2577
  607MOL0     C81859   1.400   1.736   1.549 -0.0647  0.1443 -0.1603
  607MOL0     C81860   1.479   1.651   1.627  0.3233  0.1940  0.3512
  607MOL0     N81861   2.269   1.415   2.045  1.4591 -0.1995 -0.2128
  607MOL0     N81862   2.374   1.439   2.117  0.7017 -0.0582 -0.3737
  607MOL0     C81863   3.459   1.843   2.203 -0.1924 -0.4580  0.2813
  607MOL0     C81864   3.588   1.866   2.252 -0.8346  0.1950  0.8622
  607MOL0     C81865   3.965   2.099   2.396 -0.6366  0.9023 -0.6154
  607MOL0     C81866   3.998   1.979   2.465 -0.5191 -0.1315  0.0690
  607MOL0     C81867   4.117   1.979   2.542 -0.4400  0.4696  0.2826
  607MOL0     C81868   4.206   2.084   2.549 -0.4427 -0.1843  0.8423
  607MOL0     O81869   4.324   2.085   2.626 -1.1027  1.0468 -0.4207
  607MOL0     C81870   4.445   2.144   2.578 -0.1166 -0.5652 -0.4924
  607MOL0     C81871   4.556   2.046   2.636  0.3599  0.2673  0.0645
  607MOL0     C81872   4.596   2.095   2.772  0.3543  0.1497  0.2944
  607MOL0     C81873   4.705   2.010   2.841  0.3108 -0.2333  0.5321
  607MOL0     C81874   4.646   1.880   2.874  0.3229  0.5212 -0.6257
  607MOL0     C81875   4.590   1.772   2.894 -0.2121 -0.4407  0.9192
  607MOL0     C81876   4.169   2.204   2.484 -0.1149  0.4023  0.3189
  607MOL0     C81877   4.042   2.212   2.418 -0.0556 -0.6723  0.3522
  607MOL0     H81878   3.566   2.198   2.320  0.7586  0.8969 -0.0342
  607MOL0     H81879   3.340   2.165   2.209  1.0349  0.5486  1.3169
  607MOL0     H81880   3.301   1.856   1.971 -0.8701  5.0642  1.2925
  607MOL0     H81881   3.252   1.738   2.099  3.0167  0.0948  0.6174
  607MOL0     H81882   3.065   1.912   1.943  0.8864  0.3217 -0.3587
  607MOL0     H81883   3.098   1.755   1.903  1.0977 -0.6893  1.5317
  607MOL0     H81884   3.025   1.646   2.094  0.5479  0.2972 -1.5453
  607MOL0     H81885   3.021   1.790   2.194  3.3277  2.6093 -1.7878
  607MOL0     H81886   2.847   1.875   2.029 -1.5615 -0.6088  0.1489
  607MOL0     H81887   2.853   1.716   1.954  2.3377  0.4878 -0.1572
  607MOL0     H81888   2.743   1.613   2.158 -0.2915 -1.0588  1.6616
  607MOL0     H81889   2.795   1.760   2.242 -0.9549  1.7679 -0.6998
  607MOL0     H81890   2.608   1.882   2.096  1.0415 -0.1318 -0.5401
  607MOL0     H81891   2.563   1.730   2.022 -1.1111  1.9971  0.4783
  607MOL0     H81892   2.574   1.780   2.316  2.0318 -0.7717 -1.1408
  607MOL0     H81893   2.437   1.842   2.219  1.1692  1.5239  0.0923
  607MOL0     H81894   2.419   1.614   2.363  1.0148  0.8736 -0.4744
  607MOL0     H81895   2.541   1.549   2.264 -0.1210 -0.5032  2.2755
  607MOL0     H81896   2.218   1.729   2.137  0.0503 -0.2313  3.9471
  607MOL0     H81897   2.078   1.647   1.893 -1.7037  1.3659  0.6066
  607MOL0     H81898   2.072   1.471   1.869  0.1859 -0.4747 -1.0457
  607MOL0     H81899   1.940   1.636   2.086 -0.8513  0.3736 -0.2330
  607MOL0     H81900   1.956   1.461   2.097  0.7711 -0.8069 -0.0563
  607MOL0     H81901   1.741   1.481   1.972 -2.4049 -0.0044 -0.6739
  607MOL0     H81902   1.861   1.443   1.850  2.6912 -0.0504  1.1336
  607MOL0     H81903   1.859   1.684   1.787  0.7376  1.6818  2.0047
  607MOL0     H81904   1.763   1.726   1.928  2.6586  1.1007 -0.1796
  607MOL0     H81905   1.703   1.885   1.733  1.0349 -1.4034  1.0256
  607MOL0     H81906   1.502   2.130   1.662  0.2519 -0.9966  2.2910
  607MOL0     H81907   1.672   2.093   1.644  0.0977  0.7855  0.0999
  607MOL0     H81908   1.581   2.115   1.505  0.3348  1.1203  0.9411
  607MOL0     H81909   1.052   2.045   1.417 -2.0801  1.6865  2.1672
  607MOL0     H81910   0.906   2.165   1.275  0.8193 -0.7795  0.9736
  607MOL0     H81911   0.787   2.268   1.121 -0.8534  1.1845  0.7945
  607MOL0     H81912   0.801   2.392   1.235  0.8240 -2.3473  1.0677
  607MOL0     H81913   0.655   2.466   1.055 -0.4064 -1.1603  0.6005
  607MOL0     H81914   0.801   2.558   1.019  0.8766 -1.1589 -0.0083
  607MOL0     H81915   0.702   2.288   0.910 -1.9294  1.3083  0.5727
  607MOL0     H81916   0.863   2.342   0.870  0.3312 -2.0345  3.7641
  607MOL0     H81917   0.772   2.524   0.729 -0.7842 -0.7326 -2.4120
  607MOL0     H81918   0.683   2.390   0.688 -1.0693  0.0040  1.4681
  607MOL0     H81919   0.592   2.608   0.868  0.7766  0.1870 -0.0557
  607MOL0     H81920   0.495   2.452   0.863 -1.9818  0.2767 -1.5215
  607MOL0     H81921   0.547   2.613   0.609  0.8916 -1.0411  0.1318
  607MOL0     H81922   0.450   2.483   0.615  0.8148  3.6462 -4.7099
  607MOL0     H81923   0.439   2.754   0.744  2.7958 -0.4923 -1.2627
  607MOL0     H81924   0.315   2.620   0.784  2.2984 -0.5122  1.2999
  607MOL0     H81925   0.244   2.622   0.566  1.2263 -0.2103 -1.1800
  607MOL0     H81926   0.371   2.736   0.501  1.4776  2.0347  2.5704
  607MOL0     H81927   1.235   2.433   1.165  1.1910 -0.0666  0.0385
  607MOL0     H81928   1.379   2.309   1.307 -0.7372  3.5827 -1.6499
  607MOL0     H81929   1.321   1.689   1.491  1.6217 -5.0867  1.2146
  607MOL0     H81930   1.463   1.544   1.632  2.6968 -0.2424 -0.3872
  607MOL0     H81931   3.426   1.750   2.159  0.8752 -0.0141 -1.5704
  607MOL0     H81932   3.658   1.783   2.255 -0.7595  0.2709  1.1939
  607MOL0     H81933   3.935   1.891   2.454 -0.8545 -0.3092  2.7529
  607MOL0     H81934   4.155   1.890   2.590  1.7609 -0.5562 -2.9674
  607MOL0     H81935   4.456   2.145   2.469 -1.1614 -2.3821 -0.6528
  607MOL0     H81936   4.462   2.245   2.616 -1.0156 -1.2302  1.8828
  607MOL0     H81937   4.648   2.033   2.578 -0.0690 -1.2095 -0.3269
  607MOL0     H81938   4.514   1.945   2.631 -0.6862  0.6674  0.3671
  607MOL0     H81939   4.513   2.114   2.840  0.4318  2.1292 -0.1133
  607MOL0     H81940   4.628   2.198   2.755 -0.7507  0.3661 -0.5546
  607MOL0     H81941   4.749   2.068   2.923 -0.7682  0.4242  0.6611
  607MOL0     H81942   4.787   1.986   2.773  0.7731  3.7412 -0.5062
  607MOL0     H81943   4.540   1.677   2.895  0.4222 -0.7767  2.1371
  607MOL0     H81944   4.241   2.284   2.485  1.5739 -1.0522  0.9998
  607MOL0     H81945   4.008   2.311   2.388  1.1347 -0.4128 -0.1881
  608MOL0     O81946   2.704   1.026   5.739 -0.0698  1.0051 -0.2011
  608MOL0     C81947   2.706   1.149   5.771  0.1303 -0.0659  0.3042
  608MOL0     O81948   2.594   1.229   5.787 -0.0121 -0.3501 -0.1988
  608MOL0     C81949   2.471   1.173   5.759 -0.7482  0.0618  0.1486
  608MOL0     C81950   2.422   1.191   5.624  0.7898 -0.5952  0.1019
  608MOL0     C81951   2.293   1.139   5.593  0.0759  0.0705  0.7182
  608MOL0     C81952   2.225   1.055   5.677 -0.1076  0.6451 -0.6010
  608MOL0     O81953   2.102   1.007   5.637 -0.6124  0.3799  0.2260
  608MOL0     C81954   2.114   0.877   5.574 -0.1742 -0.0465  0.9461
  608MOL0     C81955   2.097   0.771   5.680 -0.2094  0.9980 -0.2490
  608MOL0     C81956   1.954   0.724   5.727  0.6283 -0.7429 -0.2081
  608MOL0     C81957   1.862   0.831   5.778  0.1324  0.0087 -0.0713
  608MOL0     C81958   1.723   0.784   5.786  0.3618 -0.8104  0.5828
  608MOL0     C81959   1.670   0.772   5.636  0.3135  0.2862 -2.0206
  608MOL0     C81960   1.515   0.797   5.626 -0.9718  0.2146 -0.7262
  608MOL0     C81961   1.426   0.672   5.630  0.6240  0.1385  0.6029
  608MOL0     N81962   1.283   0.696   5.605  0.5415 -0.0076 -0.5671
  608MOL0     C81963   1.225   0.723   5.486  0.6751 -0.0988  0.8922
  608MOL0     C81964   1.095   0.749   5.513  0.0851 -0.4737  0.0208
  608MOL0     C81965   0.994   0.802   5.421 -1.2026 -0.8144 -0.0922
  608MOL0     C81966   0.881   0.703   5.410  0.2315 -0.8078  0.5951
  608MOL0     C81967   0.772   0.753   5.314  0.3276 -0.8973 -0.2593
  608MOL0     C81968   0.641   0.665   5.328 -0.5263 -0.3716  0.3292
  608MOL0     O81969   0.548   0.698   5.225  0.0343  0.0176 -0.2439
  608MOL0     C81970   0.415   0.659   5.219 -0.2222 -0.2659  0.3212
  608MOL0     C81971   0.322   0.749   5.167 -0.9403  0.1873 -0.1225
  608MOL0     C81972   0.191   0.720   5.150 -0.3094 -0.6606 -1.0085
  608MOL0     C81973   0.101   0.827   5.084 -0.6074  0.3072  0.3525
  608MOL0     C81974   0.146   0.596   5.209  0.0879 -0.3611  0.3286
  608MOL0     C81975   0.000   0.550   5.195 -0.1182  0.2570 -0.5446
  608MOL0     O81976  -0.042   0.465   5.285 -0.3568  0.3839  0.2436
  608MOL0     C81977  -0.175   0.457   5.308  0.1815 -0.1569  0.0354
  608MOL0     C81978  -0.263   0.560   5.278  0.2312  0.1830  0.3292
  608MOL0     C81979  -0.396   0.552   5.286  0.1811  0.3828  0.3549
  608MOL0     C81980  -0.456   0.434   5.339 -0.0969 -0.2424 -0.3062
  608MOL0     O81981  -0.588   0.399   5.365  0.0987 -0.1464 -0.2941
  608MOL0     C81982  -0.678   0.476   5.283  0.0821  0.1838 -0.2881
  608MOL0     C81983  -0.813   0.445   5.344  0.1748  0.1952 -0.0544
  608MOL0     C81984  -0.906   0.559   5.306  0.6388  1.4119  0.2965
  608MOL0     C81985  -1.042   0.547   5.367 -0.6505 -0.4678 -0.3392
  608MOL0     C81986  -1.150   0.624   5.291 -0.0944  0.1219 -1.0473
  608MOL0     C81987  -1.176   0.563   5.153 -0.0602  0.0388 -0.6953
  608MOL0     C81988  -1.304   0.632   5.103  0.3211  0.1473 -0.3291
  608MOL0     C81989  -1.298   0.786   5.071  0.2982 -0.9287 -0.0827
  608MOL0    Cl81990  -1.191   0.840   4.951  0.1756 -0.1891  0.2905
  608MOL0     C81991  -0.370   0.327   5.373  0.4578  0.2049 -0.1748
  608MOL0     C81992  -0.231   0.339   5.362  0.1382 -0.0722  0.4076
  608MOL0     O81993  -0.061   0.579   5.094 -1.1564  0.1639  0.4047
  608MOL0     C81994   0.230   0.506   5.262  0.1676  0.0383 -0.1390
  608MOL0     C81995   0.362   0.533   5.263  0.3988 -0.1128 -0.8579
  608MOL0     N81996   1.074   0.731   5.648 -0.1270 -0.3791 -0.1194
  608MOL0     N81997   1.194   0.710   5.706 -0.5099 -0.5501 -0.6862
  608MOL0     C81998   2.286   1.025   5.806 -0.3959 -0.7340  0.5135
  608MOL0     C81999   2.404   1.086   5.846 -0.5847 -0.6638 -0.2413
  608MOL0     C82000   2.842   1.207   5.798  0.7507 -1.0288 -0.3261
  608MOL0     C82001   2.958   1.120   5.811  0.3091  0.1803  0.2550
  608MOL0     C82002   3.086   1.181   5.835  0.2172 -0.2557  0.6214
  608MOL0     C82003   3.097   1.325   5.847  0.5689  0.3838  0.5688
  608MOL0     O82004   3.211   1.382   5.874 -0.2875 -0.7777  0.1373
  608MOL0     C82005   3.301   1.317   5.965  0.7118  0.3547  0.4557
  608MOL0     C82006   3.423   1.248   5.900  0.1925  1.0821  0.2508
  608MOL0     C82007   3.526   1.204   6.006 -0.2688  0.0118 -0.0931
  608MOL0     C82008   3.598   1.325   6.071  0.0936  0.1062  0.7971
  608MOL0     C82009   3.714   1.288   6.151  1.2898 -0.7753  0.3148
  608MOL0     C82010   3.785   1.257   6.245  0.7857 -0.1399 -0.6952
  608MOL0     C82011   2.981   1.405   5.837  0.0596 -0.1137 -0.0705
  608MOL0     C82012   2.856   1.343   5.816  0.0088  0.0045 -0.4849
  608MOL0     H82013   2.473   1.254   5.552 -1.6819  1.6356  0.1502
  608MOL0     H82014   2.243   1.158   5.499  1.5948 -1.3299 -0.4371
  608MOL0     H82015   2.036   0.866   5.498  0.6899  2.1952 -0.3825
  608MOL0     H82016   2.212   0.875   5.524  0.0204  0.4674  1.3013
  608MOL0     H82017   2.154   0.688   5.638  1.8920  2.5583 -0.6664
  608MOL0     H82018   2.145   0.793   5.775 -3.9521 -0.8047  2.3173
  608MOL0     H82019   1.907   0.663   5.648 -2.6000  0.5413  0.5611
  608MOL0     H82020   1.954   0.645   5.803  0.3376 -0.2692  0.2893
  608MOL0     H82021   1.887   0.859   5.881  2.0351 -1.7983  0.0190
  608MOL0     H82022   1.863   0.915   5.708 -0.1966 -2.2163 -2.9648
  608MOL0     H82023   1.717   0.692   5.845  0.7494 -0.9544  0.4022
  608MOL0     H82024   1.661   0.849   5.849  0.0085  0.3759 -0.9219
  608MOL0     H82025   1.716   0.849   5.574  1.6326  0.3787 -0.9824
  608MOL0     H82026   1.692   0.677   5.587  3.3201 -0.7430  0.8795
  608MOL0     H82027   1.496   0.874   5.702 -0.2223 -1.4967  1.3204
  608MOL0     H82028   1.487   0.840   5.530 -2.4316 -2.3482 -1.5261
  608MOL0     H82029   1.417   0.627   5.729 -2.3590 -2.3081 -0.6037
  608MOL0     H82030   1.460   0.589   5.567 -0.0631 -0.8275  1.4596
  608MOL0     H82031   1.282   0.747   5.397  0.0008  0.6235  0.6425
  608MOL0     H82032   0.960   0.905   5.440  2.0947  0.6915 -1.4748
  608MOL0     H82033   1.032   0.820   5.320 -0.0230  1.4649  0.6680
  608MOL0     H82034   0.832   0.692   5.507  1.9567 -2.2960  1.3534
  608MOL0     H82035   0.940   0.619   5.373  4.4315  1.3006  1.9077
  608MOL0     H82036   0.811   0.738   5.213  0.0095  3.0548 -1.1116
  608MOL0     H82037   0.742   0.858   5.321 -1.8158 -1.4799  0.2492
  608MOL0     H82038   0.602   0.670   5.430  4.2052  0.8282  2.3699
  608MOL0     H82039   0.676   0.563   5.309  0.5507  0.1372 -0.4995
  608MOL0     H82040   0.365   0.842   5.128 -0.6844  0.2196  0.2335
  608MOL0     H82041   0.061   0.791   4.989  0.2457 -0.1487  0.1545
  608MOL0     H82042   0.009   0.838   5.142 -1.0369 -2.0060  0.2215
  608MOL0     H82043   0.153   0.920   5.062 -4.1679  1.9239 -2.2601
  608MOL0     H82044  -0.220   0.659   5.267  0.6178  0.3216  2.5646
  608MOL0     H82045  -0.462   0.637   5.273 -1.3435 -0.7936  0.1219
  608MOL0     H82046  -0.670   0.582   5.305 -1.6844  0.1453  0.7688
  608MOL0     H82047  -0.653   0.480   5.177  3.8123  1.5945  0.5120
  608MOL0     H82048  -0.848   0.352   5.297  0.1109  1.4075 -2.5863
  608MOL0     H82049  -0.814   0.440   5.453  2.1823 -2.0263 -0.0427
  608MOL0     H82050  -0.909   0.568   5.197  0.3810 -0.1973  0.1460
  608MOL0     H82051  -0.863   0.650   5.348  3.0534  0.1703  0.6852
  608MOL0     H82052  -1.072   0.442   5.360 -2.6172  0.1561 -3.1691
  608MOL0     H82053  -1.038   0.575   5.473  1.1845 -0.1282 -0.4599
  608MOL0     H82054  -1.117   0.728   5.288  1.9275 -0.4070  0.5281
  608MOL0     H82055  -1.236   0.609   5.356  1.2806  0.1794  0.8832
  608MOL0     H82056  -1.093   0.565   5.082  0.1025  1.3184 -0.4904
  608MOL0     H82057  -1.204   0.459   5.175 -1.1906  1.0456  3.4589
  608MOL0     H82058  -1.383   0.620   5.177  0.3494  1.7301  0.0010
  608MOL0     H82059  -1.336   0.581   5.011 -2.4803  1.4108 -0.1549
  608MOL0     H82060  -1.270   0.849   5.156  2.4253  0.0981 -1.4661
  608MOL0     H82061  -1.399   0.815   5.041  0.2237 -0.8226  0.2733
  608MOL0     H82062  -0.416   0.239   5.416  1.2017 -0.0443  0.1060
  608MOL0     H82063  -0.160   0.260   5.385  1.2459  1.5124  2.9187
  608MOL0     H82064   0.190   0.410   5.296 -0.7654  0.0227 -1.2249
  608MOL0     H82065   0.428   0.451   5.287 -2.2815 -1.9068  1.1100
  608MOL0     H82066   2.233   0.952   5.867 -3.0053  0.1251 -0.5707
  608MOL0     H82067   2.449   1.088   5.945  0.3648 -0.4896 -0.6703
  608MOL0     H82068   2.948   1.012   5.813 -1.6778  0.3181 -0.0352
  608MOL0     H82069   3.167   1.109   5.842 -1.7593 -2.6010  0.7684
  608MOL0     H82070   3.342   1.402   6.021  0.1484  0.6288  0.4624
  608MOL0     H82071   3.254   1.246   6.033  0.2668 -0.7426 -0.9468
  608MOL0     H82072   3.474   1.314   5.829 -0.0870 -0.5643 -1.5680
  608MOL0     H82073   3.391   1.155   5.852  0.1683 -0.1765  2.5869
  608MOL0     H82074   3.602   1.139   5.963 -0.4445  0.0468 -0.4626
  608MOL0     H82075   3.472   1.143   6.078  0.4179 -1.7218 -0.9950
  608MOL0     H82076   3.529   1.370   6.142 -2.4811  0.5637 -1.7893
  608MOL0     H82077   3.630   1.387   5.987  1.4247 -0.5384  0.8012
  608MOL0     H82078   3.852   1.241   6.327  1.2696  0.6688 -0.9074
  608MOL0     H82079   2.988   1.513   5.832 -0.1621 -0.1202 -0.5855
  608MOL0     H82080   2.767   1.405   5.810 -0.0056  0.2784  1.7135
  609MOL0     O82081   4.959   3.227   5.378  0.0211  0.2170 -0.0459
  609MOL0     C82082   5.001   3.215   5.267 -0.1808  0.6157 -0.1139
  609MOL0     O82083   4.931   3.197   5.151  0.7384  0.4183 -0.6194
  609MOL0     C82084   4.797   3.193   5.171  0.5292 -0.6816 -0.7782
  609MOL0     C82085   4.713   3.079   5.162  0.0354 -0.0286  0.1917
  609MOL0     C82086   4.568   3.089   5.173 -0.2204 -0.1325 -0.8162
  609MOL0     C82087   4.503   3.208   5.214 -0.0542 -0.5158 -0.0427
  609MOL0     O82088   4.364   3.229   5.220  0.0804 -0.4096  0.1907
  609MOL0     C82089   4.276   3.122   5.181 -0.3403 -0.3711 -0.3735
  609MOL0     C82090   4.149   3.128   5.267 -0.5114  0.3975  0.4812
  609MOL0     C82091   4.179   3.105   5.411  0.0040  0.1313 -0.8108
  609MOL0     C82092   4.180   2.952   5.443 -0.0957 -0.6143 -0.3776
  609MOL0     C82093   4.219   2.912   5.589  0.3724 -0.4701 -0.4863
  609MOL0     C82094   4.140   2.958   5.706 -0.3743  0.5231 -0.3028
  609MOL0     C82095   4.225   2.978   5.836  0.4141 -0.1927 -0.5019
  609MOL0     C82096   4.135   3.021   5.954 -0.2197 -0.3629  0.7885
  609MOL0     N82097   4.022   2.945   5.992 -0.3143 -0.6067  0.1209
  609MOL0     C82098   3.903   2.989   6.036 -0.2048  0.0069 -0.5555
  609MOL0     C82099   3.832   2.887   6.072 -0.4348  0.8061 -0.1061
  609MOL0     C82100   3.689   2.891   6.120  0.0333  0.0632 -0.1205
  609MOL0     C82101   3.655   2.781   6.217 -0.4986  0.2525 -0.6257
  609MOL0     C82102   3.498   2.767   6.215 -0.0102 -0.2494 -0.1881
  609MOL0     C82103   3.448   2.678   6.100  0.6065  0.5673  0.1835
  609MOL0     O82104   3.309   2.702   6.097  0.5642 -0.1195 -0.2153
  609MOL0     C82105   3.225   2.606   6.043 -0.3131 -0.5745 -0.5565
  609MOL0     C82106   3.261   2.484   5.999  0.0665  0.3186  0.0071
  609MOL0     C82107   3.171   2.389   5.947  0.1830  0.3146 -0.0520
  609MOL0     C82108   3.233   2.260   5.892  0.1367 -0.3545 -0.0647
  609MOL0     C82109   3.038   2.428   5.928  0.6387  0.0047  0.4261
  609MOL0     C82110   2.935   2.371   5.838 -0.2663  0.8080 -0.4671
  609MOL0     O82111   2.875   2.446   5.750  0.3467  0.8080  1.0779
  609MOL0     C82112   2.762   2.397   5.679 -0.0734 -1.0016 -0.5904
  609MOL0     C82113   2.632   2.419   5.717  0.6662  0.3291  0.2573
  609MOL0     C82114   2.521   2.357   5.654 -0.9178 -0.0055 -0.0353
  609MOL0     C82115   2.543   2.267   5.548 -0.4168 -1.3484 -0.6473
  609MOL0     O82116   2.433   2.219   5.486  0.1125  0.3808  0.6824
  609MOL0     C82117   2.441   2.178   5.348 -0.7605 -0.1563  0.4572
  609MOL0     C82118   2.487   2.293   5.255 -0.3326 -0.2068 -0.2688
  609MOL0     C82119   2.487   2.250   5.106  0.4123  0.3949 -0.2669
  609MOL0     C82120   2.478   2.369   5.011 -0.8131  0.3384  0.5680
  609MOL0     C82121   2.462   2.327   4.866  1.1782  0.2853 -0.6696
  609MOL0     C82122   2.575   2.241   4.799 -0.3769 -0.2115 -0.8850
  609MOL0     C82123   2.706   2.309   4.804 -0.2824 -1.6161  0.9019
  609MOL0     C82124   2.825   2.237   4.749 -0.6704 -0.1879  0.4693
  609MOL0    Cl82125   2.841   2.262   4.568  0.3530 -0.3094 -0.2690
  609MOL0     C82126   2.682   2.255   5.509 -0.0650 -0.1757 -0.1678
  609MOL0     C82127   2.784   2.311   5.579  0.2639 -0.7120 -0.1350
  609MOL0     O82128   2.910   2.253   5.859 -0.6272 -0.0208  0.3023
  609MOL0     C82129   2.992   2.553   5.980 -0.7354  0.8078 -0.1139
  609MOL0     C82130   3.092   2.639   6.031  0.7218 -0.1453  0.3620
  609MOL0     N82131   3.907   2.775   6.044 -0.3147  0.0314  0.0622
  609MOL0     N82132   4.020   2.814   6.005 -0.7586  0.8500 -0.2480
  609MOL0     C82133   4.589   3.312   5.221  0.2297 -0.5940  0.1410
  609MOL0     C82134   4.731   3.310   5.206  0.6144 -0.4955 -0.3357
  609MOL0     C82135   5.147   3.224   5.247  0.6018  0.1561 -0.2355
  609MOL0     C82136   5.201   3.249   5.122  0.4092  0.8074  0.1288
  609MOL0     C82137   5.339   3.266   5.103 -0.7244  0.3426 -0.0269
  609MOL0     C82138   5.431   3.247   5.212  0.2396 -0.2622 -0.7899
  609MOL0     O82139   5.564   3.238   5.195 -0.4885 -0.7318 -0.1353
  609MOL0     C82140   5.624   3.252   5.065  0.1033  0.1762  0.3048
  609MOL0     C82141   5.773   3.271   5.071  0.3242 -0.2996 -0.4595
  609MOL0     C82142   5.855   3.173   5.152 -0.3356  0.1644 -0.1385
  609MOL0     C82143   5.990   3.149   5.096 -0.3402 -0.1550 -0.5275
  609MOL0     C82144   6.075   3.269   5.104 -0.2387 -0.5094  0.0945
  609MOL0     C82145   6.132   3.371   5.123  0.2937 -0.7959 -0.4505
  609MOL0     C82146   5.372   3.229   5.332 -0.2815 -0.4179  0.5553
  609MOL0     C82147   5.233   3.214   5.355 -0.0744  0.2582 -0.6190
  609MOL0     H82148   4.765   2.987   5.135 -1.3986 -1.0583  0.8055
  609MOL0     H82149   4.522   2.993   5.148 -2.0695  0.6205 -0.4683
  609MOL0     H82150   4.256   3.138   5.075 -1.4241  2.8618  0.2057
  609MOL0     H82151   4.317   3.022   5.197  2.5435  0.8510  0.4172
  609MOL0     H82152   4.097   3.223   5.250 -1.9983 -0.3329  0.8637
  609MOL0     H82153   4.079   3.056   5.224 -0.2743  0.7483 -0.5200
  609MOL0     H82154   4.269   3.156   5.443 -0.2637  0.1156 -0.0212
  609MOL0     H82155   4.105   3.170   5.457  0.7763  0.2443  0.2963
  609MOL0     H82156   4.092   2.897   5.410 -1.0615  1.9907 -2.5878
  609MOL0     H82157   4.255   2.905   5.378 -3.2609 -3.8644 -1.9970
  609MOL0     H82158   4.209   2.804   5.602 -1.8885 -0.4427 -1.5097
  609MOL0     H82159   4.322   2.945   5.606  0.0989 -0.1388  0.6209
  609MOL0     H82160   4.098   3.056   5.681  0.1907  0.6748 -0.6915
  609MOL0     H82161   4.055   2.897   5.736 -1.1036  2.5179  1.9915
  609MOL0     H82162   4.281   2.885   5.850  0.7694  0.2003  0.9115
  609MOL0     H82163   4.290   3.063   5.817  0.7865 -0.5765 -0.9899
  609MOL0     H82164   4.101   3.123   5.934  1.0215 -0.3092 -1.3330
  609MOL0     H82165   4.190   3.022   6.049  0.3150 -0.7324  0.4833
  609MOL0     H82166   3.869   3.092   6.035  3.2355  1.3371  0.8953
  609MOL0     H82167   3.669   2.991   6.159 -3.0539  0.0976 -1.4619
  609MOL0     H82168   3.610   2.888   6.044  0.3688 -1.3823 -0.4479
  609MOL0     H82169   3.691   2.801   6.318  2.0059  2.0210 -1.7721
  609MOL0     H82170   3.703   2.687   6.189  2.2900  1.3875  0.0457
  609MOL0     H82171   3.451   2.864   6.231  1.1613  0.2602  0.2699
  609MOL0     H82172   3.478   2.712   6.307  0.0390 -0.7649 -0.4840
  609MOL0     H82173   3.463   2.574   6.128 -3.1354 -0.5885 -1.4571
  609MOL0     H82174   3.499   2.699   6.005  1.7882  1.0277  0.8903
  609MOL0     H82175   3.364   2.450   6.008 -0.0876 -0.1200  0.1695
  609MOL0     H82176   3.244   2.257   5.783 -0.8098  1.6128 -0.2361
  609MOL0     H82177   3.333   2.256   5.938 -0.1922 -2.6591  0.5822
  609MOL0     H82178   3.177   2.174   5.930  0.9317 -0.3097  1.2669
  609MOL0     H82179   2.631   2.486   5.803 -0.3066 -0.2825  0.7351
  609MOL0     H82180   2.416   2.372   5.679 -1.7645  1.0634 -3.6417
  609MOL0     H82181   2.511   2.093   5.349 -2.5058 -1.6779  0.0187
  609MOL0     H82182   2.346   2.135   5.314  1.4261 -3.6704 -2.0005
  609MOL0     H82183   2.413   2.371   5.275 -1.0971 -0.6250 -1.4004
  609MOL0     H82184   2.588   2.330   5.274  0.1385 -1.9345  0.8970
  609MOL0     H82185   2.400   2.186   5.088  0.0399  0.8439 -0.0858
  609MOL0     H82186   2.579   2.192   5.095  0.4881  0.1448  1.4221
  609MOL0     H82187   2.379   2.408   5.036 -1.6038 -2.4568  2.2380
  609MOL0     H82188   2.564   2.435   5.023  0.2284 -0.9576  0.4319
  609MOL0     H82189   2.462   2.417   4.803  1.9451 -0.6716 -2.1213
  609MOL0     H82190   2.369   2.270   4.858  1.5454 -0.3490 -0.4941
  609MOL0     H82191   2.581   2.147   4.854  0.4528  0.8166  0.8370
  609MOL0     H82192   2.547   2.213   4.697 -2.0349 -0.6418 -0.3515
  609MOL0     H82193   2.729   2.327   4.909  1.6473  1.5959  0.0492
  609MOL0     H82194   2.697   2.405   4.753  0.8246 -1.6844  0.5278
  609MOL0     H82195   2.821   2.132   4.780  0.4104  0.0464  1.4653
  609MOL0     H82196   2.918   2.276   4.792  0.5174 -0.4779 -1.6514
  609MOL0     H82197   2.708   2.192   5.424  0.8329  0.6316 -0.5106
  609MOL0     H82198   2.889   2.292   5.560  0.6650  0.6264  0.6360
  609MOL0     H82199   2.886   2.574   5.989 -0.3593  2.1587  1.6219
  609MOL0     H82200   3.050   2.734   6.062 -1.7354 -1.7053  2.2572
  609MOL0     H82201   4.539   3.405   5.247  2.6319  0.8324 -0.1088
  609MOL0     H82202   4.785   3.393   5.251 -2.0395 -0.0469  2.3991
  609MOL0     H82203   5.135   3.266   5.037  0.5753 -0.6300 -0.3138
  609MOL0     H82204   5.363   3.292   5.001  0.7517  1.8986  0.6623
  609MOL0     H82205   5.604   3.166   5.002  1.6382  0.6017 -0.8161
  609MOL0     H82206   5.586   3.342   5.016  1.4894  0.7385  0.2170
  609MOL0     H82207   5.776   3.372   5.112  3.2007  0.5549 -2.4783
  609MOL0     H82208   5.816   3.284   4.971 -1.6392 -2.1579 -1.6367
  609MOL0     H82209   5.793   3.083   5.147 -2.7492  1.7822 -1.6234
  609MOL0     H82210   5.856   3.222   5.249  1.9141  2.1998 -1.0713
  609MOL0     H82211   5.985   3.128   4.988  0.4403  1.0925 -0.8293
  609MOL0     H82212   6.021   3.056   5.145 -0.3429 -0.4602 -1.0823
  609MOL0     H82213   6.198   3.455   5.131  0.6961 -1.1238 -0.2912
  609MOL0     H82214   5.441   3.217   5.415 -1.7780  0.1001  1.9230
  609MOL0     H82215   5.203   3.195   5.457 -0.3484  1.8383 -0.3793
  610MOL0     O82216   1.122   2.492   0.380  0.4599  0.6220  0.5314
  610MOL0     C82217   1.068   2.419   0.463  0.2968  0.3616  0.8941
  610MOL0     O82218   0.941   2.379   0.453  0.9102  0.8605  0.0527
  610MOL0     C82219   0.874   2.401   0.332  0.4429 -0.1882  0.1041
  610MOL0     C82220   0.743   2.444   0.339  0.9832  0.1699 -0.4486
  610MOL0     C82221   0.669   2.464   0.220  0.6579  0.2087  0.2358
  610MOL0     C82222   0.723   2.427   0.092 -0.1865 -0.1764  0.5724
  610MOL0     O82223   0.651   2.444  -0.022  0.3357 -0.1476  0.2918
  610MOL0     C82224   0.507   2.461  -0.016  1.0884  0.2487  0.2590
  610MOL0     C82225   0.441   2.443  -0.157  0.7492  0.3497 -0.0608
  610MOL0     C82226   0.289   2.465  -0.126 -0.2435 -0.2404  0.1761
  610MOL0     C82227   0.212   2.434  -0.254  1.0641 -0.0560  0.0167
  610MOL0     C82228   0.061   2.447  -0.226 -0.1612  0.0451 -0.6361
  610MOL0     C82229  -0.014   2.458  -0.354  1.0257  0.0973  0.6207
  610MOL0     C82230  -0.164   2.513  -0.354  0.4128 -0.2772 -0.2971
  610MOL0     C82231  -0.252   2.447  -0.248  0.3734 -0.1223 -0.3106
  610MOL0     N82232  -0.381   2.513  -0.254  0.0188 -0.0249  0.1385
  610MOL0     C82233  -0.479   2.489  -0.344 -0.7736 -0.2168  0.2279
  610MOL0     C82234  -0.564   2.595  -0.334  0.2366 -0.8484 -0.4752
  610MOL0     C82235  -0.692   2.614  -0.416 -0.1860  0.0470 -0.3281
  610MOL0     C82236  -0.687   2.550  -0.551 -0.1124 -0.2258  0.2976
  610MOL0     C82237  -0.829   2.550  -0.614  0.5628 -0.5364 -0.4130
  610MOL0     C82238  -0.826   2.489  -0.753  0.4769  0.6361  0.1296
  610MOL0     O82239  -0.924   2.554  -0.844 -0.3663  0.4879 -0.5332
  610MOL0     C82240  -1.054   2.506  -0.856 -0.1278 -0.8547  0.0107
  610MOL0     C82241  -1.101   2.398  -0.794  0.0098  0.0568 -0.7093
  610MOL0     C82242  -1.223   2.347  -0.821  0.4764 -0.9350  0.2697
  610MOL0     C82243  -1.269   2.229  -0.740  0.2746  0.2637 -0.1244
  610MOL0     C82244  -1.301   2.405  -0.923 -0.6909  0.1632 -0.4951
  610MOL0     C82245  -1.434   2.372  -0.954  0.4016  0.0581  0.4450
  610MOL0     O82246  -1.535   2.467  -0.933 -0.5799  0.3444  0.0710
  610MOL0     C82247  -1.662   2.429  -0.928 -0.2200  0.5734 -0.4247
  610MOL0     C82248  -1.731   2.481  -0.821  0.1008 -0.3357 -0.0176
  610MOL0     C82249  -1.861   2.440  -0.799  0.0113 -0.4578  0.4575
  610MOL0     C82250  -1.927   2.359  -0.887 -0.2600  0.3822  0.5687
  610MOL0     O82251  -2.061   2.333  -0.870  0.4399 -0.0743 -0.2753
  610MOL0     C82252  -2.119   2.209  -0.915  0.8341  0.3806  0.4202
  610MOL0     C82253  -2.265   2.195  -0.868  0.7871  0.3974 -0.7213
  610MOL0     C82254  -2.343   2.073  -0.911 -0.2882  0.2589  0.7375
  610MOL0     C82255  -2.478   2.067  -0.840  0.5216 -0.0362 -0.0008
  610MOL0     C82256  -2.500   1.954  -0.739 -0.0013 -0.4865  1.0942
  610MOL0     C82257  -2.412   1.964  -0.614 -0.0205  0.0355 -0.5022
  610MOL0     C82258  -2.463   1.874  -0.499 -0.7017  0.2103 -1.0542
  610MOL0     C82259  -2.393   1.899  -0.371  0.3280  0.7301 -0.4452
  610MOL0    Cl82260  -2.223   1.881  -0.397  0.2704 -0.5682  0.0194
  610MOL0     C82261  -1.859   2.305  -0.999 -0.9061 -0.2032 -0.2100
  610MOL0     C82262  -1.724   2.345  -1.014 -0.0369  0.0507  0.0148
  610MOL0     O82263  -1.463   2.255  -0.978 -0.4514 -0.1889  0.2859
  610MOL0     C82264  -1.247   2.509  -1.000  0.6489 -0.3689 -0.3433
  610MOL0     C82265  -1.124   2.567  -0.964 -0.4019 -0.6131  0.9726
  610MOL0     N82266  -0.519   2.683  -0.232 -0.2119 -0.1171  0.3465
  610MOL0     N82267  -0.405   2.624  -0.188 -0.4654  0.0027 -0.6455
  610MOL0     C82268   0.851   2.382   0.078 -0.7672 -1.1863  0.3474
  610MOL0     C82269   0.927   2.377   0.197 -0.3492  0.3155  0.8966
  610MOL0     C82270   1.140   2.358   0.573  0.6947  0.5548 -1.2713
  610MOL0     C82271   1.279   2.364   0.593  0.0298 -0.6631 -0.5704
  610MOL0     C82272   1.344   2.303   0.700 -0.8825 -0.2220 -0.1842
  610MOL0     C82273   1.277   2.212   0.778  0.6986  0.3417  0.3791
  610MOL0     O82274   1.333   2.125   0.866  0.7845  0.3700 -0.0081
  610MOL0     C82275   1.449   2.173   0.930  0.1568  0.8804 -0.8900
  610MOL0     C82276   1.484   2.076   1.044 -0.0703 -0.4028 -0.4740
  610MOL0     C82277   1.516   1.932   0.994 -0.5012 -0.5133 -0.2786
  610MOL0     C82278   1.538   1.820   1.096 -0.1046 -0.0278 -0.8086
  610MOL0     C82279   1.645   1.863   1.185 -0.1514 -0.5434 -0.7814
  610MOL0     C82280   1.727   1.905   1.267 -0.1946  0.1684  0.6673
  610MOL0     C82281   1.139   2.211   0.768 -0.1808  0.9381 -0.8677
  610MOL0     C82282   1.069   2.293   0.673  0.0142  0.2737  0.4748
  610MOL0     H82283   0.686   2.470   0.427  0.3539  0.4317 -0.9204
  610MOL0     H82284   0.572   2.513   0.229  0.7059  0.2487  0.5725
  610MOL0     H82285   0.454   2.406   0.063 -0.1493  1.4070  0.2793
  610MOL0     H82286   0.506   2.567   0.013  1.0575 -0.1487  1.7876
  610MOL0     H82287   0.475   2.523  -0.223 -0.4777  0.0406 -1.1179
  610MOL0     H82288   0.458   2.338  -0.185  0.9084  0.0396  1.1387
  610MOL0     H82289   0.257   2.409  -0.037 -0.2731  0.5630  0.6818
  610MOL0     H82290   0.272   2.565  -0.086  0.9592  0.1660 -0.2703
  610MOL0     H82291   0.246   2.495  -0.338 -0.7492 -1.7865 -2.0900
  610MOL0     H82292   0.238   2.331  -0.280  2.3554 -0.1537  1.4738
  610MOL0     H82293   0.029   2.358  -0.170  1.8466  0.5527  1.4894
  610MOL0     H82294   0.047   2.538  -0.167  1.9344  0.5026 -0.7859
  610MOL0     H82295   0.029   2.531  -0.424  1.4274  0.9411  1.7090
  610MOL0     H82296  -0.005   2.361  -0.403  0.8372  1.8915 -3.4235
  610MOL0     H82297  -0.157   2.618  -0.327 -0.6577 -0.3596  0.3810
  610MOL0     H82298  -0.208   2.503  -0.454 -3.0972 -2.7241  1.2825
  610MOL0     H82299  -0.201   2.462  -0.153 -1.0016 -1.8540  0.7365
  610MOL0     H82300  -0.277   2.341  -0.249  0.2307 -0.1083  0.8798
  610MOL0     H82301  -0.489   2.404  -0.411  1.4913 -0.6983  0.4219
  610MOL0     H82302  -0.770   2.562  -0.360  1.0864 -1.8103 -0.1687
  610MOL0     H82303  -0.713   2.719  -0.434 -2.9451 -0.5704 -1.1690
  610MOL0     H82304  -0.641   2.451  -0.563 -1.3671 -0.6117 -1.7476
  610MOL0     H82305  -0.616   2.614  -0.605  0.8904 -1.4387  0.1498
  610MOL0     H82306  -0.858   2.656  -0.621  1.2572 -0.0768  2.4521
  610MOL0     H82307  -0.893   2.494  -0.546 -1.0239  0.9978 -0.5632
  610MOL0     H82308  -0.841   2.383  -0.733 -1.2447  0.7083 -0.5992
  610MOL0     H82309  -0.727   2.482  -0.798  0.5422  0.5076  0.2897
  610MOL0     H82310  -1.034   2.345  -0.726  0.9657 -3.5648 -4.1158
  610MOL0     H82311  -1.181   2.182  -0.695  2.2293  2.6218 -1.2644
  610MOL0     H82312  -1.323   2.279  -0.660 -0.0669  2.9228 -1.8916
  610MOL0     H82313  -1.338   2.160  -0.789  1.9843 -1.6461  0.0202
  610MOL0     H82314  -1.684   2.556  -0.758 -0.7246  1.5224 -1.5286
  610MOL0     H82315  -1.928   2.479  -0.723  0.3130  3.1156 -0.8989
  610MOL0     H82316  -2.125   2.202  -1.024 -0.8490 -0.0573  0.5171
  610MOL0     H82317  -2.073   2.121  -0.870  0.8060  0.0144 -0.2515
  610MOL0     H82318  -2.265   2.205  -0.759 -0.5484 -1.4827 -0.4909
  610MOL0     H82319  -2.308   2.286  -0.910  2.7276  1.7956  0.1485
  610MOL0     H82320  -2.287   1.985  -0.878 -1.6424 -0.1355  2.1143
  610MOL0     H82321  -2.363   2.072  -1.019 -1.7211  0.3341  0.9722
  610MOL0     H82322  -2.493   2.165  -0.794  1.5259  0.0705  0.1065
  610MOL0     H82323  -2.560   2.058  -0.912 -0.2549  1.2509  0.6781
  610MOL0     H82324  -2.490   1.854  -0.781 -0.6936 -0.1254  0.0371
  610MOL0     H82325  -2.606   1.965  -0.714 -0.4263  1.4360 -1.1718
  610MOL0     H82326  -2.313   1.933  -0.648  1.0175 -2.3197  3.9109
  610MOL0     H82327  -2.414   2.065  -0.574  1.8499 -0.4430  0.9336
  610MOL0     H82328  -2.460   1.769  -0.530 -1.2680 -0.0604 -0.2403
  610MOL0     H82329  -2.571   1.886  -0.480 -0.0820  2.9853  1.4755
  610MOL0     H82330  -2.424   1.824  -0.297  4.1182 -2.2203 -1.4784
  610MOL0     H82331  -2.415   1.998  -0.332 -1.7882  0.8501 -1.8055
  610MOL0     H82332  -1.903   2.221  -1.050  0.4136 -1.2153  0.2693
  610MOL0     H82333  -1.661   2.328  -1.100 -0.3681  0.9631 -0.4174
  610MOL0     H82334  -1.310   2.541  -1.082 -3.9129 -1.2450  2.4770
  610MOL0     H82335  -1.091   2.652  -1.024 -1.4939 -0.0222  1.1686
  610MOL0     H82336   0.891   2.369  -0.022  0.4921 -0.8660  0.7922
  610MOL0     H82337   1.033   2.352   0.190 -1.1882 -3.4041 -1.4135
  610MOL0     H82338   1.343   2.418   0.523  3.7975  0.1661  3.1406
  610MOL0     H82339   1.452   2.315   0.699 -0.8065 -0.4343 -3.0148
  610MOL0     H82340   1.527   2.174   0.854 -0.1755  0.9304 -1.2344
  610MOL0     H82341   1.419   2.272   0.967 -1.3613  0.8019 -1.8284
  610MOL0     H82342   1.401   2.071   1.115 -0.4374  0.9708 -0.7643
  610MOL0     H82343   1.573   2.104   1.102  1.7558 -2.2781 -2.2031
  610MOL0     H82344   1.603   1.943   0.930 -1.5691  0.1054 -1.6937
  610MOL0     H82345   1.432   1.902   0.930 -0.1663 -0.5229 -0.7194
  610MOL0     H82346   1.560   1.722   1.054 -2.2272 -1.8494  2.0062
  610MOL0     H82347   1.444   1.810   1.151 -0.5530  1.5809 -1.2314
  610MOL0     H82348   1.808   1.946   1.325  0.1485 -0.1187  0.3996
  610MOL0     H82349   1.083   2.140   0.828  0.9812 -0.4932 -1.4277
  610MOL0     H82350   0.964   2.273   0.657 -0.2660  0.0223  2.4030
  611MOL0     O82351   8.380   1.415   5.326  0.1948  0.3454  0.5179
  611MOL0     C82352   8.393   1.530   5.371 -0.4128  0.4133  0.7162
  611MOL0     O82353   8.288   1.609   5.409  0.0143  0.6506 -0.5175
  611MOL0     C82354   8.160   1.555   5.416 -0.0709 -0.6100 -0.0866
  611MOL0     C82355   8.139   1.431   5.473  0.4419  0.4084  0.3191
  611MOL0     C82356   8.013   1.372   5.484  0.3658 -0.3389 -0.1617
  611MOL0     C82357   7.899   1.445   5.448  0.2269 -0.5410 -0.0395
  611MOL0     O82358   7.764   1.405   5.457 -0.1255  0.1136 -0.4877
  611MOL0     C82359   7.752   1.263   5.473  1.1346 -0.3033  0.9190
  611MOL0     C82360   7.608   1.216   5.444  0.0518  0.4159 -0.0827
  611MOL0     C82361   7.481   1.293   5.493 -0.4463 -0.3413  0.2023
  611MOL0     C82362   7.474   1.266   5.642  0.3714 -0.3706  0.2414
  611MOL0     C82363   7.388   1.362   5.722 -1.1076  0.3774  0.6317
  611MOL0     C82364   7.241   1.363   5.671 -0.0036  0.2750 -0.5414
  611MOL0     C82365   7.155   1.474   5.731 -0.0543 -0.1042  0.3193
  611MOL0     C82366   7.180   1.617   5.675  0.2774  0.6676 -0.4193
  611MOL0     N82367   7.057   1.694   5.671  0.5131  1.2378 -0.3908
  611MOL0     C82368   7.025   1.786   5.574 -0.0155  1.5067  0.0674
  611MOL0     C82369   6.898   1.823   5.593 -0.1421 -0.2687  0.4478
  611MOL0     C82370   6.839   1.931   5.506  0.2283 -0.5014 -0.3134
  611MOL0     C82371   6.721   1.875   5.422  1.4013 -0.2249 -0.4714
  611MOL0     C82372   6.682   1.987   5.320  0.3768  0.0687 -0.2793
  611MOL0     C82373   6.547   1.980   5.250 -0.7126  0.0845 -0.2559
  611MOL0     O82374   6.444   2.003   5.335  0.4334 -0.5773 -0.0025
  611MOL0     C82375   6.311   1.992   5.298 -0.5113  0.3285  0.5896
  611MOL0     C82376   6.273   1.948   5.174 -0.0599  0.0986  0.6598
  611MOL0     C82377   6.136   1.948   5.136  0.3622 -0.2876  0.9748
  611MOL0     C82378   6.099   1.876   5.004 -0.2050 -0.2786 -0.3762
  611MOL0     C82379   6.036   2.002   5.225  0.3977  0.0049  0.3646
  611MOL0     C82380   5.885   1.994   5.200 -0.1098 -0.0117 -0.5574
  611MOL0     O82381   5.800   1.983   5.306  0.1063 -0.0881  0.6722
  611MOL0     C82382   5.666   1.959   5.272  0.1876 -0.3101 -0.2947
  611MOL0     C82383   5.613   1.857   5.197  1.1869  1.3786  0.3098
  611MOL0     C82384   5.474   1.855   5.168  0.8953 -0.2042  0.3601
  611MOL0     C82385   5.388   1.940   5.231 -0.0266 -0.1904 -0.9851
  611MOL0     O82386   5.251   1.906   5.230  0.5926 -0.2125 -0.3896
  611MOL0     C82387   5.158   1.944   5.336 -0.8555  0.5223 -0.4620
  611MOL0     C82388   5.108   1.816   5.402 -0.3185  0.0294  0.3701
  611MOL0     C82389   4.962   1.835   5.459  0.0629 -0.5358  0.5370
  611MOL0     C82390   4.951   1.940   5.569 -0.0571 -0.5681  0.1085
  611MOL0     C82391   4.805   1.952   5.616 -0.6564  0.1744  1.4959
  611MOL0     C82392   4.731   2.057   5.536 -0.5697 -0.0965 -0.4042
  611MOL0     C82393   4.575   2.047   5.544  0.1314 -0.1834 -0.3897
  611MOL0     C82394   4.496   2.137   5.447 -0.7127  0.1320 -0.9586
  611MOL0    Cl82395   4.316   2.105   5.494 -0.3883 -0.5595 -0.3233
  611MOL0     C82396   5.435   2.040   5.305  0.4461 -0.6619  0.4365
  611MOL0     C82397   5.572   2.043   5.325  0.3140  0.0811  0.6848
  611MOL0     O82398   5.855   1.999   5.081 -0.1679 -0.4719  0.4475
  611MOL0     C82399   6.080   2.043   5.352  0.0358  0.3514 -0.5638
  611MOL0     C82400   6.216   2.040   5.386 -0.4352 -0.3935  0.7240
  611MOL0     N82401   6.846   1.747   5.693  0.0239  0.2939 -0.0232
  611MOL0     N82402   6.939   1.673   5.737  0.0834  0.3532 -0.6607
  611MOL0     C82403   7.918   1.577   5.405 -0.9582  0.2500 -0.3231
  611MOL0     C82404   8.044   1.626   5.384 -1.1477 -0.1528 -0.2960
  611MOL0     C82405   8.529   1.585   5.379  0.2308  0.7517  0.3148
  611MOL0     C82406   8.549   1.717   5.416 -0.0331  0.3039 -0.6263
  611MOL0     C82407   8.679   1.771   5.429  0.8170 -0.6927 -0.4060
  611MOL0     C82408   8.797   1.698   5.418 -0.8240 -0.0587  0.5727
  611MOL0     O82409   8.923   1.751   5.455  0.1479  0.4258  0.2146
  611MOL0     C82410   8.962   1.698   5.585  1.4174  0.2342 -0.2519
  611MOL0     C82411   9.104   1.732   5.630 -0.0285 -0.2444  0.6332
  611MOL0     C82412   9.212   1.686   5.535 -0.5677  0.0097 -0.8604
  611MOL0     C82413   9.345   1.748   5.579 -0.1380 -0.4140  0.0604
  611MOL0     C82414   9.401   1.656   5.683  0.8064  0.1780  0.4505
  611MOL0     C82415   9.438   1.561   5.749  0.5027 -1.1004 -0.4540
  611MOL0     C82416   8.782   1.563   5.388  0.6918  0.8433  0.1663
  611MOL0     C82417   8.655   1.512   5.354 -1.0458  1.0706  0.6457
  611MOL0     H82418   8.227   1.378   5.507  1.3215  1.5057 -0.1964
  611MOL0     H82419   7.999   1.274   5.528 -2.1260  0.2820  0.6233
  611MOL0     H82420   7.824   1.216   5.405  0.4395 -0.0453 -0.0274
  611MOL0     H82421   7.775   1.232   5.575  0.8582 -2.3650  0.4028
  611MOL0     H82422   7.614   1.230   5.336  1.4312  0.6336  0.0047
  611MOL0     H82423   7.595   1.112   5.475 -1.2213  0.3387 -0.8047
  611MOL0     H82424   7.491   1.399   5.471 -0.5792 -0.1939  0.8555
  611MOL0     H82425   7.394   1.259   5.436  0.4488  0.1750 -1.5466
  611MOL0     H82426   7.429   1.169   5.662  0.4348 -0.0771  1.9149
  611MOL0     H82427   7.568   1.252   5.697  0.2975 -0.6211  0.3038
  611MOL0     H82428   7.389   1.332   5.827  0.5941 -3.2034 -0.2571
  611MOL0     H82429   7.430   1.463   5.716  1.1608 -0.2956  3.3807
  611MOL0     H82430   7.228   1.374   5.563 -1.3131 -0.3332 -0.4688
  611MOL0     H82431   7.202   1.263   5.690 -1.5649  0.8562 -0.4671
  611MOL0     H82432   7.050   1.445   5.725 -0.4672  1.3943 -0.0864
  611MOL0     H82433   7.182   1.478   5.837  4.5708  0.7565 -0.6682
  611MOL0     H82434   7.212   1.603   5.571 -3.0271 -1.4308 -1.3275
  611MOL0     H82435   7.257   1.671   5.730 -0.4361 -0.0052  1.3010
  611MOL0     H82436   7.095   1.835   5.507  2.2987  0.9108  1.9094
  611MOL0     H82437   6.791   2.006   5.569 -1.9073 -0.3011 -2.0615
  611MOL0     H82438   6.915   1.967   5.437  0.6995 -0.0127  0.4489
  611MOL0     H82439   6.634   1.849   5.483  2.9723 -0.8450  1.6463
  611MOL0     H82440   6.760   1.788   5.369 -1.2492 -1.7167 -0.1431
  611MOL0     H82441   6.756   1.992   5.239 -1.2171 -1.3173 -1.9194
  611MOL0     H82442   6.691   2.080   5.376  1.3930 -0.5888  0.7058
  611MOL0     H82443   6.542   1.882   5.201  1.0842  0.1406 -0.6132
  611MOL0     H82444   6.541   2.050   5.166 -0.6010 -1.0469 -1.2331
  611MOL0     H82445   6.350   1.911   5.107 -1.3108 -0.5405 -0.4744
  611MOL0     H82446   6.184   1.811   4.979 -0.2963 -0.5809  0.0799
  611MOL0     H82447   6.007   1.818   5.018 -1.1409  0.7760 -1.8818
  611MOL0     H82448   6.075   1.938   4.918 -0.4898 -1.7603 -1.4114
  611MOL0     H82449   5.682   1.783   5.158 -0.5077 -2.4756  3.9138
  611MOL0     H82450   5.447   1.773   5.104  0.1696  1.0846 -1.0421
  611MOL0     H82451   5.189   2.024   5.404 -1.0898 -0.5610  0.9717
  611MOL0     H82452   5.083   1.982   5.266 -2.2544 -2.4713 -0.7418
  611MOL0     H82453   5.102   1.739   5.325 -1.1826 -0.7411  1.1776
  611MOL0     H82454   5.168   1.776   5.485 -2.0530 -2.7921  0.3957
  611MOL0     H82455   4.917   1.739   5.488 -1.7234 -0.0998 -0.5905
  611MOL0     H82456   4.888   1.854   5.380  0.4793  0.0799  0.2848
  611MOL0     H82457   5.011   1.903   5.652  2.4564  2.5848 -0.0831
  611MOL0     H82458   4.994   2.036   5.538 -2.4894  0.3041 -0.7631
  611MOL0     H82459   4.800   1.981   5.721 -4.8194  0.9331  1.2642
  611MOL0     H82460   4.755   1.856   5.601 -1.2921  0.8086 -0.9454
  611MOL0     H82461   4.757   2.150   5.587  1.2735  0.8928 -2.9487
  611MOL0     H82462   4.766   2.078   5.435  1.6405 -0.9660  0.1218
  611MOL0     H82463   4.551   2.069   5.648 -0.6999 -3.5539  0.2646
  611MOL0     H82464   4.557   1.940   5.526 -1.0804  0.3803 -2.9821
  611MOL0     H82465   4.514   2.121   5.340 -0.1937 -3.8292 -0.4168
  611MOL0     H82466   4.523   2.241   5.466 -0.9000  0.1128 -0.5757
  611MOL0     H82467   5.364   2.112   5.344  1.2990  0.5472 -0.1629
  611MOL0     H82468   5.617   2.127   5.376 -1.1515  1.9154 -0.9027
  611MOL0     H82469   6.005   2.079   5.422 -2.5051 -0.7826 -2.5309
  611MOL0     H82470   6.248   2.057   5.488  0.3690 -0.7542  0.5485
  611MOL0     H82471   7.836   1.649   5.400 -0.1149  1.2420 -0.2184
  611MOL0     H82472   8.045   1.728   5.349 -3.2410  0.6629  1.7449
  611MOL0     H82473   8.460   1.778   5.428 -0.9894 -0.8686 -1.5753
  611MOL0     H82474   8.672   1.874   5.463 -0.6514 -0.2154 -1.9741
  611MOL0     H82475   8.884   1.725   5.657 -0.3969 -4.1791 -0.2305
  611MOL0     H82476   8.963   1.588   5.587 -2.6626  0.0278 -1.1327
  611MOL0     H82477   9.123   1.696   5.732  2.5348 -0.6028  0.0878
  611MOL0     H82478   9.104   1.841   5.629 -0.4243 -0.2382 -1.1822
  611MOL0     H82479   9.183   1.717   5.434  1.1657 -0.7398 -1.6358
  611MOL0     H82480   9.220   1.577   5.528  3.1781 -0.0256  1.0934
  611MOL0     H82481   9.337   1.854   5.604 -1.7563 -0.2681 -0.9075
  611MOL0     H82482   9.413   1.744   5.493 -1.6727 -0.1332 -1.2181
  611MOL0     H82483   9.475   1.485   5.814  1.1520  2.1573  3.4427
  611MOL0     H82484   8.871   1.501   5.386  0.2055  0.1425 -1.1564
  611MOL0     H82485   8.643   1.412   5.313 -0.3194  0.6597  1.4063
  612MOL0     O82486  10.746   8.773   3.664  0.2147  0.2255  0.8632
  612MOL0     C82487  10.628   8.783   3.709 -0.7728  0.3366  0.4366
  612MOL0     O82488  10.522   8.719   3.667  0.6533 -0.4177  0.2978
  612MOL0     C82489  10.519   8.627   3.561 -0.5243 -0.6086 -0.3963
  612MOL0     C82490  10.396   8.601   3.504 -0.3632 -0.0202  0.1549
  612MOL0     C82491  10.374   8.493   3.409  0.2295  0.0308  0.8105
  612MOL0     C82492  10.479   8.409   3.366 -0.0210 -0.3090  0.3357
  612MOL0     O82493  10.462   8.306   3.277  0.2094 -0.0269 -1.1020
  612MOL0     C82494  10.519   8.184   3.322 -0.6988  0.4995  0.5893
  612MOL0     C82495  10.449   8.065   3.261 -0.0863  0.5956  0.2099
  612MOL0     C82496  10.306   8.056   3.311 -0.0766  0.0898 -0.4898
  612MOL0     C82497  10.212   7.965   3.234 -0.4594  0.2138  0.6333
  612MOL0     C82498  10.060   7.972   3.281 -0.0980 -0.3242 -0.2133
  612MOL0     C82499   9.978   7.863   3.222 -0.1129  0.5346 -0.0862
  612MOL0     C82500   9.829   7.861   3.284 -0.1093 -0.7818  0.7604
  612MOL0     C82501   9.740   7.967   3.216 -0.2256 -0.4142  0.1368
  612MOL0     N82502   9.622   7.995   3.301  0.1821 -0.0010 -0.0417
  612MOL0     C82503   9.605   8.022   3.436  0.8266  0.2676  0.0631
  612MOL0     C82504   9.477   8.062   3.445  0.2897 -0.0925 -1.2413
  612MOL0     C82505   9.407   8.108   3.580 -0.1596  0.6567 -0.7479
  612MOL0     C82506   9.263   8.056   3.580 -0.8287 -1.1539 -0.8274
  612MOL0     C82507   9.152   8.164   3.530 -0.6617 -0.5394 -0.3704
  612MOL0     C82508   9.008   8.130   3.565  0.4602 -0.3851 -0.5109
  612MOL0     O82509   8.993   8.118   3.708 -0.4837  0.3610  0.0304
  612MOL0     C82510   8.866   8.113   3.760 -0.6710  0.2775  0.4563
  612MOL0     C82511   8.749   8.103   3.692 -0.0266  0.5906  0.3728
  612MOL0     C82512   8.618   8.091   3.748  0.4017 -0.0372  0.0299
  612MOL0     C82513   8.507   8.106   3.650 -0.0315 -0.5641  0.0709
  612MOL0     C82514   8.603   8.099   3.892  0.1441  0.3472 -0.1987
  612MOL0     C82515   8.468   8.101   3.962  0.2463 -0.9263 -0.6457
  612MOL0     O82516   8.356   8.064   3.899  0.6650 -0.0540 -0.6788
  612MOL0     C82517   8.234   8.087   3.962 -0.0790 -0.6854  0.7612
  612MOL0     C82518   8.171   8.214   3.967  0.0420  0.0459  0.1404
  612MOL0     C82519   8.046   8.230   4.029  0.0899 -1.4059 -0.1960
  612MOL0     C82520   7.975   8.115   4.069 -0.4282 -0.7052 -1.3683
  612MOL0     O82521   7.865   8.156   4.138 -0.0403  0.2961 -0.1618
  612MOL0     C82522   7.796   8.058   4.221 -0.1579 -0.0336 -0.3122
  612MOL0     C82523   7.674   8.119   4.294  0.4486 -0.1159  0.3524
  612MOL0     C82524   7.706   8.183   4.426  0.5399 -0.6756 -0.7911
  612MOL0     C82525   7.597   8.273   4.476  0.5391  0.2047 -0.4537
  612MOL0     C82526   7.466   8.198   4.499  0.1562 -0.1508  0.0182
  612MOL0     C82527   7.369   8.274   4.586  0.4865 -0.1800 -0.5703
  612MOL0     C82528   7.303   8.378   4.501  0.5083 -0.9094 -0.2834
  612MOL0     C82529   7.199   8.456   4.577 -0.7432  0.0413  0.3230
  612MOL0    Cl82530   7.112   8.550   4.455 -0.0406  0.0397 -0.1068
  612MOL0     C82531   8.033   7.985   4.046 -0.1908 -0.1053  0.3569
  612MOL0     C82532   8.163   7.972   3.995  0.5263  0.0563 -0.2579
  612MOL0     O82533   8.472   8.139   4.080  0.6062  0.1840  0.7033
  612MOL0     C82534   8.725   8.113   3.963  1.1057 -0.0206 -0.2622
  612MOL0     C82535   8.851   8.119   3.900  0.4669 -0.0685 -0.4149
  612MOL0     N82536   9.417   8.060   3.322 -0.4859 -0.6839 -0.4257
  612MOL0     N82537   9.506   8.019   3.240  0.0179 -0.5307  0.8097
  612MOL0     C82538  10.608   8.440   3.416 -0.0811 -0.0715  0.9283
  612MOL0     C82539  10.627   8.543   3.514 -0.4243  0.1985  0.3821
  612MOL0     C82540  10.620   8.858   3.832  0.0507 -0.6115 -0.5251
  612MOL0     C82541  10.729   8.933   3.872  0.5614 -0.0120 -1.0982
  612MOL0     C82542  10.722   9.012   3.986  0.2261 -0.7264  0.6201
  612MOL0     C82543  10.605   9.025   4.057  0.2258  0.2459 -0.8157
  612MOL0     O82544  10.615   9.107   4.172  0.3914  0.4947  0.8035
  612MOL0     C82545  10.482   9.130   4.244  0.2044  0.1488  0.3155
  612MOL0     C82546  10.431   9.026   4.348 -0.7654  0.0753 -0.1246
  612MOL0     C82547  10.325   9.076   4.436  0.8196 -0.6953 -0.2270
  612MOL0     C82548  10.192   9.120   4.375  0.2594 -0.1321  0.0190
  612MOL0     C82549  10.138   9.031   4.268  0.2403  0.5594 -0.1391
  612MOL0     C82550  10.105   8.977   4.163 -0.1516  0.2313  0.0169
  612MOL0     C82551  10.501   8.941   4.019 -0.1349 -0.0437  0.3538
  612MOL0     C82552  10.508   8.857   3.910  0.8583  0.7818 -0.4776
  612MOL0     H82553  10.306   8.658   3.525 -1.2216 -1.7521  1.3551
  612MOL0     H82554  10.281   8.466   3.361  1.2358 -0.7675 -0.7549
  612MOL0     H82555  10.624   8.185   3.291 -1.5601  0.1949 -2.7324
  612MOL0     H82556  10.498   8.179   3.429 -0.7950  0.3529  0.5642
  612MOL0     H82557  10.453   8.057   3.152 -0.6702  0.0348  0.2200
  612MOL0     H82558  10.500   7.972   3.291 -0.7421 -0.3898 -1.5678
  612MOL0     H82559  10.311   8.032   3.418  0.4891 -1.2681 -0.7960
  612MOL0     H82560  10.269   8.158   3.300 -0.3082  0.4507  2.5872
  612MOL0     H82561  10.218   8.005   3.133  0.2529 -2.5933 -0.5011
  612MOL0     H82562  10.251   7.863   3.224  0.7413  0.5728  1.3895
  612MOL0     H82563  10.050   7.971   3.389 -3.8843  2.2651 -0.3352
  612MOL0     H82564  10.010   8.066   3.256 -0.5223 -0.4416  0.1808
  612MOL0     H82565   9.963   7.866   3.114 -2.1574 -1.1882  0.0743
  612MOL0     H82566  10.025   7.764   3.225 -4.1768 -1.6800 -1.7050
  612MOL0     H82567   9.775   7.767   3.268  1.2121 -1.4700  0.1936
  612MOL0     H82568   9.848   7.880   3.390  0.9548 -1.3598  0.6877
  612MOL0     H82569   9.710   7.925   3.120 -0.1402 -1.6705  0.6333
  612MOL0     H82570   9.795   8.060   3.201 -0.6383  0.2610  2.3820
  612MOL0     H82571   9.671   8.009   3.521 -0.7644  1.4492  1.5344
  612MOL0     H82572   9.462   8.063   3.663 -0.5515 -1.8891 -1.7902
  612MOL0     H82573   9.419   8.216   3.588  1.2482  0.4278  0.9460
  612MOL0     H82574   9.241   8.039   3.685  3.2982  2.6925  1.0473
  612MOL0     H82575   9.254   7.959   3.531 -0.9027 -2.0570  0.9192
  612MOL0     H82576   9.165   8.189   3.424  0.0239 -0.9253 -0.3829
  612MOL0     H82577   9.184   8.263   3.565  0.6609 -0.4865 -1.6304
  612MOL0     H82578   8.983   8.038   3.510 -1.5355  0.2493 -0.7443
  612MOL0     H82579   8.948   8.210   3.520  0.9498 -1.2913 -2.9442
  612MOL0     H82580   8.752   8.110   3.583 -0.5179 -1.5199  0.1752
  612MOL0     H82581   8.451   8.194   3.685 -2.3691 -2.3179  0.9541
  612MOL0     H82582   8.551   8.113   3.550  0.8855  2.5618  0.5743
  612MOL0     H82583   8.447   8.015   3.655  0.4979 -0.8838  0.7311
  612MOL0     H82584   8.229   8.288   3.913  1.2098 -2.0004 -1.5516
  612MOL0     H82585   8.009   8.327   4.063  1.3462 -1.6791  2.2036
  612MOL0     H82586   7.759   7.978   4.155 -1.1339 -0.5274  0.8025
  612MOL0     H82587   7.869   8.012   4.288 -1.9996 -2.3545  0.2531
  612MOL0     H82588   7.633   8.194   4.226  0.5008  0.3645  0.8431
  612MOL0     H82589   7.591   8.048   4.307  1.5557 -1.9754 -2.0522
  612MOL0     H82590   7.788   8.253   4.405 -0.5023 -0.0071 -2.9334
  612MOL0     H82591   7.727   8.107   4.502 -0.2936  0.2148  0.3721
  612MOL0     H82592   7.626   8.316   4.573 -0.8336 -1.6753  0.8634
  612MOL0     H82593   7.575   8.345   4.397 -0.9712 -0.4132 -0.6275
  612MOL0     H82594   7.489   8.110   4.560  0.9822 -1.2491 -1.8099
  612MOL0     H82595   7.420   8.175   4.403 -0.0416  2.5047 -0.6140
  612MOL0     H82596   7.286   8.216   4.625 -1.1549  0.8539 -2.3259
  612MOL0     H82597   7.416   8.325   4.671 -0.4572 -0.3708  0.0706
  612MOL0     H82598   7.256   8.337   4.411 -0.9946 -0.2280  0.1759
  612MOL0     H82599   7.376   8.452   4.467 -1.1641  0.2696 -1.4289
  612MOL0     H82600   7.244   8.529   4.644 -2.0585  1.9111 -0.7346
  612MOL0     H82601   7.127   8.388   4.623  0.7298 -2.1151 -0.3479
  612MOL0     H82602   7.991   7.889   4.074  0.7463 -0.7848 -0.5042
  612MOL0     H82603   8.215   7.879   3.972  3.2539  1.2389  0.6923
  612MOL0     H82604   8.723   8.115   4.072  0.6151  4.9130 -0.1096
  612MOL0     H82605   8.933   8.121   3.971  1.0685 -3.9925 -0.7743
  612MOL0     H82606  10.696   8.383   3.387 -1.0721  0.2836 -3.4801
  612MOL0     H82607  10.728   8.545   3.554 -0.5176  0.7190  0.6126
  612MOL0     H82608  10.829   8.924   3.831  0.2971 -1.4889 -1.4629
  612MOL0     H82609  10.801   9.082   4.011 -0.8555 -0.2594  2.9715
  612MOL0     H82610  10.506   9.222   4.298 -3.4707  1.3989  0.0803
  612MOL0     H82611  10.402   9.163   4.177  0.1052 -1.8771 -0.6328
  612MOL0     H82612  10.517   9.000   4.411  1.2968  1.8775 -2.0629
  612MOL0     H82613  10.394   8.937   4.296 -1.1113  1.8328 -3.1130
  612MOL0     H82614  10.366   9.160   4.491 -1.7868 -1.1482  2.6839
  612MOL0     H82615  10.301   8.999   4.510  1.3472 -0.3583  0.2913
  612MOL0     H82616  10.211   9.217   4.326  1.9666 -0.9823 -1.1081
  612MOL0     H82617  10.119   9.140   4.454  0.2644  1.0715 -0.2559
  612MOL0     H82618  10.074   8.929   4.073 -0.3963  1.0655 -0.3461
  612MOL0     H82619  10.400   8.935   4.059 -0.9259 -0.0658 -1.5715
  612MOL0     H82620  10.438   8.778   3.884  0.1386 -0.7326  4.8640
  613MOL0     O82621   7.234   2.744   8.610  0.2557 -0.6948 -0.2819
  613MOL0     C82622   7.285   2.772   8.509  0.6137  0.3597  0.3131
  613MOL0     O82623   7.206   2.816   8.399 -0.1950  0.9716 -0.2093
  613MOL0     C82624   7.068   2.798   8.387  0.0929  0.5962 -0.2463
  613MOL0     C82625   6.990   2.887   8.305  1.1555  0.2188  0.5666
  613MOL0     C82626   6.845   2.856   8.273 -0.0811  0.4530  0.0931
  613MOL0     C82627   6.782   2.744   8.338  0.3776  0.0027 -0.6599
  613MOL0     O82628   6.654   2.708   8.325  0.4004  1.1141 -0.1804
  613MOL0     C82629   6.581   2.758   8.209  0.0102  0.3370  0.6256
  613MOL0     C82630   6.442   2.690   8.188  0.0008 -0.2584 -0.6035
  613MOL0     C82631   6.355   2.703   8.318 -0.0041  1.0534 -0.6814
  613MOL0     C82632   6.227   2.609   8.337 -1.0304 -0.0226  1.0400
  613MOL0     C82633   6.123   2.627   8.227 -0.5762  0.3958 -0.0558
  613MOL0     C82634   6.001   2.534   8.251  1.0877 -0.3725 -0.3278
  613MOL0     C82635   5.910   2.581   8.373  0.5738 -0.6845 -0.2217
  613MOL0     C82636   5.806   2.476   8.394 -0.0672 -0.0187  0.1580
  613MOL0     N82637   5.711   2.473   8.283 -0.0410 -0.2871 -0.4622
  613MOL0     C82638   5.638   2.581   8.246  0.0040  0.2109  0.8076
  613MOL0     C82639   5.528   2.527   8.185 -0.1515 -0.7533  0.7656
  613MOL0     C82640   5.421   2.602   8.111 -0.8960 -0.5568  0.7074
  613MOL0     C82641   5.276   2.592   8.169 -0.2624  0.1125  0.1346
  613MOL0     C82642   5.251   2.620   8.319  0.7091  1.1591 -0.3067
  613MOL0     C82643   5.099   2.662   8.342 -0.2342  0.0761 -0.2183
  613MOL0     O82644   5.021   2.564   8.275  0.2982 -0.6013  0.1937
  613MOL0     C82645   4.885   2.566   8.297 -0.9946 -0.3851 -0.1142
  613MOL0     C82646   4.823   2.667   8.376  0.5193  0.3403 -1.4604
  613MOL0     C82647   4.684   2.669   8.398  0.7246 -0.7942  0.1846
  613MOL0     C82648   4.628   2.779   8.489 -0.2398  1.5537 -0.2094
  613MOL0     C82649   4.596   2.564   8.351 -1.0333  0.2115  0.0246
  613MOL0     C82650   4.448   2.554   8.353 -0.4051 -0.6252 -0.5786
  613MOL0     O82651   4.372   2.665   8.389  0.4783  0.2319  0.3492
  613MOL0     C82652   4.237   2.657   8.398 -0.3534 -0.5875 -0.1439
  613MOL0     C82653   4.169   2.658   8.277  0.4984 -0.0491 -0.5630
  613MOL0     C82654   4.032   2.674   8.266 -0.8040  0.1688  0.3495
  613MOL0     C82655   3.951   2.690   8.383 -0.9766 -0.2632  0.4947
  613MOL0     O82656   3.812   2.696   8.383 -0.2620 -0.0440 -0.5237
  613MOL0     C82657   3.734   2.662   8.270  0.8303 -0.1525 -0.2314
  613MOL0     C82658   3.582   2.681   8.296  0.2683  0.0401  0.2097
  613MOL0     C82659   3.491   2.691   8.162 -0.6586  0.1453  0.7925
  613MOL0     C82660   3.464   2.550   8.097 -0.3746 -0.5988  0.2990
  613MOL0     C82661   3.360   2.549   7.986  0.6293 -0.0573  0.2253
  613MOL0     C82662   3.339   2.407   7.941  0.1234  0.8700  1.1378
  613MOL0     C82663   3.234   2.405   7.829  0.3363 -0.2568  0.4296
  613MOL0     C82664   3.283   2.312   7.717  0.2903 -0.4037 -0.5981
  613MOL0    Cl82665   3.432   2.380   7.643 -0.2563  0.1016 -0.0350
  613MOL0     C82666   4.018   2.685   8.506  0.9429 -0.4777 -0.6782
  613MOL0     C82667   4.159   2.668   8.518  0.4306 -0.5344  0.6839
  613MOL0     O82668   4.404   2.447   8.317  0.5339 -0.4775 -0.2539
  613MOL0     C82669   4.671   2.459   8.278 -0.3085 -0.1007  0.2874
  613MOL0     C82670   4.810   2.466   8.252  0.6803 -0.4846 -0.3880
  613MOL0     N82671   5.559   2.393   8.163 -0.1017 -0.1049  1.2851
  613MOL0     N82672   5.668   2.365   8.227 -0.1208  0.1475 -0.4543
  613MOL0     C82673   6.863   2.665   8.429  0.2827  0.0443  0.2670
  613MOL0     C82674   6.997   2.693   8.448 -0.4066  0.3458 -0.3091
  613MOL0     C82675   7.434   2.802   8.500  0.7752  0.0413 -0.9375
  613MOL0     C82676   7.511   2.772   8.608 -0.6497  0.3243  0.5501
  613MOL0     C82677   7.650   2.792   8.600  0.3156  0.0912  0.2967
  613MOL0     C82678   7.715   2.833   8.483  0.0314 -0.5597 -0.6260
  613MOL0     O82679   7.850   2.836   8.489 -0.0243  0.0195 -0.6031
  613MOL0     C82680   7.920   2.841   8.367  1.3072  0.2724  0.0391
  613MOL0     C82681   8.068   2.823   8.408  0.3594 -0.1583  0.2201
  613MOL0     C82682   8.102   2.694   8.484 -0.4337  0.8451 -0.2989
  613MOL0     C82683   8.260   2.669   8.491 -0.6242 -0.4013  0.0085
  613MOL0     C82684   8.288   2.560   8.586  0.1104 -0.2124 -0.4102
  613MOL0     C82685   8.332   2.467   8.651 -0.8937 -0.2073 -0.4930
  613MOL0     C82686   7.639   2.860   8.370 -0.0452  0.3972 -0.4955
  613MOL0     C82687   7.498   2.840   8.380  0.4315  0.1785 -0.4260
  613MOL0     H82688   7.042   2.960   8.243 -1.0686  1.4082  0.0024
  613MOL0     H82689   6.799   2.924   8.202 -1.4376 -0.8766 -0.3289
  613MOL0     H82690   6.567   2.866   8.219  1.8376  0.6443  0.0952
  613MOL0     H82691   6.642   2.742   8.120 -0.4572 -0.2252  0.3964
  613MOL0     H82692   6.375   2.719   8.106 -0.7066 -0.0003  0.0532
  613MOL0     H82693   6.449   2.583   8.168 -0.3518 -0.1473 -1.4069
  613MOL0     H82694   6.421   2.677   8.401 -1.4628  0.3329  0.2896
  613MOL0     H82695   6.313   2.803   8.321  2.9600  2.4071  0.7792
  613MOL0     H82696   6.264   2.506   8.330  0.2560  0.4103  1.2391
  613MOL0     H82697   6.176   2.615   8.434 -2.7410 -0.7664  0.2327
  613MOL0     H82698   6.091   2.731   8.237 -2.4190  0.3602 -3.8307
  613MOL0     H82699   6.159   2.612   8.125  0.2568  3.9039 -0.4019
  613MOL0     H82700   5.943   2.525   8.158 -0.3889 -0.6874  0.5901
  613MOL0     H82701   6.036   2.435   8.280 -1.1374 -0.5717  2.0647
  613MOL0     H82702   5.968   2.587   8.466 -0.5321 -1.3394  0.5281
  613MOL0     H82703   5.863   2.676   8.346  1.7045 -0.1473 -0.3570
  613MOL0     H82704   5.747   2.508   8.480 -0.8053  1.5810 -0.8922
  613MOL0     H82705   5.857   2.383   8.422  1.6658  0.7160 -0.4299
  613MOL0     H82706   5.665   2.683   8.272  2.0677 -0.9420  3.7213
  613MOL0     H82707   5.449   2.706   8.091  0.3535 -0.7977  1.1268
  613MOL0     H82708   5.424   2.562   8.009  0.3471  1.1724  0.0041
  613MOL0     H82709   5.226   2.496   8.149 -0.8597 -0.3125  3.1668
  613MOL0     H82710   5.219   2.667   8.113  1.2834 -0.2471 -2.0357
  613MOL0     H82711   5.313   2.701   8.358 -2.0055  2.2399  2.0314
  613MOL0     H82712   5.283   2.533   8.377  2.2371  0.8224 -1.5534
  613MOL0     H82713   5.079   2.761   8.301 -1.3263 -0.0542 -0.0220
  613MOL0     H82714   5.089   2.667   8.451  3.4646 -0.5894  0.2971
  613MOL0     H82715   4.873   2.747   8.429 -0.7102  1.1240 -1.4390
  613MOL0     H82716   4.538   2.823   8.447  1.5891  3.1127 -2.8102
  613MOL0     H82717   4.612   2.739   8.590 -0.5879 -1.1031 -1.2299
  613MOL0     H82718   4.703   2.856   8.506  1.3329 -0.3390  2.1055
  613MOL0     H82719   4.225   2.641   8.186  1.2002 -4.4634  0.4742
  613MOL0     H82720   3.986   2.678   8.168  0.0827  0.2020 -0.0773
  613MOL0     H82721   3.763   2.724   8.184 -1.3676  0.4325 -0.6196
  613MOL0     H82722   3.749   2.556   8.247 -0.5605 -0.5061  0.3457
  613MOL0     H82723   3.534   2.609   8.363  0.0336 -1.7175 -1.7281
  613MOL0     H82724   3.573   2.782   8.337 -1.0220  0.0223  0.0201
  613MOL0     H82725   3.540   2.755   8.088 -1.0114  0.5310  0.8879
  613MOL0     H82726   3.399   2.751   8.162 -0.1603  0.9388  0.1498
  613MOL0     H82727   3.560   2.510   8.063  0.7921  2.6186 -0.5242
  613MOL0     H82728   3.434   2.480   8.175 -2.0996 -1.3471 -0.9690
  613MOL0     H82729   3.400   2.611   7.905  0.8851  2.0040  1.8316
  613MOL0     H82730   3.270   2.595   8.030  0.1314 -0.8938  0.1034
  613MOL0     H82731   3.433   2.368   7.903 -0.7048 -0.8664  0.7518
  613MOL0     H82732   3.302   2.333   8.013  1.6248 -1.4859 -0.3867
  613MOL0     H82733   3.224   2.504   7.785  1.1721 -0.4957 -0.3243
  613MOL0     H82734   3.135   2.372   7.863  0.0828 -1.3837 -1.3016
  613MOL0     H82735   3.203   2.302   7.642  0.0901  1.2471 -0.6402
  613MOL0     H82736   3.298   2.211   7.754  0.8281 -1.0461 -2.4702
  613MOL0     H82737   3.967   2.699   8.601  0.9721  2.2407 -0.9974
  613MOL0     H82738   4.213   2.680   8.611  0.3936  0.7214  0.5587
  613MOL0     H82739   4.621   2.370   8.240  1.5272 -1.2886  0.5553
  613MOL0     H82740   4.865   2.387   8.202  1.9816 -1.5046  2.4627
  613MOL0     H82741   6.816   2.583   8.483  0.4231 -0.7793 -0.8360
  613MOL0     H82742   7.049   2.623   8.513 -0.4242  3.9046  3.9674
  613MOL0     H82743   7.461   2.739   8.699  0.7098 -2.0507  0.5039
  613MOL0     H82744   7.702   2.754   8.687  0.8877 -1.6598 -0.7627
  613MOL0     H82745   7.883   2.765   8.298 -1.6071  3.6068 -2.4356
  613MOL0     H82746   7.905   2.940   8.323  1.4089  0.5164  0.5404
  613MOL0     H82747   8.083   2.905   8.479  1.3161  2.7111 -3.0377
  613MOL0     H82748   8.127   2.829   8.317 -1.5829 -2.4188 -1.3245
  613MOL0     H82749   8.065   2.603   8.437 -1.3721  1.2417 -0.3581
  613MOL0     H82750   8.064   2.701   8.586  1.1862  0.5132  0.3512
  613MOL0     H82751   8.303   2.761   8.531 -0.2940 -1.2351  1.6477
  613MOL0     H82752   8.296   2.634   8.394 -0.0251 -2.3485  0.8910
  613MOL0     H82753   8.389   2.386   8.692 -0.7359 -0.6157 -1.5019
  613MOL0     H82754   7.684   2.892   8.277 -1.0676  2.0504 -0.4581
  613MOL0     H82755   7.435   2.838   8.292  1.3910 -5.8086 -1.3360
  614MOL0     O82756   3.700   8.715   3.562  0.0711  0.2297 -0.2083
  614MOL0     C82757   3.794   8.790   3.544 -0.0160  0.0805  0.9322
  614MOL0     O82758   3.783   8.912   3.485  0.9708 -0.0052  0.0585
  614MOL0     C82759   3.656   8.978   3.495  0.1277  0.4299  1.0688
  614MOL0     C82760   3.569   8.973   3.603  0.7935 -0.5533 -0.3400
  614MOL0     C82761   3.440   9.035   3.598  0.3626 -0.0452  0.4225
  614MOL0     C82762   3.405   9.113   3.483 -0.3243 -0.1133 -0.5615
  614MOL0     O82763   3.285   9.178   3.494  0.3242  0.3753  0.5766
  614MOL0     C82764   3.256   9.263   3.382  0.5445 -0.6163 -0.1708
  614MOL0     C82765   3.117   9.332   3.395  0.6588  0.2174 -0.1845
  614MOL0     C82766   2.996   9.235   3.346 -0.6052 -0.6854 -0.5503
  614MOL0     C82767   2.857   9.288   3.389 -0.7201 -0.4601  0.3375
  614MOL0     C82768   2.740   9.232   3.307 -0.5509  0.2140 -0.1557
  614MOL0     C82769   2.619   9.266   3.387 -0.4616  0.3752  0.0267
  614MOL0     C82770   2.478   9.226   3.332 -0.3614 -1.2289 -1.2994
  614MOL0     C82771   2.388   9.344   3.347  0.0281 -0.8735  0.1351
  614MOL0     N82772   2.250   9.305   3.304 -0.5441  0.3727 -0.6950
  614MOL0     C82773   2.157   9.251   3.388 -0.1365 -0.2385  0.5457
  614MOL0     C82774   2.056   9.217   3.301 -0.0802 -0.5420  0.1471
  614MOL0     C82775   1.928   9.145   3.347  0.4967  0.5294 -0.1385
  614MOL0     C82776   1.956   9.035   3.448 -0.5210 -0.2564  0.4493
  614MOL0     C82777   1.823   8.992   3.511  0.1504 -1.0119 -0.0072
  614MOL0     C82778   1.729   8.920   3.418 -0.1010  0.1807 -0.7726
  614MOL0     O82779   1.651   9.016   3.345 -0.2194 -0.8388 -0.1941
  614MOL0     C82780   1.530   8.985   3.283 -0.0638 -0.1567  0.9619
  614MOL0     C82781   1.430   9.084   3.267 -0.1436  0.3869 -0.1769
  614MOL0     C82782   1.305   9.065   3.210  0.6502  0.2437 -0.2610
  614MOL0     C82783   1.217   9.193   3.195 -0.1251  0.4234 -0.5862
  614MOL0     C82784   1.274   8.937   3.163  0.0799  0.1054  0.7364
  614MOL0     C82785   1.135   8.896   3.109 -0.0326  0.3601 -0.1040
  614MOL0     O82786   1.099   8.769   3.095  0.1295  0.5223  0.4606
  614MOL0     C82787   0.972   8.740   3.066  0.7286  0.0544  0.7031
  614MOL0     C82788   0.875   8.755   3.167  0.9718  0.4007 -0.2984
  614MOL0     C82789   0.747   8.731   3.142  0.6457  0.3261  0.2358
  614MOL0     C82790   0.713   8.654   3.026 -0.3012  0.0380 -0.5301
  614MOL0     O82791   0.591   8.601   3.019 -0.7990 -0.0224  0.5424
  614MOL0     C82792   0.580   8.470   2.951  0.2569 -0.6064  0.0765
  614MOL0     C82793   0.446   8.403   2.962 -0.2447 -0.7363 -0.0013
  614MOL0     C82794   0.405   8.370   3.100  0.1432 -0.1158 -0.6430
  614MOL0     C82795   0.266   8.306   3.104  0.0250  0.4467  0.3216
  614MOL0     C82796   0.238   8.232   3.241  0.5872  0.2645  1.2037
  614MOL0     C82797   0.117   8.138   3.226 -0.4360 -0.0297  0.1214
  614MOL0     C82798   0.101   8.057   3.347  0.1955 -0.2210 -0.2434
  614MOL0     C82799   0.091   8.128   3.468 -0.4537 -0.5151 -0.3331
  614MOL0    Cl82800   0.078   8.015   3.596 -0.1277 -0.2565  0.8178
  614MOL0     C82801   0.811   8.644   2.915 -0.1051  0.3018  0.7376
  614MOL0     C82802   0.942   8.693   2.936 -0.2060 -0.2298  0.5367
  614MOL0     O82803   1.064   8.989   3.072  0.1343 -0.4477 -0.2029
  614MOL0     C82804   1.372   8.838   3.178 -1.1507  0.2730  0.4262
  614MOL0     C82805   1.491   8.857   3.242 -0.4462 -0.3941 -0.2741
  614MOL0     N82806   2.086   9.263   3.175 -0.8132 -0.2320  0.7536
  614MOL0     N82807   2.199   9.320   3.179  0.9244  0.1245 -0.4315
  614MOL0     C82808   3.497   9.125   3.372  0.1126  0.2247  1.3724
  614MOL0     C82809   3.617   9.059   3.379 -0.4626  0.6518  0.9385
  614MOL0     C82810   3.934   8.745   3.561 -0.2014  0.0730  1.2659
  614MOL0     C82811   3.968   8.640   3.642  0.7365 -0.1653 -0.1051
  614MOL0     C82812   4.106   8.618   3.674  0.0158  0.0886 -0.1660
  614MOL0     C82813   4.205   8.686   3.605  0.4411 -0.3726 -0.6105
  614MOL0     O82814   4.334   8.648   3.644 -0.0532 -0.2802  0.0375
  614MOL0     C82815   4.421   8.614   3.537  0.6364 -0.6480  0.0256
  614MOL0     C82816   4.518   8.502   3.590 -0.2361 -0.5037 -0.7677
  614MOL0     C82817   4.606   8.460   3.477 -0.3817 -0.1897  0.2069
  614MOL0     C82818   4.714   8.364   3.515 -0.1574  0.8301 -0.7298
  614MOL0     C82819   4.800   8.415   3.610 -0.4749  0.0619  0.4789
  614MOL0     C82820   4.879   8.454   3.696  0.2657  0.3203  0.0401
  614MOL0     C82821   4.177   8.783   3.508  0.4420 -0.2184 -0.1012
  614MOL0     C82822   4.043   8.811   3.487 -0.5137 -0.4978 -0.3289
  614MOL0     H82823   3.603   8.915   3.689  0.3525 -0.7746 -0.3127
  614MOL0     H82824   3.380   9.020   3.687  1.0971  1.7469  1.2900
  614MOL0     H82825   3.328   9.345   3.379  0.8854 -0.9257 -0.5235
  614MOL0     H82826   3.267   9.208   3.288 -1.0658  1.4898 -1.6982
  614MOL0     H82827   3.106   9.360   3.500  0.6521  2.8493 -0.8328
  614MOL0     H82828   3.125   9.426   3.341  2.7201  1.8366  2.6229
  614MOL0     H82829   3.007   9.223   3.238  0.1578 -0.4230 -0.5119
  614MOL0     H82830   3.011   9.135   3.388  1.5693  0.6023  2.0570
  614MOL0     H82831   2.843   9.256   3.493 -1.2521  0.2970  0.5128
  614MOL0     H82832   2.854   9.398   3.384 -0.0316 -0.4615 -0.3830
  614MOL0     H82833   2.732   9.276   3.207 -4.4394 -3.1386 -1.6210
  614MOL0     H82834   2.756   9.124   3.297 -1.0431  0.2824 -2.2223
  614MOL0     H82835   2.632   9.212   3.482  0.1337  1.7939  0.7788
  614MOL0     H82836   2.633   9.373   3.401  0.3801  0.6109 -2.2742
  614MOL0     H82837   2.488   9.209   3.224 -2.6107  0.9782 -1.9532
  614MOL0     H82838   2.442   9.143   3.393 -0.4831  0.8985  1.7265
  614MOL0     H82839   2.422   9.429   3.286 -2.6436  1.5735  1.7971
  614MOL0     H82840   2.391   9.374   3.452  2.2871  0.1146 -0.1347
  614MOL0     H82841   2.164   9.230   3.495  1.9501  0.8112  0.6665
  614MOL0     H82842   1.874   9.225   3.399  1.5866 -0.6894  3.1600
  614MOL0     H82843   1.884   9.107   3.254  0.4465  0.4484 -0.0818
  614MOL0     H82844   2.024   9.069   3.527  0.2455  1.0515 -0.7094
  614MOL0     H82845   2.002   8.950   3.397 -0.4831 -0.1971  0.3841
  614MOL0     H82846   1.767   9.075   3.555  1.2048 -0.4181  0.2474
  614MOL0     H82847   1.851   8.926   3.594 -0.0205 -0.9269  0.1197
  614MOL0     H82848   1.666   8.845   3.467 -1.7696  0.5856 -2.2407
  614MOL0     H82849   1.798   8.859   3.359  0.1216 -0.4423  0.1020
  614MOL0     H82850   1.455   9.183   3.304 -2.2376  1.2497 -0.9257
  614MOL0     H82851   1.199   9.229   3.094 -1.8997  0.8941 -0.1465
  614MOL0     H82852   1.114   9.169   3.224 -0.4527 -1.1564 -2.8097
  614MOL0     H82853   1.267   9.268   3.257 -1.5771 -0.8620  2.3406
  614MOL0     H82854   0.906   8.795   3.263  0.0250 -2.1521  1.1546
  614MOL0     H82855   0.677   8.744   3.223 -0.9435  2.6609 -1.3811
  614MOL0     H82856   0.599   8.480   2.844 -2.1634 -1.7576 -0.5342
  614MOL0     H82857   0.651   8.397   2.992  1.9041  0.1005 -1.3885
  614MOL0     H82858   0.370   8.470   2.922  0.6147  1.6190  2.0074
  614MOL0     H82859   0.446   8.313   2.899 -0.6568  0.7096 -2.1774
  614MOL0     H82860   0.401   8.468   3.150 -3.4575 -0.9313  1.0626
  614MOL0     H82861   0.470   8.293   3.142 -1.8211 -3.0773 -2.6824
  614MOL0     H82862   0.189   8.378   3.075 -0.7933 -0.5222  0.0201
  614MOL0     H82863   0.256   8.227   3.029  1.7724 -0.7907  1.3014
  614MOL0     H82864   0.214   8.306   3.318 -3.5789  2.3460 -1.7026
  614MOL0     H82865   0.319   8.168   3.277  0.5668 -0.0453  0.7215
  614MOL0     H82866   0.022   8.191   3.212 -0.6070  0.5798  3.0016
  614MOL0     H82867   0.135   8.073   3.140 -1.5931 -0.0474 -0.1204
  614MOL0     H82868   0.188   7.991   3.352 -1.4795 -2.5471  0.0367
  614MOL0     H82869   0.011   7.996   3.332  0.2004  0.2051 -2.2692
  614MOL0     H82870   0.002   8.192   3.471  0.6767  1.1259 -0.2423
  614MOL0     H82871   0.169   8.202   3.486 -0.6887 -0.0189 -1.3004
  614MOL0     H82872   0.787   8.605   2.816  1.4649 -0.1639  0.5098
  614MOL0     H82873   1.011   8.684   2.853  2.9234  0.5109  2.8381
  614MOL0     H82874   1.343   8.739   3.143 -0.1226  0.3054 -0.6083
  614MOL0     H82875   1.558   8.773   3.259 -0.2145  0.1377  1.7075
  614MOL0     H82876   3.484   9.199   3.293 -3.5015  0.1764  1.7652
  614MOL0     H82877   3.687   9.074   3.297 -1.7139 -2.3030 -0.8043
  614MOL0     H82878   3.888   8.587   3.692  0.0214  0.5524 -0.4671
  614MOL0     H82879   4.128   8.542   3.749  0.2141 -1.1146 -1.4138
  614MOL0     H82880   4.366   8.569   3.454 -0.5715 -0.8120  0.8909
  614MOL0     H82881   4.477   8.704   3.511  1.2830 -1.2501 -0.7023
  614MOL0     H82882   4.476   8.420   3.649 -2.7116  1.0955 -0.1543
  614MOL0     H82883   4.580   8.551   3.665  0.5726 -2.6515  0.0336
  614MOL0     H82884   4.653   8.549   3.434 -0.5795  0.5020  1.3632
  614MOL0     H82885   4.554   8.413   3.394 -0.0260 -1.1099  0.4997
  614MOL0     H82886   4.765   8.343   3.421 -3.2063  1.1159 -2.6136
  614MOL0     H82887   4.685   8.264   3.550  2.6490  0.1530 -0.0866
  614MOL0     H82888   4.949   8.480   3.773  0.3571  1.4502 -0.4030
  614MOL0     H82889   4.258   8.834   3.457 -0.2150 -2.2694 -3.5355
  614MOL0     H82890   4.026   8.901   3.428  3.2457  0.3892 -0.3473
  615MOL0     O82891   5.060   5.784   4.740 -0.4537 -0.0661  0.2099
  615MOL0     C82892   5.025   5.901   4.728 -0.8324 -0.2999 -0.2636
  615MOL0     O82893   4.902   5.945   4.694 -0.8726 -0.6228  0.3662
  615MOL0     C82894   4.811   5.860   4.637 -0.0619  0.5649 -0.0216
  615MOL0     C82895   4.734   5.764   4.697  0.9350  0.1063 -0.6642
  615MOL0     C82896   4.625   5.701   4.637 -0.1766  0.4957 -0.1857
  615MOL0     C82897   4.592   5.737   4.507  0.6620  0.6394  0.9996
  615MOL0     O82898   4.503   5.677   4.414  0.2594 -0.4715 -0.1055
  615MOL0     C82899   4.407   5.575   4.448  0.2358  0.5712 -0.3405
  615MOL0     C82900   4.301   5.647   4.522 -0.3992 -0.0682 -0.2159
  615MOL0     C82901   4.174   5.560   4.551  0.5572 -0.7896  0.1602
  615MOL0     C82902   4.059   5.655   4.610 -0.0914  0.0513 -0.3418
  615MOL0     C82903   3.938   5.582   4.647 -0.1222  1.1089 -0.6459
  615MOL0     C82904   3.824   5.661   4.582  0.4693  0.5048 -0.8585
  615MOL0     C82905   3.690   5.586   4.615  0.6878 -0.2466  0.0289
  615MOL0     C82906   3.568   5.669   4.569 -0.1024 -0.3544  0.7050
  615MOL0     N82907   3.443   5.598   4.576 -0.3258 -0.0108  0.9056
  615MOL0     C82908   3.396   5.480   4.513 -0.9547  0.1164  0.2396
  615MOL0     C82909   3.262   5.497   4.507  0.0163  0.4472  0.5884
  615MOL0     C82910   3.155   5.403   4.446 -0.1465 -0.2919 -0.1510
  615MOL0     C82911   3.018   5.409   4.515 -0.5490 -0.4161  0.1534
  615MOL0     C82912   2.928   5.526   4.457 -0.4226  0.3904 -0.0534
  615MOL0     C82913   2.780   5.476   4.486  0.7008 -0.9413 -0.1345
  615MOL0     O82914   2.697   5.567   4.413  0.1858 -0.0922 -0.4704
  615MOL0     C82915   2.562   5.565   4.438  0.2757  0.1635  0.1845
  615MOL0     C82916   2.493   5.471   4.518  0.5601  0.0788  0.3358
  615MOL0     C82917   2.350   5.492   4.544 -0.7639 -0.6302 -0.4946
  615MOL0     C82918   2.292   5.415   4.658  0.3261 -0.0316 -0.8073
  615MOL0     C82919   2.280   5.589   4.472 -0.1318 -0.2263 -1.2582
  615MOL0     C82920   2.133   5.612   4.498  0.7846  1.0067 -0.0670
  615MOL0     O82921   2.075   5.734   4.459 -0.8398  0.4701 -0.3200
  615MOL0     C82922   1.943   5.760   4.422  0.3349  0.8863 -0.3851
  615MOL0     C82923   1.852   5.665   4.390 -0.0598  0.1176  0.6088
  615MOL0     C82924   1.715   5.696   4.358  0.2560  0.5612 -0.4501
  615MOL0     C82925   1.674   5.830   4.358  0.2815  0.1426 -0.0236
  615MOL0     O82926   1.541   5.855   4.333  0.1673  0.7840 -0.0203
  615MOL0     C82927   1.505   5.949   4.225 -0.5421 -1.2336  0.2041
  615MOL0     C82928   1.360   5.989   4.230 -0.3190 -0.4935 -0.1542
  615MOL0     C82929   1.254   5.883   4.228  0.0231 -0.7499  0.1201
  615MOL0     C82930   1.116   5.924   4.163 -0.2984  0.3393 -0.4500
  615MOL0     C82931   1.009   5.812   4.169 -0.4102 -0.4758  0.7683
  615MOL0     C82932   1.041   5.686   4.099 -0.8089  0.8847 -0.2502
  615MOL0     C82933   1.050   5.683   3.942  0.6966  0.4733  0.0937
  615MOL0     C82934   0.907   5.706   3.876 -0.6048  0.5204  0.6577
  615MOL0    Cl82935   0.788   5.573   3.888 -0.6672  0.1905  0.0641
  615MOL0     C82936   1.769   5.925   4.385 -0.3609 -0.4131  0.4446
  615MOL0     C82937   1.901   5.889   4.422 -0.8926  0.3518 -0.5379
  615MOL0     O82938   2.065   5.514   4.529 -0.3289  0.4727 -0.4238
  615MOL0     C82939   2.354   5.680   4.393  0.1954  0.2329 -0.3238
  615MOL0     C82940   2.493   5.661   4.366 -1.0967 -0.1923 -0.1578
  615MOL0     N82941   3.231   5.619   4.573  0.1041  0.3138  0.3437
  615MOL0     N82942   3.336   5.678   4.601 -0.1844  0.0625 -0.4471
  615MOL0     C82943   4.675   5.820   4.438 -0.4413  0.4269 -0.1536
  615MOL0     C82944   4.779   5.888   4.507  0.0321  0.5498 -0.2720
  615MOL0     C82945   5.126   6.005   4.767 -0.2653  0.2949  0.0144
  615MOL0     C82946   5.085   6.139   4.772 -0.0069 -0.7416  0.1909
  615MOL0     C82947   5.180   6.239   4.805  0.0943  0.4129  0.3777
  615MOL0     C82948   5.317   6.205   4.825  0.4730  0.6605 -0.3398
  615MOL0     O82949   5.397   6.318   4.839 -0.2041  0.9002  0.4660
  615MOL0     C82950   5.538   6.318   4.795 -0.1857  0.7549 -0.1549
  615MOL0     C82951   5.543   6.331   4.646  0.0139 -0.1202 -0.0508
  615MOL0     C82952   5.666   6.294   4.564 -0.4250 -0.1949  0.6769
  615MOL0     C82953   5.784   6.377   4.604 -0.0965 -0.7921 -0.3130
  615MOL0     C82954   5.896   6.322   4.522  0.3991 -1.1737  0.0399
  615MOL0     C82955   5.987   6.268   4.460 -0.2504 -0.3090  0.1363
  615MOL0     C82956   5.357   6.069   4.811  0.4133  0.0925 -0.2104
  615MOL0     C82957   5.258   5.973   4.789 -0.3683 -0.1143 -0.0352
  615MOL0     H82958   4.749   5.728   4.798  2.7556 -1.0519 -1.2818
  615MOL0     H82959   4.571   5.627   4.695  2.6465 -0.0051  2.0575
  615MOL0     H82960   4.361   5.524   4.363  1.8558  0.5472 -1.2533
  615MOL0     H82961   4.461   5.502   4.509 -0.9020 -1.0347 -1.1866
  615MOL0     H82962   4.341   5.668   4.622  0.1801  0.5806 -0.5703
  615MOL0     H82963   4.283   5.739   4.466  0.6967 -0.0258 -0.5168
  615MOL0     H82964   4.133   5.520   4.458 -1.4214  1.6822 -0.1540
  615MOL0     H82965   4.190   5.476   4.619 -0.7173 -0.9839  0.2430
  615MOL0     H82966   4.100   5.701   4.700  0.2445 -0.7193 -0.1014
  615MOL0     H82967   4.041   5.731   4.533  1.9100  0.0854 -0.8217
  615MOL0     H82968   3.931   5.478   4.611 -0.7618  0.9198  0.0085
  615MOL0     H82969   3.936   5.577   4.756  1.2234  1.4665 -0.5825
  615MOL0     H82970   3.806   5.757   4.631 -3.6519 -0.1563 -0.6923
  615MOL0     H82971   3.826   5.667   4.472 -1.5638 -0.6612 -1.0009
  615MOL0     H82972   3.693   5.491   4.561 -0.0532 -0.6969  0.7642
  615MOL0     H82973   3.674   5.574   4.722 -4.6178 -0.3240 -0.5151
  615MOL0     H82974   3.578   5.697   4.463 -0.4451 -0.4877  0.6349
  615MOL0     H82975   3.563   5.763   4.625 -1.6463  0.4957 -0.7442
  615MOL0     H82976   3.448   5.402   4.458  0.4566  1.4475 -0.3642
  615MOL0     H82977   3.158   5.419   4.338  1.3282  0.0184 -0.0785
  615MOL0     H82978   3.184   5.298   4.460  2.9943  0.7562  2.3458
  615MOL0     H82979   3.024   5.445   4.618  0.2830 -1.0949  0.3515
  615MOL0     H82980   2.976   5.309   4.502 -1.3304  0.0911 -1.6011
  615MOL0     H82981   2.944   5.546   4.351  1.4432  0.2675  0.1750
  615MOL0     H82982   2.950   5.624   4.500 -0.4499  1.1476 -1.7141
  615MOL0     H82983   2.745   5.476   4.590  0.6303  1.8568 -0.0863
  615MOL0     H82984   2.764   5.380   4.437 -0.5037  0.2937 -2.3167
  615MOL0     H82985   2.555   5.398   4.570 -0.6556 -2.4129 -1.4971
  615MOL0     H82986   2.214   5.341   4.634  0.9441 -0.7920 -0.5410
  615MOL0     H82987   2.374   5.355   4.699  0.0227  0.2339  0.1912
  615MOL0     H82988   2.256   5.487   4.731  2.5486  1.4223 -1.0646
  615MOL0     H82989   1.874   5.559   4.394  0.2936  0.0855 -1.1439
  615MOL0     H82990   1.648   5.616   4.328 -0.2903  1.0228 -0.4745
  615MOL0     H82991   1.572   6.035   4.225 -0.9440 -0.9178 -0.3022
  615MOL0     H82992   1.523   5.891   4.133  1.3201 -0.3361 -0.0586
  615MOL0     H82993   1.350   6.040   4.326 -1.2980 -0.4075 -0.2874
  615MOL0     H82994   1.343   6.047   4.139  1.6587 -0.7136 -0.7058
  615MOL0     H82995   1.232   5.854   4.332  0.4214 -0.5375  0.2648
  615MOL0     H82996   1.290   5.798   4.169 -3.0549 -0.7933 -1.9331
  615MOL0     H82997   1.082   6.015   4.213 -0.1156  0.3172 -0.2830
  615MOL0     H82998   1.140   5.946   4.058  0.6143 -0.0716 -0.3330
  615MOL0     H82999   0.917   5.852   4.125 -0.5351  0.3179  1.7241
  615MOL0     H83000   0.985   5.790   4.274  1.3947 -2.0380  0.9210
  615MOL0     H83001   1.120   5.633   4.154 -0.8945 -0.2985 -1.2204
  615MOL0     H83002   0.950   5.631   4.125  0.0147  0.0785  1.0949
  615MOL0     H83003   1.085   5.591   3.894  0.3353  1.5136 -2.2909
  615MOL0     H83004   1.113   5.762   3.901 -3.1663  2.3935 -2.7495
  615MOL0     H83005   0.931   5.729   3.771  3.1921  3.7364  1.9739
  615MOL0     H83006   0.862   5.791   3.927  0.6503 -0.0203  2.7549
  615MOL0     H83007   1.747   6.030   4.403  2.1153  0.2131  0.0827
  615MOL0     H83008   1.978   5.957   4.458 -0.6576  0.0397 -0.4434
  615MOL0     H83009   2.300   5.762   4.347  0.1367  0.4813  0.1811
  615MOL0     H83010   2.539   5.734   4.300 -0.7554 -2.0827 -2.1322
  615MOL0     H83011   4.662   5.835   4.332 -0.4341  1.2822 -0.0412
  615MOL0     H83012   4.836   5.958   4.447  2.7955 -2.7699 -1.8496
  615MOL0     H83013   4.984   6.176   4.759 -0.1326 -0.8968  0.6986
  615MOL0     H83014   5.151   6.343   4.811 -0.2481  0.6309 -2.9626
  615MOL0     H83015   5.601   6.397   4.835  3.8448 -2.3567  0.2822
  615MOL0     H83016   5.583   6.226   4.834 -0.0929  1.0499  0.4469
  615MOL0     H83017   5.542   6.439   4.628 -0.9255 -0.3411 -1.4644
  615MOL0     H83018   5.453   6.285   4.604 -0.2045  0.3530 -0.1033
  615MOL0     H83019   5.646   6.302   4.456  1.0038  2.4075  0.5302
  615MOL0     H83020   5.687   6.188   4.583  2.3389  0.1808  0.0447
  615MOL0     H83021   5.807   6.381   4.711 -1.0136 -1.0168 -0.0950
  615MOL0     H83022   5.766   6.480   4.571 -1.1930 -1.3957 -1.7032
  615MOL0     H83023   6.064   6.222   4.402 -0.0541 -1.4666  1.2686
  615MOL0     H83024   5.464   6.050   4.807  0.5028 -0.4691  2.7913
  615MOL0     H83025   5.297   5.872   4.783  0.1647 -0.1984  2.9997
  616MOL0     O83026   4.676   6.096   9.914 -0.3208  0.0686 -0.9311
  616MOL0     C83027   4.717   6.154   9.821 -0.2275  0.5080  0.4240
  616MOL0     O83028   4.652   6.176   9.699 -0.7334 -0.0974 -0.8698
  616MOL0     C83029   4.523   6.214   9.675 -0.1747  0.4007  0.2636
  616MOL0     C83030   4.413   6.201   9.765 -0.2091 -0.9424  0.0956
  616MOL0     C83031   4.290   6.260   9.731 -0.5868 -0.2575 -0.0677
  616MOL0     C83032   4.268   6.329   9.605  0.6837 -0.2405  0.4749
  616MOL0     O83033   4.160   6.414   9.579 -0.1766  0.2353 -0.5666
  616MOL0     C83034   4.091   6.464   9.691  0.2349 -0.9529  0.2080
  616MOL0     C83035   3.977   6.547   9.624  0.9108  0.7703 -0.3430
  616MOL0     C83036   3.864   6.461   9.554 -0.2061  0.0144 -0.0246
  616MOL0     C83037   3.773   6.550   9.469 -0.2114  0.0177 -0.0163
  616MOL0     C83038   3.656   6.469   9.412 -0.0303 -0.2276 -0.1520
  616MOL0     C83039   3.547   6.556   9.344 -0.0356 -0.3152 -0.4989
  616MOL0     C83040   3.433   6.476   9.294  0.5364 -0.2321 -0.0184
  616MOL0     C83041   3.329   6.576   9.238 -0.0173  0.1159 -0.0592
  616MOL0     N83042   3.202   6.509   9.215  0.0467 -0.5460  0.0532
  616MOL0     C83043   3.172   6.421   9.115  0.0132  0.2779  0.5688
  616MOL0     C83044   3.059   6.363   9.146  0.3002 -0.4347  0.7622
  616MOL0     C83045   2.995   6.245   9.089 -0.1941  0.0133  0.5801
  616MOL0     C83046   2.871   6.294   9.011  0.5866 -0.5823 -0.0958
  616MOL0     C83047   2.913   6.366   8.888  0.2621 -0.3202  0.7465
  616MOL0     C83048   2.790   6.410   8.812  0.6392  0.7472  0.1465
  616MOL0     O83049   2.736   6.291   8.767  0.0583  0.4463  0.0940
  616MOL0     C83050   2.610   6.295   8.710  0.7404 -0.1248 -0.1145
  616MOL0     C83051   2.548   6.173   8.688  0.8466  0.4136  0.2754
  616MOL0     C83052   2.422   6.160   8.640 -0.0784 -0.6572 -0.0971
  616MOL0     C83053   2.359   6.021   8.623  0.5398 -0.3628  0.6938
  616MOL0     C83054   2.350   6.280   8.602 -0.3800  0.1253  0.7560
  616MOL0     C83055   2.207   6.285   8.555 -0.1521 -0.0743 -1.2069
  616MOL0     O83056   2.170   6.385   8.471 -0.7368 -0.3200 -0.4098
  616MOL0     C83057   2.042   6.384   8.444  0.5060  0.4933  1.0991
  616MOL0     C83058   1.989   6.345   8.317  0.2799 -0.0162 -0.0197
  616MOL0     C83059   1.855   6.371   8.286 -0.2977  0.7607 -0.2330
  616MOL0     C83060   1.771   6.446   8.370 -0.5741 -1.0312  0.1000
  616MOL0     O83061   1.646   6.471   8.319  0.1148  0.5114  0.6765
  616MOL0     C83062   1.559   6.558   8.395  0.3708  0.6843  0.1962
  616MOL0     C83063   1.424   6.576   8.329  0.1374  0.5146  0.2233
  616MOL0     C83064   1.433   6.683   8.222  0.0245 -0.5882  0.4748
  616MOL0     C83065   1.292   6.732   8.181 -0.3732 -0.3110 -0.2130
  616MOL0     C83066   1.286   6.810   8.051  0.0481 -1.3762  0.6628
  616MOL0     C83067   1.316   6.727   7.923 -0.3060 -0.1538  0.7975
  616MOL0     C83068   1.274   6.807   7.795  0.1457 -0.0386  0.3177
  616MOL0     C83069   1.365   6.921   7.758  0.3139  0.6211  0.2133
  616MOL0    Cl83070   1.526   6.842   7.727  0.3033 -0.5646 -0.4506
  616MOL0     C83071   1.821   6.493   8.489 -0.4367  0.6954 -0.1787
  616MOL0     C83072   1.950   6.448   8.530  0.5725  0.8937  0.8454
  616MOL0     O83073   2.128   6.198   8.599 -0.0746  0.0655  0.1031
  616MOL0     C83074   2.425   6.405   8.605 -0.0591  0.9842  0.4798
  616MOL0     C83075   2.549   6.411   8.666 -0.1233 -0.5802  0.7771
  616MOL0     N83076   3.018   6.412   9.272 -0.2114 -0.0397 -0.0458
  616MOL0     N83077   3.111   6.493   9.315 -0.0912 -0.7205  0.8793
  616MOL0     C83078   4.373   6.324   9.519  0.2627 -0.2139 -0.3302
  616MOL0     C83079   4.494   6.270   9.551 -0.1241  0.4380 -0.2139
  616MOL0     C83080   4.848   6.220   9.835  1.0932 -0.2776  0.0593
  616MOL0     C83081   4.903   6.298   9.736 -0.2051 -0.0464 -0.1929
  616MOL0     C83082   5.024   6.375   9.756  0.7071  0.2140  0.9848
  616MOL0     C83083   5.102   6.367   9.872  1.5796  0.9530 -0.5168
  616MOL0     O83084   5.222   6.433   9.870 -0.5022 -0.0537  0.7394
  616MOL0     C83085   5.330   6.397   9.951 -0.0348 -0.5984  0.0177
  616MOL0     C83086   5.455   6.472   9.912 -0.4251  0.4185  0.0005
  616MOL0     C83087   5.530   6.408   9.796 -0.1155  0.0491 -0.0410
  616MOL0     C83088   5.663   6.486   9.757 -0.1804  0.0081 -0.1464
  616MOL0     C83089   5.771   6.396   9.711 -0.0933  0.1147 -0.5116
  616MOL0     C83090   5.870   6.340   9.678 -1.0597 -0.0816 -0.2784
  616MOL0     C83091   5.051   6.287   9.970  0.5333  0.5223 -0.7456
  616MOL0     C83092   4.923   6.223   9.958 -0.3995  0.6439  0.4620
  616MOL0     H83093   4.422   6.165   9.867 -3.7396 -1.2009  0.4405
  616MOL0     H83094   4.208   6.271   9.802 -1.9704  1.9849 -1.8425
  616MOL0     H83095   4.047   6.390   9.758 -1.1862  0.4023  0.8672
  616MOL0     H83096   4.158   6.524   9.753 -1.6539 -0.6373  2.0961
  616MOL0     H83097   3.916   6.608   9.691  0.6127  1.2777 -1.0616
  616MOL0     H83098   4.019   6.616   9.550  2.4609  1.1826  0.8657
  616MOL0     H83099   3.914   6.380   9.501 -0.0698 -0.7068  1.1761
  616MOL0     H83100   3.800   6.418   9.631 -2.5868  2.4284 -0.4931
  616MOL0     H83101   3.742   6.630   9.536  0.1072 -1.0639  1.4731
  616MOL0     H83102   3.828   6.589   9.383  2.5505 -1.9155  0.7449
  616MOL0     H83103   3.694   6.401   9.335 -0.1564  3.9459 -4.3287
  616MOL0     H83104   3.604   6.417   9.493 -0.8247  1.9341  0.8021
  616MOL0     H83105   3.518   6.633   9.416  0.4100 -0.0102 -0.6413
  616MOL0     H83106   3.596   6.606   9.260  1.6530 -1.4394 -0.2519
  616MOL0     H83107   3.468   6.413   9.212  2.3855  1.7788 -0.8837
  616MOL0     H83108   3.391   6.404   9.365  1.3659 -0.6933  0.0196
  616MOL0     H83109   3.364   6.607   9.140 -3.2498  0.4809 -1.2228
  616MOL0     H83110   3.310   6.661   9.305 -1.1242 -1.7591  2.1853
  616MOL0     H83111   3.222   6.409   9.019  0.5153  0.9661  0.7402
  616MOL0     H83112   3.069   6.203   9.020  1.0768  5.2464 -1.7727
  616MOL0     H83113   2.970   6.179   9.173  1.2533  0.5414  1.4729
  616MOL0     H83114   2.806   6.360   9.070  0.8471 -2.1655  2.0885
  616MOL0     H83115   2.811   6.208   8.983  1.3121 -0.2443 -2.9210
  616MOL0     H83116   2.966   6.291   8.828 -2.2275 -1.3975 -0.2476
  616MOL0     H83117   2.981   6.450   8.906 -1.1163  1.2887 -1.0390
  616MOL0     H83118   2.819   6.471   8.726  1.3118 -2.0331 -1.7376
  616MOL0     H83119   2.718   6.462   8.876 -1.4475 -1.3680 -0.3199
  616MOL0     H83120   2.612   6.087   8.705  0.8982  0.5829  0.9369
  616MOL0     H83121   2.432   5.941   8.632  0.9987  0.1159  1.3638
  616MOL0     H83122   2.278   6.009   8.696 -0.9799  0.5312 -0.7796
  616MOL0     H83123   2.314   6.027   8.524  0.9941  1.9199  0.5616
  616MOL0     H83124   2.055   6.284   8.256 -0.2542 -0.6488  0.0174
  616MOL0     H83125   1.813   6.315   8.204  0.0588 -2.0403  1.3588
  616MOL0     H83126   1.538   6.510   8.492 -0.5674  1.6618  0.5040
  616MOL0     H83127   1.612   6.651   8.417 -1.0474  0.9039  3.2393
  616MOL0     H83128   1.393   6.482   8.283  0.5083  0.1364  0.7259
  616MOL0     H83129   1.346   6.605   8.400 -1.9531  1.2859 -2.2552
  616MOL0     H83130   1.478   6.656   8.126  0.1880 -1.2796  0.7342
  616MOL0     H83131   1.494   6.769   8.253  0.3824 -0.5998 -0.1743
  616MOL0     H83132   1.225   6.646   8.181  2.3265 -2.6315  1.9797
  616MOL0     H83133   1.257   6.795   8.264 -0.3694  0.5493 -0.8512
  616MOL0     H83134   1.341   6.903   8.069 -1.3292 -0.5812  0.8696
  616MOL0     H83135   1.182   6.845   8.043  1.0284  1.7547 -0.0096
  616MOL0     H83136   1.423   6.702   7.925 -0.5133 -1.0869  0.5820
  616MOL0     H83137   1.282   6.623   7.922  1.4082 -0.7508  0.2773
  616MOL0     H83138   1.179   6.853   7.822  0.8503  0.8440  1.3751
  616MOL0     H83139   1.266   6.736   7.712  2.7417  0.0802 -0.1268
  616MOL0     H83140   1.376   6.999   7.833  0.1683 -1.2335  2.2664
  616MOL0     H83141   1.334   6.971   7.665  1.0416  1.8959  0.6353
  616MOL0     H83142   1.758   6.558   8.549 -1.5368  1.2306 -1.8433
  616MOL0     H83143   2.004   6.478   8.620  1.5575  1.5585  0.0545
  616MOL0     H83144   2.390   6.500   8.566 -1.3335  0.3645  0.0409
  616MOL0     H83145   2.596   6.509   8.667 -2.3721  0.5617  2.2108
  616MOL0     H83146   4.369   6.370   9.421 -0.1267 -0.2056 -0.3119
  616MOL0     H83147   4.574   6.284   9.478 -1.2712  2.3454 -1.1836
  616MOL0     H83148   4.861   6.329   9.641  1.9255  1.3877 -0.7261
  616MOL0     H83149   5.069   6.433   9.675  1.5925 -1.0262  0.5462
  616MOL0     H83150   5.322   6.412  10.059  2.7632  4.3580 -0.1752
  616MOL0     H83151   5.332   6.288   9.937 -2.1034 -0.7223  0.2640
  616MOL0     H83152   5.519   6.477  10.001  0.6127 -1.0414 -0.6162
  616MOL0     H83153   5.436   6.570   9.867 -0.0874 -0.5162 -2.2938
  616MOL0     H83154   5.457   6.397   9.715 -3.4744  1.0411  2.6349
  616MOL0     H83155   5.552   6.304   9.819  0.8114  0.2981  0.2552
  616MOL0     H83156   5.706   6.537   9.844 -3.3070  2.2169  0.2700
  616MOL0     H83157   5.645   6.563   9.682  1.0754  0.0035 -0.4590
  616MOL0     H83158   5.961   6.287   9.658 -0.7111  1.1091 -2.0741
  616MOL0     H83159   5.109   6.286  10.061  0.3117  1.3249 -0.5873
  616MOL0     H83160   4.869   6.169  10.035 -0.9888 -2.7789 -2.0987
  617MOL0     O83161   9.203   9.493   5.196 -0.4678 -0.3701 -0.0782
  617MOL0     C83162   9.261   9.432   5.108  0.2730  0.3572  0.0278
  617MOL0     O83163   9.226   9.311   5.055  0.0566 -0.2258  0.5009
  617MOL0     C83164   9.109   9.257   5.098 -0.1333 -0.1247 -1.1159
  617MOL0     C83165   9.002   9.225   5.017  0.5373  0.2507  0.0687
  617MOL0     C83166   8.881   9.168   5.062  0.0187  0.7199  0.7920
  617MOL0     C83167   8.871   9.131   5.195 -0.0002 -0.4953 -0.0813
  617MOL0     O83168   8.761   9.056   5.221  0.5837 -0.9471  0.0721
  617MOL0     C83169   8.714   9.056   5.358  0.5042  0.3219  0.0041
  617MOL0     C83170   8.564   9.049   5.349 -0.6264 -0.2031 -0.0171
  617MOL0     C83171   8.490   9.179   5.297 -0.2842 -0.6450  0.3448
  617MOL0     C83172   8.346   9.151   5.243 -0.6208  0.0341 -0.0581
  617MOL0     C83173   8.253   9.120   5.358 -0.8614  1.0652  1.2020
  617MOL0     C83174   8.106   9.091   5.320  0.0989  0.1287 -0.0842
  617MOL0     C83175   8.025   9.214   5.274  0.6041  1.0427 -0.0376
  617MOL0     C83176   7.880   9.174   5.241 -0.4721 -1.3563 -0.2561
  617MOL0     N83177   7.793   9.287   5.247  1.2462  0.1178 -0.1726
  617MOL0     C83178   7.823   9.417   5.223 -0.0065  0.4660  0.4189
  617MOL0     C83179   7.707   9.491   5.247 -0.8517  0.5245  0.0514
  617MOL0     C83180   7.687   9.636   5.257  0.7660 -1.0088 -0.2973
  617MOL0     C83181   7.578   9.678   5.163  0.2363 -0.3179  0.4635
  617MOL0     C83182   7.545   9.824   5.176  0.3282  0.8175 -1.0438
  617MOL0     C83183   7.420   9.858   5.104 -0.2218  0.1877  0.7834
  617MOL0     O83184   7.313   9.781   5.149  0.2067  0.0225 -0.1729
  617MOL0     C83185   7.191   9.799   5.099  0.4394  0.7717  0.5759
  617MOL0     C83186   7.102   9.691   5.108 -0.6591  0.9022 -0.6108
  617MOL0     C83187   6.983   9.692   5.052 -0.5936 -0.6959  0.5068
  617MOL0     C83188   6.910   9.556   5.059  1.0246 -0.4804  0.0436
  617MOL0     C83189   6.925   9.811   5.001 -0.5008 -0.3710  0.2226
  617MOL0     C83190   6.780   9.822   4.959  0.8581 -0.4557  0.0456
  617MOL0     O83191   6.695   9.751   5.043 -0.4628  0.0945  0.2030
  617MOL0     C83192   6.559   9.769   5.025  0.8438 -0.1619 -0.8534
  617MOL0     C83193   6.485   9.709   4.925 -0.0232  0.1049  0.1585
  617MOL0     C83194   6.348   9.732   4.925  0.4607  0.1724  0.2990
  617MOL0     C83195   6.284   9.818   5.006  0.4077 -0.2653  0.0271
  617MOL0     O83196   6.154   9.852   4.992  0.7655  0.7873 -0.0192
  617MOL0     C83197   6.069   9.790   5.090  0.2731  0.4393 -0.3829
  617MOL0     C83198   5.954   9.716   5.010  0.6926  0.5710  0.4113
  617MOL0     C83199   5.829   9.677   5.090  0.3949  0.4051 -0.6262
  617MOL0     C83200   5.854   9.595   5.222 -0.8115  0.0967 -0.6986
  617MOL0     C83201   5.733   9.552   5.305 -0.9759  1.0241  1.0055
  617MOL0     C83202   5.671   9.666   5.390 -0.3203 -0.0417  0.3153
  617MOL0     C83203   5.746   9.699   5.528  0.4585 -0.1951  0.2653
  617MOL0     C83204   5.687   9.629   5.645  0.0186  0.5736  0.2280
  617MOL0    Cl83205   5.528   9.685   5.687  0.1483  0.2335 -0.3052
  617MOL0     C83206   6.363   9.889   5.104 -0.7325  0.4167  0.0684
  617MOL0     C83207   6.500   9.868   5.102  0.1865 -0.2263  0.1217
  617MOL0     O83208   6.755   9.887   4.861  0.1477  0.0929  0.2452
  617MOL0     C83209   7.006   9.922   5.002  0.3741 -0.1182  0.8284
  617MOL0     C83210   7.132   9.918   5.049 -0.3069  0.1989  0.9660
  617MOL0     N83211   7.603   9.405   5.264 -0.4368 -0.3058  0.5950
  617MOL0     N83212   7.660   9.286   5.264  0.6582  0.5502  0.3044
  617MOL0     C83213   8.977   9.160   5.285  0.7964 -0.0107 -0.9519
  617MOL0     C83214   9.097   9.225   5.235 -1.0493  0.5316  0.5288
  617MOL0     C83215   9.391   9.485   5.075 -1.5043  0.2227 -0.3327
  617MOL0     C83216   9.478   9.402   5.000 -0.3748  0.3202  0.4664
  617MOL0     C83217   9.603   9.450   4.967 -0.0730  0.4893  1.0755
  617MOL0     C83218   9.635   9.581   4.986  0.3800 -1.3489  0.6112
  617MOL0     O83219   9.755   9.645   4.941  0.4591 -0.0205  0.0941
  617MOL0     C83220   9.832   9.571   4.844  0.5618  0.2759 -0.3188
  617MOL0     C83221   9.942   9.658   4.789 -0.4429  0.1151  0.2081
  617MOL0     C83222   9.895   9.767   4.684 -0.0430  0.3410  0.1091
  617MOL0     C83223  10.003   9.822   4.591  1.0224  0.1477  0.9046
  617MOL0     C83224  10.106   9.916   4.647  0.1496  0.0550  1.0514
  617MOL0     C83225  10.168  10.002   4.703 -0.4700 -0.2275  0.2632
  617MOL0     C83226   9.557   9.658   5.073 -0.4740 -0.1794 -0.1186
  617MOL0     C83227   9.433   9.608   5.121 -0.4951  0.1713  0.7469
  617MOL0     H83228   9.011   9.258   4.914 -0.6094  2.2526  0.5513
  617MOL0     H83229   8.802   9.131   4.997 -0.7815  1.6895  1.1901
  617MOL0     H83230   8.739   8.961   5.406 -2.4262 -0.3473  0.4113
  617MOL0     H83231   8.758   9.137   5.416  1.9839  1.3963 -2.4279
  617MOL0     H83232   8.540   8.972   5.276  1.1083 -0.2141 -0.6345
  617MOL0     H83233   8.511   9.034   5.444  0.2339 -0.2597  0.4670
  617MOL0     H83234   8.491   9.242   5.386 -3.0128 -1.2526  0.8731
  617MOL0     H83235   8.540   9.231   5.215 -1.7434 -2.0800 -1.5227
  617MOL0     H83236   8.299   9.235   5.190  0.7868 -0.0676 -1.5423
  617MOL0     H83237   8.355   9.065   5.176 -1.8807 -0.9131  0.9314
  617MOL0     H83238   8.301   9.033   5.404 -0.4965  1.6953  2.0150
  617MOL0     H83239   8.257   9.201   5.431  2.6023  2.0901  0.0780
  617MOL0     H83240   8.116   9.010   5.247  0.6827  0.5019 -0.4236
  617MOL0     H83241   8.060   9.059   5.414  1.0733  1.2890  0.8162
  617MOL0     H83242   8.025   9.290   5.353 -2.2102 -0.1315  1.2371
  617MOL0     H83243   8.070   9.251   5.182 -1.4371  0.4868 -1.3095
  617MOL0     H83244   7.845   9.120   5.330  1.5320 -1.8546  0.2804
  617MOL0     H83245   7.874   9.119   5.146  0.2633 -0.1092 -1.0552
  617MOL0     H83246   7.920   9.454   5.192 -0.0946 -1.0761 -1.9443
  617MOL0     H83247   7.647   9.653   5.357 -3.1418  0.4035 -1.8998
  617MOL0     H83248   7.780   9.693   5.245 -1.1864  2.1959 -1.4586
  617MOL0     H83249   7.489   9.621   5.191 -0.7603  0.6326 -0.6782
  617MOL0     H83250   7.611   9.648   5.063 -1.1496 -3.0729  0.7448
  617MOL0     H83251   7.624   9.881   5.127  2.5636  0.2584  1.6506
  617MOL0     H83252   7.543   9.855   5.281  1.7606  1.1858 -1.1068
  617MOL0     H83253   7.420   9.858   4.995 -2.0404  1.7295  0.7222
  617MOL0     H83254   7.397   9.963   5.122  0.5718  0.6481 -0.7037
  617MOL0     H83255   7.150   9.602   5.149 -0.0318  1.1442 -0.8116
  617MOL0     H83256   6.865   9.543   4.960  1.0317 -0.9639  0.1022
  617MOL0     H83257   6.977   9.471   5.072  0.2219 -0.9387  1.3851
  617MOL0     H83258   6.836   9.551   5.139  1.1959  0.5877  0.2902
  617MOL0     H83259   6.535   9.640   4.857  2.0110  1.9301 -0.3131
  617MOL0     H83260   6.297   9.672   4.850 -0.0943  0.0890  0.7328
  617MOL0     H83261   6.119   9.716   5.152 -0.4091 -0.9535 -1.4329
  617MOL0     H83262   6.024   9.868   5.152  0.2639 -0.3411  0.6093
  617MOL0     H83263   5.924   9.787   4.933 -2.0779  0.5219  1.3420
  617MOL0     H83264   5.997   9.636   4.949 -0.9346  0.5124 -0.7520
  617MOL0     H83265   5.759   9.617   5.030  0.5634 -1.5213  1.0023
  617MOL0     H83266   5.769   9.767   5.109  2.9099  2.3280 -1.3451
  617MOL0     H83267   5.894   9.502   5.182 -1.2547  0.0747 -1.1032
  617MOL0     H83268   5.921   9.644   5.294  0.0422  0.3545 -1.6490
  617MOL0     H83269   5.759   9.473   5.376 -1.6534 -0.5654 -0.4291
  617MOL0     H83270   5.658   9.521   5.230  1.1849 -0.7716 -0.5542
  617MOL0     H83271   5.662   9.761   5.337 -3.0439  1.5942  3.3819
  617MOL0     H83272   5.571   9.628   5.412 -0.7914  0.1629 -1.3416
  617MOL0     H83273   5.725   9.806   5.537  1.2164 -0.0715  0.6813
  617MOL0     H83274   5.853   9.678   5.520  0.2234 -1.6380  0.7867
  617MOL0     H83275   5.745   9.637   5.737 -0.0378 -3.3393  0.7695
  617MOL0     H83276   5.704   9.522   5.635  1.6791  0.7261  1.0474
  617MOL0     H83277   6.313   9.957   5.171 -0.1223  0.7240  0.2140
  617MOL0     H83278   6.563   9.912   5.179  2.0344 -0.7496 -1.0313
  617MOL0     H83279   6.954  10.010   4.968  0.1413  0.5743  2.8169
  617MOL0     H83280   7.193  10.008   5.054  2.7124 -1.7792  1.7623
  617MOL0     H83281   8.977   9.138   5.391 -2.5283  1.3888 -0.5212
  617MOL0     H83282   9.181   9.247   5.301  0.4567 -1.3084 -0.6756
  617MOL0     H83283   9.453   9.296   4.992 -0.4672  0.3622  0.1724
  617MOL0     H83284   9.659   9.367   4.924 -3.4674 -1.1123 -0.6577
  617MOL0     H83285   9.878   9.482   4.889  3.2722  0.4526 -2.5170
  617MOL0     H83286   9.767   9.539   4.762  1.2543 -2.7878  0.1987
  617MOL0     H83287  10.009   9.590   4.737  1.0439  2.5765 -1.2978
  617MOL0     H83288   9.997   9.709   4.869 -0.4575 -1.5209  1.3098
  617MOL0     H83289   9.858   9.845   4.751 -2.2791  0.5892 -1.3254
  617MOL0     H83290   9.813   9.729   4.623 -0.0191  0.2107  0.1570
  617MOL0     H83291   9.945   9.862   4.507  1.1122 -2.1017 -0.2758
  617MOL0     H83292  10.063   9.744   4.543 -1.0908 -0.0890 -1.5796
  617MOL0     H83293  10.205  10.083   4.764 -0.1051 -1.0443  1.1484
  617MOL0     H83294   9.595   9.752   5.112  0.6038 -0.1948 -1.0748
  617MOL0     H83295   9.366   9.669   5.182  2.2429  2.3240  1.8690
  618MOL0     O83296   2.912   9.976   3.972  0.3216  0.5395  0.6323
  618MOL0     C83297   2.966  10.030   4.069  0.4163 -0.5590  0.0544
  618MOL0     O83298   2.913  10.130   4.138  0.2432  0.1703  0.7373
  618MOL0     C83299   2.810  10.203   4.075  0.1046 -0.1847 -0.1416
  618MOL0     C83300   2.848  10.289   3.964  0.2067 -0.9811  0.0225
  618MOL0     C83301   2.749  10.366   3.906 -0.6925 -0.1217 -0.7530
  618MOL0     C83302   2.617  10.378   3.964  0.7887  0.1923  0.9045
  618MOL0     O83303   2.521  10.457   3.919  0.0136  0.0592  0.4498
  618MOL0     C83304   2.502  10.453   3.781  0.6095 -0.0918  0.2083
  618MOL0     C83305   2.363  10.495   3.753  0.4306 -0.0186 -0.5362
  618MOL0     C83306   2.306  10.438   3.619 -0.1031 -0.3286  0.1924
  618MOL0     C83307   2.166  10.492   3.578  0.1006 -0.8844 -0.6052
  618MOL0     C83308   2.095  10.414   3.471  0.4225  0.2170 -0.0302
  618MOL0     C83309   1.951  10.461   3.452  0.2032  0.1275 -0.0562
  618MOL0     C83310   1.888  10.396   3.327  0.4133 -0.5397 -0.0061
  618MOL0     C83311   1.787  10.477   3.240 -0.4611 -0.3650  0.0282
  618MOL0     N83312   1.679  10.519   3.333  0.8991  0.8769 -0.1705
  618MOL0     C83313   1.594  10.431   3.407  0.4004 -0.6592  0.3164
  618MOL0     C83314   1.522  10.508   3.484 -0.2105  0.0267 -0.1126
  618MOL0     C83315   1.408  10.463   3.571 -0.4533 -0.5457 -0.5842
  618MOL0     C83316   1.304  10.395   3.494 -0.2230 -0.6242  0.4566
  618MOL0     C83317   1.174  10.366   3.582  1.0813  0.7290 -1.1058
  618MOL0     C83318   1.053  10.319   3.494  0.3097 -0.1432 -0.3834
  618MOL0     O83319   0.942  10.274   3.578  0.0244  0.3483  0.4512
  618MOL0     C83320   0.817  10.254   3.530  0.0979 -0.3727  0.1504
  618MOL0     C83321   0.699  10.255   3.615 -0.0290  0.0979  0.2076
  618MOL0     C83322   0.570  10.242   3.559  0.5927 -0.5699 -0.9067
  618MOL0     C83323   0.458  10.244   3.671  0.2820  0.1934  0.1190
  618MOL0     C83324   0.552  10.209   3.420 -1.1761 -0.4166 -1.0597
  618MOL0     C83325   0.421  10.177   3.368 -0.3098  0.4494 -0.1701
  618MOL0     O83326   0.310  10.185   3.455  0.3441 -0.0896 -1.3387
  618MOL0     C83327   0.178  10.169   3.420 -0.7532  0.4877 -0.1672
  618MOL0     C83328   0.132  10.070   3.332 -0.1591  0.5998 -0.8534
  618MOL0     C83329  -0.001  10.046   3.332  0.3068  0.5981  0.3221
  618MOL0     C83330  -0.093  10.125   3.403 -0.1044  0.2474  0.1758
  618MOL0     O83331  -0.229  10.128   3.391 -0.8043  0.7607 -0.2806
  618MOL0     C83332  -0.282   9.999   3.342  0.3891  0.4716 -0.2087
  618MOL0     C83333  -0.432   9.977   3.383 -0.1482 -0.4897 -0.8482
  618MOL0     C83334  -0.486   9.842   3.330 -0.0574 -0.9731 -0.2976
  618MOL0     C83335  -0.641   9.822   3.327 -0.4848 -0.1271 -0.3336
  618MOL0     C83336  -0.700   9.892   3.206 -0.1503 -0.4949 -0.1788
  618MOL0     C83337  -0.851   9.865   3.203  0.1982 -0.7042 -0.3939
  618MOL0     C83338  -0.930   9.968   3.284  0.2194 -1.0714 -0.0635
  618MOL0     C83339  -1.071   9.920   3.303 -0.4367 -0.5431  0.8422
  618MOL0    Cl83340  -1.174  10.041   3.394  0.0830 -0.0170 -0.3253
  618MOL0     C83341  -0.043  10.224   3.484  0.1307  0.1187  0.3577
  618MOL0     C83342   0.089  10.242   3.501 -0.4981 -0.1254  0.1241
  618MOL0     O83343   0.411  10.154   3.249 -0.3495 -0.0908  0.2012
  618MOL0     C83344   0.672  10.202   3.338  0.5394  1.0944 -0.4610
  618MOL0     C83345   0.797  10.231   3.393 -0.8770  0.4887 -0.5012
  618MOL0     N83346   1.543  10.636   3.442 -0.1207 -0.0121 -0.5869
  618MOL0     N83347   1.634  10.647   3.347 -0.0073  0.5964 -0.1453
  618MOL0     C83348   2.586  10.289   4.066  0.9314  0.2110  0.3165
  618MOL0     C83349   2.681  10.204   4.123 -0.5877 -0.1952 -0.4301
  618MOL0     C83350   3.083   9.965   4.125 -0.0193  0.3955 -0.1018
  618MOL0     C83351   3.104   9.959   4.262 -0.3763 -0.7749 -0.7261
  618MOL0     C83352   3.204   9.885   4.309  0.5760  0.2037  0.2953
  618MOL0     C83353   3.303   9.828   4.222  0.3695  0.4688  0.3493
  618MOL0     O83354   3.405   9.764   4.293  0.0815  0.5285  0.5354
  618MOL0     C83355   3.484   9.661   4.222  0.5274 -0.6714  0.3035
  618MOL0     C83356   3.591   9.595   4.307  0.6755  0.1837  0.1728
  618MOL0     C83357   3.669   9.708   4.377  0.1334  0.2018 -0.0101
  618MOL0     C83358   3.778   9.645   4.458  0.9373  0.8171  1.2768
  618MOL0     C83359   3.853   9.746   4.532  0.0873 -0.1437  0.5609
  618MOL0     C83360   3.904   9.841   4.594  0.3902 -0.3888 -0.7127
  618MOL0     C83361   3.277   9.829   4.085  0.1186  0.4010 -0.4657
  618MOL0     C83362   3.171   9.894   4.035 -0.0114  0.1933 -0.2070
  618MOL0     H83363   2.946  10.286   3.919  1.1318 -0.4816  1.9048
  618MOL0     H83364   2.771  10.443   3.833  0.1685  0.4505  0.0874
  618MOL0     H83365   2.569  10.510   3.716 -1.3226 -0.2541 -2.0755
  618MOL0     H83366   2.503  10.348   3.749 -1.9163 -0.0640 -0.1829
  618MOL0     H83367   2.300  10.445   3.828  1.1046 -1.2191 -0.7473
  618MOL0     H83368   2.341  10.601   3.771 -0.1248 -0.5117  2.0979
  618MOL0     H83369   2.368  10.456   3.531 -2.2199 -0.8504 -1.4917
  618MOL0     H83370   2.301  10.328   3.623  1.4997 -0.4323  0.1443
  618MOL0     H83371   2.093  10.494   3.659  0.1064  1.3385 -0.5796
  618MOL0     H83372   2.170  10.598   3.550 -0.5959 -1.2088 -2.0779
  618MOL0     H83373   2.151  10.424   3.377 -0.3624  3.1758 -0.2888
  618MOL0     H83374   2.085  10.308   3.497 -3.6482  0.2691 -0.7436
  618MOL0     H83375   1.880  10.430   3.530 -2.1498 -0.0254 -2.1298
  618MOL0     H83376   1.941  10.570   3.447 -2.2709 -0.0328  0.0613
  618MOL0     H83377   1.968  10.361   3.260  0.8881  0.3622  0.0683
  618MOL0     H83378   1.841  10.304   3.361 -2.7472  1.0080  0.1765
  618MOL0     H83379   1.751  10.413   3.158  2.6390  0.3518 -2.1014
  618MOL0     H83380   1.836  10.567   3.200 -1.5650  0.1293 -0.2327
  618MOL0     H83381   1.590  10.323   3.410 -2.0437 -0.6357 -0.2305
  618MOL0     H83382   1.433  10.394   3.651 -1.0756 -0.7062 -0.5239
  618MOL0     H83383   1.360  10.552   3.613 -1.1058 -1.1478 -0.0257
  618MOL0     H83384   1.345  10.297   3.466 -0.4896 -0.0115 -2.4022
  618MOL0     H83385   1.280  10.456   3.407 -3.2414 -3.1317 -0.6902
  618MOL0     H83386   1.133  10.455   3.631  2.5117  0.4161  0.8029
  618MOL0     H83387   1.198  10.287   3.653 -1.4806  1.2394  0.4810
  618MOL0     H83388   1.100  10.238   3.437 -0.7431 -0.5490 -0.6884
  618MOL0     H83389   1.023  10.399   3.426  0.1615 -0.4095 -0.6274
  618MOL0     H83390   0.715  10.278   3.720  0.1717  2.5252 -0.2901
  618MOL0     H83391   0.385  10.320   3.640 -2.3519 -1.5625  1.6827
  618MOL0     H83392   0.417  10.143   3.679  0.5736  0.0893  0.3230
  618MOL0     H83393   0.500  10.281   3.765 -1.4535 -0.3290  1.1402
  618MOL0     H83394   0.206  10.015   3.275  3.1609  3.0632  0.6829
  618MOL0     H83395  -0.032   9.957   3.278  1.1805  0.0804  0.6365
  618MOL0     H83396  -0.272   9.990   3.233 -2.6154  1.1853 -0.6307
  618MOL0     H83397  -0.238   9.909   3.385 -1.9965 -1.0401 -0.7284
  618MOL0     H83398  -0.445   9.987   3.491  0.9403  0.2210 -0.7650
  618MOL0     H83399  -0.487  10.057   3.331  1.7259  1.5993  0.1962
  618MOL0     H83400  -0.432   9.766   3.388  0.7979 -0.0009  0.1947
  618MOL0     H83401  -0.438   9.828   3.232  4.6993  0.6703  1.5241
  618MOL0     H83402  -0.655   9.713   3.330 -0.9042 -0.0547  1.8070
  618MOL0     H83403  -0.678   9.862   3.422 -2.0403  1.5786 -1.5772
  618MOL0     H83404  -0.659   9.849   3.114  0.0701  0.7453 -0.6859
  618MOL0     H83405  -0.692  10.001   3.197 -1.2658 -0.4889 -1.4536
  618MOL0     H83406  -0.894   9.854   3.103 -0.1535  1.3438 -0.5185
  618MOL0     H83407  -0.865   9.765   3.244  0.1965 -0.9275 -0.9430
  618MOL0     H83408  -0.932  10.068   3.239 -1.9864 -0.6358  0.8914
  618MOL0     H83409  -0.897   9.985   3.387 -0.3916  2.4787 -0.3394
  618MOL0     H83410  -1.076   9.829   3.363 -2.1637 -0.3391  1.0594
  618MOL0     H83411  -1.103   9.893   3.202  3.9600 -1.0992 -0.6130
  618MOL0     H83412  -0.107  10.296   3.535  2.1500  1.5287  1.0234
  618MOL0     H83413   0.133  10.316   3.568  0.1056 -0.6428  0.3077
  618MOL0     H83414   0.662  10.177   3.233  1.6116 -1.4216 -0.0331
  618MOL0     H83415   0.890  10.228   3.336  0.3970  0.8054  1.4473
  618MOL0     H83416   2.481  10.294   4.090  0.2922  0.6519 -2.2116
  618MOL0     H83417   2.668  10.126   4.197  0.8222  1.0467  1.2184
  618MOL0     H83418   3.042  10.009   4.336  2.0415 -0.6269  1.3175
  618MOL0     H83419   3.227   9.861   4.412  0.3913 -0.5499  0.1726
  618MOL0     H83420   3.419   9.577   4.195 -0.6716 -0.7870  3.1868
  618MOL0     H83421   3.527   9.707   4.133 -0.4382 -0.0956  0.1119
  618MOL0     H83422   3.656   9.541   4.238  1.5800  1.3806  0.0438
  618MOL0     H83423   3.544   9.529   4.381  1.3423 -1.7362 -1.0662
  618MOL0     H83424   3.603   9.765   4.443 -2.6867 -1.2582 -1.3842
  618MOL0     H83425   3.712   9.771   4.298 -1.7261  2.3779  0.5995
  618MOL0     H83426   3.844   9.584   4.395  0.7163  0.0349  1.7983
  618MOL0     H83427   3.732   9.565   4.516  0.8330 -0.2698 -0.2616
  618MOL0     H83428   3.949   9.922   4.649  0.3042  0.9910 -2.5585
  618MOL0     H83429   3.351   9.779   4.023  0.0114  1.4357 -1.4646
  618MOL0     H83430   3.145   9.882   3.930  2.2098 -2.3714 -0.5824
  619MOL0     O83431  10.329   5.527   9.944  0.1623 -0.3858  0.1475
  619MOL0     C83432  10.319   5.614  10.026 -0.2766 -0.4757  0.1076
  619MOL0     O83433  10.208   5.688  10.058 -0.5031 -0.7786  0.9092
  619MOL0     C83434  10.095   5.705   9.968 -0.4009 -0.5194  0.8673
  619MOL0     C83435  10.108   5.689   9.829 -0.4938 -0.0208  0.3596
  619MOL0     C83436   9.995   5.706   9.749 -0.6499 -0.2384 -0.5196
  619MOL0     C83437   9.870   5.753   9.798 -0.4418  0.3218  0.7116
  619MOL0     O83438   9.767   5.792   9.711  0.1103 -0.4333 -0.6753
  619MOL0     C83439   9.663   5.702   9.734 -0.2366 -0.0050  0.1084
  619MOL0     C83440   9.595   5.670   9.597 -0.0752 -0.8791  0.0336
  619MOL0     C83441   9.468   5.592   9.627  0.2183  0.2578 -0.4386
  619MOL0     C83442   9.339   5.668   9.579  0.0675  0.4366 -0.0742
  619MOL0     C83443   9.231   5.565   9.571 -0.0177  0.1769 -0.7219
  619MOL0     C83444   9.088   5.626   9.555 -0.3333 -0.0755  1.2138
  619MOL0     C83445   9.090   5.725   9.427  0.0143  0.3309  0.1823
  619MOL0     C83446   8.950   5.756   9.376 -0.1257  0.2140 -0.0271
  619MOL0     N83447   8.881   5.851   9.464 -0.5920  0.4164  0.5850
  619MOL0     C83448   8.801   5.821   9.578  0.5561  0.2858  0.6100
  619MOL0     C83449   8.758   5.944   9.624  0.4163 -0.2820 -0.1358
  619MOL0     C83450   8.670   5.974   9.746 -0.6207  0.1558 -0.2616
  619MOL0     C83451   8.557   6.067   9.714  0.4184 -0.1136 -0.8556
  619MOL0     C83452   8.448   6.060   9.820  0.5257 -0.2906 -0.5891
  619MOL0     C83453   8.326   6.138   9.777  0.4609 -0.2708  0.6437
  619MOL0     O83454   8.254   6.054   9.679  0.4636  0.0271  0.3659
  619MOL0     C83455   8.120   6.072   9.662  1.1223  0.7677  0.0021
  619MOL0     C83456   8.048   6.186   9.686  0.8435 -0.9601  0.3130
  619MOL0     C83457   7.906   6.193   9.677  0.0904 -0.4604 -0.8175
  619MOL0     C83458   7.841   6.326   9.727 -0.8299 -0.3587  0.8065
  619MOL0     C83459   7.833   6.080   9.628  0.1047  0.8029  0.9365
  619MOL0     C83460   7.686   6.068   9.611 -0.4190 -0.4219 -0.7955
  619MOL0     O83461   7.642   5.972   9.526  0.3921 -0.4019  0.3677
  619MOL0     C83462   7.510   5.939   9.522  0.0310  0.2746  0.0287
  619MOL0     C83463   7.423   6.009   9.439 -0.3865 -0.1683  0.2757
  619MOL0     C83464   7.289   5.978   9.438 -0.7020 -0.5633 -0.0302
  619MOL0     C83465   7.234   5.891   9.535  0.6809 -0.4170  0.3557
  619MOL0     O83466   7.099   5.868   9.535 -0.2302 -0.2855 -0.3491
  619MOL0     C83467   7.062   5.787   9.434 -0.8450  0.8515  0.3906
  619MOL0     C83468   6.913   5.743   9.442  0.1979 -0.4879 -0.5896
  619MOL0     C83469   6.816   5.871   9.426  0.0812 -0.1258 -0.4388
  619MOL0     C83470   6.666   5.847   9.428 -0.2954 -0.0008 -0.0200
  619MOL0     C83471   6.595   5.981   9.421  0.3979  0.1006  0.2613
  619MOL0     C83472   6.442   5.968   9.439  0.0534  0.4028  0.2878
  619MOL0     C83473   6.368   6.101   9.392 -0.1726 -0.3822 -0.1819
  619MOL0     C83474   6.229   6.117   9.458 -0.2270 -0.5726  0.3018
  619MOL0    Cl83475   6.168   6.287   9.426 -0.0914 -0.1455  0.2600
  619MOL0     C83476   7.319   5.823   9.623  0.2154 -1.5552  0.4387
  619MOL0     C83477   7.455   5.841   9.608  0.8902  0.4564 -0.0318
  619MOL0     O83478   7.612   6.141   9.682 -0.0269  0.1160  0.2348
  619MOL0     C83479   7.906   5.965   9.590  0.9319  0.2761 -0.6447
  619MOL0     C83480   8.041   5.963   9.606 -0.0820 -0.2446  0.4549
  619MOL0     N83481   8.815   6.037   9.541 -0.2006  0.6570 -0.4363
  619MOL0     N83482   8.872   5.979   9.440 -0.9892 -0.2736  0.3497
  619MOL0     C83483   9.854   5.763   9.937  0.2331 -0.7561 -0.2495
  619MOL0     C83484   9.972   5.751  10.013 -0.1920 -0.1283  0.4854
  619MOL0     C83485  10.433   5.635  10.114 -0.4155  0.1937  0.1240
  619MOL0     C83486  10.535   5.537  10.128  0.3912 -0.1468 -0.9818
  619MOL0     C83487  10.660   5.568  10.189  0.3148  0.2419  0.3475
  619MOL0     C83488  10.687   5.702  10.241 -0.0505  0.0717  0.4534
  619MOL0     O83489  10.794   5.760  10.302  0.5962 -0.3247 -0.4042
  619MOL0     C83490  10.901   5.673  10.330  0.2264 -0.3464 -1.1562
  619MOL0     C83491  11.001   5.740  10.430  0.5054 -0.0734 -0.2011
  619MOL0     C83492  11.118   5.663  10.448  0.0832 -0.9633 -0.0600
  619MOL0     C83493  11.197   5.726  10.567  0.6197 -0.1826 -0.5807
  619MOL0     C83494  11.281   5.830  10.510  0.3766  0.4628 -1.5793
  619MOL0     C83495  11.352   5.923  10.470  0.0037  0.3610  0.4633
  619MOL0     C83496  10.572   5.793  10.240 -0.8966 -0.0673 -0.8941
  619MOL0     C83497  10.452   5.759  10.178  0.1391 -0.8585  0.2104
  619MOL0     H83498  10.199   5.653   9.782 -0.9331 -0.1920 -0.3886
  619MOL0     H83499  10.004   5.682   9.643  0.4815  0.7036 -0.6708
  619MOL0     H83500   9.698   5.614   9.788  1.0436  1.5328  1.9533
  619MOL0     H83501   9.588   5.751   9.797  0.3721  3.7367 -1.8107
  619MOL0     H83502   9.570   5.763   9.545  3.1037 -1.6843 -3.3201
  619MOL0     H83503   9.658   5.609   9.532 -0.4862  1.3098 -2.6074
  619MOL0     H83504   9.472   5.489   9.590  1.7354  0.0682  0.1797
  619MOL0     H83505   9.470   5.581   9.736  0.6012 -0.2547 -0.4935
  619MOL0     H83506   9.315   5.750   9.647 -2.7881  0.4557 -0.9981
  619MOL0     H83507   9.349   5.697   9.474  0.9589 -1.1168 -0.4570
  619MOL0     H83508   9.244   5.489   9.493  0.6301 -4.4776  3.4010
  619MOL0     H83509   9.232   5.517   9.670  0.3769  0.7417 -0.4507
  619MOL0     H83510   9.031   5.536   9.529 -0.6363  0.6615 -0.8465
  619MOL0     H83511   9.046   5.668   9.647 -0.6981 -2.2392  2.1088
  619MOL0     H83512   9.136   5.820   9.456 -1.4265  1.5157 -1.2247
  619MOL0     H83513   9.144   5.678   9.344  1.6063 -2.2472  2.5309
  619MOL0     H83514   8.901   5.659   9.362  0.0019 -0.6063  4.0028
  619MOL0     H83515   8.949   5.808   9.279 -0.7093  0.0016 -0.1410
  619MOL0     H83516   8.782   5.720   9.614  4.4396  0.4266  3.7064
  619MOL0     H83517   8.629   5.881   9.786  0.6247 -0.3187 -0.0279
  619MOL0     H83518   8.720   6.022   9.831 -1.6546  1.9219 -0.6062
  619MOL0     H83519   8.513   6.027   9.622 -0.6092 -0.7964 -0.0860
  619MOL0     H83520   8.593   6.169   9.701  1.3297 -0.0238  1.8878
  619MOL0     H83521   8.471   6.098   9.920 -1.0728 -0.7685 -0.0010
  619MOL0     H83522   8.400   5.962   9.834  0.1117 -0.1479 -0.9699
  619MOL0     H83523   8.357   6.237   9.742 -0.0614  0.4322  2.0799
  619MOL0     H83524   8.258   6.168   9.857 -0.6348 -0.5912 -0.1470
  619MOL0     H83525   8.091   6.273   9.734 -1.5025  1.2696 -1.3440
  619MOL0     H83526   7.802   6.319   9.829 -2.3697  1.4382  0.3898
  619MOL0     H83527   7.914   6.406   9.716 -1.4653 -0.1201 -2.8243
  619MOL0     H83528   7.756   6.355   9.665 -0.3136  0.9195  0.6713
  619MOL0     H83529   7.463   6.074   9.361  0.5974 -1.1035 -0.0167
  619MOL0     H83530   7.212   6.020   9.374  0.1989  1.2543  0.0056
  619MOL0     H83531   7.069   5.845   9.341 -1.6393  1.3539  0.6414
  619MOL0     H83532   7.133   5.704   9.429  0.6029  1.9034  2.1028
  619MOL0     H83533   6.883   5.670   9.366  0.4982 -0.7784 -0.4310
  619MOL0     H83534   6.891   5.691   9.535 -0.0696  0.1173 -0.3092
  619MOL0     H83535   6.830   5.921   9.330 -2.1670 -3.7875 -2.9161
  619MOL0     H83536   6.836   5.937   9.511  1.2462  1.5001 -1.9181
  619MOL0     H83537   6.641   5.767   9.359 -2.2524  2.3210 -2.1948
  619MOL0     H83538   6.639   5.808   9.527 -0.8479  3.4260  1.3422
  619MOL0     H83539   6.620   6.034   9.328 -1.1642  0.7602  0.1998
  619MOL0     H83540   6.627   6.037   9.509 -2.7431  0.6555  1.1684
  619MOL0     H83541   6.404   5.886   9.377 -0.1195  1.7423 -1.4739
  619MOL0     H83542   6.421   5.952   9.545 -2.8074  1.3993 -0.0534
  619MOL0     H83543   6.367   6.098   9.283  1.3955  0.2749 -0.2469
  619MOL0     H83544   6.421   6.192   9.420  1.8108 -1.1967 -1.0389
  619MOL0     H83545   6.240   6.097   9.565  2.5427  1.3827  0.4818
  619MOL0     H83546   6.162   6.045   9.409 -2.2032 -0.1962  2.2668
  619MOL0     H83547   7.270   5.751   9.688 -2.3891 -0.8209 -0.5609
  619MOL0     H83548   7.528   5.798   9.675  1.2988  1.7426  0.3799
  619MOL0     H83549   7.849   5.884   9.546 -1.6261  0.7878  1.4327
  619MOL0     H83550   8.081   5.867   9.575  1.8867  0.5834  0.2991
  619MOL0     H83551   9.758   5.792   9.977  0.3982 -0.1280 -0.2993
  619MOL0     H83552   9.957   5.764  10.119  0.5434 -2.2029  0.9026
  619MOL0     H83553  10.524   5.451  10.063 -0.9004  1.3746 -2.9216
  619MOL0     H83554  10.737   5.492  10.175  0.1522  0.0729  0.3612
  619MOL0     H83555  10.865   5.582  10.380  2.5389  0.3836  2.2697
  619MOL0     H83556  10.940   5.641  10.233 -0.5060 -0.7097 -1.3344
  619MOL0     H83557  10.957   5.758  10.529  1.4289 -0.0290  0.2057
  619MOL0     H83558  11.039   5.837  10.396  3.0096 -0.5134  1.1251
  619MOL0     H83559  11.167   5.676  10.351 -0.5882 -1.8949 -0.5409
  619MOL0     H83560  11.082   5.560  10.460 -2.1334 -1.1160 -5.4317
  619MOL0     H83561  11.261   5.648  10.610  0.4827  1.4970  3.0162
  619MOL0     H83562  11.132   5.770  10.643 -0.0670  0.9691 -1.7972
  619MOL0     H83563  11.416   6.003  10.440 -2.8949  1.7391 -2.6691
  619MOL0     H83564  10.591   5.888  10.289  0.0445 -1.1683  1.0297
  619MOL0     H83565  10.380   5.841  10.181  0.5490 -0.5113  1.1714
  620MOL0     O83566   8.431   1.795   9.715 -0.0095  0.1869 -0.0274
  620MOL0     C83567   8.537   1.830   9.773  0.8990 -0.4084  0.1380
  620MOL0     O83568   8.553   1.851   9.909 -0.5359  0.1652  0.6165
  620MOL0     C83569   8.494   1.768   9.996  0.6192 -0.9579  0.7603
  620MOL0     C83570   8.384   1.828  10.064 -0.7357 -0.0610 -0.4166
  620MOL0     C83571   8.308   1.756  10.158 -0.6448 -0.3105  0.4638
  620MOL0     C83572   8.339   1.629  10.186 -0.5046  0.0382 -0.0055
  620MOL0     O83573   8.268   1.576  10.282 -0.0457  0.3817 -0.0941
  620MOL0     C83574   8.304   1.450  10.338 -0.7733  0.1102 -0.6548
  620MOL0     C83575   8.195   1.409  10.443  0.0639 -0.2065  0.3518
  620MOL0     C83576   8.227   1.283  10.529  0.5001 -0.3645 -0.1779
  620MOL0     C83577   8.132   1.271  10.646 -0.0265  0.0169 -0.3574
  620MOL0     C83578   8.125   1.128  10.703 -0.8440  0.3562 -0.3250
  620MOL0     C83579   8.040   1.120  10.846 -0.6686  0.2108  1.4920
  620MOL0     C83580   7.985   0.982  10.888  0.0911 -0.3064 -0.2072
  620MOL0     C83581   8.088   0.873  10.915  0.3041 -0.0375 -0.2851
  620MOL0     N83582   8.031   0.741  10.941 -0.5969  0.2616  0.7385
  620MOL0     C83583   8.008   0.631  10.865  0.0921  0.8453 -0.1574
  620MOL0     C83584   7.941   0.543  10.944 -0.5320  0.5364  0.1161
  620MOL0     C83585   7.891   0.416  10.888 -0.7774  0.6362  0.1459
  620MOL0     C83586   7.737   0.417  10.881 -0.1981 -0.2363  0.4635
  620MOL0     C83587   7.659   0.370  11.002  0.7233 -0.0227  1.0868
  620MOL0     C83588   7.527   0.317  10.958  0.5168 -0.5594 -0.0471
  620MOL0     O83589   7.471   0.259  11.081 -0.6768  0.4547 -0.1637
  620MOL0     C83590   7.346   0.302  11.122  0.4058  0.8602  0.2042
  620MOL0     C83591   7.333   0.424  11.192  0.1181 -0.1272  0.0459
  620MOL0     C83592   7.208   0.467  11.248  1.2713 -0.0380 -0.2889
  620MOL0     C83593   7.200   0.602  11.330  0.6515 -0.2597  0.1067
  620MOL0     C83594   7.101   0.369  11.254 -1.0209  0.1098 -0.5792
  620MOL0     C83595   6.973   0.383  11.329 -0.4767 -0.0044  0.4414
  620MOL0     O83596   6.887   0.269  11.336 -0.6466 -0.9814 -0.1986
  620MOL0     C83597   6.765   0.277  11.401  0.6793  0.5973 -0.0326
  620MOL0     C83598   6.745   0.349  11.526  0.6625 -0.1849 -0.4605
  620MOL0     C83599   6.618   0.352  11.593  0.2913 -0.1874  0.2203
  620MOL0     C83600   6.514   0.278  11.533 -0.7307  0.0729 -0.3621
  620MOL0     O83601   6.390   0.277  11.586  0.2708 -0.4175 -0.3085
  620MOL0     C83602   6.376   0.208  11.713  0.2554 -0.5574  0.3707
  620MOL0     C83603   6.245   0.128  11.706 -0.6720  0.2605  0.1937
  620MOL0     C83604   6.245   0.029  11.581 -0.3642 -0.4591  0.2599
  620MOL0     C83605   6.356  -0.068  11.562 -0.4626 -0.3726  0.0516
  620MOL0     C83606   6.372  -0.167  11.672  0.5181 -0.0154 -0.9122
  620MOL0     C83607   6.489  -0.266  11.668  0.1744 -0.1598 -0.1570
  620MOL0     C83608   6.622  -0.198  11.703 -0.5704 -0.2564 -0.5102
  620MOL0     C83609   6.744  -0.298  11.706 -0.0584 -0.4593  0.2548
  620MOL0    Cl83610   6.717  -0.457  11.785 -0.1572 -0.4125 -0.2592
  620MOL0     C83611   6.539   0.200  11.425 -0.3472  0.6928  0.7016
  620MOL0     C83612   6.665   0.193  11.363  0.2969  0.6253  0.6525
  620MOL0     O83613   6.937   0.499  11.347 -0.0625  0.7955 -0.1145
  620MOL0     C83614   7.120   0.244  11.191  0.4219  0.3884  0.0902
  620MOL0     C83615   7.238   0.215  11.118 -0.8961  0.5427 -0.0765
  620MOL0     N83616   7.942   0.585  11.073 -0.2915 -0.0207  0.9497
  620MOL0     N83617   7.999   0.699  11.066 -0.4279 -0.2665 -0.2973
  620MOL0     C83618   8.460   1.570  10.134  0.7737  0.2543 -0.6503
  620MOL0     C83619   8.537   1.643  10.031  0.0907  0.3708 -0.2428
  620MOL0     C83620   8.644   1.877   9.688 -0.3707 -0.2914  1.0655
  620MOL0     C83621   8.672   1.820   9.567  0.5407 -0.1003 -0.4020
  620MOL0     C83622   8.783   1.860   9.481  0.0932  0.6302  0.1350
  620MOL0     C83623   8.877   1.959   9.530  0.5618  0.1848  0.7409
  620MOL0     O83624   8.976   1.989   9.436 -0.2446 -0.2273  0.0124
  620MOL0     C83625   9.066   2.092   9.476  0.0417 -0.0366  0.4371
  620MOL0     C83626   9.116   2.153   9.342 -0.1405 -0.7408 -0.5196
  620MOL0     C83627   9.015   2.253   9.281  0.2962  0.6708 -0.3496
  620MOL0     C83628   9.086   2.347   9.180 -0.4398 -1.0393 -0.0930
  620MOL0     C83629   8.987   2.445   9.132  0.8919 -0.7332  0.2223
  620MOL0     C83630   8.912   2.514   9.079 -0.1848  0.3696 -0.3170
  620MOL0     C83631   8.840   2.022   9.655 -0.3213  0.9213 -0.2329
  620MOL0     C83632   8.727   1.981   9.738  0.2827  0.5060  0.4410
  620MOL0     H83633   8.358   1.931  10.042 -1.2995  0.2009  1.3359
  620MOL0     H83634   8.227   1.796  10.218  1.1543  0.6413  2.4344
  620MOL0     H83635   8.298   1.365  10.270 -2.9035 -1.1353  0.9366
  620MOL0     H83636   8.399   1.458  10.391 -1.5234  0.9760  0.6306
  620MOL0     H83637   8.196   1.496  10.511  1.7602 -0.8812  1.2478
  620MOL0     H83638   8.104   1.389  10.386  0.8649 -0.0923 -1.0059
  620MOL0     H83639   8.203   1.201  10.461  1.0512 -0.5113 -0.2005
  620MOL0     H83640   8.331   1.277  10.562  0.0259 -0.5499  1.3750
  620MOL0     H83641   8.146   1.340  10.730 -0.2716 -0.6073  0.2024
  620MOL0     H83642   8.033   1.307  10.618  0.5235  1.5816 -0.4333
  620MOL0     H83643   8.081   1.067  10.624 -0.2717  0.2950 -0.6045
  620MOL0     H83644   8.225   1.089  10.726 -0.5808  0.7685 -0.7478
  620MOL0     H83645   8.094   1.168  10.929 -0.2512  0.7243  0.9371
  620MOL0     H83646   7.949   1.177  10.827  0.4509  0.8285 -3.0811
  620MOL0     H83647   7.928   0.993  10.981 -0.0943 -1.9038 -0.0963
  620MOL0     H83648   7.921   0.946  10.808  2.3931  0.8533 -2.7401
  620MOL0     H83649   8.147   0.907  11.001  1.0443 -1.8066 -0.0652
  620MOL0     H83650   8.152   0.849  10.830  0.0248 -2.8996  0.2208
  620MOL0     H83651   8.032   0.638  10.759  2.6163 -2.7378  0.0107
  620MOL0     H83652   7.934   0.408  10.788  2.8742 -0.1943  1.6454
  620MOL0     H83653   7.924   0.323  10.934 -1.5010  0.3839  0.1750
  620MOL0     H83654   7.717   0.346  10.800  0.1326 -0.8473  0.9076
  620MOL0     H83655   7.698   0.515  10.853  0.9507 -0.0470 -0.5382
  620MOL0     H83656   7.638   0.458  11.063  0.0138 -1.7777  3.5142
  620MOL0     H83657   7.722   0.294  11.048 -1.4767 -1.2288  2.2567
  620MOL0     H83658   7.538   0.234  10.887  1.9310 -2.7397  2.5322
  620MOL0     H83659   7.468   0.399  10.917  1.0125  0.7779  1.8062
  620MOL0     H83660   7.421   0.487  11.203 -1.4558  2.2560 -0.1916
  620MOL0     H83661   7.195   0.593  11.438  1.9242  3.1190  0.5763
  620MOL0     H83662   7.287   0.661  11.299 -0.7406  0.5675 -2.5335
  620MOL0     H83663   7.111   0.656  11.298  0.4089 -1.4938 -1.4204
  620MOL0     H83664   6.822   0.413  11.568 -1.8572  1.6446  1.6639
  620MOL0     H83665   6.604   0.397  11.691  1.8641 -2.5201  1.6176
  620MOL0     H83666   6.457   0.135  11.723  0.9167 -0.1710 -1.5752
  620MOL0     H83667   6.372   0.284  11.791 -1.2644  1.7178 -1.7518
  620MOL0     H83668   6.229   0.075  11.800 -2.2074  1.4530  0.6519
  620MOL0     H83669   6.168   0.206  11.704  0.6420  1.7838  2.8120
  620MOL0     H83670   6.235   0.092  11.492  0.8476 -0.5141  0.0662
  620MOL0     H83671   6.154  -0.030  11.591 -0.6776 -0.4440 -1.8787
  620MOL0     H83672   6.339  -0.121  11.468  3.5703  0.3585 -1.2622
  620MOL0     H83673   6.445  -0.006  11.554 -2.4316  2.8097  0.8881
  620MOL0     H83674   6.280  -0.226  11.682  2.9663 -4.1968 -0.6220
  620MOL0     H83675   6.362  -0.119  11.770  1.2281 -2.2563  0.3200
  620MOL0     H83676   6.474  -0.355  11.730  0.1924 -0.2188 -0.2354
  620MOL0     H83677   6.486  -0.304  11.565 -0.0972 -0.8195  0.0866
  620MOL0     H83678   6.615  -0.148  11.801  2.6342  0.2066 -0.4131
  620MOL0     H83679   6.653  -0.118  11.635 -0.9984  0.3200 -0.0419
  620MOL0     H83680   6.825  -0.241  11.753 -1.4596  1.2489  0.7288
  620MOL0     H83681   6.761  -0.322  11.601 -2.8014  1.7135 -0.8220
  620MOL0     H83682   6.455   0.154  11.374 -0.6274 -0.4838  2.1525
  620MOL0     H83683   6.675   0.127  11.277 -0.9371 -1.2968  1.8771
  620MOL0     H83684   7.048   0.165  11.210  2.5388 -1.8067 -0.3932
  620MOL0     H83685   7.260   0.121  11.069  0.9187  0.9528 -0.1065
  620MOL0     H83686   8.483   1.470  10.171 -1.3445  0.1312  0.5054
  620MOL0     H83687   8.628   1.618   9.978  1.1985  2.7849  0.4050
  620MOL0     H83688   8.605   1.747   9.522  1.3839 -2.5885  2.1394
  620MOL0     H83689   8.798   1.819   9.381  0.4500 -0.0877  0.4689
  620MOL0     H83690   9.037   2.170   9.547 -1.0246  0.5333 -0.5900
  620MOL0     H83691   9.155   2.048   9.522 -0.4593 -0.0447  1.4339
  620MOL0     H83692   9.142   2.066   9.281  0.8989 -0.9106  0.1298
  620MOL0     H83693   9.212   2.206   9.353 -2.0700  3.1291 -0.5968
  620MOL0     H83694   8.952   2.311   9.349 -3.4781 -0.2134 -2.7648
  620MOL0     H83695   8.939   2.192   9.231 -2.1468  2.8506  0.5345
  620MOL0     H83696   9.130   2.292   9.097  2.2000  0.0035  0.5166
  620MOL0     H83697   9.173   2.400   9.221  1.2431 -2.4952 -1.6014
  620MOL0     H83698   8.834   2.556   9.017 -1.2933 -0.8246  0.2300
  620MOL0     H83699   8.899   2.102   9.699  1.6749 -1.0590  0.8610
  620MOL0     H83700   8.721   2.032   9.833  2.6205  0.2227  0.7997
  621MOL0     O83701   5.996   6.726   4.889 -0.2995 -0.5759 -0.2742
  621MOL0     C83702   5.996   6.603   4.915 -0.1528 -0.0366 -0.3394
  621MOL0     O83703   5.902   6.535   4.992 -0.3790 -0.4656  0.6582
  621MOL0     C83704   5.770   6.564   5.007  1.0710  0.3264  0.0820
  621MOL0     C83705   5.701   6.664   4.935 -0.1985  0.6333  0.1662
  621MOL0     C83706   5.566   6.685   4.956  0.7590  0.5824  0.2623
  621MOL0     C83707   5.493   6.606   5.041  0.5534 -1.2197 -0.8249
  621MOL0     O83708   5.360   6.634   5.073 -0.2161 -0.7824 -0.2782
  621MOL0     C83709   5.273   6.655   4.963 -0.3041 -0.3122  0.6969
  621MOL0     C83710   5.137   6.620   5.014  0.2933 -0.0462 -0.3646
  621MOL0     C83711   5.018   6.676   4.932 -0.5676 -0.2369  0.6285
  621MOL0     C83712   4.998   6.589   4.801 -0.6062  0.1351  0.1584
  621MOL0     C83713   4.866   6.624   4.726  0.0593  1.0682 -0.3797
  621MOL0     C83714   4.859   6.766   4.667  0.2829 -0.5967 -0.3113
  621MOL0     C83715   4.710   6.816   4.641 -0.7659 -0.0145  0.1576
  621MOL0     C83716   4.721   6.952   4.557 -0.5556 -0.3926  0.1216
  621MOL0     N83717   4.590   7.020   4.529  0.4813 -0.5727  0.2233
  621MOL0     C83718   4.501   6.995   4.429 -0.8122 -0.0135 -0.6438
  621MOL0     C83719   4.385   7.043   4.461  0.0129 -0.7563  0.0687
  621MOL0     C83720   4.262   7.041   4.385 -0.8986  0.4079  0.2490
  621MOL0     C83721   4.241   7.173   4.315 -0.3207 -0.9863 -0.2080
  621MOL0     C83722   4.122   7.166   4.213 -1.1077 -0.3065  0.1126
  621MOL0     C83723   3.981   7.158   4.274 -0.5445  0.7915  0.0400
  621MOL0     O83724   3.874   7.104   4.191  0.2558  0.2270  0.0049
  621MOL0     C83725   3.764   7.068   4.262 -0.6975 -0.1106  0.1420
  621MOL0     C83726   3.654   7.031   4.188  0.6897 -0.2678 -0.6320
  621MOL0     C83727   3.527   6.995   4.238 -0.1895 -0.3682  0.3153
  621MOL0     C83728   3.432   6.952   4.125  0.9564  0.1638 -0.1554
  621MOL0     C83729   3.505   6.995   4.381 -0.0666  0.0915  0.5087
  621MOL0     C83730   3.375   6.960   4.439 -0.9019  0.2608  0.5501
  621MOL0     O83731   3.365   6.953   4.575  0.0290 -0.3086  0.0735
  621MOL0     C83732   3.247   6.893   4.636 -0.8778  0.0382 -0.1170
  621MOL0     C83733   3.166   6.964   4.715  0.2921 -0.5900 -0.1531
  621MOL0     C83734   3.055   6.900   4.777 -0.4116  0.8131  0.1191
  621MOL0     C83735   3.025   6.766   4.753  0.0778 -0.2785 -0.2859
  621MOL0     O83736   2.936   6.687   4.820 -0.4727  0.8205 -0.8952
  621MOL0     C83737   2.831   6.764   4.884 -0.3049  1.0152 -0.4181
  621MOL0     C83738   2.711   6.681   4.930  0.4949 -0.2311  0.6286
  621MOL0     C83739   2.730   6.581   5.036  0.3052 -0.1940 -0.3617
  621MOL0     C83740   2.613   6.490   5.062  0.2644 -0.2788 -0.1899
  621MOL0     C83741   2.503   6.542   5.152 -0.0137 -0.2425  0.2479
  621MOL0     C83742   2.395   6.440   5.146 -0.0987  0.2240 -0.9601
  621MOL0     C83743   2.302   6.471   5.256 -0.0033 -0.3780  0.7296
  621MOL0     C83744   2.188   6.373   5.254  0.8211  0.1434 -1.0513
  621MOL0    Cl83745   2.097   6.379   5.103 -0.2109 -0.4466  0.2603
  621MOL0     C83746   3.116   6.694   4.675  0.6388  0.1096 -0.7940
  621MOL0     C83747   3.222   6.754   4.613  0.3765  0.1955  0.2323
  621MOL0     O83748   3.287   6.913   4.362 -0.3051  0.0195 -0.9795
  621MOL0     C83749   3.609   7.043   4.461 -0.2290  0.8827 -0.0377
  621MOL0     C83750   3.743   7.069   4.403  1.2867  0.0109  0.5391
  621MOL0     N83751   4.397   7.108   4.582  0.4006  0.0406  0.0628
  621MOL0     N83752   4.519   7.090   4.623 -0.1142  0.4985  0.1418
  621MOL0     C83753   5.559   6.504   5.116  0.5908  0.3252 -0.1345
  621MOL0     C83754   5.697   6.488   5.100 -0.2028 -0.4886 -0.2056
  621MOL0     C83755   6.102   6.511   4.861  0.2316 -0.2192 -0.4383
  621MOL0     C83756   6.092   6.370   4.864  0.5416  0.0093  0.7213
  621MOL0     C83757   6.189   6.285   4.806  0.4331 -0.0077 -0.5112
  621MOL0     C83758   6.312   6.335   4.767  0.0010 -0.3421 -0.2996
  621MOL0     O83759   6.416   6.252   4.729  0.5895 -0.5616 -0.8411
  621MOL0     C83760   6.508   6.233   4.840 -0.0508  0.2048 -0.6516
  621MOL0     C83761   6.647   6.285   4.796  0.2931 -0.3728 -0.7538
  621MOL0     C83762   6.687   6.261   4.646  0.0719  0.2721 -0.1342
  621MOL0     C83763   6.833   6.252   4.637 -0.1882 -0.2086 -0.2896
  621MOL0     C83764   6.884   6.186   4.520  0.1815 -0.0791  0.5136
  621MOL0     C83765   6.928   6.144   4.410 -0.1341  0.1092  0.2690
  621MOL0     C83766   6.322   6.471   4.766  0.0488  0.0017 -0.0114
  621MOL0     C83767   6.220   6.562   4.809 -0.2131  0.3776 -0.1197
  621MOL0     H83768   5.757   6.731   4.870 -2.6880  2.6358 -0.0734
  621MOL0     H83769   5.508   6.765   4.911 -0.1852  0.3188  0.9780
  621MOL0     H83770   5.279   6.763   4.944 -0.1133 -0.3293  0.6519
  621MOL0     H83771   5.300   6.601   4.872  0.5406 -0.4210  1.0010
  621MOL0     H83772   5.127   6.511   5.012 -0.3320  0.0194 -1.3765
  621MOL0     H83773   5.128   6.662   5.115  0.6685 -0.4213 -0.1706
  621MOL0     H83774   4.926   6.669   4.991 -1.3704 -0.5220 -0.6037
  621MOL0     H83775   5.044   6.778   4.901  1.2745 -0.5864  0.9053
  621MOL0     H83776   5.085   6.602   4.736 -0.8275 -0.5779 -0.2846
  621MOL0     H83777   4.983   6.483   4.822 -0.7856  0.2762  0.7580
  621MOL0     H83778   4.834   6.547   4.655  1.4223 -1.6440  1.7730
  621MOL0     H83779   4.783   6.626   4.797  0.4098  0.3440  0.0546
  621MOL0     H83780   4.923   6.837   4.720  0.1947 -0.0171 -0.9656
  621MOL0     H83781   4.904   6.753   4.568 -0.0356  0.6655 -0.6370
  621MOL0     H83782   4.649   6.736   4.598 -0.6013 -0.0807  0.0470
  621MOL0     H83783   4.652   6.844   4.729 -0.8995 -1.1733  0.4489
  621MOL0     H83784   4.764   6.918   4.462  0.6188 -0.9672  0.8282
  621MOL0     H83785   4.782   7.030   4.602 -0.4056 -0.2177 -0.3757
  621MOL0     H83786   4.521   6.935   4.341  0.5756 -0.4892 -0.0314
  621MOL0     H83787   4.283   6.970   4.305  1.5517  0.3526  0.8724
  621MOL0     H83788   4.183   7.013   4.456 -0.9421  1.0511  0.4595
  621MOL0     H83789   4.334   7.202   4.265  1.2080 -0.3093  2.7520
  621MOL0     H83790   4.218   7.255   4.383  0.3352  0.0192 -1.1598
  621MOL0     H83791   4.145   7.079   4.151  4.1376  1.1143 -0.4465
  621MOL0     H83792   4.129   7.254   4.149 -1.5828 -0.3083  0.0566
  621MOL0     H83793   3.949   7.244   4.334 -0.9114  1.2216 -0.7597
  621MOL0     H83794   4.002   7.079   4.347  1.4518  4.1799  3.5020
  621MOL0     H83795   3.669   7.023   4.081 -1.1364 -0.6375 -0.8940
  621MOL0     H83796   3.332   6.995   4.136  0.8369  0.9855 -3.3294
  621MOL0     H83797   3.462   6.997   4.030  1.4039  0.7144  0.2432
  621MOL0     H83798   3.410   6.845   4.114 -2.2780  0.4992  1.7275
  621MOL0     H83799   3.177   7.071   4.727  0.3907 -0.8455  2.4982
  621MOL0     H83800   2.991   6.957   4.843 -3.2123  0.2565 -1.9498
  621MOL0     H83801   2.873   6.825   4.965  0.2271  3.5075 -2.4532
  621MOL0     H83802   2.800   6.849   4.823 -0.5889  0.4487 -1.0810
  621MOL0     H83803   2.636   6.754   4.962 -0.2638  0.1980 -1.9308
  621MOL0     H83804   2.674   6.632   4.840 -0.7100  1.7053  0.0163
  621MOL0     H83805   2.760   6.626   5.132 -1.6957 -1.0289  0.7108
  621MOL0     H83806   2.816   6.522   5.003  1.0829  2.3409 -3.2946
  621MOL0     H83807   2.574   6.453   4.966 -0.3413 -1.9029  0.6430
  621MOL0     H83808   2.652   6.403   5.115  0.4395  0.5012  0.9985
  621MOL0     H83809   2.479   6.636   5.102  0.2013  0.3866  1.2973
  621MOL0     H83810   2.543   6.570   5.250  0.6173  4.3283 -1.0941
  621MOL0     H83811   2.339   6.448   5.053 -2.3124 -0.2211  0.2765
  621MOL0     H83812   2.441   6.342   5.158  0.3910  0.3594 -1.6313
  621MOL0     H83813   2.257   6.570   5.247  1.6035  0.3097 -0.2244
  621MOL0     H83814   2.351   6.472   5.353  0.0887  1.6102  0.7054
  621MOL0     H83815   2.118   6.407   5.331  0.6415 -1.6804 -0.3552
  621MOL0     H83816   2.236   6.276   5.272 -0.5414 -0.2117  1.0865
  621MOL0     H83817   3.097   6.590   4.649 -0.2986  0.8124 -3.1829
  621MOL0     H83818   3.275   6.701   4.534 -0.8675  0.9570 -1.1806
  621MOL0     H83819   3.588   7.048   4.568  0.1395 -4.1992  0.4860
  621MOL0     H83820   3.816   7.105   4.475 -0.0085  3.8982  0.1215
  621MOL0     H83821   5.498   6.450   5.188  0.0089  1.8665  0.5635
  621MOL0     H83822   5.753   6.422   5.166  0.4011  1.4395  1.3162
  621MOL0     H83823   6.009   6.308   4.898  0.8324 -2.2899 -2.3243
  621MOL0     H83824   6.181   6.177   4.800 -0.8368 -0.0249  0.7760
  621MOL0     H83825   6.475   6.282   4.931 -1.0870 -0.0760 -0.8606
  621MOL0     H83826   6.516   6.124   4.852 -1.5233  0.2683  1.3952
  621MOL0     H83827   6.715   6.223   4.857 -2.6946 -1.5816  1.6176
  621MOL0     H83828   6.664   6.388   4.828  0.3628 -1.0947  1.7446
  621MOL0     H83829   6.656   6.345   4.584  2.7016 -0.6605 -2.9273
  621MOL0     H83830   6.640   6.168   4.612 -0.6189  0.8538 -0.7826
  621MOL0     H83831   6.880   6.205   4.724 -0.4294 -0.0283 -0.0605
  621MOL0     H83832   6.875   6.353   4.644  3.6470 -1.6684  1.0602
  621MOL0     H83833   6.984   6.104   4.327  1.9712  1.0672  1.1602
  621MOL0     H83834   6.418   6.507   4.732 -0.0937  2.5042  1.9999
  621MOL0     H83835   6.239   6.667   4.789 -0.4786  0.3083 -0.7418
  622MOL0     O83836   2.318   9.750   2.426 -0.6778  0.2258  0.2068
  622MOL0     C83837   2.385   9.712   2.530  0.5597  0.5404 -0.0225
  622MOL0     O83838   2.344   9.707   2.663 -0.2193 -0.0635 -0.1466
  622MOL0     C83839   2.217   9.755   2.692  0.3231 -0.4844 -0.9123
  622MOL0     C83840   2.103   9.686   2.651 -0.5199 -0.0214 -0.6082
  622MOL0     C83841   1.979   9.725   2.703  0.4123 -0.3578 -0.4697
  622MOL0     C83842   1.977   9.838   2.792 -0.3945  0.0570  0.3171
  622MOL0     O83843   1.862   9.895   2.839 -0.2008  0.4489 -0.4265
  622MOL0     C83844   1.748   9.883   2.753  0.3839 -0.6818 -0.0775
  622MOL0     C83845   1.636   9.980   2.790 -0.0059  0.2720 -0.1332
  622MOL0     C83846   1.515   9.977   2.684  0.4305  0.1036  0.0984
  622MOL0     C83847   1.383  10.014   2.743 -0.8334 -0.1927 -0.3399
  622MOL0     C83848   1.260   9.981   2.655 -0.1117 -0.6636  0.4306
  622MOL0     C83849   1.143  10.053   2.718 -0.3948  0.1573 -0.4052
  622MOL0     C83850   1.003  10.033   2.641 -0.7404 -0.2577 -0.7986
  622MOL0     C83851   0.896  10.081   2.727  0.5422 -0.0714 -0.7734
  622MOL0     N83852   0.769  10.054   2.652 -0.5003  0.6481 -0.5094
  622MOL0     C83853   0.711   9.925   2.667  0.4607 -0.7495  0.4954
  622MOL0     C83854   0.609   9.920   2.578 -1.1218 -0.5534 -0.2070
  622MOL0     C83855   0.523   9.801   2.564  0.6967  0.4034 -0.5392
  622MOL0     C83856   0.388   9.836   2.630 -0.4245  0.2205 -1.2079
  622MOL0     C83857   0.310   9.706   2.650  0.0586  0.1136 -0.6326
  622MOL0     C83858   0.159   9.722   2.660 -0.4447  0.5398  0.8261
  622MOL0     O83859   0.102   9.599   2.704 -0.3094 -0.3269 -0.4894
  622MOL0     C83860  -0.019   9.607   2.772  0.0464  0.4351 -0.3300
  622MOL0     C83861  -0.074   9.718   2.839  0.5051 -0.2730 -0.0853
  622MOL0     C83862  -0.193   9.710   2.914 -0.9086 -0.0988  0.3356
  622MOL0     C83863  -0.227   9.839   2.987  0.3351 -0.2453  0.1949
  622MOL0     C83864  -0.256   9.583   2.920  0.2211 -0.0389 -0.2337
  622MOL0     C83865  -0.377   9.558   3.007 -0.0298 -0.3196 -0.2454
  622MOL0     O83866  -0.396   9.431   3.045 -0.2034 -0.9367  0.0824
  622MOL0     C83867  -0.509   9.409   3.111 -0.6644  0.7066 -0.0161
  622MOL0     C83868  -0.612   9.338   3.052 -0.6697  0.4901  0.0383
  622MOL0     C83869  -0.736   9.313   3.116  0.4404  0.2933  0.4203
  622MOL0     C83870  -0.745   9.334   3.255 -0.2927 -0.6517  0.1684
  622MOL0     O83871  -0.849   9.277   3.314 -0.2648 -0.7227 -0.5252
  622MOL0     C83872  -0.922   9.362   3.398  0.0101 -1.1649  0.4361
  622MOL0     C83873  -1.055   9.299   3.420 -0.8951 -0.0708  0.1330
  622MOL0     C83874  -1.141   9.404   3.488  1.1446  0.4737 -0.3145
  622MOL0     C83875  -1.290   9.342   3.506 -0.2036 -0.1805 -0.4392
  622MOL0     C83876  -1.383   9.427   3.584 -1.1773  0.9761 -0.5973
  622MOL0     C83877  -1.522   9.377   3.594 -0.0215 -0.1998 -0.1261
  622MOL0     C83878  -1.618   9.436   3.698  0.0395  0.9834 -0.2877
  622MOL0     C83879  -1.753   9.396   3.644  0.1343 -0.3109  0.3555
  622MOL0    Cl83880  -1.870   9.365   3.776 -0.2145  0.3588  0.1908
  622MOL0     C83881  -0.636   9.399   3.313  0.4258 -0.3645 -0.2673
  622MOL0     C83882  -0.524   9.449   3.246  0.0508 -0.1970 -0.4123
  622MOL0     O83883  -0.458   9.651   3.033 -0.3824 -0.0131  0.3083
  622MOL0     C83884  -0.203   9.469   2.854  0.4650 -0.4811  0.2134
  622MOL0     C83885  -0.084   9.484   2.782  0.0708  0.2463 -0.1444
  622MOL0     N83886   0.599  10.045   2.513 -0.4961  0.5961 -0.3832
  622MOL0     N83887   0.692  10.124   2.560 -0.1694  0.3891  0.9209
  622MOL0     C83888   2.089   9.907   2.835 -0.4169  0.4595 -0.6587
  622MOL0     C83889   2.203   9.861   2.784 -0.1499 -0.4896 -0.5965
  622MOL0     C83890   2.527   9.689   2.510 -0.1809  1.3636 -0.2087
  622MOL0     C83891   2.615   9.654   2.621 -0.1748  0.0258  0.2912
  622MOL0     C83892   2.751   9.639   2.598  0.3456 -0.1653 -0.2953
  622MOL0     C83893   2.798   9.618   2.472 -1.1902  0.0600  0.8874
  622MOL0     O83894   2.931   9.584   2.463  0.2658  0.3567  0.1430
  622MOL0     C83895   3.004   9.583   2.332 -0.5166  0.8407  0.0623
  622MOL0     C83896   3.148   9.529   2.345  0.3860 -0.5615 -0.2252
  622MOL0     C83897   3.228   9.585   2.450 -0.3783  0.1400 -0.4157
  622MOL0     C83898   3.361   9.522   2.446 -0.9561  0.3020 -0.1426
  622MOL0     C83899   3.445   9.568   2.549 -0.5976 -0.0352  0.9222
  622MOL0     C83900   3.520   9.618   2.628 -0.2492  0.1575  1.0236
  622MOL0     C83901   2.715   9.648   2.363 -0.8289  0.5490  0.0307
  622MOL0     C83902   2.583   9.683   2.385  0.0031  0.0682  0.0705
  622MOL0     H83903   2.107   9.607   2.576  0.5383 -0.5131 -0.0421
  622MOL0     H83904   1.884   9.678   2.681 -0.3563  0.2095  1.4710
  622MOL0     H83905   1.772   9.910   2.649 -1.1348  0.5383 -0.1410
  622MOL0     H83906   1.720   9.778   2.744  0.9809 -0.9610  1.1401
  622MOL0     H83907   1.600   9.959   2.892 -3.4176  0.0280 -1.2569
  622MOL0     H83908   1.684  10.078   2.793 -1.5926  1.0719  1.1837
  622MOL0     H83909   1.531  10.055   2.608 -2.9792  0.1835 -0.7083
  622MOL0     H83910   1.506   9.881   2.632 -0.2452 -0.6468  1.5523
  622MOL0     H83911   1.359   9.962   2.837 -0.8999  0.5075  0.0332
  622MOL0     H83912   1.392  10.119   2.772 -2.3174  0.4551 -2.0543
  622MOL0     H83913   1.274  10.018   2.553  1.3944  0.0695  0.8755
  622MOL0     H83914   1.246   9.873   2.653 -1.2420 -0.5259  0.0475
  622MOL0     H83915   1.135  10.013   2.819 -1.5640  0.3969 -0.3952
  622MOL0     H83916   1.159  10.161   2.723 -0.5123  0.1235  0.9655
  622MOL0     H83917   1.007  10.088   2.546  1.3145 -1.5791 -1.5546
  622MOL0     H83918   0.989   9.925   2.629 -3.1575 -0.1202  0.2708
  622MOL0     H83919   0.906  10.190   2.729  0.0464 -0.0302  0.2473
  622MOL0     H83920   0.893  10.032   2.825  2.5185  0.4569 -0.4023
  622MOL0     H83921   0.747   9.846   2.732 -0.0804 -1.1990  0.2641
  622MOL0     H83922   0.510   9.768   2.461  4.2223  1.1482 -1.3465
  622MOL0     H83923   0.559   9.710   2.612  0.0370  1.2596  1.7293
  622MOL0     H83924   0.335   9.907   2.568 -2.1377  1.5678  1.6062
  622MOL0     H83925   0.405   9.877   2.730  0.0112 -0.1115 -1.1430
  622MOL0     H83926   0.354   9.657   2.737 -0.1592 -3.2411 -2.2228
  622MOL0     H83927   0.335   9.646   2.561  1.3598  1.3022 -1.1111
  622MOL0     H83928   0.120   9.744   2.560 -1.2090  2.0697  1.4458
  622MOL0     H83929   0.137   9.805   2.727 -0.8012  0.6004  0.6348
  622MOL0     H83930  -0.029   9.816   2.848 -1.6947  0.6261  3.0989
  622MOL0     H83931  -0.190   9.840   3.090 -2.4044  0.5328  1.2590
  622MOL0     H83932  -0.183   9.927   2.939 -1.0007  0.7515  0.7330
  622MOL0     H83933  -0.336   9.853   2.989  0.2462 -0.9720  1.3383
  622MOL0     H83934  -0.598   9.309   2.948  0.9724 -2.3218  0.9505
  622MOL0     H83935  -0.811   9.265   3.053 -0.1626  3.0111 -1.1124
  622MOL0     H83936  -0.869   9.362   3.494  1.8836 -0.2084 -0.5288
  622MOL0     H83937  -0.927   9.464   3.358  2.7773  0.1396  2.9627
  622MOL0     H83938  -1.096   9.256   3.328  3.1251  1.9444 -2.9443
  622MOL0     H83939  -1.047   9.225   3.501 -1.8387  0.0917  0.3800
  622MOL0     H83940  -1.139   9.496   3.428 -1.5009 -0.8019 -2.6222
  622MOL0     H83941  -1.110   9.428   3.590  0.2977  1.8347 -0.3357
  622MOL0     H83942  -1.336   9.312   3.411 -2.8439 -1.6961  1.2158
  622MOL0     H83943  -1.284   9.250   3.564 -0.9556  1.0913  1.7626
  622MOL0     H83944  -1.378   9.526   3.537 -2.2061  1.4555  0.2562
  622MOL0     H83945  -1.333   9.432   3.682  0.6889  2.7885 -1.5504
  622MOL0     H83946  -1.564   9.379   3.493  0.9677  1.6760 -0.5381
  622MOL0     H83947  -1.515   9.270   3.612 -0.2358 -0.5012 -1.7253
  622MOL0     H83948  -1.615   9.545   3.708  0.9979  1.0164 -0.7824
  622MOL0     H83949  -1.590   9.389   3.793  2.6166 -1.7374 -2.2303
  622MOL0     H83950  -1.759   9.301   3.591 -2.1189 -0.5098  0.8643
  622MOL0     H83951  -1.789   9.477   3.579 -0.3062  1.2035  2.3793
  622MOL0     H83952  -0.646   9.423   3.418  1.3368  1.1859 -0.5091
  622MOL0     H83953  -0.455   9.510   3.303  0.6266 -0.4436 -0.8343
  622MOL0     H83954  -0.245   9.369   2.845  0.1608 -0.6824  2.9723
  622MOL0     H83955  -0.033   9.402   2.734 -0.7308 -1.0580  1.1699
  622MOL0     H83956   2.075   9.987   2.907 -0.5419 -1.0626  1.0835
  622MOL0     H83957   2.290   9.914   2.820 -1.7772 -0.1593  3.3323
  622MOL0     H83958   2.579   9.640   2.722  2.2018 -3.1220  0.8714
  622MOL0     H83959   2.821   9.625   2.679  1.0288  2.7248 -0.2668
  622MOL0     H83960   2.950   9.518   2.263  0.2059  0.9719 -0.6481
  622MOL0     H83961   3.010   9.687   2.297  0.5832  0.1323 -2.0480
  622MOL0     H83962   3.201   9.549   2.252 -2.2394  2.4153 -1.2417
  622MOL0     H83963   3.136   9.422   2.367  2.0231 -0.6854  0.1870
  622MOL0     H83964   3.173   9.568   2.543 -1.3847  0.6886 -0.8945
  622MOL0     H83965   3.247   9.691   2.429  1.1087 -0.0646 -0.1748
  622MOL0     H83966   3.398   9.534   2.344 -1.9430 -3.2584 -1.0673
  622MOL0     H83967   3.340   9.416   2.465 -1.9284  0.8844  2.4645
  622MOL0     H83968   3.591   9.657   2.699  0.3230  2.8527 -0.8667
  622MOL0     H83969   2.749   9.642   2.260  1.3037 -1.5802  0.7747
  622MOL0     H83970   2.530   9.705   2.292  2.8253 -0.4212 -1.7711
  623MOL0     O83971   0.693   1.210   0.586 -0.1380 -0.0357 -0.1866
  623MOL0     C83972   0.691   1.131   0.490 -0.0381  0.7297  0.0045
  623MOL0     O83973   0.578   1.058   0.454  0.0176  0.4237 -0.2275
  623MOL0     C83974   0.454   1.124   0.470  0.7762  0.2435 -0.3454
  623MOL0     C83975   0.343   1.045   0.501 -0.2031 -0.3938  0.0562
  623MOL0     C83976   0.223   1.105   0.516  0.3115  0.4490  0.1338
  623MOL0     C83977   0.203   1.248   0.502  0.6421 -0.8179 -0.2048
  623MOL0     O83978   0.079   1.317   0.522  0.4193 -0.3655  0.3893
  623MOL0     C83979  -0.037   1.234   0.560  0.7432 -0.3102  0.2293
  623MOL0     C83980  -0.150   1.324   0.606 -0.2687  0.5291 -0.1670
  623MOL0     C83981  -0.227   1.390   0.485  0.1735  0.3001 -0.5844
  623MOL0     C83982  -0.347   1.466   0.544 -0.0607 -0.2670  0.1097
  623MOL0     C83983  -0.435   1.531   0.429 -0.7376 -0.4514  0.1462
  623MOL0     C83984  -0.549   1.610   0.506  1.2983  0.1556 -0.2451
  623MOL0     C83985  -0.621   1.689   0.395 -0.9998 -0.6928  0.2262
  623MOL0     C83986  -0.679   1.816   0.450 -0.3776 -0.9067  0.5298
  623MOL0     N83987  -0.802   1.814   0.531 -0.3896  0.4007 -0.2648
  623MOL0     C83988  -0.815   1.755   0.663  0.0863  0.3629 -0.4954
  623MOL0     C83989  -0.952   1.767   0.691 -0.0666  0.9370  0.2090
  623MOL0     C83990  -1.017   1.750   0.822 -0.0238  0.0701 -0.0187
  623MOL0     C83991  -0.974   1.625   0.899 -0.3189  0.3687 -0.1468
  623MOL0     C83992  -0.977   1.493   0.817  0.4314 -0.3493 -1.0449
  623MOL0     C83993  -1.122   1.470   0.768  0.1508 -0.2773 -0.1567
  623MOL0     O83994  -1.210   1.445   0.877  0.4849 -0.4998 -0.0517
  623MOL0     C83995  -1.330   1.506   0.880  0.3710  1.0095 -0.0922
  623MOL0     C83996  -1.385   1.541   0.998  0.3355 -1.0682  0.6459
  623MOL0     C83997  -1.518   1.601   0.997 -0.5162 -0.6076  0.5964
  623MOL0     C83998  -1.573   1.642   1.131  0.0049  0.5601  0.0685
  623MOL0     C83999  -1.590   1.613   0.875 -0.0018  0.7034  0.7888
  623MOL0     C84000  -1.722   1.676   0.870 -0.2873 -0.3675 -0.1837
  623MOL0     O84001  -1.813   1.616   0.785 -0.1121 -0.6049  0.9297
  623MOL0     C84002  -1.946   1.633   0.814  0.0520  0.2500  0.1723
  623MOL0     C84003  -1.991   1.550   0.921 -0.1010 -0.3015  0.3342
  623MOL0     C84004  -2.124   1.567   0.963 -0.6111 -0.1484 -0.5997
  623MOL0     C84005  -2.217   1.650   0.898 -1.0356  0.8324 -1.1664
  623MOL0     O84006  -2.335   1.676   0.946 -0.2361 -0.1576 -0.4011
  623MOL0     C84007  -2.399   1.582   1.032  0.5330 -0.0790  0.1928
  623MOL0     C84008  -2.546   1.613   1.028 -0.1513 -0.4576  0.6907
  623MOL0     C84009  -2.626   1.521   1.119  0.2849  0.0802 -0.1454
  623MOL0     C84010  -2.776   1.534   1.096 -0.0473  0.0152 -0.0376
  623MOL0     C84011  -2.860   1.467   1.203  0.0380  0.2833  0.1965
  623MOL0     C84012  -3.010   1.455   1.156  0.2875 -0.5848 -0.1620
  623MOL0     C84013  -3.100   1.382   1.265 -0.0190 -0.0375  0.4551
  623MOL0     C84014  -3.252   1.380   1.210 -0.9503  0.8117 -0.2759
  623MOL0    Cl84015  -3.356   1.337   1.354 -0.1550 -0.1930  0.3583
  623MOL0     C84016  -2.176   1.727   0.790  0.2769  0.6529 -0.5621
  623MOL0     C84017  -2.045   1.704   0.746 -0.8528  0.5726 -0.0559
  623MOL0     O84018  -1.748   1.775   0.946  0.2097 -0.2584  0.5755
  623MOL0     C84019  -1.527   1.567   0.757  0.1170 -0.8647 -0.1220
  623MOL0     C84020  -1.398   1.514   0.756 -0.5211  0.3383 -0.2519
  623MOL0     N84021  -1.007   1.822   0.581  0.1687  1.3148  0.2045
  623MOL0     N84022  -0.921   1.852   0.496 -0.1824 -0.0681  0.0517
  623MOL0     C84023   0.309   1.322   0.470 -0.2306 -0.2232 -0.6452
  623MOL0     C84024   0.441   1.264   0.453 -0.5910  0.0625 -0.6293
  623MOL0     C84025   0.808   1.098   0.409 -0.5996  0.4548  0.0345
  623MOL0     C84026   0.881   1.197   0.348 -0.0171 -0.9219  0.6201
  623MOL0     C84027   0.993   1.167   0.278  0.2253 -0.0923  0.4893
  623MOL0     C84028   1.027   1.036   0.255 -0.2765  0.2396  0.7683
  623MOL0     O84029   1.141   1.024   0.170  0.5970  0.7891 -0.2295
  623MOL0     C84030   1.204   0.893   0.151  1.1836  0.3989  0.0469
  623MOL0     C84031   1.328   0.925   0.065  0.2621  0.0077 -0.5805
  623MOL0     C84032   1.413   1.038   0.118 -0.4792  0.0158 -0.5464
  623MOL0     C84033   1.455   1.023   0.263  0.7981  0.0042  0.0576
  623MOL0     C84034   1.491   0.881   0.291  0.1736 -1.1021 -0.4234
  623MOL0     C84035   1.516   0.772   0.325  0.2130 -0.4311 -0.2159
  623MOL0     C84036   0.945   0.928   0.297 -0.1669  0.1391 -0.1260
  623MOL0     C84037   0.836   0.962   0.379  0.6576 -0.0031  0.3296
  623MOL0     H84038   0.356   0.938   0.506  2.2452 -0.2922 -2.0899
  623MOL0     H84039   0.140   1.040   0.540  1.4955 -1.5301 -0.8850
  623MOL0     H84040  -0.067   1.170   0.477 -0.8257  0.7230 -0.0563
  623MOL0     H84041  -0.002   1.177   0.647  0.7118 -2.7257 -1.2693
  623MOL0     H84042  -0.213   1.251   0.657  0.5570 -0.2481 -0.2209
  623MOL0     H84043  -0.116   1.400   0.677  0.5515 -0.1549  0.1964
  623MOL0     H84044  -0.161   1.467   0.444  0.0658  0.8321  0.2280
  623MOL0     H84045  -0.252   1.319   0.405  0.8133 -0.8657  0.2166
  623MOL0     H84046  -0.410   1.404   0.609 -2.3538  2.5240  0.7300
  623MOL0     H84047  -0.306   1.542   0.611 -0.2723 -0.3072  0.2868
  623MOL0     H84048  -0.371   1.598   0.372 -0.5832  0.9332  1.8612
  623MOL0     H84049  -0.476   1.457   0.359  1.2042 -1.1581 -0.2828
  623MOL0     H84050  -0.614   1.536   0.553  1.7876 -0.3502 -0.3571
  623MOL0     H84051  -0.502   1.672   0.583 -2.4098 -0.2487  2.6163
  623MOL0     H84052  -0.557   1.714   0.310 -1.1610 -1.7598 -0.2256
  623MOL0     H84053  -0.698   1.626   0.349 -1.0489 -0.2358 -0.3221
  623MOL0     H84054  -0.711   1.874   0.363 -1.5831 -1.7194  0.4093
  623MOL0     H84055  -0.595   1.860   0.505  1.6253 -3.2449 -0.4438
  623MOL0     H84056  -0.742   1.727   0.737 -1.0256 -1.9288 -0.1793
  623MOL0     H84057  -0.992   1.840   0.878  1.6424 -0.2909 -0.1366
  623MOL0     H84058  -1.125   1.740   0.808  0.5505 -4.1406 -3.8643
  623MOL0     H84059  -1.030   1.619   0.993  0.8416  3.0178  0.8028
  623MOL0     H84060  -0.868   1.647   0.919 -0.1969  0.0256 -0.4040
  623MOL0     H84061  -0.950   1.410   0.882  0.1857  0.7794  0.5627
  623MOL0     H84062  -0.905   1.507   0.736  1.0043  1.4603 -0.2707
  623MOL0     H84063  -1.116   1.379   0.707  0.1955 -1.3387  1.3641
  623MOL0     H84064  -1.152   1.561   0.717  1.4559 -0.9621 -2.2873
  623MOL0     H84065  -1.327   1.524   1.088 -1.2248  1.3390  2.2434
  623MOL0     H84066  -1.506   1.615   1.213 -2.2581  2.8592  2.8905
  623MOL0     H84067  -1.580   1.750   1.146 -0.7664  1.0543 -3.1465
  623MOL0     H84068  -1.672   1.596   1.144 -0.5364  1.4134 -0.8701
  623MOL0     H84069  -1.926   1.499   0.991  0.5001  0.9633  0.7252
  623MOL0     H84070  -2.153   1.510   1.051  0.9703 -2.8812 -1.7366
  623MOL0     H84071  -2.378   1.477   1.006 -0.6898 -0.0075 -1.2455
  623MOL0     H84072  -2.356   1.601   1.130  2.0851 -0.5490 -0.3632
  623MOL0     H84073  -2.564   1.719   1.044 -2.8145 -0.8600  0.8938
  623MOL0     H84074  -2.579   1.593   0.925  1.8206  3.9406 -1.0258
  623MOL0     H84075  -2.596   1.554   1.218  2.2909  0.3055 -0.7889
  623MOL0     H84076  -2.597   1.418   1.096  0.4596  0.1858 -0.4041
  623MOL0     H84077  -2.805   1.639   1.092 -1.5160 -0.1989  2.6542
  623MOL0     H84078  -2.801   1.497   0.996 -3.5078  0.3518  0.5854
  623MOL0     H84079  -2.847   1.509   1.303 -0.1026 -0.5103  0.5580
  623MOL0     H84080  -2.833   1.361   1.214  0.1242  0.1974 -0.7426
  623MOL0     H84081  -3.042   1.559   1.139 -1.0263 -0.2698  3.4969
  623MOL0     H84082  -3.014   1.401   1.061 -2.7410  0.9395 -1.0345
  623MOL0     H84083  -3.092   1.442   1.355 -2.8496 -1.1550  1.5528
  623MOL0     H84084  -3.062   1.281   1.287 -0.4294 -0.7264 -1.6908
  623MOL0     H84085  -3.257   1.310   1.126  1.1531  1.6068 -1.1523
  623MOL0     H84086  -3.279   1.480   1.175  0.6440  1.8068  1.1573
  623MOL0     H84087  -2.243   1.798   0.743 -1.2810 -0.1364  0.3657
  623MOL0     H84088  -2.019   1.762   0.658 -0.0164  2.1716  1.1915
  623MOL0     H84089  -1.584   1.578   0.665 -2.8739 -0.9675  1.5981
  623MOL0     H84090  -1.351   1.494   0.660 -3.1471  1.6739 -1.9470
  623MOL0     H84091   0.287   1.427   0.459  1.4744  0.2113 -0.1516
  623MOL0     H84092   0.524   1.332   0.436 -0.2348  0.4160  2.0549
  623MOL0     H84093   0.847   1.300   0.360  0.9135 -0.4439 -0.6607
  623MOL0     H84094   1.060   1.238   0.231  0.1497  1.0169  1.9939
  623MOL0     H84095   1.220   0.855   0.253 -4.7773  0.6398  1.4621
  623MOL0     H84096   1.131   0.825   0.107  1.1008  0.6695 -0.2354
  623MOL0     H84097   1.307   0.944  -0.040  1.2841  0.5622 -0.6989
  623MOL0     H84098   1.387   0.832   0.071  2.2535  1.2650  0.5545
  623MOL0     H84099   1.364   1.133   0.095  0.5908  0.2199 -2.1781
  623MOL0     H84100   1.507   1.024   0.063  0.8570  0.8762  1.4329
  623MOL0     H84101   1.382   1.049   0.340  2.0631  1.5171  0.7831
  623MOL0     H84102   1.542   1.087   0.274 -0.4271  1.5493  1.0986
  623MOL0     H84103   1.558   0.684   0.368 -1.5744 -1.5675 -0.6791
  623MOL0     H84104   0.955   0.824   0.268 -2.9597  0.4267 -2.6693
  623MOL0     H84105   0.768   0.882   0.406  0.8675  0.4330  2.3216
  624MOL0     O84106   6.786   6.937  11.162 -0.1118 -0.2718  0.1123
  624MOL0     C84107   6.868   6.857  11.210 -1.0606 -0.0794 -0.1316
  624MOL0     O84108   6.838   6.735  11.273 -0.4458  0.4648 -0.6649
  624MOL0     C84109   6.709   6.705  11.281  0.5197  0.5908 -0.5000
  624MOL0     C84110   6.621   6.694  11.172  0.1497  0.4969  0.1258
  624MOL0     C84111   6.498   6.641  11.192  0.7043 -0.0725  0.8031
  624MOL0     C84112   6.460   6.590  11.319  0.3997  0.4027  0.2520
  624MOL0     O84113   6.331   6.532  11.312  0.1392 -0.1631  0.1922
  624MOL0     C84114   6.248   6.550  11.425  0.6250  0.6507  0.2102
  624MOL0     C84115   6.116   6.478  11.423 -0.9205  0.1129  0.1079
  624MOL0     C84116   6.021   6.529  11.313 -0.0294  0.5778  0.5015
  624MOL0     C84117   5.976   6.674  11.334 -0.7147  0.5279  0.3185
  624MOL0     C84118   5.855   6.705  11.248 -0.5080 -0.4004  0.2660
  624MOL0     C84119   5.807   6.850  11.261 -0.3220  0.5860 -0.1669
  624MOL0     C84120   5.734   6.880  11.397  0.4354 -0.5855 -0.0750
  624MOL0     C84121   5.609   6.800  11.426 -0.1824  0.4012  0.5984
  624MOL0     N84122   5.539   6.849  11.545 -0.1297  0.3846  0.3309
  624MOL0     C84123   5.438   6.781  11.608  0.4049 -0.0184  0.1079
  624MOL0     C84124   5.420   6.829  11.731 -0.0079 -0.6424  0.5329
  624MOL0     C84125   5.313   6.797  11.833  0.5910  0.2901 -0.1339
  624MOL0     C84126   5.183   6.864  11.794  1.2261 -0.2525 -0.0782
  624MOL0     C84127   5.072   6.809  11.883  0.6402 -0.6043 -0.4812
  624MOL0     C84128   4.948   6.877  11.847  0.3855  0.3833 -0.3984
  624MOL0     O84129   4.907   6.811  11.730 -0.1858  0.9700 -0.1074
  624MOL0     C84130   4.780   6.825  11.698 -0.5081  0.1535  0.3795
  624MOL0     C84131   4.740   6.761  11.577  0.8165 -0.0619  0.2662
  624MOL0     C84132   4.607   6.767  11.526 -0.2105  0.1571 -0.4564
  624MOL0     C84133   4.593   6.682  11.407 -0.0868  1.0541 -0.3612
  624MOL0     C84134   4.512   6.855  11.594  0.3819  1.0880  0.0119
  624MOL0     C84135   4.370   6.871  11.542  0.8508  0.6529 -0.6991
  624MOL0     O84136   4.269   6.881  11.636  0.2634  0.3442  0.2716
  624MOL0     C84137   4.148   6.927  11.597  0.1000  0.2107 -0.6072
  624MOL0     C84138   4.055   6.836  11.550 -0.2647  0.1800  0.2220
  624MOL0     C84139   3.916   6.873  11.539 -0.5308 -0.6268  0.5619
  624MOL0     C84140   3.880   7.010  11.558  0.3378  0.4739  0.7189
  624MOL0     O84141   3.746   7.038  11.539 -0.6819 -0.5890  0.4887
  624MOL0     C84142   3.726   7.178  11.504 -0.3598  0.4683  0.3366
  624MOL0     C84143   3.577   7.187  11.496 -0.7450 -1.2347  1.0683
  624MOL0     C84144   3.508   7.186  11.639  0.0033  0.3145  0.0805
  624MOL0     C84145   3.371   7.119  11.621 -0.2278 -0.4960  0.3643
  624MOL0     C84146   3.296   7.093  11.750 -0.5167  0.8841  0.2307
  624MOL0     C84147   3.155   7.033  11.732 -0.0063 -0.3637  0.3593
  624MOL0     C84148   3.087   7.003  11.865  0.5010 -0.6792  0.4597
  624MOL0     C84149   2.956   6.927  11.844 -0.2738 -0.4065  0.7509
  624MOL0    Cl84150   2.844   7.041  11.761  0.5030 -0.1450  0.2741
  624MOL0     C84151   3.983   7.102  11.600  1.5173  0.0003 -0.6053
  624MOL0     C84152   4.112   7.061  11.618  0.5820  0.3162  0.4053
  624MOL0     O84153   4.350   6.888  11.422  0.5384 -0.5722 -0.2312
  624MOL0     C84154   4.557   6.923  11.706  0.0240  0.4486 -0.9207
  624MOL0     C84155   4.680   6.903  11.767 -0.3229  0.6868  0.4032
  624MOL0     N84156   5.523   6.917  11.753 -0.0311 -0.4047 -0.1567
  624MOL0     N84157   5.592   6.929  11.641  1.0305 -0.3026  0.5564
  624MOL0     C84158   6.543   6.600  11.427 -0.1421 -0.5132  0.5075
  624MOL0     C84159   6.672   6.644  11.401 -0.6696  0.0366 -0.4066
  624MOL0     C84160   7.014   6.895  11.189 -0.1166  0.7633 -1.1098
  624MOL0     C84161   7.114   6.852  11.275  0.8434  0.8305  0.7025
  624MOL0     C84162   7.249   6.880  11.248  0.1907 -0.3719 -0.3975
  624MOL0     C84163   7.285   6.948  11.141  0.2542  0.5584  0.5016
  624MOL0     O84164   7.421   6.972  11.116 -0.6810 -0.6408  0.2180
  624MOL0     C84165   7.467   6.928  10.986 -0.7910  0.6646  0.6681
  624MOL0     C84166   7.613   6.972  10.955  0.5717  0.0090  0.7608
  624MOL0     C84167   7.641   7.114  11.006  0.9319 -0.1992  0.8827
  624MOL0     C84168   7.781   7.169  10.976  0.1838  0.8825 -0.0313
  624MOL0     C84169   7.780   7.309  11.015 -0.2729 -0.6366  0.3643
  624MOL0     C84170   7.772   7.426  11.036 -0.1489 -0.0656  0.1995
  624MOL0     C84171   7.185   7.015  11.066 -0.0679  1.2757 -0.6173
  624MOL0     C84172   7.051   6.987  11.089 -0.5106  0.0278 -0.0109
  624MOL0     H84173   6.657   6.723  11.074  2.2707 -2.8075 -0.2208
  624MOL0     H84174   6.431   6.623  11.108  0.0165  1.7764  0.9191
  624MOL0     H84175   6.298   6.524  11.519 -1.0672  3.4045  2.0099
  624MOL0     H84176   6.222   6.652  11.453 -3.0439 -0.2931  0.8294
  624MOL0     H84177   6.135   6.371  11.412 -3.4607 -0.3028 -0.8669
  624MOL0     H84178   6.070   6.504  11.518  1.3666 -0.0421  1.3132
  624MOL0     H84179   6.079   6.519  11.221 -0.2772  4.7420 -0.2667
  624MOL0     H84180   5.931   6.469  11.299 -0.0736  0.7458  0.0734
  624MOL0     H84181   5.942   6.691  11.436  0.6900  1.9620  0.5886
  624MOL0     H84182   6.063   6.739  11.321 -0.7116  0.2672 -1.1079
  624MOL0     H84183   5.883   6.691  11.143  0.6654  2.5791  0.0808
  624MOL0     H84184   5.770   6.640  11.271 -0.3116 -0.4855  0.7743
  624MOL0     H84185   5.890   6.920  11.249 -0.2569  0.6013  0.3528
  624MOL0     H84186   5.740   6.879  11.179  0.4188  1.2533 -0.5431
  624MOL0     H84187   5.807   6.865  11.477 -1.0216  0.7938  1.5877
  624MOL0     H84188   5.704   6.985  11.394  1.2289 -0.3722 -0.9935
  624MOL0     H84189   5.626   6.694  11.445 -1.1583 -0.4496 -2.6523
  624MOL0     H84190   5.554   6.808  11.331  0.2312  0.1254  0.3295
  624MOL0     H84191   5.366   6.708  11.572 -0.8146 -0.9681  3.9320
  624MOL0     H84192   5.297   6.689  11.831  2.2049 -0.1012  2.7359
  624MOL0     H84193   5.352   6.826  11.931 -1.7037  2.2072  0.3067
  624MOL0     H84194   5.169   6.837  11.689  1.4842  0.8533 -0.4039
  624MOL0     H84195   5.192   6.973  11.797  0.3127 -0.0893 -2.1076
  624MOL0     H84196   5.093   6.838  11.986  1.2862  0.3831 -0.8717
  624MOL0     H84197   5.058   6.701  11.881 -0.9068 -0.6359  3.3278
  624MOL0     H84198   4.958   6.985  11.836 -0.4613  0.9065  2.9108
  624MOL0     H84199   4.883   6.862  11.934  1.0408  0.7145  0.1551
  624MOL0     H84200   4.811   6.699  11.524 -0.0432 -2.0945  1.3839
  624MOL0     H84201   4.492   6.640  11.407 -0.1364  1.1732 -0.8873
  624MOL0     H84202   4.584   6.749  11.321 -1.1078  1.4682  0.0544
  624MOL0     H84203   4.676   6.611  11.400 -1.6050 -0.9395  0.7491
  624MOL0     H84204   4.093   6.736  11.529  1.5343  1.0281 -0.7067
  624MOL0     H84205   3.843   6.806  11.495  1.8365 -1.7044 -2.0371
  624MOL0     H84206   3.760   7.253  11.576 -1.3300 -0.6144  1.9967
  624MOL0     H84207   3.755   7.191  11.400  0.0389 -4.4140 -0.3970
  624MOL0     H84208   3.547   7.266  11.426  0.3780 -1.5021  0.2645
  624MOL0     H84209   3.535   7.105  11.436 -1.6093 -0.0426 -0.0038
  624MOL0     H84210   3.510   7.287  11.680 -1.0056  1.1984 -1.8790
  624MOL0     H84211   3.563   7.120  11.706  0.1717 -2.4413 -2.5301
  624MOL0     H84212   3.309   7.189  11.564 -1.5567 -1.1088  1.0171
  624MOL0     H84213   3.378   7.021  11.574  0.0491  0.3389 -1.4506
  624MOL0     H84214   3.286   7.186  11.805  0.7092  0.9556  0.3636
  624MOL0     H84215   3.357   7.028  11.814 -1.8781 -1.1646 -0.4140
  624MOL0     H84216   3.085   7.100  11.681 -1.4878  0.8279  3.7206
  624MOL0     H84217   3.165   6.942  11.671 -0.7286 -0.4716  0.3864
  624MOL0     H84218   3.065   7.103  11.904 -1.5581 -0.2830 -1.4768
  624MOL0     H84219   3.155   6.945  11.928  0.4699 -0.8671  0.3242
  624MOL0     H84220   2.909   6.898  11.939 -1.8149  0.0713  0.1664
  624MOL0     H84221   2.973   6.835  11.788  0.1956 -1.3171  2.3097
  624MOL0     H84222   3.956   7.204  11.624  0.4360 -0.4844  0.4066
  624MOL0     H84223   4.177   7.137  11.662 -0.7922  2.7180 -1.4548
  624MOL0     H84224   4.491   6.996  11.751 -1.1019  0.9926 -3.3073
  624MOL0     H84225   4.702   6.957  11.858  0.7221 -0.5264  0.9021
  624MOL0     H84226   6.514   6.564  11.525 -1.3843 -0.7722  0.0568
  624MOL0     H84227   6.753   6.639  11.473  0.3330 -0.3713 -1.5398
  624MOL0     H84228   7.086   6.785  11.356  0.5736  2.0023  1.6010
  624MOL0     H84229   7.319   6.838  11.320 -0.0032  1.3658  0.8461
  624MOL0     H84230   7.460   6.819  10.984 -0.8974  0.5099  4.3364
  624MOL0     H84231   7.400   6.977  10.914 -1.0107 -2.2936 -1.3360
  624MOL0     H84232   7.625   6.950  10.849  2.8838 -0.5689  1.0842
  624MOL0     H84233   7.670   6.900  11.015  0.1580 -0.7276  0.2781
  624MOL0     H84234   7.628   7.117  11.115  2.5582  0.5135  1.0919
  624MOL0     H84235   7.566   7.183  10.967  0.4608 -1.5312 -0.6786
  624MOL0     H84236   7.801   7.149  10.871 -1.3046  0.0410 -0.1838
  624MOL0     H84237   7.864   7.118  11.026 -2.2748 -2.8167  0.6487
  624MOL0     H84238   7.758   7.531  11.048 -0.5227 -0.2601  1.6881
  624MOL0     H84239   7.220   7.074  10.982  0.1743 -1.4904 -2.6148
  624MOL0     H84240   6.976   7.033  11.026 -1.1174  0.5080  1.0527
  625MOL0     O84241   4.841  10.204   8.558 -0.2583  0.4257 -0.3586
  625MOL0     C84242   4.897  10.125   8.489 -0.6916 -0.3013 -0.5188
  625MOL0     O84243   4.840  10.046   8.392 -0.2541 -0.4873 -0.6913
  625MOL0     C84244   4.706  10.050   8.366 -0.4484 -0.4143 -0.8420
  625MOL0     C84245   4.620  10.162   8.380 -0.7909  0.5670  0.2344
  625MOL0     C84246   4.483  10.148   8.340  0.2359 -0.8310  0.1493
  625MOL0     C84247   4.438  10.023   8.312 -0.1037 -0.4377 -0.5937
  625MOL0     O84248   4.303  10.017   8.269  0.4556 -0.9808  0.4776
  625MOL0     C84249   4.209   9.967   8.368 -0.0653  0.2200 -0.5838
  625MOL0     C84250   4.156  10.078   8.458 -0.3687 -0.8568 -1.0756
  625MOL0     C84251   4.040  10.022   8.544  0.2593  0.7519 -0.1659
  625MOL0     C84252   3.913   9.994   8.463 -0.4042 -0.3284 -0.1688
  625MOL0     C84253   3.789   9.957   8.547 -0.0255 -0.2670  1.2751
  625MOL0     C84254   3.752  10.051   8.660 -0.2512  0.3507  0.0674
  625MOL0     C84255   3.744  10.202   8.628 -0.3675 -0.6875  0.6486
  625MOL0     C84256   3.715  10.294   8.748  0.5060  0.0599  0.0200
  625MOL0     N84257   3.584  10.267   8.816  0.4315  0.8488 -0.0661
  625MOL0     C84258   3.560  10.242   8.951 -0.2984 -0.4006 -0.0776
  625MOL0     C84259   3.426  10.220   8.954 -0.2203  0.4351  0.0080
  625MOL0     C84260   3.348  10.180   9.077  0.5097 -0.1760 -0.4477
  625MOL0     C84261   3.369  10.280   9.188  0.4016  0.4602  0.1679
  625MOL0     C84262   3.300  10.231   9.321  0.2916 -0.4194  1.1113
  625MOL0     C84263   3.145  10.243   9.305 -0.7470  0.7249  0.7037
  625MOL0     O84264   3.093  10.207   9.436  0.2928  0.4937  0.8530
  625MOL0     C84265   2.952  10.206   9.451  0.5631 -0.0703 -0.3390
  625MOL0     C84266   2.869  10.286   9.371 -0.2110 -0.4181 -0.1221
  625MOL0     C84267   2.730  10.297   9.402  0.3185  0.5699  0.6739
  625MOL0     C84268   2.658  10.391   9.314  0.6081 -0.4962 -0.2187
  625MOL0     C84269   2.681  10.228   9.517  0.6056 -0.6770 -0.7107
  625MOL0     C84270   2.540  10.235   9.578 -0.7128  1.1721 -0.1897
  625MOL0     O84271   2.448  10.320   9.514 -0.8331 -0.0900  0.8233
  625MOL0     C84272   2.333  10.354   9.580  0.6214 -0.1051 -0.0867
  625MOL0     C84273   2.308  10.494   9.591 -0.1888 -0.1509 -0.4838
  625MOL0     C84274   2.206  10.542   9.671  0.1309 -0.4778  0.9897
  625MOL0     C84275   2.115  10.463   9.732  0.3815  0.3154 -0.4874
  625MOL0     O84276   2.004  10.501   9.804  0.0982 -0.0076 -0.0336
  625MOL0     C84277   1.963  10.641   9.797 -0.6692 -0.2247  0.2583
  625MOL0     C84278   1.818  10.656   9.842 -0.2754  0.2442  0.4463
  625MOL0     C84279   1.737  10.551   9.767  0.1102 -0.0276  0.3513
  625MOL0     C84280   1.579  10.565   9.784  0.2111  0.4373 -0.4998
  625MOL0     C84281   1.495  10.491   9.679  0.8330 -0.4540  0.1908
  625MOL0     C84282   1.350  10.523   9.702  0.1088 -0.0641 -0.9973
  625MOL0     C84283   1.257  10.448   9.608  0.1959 -0.4022  1.3536
  625MOL0     C84284   1.112  10.498   9.628 -1.0456 -0.0443 -0.3705
  625MOL0    Cl84285   1.052  10.485   9.794 -0.1789  0.3815  0.2498
  625MOL0     C84286   2.136  10.317   9.716  0.5915  0.1787 -0.2426
  625MOL0     C84287   2.243  10.269   9.639  0.3749  0.7208 -0.9852
  625MOL0     O84288   2.515  10.172   9.681  0.1147  0.0369 -0.3348
  625MOL0     C84289   2.761  10.135   9.587  0.2838  0.3116  0.0664
  625MOL0     C84290   2.897  10.127   9.555 -0.1805  0.2249 -0.3591
  625MOL0     N84291   3.368  10.227   8.830 -0.8638  0.0284  0.5126
  625MOL0     N84292   3.462  10.259   8.754 -1.0002  0.0892 -0.2184
  625MOL0     C84293   4.520   9.909   8.300 -0.0452  0.4933 -0.2260
  625MOL0     C84294   4.651   9.930   8.336  0.7527  0.1625 -0.9505
  625MOL0     C84295   5.043  10.114   8.510  1.2835 -0.0895 -0.8114
  625MOL0     C84296   5.121  10.122   8.395  0.3239 -0.4046  0.1488
  625MOL0     C84297   5.254  10.146   8.404  0.8808 -0.4252  0.4344
  625MOL0     C84298   5.313  10.184   8.525  0.8825 -0.1683  0.3720
  625MOL0     O84299   5.423  10.270   8.534  0.2884  0.8210 -0.1092
  625MOL0     C84300   5.512  10.277   8.423 -0.7922 -1.0017 -0.1455
  625MOL0     C84301   5.580  10.413   8.448 -0.7668 -0.5850  0.5695
  625MOL0     C84302   5.630  10.421   8.593 -0.1114 -0.2161  0.3249
  625MOL0     C84303   5.744  10.518   8.614 -0.2263 -0.6267  0.1552
  625MOL0     C84304   5.718  10.655   8.569  0.0724  0.8697 -0.1083
  625MOL0     C84305   5.686  10.770   8.549 -0.2382 -0.8937 -0.5847
  625MOL0     C84306   5.236  10.164   8.642 -0.1416  0.1873 -0.3099
  625MOL0     C84307   5.102  10.122   8.638  0.6676 -0.1726 -0.8371
  625MOL0     H84308   4.658  10.260   8.408 -1.2918  1.6591 -2.5137
  625MOL0     H84309   4.413  10.231   8.337 -0.0342 -1.0258  0.8469
  625MOL0     H84310   4.124   9.919   8.319 -2.3491  1.9616  1.4123
  625MOL0     H84311   4.244   9.882   8.428 -0.4420  1.2628  1.1890
  625MOL0     H84312   4.238  10.111   8.523 -0.8063 -0.4638 -0.7231
  625MOL0     H84313   4.131  10.163   8.393  0.7677  0.2402 -0.1478
  625MOL0     H84314   4.074   9.926   8.584  0.6670  0.5642 -0.9602
  625MOL0     H84315   4.010  10.088   8.627  0.9412 -1.6858  2.1487
  625MOL0     H84316   3.896  10.091   8.414  2.4001  0.5231  0.3287
  625MOL0     H84317   3.929   9.920   8.384  0.3788 -2.5227  1.9504
  625MOL0     H84318   3.700   9.952   8.483 -0.6464 -1.4227  2.1967
  625MOL0     H84319   3.804   9.855   8.582  1.0793 -0.9739 -1.0393
  625MOL0     H84320   3.655  10.015   8.698 -1.3772  3.1294  0.0761
  625MOL0     H84321   3.833  10.048   8.733  1.6403  1.4974 -1.8962
  625MOL0     H84322   3.842  10.233   8.593  0.0904 -2.2301  0.5122
  625MOL0     H84323   3.680  10.221   8.542  0.2900 -0.6666  0.1611
  625MOL0     H84324   3.711  10.398   8.715 -1.3385 -0.0664 -0.2465
  625MOL0     H84325   3.790  10.285   8.828 -1.0285  2.8635  1.9807
  625MOL0     H84326   3.634  10.221   9.029 -1.8523 -1.2466  1.2355
  625MOL0     H84327   3.243  10.192   9.048  0.6051 -1.5026 -1.4155
  625MOL0     H84328   3.374  10.079   9.111 -3.3240 -1.4687 -0.8489
  625MOL0     H84329   3.342  10.384   9.172  1.0867  0.4603 -1.1513
  625MOL0     H84330   3.475  10.292   9.211  0.4279 -2.1355  1.9205
  625MOL0     H84331   3.324  10.286   9.413 -0.8502  0.1242  1.1012
  625MOL0     H84332   3.324  10.127   9.344  0.4766 -0.8557 -0.8884
  625MOL0     H84333   3.114  10.182   9.220  0.6897  2.2806 -1.0074
  625MOL0     H84334   3.107  10.342   9.278 -1.9739  0.0642 -0.0664
  625MOL0     H84335   2.905  10.340   9.285  2.4960 -0.9527  0.5917
  625MOL0     H84336   2.593  10.343   9.241 -1.1332  4.6324 -2.5720
  625MOL0     H84337   2.596  10.462   9.371  0.7088  1.3019 -2.2070
  625MOL0     H84338   2.730  10.451   9.257 -0.5210 -0.0708 -1.2473
  625MOL0     H84339   2.383  10.562   9.553  1.0641  0.1804  2.3406
  625MOL0     H84340   2.199  10.651   9.666  1.1666 -0.3904  1.1970
  625MOL0     H84341   2.032  10.703   9.854 -0.8175 -2.5817  3.2311
  625MOL0     H84342   1.961  10.674   9.693  1.3629  1.0418  0.5801
  625MOL0     H84343   1.809  10.655   9.951 -1.9986 -0.0722  0.3297
  625MOL0     H84344   1.799  10.757   9.805  1.9656  0.0707 -1.4678
  625MOL0     H84345   1.760  10.447   9.794 -0.0577 -0.3936 -0.8462
  625MOL0     H84346   1.775  10.559   9.665  1.4373 -1.4688  0.6923
  625MOL0     H84347   1.536  10.537   9.881 -0.8361  2.4164 -0.3513
  625MOL0     H84348   1.557  10.671   9.770  2.2867  0.7903 -1.4737
  625MOL0     H84349   1.507  10.383   9.691  0.1386 -0.4965  0.5246
  625MOL0     H84350   1.527  10.520   9.578 -0.0334 -0.6417 -0.1394
  625MOL0     H84351   1.323  10.498   9.805 -1.5177  3.2802 -0.4872
  625MOL0     H84352   1.334  10.630   9.689 -2.9489 -0.1552  0.9260
  625MOL0     H84353   1.259  10.340   9.624 -1.2668 -0.6599  0.0486
  625MOL0     H84354   1.284  10.461   9.502 -0.3600 -0.2293  1.2333
  625MOL0     H84355   1.033  10.449   9.570 -1.2985  0.0967 -0.1455
  625MOL0     H84356   1.112  10.603   9.600  1.8389 -0.4405 -2.2293
  625MOL0     H84357   2.071  10.244   9.762  0.9462  0.2114  0.3237
  625MOL0     H84358   2.252  10.163   9.621 -1.1288  0.5554 -0.9036
  625MOL0     H84359   2.734  10.089   9.681 -3.5362  3.1208  0.5932
  625MOL0     H84360   2.975  10.076   9.611  0.1831  0.1370 -0.9358
  625MOL0     H84361   4.471   9.817   8.268 -0.6900  0.6331  0.3495
  625MOL0     H84362   4.711   9.840   8.322  1.6950  0.6401 -0.1125
  625MOL0     H84363   5.072  10.115   8.298  0.9521  1.6567 -0.3563
  625MOL0     H84364   5.310  10.123   8.313 -2.6835 -2.6878 -1.4094
  625MOL0     H84365   5.589  10.200   8.433 -0.9835 -1.1026  0.6271
  625MOL0     H84366   5.463  10.291   8.326  0.1537  1.3433 -0.3583
  625MOL0     H84367   5.504  10.490   8.435 -0.2344 -0.4390 -2.3024
  625MOL0     H84368   5.653  10.419   8.367 -0.9973 -2.4833  0.1595
  625MOL0     H84369   5.666  10.320   8.617 -1.3328 -0.5203  0.9966
  625MOL0     H84370   5.542  10.441   8.655 -0.5973 -1.4077  0.0516
  625MOL0     H84371   5.833  10.477   8.564 -0.7029 -1.6223  0.0873
  625MOL0     H84372   5.758  10.527   8.722  1.9613 -1.3461 -0.0106
  625MOL0     H84373   5.657  10.873   8.548  0.4759 -0.5336  2.7240
  625MOL0     H84374   5.279  10.207   8.732  1.1563  0.1145 -0.8678
  625MOL0     H84375   5.045  10.125   8.730  2.0213  1.0955  0.0008
  626MOL0     O84376   5.373   9.275   7.316  0.0834 -0.3437 -0.4643
  626MOL0     C84377   5.447   9.295   7.221 -0.2402 -0.0729 -0.3826
  626MOL0     O84378   5.405   9.353   7.106  0.0879 -0.0551  0.4983
  626MOL0     C84379   5.274   9.377   7.081  0.3829 -0.0256 -0.1729
  626MOL0     C84380   5.242   9.491   7.005 -1.1014  0.5550  0.3250
  626MOL0     C84381   5.110   9.522   6.960 -0.0215 -0.2091 -0.5869
  626MOL0     C84382   5.003   9.443   6.997 -0.9862 -0.3954  1.3467
  626MOL0     O84383   4.879   9.487   6.960 -0.6643  0.1314  0.8599
  626MOL0     C84384   4.756   9.421   6.998 -0.3219  0.6508 -0.5465
  626MOL0     C84385   4.685   9.494   7.118 -0.2513  0.7211 -0.6274
  626MOL0     C84386   4.562   9.423   7.181 -0.0521  0.4622  0.6837
  626MOL0     C84387   4.457   9.356   7.088 -1.1062  0.1952  0.1380
  626MOL0     C84388   4.329   9.317   7.167  0.0630  0.2873 -0.6725
  626MOL0     C84389   4.253   9.448   7.207  0.3000  0.1816 -0.7482
  626MOL0     C84390   4.106   9.433   7.260  0.8153 -0.3523  0.1490
  626MOL0     C84391   4.027   9.345   7.166  0.5054 -0.1718  0.4786
  626MOL0     N84392   3.885   9.375   7.184  0.3435 -0.7053 -0.1229
  626MOL0     C84393   3.821   9.506   7.174  0.0266 -0.5385 -0.0246
  626MOL0     C84394   3.687   9.480   7.164  0.6047 -0.0248  0.3302
  626MOL0     C84395   3.579   9.578   7.153 -1.5749  0.0078 -0.1715
  626MOL0     C84396   3.446   9.517   7.116 -0.0786  0.9173 -0.2747
  626MOL0     C84397   3.334   9.620   7.112 -0.0669  0.2164 -0.5783
  626MOL0     C84398   3.201   9.550   7.078 -0.3751  0.3952 -0.5126
  626MOL0     O84399   3.185   9.516   6.939  1.0838  0.2096 -0.0038
  626MOL0     C84400   3.052   9.467   6.925 -0.6509 -0.1367  0.0938
  626MOL0     C84401   3.019   9.320   6.931  0.9209 -0.3222  0.6291
  626MOL0     C84402   2.882   9.283   6.920 -0.1833  0.2643 -0.0290
  626MOL0     C84403   2.864   9.128   6.917  0.0549  0.8647 -0.1242
  626MOL0     C84404   2.774   9.387   6.913 -0.0720  1.2857  0.3701
  626MOL0     C84405   2.629   9.349   6.908  0.5119  0.2124  1.2568
  626MOL0     O84406   2.539   9.447   6.876  0.4290 -0.4205  0.6153
  626MOL0     C84407   2.422   9.414   6.813  0.6548  0.2167 -0.6491
  626MOL0     C84408   2.322   9.510   6.816  0.0813  0.0912 -0.3729
  626MOL0     C84409   2.196   9.488   6.757  0.5490  0.0115 -0.0055
  626MOL0     C84410   2.167   9.371   6.701 -1.2019  0.2710  0.4436
  626MOL0     O84411   2.039   9.354   6.650  0.5985 -0.3532 -0.6200
  626MOL0     C84412   2.011   9.247   6.553  0.3395  0.0878 -0.6252
  626MOL0     C84413   1.868   9.269   6.501 -0.5567 -0.2086  0.7288
  626MOL0     C84414   1.807   9.143   6.451  0.0765 -0.5424  0.4726
  626MOL0     C84415   1.659   9.160   6.401 -0.6429 -0.3725  0.0025
  626MOL0     C84416   1.596   9.019   6.379  0.8158  0.3911  0.2659
  626MOL0     C84417   1.653   8.954   6.247 -0.1296  0.9820 -0.3481
  626MOL0     C84418   1.582   8.835   6.188  0.4939 -0.2719  0.3607
  626MOL0     C84419   1.594   8.817   6.040 -0.0064  0.5900 -0.0777
  626MOL0    Cl84420   1.492   8.681   5.993 -0.4742  0.1396  0.2558
  626MOL0     C84421   2.263   9.268   6.683 -0.0107  0.3786 -0.1331
  626MOL0     C84422   2.384   9.293   6.751 -0.7968  0.2271  1.4210
  626MOL0     O84423   2.601   9.233   6.943  0.5840 -0.0716 -0.3021
  626MOL0     C84424   2.814   9.515   6.919 -0.2566 -0.2599  0.6317
  626MOL0     C84425   2.951   9.564   6.911  0.8554  0.7669 -0.7340
  626MOL0     N84426   3.670   9.342   7.181  0.1028 -0.3609 -0.0237
  626MOL0     N84427   3.786   9.283   7.182 -0.1283 -0.0763  0.0682
  626MOL0     C84428   5.029   9.331   7.076 -0.6075  0.1279 -0.4665
  626MOL0     C84429   5.163   9.292   7.118 -0.0863 -0.3989 -0.0692
  626MOL0     C84430   5.581   9.240   7.233 -0.4407 -1.0862 -0.3800
  626MOL0     C84431   5.636   9.207   7.355  0.1244 -0.4515  0.2000
  626MOL0     C84432   5.770   9.163   7.363  0.4895  0.0790 -0.5858
  626MOL0     C84433   5.849   9.139   7.255  0.1838  0.0331  0.0177
  626MOL0     O84434   5.986   9.104   7.268 -0.8567  0.6365 -0.0192
  626MOL0     C84435   6.065   9.069   7.153  0.3521  0.1104  0.0936
  626MOL0     C84436   6.045   8.921   7.105  0.4624 -0.1822  0.1402
  626MOL0     C84437   6.072   8.818   7.205 -0.1506  0.3816 -0.2763
  626MOL0     C84438   6.219   8.779   7.205  0.0652  0.4798  0.3386
  626MOL0     C84439   6.250   8.681   7.097  0.1283  0.0612  0.3158
  626MOL0     C84440   6.281   8.608   7.002 -0.5007  0.0303 -0.2769
  626MOL0     C84441   5.789   9.172   7.131 -0.2762 -0.4336  0.5393
  626MOL0     C84442   5.663   9.219   7.124  0.0403 -0.6389 -1.0771
  626MOL0     H84443   5.333   9.547   6.987 -0.1368  0.6341  4.5145
  626MOL0     H84444   5.079   9.610   6.903 -0.1308 -0.0265 -0.2495
  626MOL0     H84445   4.695   9.423   6.907 -1.3235 -2.0774 -0.0501
  626MOL0     H84446   4.771   9.314   7.015 -0.0779  0.4457 -1.9152
  626MOL0     H84447   4.753   9.516   7.201  0.3373 -0.3310 -0.8115
  626MOL0     H84448   4.657   9.593   7.079  0.1757  0.5121 -1.4847
  626MOL0     H84449   4.587   9.342   7.250  1.6376  0.8889  0.6102
  626MOL0     H84450   4.504   9.493   7.241 -1.5954  1.0398 -1.3712
  626MOL0     H84451   4.436   9.418   7.000  0.4418  0.0405 -0.3705
  626MOL0     H84452   4.498   9.265   7.045  1.0798  1.6679 -1.1049
  626MOL0     H84453   4.271   9.252   7.101 -0.9461 -0.0493  0.5136
  626MOL0     H84454   4.332   9.251   7.254 -4.5601 -0.9962 -1.2664
  626MOL0     H84455   4.316   9.492   7.284  1.4173 -3.4466  0.5954
  626MOL0     H84456   4.251   9.525   7.129 -1.5156  0.5539 -0.3851
  626MOL0     H84457   4.115   9.385   7.357 -0.3839  1.0688  1.0133
  626MOL0     H84458   4.065   9.535   7.262  3.7456  0.9690 -1.0446
  626MOL0     H84459   4.040   9.238   7.183  3.2467  0.0958  0.5715
  626MOL0     H84460   4.066   9.363   7.066 -1.2959  0.1851 -0.2043
  626MOL0     H84461   3.862   9.604   7.153 -1.2802 -0.1537 -0.8663
  626MOL0     H84462   3.566   9.631   7.248  2.3438 -0.2435  0.6972
  626MOL0     H84463   3.604   9.644   7.069  1.1479 -2.4833 -1.5059
  626MOL0     H84464   3.408   9.438   7.182 -0.2142  0.9367 -0.3305
  626MOL0     H84465   3.455   9.467   7.020 -2.1064  0.6936 -0.3876
  626MOL0     H84466   3.350   9.696   7.036  0.0687 -1.4684 -2.3152
  626MOL0     H84467   3.323   9.662   7.212  2.0752 -1.3962  0.4467
  626MOL0     H84468   3.121   9.623   7.095  0.3027  1.1403 -0.4164
  626MOL0     H84469   3.188   9.465   7.145  1.6255  2.0037  2.1061
  626MOL0     H84470   3.102   9.251   6.931  0.3727 -1.0024  1.6858
  626MOL0     H84471   2.947   9.074   6.872  1.1441  0.8706  1.7962
  626MOL0     H84472   2.831   9.089   7.014 -1.8839 -1.7056 -1.6788
  626MOL0     H84473   2.785   9.091   6.852 -0.7577 -1.1890  1.9203
  626MOL0     H84474   2.348   9.602   6.867 -1.3977  1.6842 -2.3322
  626MOL0     H84475   2.133   9.576   6.763 -0.4503 -0.6552 -0.4980
  626MOL0     H84476   2.082   9.252   6.469  1.8120 -0.0946  0.5657
  626MOL0     H84477   2.023   9.152   6.604 -1.6417  0.6340  0.9878
  626MOL0     H84478   1.809   9.301   6.588 -0.3657  2.3638 -0.0251
  626MOL0     H84479   1.861   9.341   6.419  0.9256  2.4374  2.7580
  626MOL0     H84480   1.824   9.065   6.525 -1.8593  0.0946  1.6577
  626MOL0     H84481   1.867   9.119   6.363 -1.6845 -0.3785 -0.8394
  626MOL0     H84482   1.608   9.205   6.487  0.6363 -0.9352  1.0914
  626MOL0     H84483   1.658   9.218   6.309  2.0409 -1.9625 -1.1415
  626MOL0     H84484   1.488   9.027   6.364  0.7579  0.2405  0.5891
  626MOL0     H84485   1.625   8.950   6.459 -0.3413 -0.2705  0.1415
  626MOL0     H84486   1.648   9.032   6.171 -1.1611  0.1936 -1.1083
  626MOL0     H84487   1.762   8.939   6.251 -0.2743 -0.6854 -1.7671
  626MOL0     H84488   1.477   8.844   6.217  0.7202  1.5744  0.7018
  626MOL0     H84489   1.615   8.737   6.223  2.2514 -0.5916 -1.9568
  626MOL0     H84490   1.694   8.788   6.008 -0.2929 -0.1645 -0.3018
  626MOL0     H84491   1.566   8.915   5.999 -0.3356 -0.1519 -1.7114
  626MOL0     H84492   2.244   9.168   6.645  1.9594 -0.6428  1.3322
  626MOL0     H84493   2.466   9.221   6.743 -2.8101 -2.1770  1.2221
  626MOL0     H84494   2.739   9.594   6.913  1.4002  1.3305 -0.8944
  626MOL0     H84495   2.972   9.670   6.905 -2.5857  1.4992 -2.2936
  626MOL0     H84496   4.945   9.267   7.102  0.1853 -0.4974  0.6186
  626MOL0     H84497   5.166   9.211   7.191 -2.3690  1.1048  1.8452
  626MOL0     H84498   5.582   9.222   7.448 -1.2423 -0.1265 -0.6249
  626MOL0     H84499   5.804   9.142   7.464 -2.5738  0.0500  0.5561
  626MOL0     H84500   6.042   9.128   7.064 -0.8942 -0.8029 -0.2262
  626MOL0     H84501   6.172   9.079   7.175  0.4244 -0.7491  0.1684
  626MOL0     H84502   6.095   8.908   7.009 -0.0628 -1.3567  0.0069
  626MOL0     H84503   5.940   8.912   7.078  0.4622  1.6590 -0.5513
  626MOL0     H84504   6.019   8.726   7.179  1.8514 -1.2532  1.1379
  626MOL0     H84505   6.033   8.834   7.306 -1.6142  2.6432 -1.1053
  626MOL0     H84506   6.254   8.741   7.301  1.0515  2.4269  0.8088
  626MOL0     H84507   6.282   8.866   7.183 -0.8041  0.7305 -1.3880
  626MOL0     H84508   6.313   8.540   6.926 -3.6270 -0.6227 -1.1800
  626MOL0     H84509   5.841   9.150   7.038  2.4831  0.3275  1.7938
  626MOL0     H84510   5.615   9.248   7.032 -1.6157 -0.7676 -0.2911
  627MOL0     O84511   8.040   8.621   1.933  0.4769  0.3470 -0.5390
  627MOL0     C84512   8.027   8.500   1.966 -0.2351  0.5025  0.4896
  627MOL0     O84513   7.925   8.438   2.039 -0.3620  0.1425 -0.5432
  627MOL0     C84514   7.819   8.510   2.086  0.1427  0.4120 -0.4502
  627MOL0     C84515   7.757   8.460   2.205  0.3027 -0.3377 -0.6546
  627MOL0     C84516   7.661   8.533   2.274 -0.2460 -0.1500 -0.4645
  627MOL0     C84517   7.620   8.657   2.224  0.2568  0.7461  0.8057
  627MOL0     O84518   7.534   8.740   2.280  0.0800 -0.2828 -0.6724
  627MOL0     C84519   7.467   8.703   2.404 -0.4906  0.0646  0.5463
  627MOL0     C84520   7.544   8.741   2.526 -0.0018  0.3005 -1.1341
  627MOL0     C84521   7.456   8.702   2.659 -0.3196  0.2181 -0.0559
  627MOL0     C84522   7.540   8.725   2.799  0.3365  0.1071  1.1149
  627MOL0     C84523   7.465   8.676   2.926  0.5955  0.5889 -0.2391
  627MOL0     C84524   7.541   8.694   3.056  0.3526  0.5686 -0.4076
  627MOL0     C84525   7.488   8.601   3.169  0.5178  0.0076  0.0292
  627MOL0     C84526   7.345   8.657   3.211 -0.2954  0.0692  0.0330
  627MOL0     N84527   7.278   8.550   3.283 -0.4064  0.2098 -0.4820
  627MOL0     C84528   7.217   8.447   3.233 -0.5750  0.5021 -0.0139
  627MOL0     C84529   7.184   8.362   3.333  0.0538 -0.0414 -1.1018
  627MOL0     C84530   7.094   8.236   3.328 -0.0902 -0.9407  0.1684
  627MOL0     C84531   6.949   8.278   3.293  0.2400  0.7726  0.1427
  627MOL0     C84532   6.848   8.180   3.352  0.1245 -0.1946  0.6525
  627MOL0     C84533   6.706   8.230   3.346  0.2533 -0.2642  0.3513
  627MOL0     O84534   6.672   8.276   3.209  0.1522 -0.2803  0.0898
  627MOL0     C84535   6.556   8.351   3.205  0.5461  0.4016  0.2767
  627MOL0     C84536   6.529   8.474   3.268 -0.8493 -0.4956  0.1902
  627MOL0     C84537   6.403   8.543   3.255 -0.8900  0.0690  0.4259
  627MOL0     C84538   6.388   8.680   3.324 -0.8729  0.4836  0.3795
  627MOL0     C84539   6.298   8.470   3.189 -0.3386 -0.5366  0.6435
  627MOL0     C84540   6.160   8.526   3.175  0.1356  0.5833 -0.0055
  627MOL0     O84541   6.123   8.638   3.235  0.4612 -0.1299  0.3657
  627MOL0     C84542   5.987   8.675   3.226  0.4735 -0.1746  0.4762
  627MOL0     C84543   5.952   8.777   3.138 -0.3133 -0.9184  0.3641
  627MOL0     C84544   5.817   8.833   3.126  0.5641 -0.2204 -0.6436
  627MOL0     C84545   5.716   8.776   3.206  0.0413 -0.1222  0.3652
  627MOL0     O84546   5.585   8.819   3.213  0.1100  0.1186  0.4335
  627MOL0     C84547   5.562   8.953   3.159  0.4004 -0.5310 -0.0677
  627MOL0     C84548   5.433   9.002   3.224  0.5322  0.0398  0.4215
  627MOL0     C84549   5.304   8.946   3.163 -0.8082  0.0210 -1.0090
  627MOL0     C84550   5.177   8.968   3.249 -0.5346  0.2025  0.6294
  627MOL0     C84551   5.066   8.885   3.180  0.1959  0.8297 -0.0770
  627MOL0     C84552   4.939   8.904   3.258  0.1902 -0.1708 -0.5065
  627MOL0     C84553   4.814   8.834   3.213 -0.2228  0.7136  0.9947
  627MOL0     C84554   4.682   8.866   3.291 -0.0339 -0.2289 -0.6411
  627MOL0    Cl84555   4.548   8.801   3.194  0.2679  0.0687  0.3117
  627MOL0     C84556   5.753   8.664   3.283 -0.1825  0.5795 -0.4213
  627MOL0     C84557   5.884   8.621   3.303 -0.1796  0.2455  0.2857
  627MOL0     O84558   6.078   8.456   3.112  0.1527 -0.6962  0.1913
  627MOL0     C84559   6.318   8.344   3.137 -0.4745  0.4035 -0.0620
  627MOL0     C84560   6.446   8.287   3.131  0.2548  0.6610  1.0290
  627MOL0     N84561   7.238   8.413   3.451  0.4574 -0.5536 -0.6105
  627MOL0     N84562   7.296   8.531   3.418  0.4841  0.2784 -0.0675
  627MOL0     C84563   7.682   8.712   2.107  0.6102  0.3023  0.4853
  627MOL0     C84564   7.776   8.639   2.040 -0.8102  0.5529 -0.8295
  627MOL0     C84565   8.114   8.406   1.890 -1.1983 -0.1129  0.2881
  627MOL0     C84566   8.072   8.277   1.858 -0.8181 -0.2740  0.2405
  627MOL0     C84567   8.157   8.191   1.794  0.1506 -0.3126  0.3722
  627MOL0     C84568   8.278   8.227   1.743  0.1598 -0.3477  0.4349
  627MOL0     O84569   8.348   8.138   1.660 -0.8570 -0.6351 -0.3371
  627MOL0     C84570   8.480   8.175   1.601  0.2480  0.6464 -0.6735
  627MOL0     C84571   8.524   8.085   1.494 -1.2340 -0.0085  0.4591
  627MOL0     C84572   8.661   8.110   1.440 -0.7385 -0.2333  0.6414
  627MOL0     C84573   8.673   8.021   1.316  0.5331  0.2763 -0.6127
  627MOL0     C84574   8.773   8.078   1.228  0.1804 -0.0015 -0.0825
  627MOL0     C84575   8.850   8.127   1.147  1.3666 -0.0435  0.4696
  627MOL0     C84576   8.323   8.354   1.776  0.3087  0.2099  0.2571
  627MOL0     C84577   8.245   8.448   1.843  0.1916  0.1847 -0.8285
  627MOL0     H84578   7.794   8.371   2.256  0.3921  0.2880  0.4001
  627MOL0     H84579   7.630   8.497   2.372  0.8118  3.0318  1.1754
  627MOL0     H84580   7.376   8.765   2.403 -0.4415  0.1702 -1.6127
  627MOL0     H84581   7.433   8.600   2.391 -1.3425  0.6410 -2.4911
  627MOL0     H84582   7.638   8.685   2.525 -1.0236 -1.4969 -0.7521
  627MOL0     H84583   7.572   8.846   2.534  2.5234 -0.3635 -0.3016
  627MOL0     H84584   7.358   8.750   2.657 -1.6635 -2.3569  0.3122
  627MOL0     H84585   7.435   8.595   2.650 -0.3227 -0.0911  2.8013
  627MOL0     H84586   7.639   8.681   2.786  0.9475  2.0579 -1.8071
  627MOL0     H84587   7.555   8.832   2.809  2.0410  0.1682 -1.3021
  627MOL0     H84588   7.366   8.723   2.929  0.2521 -0.1151 -0.1925
  627MOL0     H84589   7.451   8.568   2.913  0.4617  0.4951  0.6022
  627MOL0     H84590   7.644   8.668   3.029  0.6064  4.1875 -3.8903
  627MOL0     H84591   7.537   8.798   3.089  0.1887 -0.2692  2.4715
  627MOL0     H84592   7.478   8.496   3.139  1.2722  0.3628 -1.5680
  627MOL0     H84593   7.557   8.601   3.254 -1.2931 -2.3557  1.6404
  627MOL0     H84594   7.278   8.692   3.132  3.1381  3.2757 -1.7948
  627MOL0     H84595   7.362   8.751   3.265 -2.3500  1.1528 -1.0892
  627MOL0     H84596   7.177   8.425   3.134  1.1878 -1.9624 -0.2585
  627MOL0     H84597   7.125   8.169   3.247 -1.2656  0.1701 -1.2485
  627MOL0     H84598   7.099   8.191   3.427  1.4574  1.4026  1.2438
  627MOL0     H84599   6.942   8.288   3.184  2.5094 -1.6574 -0.3360
  627MOL0     H84600   6.924   8.371   3.343  1.0498  0.5725  0.9371
  627MOL0     H84601   6.870   8.170   3.459  3.6688  3.2755  0.4561
  627MOL0     H84602   6.865   8.085   3.301 -0.2280  1.0020 -1.8409
  627MOL0     H84603   6.708   8.317   3.413  3.9127 -1.1779  1.6629
  627MOL0     H84604   6.638   8.152   3.381 -2.9278  0.2456 -3.8918
  627MOL0     H84605   6.620   8.513   3.313 -0.2029 -1.5121 -0.1848
  627MOL0     H84606   6.488   8.716   3.351 -1.4930 -0.3261  4.4446
  627MOL0     H84607   6.344   8.757   3.260  0.1902  0.3450 -0.5471
  627MOL0     H84608   6.331   8.675   3.418 -0.1171 -1.4850  0.7919
  627MOL0     H84609   6.038   8.830   3.099 -0.4324 -0.5965  0.5317
  627MOL0     H84610   5.797   8.924   3.070 -1.3087  1.3721  2.3278
  627MOL0     H84611   5.639   9.021   3.196  0.2143  1.3119 -2.7396
  627MOL0     H84612   5.551   8.976   3.052  1.1972 -0.2807 -0.1038
  627MOL0     H84613   5.452   8.982   3.330  4.6469 -0.9230 -0.3380
  627MOL0     H84614   5.430   9.110   3.212 -0.8707  0.1181  1.2760
  627MOL0     H84615   5.328   8.841   3.145  0.6772  0.2872 -0.7506
  627MOL0     H84616   5.293   8.981   3.060 -0.6540 -0.5330 -1.2176
  627MOL0     H84617   5.186   8.943   3.355 -2.3316  0.1065  0.7956
  627MOL0     H84618   5.153   9.075   3.244 -0.7722  0.1027 -1.0130
  627MOL0     H84619   5.085   8.777   3.181 -3.6283  0.0345  0.5808
  627MOL0     H84620   5.061   8.926   3.079  0.4998 -0.7318 -0.7583
  627MOL0     H84621   4.958   8.859   3.356 -0.7160 -0.3678 -0.4079
  627MOL0     H84622   4.929   9.011   3.281  3.3006 -0.4037  2.8806
  627MOL0     H84623   4.836   8.727   3.208 -0.4666  0.7079 -0.3236
  627MOL0     H84624   4.794   8.854   3.107 -0.7946  0.5149  1.0617
  627MOL0     H84625   4.678   8.975   3.304 -2.5777 -0.5846  3.2058
  627MOL0     H84626   4.680   8.816   3.388 -0.4339 -0.6798 -0.8738
  627MOL0     H84627   5.672   8.638   3.351 -1.1241  3.2020 -0.4452
  627MOL0     H84628   5.915   8.554   3.383  0.4242  0.0837 -0.0772
  627MOL0     H84629   6.239   8.296   3.081 -0.0420  0.2882 -0.5908
  627MOL0     H84630   6.452   8.192   3.078 -0.5099  2.0610 -1.7653
  627MOL0     H84631   7.645   8.809   2.074  2.0826  0.8943  0.5081
  627MOL0     H84632   7.821   8.680   1.951  1.3020  3.3085  1.3273
  627MOL0     H84633   7.967   8.254   1.877 -0.3661 -1.8110  1.0603
  627MOL0     H84634   8.126   8.093   1.759 -2.0593  0.3941  0.1493
  627MOL0     H84635   8.480   8.272   1.552  0.7472 -0.2194 -2.4693
  627MOL0     H84636   8.551   8.173   1.685  0.6789  3.5775 -0.8942
  627MOL0     H84637   8.452   8.087   1.411 -0.9316 -2.8112  0.0398
  627MOL0     H84638   8.525   7.982   1.530  1.6588  0.7418  2.8764
  627MOL0     H84639   8.737   8.083   1.513  0.2842 -1.9041 -0.9776
  627MOL0     H84640   8.669   8.215   1.410 -0.2804  0.0627  1.7531
  627MOL0     H84641   8.576   8.013   1.266 -1.5773  0.8024  3.0782
  627MOL0     H84642   8.695   7.919   1.349 -2.4581  0.1944  1.5266
  627MOL0     H84643   8.920   8.175   1.082 -0.6149  1.8800 -0.3834
  627MOL0     H84644   8.424   8.374   1.739  1.0084 -1.8955  0.8810
  627MOL0     H84645   8.278   8.549   1.867 -1.0065  0.3922  0.0815
  628MOL0     O84646   0.403   1.834   0.284 -0.2670 -0.6716 -0.2119
  628MOL0     C84647   0.432   1.715   0.283 -1.1631  0.3635 -0.5343
  628MOL0     O84648   0.359   1.612   0.234 -0.4706  0.3443 -0.1239
  628MOL0     C84649   0.227   1.642   0.203 -0.9150  0.0617 -1.0579
  628MOL0     C84650   0.206   1.710   0.089  0.9396  0.3260  0.1573
  628MOL0     C84651   0.077   1.761   0.060 -0.2554  0.8873  0.6447
  628MOL0     C84652  -0.033   1.738   0.157 -0.0204  0.1684  0.4599
  628MOL0     O84653  -0.159   1.782   0.128 -0.2725  0.5316  0.6218
  628MOL0     C84654  -0.246   1.685   0.092 -0.4329  0.4471  0.0131
  628MOL0     C84655  -0.387   1.743   0.088  0.5630 -0.3343  0.8634
  628MOL0     C84656  -0.420   1.804  -0.062  0.3438 -0.3449  0.0671
  628MOL0     C84657  -0.567   1.867  -0.050 -0.7317 -0.0717 -0.0779
  628MOL0     C84658  -0.676   1.768  -0.049 -0.7229 -0.0479 -0.8489
  628MOL0     C84659  -0.814   1.819  -0.088 -0.1739  1.0069 -0.1039
  628MOL0     C84660  -0.846   1.933   0.009 -0.1401 -0.4125 -0.5603
  628MOL0     C84661  -0.996   1.971  -0.014  0.1534 -0.3958  0.5820
  628MOL0     N84662  -1.045   2.058   0.098  0.5525 -0.3910 -0.0662
  628MOL0     C84663  -1.054   2.019   0.230  0.2153  0.7457  0.4253
  628MOL0     C84664  -1.126   2.120   0.281  0.1541  0.4662 -0.3735
  628MOL0     C84665  -1.173   2.124   0.419  0.1749 -0.0229  0.5039
  628MOL0     C84666  -1.283   2.022   0.448 -0.3753  0.0790 -0.8361
  628MOL0     C84667  -1.319   2.038   0.589  0.0701  0.6001 -0.7505
  628MOL0     C84668  -1.373   1.911   0.644 -0.1746  0.6483 -0.5057
  628MOL0     O84669  -1.494   1.867   0.580  0.8780 -0.2402 -0.6711
  628MOL0     C84670  -1.618   1.922   0.603 -0.3800  0.0673 -0.3724
  628MOL0     C84671  -1.698   1.939   0.487 -0.7135 -0.5898 -0.1856
  628MOL0     C84672  -1.837   1.980   0.487 -0.4782 -0.2045  0.2449
  628MOL0     C84673  -1.917   1.989   0.360  0.0947 -0.4140 -0.1896
  628MOL0     C84674  -1.900   2.003   0.611  0.1857 -0.2898 -0.1746
  628MOL0     C84675  -2.046   2.029   0.632  0.0819 -0.3681 -0.2400
  628MOL0     O84676  -2.073   2.088   0.756  0.7158  0.1094 -0.7668
  628MOL0     C84677  -2.196   2.136   0.764  0.0364 -1.0756 -0.0752
  628MOL0     C84678  -2.280   2.086   0.860  0.9396  0.4260  0.2091
  628MOL0     C84679  -2.413   2.145   0.869 -0.1870 -0.1541 -1.3905
  628MOL0     C84680  -2.453   2.251   0.790  0.1711 -0.6033 -0.3319
  628MOL0     O84681  -2.588   2.293   0.798  0.1941  0.3939  0.0464
  628MOL0     C84682  -2.633   2.387   0.698  0.5933  0.6408 -0.1992
  628MOL0     C84683  -2.792   2.398   0.715 -0.1498  0.2133 -0.1331
  628MOL0     C84684  -2.855   2.465   0.597 -0.1358  0.3907  0.7728
  628MOL0     C84685  -3.008   2.464   0.614 -1.0402 -0.4502  0.6598
  628MOL0     C84686  -3.078   2.495   0.482  0.2729 -0.3938 -0.2028
  628MOL0     C84687  -3.235   2.496   0.475  0.1369  0.8545 -0.0211
  628MOL0     C84688  -3.281   2.353   0.521  0.6649 -0.6037 -0.2479
  628MOL0     C84689  -3.432   2.327   0.503  0.7521 -0.4151 -0.7403
  628MOL0    Cl84690  -3.538   2.451   0.573 -0.4813  0.2434 -0.1717
  628MOL0     C84691  -2.357   2.303   0.699 -0.5679 -0.5296  0.0621
  628MOL0     C84692  -2.227   2.247   0.688 -0.2901  1.2269 -0.1052
  628MOL0     O84693  -2.127   1.974   0.548  0.1400 -0.8516 -0.1553
  628MOL0     C84694  -1.819   1.994   0.726  0.1949 -0.3259  0.7912
  628MOL0     C84695  -1.684   1.956   0.722  0.4644 -0.1178  0.2341
  628MOL0     N84696  -1.151   2.217   0.187  0.2233 -0.6196 -0.7140
  628MOL0     N84697  -1.107   2.172   0.071 -0.8520 -0.6902  0.5745
  628MOL0     C84698  -0.005   1.656   0.266  0.6980 -0.4833 -0.3380
  628MOL0     C84699   0.128   1.609   0.289  1.1214  0.5482  0.0674
  628MOL0     C84700   0.567   1.690   0.333  0.6824  0.4820  0.1098
  628MOL0     C84701   0.644   1.608   0.250 -0.0867  0.4771  0.1747
  628MOL0     C84702   0.772   1.568   0.292  0.3797  0.0011 -0.2502
  628MOL0     C84703   0.814   1.598   0.428 -0.5522 -0.2886  0.8414
  628MOL0     O84704   0.923   1.527   0.480 -0.5653 -0.6904  0.1482
  628MOL0     C84705   1.002   1.567   0.596  0.5885 -0.3644 -0.3408
  628MOL0     C84706   1.062   1.709   0.586 -0.5200  0.0514  0.4663
  628MOL0     C84707   1.116   1.754   0.721  0.0007  0.2535 -0.3908
  628MOL0     C84708   1.007   1.836   0.794 -0.2701  0.0594 -0.3755
  628MOL0     C84709   1.062   1.898   0.918 -0.1938 -0.4718 -0.1539
  628MOL0     C84710   1.121   1.934   1.019 -0.4239 -0.4867 -0.1399
  628MOL0     C84711   0.743   1.689   0.501  0.4871 -0.0912 -0.2202
  628MOL0     C84712   0.623   1.733   0.453  0.9468  0.2314 -0.8432
  628MOL0     H84713   0.296   1.723   0.030  1.7115 -0.6854  1.0734
  628MOL0     H84714   0.058   1.820  -0.029 -1.3284 -0.6513 -0.2066
  628MOL0     H84715  -0.213   1.658  -0.009  0.3398 -2.6387  0.9869
  628MOL0     H84716  -0.246   1.603   0.164 -0.2653 -1.9060 -2.4939
  628MOL0     H84717  -0.456   1.662   0.114 -0.7697  1.0813  1.9069
  628MOL0     H84718  -0.396   1.822   0.163 -0.5078 -2.1088  2.6987
  628MOL0     H84719  -0.341   1.876  -0.085  0.1026 -0.6110 -1.6898
  628MOL0     H84720  -0.418   1.726  -0.138  0.8697  0.0389 -0.3137
  628MOL0     H84721  -0.580   1.936   0.035  3.1042 -1.2418  1.6605
  628MOL0     H84722  -0.563   1.932  -0.138  1.7099  0.7129  0.5355
  628MOL0     H84723  -0.646   1.679  -0.105  1.7050 -0.4301  0.9376
  628MOL0     H84724  -0.671   1.728   0.052  4.9008 -0.7869 -1.0990
  628MOL0     H84725  -0.817   1.861  -0.189  1.0034 -0.7073 -0.9127
  628MOL0     H84726  -0.881   1.734  -0.074  2.5591 -0.8852  2.9253
  628MOL0     H84727  -0.838   1.888   0.108 -0.9365 -0.4031 -0.4844
  628MOL0     H84728  -0.782   2.022   0.002  1.9435 -1.6658  1.3281
  628MOL0     H84729  -1.058   1.882  -0.024 -2.0809  1.2529 -1.1877
  628MOL0     H84730  -1.001   2.021  -0.111 -0.1549 -1.5187  0.0066
  628MOL0     H84731  -1.015   1.926   0.271 -0.3291  0.7985  1.0759
  628MOL0     H84732  -1.098   2.087   0.489 -0.9702 -0.1275  1.7098
  628MOL0     H84733  -1.201   2.227   0.442 -1.0781 -0.4896  1.1505
  628MOL0     H84734  -1.250   1.919   0.433 -0.3101 -0.2253  1.1281
  628MOL0     H84735  -1.367   2.041   0.381 -1.4789  1.4903  0.8571
  628MOL0     H84736  -1.393   2.116   0.606  0.8879  1.1422  0.4721
  628MOL0     H84737  -1.230   2.060   0.648 -0.4735  1.2091 -0.1336
  628MOL0     H84738  -1.399   1.934   0.748  0.1966 -0.2029 -0.2196
  628MOL0     H84739  -1.306   1.825   0.636 -0.3383  0.5509 -0.8481
  628MOL0     H84740  -1.648   1.916   0.393 -0.8902 -3.9727  0.4470
  628MOL0     H84741  -2.006   1.925   0.361 -0.1399 -0.0868  0.6691
  628MOL0     H84742  -1.944   2.092   0.335 -1.6847 -1.2027 -1.7863
  628MOL0     H84743  -1.863   1.958   0.270 -1.0962 -4.5101  0.3061
  628MOL0     H84744  -2.244   2.005   0.922 -0.9117 -1.0800 -0.5643
  628MOL0     H84745  -2.481   2.104   0.943 -1.0573 -0.0367 -2.1015
  628MOL0     H84746  -2.592   2.485   0.722  1.0637 -0.2931  3.3050
  628MOL0     H84747  -2.604   2.343   0.602 -0.5187 -1.6607  0.4559
  628MOL0     H84748  -2.840   2.302   0.736  0.5702  0.0867  1.0460
  628MOL0     H84749  -2.798   2.453   0.810  0.3882 -1.6551  1.0381
  628MOL0     H84750  -2.824   2.410   0.508  0.4471 -1.9012  2.3119
  628MOL0     H84751  -2.837   2.572   0.583  0.4373 -0.0103 -2.1996
  628MOL0     H84752  -3.029   2.359   0.639 -1.2714 -0.7806 -0.8058
  628MOL0     H84753  -3.053   2.523   0.694  0.6186  0.1748  1.1749
  628MOL0     H84754  -3.049   2.430   0.399 -0.2607  1.3865 -1.8568
  628MOL0     H84755  -3.062   2.597   0.446 -0.1211  0.5436  2.1344
  628MOL0     H84756  -3.274   2.569   0.546 -1.3162 -0.6909  0.8312
  628MOL0     H84757  -3.267   2.514   0.372  2.8015  1.6322 -0.7978
  628MOL0     H84758  -3.252   2.337   0.625  1.4197  0.1253 -0.3295
  628MOL0     H84759  -3.235   2.272   0.464  2.2180 -1.4877  2.1070
  628MOL0     H84760  -3.453   2.231   0.552  0.4082  0.3843  0.7293
  628MOL0     H84761  -3.450   2.332   0.395  1.0673 -1.1511 -0.8314
  628MOL0     H84762  -2.383   2.390   0.639 -2.0589  1.3812  3.1768
  628MOL0     H84763  -2.159   2.290   0.615 -0.7087  0.7522 -0.7929
  628MOL0     H84764  -1.863   2.008   0.824 -5.1136  0.7323 -1.3793
  628MOL0     H84765  -1.630   1.954   0.815  0.8166  4.2445  0.3292
  628MOL0     H84766  -0.082   1.622   0.334  2.0244  0.8379  1.9784
  628MOL0     H84767   0.141   1.551   0.380  1.0691 -1.4982 -1.1756
  628MOL0     H84768   0.606   1.583   0.151 -0.7013  0.6766  0.3571
  628MOL0     H84769   0.822   1.500   0.223 -0.8984 -0.3447 -0.8760
  628MOL0     H84770   0.936   1.558   0.683  1.9629 -0.7053  0.7233
  628MOL0     H84771   1.084   1.496   0.613  0.5851 -0.0755  0.9773
  628MOL0     H84772   0.985   1.779   0.550  0.3882  1.3840  1.0177
  628MOL0     H84773   1.139   1.716   0.509 -0.1570 -0.6906  0.7507
  628MOL0     H84774   1.210   1.807   0.710  1.6294 -2.2366  0.5888
  628MOL0     H84775   1.147   1.670   0.784 -0.2524 -0.1732 -0.8281
  628MOL0     H84776   0.932   1.763   0.825 -0.9238 -0.8800 -3.8217
  628MOL0     H84777   0.971   1.917   0.731 -3.5543 -1.3754 -0.5234
  628MOL0     H84778   1.187   1.946   1.102  0.7726  1.1244 -1.2501
  628MOL0     H84779   0.780   1.713   0.600  1.1611 -2.4809  0.1793
  628MOL0     H84780   0.562   1.802   0.511  0.1219 -0.6028 -0.7064
  629MOL0     O84781   9.760  10.041   6.800 -0.0582 -0.5063 -0.2484
  629MOL0     C84782   9.858   9.968   6.809  0.9186 -0.1682 -0.6258
  629MOL0     O84783   9.864   9.836   6.772  0.5212 -0.1415  0.2375
  629MOL0     C84784   9.749   9.782   6.708  1.0038 -0.3393 -0.0913
  629MOL0     C84785   9.688   9.839   6.597 -0.4704 -0.4645  0.3779
  629MOL0     C84786   9.584   9.784   6.525 -0.8842  0.5974  0.4880
  629MOL0     C84787   9.526   9.665   6.584  0.2616  0.8511  0.1877
  629MOL0     O84788   9.421   9.601   6.531 -0.7964 -0.1028 -0.6182
  629MOL0     C84789   9.352   9.645   6.411  0.1615  0.0163 -0.1928
  629MOL0     C84790   9.237   9.553   6.391  1.1777 -0.0482  0.2329
  629MOL0     C84791   9.171   9.594   6.255 -0.1086 -0.1232 -1.1009
  629MOL0     C84792   9.053   9.508   6.235  0.0359  0.6139 -0.0327
  629MOL0     C84793   8.974   9.562   6.116  0.1870  0.8588 -0.5826
  629MOL0     C84794   8.846   9.482   6.086  0.4564  0.1190 -0.8052
  629MOL0     C84795   8.760   9.577   6.017 -0.0518 -0.4858  0.4755
  629MOL0     C84796   8.633   9.506   5.979 -0.1789  0.0960  0.8837
  629MOL0     N84797   8.548   9.522   6.092 -0.0361  0.1673 -0.7059
  629MOL0     C84798   8.478   9.428   6.155  0.3361 -0.2087 -0.7751
  629MOL0     C84799   8.391   9.486   6.238 -0.4292  0.0481 -0.3062
  629MOL0     C84800   8.290   9.411   6.323 -0.1516  0.2429  0.1129
  629MOL0     C84801   8.155   9.471   6.300 -0.0681  0.9009 -0.5778
  629MOL0     C84802   8.049   9.371   6.355 -0.2213  0.1225  0.1160
  629MOL0     C84803   7.905   9.394   6.312  0.0438  0.4443  0.1717
  629MOL0     O84804   7.895   9.389   6.170 -0.0753  0.2314  0.4967
  629MOL0     C84805   7.773   9.420   6.116 -0.5570  0.3993 -0.2133
  629MOL0     C84806   7.693   9.529   6.146 -0.5388  0.8447 -0.2470
  629MOL0     C84807   7.559   9.542   6.104  0.5732  0.0210  0.2214
  629MOL0     C84808   7.489   9.665   6.146 -0.1808 -0.1396  0.3912
  629MOL0     C84809   7.509   9.447   6.020  0.2635  0.5503  0.0569
  629MOL0     C84810   7.368   9.452   5.961 -0.1392  0.0986  0.7607
  629MOL0     O84811   7.262   9.514   6.022 -0.4639  0.1997 -0.5339
  629MOL0     C84812   7.137   9.512   5.981 -0.4935 -0.2052 -0.3083
  629MOL0     C84813   7.092   9.622   5.907  0.1474 -0.1708 -0.3888
  629MOL0     C84814   6.957   9.635   5.856 -0.4037  0.7130  0.2249
  629MOL0     C84815   6.868   9.533   5.885 -0.5337  0.8626 -0.1448
  629MOL0     O84816   6.728   9.527   5.856  0.9455  0.4648 -0.4087
  629MOL0     C84817   6.676   9.652   5.805 -0.7423  0.4540  0.3935
  629MOL0     C84818   6.524   9.656   5.793 -0.3595 -0.1142 -0.1275
  629MOL0     C84819   6.453   9.692   5.928  0.6668 -0.2610  0.3659
  629MOL0     C84820   6.291   9.683   5.919 -0.7174 -0.1223  0.1679
  629MOL0     C84821   6.227   9.807   5.852  1.6869 -0.4785  1.0963
  629MOL0     C84822   6.070   9.805   5.856 -0.0697 -0.0552 -0.1225
  629MOL0     C84823   6.002   9.793   5.998 -0.1824  0.1242  0.2243
  629MOL0     C84824   5.855   9.746   5.978  0.2427  0.6381  0.1543
  629MOL0    Cl84825   5.769   9.891   5.911  0.2270  0.0791  0.2813
  629MOL0     C84826   6.916   9.422   5.950  0.0850  0.7837  0.0967
  629MOL0     C84827   7.048   9.406   5.995 -0.6209  0.6107 -0.3575
  629MOL0     O84828   7.350   9.381   5.857  0.8316 -0.4951 -0.0837
  629MOL0     C84829   7.592   9.340   5.978 -0.0876  0.4037 -0.2249
  629MOL0     C84830   7.721   9.331   6.026  0.7360 -0.5187  0.2997
  629MOL0     N84831   8.394   9.622   6.228  0.2145 -0.0618 -0.5040
  629MOL0     N84832   8.489   9.638   6.139  0.1910  0.0348 -0.4601
  629MOL0     C84833   9.577   9.606   6.700  0.2085  0.1744 -0.6745
  629MOL0     C84834   9.686   9.672   6.764 -0.5258 -0.1973  0.1435
  629MOL0     C84835   9.988  10.025   6.838 -0.0632  0.7080  0.2003
  629MOL0     C84836  10.109   9.946   6.825  0.3742 -0.2871  0.2783
  629MOL0     C84837  10.239   9.998   6.838 -0.3684 -0.1569  0.8114
  629MOL0     C84838  10.253  10.134   6.863 -0.0805  0.6748 -0.4840
  629MOL0     O84839  10.374  10.195   6.897  0.6635  0.0654 -0.8306
  629MOL0     C84840  10.494  10.111   6.895  0.3942 -0.1812  0.4722
  629MOL0     C84841  10.517  10.021   7.016 -0.3776 -0.4421  0.7879
  629MOL0     C84842  10.537  10.106   7.140 -0.3322  0.2495 -0.1845
  629MOL0     C84843  10.410  10.131   7.231  0.2117  0.0015  0.1389
  629MOL0     C84844  10.341  10.011   7.270 -0.2324  0.9830 -0.0062
  629MOL0     C84845  10.292   9.897   7.296  0.0961 -0.7191 -0.0439
  629MOL0     C84846  10.132  10.207   6.893  0.1371  0.2428 -0.3681
  629MOL0     C84847  10.009  10.158   6.869  0.3246 -0.3630 -0.9182
  629MOL0     H84848   9.740   9.925   6.557 -0.1463  0.1317  2.0017
  629MOL0     H84849   9.544   9.836   6.439  2.0553  1.6745 -0.3679
  629MOL0     H84850   9.304   9.743   6.421 -2.9402 -1.4061 -0.1143
  629MOL0     H84851   9.417   9.641   6.323  1.2065 -1.0929  0.5969
  629MOL0     H84852   9.273   9.450   6.377  3.2681  0.6387  0.2848
  629MOL0     H84853   9.155   9.552   6.463 -0.5949  1.6248 -1.6240
  629MOL0     H84854   9.133   9.696   6.267 -0.6658 -0.4946  0.7543
  629MOL0     H84855   9.242   9.586   6.173  0.7745  1.5102 -0.5474
  629MOL0     H84856   9.086   9.406   6.216 -0.3009  0.3543  0.7166
  629MOL0     H84857   8.983   9.503   6.319  0.1510  4.0643  0.4478
  629MOL0     H84858   8.945   9.663   6.145 -0.8388  0.7787 -1.2644
  629MOL0     H84859   9.030   9.557   6.022  0.8314 -0.9269 -0.1347
  629MOL0     H84860   8.868   9.391   6.030  2.0718 -0.5378  0.7743
  629MOL0     H84861   8.806   9.445   6.181  0.5797  2.9403  0.4319
  629MOL0     H84862   8.744   9.674   6.066 -0.5806 -0.1580 -0.3169
  629MOL0     H84863   8.811   9.609   5.925  1.0266  1.3010  1.6407
  629MOL0     H84864   8.657   9.401   5.960  0.4867  0.4600 -0.3764
  629MOL0     H84865   8.578   9.562   5.903 -1.3115 -0.8625  0.9589
  629MOL0     H84866   8.467   9.320   6.142 -1.7490 -0.3389  1.3838
  629MOL0     H84867   8.300   9.304   6.305  0.3583  0.3571 -0.3246
  629MOL0     H84868   8.301   9.435   6.429 -2.5562  0.3627  0.3976
  629MOL0     H84869   8.147   9.485   6.192 -0.1817  0.4060 -0.6355
  629MOL0     H84870   8.138   9.571   6.341 -1.7600 -0.2724  1.8577
  629MOL0     H84871   8.046   9.380   6.464 -2.6196  1.6276  0.0026
  629MOL0     H84872   8.087   9.272   6.327 -1.0968 -0.2831  0.3094
  629MOL0     H84873   7.878   9.494   6.349 -1.2724  0.6526 -1.2712
  629MOL0     H84874   7.836   9.319   6.352 -0.3431  0.1916 -0.9572
  629MOL0     H84875   7.732   9.603   6.215 -1.2297  1.2517 -0.2753
  629MOL0     H84876   7.401   9.683   6.084 -1.5075 -0.4540  2.1115
  629MOL0     H84877   7.457   9.645   6.249 -1.3401 -3.5929 -0.4897
  629MOL0     H84878   7.561   9.747   6.152  2.8113 -2.5688  0.2368
  629MOL0     H84879   7.153   9.711   5.908 -1.3377  0.8873  0.7142
  629MOL0     H84880   6.930   9.724   5.800  1.1390  0.6055 -0.7529
  629MOL0     H84881   6.711   9.740   5.860  1.3860 -0.4737  0.6509
  629MOL0     H84882   6.705   9.652   5.699  1.0375 -0.9813  0.8323
  629MOL0     H84883   6.484   9.724   5.717 -0.3471  1.1195  0.9410
  629MOL0     H84884   6.492   9.553   5.771 -0.1876 -0.4583  1.1414
  629MOL0     H84885   6.495   9.785   5.969  1.3838 -0.7306  0.7148
  629MOL0     H84886   6.482   9.617   6.002  0.4716 -0.3270  0.3744
  629MOL0     H84887   6.246   9.593   5.875 -2.3200  0.6805  0.0785
  629MOL0     H84888   6.268   9.671   6.025  0.1398 -0.3054  0.3408
  629MOL0     H84889   6.255   9.819   5.747 -1.4799  2.5517  0.4460
  629MOL0     H84890   6.260   9.895   5.907  0.3221 -1.5262  3.7787
  629MOL0     H84891   6.036   9.897   5.807 -1.8892 -0.3803  0.4622
  629MOL0     H84892   6.043   9.718   5.796  0.4073 -0.0648 -0.3311
  629MOL0     H84893   5.999   9.889   6.050 -1.1925  1.2229 -1.7327
  629MOL0     H84894   6.065   9.721   6.051  0.5936  0.2797 -0.4598
  629MOL0     H84895   5.816   9.713   6.075  1.6186  0.2271  0.5869
  629MOL0     H84896   5.856   9.657   5.915 -0.9145 -0.1270  1.1822
  629MOL0     H84897   6.849   9.336   5.956  2.2632 -0.8959  2.2620
  629MOL0     H84898   7.073   9.322   6.057 -1.7769  1.0138  0.6953
  629MOL0     H84899   7.548   9.264   5.914 -1.5526  1.7178 -0.8359
  629MOL0     H84900   7.782   9.245   6.000  1.2821  0.2953 -1.2164
  629MOL0     H84901   9.523   9.520   6.740 -0.6677  0.2525 -1.6671
  629MOL0     H84902   9.727   9.631   6.856  0.0907  1.1019  0.4605
  629MOL0     H84903  10.106   9.839   6.809  0.8420 -0.2844  0.1710
  629MOL0     H84904  10.320   9.930   6.817  1.7584  1.9885  1.6011
  629MOL0     H84905  10.492  10.035   6.816 -2.4645 -0.6042  0.8553
  629MOL0     H84906  10.576  10.181   6.874 -0.1654  0.1424 -0.7744
  629MOL0     H84907  10.614   9.970   7.013  0.7433  1.3401  3.1440
  629MOL0     H84908  10.433   9.954   7.033 -0.4789  0.1960  3.2462
  629MOL0     H84909  10.591  10.197   7.113  1.1552 -0.5751 -0.0791
  629MOL0     H84910  10.598  10.045   7.208 -0.8891  0.1907  0.2694
  629MOL0     H84911  10.343  10.193   7.171  0.4678  0.4691  0.3312
  629MOL0     H84912  10.429  10.196   7.317  1.7150 -1.2059  0.7908
  629MOL0     H84913  10.265   9.802   7.339 -0.9884 -0.6186 -0.4657
  629MOL0     H84914  10.132  10.312   6.922 -1.0264  0.5551 -1.4205
  629MOL0     H84915   9.919  10.219   6.875  0.2847 -0.3192 -1.8505
  630MOL0     O84916  10.855   7.887   6.593 -0.2442  0.5416 -0.4041
  630MOL0     C84917  10.787   7.981   6.609  0.8944  0.2809 -0.1683
  630MOL0     O84918  10.656   7.984   6.580  0.5323  0.4335  0.5843
  630MOL0     C84919  10.589   7.884   6.507 -0.9544 -0.0256 -0.0017
  630MOL0     C84920  10.457   7.848   6.531 -0.4880 -0.2681 -0.7517
  630MOL0     C84921  10.399   7.755   6.450 -0.8793  0.7023  0.1521
  630MOL0     C84922  10.462   7.691   6.343  0.5893  0.6259 -0.5942
  630MOL0     O84923  10.397   7.589   6.271 -0.4503 -0.8063  0.2208
  630MOL0     C84924  10.460   7.530   6.158  0.0536  0.1976  1.3690
  630MOL0     C84925  10.360   7.455   6.066 -0.5372  0.0209  0.7472
  630MOL0     C84926  10.293   7.335   6.137 -0.1362 -0.7100  0.1144
  630MOL0     C84927  10.185   7.385   6.236 -0.1181  0.2865  0.6861
  630MOL0     C84928  10.101   7.262   6.267  0.4249  0.0367 -0.3091
  630MOL0     C84929   9.971   7.304   6.336  0.8496  0.0063  0.3490
  630MOL0     C84930   9.864   7.195   6.355  0.0303 -0.4111  0.0515
  630MOL0     C84931   9.739   7.246   6.432 -0.0853  0.3915  0.0035
  630MOL0     N84932   9.629   7.153   6.438 -0.9378 -0.3814  0.0356
  630MOL0     C84933   9.510   7.176   6.379  0.3123 -0.1066 -0.3310
  630MOL0     C84934   9.442   7.064   6.401  0.4184 -0.6138 -0.4329
  630MOL0     C84935   9.302   7.045   6.360 -0.1436 -0.0412 -0.5697
  630MOL0     C84936   9.210   7.118   6.460  0.3816  0.1624 -0.3929
  630MOL0     C84937   9.212   7.038   6.592  0.5995 -0.0673 -0.3063
  630MOL0     C84938   9.093   7.079   6.684  0.5404 -0.5340 -0.6800
  630MOL0     O84939   9.111   7.206   6.752 -0.2320  0.6975  0.6503
  630MOL0     C84940   9.037   7.229   6.861  0.6127  0.3681  0.0028
  630MOL0     C84941   8.907   7.182   6.883 -1.2061  0.8245 -0.3732
  630MOL0     C84942   8.842   7.197   7.006 -0.6349  0.3576  0.2514
  630MOL0     C84943   8.723   7.104   7.024 -0.1458 -0.5645 -0.5272
  630MOL0     C84944   8.892   7.283   7.105  0.1969  0.5764  0.5806
  630MOL0     C84945   8.810   7.313   7.221 -0.0381 -0.3617 -0.5167
  630MOL0     O84946   8.686   7.362   7.203 -0.1878  0.1738  0.2884
  630MOL0     C84947   8.590   7.358   7.300  0.0193 -0.4596 -0.2180
  630MOL0     C84948   8.471   7.286   7.275  0.6577  0.6771  0.5635
  630MOL0     C84949   8.357   7.300   7.365  0.3872 -0.3462 -0.3847
  630MOL0     C84950   8.356   7.391   7.468 -0.1649 -0.5960  0.2565
  630MOL0     O84951   8.246   7.413   7.546 -0.1702  0.4922 -0.1926
  630MOL0     C84952   8.221   7.543   7.586  0.4303 -1.8182 -0.3877
  630MOL0     C84953   8.075   7.549   7.643  0.4829 -0.2174  0.3277
  630MOL0     C84954   8.040   7.446   7.754  0.5198 -0.3451 -0.2138
  630MOL0     C84955   7.884   7.465   7.787 -0.8611  0.5381  0.1122
  630MOL0     C84956   7.854   7.380   7.913  0.4316 -0.6961 -0.4854
  630MOL0     C84957   7.695   7.388   7.945  0.4422 -0.8904  0.9889
  630MOL0     C84958   7.658   7.299   8.060  0.5004  0.2766 -0.1087
  630MOL0     C84959   7.675   7.370   8.194  0.6011 -0.1738 -0.2128
  630MOL0    Cl84960   7.549   7.498   8.232  0.1815  0.0574  0.3201
  630MOL0     C84961   8.482   7.454   7.492  0.1051 -0.8594  0.1880
  630MOL0     C84962   8.594   7.438   7.413 -0.1216 -0.1624 -0.7511
  630MOL0     O84963   8.865   7.277   7.328  0.2981 -0.6212 -0.1286
  630MOL0     C84964   9.017   7.337   7.084  0.3623 -0.8771  0.2342
  630MOL0     C84965   9.081   7.314   6.964  0.4089 -0.8186  0.0758
  630MOL0     N84966   9.524   6.974   6.464  0.8588 -0.5814 -0.0538
  630MOL0     N84967   9.636   7.037   6.493 -0.3364  0.5526  0.5408
  630MOL0     C84968  10.592   7.734   6.315  0.1662  0.0081  0.4227
  630MOL0     C84969  10.654   7.833   6.392  0.4897  1.0681 -0.3604
  630MOL0     C84970  10.841   8.111   6.648 -1.4970 -0.0274  0.2887
  630MOL0     C84971  10.983   8.118   6.665  0.1465  0.3581  0.2790
  630MOL0     C84972  11.038   8.243   6.698 -0.4040  0.5269 -0.0817
  630MOL0     C84973  10.960   8.357   6.725 -0.6332 -1.1280 -0.4804
  630MOL0     O84974  11.030   8.475   6.755 -0.2274  0.3273  0.2880
  630MOL0     C84975  10.980   8.549   6.863 -0.2012 -0.0659 -0.3480
  630MOL0     C84976  11.007   8.465   6.993 -0.5938 -0.1376 -0.5097
  630MOL0     C84977  11.154   8.484   7.034 -0.4832  0.2953  0.0990
  630MOL0     C84978  11.256   8.397   6.960  0.4027  0.7915  0.1732
  630MOL0     C84979  11.380   8.391   7.046  1.0687 -0.1758  0.1479
  630MOL0     C84980  11.476   8.402   7.109 -0.6572 -0.0181 -0.5454
  630MOL0     C84981  10.818   8.338   6.713 -1.5801 -0.4610 -0.0215
  630MOL0     C84982  10.757   8.220   6.671  0.0723  0.1868  0.4396
  630MOL0     H84983  10.398   7.883   6.615  0.2566 -0.6745 -0.0417
  630MOL0     H84984  10.299   7.716   6.471  0.4856 -2.0258  2.3046
  630MOL0     H84985  10.509   7.598   6.088 -0.2230 -0.9964 -0.0544
  630MOL0     H84986  10.538   7.462   6.193 -1.6814 -2.0246  1.1380
  630MOL0     H84987  10.284   7.520   6.023  0.3761  1.3453  1.0773
  630MOL0     H84988  10.417   7.408   5.985 -2.2487 -0.7470 -0.0661
  630MOL0     H84989  10.256   7.264   6.062  1.7628 -0.9720 -0.6389
  630MOL0     H84990  10.373   7.284   6.193  0.4751  2.8492  2.8879
  630MOL0     H84991  10.230   7.427   6.327 -4.7504  1.9852  2.5006
  630MOL0     H84992  10.128   7.467   6.191  1.8745  0.6693 -1.3121
  630MOL0     H84993  10.073   7.219   6.171 -0.2311  1.6939 -0.9073
  630MOL0     H84994  10.155   7.200   6.339  0.0529 -0.2587 -0.2796
  630MOL0     H84995  10.001   7.355   6.428 -1.1159  2.2374 -0.1480
  630MOL0     H84996   9.932   7.388   6.277  4.4006  1.1342 -0.6352
  630MOL0     H84997   9.837   7.152   6.258 -1.4216  2.7734 -1.1138
  630MOL0     H84998   9.913   7.112   6.406  0.7380  0.0613  0.1605
  630MOL0     H84999   9.697   7.342   6.398  1.1542  2.1619  3.0387
  630MOL0     H85000   9.761   7.258   6.539 -0.8219 -4.4119  0.8992
  630MOL0     H85001   9.461   7.257   6.324 -2.0451 -1.4095 -0.2778
  630MOL0     H85002   9.281   7.097   6.266  2.0814  3.6729  0.7459
  630MOL0     H85003   9.279   6.938   6.355  1.8030 -0.4946 -0.5490
  630MOL0     H85004   9.111   7.108   6.413  1.2348 -0.0458 -2.2338
  630MOL0     H85005   9.232   7.222   6.487 -0.5036  0.1270  0.5323
  630MOL0     H85006   9.308   7.045   6.644  1.7269 -1.5074 -2.0386
  630MOL0     H85007   9.196   6.932   6.568 -0.3642  0.3732 -1.7467
  630MOL0     H85008   9.079   7.003   6.761 -1.6300  0.2480 -0.2177
  630MOL0     H85009   9.006   7.079   6.617  2.3200 -1.3708 -3.1516
  630MOL0     H85010   8.866   7.114   6.808  2.0103 -0.2068 -1.3423
  630MOL0     H85011   8.682   7.099   7.125 -1.8510 -0.4162 -1.1841
  630MOL0     H85012   8.631   7.130   6.971 -2.2561 -1.2799  2.5156
  630MOL0     H85013   8.748   6.998   7.012  3.0418 -0.0206  0.4247
  630MOL0     H85014   8.460   7.218   7.191  1.1530  0.8224  0.3804
  630MOL0     H85015   8.269   7.241   7.339 -2.0663  1.8725  2.1491
  630MOL0     H85016   8.282   7.571   7.671  0.0189 -2.0111 -0.0250
  630MOL0     H85017   8.248   7.617   7.510  0.3257  0.0635  1.3383
  630MOL0     H85018   8.050   7.650   7.676  0.4557  0.5060 -1.7172
  630MOL0     H85019   8.008   7.531   7.558 -2.0895  2.1553  1.7022
  630MOL0     H85020   8.104   7.467   7.840 -0.2806 -2.9533  1.1305
  630MOL0     H85021   8.057   7.340   7.729  0.9880 -0.5937  1.1109
  630MOL0     H85022   7.871   7.573   7.804  2.1313  0.8274  1.1264
  630MOL0     H85023   7.823   7.424   7.707 -1.4058  1.4338  0.0489
  630MOL0     H85024   7.900   7.423   8.002  0.2790 -1.9799  0.2402
  630MOL0     H85025   7.891   7.278   7.899  1.4839 -0.4747  0.4760
  630MOL0     H85026   7.664   7.491   7.964 -0.2776 -0.9877  0.3830
  630MOL0     H85027   7.640   7.359   7.855 -2.7923  2.7846  1.5010
  630MOL0     H85028   7.730   7.217   8.060 -1.5734 -1.7034 -2.1368
  630MOL0     H85029   7.561   7.250   8.045 -0.0933  0.7008  2.0091
  630MOL0     H85030   7.776   7.411   8.194  1.5575 -2.3375  0.7200
  630MOL0     H85031   7.688   7.299   8.276  2.7308  2.2647  1.6999
  630MOL0     H85032   8.488   7.524   7.574  1.7030  1.2370 -1.6165
  630MOL0     H85033   8.689   7.488   7.426 -0.3265  0.7703 -2.5245
  630MOL0     H85034   9.040   7.409   7.162  0.5182  0.5194 -1.0624
  630MOL0     H85035   9.175   7.365   6.948 -1.0657  2.1637  0.3385
  630MOL0     H85036  10.659   7.694   6.240  0.4647  2.0463 -0.4629
  630MOL0     H85037  10.748   7.877   6.359  0.4632  2.9492  1.7878
  630MOL0     H85038  11.052   8.037   6.642 -0.6490 -0.3623  0.3754
  630MOL0     H85039  11.146   8.240   6.713 -0.7721  0.2150  3.3001
  630MOL0     H85040  11.020   8.651   6.862 -0.1866 -0.0502  0.4654
  630MOL0     H85041  10.873   8.568   6.850 -0.1290  1.5481  0.9987
  630MOL0     H85042  10.992   8.357   6.988  0.3547 -0.5354  2.9458
  630MOL0     H85043  10.944   8.499   7.075  0.0300 -0.9709  0.3296
  630MOL0     H85044  11.156   8.451   7.139  1.6301 -1.1459 -0.3236
  630MOL0     H85045  11.181   8.589   7.024 -0.3651  0.5482  2.4143
  630MOL0     H85046  11.271   8.445   6.862 -4.1271  1.0264 -0.6335
  630MOL0     H85047  11.232   8.295   6.929  2.2571  1.1293 -2.7458
  630MOL0     H85048  11.569   8.408   7.162 -1.1617  0.6755  0.2858
  630MOL0     H85049  10.760   8.428   6.731 -0.2593  0.3521  0.2844
  630MOL0     H85050  10.652   8.215   6.644 -0.0615  1.8821  0.5230
  631MOL0     O85051   4.957   7.507   0.665  0.3498  0.2364 -0.0538
  631MOL0     C85052   5.039   7.416   0.649 -0.2041  0.0735  0.2879
  631MOL0     O85053   5.010   7.292   0.642  0.3159 -0.0868 -0.0003
  631MOL0     C85054   4.881   7.264   0.646  0.2345 -0.1336 -0.1076
  631MOL0     C85055   4.794   7.303   0.539 -0.0487  0.8061 -0.2345
  631MOL0     C85056   4.651   7.291   0.542 -0.4532  0.5709  0.1066
  631MOL0     C85057   4.593   7.212   0.641 -0.5187  0.7701 -0.2893
  631MOL0     O85058   4.461   7.189   0.623 -0.0622 -0.2132  0.4213
  631MOL0     C85059   4.385   7.165   0.744 -0.1019  0.4433 -0.1437
  631MOL0     C85060   4.233   7.162   0.709  0.1100 -0.4037  0.2748
  631MOL0     C85061   4.175   7.299   0.680  0.0442 -0.0847  0.4496
  631MOL0     C85062   4.040   7.303   0.613 -1.1052  0.0944 -0.8714
  631MOL0     C85063   3.938   7.227   0.703 -0.6308  0.4429  1.2668
  631MOL0     C85064   3.794   7.240   0.638  0.0978  0.7230 -0.8201
  631MOL0     C85065   3.682   7.216   0.739 -0.4287  0.4566  0.1614
  631MOL0     C85066   3.566   7.150   0.682  0.1834  1.0207  0.2433
  631MOL0     N85067   3.478   7.085   0.769 -0.0296  1.2140  0.6698
  631MOL0     C85068   3.412   7.139   0.881  0.4600 -0.1331  0.5238
  631MOL0     C85069   3.349   7.030   0.937  0.7770 -0.1090 -0.7933
  631MOL0     C85070   3.246   7.033   1.045 -1.2173  0.1516 -0.3893
  631MOL0     C85071   3.101   7.005   0.993  0.3672  0.6701 -0.3439
  631MOL0     C85072   3.051   7.124   0.917  0.0865 -0.8719  0.1572
  631MOL0     C85073   2.898   7.109   0.872  0.1259  0.2024  0.2019
  631MOL0     O85074   2.798   7.135   0.970  0.0266  0.0643 -0.7236
  631MOL0     C85075   2.661   7.114   0.945 -0.8854  0.1148  0.3052
  631MOL0     C85076   2.616   7.068   0.819 -0.1710 -0.7372 -0.2137
  631MOL0     C85077   2.481   7.051   0.796  0.6948  0.7268  0.2068
  631MOL0     C85078   2.442   6.989   0.661  0.4389 -0.8258  0.0957
  631MOL0     C85079   2.381   7.078   0.895  0.2088  0.0621  0.1907
  631MOL0     C85080   2.231   7.083   0.872 -0.4957  0.2340 -0.3889
  631MOL0     O85081   2.149   7.121   0.978 -1.1269  0.3152 -0.0096
  631MOL0     C85082   2.017   7.141   0.957  0.2538 -0.3050 -0.2664
  631MOL0     C85083   1.918   7.043   0.988  0.4286 -0.6610 -0.6218
  631MOL0     C85084   1.786   7.049   0.938  0.3351  1.0043 -1.0935
  631MOL0     C85085   1.752   7.162   0.859 -0.1280  0.6649 -0.1316
  631MOL0     O85086   1.633   7.176   0.787 -0.8156  0.7820  0.6730
  631MOL0     C85087   1.515   7.127   0.856 -0.2697  0.3848  0.0215
  631MOL0     C85088   1.395   7.211   0.810  1.0179  0.1257 -0.1786
  631MOL0     C85089   1.273   7.200   0.901  1.0507  0.0640 -0.6578
  631MOL0     C85090   1.147   7.269   0.851  0.5908 -0.1929  0.5335
  631MOL0     C85091   1.043   7.287   0.967 -0.7964 -0.4889 -0.0143
  631MOL0     C85092   0.979   7.166   1.013  0.6098 -0.1633  0.7052
  631MOL0     C85093   0.900   7.102   0.897  0.0916 -1.3371 -0.5103
  631MOL0     C85094   0.797   7.009   0.962 -0.1822 -0.4648 -0.4550
  631MOL0    Cl85095   0.653   6.971   0.866 -0.6864  0.5446 -0.2073
  631MOL0     C85096   1.848   7.260   0.840 -0.0120  0.2542  1.1779
  631MOL0     C85097   1.979   7.257   0.885  0.3886  0.0949  0.0608
  631MOL0     O85098   2.190   7.041   0.769  0.2849  0.0546 -0.3705
  631MOL0     C85099   2.431   7.120   1.024 -0.6716 -0.0867  0.5362
  631MOL0     C85100   2.562   7.140   1.040 -0.1742 -0.2537 -0.3678
  631MOL0     N85101   3.376   6.921   0.862  0.5835  0.7807  0.1754
  631MOL0     N85102   3.444   6.950   0.755  0.4335  0.0257 -0.5700
  631MOL0     C85103   4.681   7.162   0.748 -0.5831  0.4673  0.7471
  631MOL0     C85104   4.817   7.203   0.755  0.7209 -0.2548  0.1667
  631MOL0     C85105   5.178   7.459   0.658  0.0749  0.3266  0.1877
  631MOL0     C85106   5.216   7.597   0.680  0.0211  0.6756 -0.1979
  631MOL0     C85107   5.351   7.629   0.682 -0.6001  0.0586 -0.2333
  631MOL0     C85108   5.456   7.533   0.692  0.5949  0.3615 -0.8075
  631MOL0     O85109   5.592   7.553   0.707  0.4164 -0.2083 -0.4389
  631MOL0     C85110   5.642   7.689   0.690  0.2459  1.0731 -0.7805
  631MOL0     C85111   5.789   7.700   0.636  0.7739  0.3044  0.5691
  631MOL0     C85112   5.889   7.641   0.746  0.1652  0.1063  0.1921
  631MOL0     C85113   6.025   7.713   0.759  0.9075 -0.4829 -0.3810
  631MOL0     C85114   6.102   7.700   0.633 -0.6787  0.2172 -0.1631
  631MOL0     C85115   6.185   7.687   0.545 -0.2540  0.0233  0.8483
  631MOL0     C85116   5.412   7.395   0.678  0.2038  0.3555  0.7189
  631MOL0     C85117   5.281   7.364   0.654 -0.3032  0.5371 -0.3990
  631MOL0     H85118   4.833   7.358   0.455  0.4887  3.0652  1.3977
  631MOL0     H85119   4.588   7.322   0.459 -0.1160  0.0383 -0.3495
  631MOL0     H85120   4.409   7.067   0.784 -2.9549 -0.3253 -0.1322
  631MOL0     H85121   4.406   7.238   0.823 -1.9593 -0.3713  1.1638
  631MOL0     H85122   4.212   7.100   0.622 -1.6533 -0.3501  0.6386
  631MOL0     H85123   4.182   7.110   0.790 -0.3140 -0.4262 -0.0066
  631MOL0     H85124   4.156   7.340   0.780 -0.7926 -0.3953  0.4278
  631MOL0     H85125   4.251   7.355   0.625  0.9372 -2.1836 -0.5864
  631MOL0     H85126   4.013   7.409   0.616  1.1779  0.7149  1.2830
  631MOL0     H85127   4.049   7.275   0.507 -0.7386 -1.8006 -0.3696
  631MOL0     H85128   3.961   7.120   0.694 -0.0144  0.6966 -0.5893
  631MOL0     H85129   3.946   7.261   0.806  2.5615  0.1988  1.1920
  631MOL0     H85130   3.789   7.337   0.587  1.0663 -0.1550 -2.6568
  631MOL0     H85131   3.779   7.161   0.564 -1.6020  1.1739 -1.0021
  631MOL0     H85132   3.714   7.153   0.822 -2.0675 -1.3024 -0.4785
  631MOL0     H85133   3.650   7.312   0.780  1.7777  1.3243  0.0076
  631MOL0     H85134   3.613   7.085   0.607  3.7842  2.8665  0.6464
  631MOL0     H85135   3.508   7.228   0.631 -0.4800  1.2877  1.3868
  631MOL0     H85136   3.425   7.241   0.917  3.7170 -0.0442 -0.5409
  631MOL0     H85137   3.274   6.952   1.112  0.1808  0.1712 -0.9205
  631MOL0     H85138   3.251   7.121   1.110  0.1923 -0.1370 -0.0721
  631MOL0     H85139   3.033   6.991   1.077 -0.0814 -1.1554 -0.9746
  631MOL0     H85140   3.100   6.913   0.933  0.7559 -0.9113  1.9589
  631MOL0     H85141   3.116   7.144   0.832 -0.2365 -0.0522  0.0916
  631MOL0     H85142   3.069   7.212   0.979  1.7684 -0.9172 -0.2446
  631MOL0     H85143   2.884   7.008   0.832  1.4548  0.0870 -0.0250
  631MOL0     H85144   2.882   7.178   0.789  1.7660  0.5126  0.1065
  631MOL0     H85145   2.688   7.054   0.739  0.4300 -1.6268  0.4606
  631MOL0     H85146   2.523   6.952   0.598  1.1079 -0.1625  0.5435
  631MOL0     H85147   2.376   6.903   0.677 -2.8801  1.7800  1.3153
  631MOL0     H85148   2.384   7.065   0.610 -2.9430 -2.0003  1.8520
  631MOL0     H85149   1.949   6.958   1.047 -0.0677 -1.4393 -1.4513
  631MOL0     H85150   1.718   6.968   0.959  0.2676  0.9577 -1.4844
  631MOL0     H85151   1.498   7.022   0.831 -0.1936  0.9064 -2.5199
  631MOL0     H85152   1.512   7.121   0.965 -1.3394  2.5129  0.1564
  631MOL0     H85153   1.420   7.316   0.827  1.2014 -0.0128  0.4392
  631MOL0     H85154   1.378   7.199   0.702  0.2332  1.2269 -0.1990
  631MOL0     H85155   1.295   7.228   1.004  2.2969 -0.1486 -0.8580
  631MOL0     H85156   1.244   7.094   0.896  1.4161 -0.0488 -0.3438
  631MOL0     H85157   1.172   7.366   0.808 -0.0116 -0.0068  0.5902
  631MOL0     H85158   1.099   7.229   0.761 -2.6715  3.4407  0.3879
  631MOL0     H85159   0.963   7.351   0.929 -0.8808  0.8283  2.2050
  631MOL0     H85160   1.096   7.334   1.050  1.1931  1.2955 -2.1209
  631MOL0     H85161   1.051   7.093   1.053 -1.8180 -2.1800  1.6890
  631MOL0     H85162   0.912   7.203   1.090  0.3575 -0.9825  0.8946
  631MOL0     H85163   0.968   7.044   0.835  1.2193 -0.4414 -0.1473
  631MOL0     H85164   0.855   7.176   0.831 -1.0234 -1.1788  0.3895
  631MOL0     H85165   0.761   7.051   1.056  0.5781  1.4345 -0.9650
  631MOL0     H85166   0.852   6.921   0.996 -0.8361 -0.8638 -0.4218
  631MOL0     H85167   1.814   7.349   0.788 -2.7450 -0.2821  1.8871
  631MOL0     H85168   2.051   7.326   0.841 -0.8059  1.2909 -0.0911
  631MOL0     H85169   2.371   7.159   1.105  2.5954 -1.2818  3.8067
  631MOL0     H85170   2.600   7.172   1.136  0.0017 -2.3224  0.2978
  631MOL0     H85171   4.633   7.106   0.827 -2.1443 -2.1888 -1.8754
  631MOL0     H85172   4.871   7.178   0.846 -1.2247 -1.3428  1.0763
  631MOL0     H85173   5.138   7.670   0.697 -1.0056 -0.7087  1.4019
  631MOL0     H85174   5.389   7.731   0.691 -0.0186 -0.3418  3.1949
  631MOL0     H85175   5.583   7.745   0.616  0.5680  1.5037 -0.7161
  631MOL0     H85176   5.614   7.736   0.785 -3.5293  0.9097 -1.6420
  631MOL0     H85177   5.817   7.803   0.611  0.0963  0.2247 -0.5643
  631MOL0     H85178   5.807   7.648   0.542  0.8222 -3.8305  2.6464
  631MOL0     H85179   5.903   7.537   0.713 -0.9433  0.2468 -0.7820
  631MOL0     H85180   5.838   7.647   0.842 -0.2673  3.8329 -0.1280
  631MOL0     H85181   6.083   7.662   0.837 -2.8829 -2.7869  1.2041
  631MOL0     H85182   6.000   7.814   0.793  1.9645  0.1841 -1.4987
  631MOL0     H85183   6.262   7.672   0.472  0.5485 -0.8076  1.8444
  631MOL0     H85184   5.472   7.306   0.692 -0.6865 -0.8566 -2.4376
  631MOL0     H85185   5.247   7.262   0.636  2.1690 -0.5877  0.8671
  632MOL0     O85186  11.022   8.700   5.515 -0.0522  0.1338  0.1069
  632MOL0     C85187  11.060   8.590   5.555 -0.2977  0.1530  0.4298
  632MOL0     O85188  10.997   8.470   5.533  0.3633  0.3114 -0.3947
  632MOL0     C85189  10.866   8.465   5.481  0.0837 -0.3370 -0.5908
  632MOL0     C85190  10.841   8.381   5.373 -1.2489 -0.1939 -0.3385
  632MOL0     C85191  10.705   8.354   5.338 -0.4417 -0.7495  0.2591
  632MOL0     C85192  10.597   8.429   5.381 -0.8278 -0.8846 -0.0376
  632MOL0     O85193  10.473   8.412   5.324  0.3975  0.3287 -0.4252
  632MOL0     C85194  10.367   8.505   5.351  0.2826 -0.1927 -0.2327
  632MOL0     C85195  10.245   8.462   5.275 -0.7130 -0.5630  0.8921
  632MOL0     C85196  10.119   8.542   5.316  0.3270  0.0135  0.0698
  632MOL0     C85197  10.121   8.687   5.285  0.1458  0.0190 -0.0193
  632MOL0     C85198   9.985   8.759   5.318  0.6288  0.8998 -0.0218
  632MOL0     C85199   9.869   8.737   5.236 -0.1955 -0.0807  0.6015
  632MOL0     C85200   9.743   8.822   5.281 -0.1508  0.6129  0.0393
  632MOL0     C85201   9.614   8.801   5.195 -0.9321  1.5599 -0.7566
  632MOL0     N85202   9.616   8.887   5.080 -0.1742  0.5223 -0.5333
  632MOL0     C85203   9.537   8.888   4.973  0.6668 -0.3672 -0.1440
  632MOL0     C85204   9.572   8.997   4.897 -0.3495  0.5694  0.1161
  632MOL0     C85205   9.506   9.030   4.773 -0.6277  0.6313  0.1864
  632MOL0     C85206   9.359   9.041   4.792 -0.8559 -0.6053  0.3008
  632MOL0     C85207   9.298   9.101   4.668  0.2763 -0.6084  0.6128
  632MOL0     C85208   9.143   9.100   4.660 -0.4027  0.8899 -0.5813
  632MOL0     O85209   9.109   8.952   4.656  0.0267 -0.4205 -0.1668
  632MOL0     C85210   8.974   8.921   4.673  0.9214 -0.1509  0.2026
  632MOL0     C85211   8.942   8.783   4.678 -0.1704  0.8354  0.4159
  632MOL0     C85212   8.808   8.740   4.711  0.0663  0.7590  0.3737
  632MOL0     C85213   8.783   8.591   4.707  0.1877  0.1539  1.2309
  632MOL0     C85214   8.709   8.836   4.737  0.6263 -0.2582 -0.5755
  632MOL0     C85215   8.568   8.805   4.779  0.8792 -0.0856 -0.9647
  632MOL0     O85216   8.477   8.900   4.747 -0.3822  0.5989  0.4575
  632MOL0     C85217   8.348   8.888   4.797  0.9422 -0.1732  0.6857
  632MOL0     C85218   8.293   8.991   4.867 -0.3002  0.1579 -0.1539
  632MOL0     C85219   8.156   8.982   4.896 -0.2250 -0.0987 -0.0597
  632MOL0     C85220   8.075   8.875   4.865  0.2994 -0.1245  0.2593
  632MOL0     O85221   7.938   8.886   4.868 -0.0839 -0.1462 -0.3437
  632MOL0     C85222   7.860   8.892   4.745 -0.1249 -0.0983  0.0135
  632MOL0     C85223   7.899   9.009   4.656 -0.0370 -0.0598 -0.6146
  632MOL0     C85224   7.985   8.957   4.539  0.4275 -0.1826  0.3113
  632MOL0     C85225   7.997   9.060   4.424  0.1606  0.3359 -1.1526
  632MOL0     C85226   8.091   9.175   4.433 -0.3210 -0.1259 -0.5293
  632MOL0     C85227   8.237   9.127   4.429  0.5697 -0.6593 -0.4639
  632MOL0     C85228   8.332   9.239   4.478  0.3480 -0.0472 -0.1095
  632MOL0     C85229   8.332   9.372   4.403 -0.8230 -0.0652  0.1090
  632MOL0    Cl85230   8.367   9.350   4.222 -0.0475 -0.0504  0.2400
  632MOL0     C85231   8.135   8.771   4.793  0.6233 -0.8163 -0.2964
  632MOL0     C85232   8.266   8.776   4.752 -0.6735 -0.2186 -0.1105
  632MOL0     O85233   8.555   8.710   4.856  0.0527  0.4133  0.2979
  632MOL0     C85234   8.737   8.971   4.722  0.1947 -0.5609  0.5258
  632MOL0     C85235   8.869   9.011   4.693 -0.0520  0.0592 -0.5325
  632MOL0     N85236   9.674   9.060   4.958  0.4349 -0.0750 -0.0859
  632MOL0     N85237   9.703   8.996   5.063 -0.9674  0.9610  0.5648
  632MOL0     C85238  10.630   8.529   5.478  0.2982  0.2908 -0.1059
  632MOL0     C85239  10.759   8.546   5.528 -1.0346 -0.1656  0.1521
  632MOL0     C85240  11.201   8.590   5.598 -0.4637  0.7208 -1.3590
  632MOL0     C85241  11.263   8.699   5.656 -0.1692 -0.0761 -0.4276
  632MOL0     C85242  11.401   8.700   5.685 -0.2101  0.3904 -0.1292
  632MOL0     C85243  11.471   8.584   5.695  0.0098  0.3580  0.7165
  632MOL0     O85244  11.601   8.568   5.728 -1.2397  0.5697 -0.4145
  632MOL0     C85245  11.681   8.676   5.780  0.4344  0.4318 -0.0089
  632MOL0     C85246  11.758   8.737   5.661 -0.0414  0.3304  0.1726
  632MOL0     C85247  11.893   8.787   5.706 -0.0689  0.2740  0.0908
  632MOL0     C85248  11.991   8.781   5.592 -0.1362  0.5449 -0.6928
  632MOL0     C85249  12.085   8.890   5.586  0.1722  0.0180 -0.5214
  632MOL0     C85250  12.158   8.985   5.565  0.3946  0.3715 -0.8809
  632MOL0     C85251  11.403   8.462   5.658 -0.3575 -1.3244  0.2006
  632MOL0     C85252  11.274   8.469   5.613 -0.4591  0.2005  0.0105
  632MOL0     H85253  10.925   8.322   5.339 -0.8057  0.4833 -0.4576
  632MOL0     H85254  10.681   8.289   5.254 -0.4215  0.7898 -0.9997
  632MOL0     H85255  10.344   8.509   5.458 -3.0970  0.7040 -0.8753
  632MOL0     H85256  10.393   8.608   5.327  0.7360 -0.6184 -1.6135
  632MOL0     H85257  10.260   8.468   5.167 -1.7001 -1.5287  0.6856
  632MOL0     H85258  10.237   8.355   5.297 -0.6237 -0.4839  1.3125
  632MOL0     H85259  10.033   8.503   5.262 -0.4959 -0.5149  1.6950
  632MOL0     H85260  10.098   8.524   5.422 -3.1662  1.0623 -0.3139
  632MOL0     H85261  10.195   8.732   5.353  0.2419  1.7872 -1.2217
  632MOL0     H85262  10.160   8.708   5.185  0.5539  2.7484  0.6221
  632MOL0     H85263   9.957   8.734   5.420 -1.6809 -0.3025 -0.8896
  632MOL0     H85264  10.002   8.867   5.312  1.4719  0.7112 -1.8596
  632MOL0     H85265   9.888   8.767   5.133  0.1853 -1.3532  0.2735
  632MOL0     H85266   9.832   8.635   5.221 -0.9059  0.5227 -2.4576
  632MOL0     H85267   9.713   8.797   5.383 -0.3531  2.2880  0.4255
  632MOL0     H85268   9.770   8.928   5.290 -0.5193  0.7870 -0.7773
  632MOL0     H85269   9.535   8.835   5.263  0.6893 -0.0907  2.1677
  632MOL0     H85270   9.611   8.697   5.164  0.8681  1.8173 -1.9179
  632MOL0     H85271   9.463   8.815   4.944 -0.6796  0.4608  1.0447
  632MOL0     H85272   9.539   9.126   4.732  0.9379  0.3932  0.8397
  632MOL0     H85273   9.545   8.964   4.695 -0.4317  0.1595  0.6853
  632MOL0     H85274   9.330   9.089   4.886 -0.8576  0.2830 -0.1362
  632MOL0     H85275   9.306   8.946   4.803 -1.3628 -0.3630 -0.0598
  632MOL0     H85276   9.340   9.056   4.578 -4.0249  1.7312 -2.9658
  632MOL0     H85277   9.322   9.207   4.660 -1.4558 -0.3035 -1.4964
  632MOL0     H85278   9.108   9.160   4.576 -0.0729  0.1264 -1.2760
  632MOL0     H85279   9.094   9.142   4.749  1.5395  2.0228  0.0413
  632MOL0     H85280   9.025   8.718   4.653 -0.6388  1.0118 -1.7822
  632MOL0     H85281   8.677   8.577   4.685  0.0751  2.4919  0.0508
  632MOL0     H85282   8.837   8.549   4.622 -2.1210 -2.6593  1.0187
  632MOL0     H85283   8.799   8.536   4.801 -0.2836  1.1738  1.9238
  632MOL0     H85284   8.351   9.080   4.889 -0.5535  0.5365 -0.9674
  632MOL0     H85285   8.108   9.070   4.938 -2.5730 -0.0220 -2.6132
  632MOL0     H85286   7.852   8.797   4.692  1.0707 -0.2686  0.0963
  632MOL0     H85287   7.759   8.912   4.780  0.2288  0.0253  1.0011
  632MOL0     H85288   7.811   9.051   4.606  0.3306  3.1777  1.1584
  632MOL0     H85289   7.950   9.089   4.711  0.7122 -0.8201 -0.1745
  632MOL0     H85290   7.941   8.866   4.497  2.0575 -0.8902  0.0413
  632MOL0     H85291   8.085   8.934   4.579 -0.2227 -1.0630  1.4819
  632MOL0     H85292   8.010   9.017   4.325 -1.5462 -1.2029 -0.7592
  632MOL0     H85293   7.895   9.100   4.420 -1.4586 -3.2931 -0.4247
  632MOL0     H85294   8.069   9.225   4.528 -2.1140  0.7527 -1.3454
  632MOL0     H85295   8.071   9.248   4.354  1.8311 -1.0540 -2.0169
  632MOL0     H85296   8.253   9.037   4.489  0.8578 -0.1302  0.2692
  632MOL0     H85297   8.258   9.098   4.325  0.1209 -2.3498 -0.1053
  632MOL0     H85298   8.435   9.201   4.482 -0.4851 -2.3206  1.6898
  632MOL0     H85299   8.313   9.249   4.585 -0.1208 -0.5311 -0.1452
  632MOL0     H85300   8.402   9.441   4.452 -0.7993 -0.1699  0.2221
  632MOL0     H85301   8.230   9.413   4.401 -0.6889  0.2539 -0.9407
  632MOL0     H85302   8.069   8.693   4.754 -1.3718  1.3898 -1.6140
  632MOL0     H85303   8.300   8.698   4.684 -0.2328  1.2534 -1.6563
  632MOL0     H85304   8.655   9.041   4.732 -0.5830 -0.9941 -2.1952
  632MOL0     H85305   8.895   9.116   4.691 -0.6314  0.2248  0.0779
  632MOL0     H85306  10.559   8.593   5.528 -0.5874 -2.6036  2.7056
  632MOL0     H85307  10.769   8.614   5.612  0.9970 -2.1224  1.6123
  632MOL0     H85308  11.204   8.791   5.661 -0.6314 -0.3775 -0.2749
  632MOL0     H85309  11.452   8.794   5.703  0.0202 -0.1208  2.1424
  632MOL0     H85310  11.620   8.753   5.828  1.6445  1.8796 -0.6925
  632MOL0     H85311  11.757   8.641   5.850 -0.1471  3.3436  2.2963
  632MOL0     H85312  11.686   8.803   5.612  2.0451 -1.2974 -6.0892
  632MOL0     H85313  11.783   8.658   5.590 -0.1254  1.7909 -1.5668
  632MOL0     H85314  11.933   8.726   5.788  1.6289  1.5316  0.2472
  632MOL0     H85315  11.893   8.884   5.758  2.1396 -1.0048  2.7839
  632MOL0     H85316  11.928   8.771   5.503 -1.6870  0.1117  0.4089
  632MOL0     H85317  12.052   8.691   5.604 -0.5125  0.5868  2.0753
  632MOL0     H85318  12.199   9.074   5.521  1.9292 -0.4006 -1.1208
  632MOL0     H85319  11.462   8.371   5.651 -1.6875 -2.0801 -1.7607
  632MOL0     H85320  11.246   8.375   5.566 -0.3266  1.4656 -2.8287
  633MOL0     O85321   9.124   4.968   3.147  0.0094  0.1644 -0.3715
  633MOL0     C85322   9.200   4.926   3.235  0.0422 -0.7701 -0.4624
  633MOL0     O85323   9.156   4.868   3.350  0.2187 -0.5799  0.2665
  633MOL0     C85324   9.026   4.835   3.379 -0.2895  0.7103 -0.0736
  633MOL0     C85325   8.994   4.707   3.433 -0.4803 -0.0257 -0.3638
  633MOL0     C85326   8.864   4.669   3.457  0.1911 -0.2272 -0.5513
  633MOL0     C85327   8.762   4.750   3.416  0.3120 -0.4217  0.6744
  633MOL0     O85328   8.638   4.697   3.429 -0.3560 -0.6822 -0.0671
  633MOL0     C85329   8.552   4.720   3.325 -0.5405 -0.7207  0.0750
  633MOL0     C85330   8.423   4.652   3.340  0.3981 -0.1245  0.4999
  633MOL0     C85331   8.329   4.682   3.227  0.1236  0.8467  0.3987
  633MOL0     C85332   8.190   4.620   3.246 -0.0523  0.3060 -0.2309
  633MOL0     C85333   8.116   4.604   3.114 -0.3590 -0.1541 -0.7829
  633MOL0     C85334   8.116   4.728   3.017 -0.5429 -0.0122 -1.6833
  633MOL0     C85335   8.017   4.711   2.906  0.5189 -0.4063  0.3367
  633MOL0     C85336   8.031   4.801   2.782  0.6304  0.0464 -0.2148
  633MOL0     N85337   7.936   4.772   2.674  0.0690 -0.0925  0.2564
  633MOL0     C85338   7.804   4.760   2.695  0.4694 -0.2730 -0.0678
  633MOL0     C85339   7.743   4.710   2.581  0.2137 -0.5655 -0.3575
  633MOL0     C85340   7.598   4.672   2.576  0.9195 -0.4193  0.3218
  633MOL0     C85341   7.505   4.798   2.572 -1.3853  0.0449 -0.0661
  633MOL0     C85342   7.355   4.758   2.555 -1.0032  0.0456  0.4914
  633MOL0     C85343   7.283   4.696   2.671  0.3890  0.6281 -0.4730
  633MOL0     O85344   7.270   4.799   2.770 -0.3916 -0.1888 -0.0916
  633MOL0     C85345   7.153   4.829   2.832 -0.4490  0.2322 -0.1591
  633MOL0     C85346   7.041   4.734   2.843 -0.0803  0.5993  0.6970
  633MOL0     C85347   6.914   4.773   2.895 -0.3338 -0.4325  0.4880
  633MOL0     C85348   6.810   4.664   2.876 -0.3491  1.2824 -0.6407
  633MOL0     C85349   6.893   4.899   2.952 -0.4180 -0.2663 -0.3326
  633MOL0     C85350   6.765   4.954   3.003 -0.3703  1.2000 -0.3701
  633MOL0     O85351   6.763   5.086   3.028  0.2690 -0.3412  0.1739
  633MOL0     C85352   6.640   5.151   3.049  0.0819  0.3394 -0.0470
  633MOL0     C85353   6.610   5.254   2.966  0.3057 -0.2790  0.7411
  633MOL0     C85354   6.496   5.337   2.963 -0.1821  0.5724 -0.2620
  633MOL0     C85355   6.402   5.303   3.067  0.7365  0.6726  0.4239
  633MOL0     O85356   6.277   5.362   3.076 -0.2949 -0.1982  1.3302
  633MOL0     C85357   6.279   5.505   3.045 -0.4391 -0.3774 -0.2914
  633MOL0     C85358   6.131   5.555   3.029 -0.4094 -0.0161 -0.7522
  633MOL0     C85359   6.092   5.696   3.080  0.1830 -0.4362 -0.2480
  633MOL0     C85360   5.941   5.712   3.113 -0.1532 -0.2817  0.9246
  633MOL0     C85361   5.916   5.858   3.159  0.6441 -0.1511  1.0301
  633MOL0     C85362   5.786   5.858   3.235 -0.0962  0.1449  0.3436
  633MOL0     C85363   5.720   5.995   3.239 -0.1550  0.4034 -0.4145
  633MOL0     C85364   5.586   5.980   3.310  0.0572 -0.9449  0.6461
  633MOL0    Cl85365   5.492   6.126   3.287 -0.3473  0.3550 -0.1862
  633MOL0     C85366   6.424   5.197   3.155 -0.0509  0.2386  0.2299
  633MOL0     C85367   6.546   5.117   3.144  0.1978  0.0229  0.1616
  633MOL0     O85368   6.668   4.872   3.014 -0.2884  0.3231 -0.3489
  633MOL0     C85369   7.006   4.988   2.938 -0.0708  1.1154 -0.3523
  633MOL0     C85370   7.129   4.959   2.871  1.1444  0.5357 -0.3628
  633MOL0     N85371   7.852   4.691   2.494 -0.7065  0.4018 -0.2784
  633MOL0     N85372   7.964   4.720   2.549  0.4940 -0.1845 -0.1456
  633MOL0     C85373   8.789   4.880   3.379 -0.5563  0.2398  0.7233
  633MOL0     C85374   8.917   4.923   3.348 -0.2503 -0.5552 -0.6700
  633MOL0     C85375   9.351   4.970   3.217 -0.2293  0.6021 -0.0821
  633MOL0     C85376   9.394   5.017   3.088 -0.1140  0.4394  0.0457
  633MOL0     C85377   9.531   5.031   3.076 -0.5892  0.3496  0.2354
  633MOL0     C85378   9.629   5.018   3.175 -0.0437  0.3251  0.2573
  633MOL0     O85379   9.765   5.028   3.161  0.4069  0.2100  0.1074
  633MOL0     C85380   9.818   5.008   3.022 -0.1088 -0.1368 -0.8186
  633MOL0     C85381   9.973   4.981   3.037 -0.1080 -0.2340  1.3906
  633MOL0     C85382  10.033   4.975   2.895 -0.1852  0.0159  0.2851
  633MOL0     C85383  10.191   4.951   2.904 -0.0242  0.9643 -0.6872
  633MOL0     C85384  10.231   4.838   2.995  0.5249 -0.1406 -0.4323
  633MOL0     C85385  10.272   4.740   3.058 -0.0999 -0.3835  0.6149
  633MOL0     C85386   9.577   4.988   3.299 -0.4651  0.8531 -0.5544
  633MOL0     C85387   9.438   4.959   3.321  0.1104 -0.0473  0.1346
  633MOL0     H85388   9.069   4.629   3.432 -0.9311 -0.4979 -2.6698
  633MOL0     H85389   8.844   4.566   3.482  0.7694 -0.4129 -0.8453
  633MOL0     H85390   8.519   4.825   3.320 -4.2122 -1.6212  1.7770
  633MOL0     H85391   8.600   4.697   3.230 -0.2915 -0.2423  0.0803
  633MOL0     H85392   8.437   4.543   3.337 -0.3232 -0.2039 -2.3620
  633MOL0     H85393   8.377   4.675   3.437  0.9785 -2.0989  1.2976
  633MOL0     H85394   8.308   4.788   3.211  1.0135  0.7433 -1.8542
  633MOL0     H85395   8.364   4.634   3.135 -3.0631  0.3604 -0.6724
  633MOL0     H85396   8.199   4.529   3.306 -2.0790 -1.1874 -2.0070
  633MOL0     H85397   8.124   4.676   3.313 -1.0655 -0.9911 -0.1105
  633MOL0     H85398   8.159   4.518   3.062  1.6485  0.6511 -0.5588
  633MOL0     H85399   8.016   4.571   3.142 -1.3634  2.0236 -1.5695
  633MOL0     H85400   8.103   4.827   3.061 -0.7791 -0.3883 -0.8944
  633MOL0     H85401   8.215   4.739   2.970 -0.3552  2.6867 -0.8150
  633MOL0     H85402   8.031   4.607   2.877  2.1515 -1.0456  3.0441
  633MOL0     H85403   7.917   4.730   2.945 -0.0031  1.7605 -1.7922
  633MOL0     H85404   8.125   4.776   2.731  1.3514  0.1053  1.0540
  633MOL0     H85405   8.024   4.905   2.813 -1.5380 -0.3412  0.7420
  633MOL0     H85406   7.754   4.774   2.790  0.0204  0.1850 -0.3663
  633MOL0     H85407   7.597   4.615   2.483  2.2331  1.3795 -0.8818
  633MOL0     H85408   7.568   4.608   2.659 -1.5973  0.8983  0.5375
  633MOL0     H85409   7.530   4.860   2.486  0.5805  0.1536  0.5367
  633MOL0     H85410   7.534   4.863   2.655  0.4908  0.0932 -0.7128
  633MOL0     H85411   7.343   4.694   2.468 -0.5043 -0.1341  0.5504
  633MOL0     H85412   7.295   4.844   2.523  0.5589  0.4966 -1.4351
  633MOL0     H85413   7.346   4.622   2.722 -0.0004 -0.3622 -1.3972
  633MOL0     H85414   7.185   4.660   2.640  0.0105  1.2207  0.0167
  633MOL0     H85415   7.059   4.630   2.817  1.5157  0.7753  0.9667
  633MOL0     H85416   6.774   4.633   2.974 -0.8069  0.2924 -1.1031
  633MOL0     H85417   6.725   4.699   2.817 -1.3280  2.4730  1.3950
  633MOL0     H85418   6.857   4.575   2.833 -0.6674  1.2259 -0.8805
  633MOL0     H85419   6.681   5.271   2.885  1.4398  0.7379  1.9009
  633MOL0     H85420   6.492   5.418   2.891  2.0100  1.9881  1.1024
  633MOL0     H85421   6.333   5.562   3.122  0.4863 -1.6572  0.0361
  633MOL0     H85422   6.328   5.525   2.949 -1.2150  0.5425 -0.5092
  633MOL0     H85423   6.114   5.538   2.922  0.9189  2.7823 -1.4953
  633MOL0     H85424   6.066   5.486   3.084 -0.3046  0.8986  0.5609
  633MOL0     H85425   6.140   5.770   3.016  0.0452  0.9075  1.1335
  633MOL0     H85426   6.142   5.710   3.176 -0.2560 -0.8064  0.0422
  633MOL0     H85427   5.882   5.686   3.025  1.0214  2.3777 -0.7834
  633MOL0     H85428   5.918   5.645   3.196 -0.4789  0.0846  1.1310
  633MOL0     H85429   5.915   5.929   3.076 -0.7831  1.2330  2.1711
  633MOL0     H85430   6.001   5.886   3.222  0.4848 -2.2811  2.2779
  633MOL0     H85431   5.716   5.786   3.192 -1.8009  1.6993  0.4254
  633MOL0     H85432   5.798   5.817   3.336  1.0494  0.9873  0.5695
  633MOL0     H85433   5.698   6.017   3.134 -1.1055  0.6299 -0.1805
  633MOL0     H85434   5.782   6.078   3.272  1.2470 -1.4388  1.9958
  633MOL0     H85435   5.592   5.960   3.418 -0.5884 -0.4604  0.7761
  633MOL0     H85436   5.536   5.899   3.256 -1.8991 -0.0982  1.1301
  633MOL0     H85437   6.346   5.185   3.229 -0.9817  0.0764 -0.7599
  633MOL0     H85438   6.572   5.036   3.211  3.5932  0.8559  0.0839
  633MOL0     H85439   6.998   5.089   2.975  3.4151  1.0878  0.7937
  633MOL0     H85440   7.210   5.030   2.857  1.1120  0.4734 -0.9193
  633MOL0     H85441   8.709   4.953   3.368 -1.0750 -0.3820  0.3050
  633MOL0     H85442   8.947   5.021   3.314 -0.1113 -1.0743 -2.1283
  633MOL0     H85443   9.332   5.031   3.000  1.0361 -3.7711 -1.7073
  633MOL0     H85444   9.564   5.070   2.980 -0.2170 -0.7566 -0.0977
  633MOL0     H85445   9.765   4.923   2.978 -2.1394 -0.1574  1.4868
  633MOL0     H85446   9.805   5.096   2.958 -2.4458  1.1376  1.2257
  633MOL0     H85447   9.998   4.888   3.089 -1.3100 -2.1211 -1.1197
  633MOL0     H85448  10.014   5.070   3.084  2.3808 -1.5440  1.8858
  633MOL0     H85449  10.023   5.068   2.839 -1.0685 -1.1782 -1.6312
  633MOL0     H85450   9.992   4.900   2.827  3.7080 -1.9528 -0.1857
  633MOL0     H85451  10.229   5.041   2.954 -3.6540  1.6342  1.1933
  633MOL0     H85452  10.232   4.939   2.803  0.5977  0.7543 -0.4164
  633MOL0     H85453  10.314   4.654   3.106  0.7779  0.1609  0.8537
  633MOL0     H85454   9.649   4.976   3.379 -2.6204 -0.6498  1.2850
  633MOL0     H85455   9.408   4.914   3.416  0.3032 -2.2224 -0.7796
  634MOL0     O85456   3.352   2.424   2.213  0.5841 -0.1304  0.1849
  634MOL0     C85457   3.349   2.471   2.100  0.0795 -0.9189 -0.5147
  634MOL0     O85458   3.235   2.527   2.047  0.2327 -0.1227 -0.1613
  634MOL0     C85459   3.112   2.527   2.106  0.8226 -0.1559  0.0763
  634MOL0     C85460   3.074   2.472   2.225  1.1846 -0.5840 -0.8564
  634MOL0     C85461   2.941   2.494   2.269 -0.2217  0.6260  0.6252
  634MOL0     C85462   2.851   2.568   2.200  0.2338  0.0302  0.7352
  634MOL0     O85463   2.724   2.585   2.247  0.7359  0.1415 -0.5650
  634MOL0     C85464   2.672   2.722   2.248  0.2860  0.1139 -0.7811
  634MOL0     C85465   2.562   2.724   2.351  0.4260  0.4923 -0.4728
  634MOL0     C85466   2.424   2.665   2.304  0.7255 -1.2949  0.0466
  634MOL0     C85467   2.321   2.675   2.418 -0.0724 -0.0290  0.0448
  634MOL0     C85468   2.191   2.601   2.379 -0.4236 -0.2585  0.0439
  634MOL0     C85469   2.136   2.657   2.245 -0.2478  1.4358 -0.8836
  634MOL0     C85470   1.990   2.609   2.232  0.2276  0.0431  0.3761
  634MOL0     C85471   1.943   2.622   2.079 -0.1883 -0.2410  0.6537
  634MOL0     N85472   1.913   2.761   2.034  0.3838 -0.6606  0.9364
  634MOL0     C85473   1.965   2.824   1.926  0.0026 -0.4547 -0.0810
  634MOL0     C85474   1.902   2.944   1.919 -0.7351 -0.4112 -0.0934
  634MOL0     C85475   1.934   3.054   1.823  0.1101  0.5609 -0.2615
  634MOL0     C85476   1.813   3.125   1.781  0.1563  0.7696 -0.5010
  634MOL0     C85477   1.711   3.033   1.722 -0.2375 -0.4750  0.6105
  634MOL0     C85478   1.595   3.111   1.667  0.1295 -0.0562 -0.8098
  634MOL0     O85479   1.477   3.020   1.651  0.7130 -0.1443 -0.4715
  634MOL0     C85480   1.361   3.079   1.593  0.3929  0.0773  0.0434
  634MOL0     C85481   1.336   3.217   1.563  0.5665 -0.5592 -0.0555
  634MOL0     C85482   1.209   3.255   1.509 -0.0656 -0.3229 -0.2101
  634MOL0     C85483   1.198   3.400   1.491  0.3367 -0.1145  0.2420
  634MOL0     C85484   1.109   3.160   1.474 -0.0959  0.7104 -0.8932
  634MOL0     C85485   0.983   3.181   1.402  0.7596 -0.2061 -0.0077
  634MOL0     O85486   0.895   3.075   1.386 -0.0091  0.5415 -0.2770
  634MOL0     C85487   0.780   3.100   1.324 -0.2815 -0.0382 -0.2419
  634MOL0     C85488   0.660   3.049   1.376 -0.0255 -0.2009  0.1390
  634MOL0     C85489   0.535   3.065   1.314  0.3892 -0.1526 -0.7601
  634MOL0     C85490   0.527   3.138   1.192 -0.2005 -0.4901  0.6319
  634MOL0     O85491   0.399   3.161   1.144  0.0402  0.3608  0.0711
  634MOL0     C85492   0.361   3.301   1.119  0.3583 -0.7359 -0.0016
  634MOL0     C85493   0.208   3.307   1.153 -0.7240  0.2585 -0.1485
  634MOL0     C85494   0.127   3.186   1.091  0.5682  0.3567 -0.4911
  634MOL0     C85495  -0.026   3.191   1.124 -0.6075  0.0629 -0.3851
  634MOL0     C85496  -0.095   3.305   1.051 -0.0948 -0.2576 -0.5038
  634MOL0     C85497  -0.247   3.308   1.069  0.4698 -0.2733  0.4788
  634MOL0     C85498  -0.306   3.423   0.983  0.2616  0.5149 -0.2380
  634MOL0     C85499  -0.423   3.497   1.050 -0.2240 -0.0709 -0.4290
  634MOL0    Cl85500  -0.399   3.550   1.220 -0.5236  0.0497 -0.0093
  634MOL0     C85501   0.646   3.179   1.136 -0.2512 -0.9989 -0.9618
  634MOL0     C85502   0.772   3.169   1.200  0.4687 -0.4809  0.1201
  634MOL0     O85503   0.960   3.299   1.367 -0.3972  0.5565  0.3609
  634MOL0     C85504   1.136   3.029   1.506 -0.2314 -0.3269 -0.2672
  634MOL0     C85505   1.254   2.992   1.570 -0.0874 -0.7494  0.6612
  634MOL0     N85506   1.803   2.947   2.014  0.4933 -0.2917  0.6670
  634MOL0     N85507   1.822   2.844   2.083  0.9687 -0.0044  0.3580
  634MOL0     C85508   2.887   2.623   2.086 -0.8143  0.4812 -0.4508
  634MOL0     C85509   3.021   2.610   2.041  0.2968  0.8206  0.1365
  634MOL0     C85510   3.476   2.459   2.015  0.2964  0.9956 -0.2935
  634MOL0     C85511   3.590   2.402   2.073 -0.2621 -0.4763 -0.9191
  634MOL0     C85512   3.707   2.402   2.003 -0.3886 -0.2268 -0.0842
  634MOL0     C85513   3.722   2.461   1.878 -0.2320 -0.0291  0.2556
  634MOL0     O85514   3.834   2.456   1.792  0.3317 -0.6508 -0.4815
  634MOL0     C85515   3.886   2.325   1.778  1.2339  0.0143 -0.1826
  634MOL0     C85516   3.987   2.330   1.670 -1.1876 -0.0927 -0.0913
  634MOL0     C85517   3.920   2.303   1.539 -0.4119  0.3843  0.6955
  634MOL0     C85518   4.027   2.325   1.429  1.5769 -0.6010 -1.1459
  634MOL0     C85519   3.966   2.281   1.303 -0.3128  0.8798  0.2653
  634MOL0     C85520   3.931   2.239   1.193 -0.3876  0.4274 -0.7423
  634MOL0     C85521   3.612   2.510   1.822  1.0727  0.4216 -0.1752
  634MOL0     C85522   3.485   2.507   1.883  0.7121  0.1615 -0.4050
  634MOL0     H85523   3.136   2.410   2.289  1.0736  0.2353  0.0568
  634MOL0     H85524   2.907   2.443   2.358  2.1614 -1.7100  0.3090
  634MOL0     H85525   2.750   2.793   2.276  0.4869 -0.6727  0.7956
  634MOL0     H85526   2.633   2.748   2.149 -5.6835  1.3445  1.4569
  634MOL0     H85527   2.595   2.678   2.445 -0.7230  0.5964  0.0063
  634MOL0     H85528   2.538   2.828   2.375  0.2649  0.4748 -0.5579
  634MOL0     H85529   2.390   2.712   2.212  0.5543 -1.4248  0.0451
  634MOL0     H85530   2.426   2.560   2.277  1.6303 -0.9883 -1.1951
  634MOL0     H85531   2.368   2.623   2.502 -0.4322  1.7026  1.3904
  634MOL0     H85532   2.308   2.781   2.441 -0.4448  0.6031 -2.6935
  634MOL0     H85533   2.227   2.498   2.365  1.3170  0.5802 -2.3479
  634MOL0     H85534   2.124   2.611   2.465  0.9239  0.4218  1.0352
  634MOL0     H85535   2.145   2.764   2.228  0.0005  1.4663 -0.5753
  634MOL0     H85536   2.190   2.607   2.164 -3.1528 -0.2149 -1.9791
  634MOL0     H85537   1.974   2.506   2.266  0.3225 -0.6307 -1.5041
  634MOL0     H85538   1.926   2.677   2.290  0.6458  0.4040  0.4214
  634MOL0     H85539   1.852   2.562   2.064 -0.3809  0.1646  0.1542
  634MOL0     H85540   2.006   2.574   2.005 -3.0400 -4.2333  0.5198
  634MOL0     H85541   2.053   2.798   1.868 -2.3089 -1.1782 -3.5737
  634MOL0     H85542   2.006   3.129   1.858  2.1357 -1.8566  1.0655
  634MOL0     H85543   1.983   3.002   1.740 -1.6092 -2.9926  0.7783
  634MOL0     H85544   1.851   3.191   1.703  2.7285 -1.7699 -1.5603
  634MOL0     H85545   1.769   3.183   1.863  0.3784 -0.1716  0.2961
  634MOL0     H85546   1.672   2.971   1.804 -2.3341  0.6236  0.4980
  634MOL0     H85547   1.753   2.974   1.639 -1.0356  1.1261 -0.9973
  634MOL0     H85548   1.620   3.166   1.575  2.0343  0.3426 -0.0842
  634MOL0     H85549   1.573   3.189   1.741  1.2216 -0.4324 -0.0774
  634MOL0     H85550   1.414   3.290   1.586  0.3522 -0.3438 -0.0059
  634MOL0     H85551   1.212   3.414   1.383 -0.3344 -1.2868 -0.0209
  634MOL0     H85552   1.106   3.447   1.527  1.3770  2.4689 -0.2494
  634MOL0     H85553   1.281   3.446   1.545  0.6575 -0.4570  0.0474
  634MOL0     H85554   0.657   2.997   1.472  0.1476  1.2015  0.9371
  634MOL0     H85555   0.441   3.027   1.351  1.0950 -1.2665 -0.0579
  634MOL0     H85556   0.410   3.373   1.186  0.2122  0.0077 -0.6824
  634MOL0     H85557   0.385   3.349   1.023 -0.8702  0.4317  0.2528
  634MOL0     H85558   0.197   3.304   1.262 -0.5338  2.9317  0.0205
  634MOL0     H85559   0.163   3.400   1.116 -3.1713 -1.0051 -0.5591
  634MOL0     H85560   0.152   3.095   1.146 -1.1453 -0.8765 -1.6525
  634MOL0     H85561   0.155   3.184   0.985  0.4657 -2.5587 -0.5478
  634MOL0     H85562  -0.077   3.099   1.096 -0.3695  0.4915 -2.3428
  634MOL0     H85563  -0.051   3.195   1.230 -0.7637  1.0179 -0.4461
  634MOL0     H85564  -0.078   3.283   0.945  1.3919 -0.8896 -0.1623
  634MOL0     H85565  -0.053   3.399   1.088 -2.3069  0.2835  0.7978
  634MOL0     H85566  -0.298   3.222   1.023  2.3129 -1.7985  1.1245
  634MOL0     H85567  -0.282   3.319   1.172  0.5802  0.9812  0.3923
  634MOL0     H85568  -0.327   3.385   0.882  1.9527  3.3611 -1.8212
  634MOL0     H85569  -0.228   3.498   0.968 -1.9548  2.9046 -0.4682
  634MOL0     H85570  -0.516   3.441   1.037  0.1322 -0.9901  0.7408
  634MOL0     H85571  -0.437   3.582   0.984  1.4567 -0.6712 -1.6223
  634MOL0     H85572   0.638   3.232   1.042  2.6037  0.7139 -0.3704
  634MOL0     H85573   0.855   3.226   1.160  0.8714 -0.5079  0.8955
  634MOL0     H85574   1.073   2.941   1.493  0.8909 -1.3280  0.8415
  634MOL0     H85575   1.280   2.891   1.599  2.5961 -0.5380 -0.7452
  634MOL0     H85576   2.816   2.670   2.019 -2.0281 -2.8512 -1.7525
  634MOL0     H85577   3.060   2.658   1.952 -0.0001  1.7912  0.5186
  634MOL0     H85578   3.598   2.350   2.168 -2.0848 -3.3377 -2.1934
  634MOL0     H85579   3.788   2.358   2.060 -1.3762 -2.5303 -0.3216
  634MOL0     H85580   3.928   2.286   1.871 -0.1314 -2.2397 -0.4467
  634MOL0     H85581   3.805   2.256   1.753  1.7541  0.0920 -2.2481
  634MOL0     H85582   4.062   2.254   1.694 -3.0524 -1.0567  3.2727
  634MOL0     H85583   4.040   2.426   1.668 -1.8534  0.2705 -0.3886
  634MOL0     H85584   3.830   2.364   1.529 -1.4146 -0.5914  3.1034
  634MOL0     H85585   3.884   2.200   1.528 -0.0841  0.4148 -0.8571
  634MOL0     H85586   4.112   2.265   1.459  1.8073  0.8547  1.4982
  634MOL0     H85587   4.056   2.431   1.427 -1.3811  0.4599  1.7009
  634MOL0     H85588   3.894   2.201   1.100 -1.6541 -0.1515 -0.0272
  634MOL0     H85589   3.614   2.552   1.722 -0.7781  3.2073  0.8418
  634MOL0     H85590   3.401   2.549   1.829  0.6704 -0.7303 -1.0627
  635MOL0     O85591   6.279   7.716   6.841 -0.4198  0.0348  0.2498
  635MOL0     C85592   6.229   7.717   6.726  0.7912  1.1581 -1.3115
  635MOL0     O85593   6.287   7.747   6.606  0.4334 -0.2886  1.2040
  635MOL0     C85594   6.414   7.793   6.606  0.3321  0.5664 -0.6015
  635MOL0     C85595   6.526   7.710   6.587 -0.0976 -0.3570 -0.2114
  635MOL0     C85596   6.657   7.763   6.599 -1.3847 -0.4923  0.8299
  635MOL0     C85597   6.680   7.900   6.635  1.2387  0.8414 -0.3622
  635MOL0     O85598   6.807   7.954   6.661 -0.5296  0.6363 -0.0106
  635MOL0     C85599   6.901   7.875   6.735  0.0163  0.0378  0.2148
  635MOL0     C85600   7.011   7.943   6.817 -0.5750 -0.3812 -0.1527
  635MOL0     C85601   7.119   8.013   6.729 -0.4245 -0.4633 -0.6577
  635MOL0     C85602   7.197   7.912   6.646 -0.0942  0.6706 -0.2485
  635MOL0     C85603   7.345   7.935   6.638 -0.0127  0.0885 -0.2927
  635MOL0     C85604   7.415   7.813   6.569  0.1813  0.2960  0.1373
  635MOL0     C85605   7.567   7.847   6.552  0.9563 -0.2229 -0.0953
  635MOL0     C85606   7.623   7.727   6.486 -0.4356  1.0693 -0.0505
  635MOL0     N85607   7.655   7.748   6.344 -0.1029  0.3406  0.1678
  635MOL0     C85608   7.778   7.769   6.283  0.7297 -0.9262 -1.0773
  635MOL0     C85609   7.754   7.779   6.150 -0.0655  0.3357  0.0217
  635MOL0     C85610   7.864   7.802   6.043 -0.7670 -0.7835 -0.2011
  635MOL0     C85611   7.952   7.676   6.039 -0.2269 -0.3003  0.3227
  635MOL0     C85612   7.886   7.555   5.973 -0.5452 -0.3189  0.4601
  635MOL0     C85613   7.822   7.572   5.837 -0.1678  0.3155 -0.4262
  635MOL0     O85614   7.762   7.451   5.778 -0.0009 -0.5134 -0.1324
  635MOL0     C85615   7.652   7.399   5.844 -0.7861 -0.2167  0.0035
  635MOL0     C85616   7.577   7.473   5.936  0.2639  0.4811 -0.3381
  635MOL0     C85617   7.463   7.416   5.990 -0.0218  0.0640  0.7032
  635MOL0     C85618   7.383   7.508   6.072 -0.0581 -0.1947 -0.5639
  635MOL0     C85619   7.420   7.283   5.960  0.1718  1.0468 -0.1503
  635MOL0     C85620   7.307   7.207   6.036 -0.1336  0.1031 -0.8490
  635MOL0     O85621   7.260   7.263   6.155 -0.6338  0.5558  0.3305
  635MOL0     C85622   7.138   7.235   6.210  0.6064 -0.7200  0.1887
  635MOL0     C85623   7.104   7.312   6.317 -0.5007 -0.0847  0.3891
  635MOL0     C85624   6.978   7.308   6.373 -0.0739 -0.5058  0.0788
  635MOL0     C85625   6.880   7.228   6.324 -0.1639  0.1234  0.2741
  635MOL0     O85626   6.753   7.202   6.367  0.2794  0.0360 -0.1297
  635MOL0     C85627   6.707   7.278   6.477 -0.7027  0.7562  0.7264
  635MOL0     C85628   6.595   7.220   6.553 -0.0965 -0.0193 -0.4037
  635MOL0     C85629   6.450   7.273   6.522 -0.0513 -0.5960  0.0597
  635MOL0     C85630   6.364   7.253   6.649 -0.6338 -0.2011  0.0479
  635MOL0     C85631   6.232   7.330   6.620  0.2168 -0.2573  0.5760
  635MOL0     C85632   6.132   7.280   6.713 -0.1149  0.1269 -0.4906
  635MOL0     C85633   6.004   7.357   6.695  0.7732  0.2597  0.8820
  635MOL0     C85634   5.883   7.258   6.698  0.9124  0.8272 -0.3131
  635MOL0    Cl85635   5.845   7.198   6.863  0.0380 -0.2194 -0.4636
  635MOL0     C85636   6.915   7.144   6.216 -0.9245  0.0911 -0.3399
  635MOL0     C85637   7.039   7.147   6.158 -0.0828 -0.3053 -0.0979
  635MOL0     O85638   7.278   7.093   6.000  0.1967 -0.6942 -0.0773
  635MOL0     C85639   7.499   7.208   5.871  0.7353  0.7697  0.0681
  635MOL0     C85640   7.606   7.270   5.803  0.1388  0.2341 -0.5188
  635MOL0     N85641   7.624   7.751   6.128 -0.4535 -0.6570  0.1836
  635MOL0     N85642   7.565   7.737   6.245 -0.3667 -0.0979 -0.1794
  635MOL0     C85643   6.566   7.981   6.648 -0.6694  0.2414  0.4186
  635MOL0     C85644   6.435   7.935   6.640 -1.1106  0.7865  0.9589
  635MOL0     C85645   6.078   7.709   6.720 -0.0482 -0.4679  0.1302
  635MOL0     C85646   5.988   7.719   6.832  0.4959  0.9906  0.5057
  635MOL0     C85647   5.851   7.695   6.817 -0.3945  0.0919  0.4956
  635MOL0     C85648   5.789   7.682   6.693  0.4657  0.1895 -1.3430
  635MOL0     O85649   5.656   7.659   6.661  0.0365  0.3988  0.0628
  635MOL0     C85650   5.559   7.688   6.765 -0.0620  0.1730 -0.2502
  635MOL0     C85651   5.418   7.670   6.708 -0.2582 -0.3878  0.1808
  635MOL0     C85652   5.390   7.772   6.595 -0.2632 -0.4648  0.0243
  635MOL0     C85653   5.246   7.760   6.536 -0.4949 -0.7246  0.5898
  635MOL0     C85654   5.238   7.652   6.430  0.7639 -0.3755 -0.5677
  635MOL0     C85655   5.226   7.562   6.351 -0.1698  0.7568 -0.4624
  635MOL0     C85656   5.877   7.680   6.584  0.7007 -0.2090 -0.9767
  635MOL0     C85657   6.015   7.686   6.597 -0.3074 -0.3313  0.5374
  635MOL0     H85658   6.501   7.606   6.574 -0.9136 -0.3778  1.3044
  635MOL0     H85659   6.743   7.699   6.582 -1.4241 -1.4047  3.6483
  635MOL0     H85660   6.851   7.820   6.815 -2.5943  2.2544  0.2142
  635MOL0     H85661   6.941   7.807   6.659  0.1833  1.2659 -0.8306
  635MOL0     H85662   6.955   8.015   6.877 -1.5994 -1.5605  0.3361
  635MOL0     H85663   7.055   7.875   6.890 -2.3506 -0.3897  0.9592
  635MOL0     H85664   7.077   8.085   6.658  1.3150  1.0842 -0.2092
  635MOL0     H85665   7.186   8.077   6.787  1.2129 -1.8570 -0.9021
  635MOL0     H85666   7.179   7.814   6.691  0.6449  1.7231  2.5443
  635MOL0     H85667   7.157   7.911   6.544  2.0482  1.6737 -1.1454
  635MOL0     H85668   7.361   8.016   6.567 -1.3094 -0.9077 -1.7755
  635MOL0     H85669   7.392   7.965   6.733 -1.3939 -0.6719  0.6686
  635MOL0     H85670   7.410   7.730   6.640  4.0932  0.8930  1.3734
  635MOL0     H85671   7.363   7.778   6.480 -1.0989  0.1361  0.9345
  635MOL0     H85672   7.591   7.931   6.486  4.4786  0.6736  2.0085
  635MOL0     H85673   7.620   7.867   6.646  0.2795  0.2270  0.1950
  635MOL0     H85674   7.566   7.635   6.496  1.0161 -0.0814 -1.7725
  635MOL0     H85675   7.718   7.706   6.536 -0.6189 -2.1205 -0.8717
  635MOL0     H85676   7.874   7.772   6.334  0.4490  0.0497 -0.5677
  635MOL0     H85677   7.824   7.827   5.944  0.4127 -1.8611 -0.9733
  635MOL0     H85678   7.930   7.886   6.066 -0.5522 -0.0658 -3.1018
  635MOL0     H85679   7.981   7.655   6.142 -1.1039  0.2048  0.6886
  635MOL0     H85680   8.044   7.697   5.985  0.6643  0.2641  1.9814
  635MOL0     H85681   7.811   7.516   6.043 -0.0792  0.8023  1.6227
  635MOL0     H85682   7.951   7.467   5.976  0.5941  0.5225  0.9852
  635MOL0     H85683   7.896   7.601   5.762 -1.5288  1.6162 -1.2994
  635MOL0     H85684   7.747   7.651   5.837  0.6150  1.1519  2.1223
  635MOL0     H85685   7.608   7.574   5.963 -0.0586  1.4759 -3.2991
  635MOL0     H85686   7.284   7.504   6.026  0.4206  1.6802 -1.8379
  635MOL0     H85687   7.385   7.480   6.178 -2.7185  0.6507 -0.2132
  635MOL0     H85688   7.417   7.612   6.069  0.0750 -0.2653 -2.0044
  635MOL0     H85689   7.172   7.392   6.342 -0.5265  0.3551 -0.8667
  635MOL0     H85690   6.959   7.369   6.460  1.1765  0.5438 -0.3481
  635MOL0     H85691   6.788   7.291   6.549  0.2305 -0.9289  0.0445
  635MOL0     H85692   6.682   7.378   6.440 -0.0301  0.5102 -0.4481
  635MOL0     H85693   6.597   7.110   6.556  5.1604 -0.2215 -2.0300
  635MOL0     H85694   6.625   7.247   6.655  1.0882 -0.2704 -0.6744
  635MOL0     H85695   6.406   7.230   6.431  1.6566  1.4095 -1.8210
  635MOL0     H85696   6.452   7.380   6.499 -1.1147 -0.4605  0.5237
  635MOL0     H85697   6.356   7.145   6.666  2.4810 -0.5895 -0.2785
  635MOL0     H85698   6.405   7.300   6.738 -1.7995 -1.3911  1.2642
  635MOL0     H85699   6.200   7.318   6.516 -1.3038 -1.1251  1.1172
  635MOL0     H85700   6.238   7.439   6.633  3.8606 -0.4646  1.5781
  635MOL0     H85701   6.117   7.174   6.695  0.8928 -0.0874 -0.1079
  635MOL0     H85702   6.165   7.296   6.816  0.0636  0.3644 -0.5810
  635MOL0     H85703   5.996   7.412   6.601 -1.9509  0.2290  1.0096
  635MOL0     H85704   5.989   7.422   6.782 -0.9751 -1.3136  1.8463
  635MOL0     H85705   5.905   7.179   6.625 -0.7584 -1.0278  1.0984
  635MOL0     H85706   5.797   7.311   6.656 -0.6684 -1.6806 -0.4489
  635MOL0     H85707   6.850   7.062   6.187 -1.1041 -0.3834  1.3008
  635MOL0     H85708   7.058   7.076   6.078 -0.0498 -0.3481 -0.0518
  635MOL0     H85709   7.471   7.108   5.841  0.1909  0.7761  0.5412
  635MOL0     H85710   7.653   7.203   5.732 -1.1687 -1.3684  0.0709
  635MOL0     H85711   6.564   8.086   6.675 -0.8930 -0.1817  2.1236
  635MOL0     H85712   6.353   8.007   6.639 -1.1284  0.7817 -0.8387
  635MOL0     H85713   6.024   7.727   6.934  2.3988  1.6383 -0.1763
  635MOL0     H85714   5.805   7.684   6.915  1.2312 -1.0813  1.1776
  635MOL0     H85715   5.573   7.625   6.854 -0.8121 -0.3321 -0.4769
  635MOL0     H85716   5.560   7.790   6.803  1.5213 -1.0429  3.3893
  635MOL0     H85717   5.345   7.679   6.788  1.5241 -0.7241  1.9125
  635MOL0     H85718   5.409   7.569   6.665  0.4484 -0.1654 -0.5196
  635MOL0     H85719   5.464   7.754   6.517 -1.2327  0.2163 -1.0950
  635MOL0     H85720   5.404   7.874   6.633  0.3291 -0.7757  0.6646
  635MOL0     H85721   5.224   7.851   6.480  0.0255 -1.4049 -0.7799
  635MOL0     H85722   5.182   7.745   6.624  0.0874  1.5892  1.4736
  635MOL0     H85723   5.236   7.472   6.293 -2.0316 -1.4381  2.3530
  635MOL0     H85724   5.842   7.669   6.482 -0.9809  1.9209 -0.7016
  635MOL0     H85725   6.084   7.681   6.513  0.9259 -0.4285  1.5184
  636MOL0     O85726   5.429   3.778   7.256  0.2120  0.2143 -0.3484
  636MOL0     C85727   5.474   3.868   7.182  0.2164 -0.1939 -0.2782
  636MOL0     O85728   5.423   3.912   7.065 -0.4978 -0.2108 -0.2479
  636MOL0     C85729   5.308   3.872   7.008 -0.7901  0.6715 -1.6123
  636MOL0     C85730   5.301   3.796   6.892 -0.7492 -0.1076  0.5221
  636MOL0     C85731   5.189   3.730   6.839 -0.0968  0.4953  0.3223
  636MOL0     C85732   5.065   3.746   6.909 -0.1225  0.4411  0.6023
  636MOL0     O85733   4.953   3.701   6.853  0.3729  0.1311 -0.0733
  636MOL0     C85734   4.823   3.704   6.928 -0.0587 -0.0834  0.4419
  636MOL0     C85735   4.725   3.647   6.837 -0.3201  0.1144 -0.2058
  636MOL0     C85736   4.606   3.604   6.912  1.3502  0.5140 -0.9092
  636MOL0     C85737   4.497   3.570   6.809 -0.6774  0.5065  0.4509
  636MOL0     C85738   4.368   3.542   6.883 -0.6186  1.2824 -0.0711
  636MOL0     C85739   4.243   3.518   6.800 -0.0618 -0.3239  1.1468
  636MOL0     C85740   4.131   3.495   6.895  0.3039  0.9904 -0.0111
  636MOL0     C85741   4.004   3.460   6.822  0.3522  0.2046  0.2029
  636MOL0     N85742   3.916   3.383   6.911 -0.3841 -0.3224 -0.5661
  636MOL0     C85743   3.820   3.440   6.994 -0.3364  0.5755 -0.5723
  636MOL0     C85744   3.783   3.336   7.082 -0.5579 -0.0903 -0.2153
  636MOL0     C85745   3.685   3.355   7.196  0.0287 -0.3401  0.3977
  636MOL0     C85746   3.540   3.384   7.172 -0.1142 -0.3005 -0.2788
  636MOL0     C85747   3.504   3.527   7.117  0.4427 -0.2178 -0.1274
  636MOL0     C85748   3.355   3.562   7.144 -0.1989  0.0672  0.1086
  636MOL0     O85749   3.271   3.467   7.077  0.5956 -0.3625  0.2579
  636MOL0     C85750   3.132   3.489   7.087  0.5495 -0.2964  0.0247
  636MOL0     C85751   3.074   3.606   7.144  0.2359 -0.4508 -0.0446
  636MOL0     C85752   2.939   3.622   7.158  0.4592 -0.2504 -0.4190
  636MOL0     C85753   2.886   3.754   7.227 -0.1154 -0.2002 -0.0655
  636MOL0     C85754   2.850   3.527   7.095  0.1734 -0.5560 -1.0293
  636MOL0     C85755   2.700   3.545   7.097 -1.1098  0.4623 -0.0217
  636MOL0     O85756   2.651   3.667   7.124 -0.0431 -0.5538 -0.2469
  636MOL0     C85757   2.520   3.687   7.162 -0.3114  0.1166  0.4803
  636MOL0     C85758   2.410   3.618   7.112  0.1326 -0.1526 -0.3275
  636MOL0     C85759   2.283   3.641   7.165 -0.3017 -0.5114 -0.2340
  636MOL0     C85760   2.270   3.733   7.269  0.1983 -0.6698  0.4499
  636MOL0     O85761   2.147   3.763   7.326 -0.4934  0.0085  0.5176
  636MOL0     C85762   2.030   3.704   7.277 -0.3572 -0.0236 -0.5479
  636MOL0     C85763   1.926   3.804   7.293  0.1023  0.9451 -0.3895
  636MOL0     C85764   1.885   3.809   7.441 -0.2820  0.5670 -0.1908
  636MOL0     C85765   1.741   3.858   7.463  1.3453 -0.1503 -0.4166
  636MOL0     C85766   1.690   3.854   7.606 -0.9269  0.0725  0.3411
  636MOL0     C85767   1.550   3.905   7.628 -0.1809  0.0904 -0.1857
  636MOL0     C85768   1.509   3.922   7.770  0.2021 -0.0280 -0.7510
  636MOL0     C85769   1.365   3.977   7.792 -0.4602  0.5910 -0.0949
  636MOL0    Cl85770   1.248   3.859   7.733  0.1542  0.1179  0.2032
  636MOL0     C85771   2.381   3.807   7.312  0.1242  0.1418 -0.0758
  636MOL0     C85772   2.511   3.786   7.257 -0.1524  0.9319 -0.5689
  636MOL0     O85773   2.634   3.440   7.082  0.5586 -0.7029  0.0370
  636MOL0     C85774   2.910   3.416   7.038  0.4628  0.8926  0.3070
  636MOL0     C85775   3.050   3.404   7.027  0.2546  0.4103 -0.1523
  636MOL0     N85776   3.847   3.218   7.041 -0.2983  0.3047  0.7546
  636MOL0     N85777   3.932   3.249   6.944  0.2521  0.3174  0.1002
  636MOL0     C85778   5.072   3.823   7.025  0.4953  0.2922  0.2025
  636MOL0     C85779   5.186   3.894   7.064  0.3887  0.6066 -0.5926
  636MOL0     C85780   5.612   3.926   7.220 -0.5898  0.4235 -0.3011
  636MOL0     C85781   5.664   3.925   7.355  0.2006 -0.2046  0.0178
  636MOL0     C85782   5.783   3.983   7.382 -0.4567 -1.1000  0.3970
  636MOL0     C85783   5.855   4.042   7.285  0.3606 -1.0055 -0.4867
  636MOL0     O85784   5.971   4.107   7.312 -0.6984  0.7158 -0.4317
  636MOL0     C85785   6.073   4.041   7.396 -0.4575  0.1223 -0.3389
  636MOL0     C85786   6.172   3.971   7.307  0.0104 -0.5010 -0.8705
  636MOL0     C85787   6.111   3.883   7.192 -0.1887  0.6735 -0.2567
  636MOL0     C85788   6.210   3.787   7.134 -0.6210  0.9436  0.1890
  636MOL0     C85789   6.332   3.850   7.087 -1.0521  0.4846 -0.3388
  636MOL0     C85790   6.428   3.920   7.061 -0.0053  0.1097  0.2466
  636MOL0     C85791   5.804   4.058   7.151  0.3606  0.6288 -0.5661
  636MOL0     C85792   5.684   4.000   7.124 -0.3351  0.0890  1.0143
  636MOL0     H85793   5.395   3.780   6.841 -1.6506  0.6532 -1.4637
  636MOL0     H85794   5.195   3.680   6.743  0.8345 -1.3964  1.3114
  636MOL0     H85795   4.832   3.645   7.019  0.8415  0.1374  0.5146
  636MOL0     H85796   4.794   3.807   6.951  0.6086 -0.0946  1.4257
  636MOL0     H85797   4.698   3.722   6.762 -1.2062  0.7359  0.7030
  636MOL0     H85798   4.774   3.562   6.789 -0.4855  0.2991 -0.7072
  636MOL0     H85799   4.625   3.520   6.980 -0.3791 -1.1319 -2.3146
  636MOL0     H85800   4.562   3.688   6.965  2.1504  0.9076 -0.8625
  636MOL0     H85801   4.486   3.644   6.729 -0.7135 -1.2229 -1.2244
  636MOL0     H85802   4.518   3.484   6.745 -0.2791  2.6621 -2.5564
  636MOL0     H85803   4.376   3.452   6.943 -3.1155  0.2449 -1.1724
  636MOL0     H85804   4.347   3.630   6.945 -0.0772  1.6955 -0.4527
  636MOL0     H85805   4.230   3.609   6.741 -1.5122  0.4288  2.5717
  636MOL0     H85806   4.252   3.432   6.733  2.0778 -0.2201  1.2154
  636MOL0     H85807   4.147   3.413   6.964 -2.9535  0.9314  0.8413
  636MOL0     H85808   4.125   3.588   6.952  1.5930  0.9582  0.1979
  636MOL0     H85809   4.018   3.406   6.728  0.4577  1.7184 -0.6898
  636MOL0     H85810   3.960   3.556   6.792 -0.4708 -0.6967 -1.6283
  636MOL0     H85811   3.784   3.542   7.007 -1.5446 -0.1950  3.2627
  636MOL0     H85812   3.682   3.261   7.251  0.5700 -0.3300  0.4540
  636MOL0     H85813   3.723   3.435   7.261  1.1890 -1.5576  1.2781
  636MOL0     H85814   3.489   3.372   7.267  0.5701  1.1731  0.3082
  636MOL0     H85815   3.502   3.312   7.099  1.3879  0.7930 -2.2679
  636MOL0     H85816   3.531   3.538   7.012 -0.3701  1.5553 -0.1915
  636MOL0     H85817   3.567   3.603   7.166  0.5271  1.6886 -2.9859
  636MOL0     H85818   3.334   3.661   7.102 -0.9714 -0.3374 -0.4994
  636MOL0     H85819   3.338   3.558   7.252  0.8271  0.7518  0.3009
  636MOL0     H85820   3.141   3.690   7.163  1.4055 -1.2586 -0.4583
  636MOL0     H85821   2.828   3.820   7.161 -0.9802  0.6789  1.5250
  636MOL0     H85822   2.828   3.740   7.318 -2.8710 -1.5601 -1.8991
  636MOL0     H85823   2.976   3.806   7.260 -0.6746  0.4444  0.4723
  636MOL0     H85824   2.400   3.536   7.042  0.2757 -0.9326  0.5516
  636MOL0     H85825   2.206   3.573   7.127 -0.4765 -0.0747 -0.6748
  636MOL0     H85826   2.035   3.685   7.169  1.9018  1.8839 -0.8640
  636MOL0     H85827   2.004   3.614   7.333  1.1197  1.0480  2.0308
  636MOL0     H85828   1.951   3.902   7.251 -0.1160 -0.1917 -3.4502
  636MOL0     H85829   1.836   3.772   7.239 -1.4658 -0.9421  3.0440
  636MOL0     H85830   1.951   3.875   7.499  0.1343 -0.8190  0.9722
  636MOL0     H85831   1.900   3.709   7.483 -0.1385  0.7663  0.2419
  636MOL0     H85832   1.722   3.961   7.431 -2.8097 -0.6050 -0.0219
  636MOL0     H85833   1.677   3.797   7.398  1.6746  1.2307 -2.1066
  636MOL0     H85834   1.753   3.920   7.666 -1.6401  2.4642 -1.4212
  636MOL0     H85835   1.696   3.747   7.631  1.9377  0.3504  1.2564
  636MOL0     H85836   1.547   4.004   7.580  3.3836  0.8123  0.7216
  636MOL0     H85837   1.481   3.841   7.574 -2.7165  1.6501  0.9917
  636MOL0     H85838   1.571   3.996   7.821  1.5390 -0.4888 -1.6643
  636MOL0     H85839   1.537   3.835   7.831 -0.4207  0.6859  0.6081
  636MOL0     H85840   1.372   4.077   7.747 -1.2902  0.4636 -0.5277
  636MOL0     H85841   1.352   4.005   7.897  1.7377 -0.9033  0.6439
  636MOL0     H85842   2.369   3.882   7.390  0.9754 -0.9819  1.1878
  636MOL0     H85843   2.601   3.838   7.285 -0.0278  0.4449 -0.0300
  636MOL0     H85844   2.852   3.338   6.990  1.2156 -0.1301  1.0273
  636MOL0     H85845   3.094   3.317   6.979  1.0667  0.5254  0.3743
  636MOL0     H85846   4.978   3.837   7.078  0.0366  0.8661 -0.7414
  636MOL0     H85847   5.186   3.943   7.160 -0.5054 -1.2612  0.4243
  636MOL0     H85848   5.595   3.886   7.429 -0.7371  0.1434 -0.6622
  636MOL0     H85849   5.817   3.968   7.484  0.6676 -2.0517 -0.1062
  636MOL0     H85850   6.115   4.117   7.462 -1.0246 -2.0364  2.7123
  636MOL0     H85851   6.022   3.968   7.459  1.5394 -0.2383  0.9467
  636MOL0     H85852   6.235   3.904   7.365 -2.6408 -2.2480  0.1541
  636MOL0     H85853   6.232   4.051   7.262 -2.7783  1.4547 -1.3921
  636MOL0     H85854   6.098   3.944   7.102  1.9606 -0.7493 -1.6431
  636MOL0     H85855   6.018   3.842   7.233  0.1976  1.7582  1.8884
  636MOL0     H85856   6.158   3.731   7.055  0.7282  0.4411 -0.3901
  636MOL0     H85857   6.246   3.710   7.203 -1.3472  0.2172 -0.2189
  636MOL0     H85858   6.518   3.979   7.058 -0.9196  1.6704  1.4871
  636MOL0     H85859   5.844   4.125   7.076  0.2362  1.1248 -0.1969
  636MOL0     H85860   5.648   4.023   7.024  0.9228  1.0639  0.7689
  637MOL0     O85861   9.873   3.349   1.246  0.0145  0.3058  0.7487
  637MOL0     C85862   9.829   3.241   1.194  0.4574 -1.5153  0.2168
  637MOL0     O85863   9.697   3.210   1.180  0.0261 -0.3157 -0.0042
  637MOL0     C85864   9.601   3.300   1.201 -0.1383 -0.3935 -0.0000
  637MOL0     C85865   9.613   3.439   1.169  0.5435 -0.7523  0.9739
  637MOL0     C85866   9.502   3.516   1.208 -0.6334  0.3084  0.4101
  637MOL0     C85867   9.383   3.476   1.260  0.4761  0.7332  0.3422
  637MOL0     O85868   9.267   3.547   1.295  0.9190 -0.2374  0.2684
  637MOL0     C85869   9.240   3.666   1.220  0.1031  0.3724  0.2996
  637MOL0     C85870   9.094   3.693   1.226 -0.1888 -0.0695  0.4929
  637MOL0     C85871   9.056   3.787   1.116  0.3376 -0.8105 -0.5106
  637MOL0     C85872   8.940   3.861   1.177 -0.2042  0.2643 -0.5624
  637MOL0     C85873   8.908   3.985   1.084  0.3191  0.2219  0.9593
  637MOL0     C85874   8.774   4.062   1.128 -0.2673  0.0188  0.0056
  637MOL0     C85875   8.645   3.980   1.107 -0.6138  0.0697  0.5119
  637MOL0     C85876   8.534   4.025   1.207  0.4909  0.4669 -0.0361
  637MOL0     N85877   8.403   3.980   1.156  0.4113 -0.5236  0.3710
  637MOL0     C85878   8.339   3.875   1.211  0.3240 -0.4587  0.3000
  637MOL0     C85879   8.219   3.880   1.146 -0.0889 -0.0573 -0.4748
  637MOL0     C85880   8.109   3.785   1.165  0.3902  0.4585  0.3310
  637MOL0     C85881   8.069   3.782   1.313  0.2927 -0.0332 -0.1424
  637MOL0     C85882   7.928   3.715   1.336  0.0525 -0.1309 -0.3716
  637MOL0     C85883   7.928   3.573   1.266 -0.4954 -0.0180  0.4805
  637MOL0     O85884   7.861   3.470   1.339 -0.3997  0.7328 -0.6677
  637MOL0     C85885   7.729   3.493   1.383 -0.0505 -0.0014  0.7804
  637MOL0     C85886   7.631   3.551   1.308  0.1607 -0.9596 -0.8321
  637MOL0     C85887   7.493   3.566   1.356 -0.4963 -0.3468 -0.3398
  637MOL0     C85888   7.402   3.635   1.268  0.3922  0.1114 -0.2013
  637MOL0     C85889   7.462   3.521   1.483 -0.6233  0.3893 -0.0556
  637MOL0     C85890   7.324   3.540   1.549  0.4460 -0.4145 -0.1859
  637MOL0     O85891   7.306   3.490   1.675 -0.1833 -0.3539 -0.3427
  637MOL0     C85892   7.188   3.515   1.739 -0.0441 -0.3716  0.0641
  637MOL0     C85893   7.078   3.438   1.705 -0.4962 -1.2259  0.1577
  637MOL0     C85894   6.950   3.460   1.764  0.1793 -0.2693 -0.4183
  637MOL0     C85895   6.939   3.559   1.859  1.1826 -0.8127  0.2670
  637MOL0     O85896   6.817   3.572   1.926 -0.2167  0.1225  0.2565
  637MOL0     C85897   6.786   3.693   1.988 -0.3433  0.9056 -0.4714
  637MOL0     C85898   6.630   3.695   1.994 -0.4297  0.0843  0.0953
  637MOL0     C85899   6.581   3.579   2.074 -0.2097  0.6324 -0.0604
  637MOL0     C85900   6.447   3.528   2.005 -0.1785 -0.2082  0.8842
  637MOL0     C85901   6.334   3.638   2.030 -0.2585 -0.0703  0.1443
  637MOL0     C85902   6.197   3.601   1.974  0.5082 -0.3012 -0.3078
  637MOL0     C85903   6.073   3.654   2.060 -0.1579 -0.3153 -0.1597
  637MOL0     C85904   5.938   3.619   1.994  0.6093  0.3142  0.0178
  637MOL0    Cl85905   5.798   3.684   2.088 -0.4409  0.2803 -0.7885
  637MOL0     C85906   7.052   3.645   1.885 -0.5589 -1.2835  0.9417
  637MOL0     C85907   7.180   3.621   1.830  0.1144 -0.0570  0.6007
  637MOL0     O85908   7.235   3.591   1.485 -0.3077  0.1735 -0.5576
  637MOL0     C85909   7.559   3.451   1.558 -0.6383 -0.5258  0.4284
  637MOL0     C85910   7.692   3.444   1.512 -0.0556 -0.4342  0.0289
  637MOL0     N85911   8.212   3.989   1.061  0.1615 -0.4310  0.1949
  637MOL0     N85912   8.322   4.051   1.070 -0.0241  0.0280 -1.4878
  637MOL0     C85913   9.372   3.341   1.282 -0.4223  0.7578  0.0039
  637MOL0     C85914   9.479   3.253   1.248 -0.7852  0.0640 -0.6911
  637MOL0     C85915   9.925   3.147   1.142 -0.2147  0.7485  0.2069
  637MOL0     C85916   9.887   3.046   1.044  0.3310  0.6198 -0.0916
  637MOL0     C85917   9.984   2.957   0.994 -0.2108  0.6784  0.5931
  637MOL0     C85918  10.117   2.966   1.035  0.7489  0.0844 -0.0801
  637MOL0     O85919  10.206   2.878   0.983  0.0249  0.2242  0.5965
  637MOL0     C85920  10.334   2.871   1.048  0.3527  0.4914  0.1682
  637MOL0     C85921  10.406   2.747   0.992 -0.2462 -0.1990  0.4058
  637MOL0     C85922  10.548   2.726   1.058 -0.0234  0.0233  0.5181
  637MOL0     C85923  10.589   2.577   1.053  0.2953 -0.3789 -0.6251
  637MOL0     C85924  10.629   2.529   0.922 -0.0798 -0.3799 -0.0576
  637MOL0     C85925  10.676   2.507   0.814 -0.0003  0.4148  1.2990
  637MOL0     C85926  10.145   3.069   1.119  0.0165  0.8569 -0.1488
  637MOL0     C85927  10.051   3.148   1.172 -0.5719 -0.2834 -0.1780
  637MOL0     H85928   9.698   3.493   1.129  1.3333 -2.2763  0.5143
  637MOL0     H85929   9.518   3.620   1.184 -0.3244  0.6232  1.8842
  637MOL0     H85930   9.292   3.754   1.261 -0.9574  1.8477 -1.3497
  637MOL0     H85931   9.287   3.658   1.122  3.6506  3.1062  1.5220
  637MOL0     H85932   9.035   3.601   1.221 -0.3879  0.1107 -0.7854
  637MOL0     H85933   9.082   3.739   1.324 -1.1293  1.2410 -0.1957
  637MOL0     H85934   9.137   3.859   1.100 -0.2183  0.9171  3.2937
  637MOL0     H85935   9.034   3.731   1.025 -2.1289 -1.3143  0.3313
  637MOL0     H85936   8.857   3.791   1.192  0.1244  0.2598  1.3717
  637MOL0     H85937   8.974   3.912   1.268  0.4326  0.1772 -0.7475
  637MOL0     H85938   8.994   4.052   1.078  2.6231 -2.4953  1.3566
  637MOL0     H85939   8.897   3.950   0.981  1.5970  0.7775  0.6228
  637MOL0     H85940   8.785   4.079   1.235 -3.3877 -0.5399  0.5240
  637MOL0     H85941   8.756   4.161   1.087 -0.2624  1.0045  2.2388
  637MOL0     H85942   8.620   3.983   1.001 -0.3254 -0.3582  0.4280
  637MOL0     H85943   8.667   3.874   1.123  0.5192 -0.0524 -1.5254
  637MOL0     H85944   8.546   4.132   1.226  4.6821 -0.0758  1.6744
  637MOL0     H85945   8.551   3.981   1.306  1.3508 -1.0105 -0.8028
  637MOL0     H85946   8.376   3.784   1.258  2.3604 -0.7875 -1.7504
  637MOL0     H85947   8.019   3.810   1.107  0.9831  1.1995 -0.2819
  637MOL0     H85948   8.148   3.688   1.134  2.1223  0.8987  1.0458
  637MOL0     H85949   8.081   3.881   1.359  1.7257 -1.0289  1.8028
  637MOL0     H85950   8.144   3.718   1.362  2.1189  0.5051 -2.0793
  637MOL0     H85951   7.839   3.771   1.305 -0.7233  0.4876  2.7138
  637MOL0     H85952   7.916   3.701   1.443 -0.6042 -0.1482 -0.4407
  637MOL0     H85953   8.030   3.540   1.243 -0.8367  0.4674 -1.9692
  637MOL0     H85954   7.886   3.578   1.165  2.5957  0.9639 -0.8838
  637MOL0     H85955   7.648   3.567   1.202  0.5711 -2.4045 -0.9943
  637MOL0     H85956   7.399   3.743   1.285 -1.1661  0.1096 -0.3638
  637MOL0     H85957   7.431   3.621   1.163  0.9537  0.4515 -0.0975
  637MOL0     H85958   7.299   3.599   1.269  0.2801  0.3610  1.6609
  637MOL0     H85959   7.087   3.357   1.633 -0.0109 -0.4187 -0.7098
  637MOL0     H85960   6.867   3.394   1.740  1.5280 -2.6857  1.2247
  637MOL0     H85961   6.828   3.707   2.088  1.3331 -0.9364 -0.8784
  637MOL0     H85962   6.831   3.774   1.930  2.1061 -0.6360 -0.8351
  637MOL0     H85963   6.591   3.788   2.035 -0.3573  0.2457 -0.1959
  637MOL0     H85964   6.606   3.688   1.887  0.6690 -0.6947 -0.1129
  637MOL0     H85965   6.563   3.600   2.179 -0.0110 -1.2564  0.3842
  637MOL0     H85966   6.651   3.497   2.092  0.3962  1.0440 -0.5020
  637MOL0     H85967   6.470   3.503   1.901  1.1688 -1.7349  1.5042
  637MOL0     H85968   6.413   3.437   2.056 -2.1604  0.7614  1.3774
  637MOL0     H85969   6.362   3.738   1.996 -3.2921  1.5268  1.8752
  637MOL0     H85970   6.317   3.653   2.137  0.7484  1.9782  0.0673
  637MOL0     H85971   6.190   3.631   1.869 -0.1684 -2.7240 -1.0110
  637MOL0     H85972   6.187   3.492   1.967 -0.5368 -0.0817 -4.4941
  637MOL0     H85973   6.085   3.762   2.070  1.0232 -0.5468  1.4198
  637MOL0     H85974   6.070   3.611   2.161  1.5750  0.9241  0.4607
  637MOL0     H85975   5.929   3.511   1.979  0.0346  0.4295 -0.5085
  637MOL0     H85976   5.934   3.666   1.895  0.2170  1.2140  0.4498
  637MOL0     H85977   7.038   3.735   1.944 -1.1359  0.3632 -1.5615
  637MOL0     H85978   7.263   3.688   1.850  0.7950 -0.6290 -0.2828
  637MOL0     H85979   7.533   3.400   1.650 -1.4900 -2.2049 -0.6990
  637MOL0     H85980   7.774   3.412   1.576 -0.5249  1.4622  1.6646
  637MOL0     H85981   9.286   3.302   1.337 -0.2858  0.9102  0.3259
  637MOL0     H85982   9.466   3.152   1.284  2.9650  0.3775  2.1276
  637MOL0     H85983   9.787   3.036   1.003  0.2186 -0.4616  0.3901
  637MOL0     H85984   9.959   2.882   0.919 -1.0973  1.8004 -0.2663
  637MOL0     H85985  10.397   2.959   1.031 -1.6419  1.5498 -2.5234
  637MOL0     H85986  10.308   2.860   1.153  0.0760 -1.5405 -0.0707
  637MOL0     H85987  10.431   2.764   0.887 -0.3422  0.8388  0.5418
  637MOL0     H85988  10.343   2.658   1.003  0.8222 -1.1659 -0.8910
  637MOL0     H85989  10.542   2.758   1.162  2.6057 -0.0032  0.7416
  637MOL0     H85990  10.627   2.785   1.009 -0.7411 -0.8557 -1.8376
  637MOL0     H85991  10.505   2.513   1.080  0.3758 -0.6353 -0.9704
  637MOL0     H85992  10.675   2.560   1.119 -1.0555 -1.1123  1.0229
  637MOL0     H85993  10.725   2.504   0.719  2.1660  0.4849  2.3356
  637MOL0     H85994  10.243   3.077   1.165  0.4905  0.0731 -0.9788
  637MOL0     H85995  10.083   3.217   1.249 -0.1853  0.4996 -1.0272
  638MOL0     O85996   5.271   4.856   6.555  0.3870 -0.1103 -0.0095
  638MOL0     C85997   5.188   4.789   6.610 -0.5197 -0.2946  0.8821
  638MOL0     O85998   5.062   4.826   6.663  0.5651  0.0627  0.3092
  638MOL0     C85999   5.023   4.956   6.685  0.2035 -0.0980 -0.1091
  638MOL0     C86000   4.899   5.017   6.654  0.1242 -0.5493  0.9901
  638MOL0     C86001   4.863   5.149   6.695 -0.0101  0.5844 -0.0175
  638MOL0     C86002   4.953   5.227   6.772  0.1049 -0.5286 -0.3095
  638MOL0     O86003   4.942   5.353   6.826 -0.2496 -0.0546  0.1296
  638MOL0     C86004   4.818   5.420   6.799  0.0761  0.0934 -0.1030
  638MOL0     C86005   4.712   5.376   6.906  0.3265 -0.0799 -0.3070
  638MOL0     C86006   4.565   5.401   6.867 -1.1667 -0.9222  0.8126
  638MOL0     C86007   4.522   5.547   6.905 -0.6552  0.2436  0.0523
  638MOL0     C86008   4.378   5.576   6.849  0.1413 -0.2194  0.1384
  638MOL0     C86009   4.275   5.478   6.890  0.6422 -0.4076 -1.1667
  638MOL0     C86010   4.136   5.512   6.839  0.3028  0.7460 -0.0018
  638MOL0     C86011   4.047   5.392   6.874 -0.1056  0.6059 -0.2914
  638MOL0     N86012   3.907   5.415   6.835 -0.2193  0.3461  0.5137
  638MOL0     C86013   3.821   5.520   6.869 -0.7817 -0.9678  0.1512
  638MOL0     C86014   3.705   5.500   6.804  0.1549  0.0800 -0.0697
  638MOL0     C86015   3.587   5.586   6.794 -0.3285 -0.6525  0.6428
  638MOL0     C86016   3.502   5.562   6.917 -0.1768  0.1774 -0.9415
  638MOL0     C86017   3.376   5.650   6.913  0.1692  0.3041  0.2467
  638MOL0     C86018   3.313   5.650   7.045  0.8731 -0.4219 -0.8154
  638MOL0     O86019   3.198   5.730   7.062  0.3138 -0.2152  0.0206
  638MOL0     C86020   3.078   5.682   7.038  0.3344  0.8003 -0.1480
  638MOL0     C86021   2.977   5.776   7.072  0.9838  0.0591 -0.1254
  638MOL0     C86022   2.842   5.735   7.058 -0.4317 -0.1680 -0.4129
  638MOL0     C86023   2.748   5.825   7.119 -0.3037 -0.7238 -0.4257
  638MOL0     C86024   2.807   5.614   6.995  0.3372  0.7503  0.1728
  638MOL0     C86025   2.669   5.561   6.987 -0.3157  0.3085 -0.0020
  638MOL0     O86026   2.574   5.648   6.950 -0.0108 -0.0969  0.4005
  638MOL0     C86027   2.442   5.618   6.933 -0.0442 -0.8110 -0.4330
  638MOL0     C86028   2.352   5.713   6.878  1.0113  0.3099  0.6166
  638MOL0     C86029   2.218   5.685   6.868  0.4206  0.0311 -0.4935
  638MOL0     C86030   2.153   5.573   6.919 -0.0464  0.3830  0.9242
  638MOL0     O86031   2.025   5.530   6.910 -0.2086  0.2106 -0.5762
  638MOL0     C86032   1.938   5.632   6.856 -0.0332 -0.9808  0.0946
  638MOL0     C86033   1.805   5.568   6.846 -0.4795 -0.5243  0.4158
  638MOL0     C86034   1.750   5.514   6.972  0.0161  0.1351 -0.1350
  638MOL0     C86035   1.600   5.472   6.945 -0.3644 -0.1420 -0.4948
  638MOL0     C86036   1.527   5.424   7.073 -0.6634  0.4247 -0.2342
  638MOL0     C86037   1.386   5.367   7.062 -0.2211 -0.8477  0.1546
  638MOL0     C86038   1.292   5.477   7.006  0.4161 -0.1382 -0.4479
  638MOL0     C86039   1.151   5.422   6.997 -0.1608 -0.3697  0.3498
  638MOL0    Cl86040   1.060   5.424   7.147  0.0185 -0.5160 -0.0526
  638MOL0     C86041   2.239   5.490   6.983 -0.7120 -0.0041  0.4265
  638MOL0     C86042   2.378   5.510   6.996 -0.8448  0.2620  0.1451
  638MOL0     O86043   2.653   5.442   7.009  0.2868 -0.1228  0.3837
  638MOL0     C86044   2.917   5.528   6.956  0.4649  0.6708  0.4601
  638MOL0     C86045   3.047   5.561   6.978  0.0578  0.7149 -0.3800
  638MOL0     N86046   3.718   5.385   6.733 -0.1415  0.3808 -0.1613
  638MOL0     N86047   3.839   5.339   6.750  0.2622 -0.7384  0.0487
  638MOL0     C86048   5.080   5.173   6.781 -0.0613  0.0023 -0.2406
  638MOL0     C86049   5.112   5.046   6.747 -0.5362 -0.3892  0.6433
  638MOL0     C86050   5.236   4.651   6.630 -0.4464 -0.7319 -0.2224
  638MOL0     C86051   5.164   4.568   6.719  0.3348  0.0571 -0.5627
  638MOL0     C86052   5.197   4.434   6.739 -0.3194  0.4466 -0.7926
  638MOL0     C86053   5.316   4.387   6.680 -1.2302  0.3197  0.7480
  638MOL0     O86054   5.358   4.258   6.691  0.7716  0.3321 -0.5851
  638MOL0     C86055   5.282   4.163   6.758 -0.1380  0.9589 -0.8933
  638MOL0     C86056   5.144   4.114   6.699  0.4050  0.4286 -0.4411
  638MOL0     C86057   5.158   4.026   6.571 -0.5762 -0.1277 -0.8316
  638MOL0     C86058   5.017   3.988   6.513 -0.4050  0.6017  0.8362
  638MOL0     C86059   5.032   3.911   6.390 -0.1694 -0.0784 -0.7410
  638MOL0     C86060   5.038   3.845   6.286 -0.3411 -0.2314 -0.0845
  638MOL0     C86061   5.392   4.476   6.602 -0.4604  0.0763  0.3191
  638MOL0     C86062   5.350   4.607   6.568  0.2144  0.3497  0.3153
  638MOL0     H86063   4.829   4.957   6.597  0.1234 -0.0341  0.4474
  638MOL0     H86064   4.759   5.172   6.678 -1.3236 -4.8726 -0.9231
  638MOL0     H86065   4.828   5.529   6.797  0.2274  0.1213  1.3390
  638MOL0     H86066   4.785   5.390   6.699 -1.1113 -1.0240  0.5913
  638MOL0     H86067   4.718   5.268   6.925 -0.7035 -0.7275 -3.2348
  638MOL0     H86068   4.727   5.428   7.001  0.8849 -0.7937  0.0085
  638MOL0     H86069   4.553   5.380   6.760 -2.9448 -0.3714  0.8677
  638MOL0     H86070   4.506   5.331   6.927  1.0474 -3.0609  0.6221
  638MOL0     H86071   4.525   5.549   7.014 -1.5712 -1.3079  0.1429
  638MOL0     H86072   4.582   5.625   6.858 -1.4990  2.4288  2.3703
  638MOL0     H86073   4.357   5.680   6.875  0.7158  1.0720 -3.9876
  638MOL0     H86074   4.397   5.561   6.743  0.6380  1.2723 -0.0043
  638MOL0     H86075   4.308   5.378   6.859  1.4357  0.0636 -1.8815
  638MOL0     H86076   4.260   5.476   6.998 -0.2132  0.6639 -1.2511
  638MOL0     H86077   4.091   5.599   6.888 -1.2131  0.2643 -0.4776
  638MOL0     H86078   4.146   5.532   6.732  1.9547  2.1317  0.3798
  638MOL0     H86079   4.054   5.364   6.980 -1.5898  0.3163 -0.2597
  638MOL0     H86080   4.089   5.309   6.816 -4.2998 -1.5110 -0.6696
  638MOL0     H86081   3.853   5.606   6.926  1.1253 -1.7050  0.2616
  638MOL0     H86082   3.606   5.692   6.777 -1.5937 -0.3238  1.1809
  638MOL0     H86083   3.534   5.553   6.704  2.6069 -1.4490 -0.9164
  638MOL0     H86084   3.557   5.584   7.008  0.7994 -3.0265 -0.6175
  638MOL0     H86085   3.473   5.456   6.918  0.3213 -0.0753  3.0338
  638MOL0     H86086   3.312   5.608   6.835  0.6815 -1.9838  0.9855
  638MOL0     H86087   3.416   5.751   6.904  0.5404  0.4072  2.4045
  638MOL0     H86088   3.393   5.688   7.109  1.3236  0.7526 -2.0333
  638MOL0     H86089   3.294   5.546   7.074 -0.2367 -0.2957 -1.0465
  638MOL0     H86090   3.007   5.868   7.121 -1.5334  1.2245 -0.5787
  638MOL0     H86091   2.771   5.931   7.113 -2.5860  0.1012  2.7739
  638MOL0     H86092   2.644   5.810   7.088 -0.3642 -1.5470  0.1458
  638MOL0     H86093   2.755   5.810   7.227  0.3152  2.6975  0.1204
  638MOL0     H86094   2.400   5.807   6.852 -0.4671  0.7493 -0.6644
  638MOL0     H86095   2.156   5.766   6.830 -0.2285 -0.1807  0.0774
  638MOL0     H86096   1.937   5.724   6.915 -1.7612 -0.1362 -1.1542
  638MOL0     H86097   1.967   5.670   6.757 -4.8376  1.6026 -0.6525
  638MOL0     H86098   1.742   5.646   6.800 -1.0374 -1.5149 -0.5448
  638MOL0     H86099   1.808   5.485   6.775  2.2962 -0.2312  0.0967
  638MOL0     H86100   1.769   5.593   7.045 -1.0588  0.5465 -0.2823
  638MOL0     H86101   1.807   5.422   6.987 -0.7429 -0.4385 -0.7317
  638MOL0     H86102   1.536   5.554   6.912 -2.6243 -1.2227  0.9270
  638MOL0     H86103   1.603   5.387   6.875  4.4261 -3.5879  3.1987
  638MOL0     H86104   1.522   5.513   7.137 -1.0140 -1.4498  2.5018
  638MOL0     H86105   1.589   5.346   7.116  0.5801  1.5151  0.0013
  638MOL0     H86106   1.384   5.279   6.998 -0.5172 -1.1385  0.5581
  638MOL0     H86107   1.355   5.330   7.160  1.6212 -0.0636  1.0828
  638MOL0     H86108   1.331   5.512   6.910  1.1963  3.4685  1.0323
  638MOL0     H86109   1.296   5.571   7.061 -1.1644  0.0181 -0.5387
  638MOL0     H86110   1.155   5.317   6.967 -1.4963  0.3316 -2.6409
  638MOL0     H86111   1.092   5.477   6.923  0.6838  1.5593  1.0251
  638MOL0     H86112   2.193   5.409   7.039  1.2070 -0.9382  0.7396
  638MOL0     H86113   2.434   5.441   7.057  1.3740  1.7287 -0.1327
  638MOL0     H86114   2.893   5.429   6.919 -1.2994  1.1189  0.3116
  638MOL0     H86115   3.125   5.487   6.961 -0.7448 -0.5192  1.0562
  638MOL0     H86116   5.163   5.231   6.820 -0.6957 -0.7772  2.4868
  638MOL0     H86117   5.215   5.011   6.749 -0.7201 -0.9292  0.8830
  638MOL0     H86118   5.069   4.596   6.764  1.0185  2.5567 -0.4853
  638MOL0     H86119   5.141   4.368   6.804 -0.2998  0.9801 -0.2334
  638MOL0     H86120   5.352   4.080   6.762  0.4368  1.4916  1.1171
  638MOL0     H86121   5.270   4.195   6.862 -1.3878 -0.7549 -0.4628
  638MOL0     H86122   5.104   4.201   6.646  0.2552 -0.3919 -1.7290
  638MOL0     H86123   5.083   4.074   6.780  0.5618  0.0591 -0.5048
  638MOL0     H86124   5.190   3.934   6.621 -3.5018 -1.0148 -0.4004
  638MOL0     H86125   5.225   4.071   6.498  1.4728 -1.0406  0.4050
  638MOL0     H86126   4.959   4.078   6.493 -2.0375 -0.4445  0.6845
  638MOL0     H86127   4.962   3.922   6.579  1.1688 -1.5848  0.0938
  638MOL0     H86128   5.039   3.789   6.195 -2.0148 -1.1098  0.3969
  638MOL0     H86129   5.486   4.436   6.563 -0.2886 -1.6979  2.3881
  638MOL0     H86130   5.405   4.675   6.504  0.5766  1.2969  1.5781
  639MOL0     O86131   5.093   9.144  11.131  0.4315  0.6976  0.0253
  639MOL0     C86132   5.191   9.213  11.110 -0.3508  0.1175  0.0436
  639MOL0     O86133   5.200   9.320  11.019  0.0105  0.0732 -0.1328
  639MOL0     C86134   5.081   9.385  10.988 -0.5930 -0.3108  0.6919
  639MOL0     C86135   4.985   9.342  10.895 -0.1192 -0.2810  0.5663
  639MOL0     C86136   4.866   9.416  10.881  0.4127  0.1894 -0.2175
  639MOL0     C86137   4.834   9.522  10.968  0.5833 -0.4208  0.3631
  639MOL0     O86138   4.718   9.592  10.942  0.7323  0.0979  0.7351
  639MOL0     C86139   4.659   9.683  11.040 -0.0376 -0.1291  0.6485
  639MOL0     C86140   4.521   9.721  10.995  0.0256  0.5839 -0.5162
  639MOL0     C86141   4.519   9.790  10.860 -0.8761 -1.1468  0.8908
  639MOL0     C86142   4.607   9.920  10.847  0.1245 -0.5023  1.0219
  639MOL0     C86143   4.635   9.976  10.705  0.8275 -0.9675 -0.0638
  639MOL0     C86144   4.508   9.997  10.624 -0.6459  0.3390 -0.0701
  639MOL0     C86145   4.533  10.058  10.482  0.0394 -0.2755 -0.0601
  639MOL0     C86146   4.574  10.205  10.476  0.5393 -0.1424  0.1825
  639MOL0     N86147   4.489  10.290  10.554  1.2394  0.9702 -0.2656
  639MOL0     C86148   4.351  10.290  10.544  0.5789 -0.6137  0.2427
  639MOL0     C86149   4.313  10.387  10.629 -0.2137 -0.8272 -0.0117
  639MOL0     C86150   4.180  10.421  10.681 -0.5293 -0.2024  0.2513
  639MOL0     C86151   4.116  10.306  10.760  0.2162 -0.5513  0.1756
  639MOL0     C86152   3.978  10.340  10.824  1.0995 -0.6084  0.4310
  639MOL0     C86153   3.917  10.222  10.905 -0.0275 -0.3506 -0.4244
  639MOL0     O86154   3.889  10.117  10.812 -0.1145  0.3587  0.5823
  639MOL0     C86155   3.782  10.041  10.851 -0.1239 -0.0348  0.0500
  639MOL0     C86156   3.664  10.056  10.782 -0.2540  0.0080  0.2228
  639MOL0     C86157   3.554   9.987  10.823  0.6945  0.3125 -0.0988
  639MOL0     C86158   3.433  10.014  10.737  0.9672 -0.0266  0.2083
  639MOL0     C86159   3.567   9.879  10.924  0.8621 -0.2850  0.2104
  639MOL0     C86160   3.445   9.804  10.973 -0.1067  0.1308  1.2220
  639MOL0     O86161   3.459   9.761  11.095 -0.2689  0.4167 -0.1261
  639MOL0     C86162   3.347   9.718  11.158  0.2097 -0.0558 -0.1083
  639MOL0     C86163   3.377   9.616  11.253  0.2628 -0.9271 -0.3086
  639MOL0     C86164   3.285   9.581  11.356 -0.2549  0.1090 -0.3228
  639MOL0     C86165   3.155   9.638  11.356 -0.1557 -0.5105 -0.3161
  639MOL0     O86166   3.050   9.600  11.442  0.4149  0.0361  0.8687
  639MOL0     C86167   3.106   9.536  11.557  0.2958 -0.9492  0.4633
  639MOL0     C86168   3.009   9.525  11.674 -0.2941  0.7666 -0.2927
  639MOL0     C86169   2.876   9.455  11.655 -0.3967 -0.1012 -0.4766
  639MOL0     C86170   2.778   9.468  11.774 -0.7451  1.3011  0.2126
  639MOL0     C86171   2.638   9.441  11.724  0.1994 -0.3594 -0.3682
  639MOL0     C86172   2.538   9.407  11.846  0.3984  0.7778 -0.1743
  639MOL0     C86173   2.561   9.485  11.971  0.2493  1.1018 -0.9633
  639MOL0     C86174   2.463   9.432  12.073  0.4714  0.0962 -1.1985
  639MOL0    Cl86175   2.302   9.504  12.034 -0.3478  0.3911 -0.4187
  639MOL0     C86176   3.130   9.730  11.255  0.8221 -0.7278  0.4361
  639MOL0     C86177   3.220   9.778  11.156  0.2672  0.3332  0.3356
  639MOL0     O86178   3.355   9.782  10.901 -0.1461 -0.2706 -0.1687
  639MOL0     C86179   3.685   9.868  10.991  0.0036 -0.1146 -0.7921
  639MOL0     C86180   3.789   9.951  10.959 -0.5364  0.2774 -0.2978
  639MOL0     N86181   4.428  10.443  10.692  0.6124 -0.0952  1.0749
  639MOL0     N86182   4.529  10.382  10.648  0.3583 -0.2038  0.3779
  639MOL0     C86183   4.939   9.560  11.055  0.3378  0.2232 -0.3739
  639MOL0     C86184   5.065   9.497  11.067  0.2943 -0.2609 -0.0114
  639MOL0     C86185   5.301   9.173  11.192  0.6571  0.6684  0.0220
  639MOL0     C86186   5.292   9.066  11.285 -0.9249  0.8056  0.3439
  639MOL0     C86187   5.397   9.038  11.373  1.2734  0.6133  0.7082
  639MOL0     C86188   5.515   9.116  11.365  0.5931  0.0982 -1.1812
  639MOL0     O86189   5.629   9.116  11.452 -0.6140 -0.2531  0.4598
  639MOL0     C86190   5.616   9.024  11.562  0.3794 -0.9846 -0.1449
  639MOL0     C86191   5.737   9.040  11.649  0.0373  0.0577  0.9689
  639MOL0     C86192   5.858   8.972  11.589  0.5220 -0.2057 -0.3703
  639MOL0     C86193   5.981   8.983  11.667 -0.0244 -0.3258 -0.5216
  639MOL0     C86194   6.043   9.116  11.677 -0.1757 -0.7402 -0.1056
  639MOL0     C86195   6.090   9.229  11.682 -0.1025 -0.1993 -0.1137
  639MOL0     C86196   5.521   9.221  11.274  0.2709  0.4779 -0.8205
  639MOL0     C86197   5.413   9.255  11.190 -0.6714 -0.3983  0.2166
  639MOL0     H86198   5.022   9.272  10.820  0.5988  2.1804 -1.5424
  639MOL0     H86199   4.801   9.387  10.799  0.1201  1.3754 -0.4236
  639MOL0     H86200   4.655   9.628  11.134 -2.5114  0.3386  0.8621
  639MOL0     H86201   4.718   9.774  11.052 -0.0489 -0.0341  0.0515
  639MOL0     H86202   4.464   9.630  10.972 -0.3540  0.7884 -0.3974
  639MOL0     H86203   4.467   9.773  11.074  0.5932 -2.2663  1.9162
  639MOL0     H86204   4.568   9.719  10.792 -0.0317  1.2213 -1.1400
  639MOL0     H86205   4.417   9.817  10.830 -0.3851  0.6761  0.7531
  639MOL0     H86206   4.552   9.987  10.913  1.1366 -1.5423  3.0221
  639MOL0     H86207   4.710   9.897  10.875  0.8556  0.4346 -0.6943
  639MOL0     H86208   4.703  10.061  10.692  0.9369 -0.9688  0.4817
  639MOL0     H86209   4.683   9.890  10.658  2.2498  0.5089 -1.4124
  639MOL0     H86210   4.463   9.901  10.596  1.9519 -1.1411  0.5220
  639MOL0     H86211   4.440  10.058  10.685 -0.6165  0.2724  0.0278
  639MOL0     H86212   4.603   9.993  10.430  1.3720  1.7045 -0.8472
  639MOL0     H86213   4.434  10.062  10.436  0.8256  2.7204 -1.7549
  639MOL0     H86214   4.572  10.235  10.371 -1.6599 -0.2907  0.1232
  639MOL0     H86215   4.674  10.225  10.516  0.2947  0.8603  0.3265
  639MOL0     H86216   4.276  10.229  10.495  0.5288  0.7090 -1.4316
  639MOL0     H86217   4.182  10.511  10.744 -1.8444  0.3423 -0.4438
  639MOL0     H86218   4.115  10.446  10.597  0.2183 -1.3802 -0.7244
  639MOL0     H86219   4.186  10.275  10.838  0.3925  2.7562  1.5024
  639MOL0     H86220   4.096  10.226  10.688 -0.4105  1.1838 -1.6861
  639MOL0     H86221   3.899  10.360  10.751 -3.6614 -0.4683  5.0093
  639MOL0     H86222   3.988  10.427  10.890  0.3689  0.6414 -1.0413
  639MOL0     H86223   3.825  10.263  10.948 -0.3783 -0.0034 -1.4786
  639MOL0     H86224   3.981  10.193  10.989 -2.2158 -2.6665  0.5756
  639MOL0     H86225   3.677  10.127  10.702  1.3387  1.2167  1.4808
  639MOL0     H86226   3.341  10.030  10.794  0.2266  0.5264 -1.0875
  639MOL0     H86227   3.453  10.105  10.678 -0.0183  1.3414  1.8780
  639MOL0     H86228   3.406   9.934  10.667 -0.1041 -1.3748  2.0811
  639MOL0     H86229   3.482   9.588  11.252  1.4821  2.9995  0.2467
  639MOL0     H86230   3.328   9.510  11.426  0.2878  0.0928 -0.6642
  639MOL0     H86231   3.133   9.433  11.532 -1.4166 -0.6571 -3.2808
  639MOL0     H86232   3.190   9.597  11.594 -1.7070 -0.3889  4.6680
  639MOL0     H86233   3.066   9.473  11.752 -0.2477  2.2876  0.7184
  639MOL0     H86234   2.995   9.626  11.713 -0.8813  1.8588 -3.0400
  639MOL0     H86235   2.891   9.347  11.662 -0.7345 -0.0810  0.7742
  639MOL0     H86236   2.840   9.486  11.557  3.0969  0.5375 -1.6904
  639MOL0     H86237   2.809   9.395  11.850  2.2660  0.3504 -1.7351
  639MOL0     H86238   2.786   9.564  11.826  2.0291  0.2007  2.0397
  639MOL0     H86239   2.647   9.360  11.652  2.7408  0.0731 -0.6023
  639MOL0     H86240   2.598   9.533  11.679 -0.5133 -0.1828  0.5910
  639MOL0     H86241   2.435   9.421  11.812 -0.9192 -1.8002  2.3299
  639MOL0     H86242   2.554   9.300  11.861  0.4960  0.6794 -0.9114
  639MOL0     H86243   2.542   9.592  11.963 -4.1985  0.4818 -1.2160
  639MOL0     H86244   2.663   9.466  12.007 -0.7387 -0.2633  1.3673
  639MOL0     H86245   2.476   9.477  12.172 -2.5328 -0.3890 -0.4798
  639MOL0     H86246   2.455   9.324  12.081 -1.0371  0.3311  2.1271
  639MOL0     H86247   3.031   9.773  11.243 -0.0654 -3.2490 -2.8359
  639MOL0     H86248   3.187   9.862  11.096 -2.7038  0.7794  2.3745
  639MOL0     H86249   3.701   9.795  11.070  3.5340  0.5858 -0.6583
  639MOL0     H86250   3.881   9.942  11.015 -0.9065  1.2537  0.5073
  639MOL0     H86251   4.903   9.645  11.112  2.1585  0.9582 -0.2627
  639MOL0     H86252   5.149   9.540  11.120  0.5062 -2.0405  1.1899
  639MOL0     H86253   5.203   9.006  11.299  0.0599 -0.9773 -0.6711
  639MOL0     H86254   5.386   8.960  11.448 -0.9916  0.1599 -0.0292
  639MOL0     H86255   5.528   9.042  11.625  0.1768  3.2117 -1.3676
  639MOL0     H86256   5.614   8.923  11.519 -1.0048 -0.3994 -1.5721
  639MOL0     H86257   5.699   8.997  11.742 -0.2570 -0.6180  0.5447
  639MOL0     H86258   5.767   9.142  11.671  1.3253 -0.5725  2.2996
  639MOL0     H86259   5.877   9.012  11.489 -0.9613  1.1685 -0.1384
  639MOL0     H86260   5.840   8.864  11.584 -0.7615 -0.1013  1.2329
  639MOL0     H86261   6.053   8.910  11.628  1.4604  1.8599 -2.1033
  639MOL0     H86262   5.939   8.955  11.764  1.7553 -0.5086  0.2351
  639MOL0     H86263   6.142   9.321  11.702  0.4249 -0.5751  0.2293
  639MOL0     H86264   5.612   9.280  11.268 -0.5596  1.7299 -1.4708
  639MOL0     H86265   5.423   9.332  11.114 -0.1237 -1.3618 -0.7177
  640MOL0     O86266   2.684   2.579  10.057 -0.2983  0.4177  0.3547
  640MOL0     C86267   2.742   2.621   9.960  0.0677  0.3038  0.3253
  640MOL0     O86268   2.684   2.681   9.849 -0.9618 -0.1405  0.3426
  640MOL0     C86269   2.549   2.677   9.839 -0.7681 -0.3826  0.2837
  640MOL0     C86270   2.487   2.799   9.831  0.4042 -0.3136 -0.7147
  640MOL0     C86271   2.353   2.808   9.810 -0.0874  0.4216 -1.0012
  640MOL0     C86272   2.274   2.687   9.805 -0.4248  0.8294 -0.3584
  640MOL0     O86273   2.137   2.708   9.790  0.6182 -0.1526 -0.0670
  640MOL0     C86274   2.047   2.594   9.824  0.5987 -0.1575 -0.3177
  640MOL0     C86275   1.907   2.654   9.789 -0.4379 -0.0422 -0.0076
  640MOL0     C86276   1.791   2.549   9.772  0.5228 -0.7595  0.1857
  640MOL0     C86277   1.674   2.617   9.699  0.6586  0.3534  0.2242
  640MOL0     C86278   1.554   2.525   9.706 -0.4027 -0.2230  0.8442
  640MOL0     C86279   1.438   2.615   9.674 -0.6105  0.6298 -0.1300
  640MOL0     C86280   1.298   2.546   9.656 -0.7270 -0.1696 -0.7812
  640MOL0     C86281   1.290   2.450   9.540  0.5988  0.6959  0.4588
  640MOL0     N86282   1.152   2.406   9.511  0.0312  0.1080 -0.3158
  640MOL0     C86283   1.086   2.287   9.528  0.6344 -0.2906  0.0788
  640MOL0     C86284   0.964   2.293   9.459 -0.2809  0.1718 -0.4176
  640MOL0     C86285   0.871   2.177   9.433 -0.0694  0.9852  0.4770
  640MOL0     C86286   0.787   2.150   9.558  0.8535 -0.1619 -0.0265
  640MOL0     C86287   0.750   2.000   9.585 -0.1603 -0.0376 -0.6707
  640MOL0     C86288   0.611   1.989   9.632 -0.1877  0.4932 -0.9580
  640MOL0     O86289   0.524   2.024   9.520 -0.4766  0.5296  0.1289
  640MOL0     C86290   0.396   2.049   9.539  0.0080  0.0396 -0.6923
  640MOL0     C86291   0.323   2.062   9.422  0.3093  0.1351 -0.3657
  640MOL0     C86292   0.184   2.070   9.429  0.1177 -0.6869 -0.5109
  640MOL0     C86293   0.105   2.074   9.298 -0.3623  0.2138  0.1063
  640MOL0     C86294   0.120   2.075   9.555  0.8523  0.6202 -0.2966
  640MOL0     C86295  -0.027   2.095   9.572 -0.5759  0.3637 -0.1913
  640MOL0     O86296  -0.106   2.013   9.513  0.0889  0.0779  0.2712
  640MOL0     C86297  -0.245   2.013   9.528  0.0867 -0.0590 -0.6069
  640MOL0     C86298  -0.312   2.020   9.652  0.1010  0.2681  0.2656
  640MOL0     C86299  -0.445   2.018   9.668  0.1014 -0.0652 -0.8359
  640MOL0     C86300  -0.526   1.991   9.563  0.0256 -0.6057 -0.4364
  640MOL0     O86301  -0.655   1.968   9.566 -0.3213 -0.3792  0.2017
  640MOL0     C86302  -0.717   1.903   9.675  0.1878  0.3101  0.1794
  640MOL0     C86303  -0.871   1.903   9.655  0.3482 -0.5130  0.0558
  640MOL0     C86304  -0.905   1.798   9.544  0.1336 -0.2537 -0.6919
  640MOL0     C86305  -1.048   1.802   9.503  0.6291  0.3318  0.2527
  640MOL0     C86306  -1.085   1.684   9.417  0.3848 -0.2603 -0.4645
  640MOL0     C86307  -1.221   1.708   9.338 -0.5394  0.2976  0.4123
  640MOL0     C86308  -1.344   1.718   9.435  0.4242 -0.1090  0.2268
  640MOL0     C86309  -1.468   1.778   9.371 -0.3956  0.5166  0.1326
  640MOL0    Cl86310  -1.609   1.721   9.465  0.3286  0.4395  0.4908
  640MOL0     C86311  -0.470   1.992   9.435  0.8859 -0.3586  0.4165
  640MOL0     C86312  -0.326   1.996   9.421  0.4108  0.3735  0.4425
  640MOL0     O86313  -0.065   2.187   9.641 -0.0575  0.4731 -0.2960
  640MOL0     C86314   0.188   2.043   9.674 -0.1393  0.7153  0.1591
  640MOL0     C86315   0.325   2.036   9.664 -0.0901  0.9574 -0.0670
  640MOL0     N86316   0.962   2.424   9.408 -0.1457  0.0160 -0.4120
  640MOL0     N86317   1.073   2.485   9.432 -0.0435  0.8144  0.6685
  640MOL0     C86318   2.338   2.564   9.811 -0.5897 -0.2988 -0.6844
  640MOL0     C86319   2.478   2.565   9.827  0.6180  0.3255  0.4480
  640MOL0     C86320   2.893   2.607   9.956  0.4681  0.0748 -0.1191
  640MOL0     C86321   2.962   2.570  10.073 -0.4825  0.3045 -1.1901
  640MOL0     C86322   3.094   2.594  10.083 -0.1339  0.0359  0.2388
  640MOL0     C86323   3.166   2.641   9.972  0.0836 -0.5650 -0.0595
  640MOL0     O86324   3.297   2.660   9.980 -0.3199 -0.1315  0.1303
  640MOL0     C86325   3.378   2.605  10.090  0.2771  0.2992  0.5559
  640MOL0     C86326   3.391   2.449  10.075 -0.5355  0.0796  0.8471
  640MOL0     C86327   3.482   2.411   9.956  0.5374 -0.2582  0.2099
  640MOL0     C86328   3.419   2.438   9.821  0.3516 -0.4476  0.4411
  640MOL0     C86329   3.489   2.355   9.719 -0.1832  1.1164 -0.1775
  640MOL0     C86330   3.546   2.290   9.632 -0.2411  0.6276 -0.1585
  640MOL0     C86331   3.102   2.673   9.857 -0.4068 -0.2760 -0.3252
  640MOL0     C86332   2.964   2.655   9.843 -0.5071 -0.4950 -0.2514
  640MOL0     H86333   2.542   2.892   9.825  2.0249 -1.2830 -1.6012
  640MOL0     H86334   2.303   2.904   9.813  2.3109  1.7330 -0.2711
  640MOL0     H86335   2.071   2.510   9.758 -1.0067 -1.0527  0.1989
  640MOL0     H86336   2.047   2.564   9.929 -1.7941 -0.6693 -0.4267
  640MOL0     H86337   1.876   2.732   9.859 -1.0332 -0.7039  0.4748
  640MOL0     H86338   1.919   2.703   9.692  2.0794 -2.5780 -1.1197
  640MOL0     H86339   1.835   2.465   9.716  1.6407  0.8645 -1.4975
  640MOL0     H86340   1.764   2.520   9.874 -0.9291  0.7943  0.2916
  640MOL0     H86341   1.658   2.716   9.743  2.5488  2.2360 -2.9095
  640MOL0     H86342   1.695   2.642   9.594 -2.4909 -2.1445 -1.1951
  640MOL0     H86343   1.553   2.443   9.634 -0.7946 -1.1609  1.8877
  640MOL0     H86344   1.546   2.473   9.802 -1.0884 -2.5929 -0.4116
  640MOL0     H86345   1.430   2.684   9.758  0.0889 -0.5910  0.9773
  640MOL0     H86346   1.456   2.675   9.584 -0.4830 -0.0797 -0.5922
  640MOL0     H86347   1.266   2.487   9.742 -1.8329  3.7740  1.7903
  640MOL0     H86348   1.229   2.627   9.629 -0.7888 -0.1117 -0.4514
  640MOL0     H86349   1.342   2.355   9.552 -2.5093 -1.4689 -1.5805
  640MOL0     H86350   1.334   2.485   9.447  0.0193 -0.0760 -0.1200
  640MOL0     H86351   1.108   2.190   9.573  1.4094  0.2425  0.8778
  640MOL0     H86352   0.801   2.197   9.351 -0.6360 -1.6495  0.2318
  640MOL0     H86353   0.935   2.094   9.401 -1.1029  0.1808  0.4426
  640MOL0     H86354   0.697   2.207   9.534  0.0815 -1.0303  0.7282
  640MOL0     H86355   0.825   2.192   9.651  0.0925  1.4715 -0.4319
  640MOL0     H86356   0.823   1.967   9.659 -0.2651  0.9171 -0.1277
  640MOL0     H86357   0.759   1.927   9.504 -0.8711 -2.0526  0.9679
  640MOL0     H86358   0.588   2.051   9.719  1.2438 -1.6268  1.0511
  640MOL0     H86359   0.602   1.886   9.667  2.9647  0.4804  0.0824
  640MOL0     H86360   0.377   2.069   9.328  0.0493  2.3303 -0.3907
  640MOL0     H86361   0.153   2.116   9.209  0.3575  0.5569  0.6451
  640MOL0     H86362   0.094   1.968   9.272  2.5111  0.1264 -1.1696
  640MOL0     H86363   0.016   2.137   9.302  1.3675  2.8000  0.5710
  640MOL0     H86364  -0.237   2.026   9.730  2.8412 -3.0612 -1.7995
  640MOL0     H86365  -0.490   2.037   9.765  1.8601  0.8659 -0.1465
  640MOL0     H86366  -0.676   1.807   9.706  1.1956  0.6942  0.0616
  640MOL0     H86367  -0.702   1.968   9.763 -2.9629 -0.8198  1.7314
  640MOL0     H86368  -0.920   1.873   9.748  1.5805 -1.8400  0.3142
  640MOL0     H86369  -0.898   2.005   9.628  0.2643 -0.5231  0.1027
  640MOL0     H86370  -0.879   1.698   9.579  3.2636  0.9836  0.8428
  640MOL0     H86371  -0.842   1.817   9.457  1.2660 -3.1013 -0.6109
  640MOL0     H86372  -1.103   1.800   9.597  0.1555  1.4447  0.0130
  640MOL0     H86373  -1.069   1.895   9.451  0.8293 -0.0134 -0.4541
  640MOL0     H86374  -1.110   1.596   9.477  0.7359 -0.6143 -0.8267
  640MOL0     H86375  -1.007   1.666   9.343  0.9028 -0.4638  0.1190
  640MOL0     H86376  -1.220   1.803   9.284 -0.2839  1.3161  2.1217
  640MOL0     H86377  -1.242   1.624   9.272  0.8734 -0.7706  1.2610
  640MOL0     H86378  -1.307   1.773   9.523 -0.6419 -0.5144  0.9423
  640MOL0     H86379  -1.377   1.617   9.460 -1.4177  0.3106 -0.3575
  640MOL0     H86380  -1.474   1.735   9.270  0.6596  1.4068 -0.3380
  640MOL0     H86381  -1.452   1.887   9.370  1.6497  0.2538 -0.2957
  640MOL0     H86382  -0.527   1.973   9.344  1.2209 -3.5484  0.7851
  640MOL0     H86383  -0.263   1.986   9.333  5.3308  0.2145  3.5788
  640MOL0     H86384   0.137   2.009   9.763  2.2148  0.0873  1.3541
  640MOL0     H86385   0.383   1.999   9.749  2.1844 -1.8830 -2.6214
  640MOL0     H86386   2.281   2.472   9.818  2.2313 -2.2378 -1.3558
  640MOL0     H86387   2.529   2.469   9.840 -0.6471 -0.5455 -0.8225
  640MOL0     H86388   2.911   2.536  10.163  0.4192 -1.1812 -1.2159
  640MOL0     H86389   3.149   2.555  10.168  1.1501 -0.7095 -0.9054
  640MOL0     H86390   3.479   2.646  10.080  0.0229  0.9561  0.6227
  640MOL0     H86391   3.340   2.635  10.188 -1.8174  1.2714 -0.4879
  640MOL0     H86392   3.300   2.390  10.062  0.0138 -1.0780  2.0274
  640MOL0     H86393   3.422   2.404  10.169 -0.5108 -1.3343  0.1815
  640MOL0     H86394   3.518   2.308   9.964  0.9068 -0.0615  1.2896
  640MOL0     H86395   3.573   2.472   9.962 -0.1951  0.9843 -0.7000
  640MOL0     H86396   3.432   2.542   9.788  1.2523 -0.4600  0.7468
  640MOL0     H86397   3.314   2.410   9.831 -0.7502  2.5199 -1.3780
  640MOL0     H86398   3.585   2.216   9.565 -0.8101  1.1077 -1.0337
  640MOL0     H86399   3.163   2.697   9.771 -2.1823 -1.8481 -2.1402
  640MOL0     H86400   2.916   2.684   9.750 -4.4275  1.8090  2.2392
  641MOL0     O86401   1.181   5.074   2.219  0.6921 -0.2120 -0.1172
  641MOL0     C86402   1.281   5.034   2.165 -0.3115 -1.1819  0.1695
  641MOL0     O86403   1.290   4.923   2.089  0.7225  0.7639 -0.4587
  641MOL0     C86404   1.202   4.824   2.115  0.7513 -0.1571  0.0273
  641MOL0     C86405   1.217   4.745   2.229 -0.5953  0.1668 -0.6611
  641MOL0     C86406   1.129   4.646   2.266  0.3339 -1.0248  0.0679
  641MOL0     C86407   1.021   4.605   2.180 -0.2634  0.1540  0.3322
  641MOL0     O86408   0.927   4.505   2.204  0.2573 -0.0588  0.0278
  641MOL0     C86409   0.940   4.422   2.321  0.1784 -0.2038  0.5325
  641MOL0     C86410   0.806   4.369   2.350  0.4892 -0.3430  0.3702
  641MOL0     C86411   0.799   4.219   2.324  0.8753  1.4058  0.1883
  641MOL0     C86412   0.651   4.181   2.334 -0.2519  0.3683 -0.3025
  641MOL0     C86413   0.640   4.037   2.371 -0.2090  0.0910 -0.7801
  641MOL0     C86414   0.497   3.988   2.363 -0.4733  0.6296  0.7721
  641MOL0     C86415   0.470   3.850   2.405 -0.2991 -0.2860 -0.4634
  641MOL0     C86416   0.361   3.840   2.514  0.1694  0.3293  0.0770
  641MOL0     N86417   0.228   3.866   2.466 -0.1493 -0.2754 -0.2973
  641MOL0     C86418   0.171   3.988   2.457 -0.1016 -0.6680 -0.4115
  641MOL0     C86419   0.046   3.964   2.425 -0.2447  0.2280  0.2290
  641MOL0     C86420  -0.050   4.083   2.413  0.4160  0.3469  0.5980
  641MOL0     C86421  -0.196   4.049   2.442 -0.0043 -0.1207  0.7097
  641MOL0     C86422  -0.257   3.956   2.344 -0.2078  0.1465  0.5681
  641MOL0     C86423  -0.405   3.929   2.374 -0.0116 -0.5618  0.9481
  641MOL0     O86424  -0.488   4.048   2.354 -0.4156  0.0733  0.1253
  641MOL0     C86425  -0.623   4.038   2.380 -0.2548  0.3663 -0.1512
  641MOL0     C86426  -0.698   4.156   2.383 -0.1247  0.7936  0.3833
  641MOL0     C86427  -0.835   4.159   2.399  0.0754  0.1638  0.9607
  641MOL0     C86428  -0.906   4.289   2.371 -0.0249 -0.4012 -0.1430
  641MOL0     C86429  -0.902   4.036   2.415 -0.7414 -0.4422  0.2958
  641MOL0     C86430  -1.048   4.029   2.436  0.2639 -0.0274  0.7019
  641MOL0     O86431  -1.090   3.904   2.423 -0.0548 -0.1435 -0.3043
  641MOL0     C86432  -1.220   3.877   2.403  1.2968  0.5475 -0.4131
  641MOL0     C86433  -1.275   3.883   2.272  0.2702  0.1919 -0.4125
  641MOL0     C86434  -1.405   3.856   2.253  0.0980 -0.6608  1.0886
  641MOL0     C86435  -1.496   3.835   2.361 -0.0351  0.3742  0.2685
  641MOL0     O86436  -1.632   3.828   2.331 -0.1064 -0.1107  0.0174
  641MOL0     C86437  -1.724   3.891   2.424 -0.2014  0.0603  0.4823
  641MOL0     C86438  -1.871   3.905   2.358 -0.8599  0.8691  0.5881
  641MOL0     C86439  -1.962   3.961   2.459 -0.2262 -0.6056 -0.1826
  641MOL0     C86440  -2.104   3.972   2.426  0.5329  0.2480 -0.3356
  641MOL0     C86441  -2.125   4.076   2.313 -0.3980  0.0488 -0.7687
  641MOL0     C86442  -2.272   4.137   2.301 -0.1976 -0.5087 -0.4088
  641MOL0     C86443  -2.383   4.039   2.260  0.2820  0.7375  0.0038
  641MOL0     C86444  -2.517   4.066   2.334 -0.6751  0.5011 -0.1292
  641MOL0    Cl86445  -2.582   4.218   2.279 -0.3643  0.2517  0.1108
  641MOL0     C86446  -1.445   3.832   2.483 -0.7710  0.1111  0.5296
  641MOL0     C86447  -1.309   3.849   2.508  0.1352 -0.0374  0.7756
  641MOL0     O86448  -1.123   4.119   2.462  0.4527  0.4775 -0.4233
  641MOL0     C86449  -0.830   3.912   2.406  0.2855  0.0611 -0.7458
  641MOL0     C86450  -0.693   3.911   2.401  0.8044 -0.9236  0.0894
  641MOL0     N86451   0.025   3.828   2.440 -0.0235 -0.1912  0.6677
  641MOL0     N86452   0.132   3.769   2.461  0.3127  0.4645  0.2289
  641MOL0     C86453   1.004   4.683   2.069 -0.3646 -0.8890 -0.2036
  641MOL0     C86454   1.091   4.795   2.031 -0.3021  0.7773  0.2995
  641MOL0     C86455   1.390   5.140   2.166  0.0607 -0.1823  0.0055
  641MOL0     C86456   1.492   5.132   2.066 -0.4003  0.4701 -0.0014
  641MOL0     C86457   1.591   5.229   2.064 -0.4200 -0.0254  0.7519
  641MOL0     C86458   1.601   5.333   2.155  0.0886 -0.7788  0.3317
  641MOL0     O86459   1.715   5.408   2.147 -0.7161 -0.1731 -0.1499
  641MOL0     C86460   1.770   5.458   2.262  0.3267  0.0764  0.0046
  641MOL0     C86461   1.899   5.379   2.279  0.2576 -0.3720 -0.1165
  641MOL0     C86462   2.007   5.438   2.176  0.6740  0.6827 -0.6230
  641MOL0     C86463   2.142   5.359   2.176  0.3371  0.7796 -0.3389
  641MOL0     C86464   2.216   5.382   2.296 -0.0053 -0.3083 -1.0447
  641MOL0     C86465   2.272   5.383   2.403  0.3021  0.3688 -0.4881
  641MOL0     C86466   1.495   5.347   2.246  0.1090  0.4628  0.3404
  641MOL0     C86467   1.387   5.258   2.252 -0.4420  0.4372  0.0856
  641MOL0     H86468   1.300   4.761   2.296 -0.0765  1.5302 -1.5805
  641MOL0     H86469   1.143   4.604   2.365  0.6715 -1.6015 -0.2201
  641MOL0     H86470   1.013   4.342   2.305  2.0665  1.1969  1.6626
  641MOL0     H86471   0.976   4.476   2.409  0.8196  0.0634  0.1122
  641MOL0     H86472   0.786   4.391   2.456  0.9754 -2.8287  1.0473
  641MOL0     H86473   0.726   4.415   2.291  0.7813 -1.1929 -0.7109
  641MOL0     H86474   0.819   4.192   2.220  0.6777 -1.1080  0.7374
  641MOL0     H86475   0.867   4.156   2.384  0.7598  1.8375  0.7810
  641MOL0     H86476   0.594   4.240   2.407 -3.0411 -0.8760 -1.3306
  641MOL0     H86477   0.597   4.200   2.240 -2.0463 -0.8536  0.4222
  641MOL0     H86478   0.700   3.977   2.302  1.6928  0.8661  0.1286
  641MOL0     H86479   0.680   4.029   2.472  0.8881 -1.3044 -1.2923
  641MOL0     H86480   0.431   4.065   2.405 -0.6083  0.8802  0.1081
  641MOL0     H86481   0.477   3.991   2.255  1.0431  1.7302  0.4857
  641MOL0     H86482   0.437   3.786   2.323 -1.3607 -1.6592  0.9520
  641MOL0     H86483   0.562   3.812   2.451 -0.8585 -1.4167 -0.2442
  641MOL0     H86484   0.378   3.896   2.607 -0.6728 -0.9835  1.0591
  641MOL0     H86485   0.364   3.736   2.549 -0.9262  0.5363  0.8186
  641MOL0     H86486   0.225   4.082   2.466 -0.5079 -0.5165  0.6441
  641MOL0     H86487  -0.031   4.163   2.485  0.1475  2.9337 -2.0505
  641MOL0     H86488  -0.039   4.135   2.318  2.8483 -0.1163  0.5730
  641MOL0     H86489  -0.252   4.142   2.427  0.5616 -0.0499 -1.2132
  641MOL0     H86490  -0.213   4.011   2.543  0.7817 -1.4724  0.3508
  641MOL0     H86491  -0.205   3.861   2.334  0.3164  0.5759 -1.0528
  641MOL0     H86492  -0.258   4.000   2.244 -1.0011 -2.0564 -0.4645
  641MOL0     H86493  -0.421   3.899   2.478 -0.6410  0.8843  1.2898
  641MOL0     H86494  -0.441   3.845   2.314  2.2651 -0.6010 -0.4545
  641MOL0     H86495  -0.650   4.252   2.365 -1.6293  1.2117 -1.7451
  641MOL0     H86496  -0.973   4.316   2.454 -1.1249  0.7204 -1.3511
  641MOL0     H86497  -0.840   4.374   2.352 -2.5388  2.1583  1.6485
  641MOL0     H86498  -0.966   4.263   2.284  0.3862  0.0674 -0.5728
  641MOL0     H86499  -1.206   3.890   2.188  0.4791 -2.1153 -0.5056
  641MOL0     H86500  -1.445   3.871   2.154 -1.3898  0.0364  1.7609
  641MOL0     H86501  -1.732   3.842   2.521 -0.5027  2.9688  2.0478
  641MOL0     H86502  -1.692   3.995   2.431  0.6389  0.0980 -2.3466
  641MOL0     H86503  -1.877   3.965   2.266 -0.4615 -2.1459 -1.5554
  641MOL0     H86504  -1.896   3.804   2.324 -2.5916  1.0732  1.1427
  641MOL0     H86505  -1.919   4.059   2.483  0.6406 -1.3911  1.6645
  641MOL0     H86506  -1.943   3.901   2.548  3.9247  0.5641 -0.0672
  641MOL0     H86507  -2.153   3.877   2.403  0.7069 -0.1998  1.0799
  641MOL0     H86508  -2.146   4.016   2.517  0.9957  0.2484 -0.1197
  641MOL0     H86509  -2.088   4.046   2.215  0.7180 -0.5459 -0.1859
  641MOL0     H86510  -2.060   4.156   2.350  0.0089 -0.7379  0.2867
  641MOL0     H86511  -2.289   4.193   2.393  2.0944 -1.8644  0.9571
  641MOL0     H86512  -2.277   4.217   2.227 -1.7106 -0.3188 -0.1299
  641MOL0     H86513  -2.350   3.938   2.286 -2.7002 -0.2423  0.4148
  641MOL0     H86514  -2.397   4.035   2.152  0.5169  1.0087 -0.0353
  641MOL0     H86515  -2.513   4.052   2.443  2.2306 -1.4051 -0.3668
  641MOL0     H86516  -2.591   3.990   2.307 -0.5707  0.3152  0.1076
  641MOL0     H86517  -1.508   3.813   2.570  0.1880 -2.2547  0.7868
  641MOL0     H86518  -1.271   3.845   2.609  1.2421  1.0607  0.4216
  641MOL0     H86519  -0.883   3.819   2.427  1.3286 -0.1106  1.3370
  641MOL0     H86520  -0.642   3.816   2.389 -2.2409 -2.3535 -3.8523
  641MOL0     H86521   0.918   4.654   2.009 -2.0160 -1.0316  2.0959
  641MOL0     H86522   1.082   4.852   1.939 -0.5374  2.6113  1.4280
  641MOL0     H86523   1.500   5.053   1.992 -0.1248  1.9609 -1.6489
  641MOL0     H86524   1.669   5.209   1.991  0.0703 -1.1717  1.5642
  641MOL0     H86525   1.799   5.563   2.250  1.5327 -0.0110  1.7498
  641MOL0     H86526   1.696   5.443   2.341 -0.5112  1.4804 -0.4768
  641MOL0     H86527   1.874   5.274   2.264 -3.8220  0.0264  2.3934
  641MOL0     H86528   1.936   5.378   2.382  1.6423 -0.8797 -0.5937
  641MOL0     H86529   2.028   5.544   2.193  0.1795  0.8323 -0.9302
  641MOL0     H86530   1.957   5.427   2.080  0.8716 -0.0773 -0.6480
  641MOL0     H86531   2.202   5.390   2.089 -2.5841  4.1265 -1.4228
  641MOL0     H86532   2.118   5.253   2.166  1.5760  0.4272  0.2674
  641MOL0     H86533   2.339   5.389   2.487  0.9304 -2.5943 -0.6752
  641MOL0     H86534   1.482   5.434   2.309 -3.6114  2.5495 -2.8125
  641MOL0     H86535   1.303   5.268   2.320  2.2992  0.2778  3.8275
  642MOL0     O86536   8.211   0.112   1.699  0.3570  0.1233  0.0131
  642MOL0     C86537   8.170   0.000   1.666 -0.2852  0.8930  0.7513
  642MOL0     O86538   8.242  -0.118   1.672 -0.2981  0.0319 -0.2767
  642MOL0     C86539   8.370  -0.126   1.715 -0.8368  1.5229  0.4114
  642MOL0     C86540   8.465  -0.026   1.724  0.7391  0.0548  0.2218
  642MOL0     C86541   8.601  -0.058   1.747 -0.9760  0.4260  0.1106
  642MOL0     C86542   8.646  -0.182   1.775  0.5417  0.2206 -0.2788
  642MOL0     O86543   8.779  -0.198   1.776 -0.0679 -0.2340 -0.7202
  642MOL0     C86544   8.825  -0.336   1.785 -0.0848  0.1926  0.4718
  642MOL0     C86545   8.974  -0.335   1.796  0.0985 -0.8365 -0.7428
  642MOL0     C86546   9.041  -0.307   1.660  0.1052  0.7481  1.0868
  642MOL0     C86547   9.191  -0.314   1.678 -0.0322  0.0718 -0.3516
  642MOL0     C86548   9.263  -0.309   1.542  0.5290  0.3058  0.4991
  642MOL0     C86549   9.390  -0.395   1.552 -0.2548  0.1860  1.3720
  642MOL0     C86550   9.448  -0.405   1.415 -0.5880 -0.0794 -0.3825
  642MOL0     C86551   9.591  -0.464   1.415 -0.3287  0.2284 -0.2825
  642MOL0     N86552   9.651  -0.471   1.286  0.1643  0.3295 -0.2488
  642MOL0     C86553   9.607  -0.555   1.189  0.2117  0.3252  0.8601
  642MOL0     C86554   9.672  -0.510   1.075  0.2807  0.2048 -0.0322
  642MOL0     C86555   9.645  -0.562   0.933 -1.0432  0.1113  0.4489
  642MOL0     C86556   9.512  -0.537   0.863  0.1013  0.1854  0.4723
  642MOL0     C86557   9.400  -0.618   0.934 -0.0349 -0.4604  0.2013
  642MOL0     C86558   9.268  -0.626   0.856  0.1159 -0.8105 -0.8121
  642MOL0     O86559   9.190  -0.496   0.861  1.1389  0.0394  0.4200
  642MOL0     C86560   9.084  -0.479   0.773 -0.5107 -0.0987  0.2469
  642MOL0     C86561   9.006  -0.587   0.728  0.0003  0.6814  0.3316
  642MOL0     C86562   8.880  -0.577   0.661  0.7704  1.0486 -0.8768
  642MOL0     C86563   8.822  -0.707   0.620 -0.6836  0.1045  0.6492
  642MOL0     C86564   8.831  -0.450   0.636  0.2773  0.4413  0.4561
  642MOL0     C86565   8.704  -0.426   0.558 -0.0116 -0.1563  0.1357
  642MOL0     O86566   8.614  -0.528   0.570  0.4281 -0.6742  0.5191
  642MOL0     C86567   8.497  -0.536   0.512 -0.4713 -0.1086 -0.2001
  642MOL0     C86568   8.454  -0.669   0.472 -0.6718  0.6521 -0.5275
  642MOL0     C86569   8.327  -0.685   0.424 -0.3253 -0.0028  0.9672
  642MOL0     C86570   8.231  -0.581   0.428  0.2451 -0.9430  0.2843
  642MOL0     O86571   8.102  -0.610   0.380  0.1432  0.4039  0.4084
  642MOL0     C86572   8.049  -0.508   0.289  0.5216  0.3810 -0.2351
  642MOL0     C86573   7.943  -0.410   0.347 -0.2685  0.1415  0.3664
  642MOL0     C86574   7.811  -0.489   0.388 -0.2061 -0.0014 -0.4639
  642MOL0     C86575   7.689  -0.399   0.361  0.4654  0.1107 -0.1303
  642MOL0     C86576   7.554  -0.453   0.419  0.1963  0.5208  0.3958
  642MOL0     C86577   7.441  -0.362   0.385 -0.0809 -0.1442 -0.1029
  642MOL0     C86578   7.307  -0.438   0.410  0.0215 -0.4884 -0.1157
  642MOL0     C86579   7.187  -0.355   0.372 -0.0734  0.2504 -0.2981
  642MOL0    Cl86580   7.046  -0.427   0.458  0.0133 -0.3043 -0.2620
  642MOL0     C86581   8.270  -0.454   0.477  0.3857 -0.0503 -0.0545
  642MOL0     C86582   8.408  -0.422   0.509  0.1413  0.2574  0.6940
  642MOL0     O86583   8.686  -0.314   0.506  0.8973 -0.0538  0.3481
  642MOL0     C86584   8.911  -0.338   0.662 -0.4664 -0.8065 -0.1526
  642MOL0     C86585   9.032  -0.344   0.743  0.8235  0.9562 -0.2517
  642MOL0     N86586   9.754  -0.403   1.110 -0.3922  0.0830 -0.4712
  642MOL0     N86587   9.732  -0.380   1.237 -0.1201  1.2344  0.1817
  642MOL0     C86588   8.548  -0.285   1.773 -0.3467  0.0298 -0.3409
  642MOL0     C86589   8.412  -0.259   1.743  0.7538 -0.4196 -0.0070
  642MOL0     C86590   8.046  -0.008   1.587  0.2427  0.5207 -0.6239
  642MOL0     C86591   8.010  -0.137   1.528 -0.1455  0.2552 -0.5439
  642MOL0     C86592   7.884  -0.159   1.456 -0.7344 -0.3565 -0.4774
  642MOL0     C86593   7.795  -0.054   1.449 -0.0363 -0.4086  0.1315
  642MOL0     O86594   7.670  -0.065   1.401  0.8474 -0.3578 -0.2913
  642MOL0     C86595   7.613  -0.189   1.342 -0.5113  0.0347 -0.6960
  642MOL0     C86596   7.463  -0.196   1.348  0.0269  0.3162 -0.8305
  642MOL0     C86597   7.411  -0.117   1.224 -0.4215 -0.5013  0.6874
  642MOL0     C86598   7.260  -0.125   1.225  0.2196  0.5004  0.1766
  642MOL0     C86599   7.198  -0.044   1.119  0.5375 -0.0886  0.0529
  642MOL0     C86600   7.133   0.017   1.034  0.2029  0.9679 -0.9476
  642MOL0     C86601   7.826   0.068   1.517  0.2027 -0.3621 -0.1486
  642MOL0     C86602   7.949   0.096   1.585 -0.0095 -0.4179  0.3630
  642MOL0     H86603   8.439   0.077   1.701  2.2001 -0.1316 -2.6452
  642MOL0     H86604   8.672   0.023   1.733 -1.0041  0.1712 -1.7539
  642MOL0     H86605   8.778  -0.383   1.871 -2.3318 -0.3305 -0.9683
  642MOL0     H86606   8.797  -0.402   1.702  1.9188 -0.4285  0.2198
  642MOL0     H86607   8.996  -0.251   1.862 -0.8020 -1.0054 -0.2176
  642MOL0     H86608   9.019  -0.420   1.849  2.3085  0.9770  0.4976
  642MOL0     H86609   9.012  -0.379   1.583  0.8644  0.3443  1.1656
  642MOL0     H86610   9.015  -0.208   1.620 -1.8959 -0.4604 -0.7939
  642MOL0     H86611   9.227  -0.225   1.731  0.2393  0.9610 -1.9671
  642MOL0     H86612   9.222  -0.400   1.738 -0.6455  1.6359  2.3710
  642MOL0     H86613   9.205  -0.366   1.468 -0.3201 -1.9379  2.7262
  642MOL0     H86614   9.278  -0.206   1.511 -0.5936 -0.3767 -2.7698
  642MOL0     H86615   9.462  -0.340   1.612  1.8773 -1.0194  0.0579
  642MOL0     H86616   9.364  -0.498   1.581 -0.9148 -0.9697 -2.6981
  642MOL0     H86617   9.375  -0.465   1.361 -0.3209 -1.0538  0.3147
  642MOL0     H86618   9.463  -0.309   1.365 -1.7744  1.1163  1.4489
  642MOL0     H86619   9.589  -0.565   1.456  0.1276  1.6526  3.7250
  642MOL0     H86620   9.658  -0.410   1.483  2.7570 -1.3349 -1.8828
  642MOL0     H86621   9.537  -0.637   1.204  0.5370 -0.0099  0.5703
  642MOL0     H86622   9.722  -0.516   0.871 -0.5192  0.0747  1.0592
  642MOL0     H86623   9.665  -0.668   0.949  1.1600  0.6243  1.5375
  642MOL0     H86624   9.513  -0.574   0.760  2.4202 -2.6168  1.3588
  642MOL0     H86625   9.491  -0.429   0.862  0.7181  0.3308 -1.4296
  642MOL0     H86626   9.370  -0.585   1.033  0.0839 -1.1778  0.4816
  642MOL0     H86627   9.437  -0.720   0.948 -1.7113 -1.1701 -0.3363
  642MOL0     H86628   9.202  -0.696   0.908 -0.1834 -0.9053 -1.3065
  642MOL0     H86629   9.285  -0.662   0.753  1.2662  1.1433 -1.3422
  642MOL0     H86630   9.037  -0.689   0.749 -0.3289  0.3614 -0.6787
  642MOL0     H86631   8.894  -0.789   0.628 -0.8680 -0.0763  0.4701
  642MOL0     H86632   8.734  -0.741   0.675 -0.6076 -0.8913  0.1830
  642MOL0     H86633   8.800  -0.704   0.512  1.3615  0.9219  0.2018
  642MOL0     H86634   8.520  -0.754   0.487  3.2804  3.6463  0.9313
  642MOL0     H86635   8.293  -0.779   0.383 -1.8301  0.6846  0.5649
  642MOL0     H86636   8.133  -0.452   0.249  0.7482  0.5581  0.4788
  642MOL0     H86637   7.997  -0.553   0.204 -0.0685  0.0636  0.2823
  642MOL0     H86638   7.982  -0.351   0.430  1.9687  1.8878 -1.7625
  642MOL0     H86639   7.918  -0.338   0.268  1.6770  0.4154 -0.0593
  642MOL0     H86640   7.818  -0.521   0.492 -5.5882  1.0240  0.5471
  642MOL0     H86641   7.807  -0.582   0.331  0.1165 -1.7073  2.1765
  642MOL0     H86642   7.707  -0.305   0.413 -2.6627  1.4277 -1.1435
  642MOL0     H86643   7.675  -0.383   0.253  1.6718  0.5065 -0.2470
  642MOL0     H86644   7.581  -0.466   0.524  3.2399 -0.6379 -0.4085
  642MOL0     H86645   7.526  -0.550   0.376 -0.7384  0.1386  1.8048
  642MOL0     H86646   7.446  -0.273   0.449  3.0164 -0.1938 -0.1345
  642MOL0     H86647   7.450  -0.342   0.277 -0.6621 -3.0220 -0.7611
  642MOL0     H86648   7.301  -0.469   0.514 -0.2714  2.5645  0.8752
  642MOL0     H86649   7.311  -0.530   0.351  1.5431 -1.6521  1.6956
  642MOL0     H86650   7.176  -0.348   0.263  1.6802  1.1324 -0.4525
  642MOL0     H86651   7.190  -0.250   0.405 -0.9002  0.5744 -1.1796
  642MOL0     H86652   8.195  -0.376   0.485  0.6971  0.3882 -1.1270
  642MOL0     H86653   8.440  -0.325   0.543 -0.1868  1.1105 -1.2858
  642MOL0     H86654   8.882  -0.234   0.649 -1.1567 -1.1552 -1.6949
  642MOL0     H86655   9.085  -0.257   0.779  0.1535  1.3135 -0.1068
  642MOL0     H86656   8.576  -0.387   1.798 -0.8940 -0.4330 -1.5212
  642MOL0     H86657   8.332  -0.331   1.725 -1.3416  1.2659  1.9840
  642MOL0     H86658   8.079  -0.220   1.530  0.7194  0.9637  2.1011
  642MOL0     H86659   7.854  -0.251   1.406 -1.6356  1.0878 -2.7441
  642MOL0     H86660   7.651  -0.205   1.241 -2.6771 -0.6680 -1.4652
  642MOL0     H86661   7.642  -0.277   1.401  0.0333  0.8450  0.2609
  642MOL0     H86662   7.434  -0.139   1.437 -0.0973  0.6858 -1.1064
  642MOL0     H86663   7.423  -0.298   1.346 -0.6539  0.5902 -2.3585
  642MOL0     H86664   7.447  -0.164   1.132  2.5147  1.9083  0.4605
  642MOL0     H86665   7.446  -0.014   1.220 -2.1499  0.0732 -0.8514
  642MOL0     H86666   7.216  -0.095   1.320  2.3540  0.8364  1.1085
  642MOL0     H86667   7.232  -0.228   1.201 -0.0683  0.5978  0.0856
  642MOL0     H86668   7.087   0.057   0.946 -2.0381 -1.3003 -0.8948
  642MOL0     H86669   7.747   0.142   1.507 -0.6975 -1.2471  0.2005
  642MOL0     H86670   7.982   0.187   1.634 -0.7411  0.9569 -1.5845
  643MOL0     O86671   8.487   6.713   1.349 -0.4745  0.0443 -0.3118
  643MOL0     C86672   8.529   6.731   1.465  0.4479 -0.1973 -0.4220
  643MOL0     O86673   8.450   6.731   1.576 -0.3736 -0.4619  0.2592
  643MOL0     C86674   8.310   6.751   1.576 -0.4855 -0.3789 -0.1179
  643MOL0     C86675   8.234   6.825   1.483 -0.1369  0.3948  0.5036
  643MOL0     C86676   8.096   6.843   1.501  0.3299 -0.6381 -0.3565
  643MOL0     C86677   8.038   6.793   1.618 -0.5650  0.5111 -0.2969
  643MOL0     O86678   7.909   6.827   1.620  0.0974  0.4255  0.1510
  643MOL0     C86679   7.824   6.771   1.720  0.2786 -0.0709 -0.9522
  643MOL0     C86680   7.686   6.827   1.687  0.4668 -0.5573 -0.0790
  643MOL0     C86681   7.598   6.828   1.815 -0.1643 -0.3156 -0.0673
  643MOL0     C86682   7.454   6.871   1.785 -0.2690 -0.2381  0.0607
  643MOL0     C86683   7.435   7.024   1.775 -0.3647  1.3057 -0.2710
  643MOL0     C86684   7.296   7.054   1.721  0.2046  0.1611  0.3408
  643MOL0     C86685   7.278   7.205   1.741  0.3985  0.3080 -0.1287
  643MOL0     C86686   7.151   7.247   1.662 -0.3082  0.0506  0.3792
  643MOL0     N86687   7.030   7.194   1.725 -0.9922 -0.1348  0.2827
  643MOL0     C86688   6.962   7.262   1.819  0.3042 -0.2992 -0.6898
  643MOL0     C86689   6.834   7.217   1.812 -0.2834 -0.2458 -0.1774
  643MOL0     C86690   6.717   7.272   1.896 -0.2578 -0.3504  0.4168
  643MOL0     C86691   6.693   7.420   1.859  0.3767 -0.1746 -0.6206
  643MOL0     C86692   6.565   7.466   1.932  0.3334 -0.0959  0.4552
  643MOL0     C86693   6.430   7.423   1.872  0.2109 -0.1725  0.5158
  643MOL0     O86694   6.316   7.484   1.937 -0.0877  0.4695 -0.2116
  643MOL0     C86695   6.259   7.597   1.882 -0.9778 -0.2604  1.1447
  643MOL0     C86696   6.313   7.694   1.790  0.0004  0.6092  0.3503
  643MOL0     C86697   6.231   7.790   1.730  0.8804 -1.1131 -0.1417
  643MOL0     C86698   6.291   7.874   1.626  0.0419 -0.5423  0.1607
  643MOL0     C86699   6.096   7.799   1.774  0.3952 -0.1278  0.2654
  643MOL0     C86700   5.997   7.891   1.723 -0.7649 -0.5910  0.2102
  643MOL0     O86701   5.897   7.937   1.811  0.3716 -0.2081 -0.2054
  643MOL0     C86702   5.787   8.010   1.769 -0.4694 -0.6576  0.1659
  643MOL0     C86703   5.815   8.125   1.693  0.0798 -0.6856 -0.5605
  643MOL0     C86704   5.705   8.200   1.645  0.2103 -0.3671 -0.4603
  643MOL0     C86705   5.580   8.177   1.697  0.6272  0.8446 -0.1888
  643MOL0     O86706   5.491   8.284   1.670 -0.6140 -0.0700  0.4572
  643MOL0     C86707   5.356   8.255   1.637  0.0984 -0.3570 -0.0259
  643MOL0     C86708   5.298   8.341   1.522 -0.9681 -0.0283  0.4537
  643MOL0     C86709   5.176   8.413   1.568  0.3775  0.1411 -0.2534
  643MOL0     C86710   5.119   8.501   1.453 -0.1517  0.3865 -1.1333
  643MOL0     C86711   4.986   8.558   1.494  0.4510  0.4950 -0.4747
  643MOL0     C86712   4.999   8.697   1.554 -0.2966 -0.5431 -0.8126
  643MOL0     C86713   4.865   8.751   1.605 -0.0204  0.1181 -0.3509
  643MOL0     C86714   4.771   8.799   1.499  0.5998 -0.2110 -0.1833
  643MOL0    Cl86715   4.849   8.941   1.420 -0.0764 -0.1303 -0.1105
  643MOL0     C86716   5.550   8.064   1.772  0.0678 -0.8038 -0.3625
  643MOL0     C86717   5.655   7.981   1.806  0.0646 -0.4744  0.4295
  643MOL0     O86718   6.010   7.920   1.602 -0.6164  0.2163 -0.4829
  643MOL0     C86719   6.050   7.698   1.858 -0.0809  0.1148 -0.8133
  643MOL0     C86720   6.129   7.607   1.915 -0.5170  0.6801  1.3134
  643MOL0     N86721   6.825   7.119   1.724 -0.0095 -0.2779  0.4278
  643MOL0     N86722   6.934   7.111   1.655 -1.0477  0.5418  0.3641
  643MOL0     C86723   8.107   6.712   1.710  0.3744  0.6076 -0.1124
  643MOL0     C86724   8.242   6.697   1.681 -0.1248 -0.0094 -1.0645
  643MOL0     C86725   8.673   6.766   1.478 -0.2116  0.2241  0.0035
  643MOL0     C86726   8.762   6.777   1.368  0.1475  0.0160  0.3147
  643MOL0     C86727   8.893   6.810   1.374 -1.1303  0.0461  0.2286
  643MOL0     C86728   8.951   6.809   1.497 -0.5810 -0.3388 -0.4804
  643MOL0     O86729   9.084   6.827   1.509  1.0096 -0.0714  0.3347
  643MOL0     C86730   9.175   6.779   1.409  0.0297 -0.0755  0.3755
  643MOL0     C86731   9.309   6.779   1.464  0.0072 -0.1439 -0.5237
  643MOL0     C86732   9.411   6.695   1.379  0.8213 -0.0036  0.1851
  643MOL0     C86733   9.414   6.735   1.228 -0.0202  0.0103 -0.2371
  643MOL0     C86734   9.313   6.651   1.158 -0.5392  0.4015 -0.2471
  643MOL0     C86735   9.239   6.568   1.110 -0.7018 -0.3475  0.1719
  643MOL0     C86736   8.878   6.794   1.612 -0.0567 -0.4542 -0.1592
  643MOL0     C86737   8.736   6.767   1.600  0.5609  0.3678 -0.3997
  643MOL0     H86738   8.278   6.878   1.399 -0.9817 -0.0058 -0.2004
  643MOL0     H86739   8.035   6.899   1.431  0.2789  1.3014  1.1308
  643MOL0     H86740   7.816   6.663   1.707 -0.2609 -0.0534 -0.7891
  643MOL0     H86741   7.851   6.792   1.824 -2.1216  2.7043 -0.7463
  643MOL0     H86742   7.704   6.932   1.660  2.2555 -1.0502 -0.9276
  643MOL0     H86743   7.636   6.767   1.610 -1.4000 -0.1577  0.7527
  643MOL0     H86744   7.594   6.732   1.867  0.0282  1.2000  2.9976
  643MOL0     H86745   7.635   6.893   1.894 -1.7838 -0.8091  1.1415
  643MOL0     H86746   7.415   6.834   1.690  0.0800 -0.5217  0.0237
  643MOL0     H86747   7.382   6.829   1.856  0.3881 -1.4169  0.0681
  643MOL0     H86748   7.441   7.066   1.876  1.6220  2.3373 -0.7753
  643MOL0     H86749   7.508   7.071   1.710  2.1182 -0.9347  0.7385
  643MOL0     H86750   7.297   7.017   1.618  2.7658 -2.5652  1.2156
  643MOL0     H86751   7.227   6.992   1.778 -0.2468  0.2027 -0.1599
  643MOL0     H86752   7.284   7.230   1.847  0.2767 -1.2588  0.2733
  643MOL0     H86753   7.358   7.263   1.694 -0.8550  3.4714  1.2845
  643MOL0     H86754   7.161   7.209   1.560  1.7507 -1.5678  1.1028
  643MOL0     H86755   7.149   7.354   1.640  0.2090 -0.4888 -2.7319
  643MOL0     H86756   6.999   7.342   1.882  3.1205  0.1310 -2.7202
  643MOL0     H86757   6.627   7.212   1.880  1.4746 -2.4668 -2.3479
  643MOL0     H86758   6.740   7.273   2.003  1.0297 -0.8581  0.1652
  643MOL0     H86759   6.681   7.431   1.751  1.8356 -3.3498 -1.2148
  643MOL0     H86760   6.772   7.487   1.894 -0.3863  0.9064 -0.9348
  643MOL0     H86761   6.565   7.573   1.953 -0.3547  0.4073 -1.8691
  643MOL0     H86762   6.564   7.438   2.038  0.6870  0.9063  0.7406
  643MOL0     H86763   6.415   7.314   1.878  1.1687 -0.2630  1.5545
  643MOL0     H86764   6.447   7.451   1.767  1.2086 -0.4815  0.5786
  643MOL0     H86765   6.414   7.679   1.751  0.4364  1.8781  0.9455
  643MOL0     H86766   6.276   7.981   1.644 -0.5698 -0.5091 -0.4949
  643MOL0     H86767   6.398   7.856   1.612 -0.2637 -0.4904 -2.9110
  643MOL0     H86768   6.240   7.843   1.534  0.0885 -0.7488  0.2032
  643MOL0     H86769   5.916   8.150   1.664 -0.2774  0.3119 -0.9984
  643MOL0     H86770   5.724   8.291   1.589  1.9092 -0.7295 -0.5088
  643MOL0     H86771   5.344   8.156   1.593  1.2166 -1.2579  1.5805
  643MOL0     H86772   5.296   8.265   1.728 -0.4579  0.8194 -0.4948
  643MOL0     H86773   5.365   8.422   1.491  0.5757 -0.7048  1.8552
  643MOL0     H86774   5.269   8.280   1.436 -2.1961 -0.7015  1.3113
  643MOL0     H86775   5.204   8.474   1.654  3.6774  1.1533 -1.8595
  643MOL0     H86776   5.106   8.334   1.596  0.0332 -0.2987 -2.1802
  643MOL0     H86777   5.175   8.587   1.414 -2.5142  2.0575 -1.0224
  643MOL0     H86778   5.088   8.439   1.369  1.1193 -0.3786 -1.0692
  643MOL0     H86779   4.922   8.490   1.551 -0.2826  0.7547 -0.9696
  643MOL0     H86780   4.936   8.577   1.398  3.7933  3.2401 -1.8836
  643MOL0     H86781   5.072   8.704   1.635 -1.6274 -0.6751  0.4324
  643MOL0     H86782   5.036   8.769   1.480 -1.2498  0.9419  0.1106
  643MOL0     H86783   4.889   8.839   1.666  1.5978  1.3939 -2.6328
  643MOL0     H86784   4.819   8.680   1.674 -0.1893  2.1216  1.7036
  643MOL0     H86785   4.673   8.831   1.536  0.2130  0.6876 -1.8845
  643MOL0     H86786   4.761   8.719   1.426  0.7521 -0.0064 -0.4321
  643MOL0     H86787   5.450   8.040   1.807  0.5235 -1.9153  0.2336
  643MOL0     H86788   5.645   7.893   1.869 -0.4009 -0.1293  0.8448
  643MOL0     H86789   5.947   7.698   1.894  0.4355  2.5383  0.9179
  643MOL0     H86790   6.097   7.522   1.975  2.3651 -0.0460  1.9637
  643MOL0     H86791   8.063   6.663   1.797  0.0747 -0.8702 -1.0620
  643MOL0     H86792   8.302   6.635   1.747 -0.3202 -1.2898 -2.0504
  643MOL0     H86793   8.732   6.771   1.264  1.1910  0.9534 -0.0637
  643MOL0     H86794   8.957   6.833   1.290  0.3464 -1.4795  0.8738
  643MOL0     H86795   9.148   6.677   1.379 -4.1477  1.0647 -0.3788
  643MOL0     H86796   9.173   6.839   1.318  0.9261  0.8702  0.9543
  643MOL0     H86797   9.305   6.744   1.568  2.3874  1.6885  0.2799
  643MOL0     H86798   9.337   6.885   1.464 -1.2204  0.3131  3.1029
  643MOL0     H86799   9.393   6.588   1.389  0.2404  0.1450  0.7906
  643MOL0     H86800   9.510   6.711   1.423 -0.1739  2.5420  1.7173
  643MOL0     H86801   9.514   6.711   1.190 -0.5582  0.1334 -1.7967
  643MOL0     H86802   9.405   6.844   1.215 -2.6529 -0.0272  0.6816
  643MOL0     H86803   9.186   6.500   1.047  1.4048 -1.9917  0.0773
  643MOL0     H86804   8.927   6.799   1.709  1.6901 -0.1281 -1.0361
  643MOL0     H86805   8.672   6.760   1.687 -3.6761  0.0535 -3.2395
  644MOL0     O86806   1.894  11.086   4.131 -0.4356 -0.2285 -0.4768
  644MOL0     C86807   1.921  11.205   4.096 -0.0913  0.2021  0.5063
  644MOL0     O86808   1.837  11.299   4.071 -0.0996 -0.1813  0.0784
  644MOL0     C86809   1.701  11.273   4.064  0.1119 -0.0237  0.0084
  644MOL0     C86810   1.614  11.362   4.126 -0.3695 -1.0549 -0.4560
  644MOL0     C86811   1.484  11.330   4.145  0.4961 -0.0245  0.1493
  644MOL0     C86812   1.423  11.215   4.106 -0.3795 -0.3895  0.1345
  644MOL0     O86813   1.298  11.170   4.138 -0.0696  0.1612  0.0025
  644MOL0     C86814   1.195  11.269   4.165 -0.0974 -0.1147  0.4262
  644MOL0     C86815   1.089  11.188   4.233 -0.7021 -0.0720  0.9827
  644MOL0     C86816   0.976  11.282   4.289 -0.2885  0.7122 -0.2273
  644MOL0     C86817   0.839  11.207   4.310 -0.6236 -0.3342  0.3383
  644MOL0     C86818   0.779  11.171   4.172 -0.3280  0.1103 -0.0144
  644MOL0     C86819   0.635  11.144   4.156 -1.1815 -0.1612  0.5123
  644MOL0     C86820   0.570  11.030   4.235 -1.0349 -0.5027 -0.1321
  644MOL0     C86821   0.448  10.982   4.168  0.0525  0.2917 -0.0291
  644MOL0     N86822   0.345  11.085   4.157 -0.5890 -0.0845  0.6774
  644MOL0     C86823   0.287  11.138   4.262 -0.7888  0.1545 -0.2584
  644MOL0     C86824   0.212  11.240   4.217  0.4884 -0.4376  0.5299
  644MOL0     C86825   0.130  11.319   4.316 -1.3040  0.2368  0.8300
  644MOL0     C86826   0.065  11.438   4.250  0.0029 -1.0167 -0.4756
  644MOL0     C86827  -0.001  11.543   4.333  0.6900  0.3167 -0.3091
  644MOL0     C86828  -0.061  11.661   4.267  0.0112 -0.2312  0.2736
  644MOL0     O86829  -0.195  11.641   4.205  0.7133 -0.7691  0.3190
  644MOL0     C86830  -0.266  11.746   4.167 -0.2839 -0.6917 -0.3215
  644MOL0     C86831  -0.391  11.721   4.110  1.1825 -0.0720 -0.8075
  644MOL0     C86832  -0.469  11.826   4.063 -0.3984 -0.3658 -0.1657
  644MOL0     C86833  -0.596  11.785   3.995 -1.2393  0.5643 -0.3474
  644MOL0     C86834  -0.425  11.961   4.079  0.0692  1.1907 -0.1311
  644MOL0     C86835  -0.489  12.072   4.019 -0.2436 -0.4325  0.0965
  644MOL0     O86836  -0.577  12.060   3.919 -0.4428 -0.1498  0.4833
  644MOL0     C86837  -0.648  12.173   3.881 -0.3843  0.6455 -0.5128
  644MOL0     C86838  -0.653  12.210   3.747  0.4650  0.6569  1.1086
  644MOL0     C86839  -0.750  12.306   3.703 -0.2582 -0.6097 -0.8808
  644MOL0     C86840  -0.838  12.380   3.791  0.4183  0.2482 -0.4081
  644MOL0     O86841  -0.926  12.482   3.759 -0.4062 -0.0708  0.5873
  644MOL0     C86842  -0.957  12.493   3.615 -0.7285  0.7011 -0.2904
  644MOL0     C86843  -1.053  12.603   3.597  0.2210 -0.3080 -0.6066
  644MOL0     C86844  -1.194  12.581   3.650 -0.7037  0.5684  0.8385
  644MOL0     C86845  -1.302  12.675   3.584 -1.0466  0.2730  0.1927
  644MOL0     C86846  -1.437  12.618   3.609 -0.3916 -0.3534 -0.2369
  644MOL0     C86847  -1.546  12.701   3.547 -0.4181 -0.3245 -0.2419
  644MOL0     C86848  -1.686  12.645   3.562 -0.2755 -0.3419  0.8625
  644MOL0     C86849  -1.790  12.753   3.541 -0.4233 -0.4211  0.3890
  644MOL0    Cl86850  -1.859  12.834   3.690  0.2524  0.1659 -0.2231
  644MOL0     C86851  -0.820  12.346   3.926 -0.1682 -0.3249 -0.1666
  644MOL0     C86852  -0.730  12.245   3.971  0.2944 -0.0899  0.0942
  644MOL0     O86853  -0.460  12.184   4.072 -0.0540  0.6501  0.2635
  644MOL0     C86854  -0.295  11.982   4.131  0.3244  0.7105 -0.2662
  644MOL0     C86855  -0.220  11.875   4.181 -0.2803 -0.9582  0.6509
  644MOL0     N86856   0.207  11.245   4.080 -0.2802 -0.2341 -0.5718
  644MOL0     N86857   0.297  11.153   4.046  0.7495 -0.5467  0.5779
  644MOL0     C86858   1.504  11.123   4.038 -0.2418 -0.7497 -0.0549
  644MOL0     C86859   1.644  11.151   4.020 -0.3614 -0.0888 -0.6557
  644MOL0     C86860   2.061  11.240   4.089  0.2651 -0.9078  0.2525
  644MOL0     C86861   2.168  11.168   4.149  0.4469 -0.3053 -0.5900
  644MOL0     C86862   2.307  11.193   4.130  0.0966  0.4263  0.6792
  644MOL0     C86863   2.345  11.304   4.056  0.8659 -0.0370  0.2227
  644MOL0     O86864   2.480  11.330   4.030  0.2686  0.1675  0.2807
  644MOL0     C86865   2.586  11.248   4.093 -0.3445  0.2309  0.1685
  644MOL0     C86866   2.730  11.295   4.057 -0.1009 -0.4565 -0.4082
  644MOL0     C86867   2.843  11.186   4.072 -0.5883 -0.1173  0.3179
  644MOL0     C86868   2.982  11.240   4.103  0.2630  0.3321  0.3083
  644MOL0     C86869   3.073  11.133   4.139 -0.5479 -0.6956 -1.1210
  644MOL0     C86870   3.160  11.051   4.170 -0.3977  0.3173 -0.3297
  644MOL0     C86871   2.240  11.387   4.006  0.3500  0.9575  0.2950
  644MOL0     C86872   2.107  11.351   4.014 -0.0350  0.6126 -0.1938
  644MOL0     H86873   1.647  11.456   4.169  0.4760 -1.0416 -1.0835
  644MOL0     H86874   1.417  11.401   4.194 -2.3273 -3.5561  1.8911
  644MOL0     H86875   1.232  11.342   4.237 -0.3899  2.3193 -1.7306
  644MOL0     H86876   1.168  11.316   4.070  0.2370  0.8843  0.8133
  644MOL0     H86877   1.051  11.112   4.164  2.2001  0.4033 -1.3678
  644MOL0     H86878   1.135  11.132   4.315  2.5170 -1.7052 -1.6260
  644MOL0     H86879   1.001  11.301   4.393 -2.6590 -0.6768  0.6696
  644MOL0     H86880   0.973  11.377   4.235  3.0422  2.8757  2.9570
  644MOL0     H86881   0.859  11.120   4.373  0.5658  1.0995  2.0746
  644MOL0     H86882   0.766  11.267   4.364  0.2700  0.9899  0.1508
  644MOL0     H86883   0.797  11.258   4.108  2.5734 -1.4300 -1.4995
  644MOL0     H86884   0.832  11.090   4.120 -1.5499  0.7826 -2.4165
  644MOL0     H86885   0.595  11.242   4.180  3.0354  1.4601  1.7898
  644MOL0     H86886   0.605  11.149   4.050 -1.5854  2.7598  0.6985
  644MOL0     H86887   0.641  10.947   4.238 -0.5370 -0.0803 -0.0264
  644MOL0     H86888   0.550  11.057   4.340 -1.9815 -2.3359  0.2108
  644MOL0     H86889   0.412  10.896   4.226  2.4937  0.4763  1.9386
  644MOL0     H86890   0.489  10.938   4.077 -1.9285  1.5507 -1.6086
  644MOL0     H86891   0.304  11.104   4.363  2.2995 -0.0019 -0.7357
  644MOL0     H86892   0.048  11.261   4.359 -0.7139  0.8489  2.8856
  644MOL0     H86893   0.195  11.350   4.398  1.6787 -1.7423 -0.6028
  644MOL0     H86894  -0.000  11.407   4.168 -1.5538  1.1506 -0.1617
  644MOL0     H86895   0.145  11.496   4.203 -0.2750 -1.6619 -1.7910
  644MOL0     H86896   0.076  11.585   4.398 -0.6006 -0.7523  2.0241
  644MOL0     H86897  -0.075  11.488   4.391  1.6566 -0.5670  0.1189
  644MOL0     H86898   0.013  11.698   4.196 -0.6688  0.3503 -0.1502
  644MOL0     H86899  -0.074  11.736   4.346 -1.4961 -0.5453  0.3550
  644MOL0     H86900  -0.427  11.621   4.092 -0.0668  0.5409 -1.9605
  644MOL0     H86901  -0.623  11.685   4.028  1.9104 -0.6609 -1.1716
  644MOL0     H86902  -0.678  11.852   4.025 -1.0654  2.3052 -3.3392
  644MOL0     H86903  -0.584  11.786   3.886 -1.9695 -1.3397 -0.4787
  644MOL0     H86904  -0.587  12.161   3.677 -0.1486  1.5425 -0.1385
  644MOL0     H86905  -0.755  12.334   3.598  0.7259  0.4274 -0.6743
  644MOL0     H86906  -0.871  12.512   3.549 -0.5693 -2.1146 -1.0064
  644MOL0     H86907  -1.001  12.396   3.590 -0.1107  0.1203  0.8028
  644MOL0     H86908  -1.010  12.689   3.650 -2.0556  0.5558 -0.0571
  644MOL0     H86909  -1.058  12.612   3.488 -3.6925 -1.4791 -0.6780
  644MOL0     H86910  -1.187  12.594   3.758 -0.6386 -2.9284  1.3882
  644MOL0     H86911  -1.222  12.479   3.621 -0.7038  0.8999 -0.4231
  644MOL0     H86912  -1.279  12.766   3.639  2.0136 -0.5363  0.4175
  644MOL0     H86913  -1.291  12.699   3.478 -0.8948  2.4379  0.6578
  644MOL0     H86914  -1.462  12.609   3.715  2.0398  1.9822  0.6359
  644MOL0     H86915  -1.451  12.519   3.565 -1.1068 -0.4043  0.0955
  644MOL0     H86916  -1.546  12.805   3.581  1.1855 -0.7864  1.3043
  644MOL0     H86917  -1.516  12.715   3.442  1.2025 -0.3713  0.1945
  644MOL0     H86918  -1.698  12.591   3.657  0.2350 -1.1219  0.4945
  644MOL0     H86919  -1.706  12.567   3.488  0.9675  0.6725 -0.6108
  644MOL0     H86920  -1.877  12.708   3.493 -1.2703  1.2086  0.3189
  644MOL0     H86921  -1.753  12.819   3.462 -3.5197  0.8360 -0.1856
  644MOL0     H86922  -0.881  12.398   3.999 -0.0407  2.1111 -1.6680
  644MOL0     H86923  -0.731  12.216   4.076  2.0434  0.3719  0.2715
  644MOL0     H86924  -0.262  12.086   4.136 -1.7785  1.4956 -1.7227
  644MOL0     H86925  -0.137  11.910   4.241 -0.6513  1.5872 -0.2066
  644MOL0     H86926   1.459  11.030   4.005  1.5008 -1.4585 -0.5966
  644MOL0     H86927   1.691  11.083   3.950 -1.2022 -0.8090 -0.5452
  644MOL0     H86928   2.130  11.079   4.198 -1.2148  0.6397 -0.0998
  644MOL0     H86929   2.380  11.127   4.176 -2.2071 -2.3103  0.7786
  644MOL0     H86930   2.569  11.244   4.201  0.0964  1.4169  0.2922
  644MOL0     H86931   2.576  11.148   4.050  1.4290 -0.0186  0.2796
  644MOL0     H86932   2.747  11.372   4.133 -0.5117 -0.0740 -0.6957
  644MOL0     H86933   2.711  11.337   3.958 -0.4140  2.4016  0.7702
  644MOL0     H86934   2.852  11.119   3.986  0.1449 -2.4766  2.1289
  644MOL0     H86935   2.805  11.127   4.156 -1.7785  1.9233  1.2864
  644MOL0     H86936   2.987  11.306   4.190 -2.2168 -1.8991  2.3020
  644MOL0     H86937   3.027  11.285   4.014  3.5657 -0.1429  1.5912
  644MOL0     H86938   3.230  10.975   4.195 -2.7967 -2.4077 -1.3459
  644MOL0     H86939   2.274  11.481   3.964  1.7274  0.9958  1.4421
  644MOL0     H86940   2.043  11.417   3.956  1.8815  1.2378 -1.7147
  645MOL0     O86941   2.324   7.280   2.065  0.6877 -0.1194  0.0830
  645MOL0     C86942   2.335   7.387   2.003 -0.3415 -0.9215  0.0740
  645MOL0     O86943   2.234   7.461   1.956 -0.5458 -0.5486  0.3825
  645MOL0     C86944   2.107   7.457   2.009 -0.4982 -0.4161  0.3758
  645MOL0     C86945   2.008   7.510   1.930 -0.0498 -0.8426  0.1172
  645MOL0     C86946   1.869   7.494   1.943 -0.4378  0.1801 -0.1845
  645MOL0     C86947   1.825   7.433   2.056  1.0282  0.5697 -0.1565
  645MOL0     O86948   1.693   7.403   2.094 -1.0776 -0.2547 -0.6080
  645MOL0     C86949   1.585   7.417   2.009  0.1697  0.3736  0.8511
  645MOL0     C86950   1.459   7.379   2.094  0.3820 -0.2539 -0.4437
  645MOL0     C86951   1.346   7.331   2.001  0.2153  0.0961  0.8432
  645MOL0     C86952   1.250   7.245   2.090  0.2823 -0.0526 -0.5427
  645MOL0     C86953   1.142   7.173   2.016  0.1988  1.0388 -0.0880
  645MOL0     C86954   1.021   7.140   2.112  0.2270 -0.0233  0.5661
  645MOL0     C86955   0.893   7.079   2.056 -0.4977  0.7997  2.0140
  645MOL0     C86956   0.806   7.041   2.166  1.1639  0.0081  0.0121
  645MOL0     N86957   0.665   7.014   2.113 -0.0235 -0.2713 -0.7742
  645MOL0     C86958   0.551   7.007   2.189  0.1106 -0.8274  0.4577
  645MOL0     C86959   0.448   7.015   2.095  0.2138  0.0878  0.8224
  645MOL0     C86960   0.300   7.027   2.128  0.0414 -0.5578  0.0024
  645MOL0     C86961   0.229   6.892   2.141 -0.6682  0.1595  0.8431
  645MOL0     C86962   0.087   6.927   2.183 -0.0651 -0.2037  0.1610
  645MOL0     C86963   0.009   6.792   2.169 -0.3904  0.0961  0.3900
  645MOL0     O86964  -0.129   6.812   2.201 -0.0517  0.2973  0.6468
  645MOL0     C86965  -0.201   6.697   2.178  0.7357  1.3011  0.2249
  645MOL0     C86966  -0.172   6.571   2.236  0.0942  0.1501  0.1186
  645MOL0     C86967  -0.258   6.456   2.218  0.0286 -0.4357 -0.9053
  645MOL0     C86968  -0.235   6.334   2.290 -0.4218  0.2742  0.0796
  645MOL0     C86969  -0.371   6.485   2.143  0.4844 -0.0438  0.1296
  645MOL0     C86970  -0.464   6.372   2.098  0.0337 -0.5560  0.9067
  645MOL0     O86971  -0.423   6.240   2.101 -0.2105 -0.2778  0.2064
  645MOL0     C86972  -0.521   6.147   2.111  0.1634 -0.4927  0.4995
  645MOL0     C86973  -0.517   6.047   2.205  0.5018  0.3847 -0.5195
  645MOL0     C86974  -0.611   5.942   2.208 -0.2805 -0.4125 -0.3653
  645MOL0     C86975  -0.702   5.924   2.101 -0.5300  0.4141  0.6491
  645MOL0     O86976  -0.793   5.818   2.089  0.4144 -0.4450 -0.1205
  645MOL0     C86977  -0.779   5.709   2.188 -1.0761 -0.2583  1.0769
  645MOL0     C86978  -0.914   5.643   2.183  0.2890  0.6925  0.8211
  645MOL0     C86979  -1.041   5.715   2.222  0.1516  0.0267  0.7231
  645MOL0     C86980  -1.132   5.647   2.320 -0.4539 -0.2902  0.4231
  645MOL0     C86981  -1.265   5.715   2.345 -0.3933  0.1807 -0.2318
  645MOL0     C86982  -1.338   5.671   2.470  0.7434 -0.0173  0.5883
  645MOL0     C86983  -1.442   5.770   2.531 -0.1887 -0.0349  0.1569
  645MOL0     C86984  -1.535   5.699   2.628  0.4792 -0.5029 -0.8204
  645MOL0    Cl86985  -1.661   5.818   2.675  0.2229 -0.2224 -0.0119
  645MOL0     C86986  -0.713   6.028   1.996  0.2302  0.0324 -0.1467
  645MOL0     C86987  -0.616   6.136   2.004 -0.2682  0.2633 -0.3261
  645MOL0     O86988  -0.572   6.411   2.057 -0.0099  0.7231 -0.4697
  645MOL0     C86989  -0.401   6.614   2.085 -0.4048 -0.8666  0.1361
  645MOL0     C86990  -0.316   6.722   2.103 -0.4811 -0.1402  0.0115
  645MOL0     N86991   0.505   7.017   1.967 -0.1292  0.5797 -0.5259
  645MOL0     N86992   0.632   7.023   1.984 -1.1038  0.2490 -0.1150
  645MOL0     C86993   1.923   7.378   2.142 -0.0918 -0.1410 -0.6997
  645MOL0     C86994   2.064   7.389   2.123  0.2244  0.6478  0.5845
  645MOL0     C86995   2.477   7.435   1.972  0.1304  0.3721  0.6643
  645MOL0     C86996   2.585   7.349   2.004 -0.2224  0.7819 -0.0417
  645MOL0     C86997   2.715   7.375   1.960  0.2171 -0.4553  0.5259
  645MOL0     C86998   2.749   7.496   1.891 -0.2893  0.0136  0.7067
  645MOL0     O86999   2.874   7.531   1.849 -0.7661 -0.0958  0.1999
  645MOL0     C87000   2.984   7.438   1.888 -0.5410 -1.1470  0.0650
  645MOL0     C87001   3.116   7.507   1.863  0.4253 -0.1447  0.2475
  645MOL0     C87002   3.155   7.600   1.987  0.2397  0.3621  0.4936
  645MOL0     C87003   3.276   7.680   1.948 -0.6456  1.2498  0.7285
  645MOL0     C87004   3.395   7.605   1.992 -1.3697 -0.1857 -0.6691
  645MOL0     C87005   3.488   7.532   2.032  0.3272  0.0120 -0.4854
  645MOL0     C87006   2.644   7.576   1.846  0.3955 -0.4011  0.7569
  645MOL0     C87007   2.510   7.546   1.884  0.4480 -0.5891 -0.1410
  645MOL0     H87008   2.063   7.559   1.850  3.5692 -0.1166  2.7833
  645MOL0     H87009   1.807   7.533   1.863  3.5607  2.4265 -2.5317
  645MOL0     H87010   1.578   7.520   1.972 -1.6871  0.7574  2.1342
  645MOL0     H87011   1.595   7.349   1.923  0.5679  0.3779  0.8925
  645MOL0     H87012   1.480   7.301   2.167  1.1201 -3.0074 -3.3854
  645MOL0     H87013   1.426   7.460   2.160  0.9240 -0.2221 -0.2102
  645MOL0     H87014   1.298   7.416   1.952  0.2415 -2.0399 -3.3775
  645MOL0     H87015   1.383   7.268   1.920 -0.3593  1.8592 -0.8577
  645MOL0     H87016   1.302   7.172   2.152 -0.5277  0.0032  0.2198
  645MOL0     H87017   1.204   7.322   2.153 -0.2476  1.5155 -2.7255
  645MOL0     H87018   1.100   7.240   1.940  0.0116  2.5902  1.3163
  645MOL0     H87019   1.177   7.083   1.965  1.6714  1.0481  0.8544
  645MOL0     H87020   1.055   7.085   2.200 -0.9151 -0.2228  0.9093
  645MOL0     H87021   0.976   7.234   2.147 -4.8048 -1.5398 -0.9844
  645MOL0     H87022   0.850   7.161   1.999 -4.4950 -1.0212  2.0629
  645MOL0     H87023   0.921   6.995   1.991 -0.5940 -0.6055  3.7100
  645MOL0     H87024   0.819   7.116   2.245  3.5074 -3.5824  3.3915
  645MOL0     H87025   0.843   6.951   2.214  2.3043  1.5809  2.2592
  645MOL0     H87026   0.539   7.020   2.296  2.7552  2.1375  0.5381
  645MOL0     H87027   0.300   7.077   2.226  1.1446 -2.3141  0.9403
  645MOL0     H87028   0.241   7.089   2.060 -0.2918  1.0250  1.6486
  645MOL0     H87029   0.271   6.822   2.213 -2.7757 -3.2335 -0.9639
  645MOL0     H87030   0.219   6.824   2.056 -4.5637  0.3100  1.0039
  645MOL0     H87031   0.046   6.998   2.111 -0.9852 -0.2787  0.6035
  645MOL0     H87032   0.073   6.964   2.285  0.7070 -0.8266  0.5029
  645MOL0     H87033   0.064   6.719   2.230 -0.8902 -0.8188 -0.2394
  645MOL0     H87034   0.010   6.767   2.063 -4.1665  2.1884 -0.3081
  645MOL0     H87035  -0.091   6.556   2.307 -2.1883 -1.1804  2.6442
  645MOL0     H87036  -0.140   6.340   2.343 -1.7047  1.1140  2.4530
  645MOL0     H87037  -0.311   6.331   2.369  0.6895 -0.2401  1.1569
  645MOL0     H87038  -0.246   6.241   2.234  1.1333  1.2991 -2.0509
  645MOL0     H87039  -0.437   6.048   2.279 -0.3433 -0.7508  0.4434
  645MOL0     H87040  -0.606   5.864   2.283 -1.0824 -2.5236 -2.3802
  645MOL0     H87041  -0.703   5.636   2.161 -0.6231  1.0167 -1.4112
  645MOL0     H87042  -0.776   5.747   2.291 -1.4908 -0.1502  1.0493
  645MOL0     H87043  -0.923   5.613   2.078  1.7095 -1.6031  1.2826
  645MOL0     H87044  -0.909   5.548   2.237 -0.4171  0.7365  0.9688
  645MOL0     H87045  -1.086   5.744   2.127 -0.1281  0.7762  1.0778
  645MOL0     H87046  -1.012   5.808   2.272 -0.1570  0.2207  0.5433
  645MOL0     H87047  -1.149   5.540   2.304  2.9106 -0.7641 -0.7893
  645MOL0     H87048  -1.080   5.646   2.415 -1.2562 -1.2538  0.8732
  645MOL0     H87049  -1.325   5.699   2.255  3.5408 -2.9370 -2.6909
  645MOL0     H87050  -1.254   5.823   2.358 -1.0326  0.2650 -0.3590
  645MOL0     H87051  -1.379   5.573   2.442 -1.6078  0.6806  1.3983
  645MOL0     H87052  -1.264   5.651   2.547 -0.8572  1.1867  2.5258
  645MOL0     H87053  -1.501   5.820   2.454 -1.2047 -2.9133 -1.0742
  645MOL0     H87054  -1.395   5.854   2.583 -3.3649  1.4530  0.8948
  645MOL0     H87055  -1.491   5.673   2.725  0.2237  0.0571 -0.5454
  645MOL0     H87056  -1.589   5.621   2.575  0.5841 -0.1902 -1.3972
  645MOL0     H87057  -0.793   6.020   1.923 -0.5036 -0.6604  0.7099
  645MOL0     H87058  -0.621   6.199   1.916  2.6820  1.6025  0.3591
  645MOL0     H87059  -0.498   6.640   2.045 -0.8795  0.8727  2.2455
  645MOL0     H87060  -0.343   6.817   2.058 -0.2084 -1.2607 -2.6749
  645MOL0     H87061   1.880   7.326   2.227 -5.2526  0.7325 -2.4259
  645MOL0     H87062   2.125   7.359   2.208  1.0892  4.5057  1.4797
  645MOL0     H87063   2.584   7.246   2.037  1.2935  1.0708  1.0108
  645MOL0     H87064   2.790   7.298   1.977  1.6891  0.8440  0.0710
  645MOL0     H87065   2.988   7.411   1.994  2.3626  1.0553  0.6545
  645MOL0     H87066   2.973   7.348   1.828 -0.3244 -2.4112  1.8550
  645MOL0     H87067   3.119   7.563   1.769  1.8176  2.3676  1.6544
  645MOL0     H87068   3.192   7.428   1.869  0.0589 -0.3885  2.1295
  645MOL0     H87069   3.167   7.535   2.074 -1.0892  0.2982  0.6560
  645MOL0     H87070   3.071   7.661   2.024 -0.2711 -0.0180 -0.0152
  645MOL0     H87071   3.287   7.777   1.996  1.8788  0.8865  1.0056
  645MOL0     H87072   3.269   7.699   1.840 -4.5356  0.0095  0.6057
  645MOL0     H87073   3.565   7.463   2.059 -2.1084 -2.0068  1.7887
  645MOL0     H87074   2.675   7.659   1.784 -1.5378  0.8462  1.3667
  645MOL0     H87075   2.426   7.602   1.845  0.2648 -0.2086  0.7841
  646MOL0     O87076   8.069  10.772   9.033 -0.2907  0.0665  0.5964
  646MOL0     C87077   8.034  10.849   8.954 -0.0967  0.2274  0.9059
  646MOL0     O87078   7.914  10.928   8.959  0.2009  0.2088  0.7701
  646MOL0     C87079   7.813  10.906   9.049 -0.3058  0.2096  0.1367
  646MOL0     C87080   7.779  10.778   9.099 -0.0138 -0.3223  0.8934
  646MOL0     C87081   7.672  10.772   9.188  0.0789  0.2535 -0.6027
  646MOL0     C87082   7.604  10.885   9.243 -0.1644  0.1835  0.3429
  646MOL0     O87083   7.495  10.859   9.317 -0.4671 -0.0888  0.2548
  646MOL0     C87084   7.384  10.958   9.304 -0.6108 -0.8334 -0.2681
  646MOL0     C87085   7.259  10.894   9.347  0.3463 -0.4586  0.0074
  646MOL0     C87086   7.140  10.994   9.369 -0.3514  0.4767 -0.0711
  646MOL0     C87087   7.050  11.019   9.247 -0.3973 -0.1525  0.1382
  646MOL0     C87088   6.970  11.139   9.274 -0.1243 -0.1469 -0.1572
  646MOL0     C87089   6.876  11.187   9.158 -0.4014 -0.4372  0.1302
  646MOL0     C87090   6.852  11.338   9.149  0.0914 -1.2329 -1.1352
  646MOL0     C87091   6.746  11.378   9.262  1.0462 -0.4764  0.2869
  646MOL0     N87092   6.615  11.371   9.198  0.3741  0.2929  0.5181
  646MOL0     C87093   6.552  11.255   9.185 -0.2869  0.0910 -0.4788
  646MOL0     C87094   6.439  11.274   9.114 -0.0349 -0.4633 -0.1999
  646MOL0     C87095   6.321  11.189   9.058  0.2994 -0.6077  0.5739
  646MOL0     C87096   6.294  11.081   9.151 -0.7209  0.1926 -0.3579
  646MOL0     C87097   6.234  11.126   9.289 -0.4655 -0.0824 -0.0822
  646MOL0     C87098   6.231  10.991   9.376 -0.4271  0.4547 -0.2357
  646MOL0     O87099   6.191  11.025   9.513  0.3763 -0.2752 -0.3228
  646MOL0     C87100   6.168  10.928   9.605 -0.1692 -0.6345 -0.0296
  646MOL0     C87101   6.182  10.792   9.587  0.1331 -0.2345 -0.1546
  646MOL0     C87102   6.171  10.694   9.683 -0.2228 -0.1789 -0.0283
  646MOL0     C87103   6.222  10.549   9.657 -0.5964 -0.7514  0.0151
  646MOL0     C87104   6.117  10.736   9.800  0.6134  0.8527 -0.1024
  646MOL0     C87105   6.084  10.637   9.899  0.0791 -1.3587  0.3543
  646MOL0     O87106   6.004  10.540   9.849  0.3414 -0.4355 -0.5632
  646MOL0     C87107   5.953  10.436   9.927  0.6588 -0.0764 -0.2527
  646MOL0     C87108   5.817  10.415   9.951 -0.4188 -0.4124  0.6540
  646MOL0     C87109   5.774  10.331  10.054 -0.2580  0.4174  0.3231
  646MOL0     C87110   5.862  10.268  10.146 -0.6858  0.2411 -0.0733
  646MOL0     O87111   5.835  10.197  10.259 -0.0574  0.0288  0.8354
  646MOL0     C87112   5.784  10.065  10.219 -0.0277 -1.1355 -0.0935
  646MOL0     C87113   5.827   9.961  10.316  0.7006 -0.0851 -0.2077
  646MOL0     C87114   5.793   9.995  10.457 -0.9708 -0.2901  0.4004
  646MOL0     C87115   5.795   9.873  10.559 -0.7636 -0.1875  0.1642
  646MOL0     C87116   5.944   9.838  10.587  0.8197  0.3600 -0.1713
  646MOL0     C87117   5.953   9.744  10.709  1.3499  0.8396  0.1162
  646MOL0     C87118   6.097   9.686  10.726  0.4629  0.0147 -0.0125
  646MOL0     C87119   6.196   9.791  10.781 -0.3172 -0.3581  1.0473
  646MOL0    Cl87120   6.316   9.714  10.896 -0.4250  0.1537  0.1390
  646MOL0     C87121   5.998  10.290  10.118  0.1663  0.2200  0.0109
  646MOL0     C87122   6.039  10.371  10.011  0.6552  0.1171 -0.0521
  646MOL0     O87123   6.121  10.654  10.014  0.5531  0.4964 -0.0322
  646MOL0     C87124   6.107  10.873   9.832  0.0767 -0.7502  0.2885
  646MOL0     C87125   6.133  10.967   9.730 -0.2232 -0.5112 -0.1741
  646MOL0     N87126   6.441  11.411   9.076 -1.0836 -0.5959  0.2172
  646MOL0     N87127   6.538  11.470   9.141  0.0672 -0.0704  1.4366
  646MOL0     C87128   7.648  11.013   9.199  0.9322  0.0618 -0.0392
  646MOL0     C87129   7.747  11.020   9.103  0.1753  0.3359  0.0222
  646MOL0     C87130   8.109  10.864   8.832 -0.4425  0.0727 -0.0895
  646MOL0     C87131   8.079  10.963   8.740  0.3872  0.4901  0.1526
  646MOL0     C87132   8.141  10.977   8.620 -0.5160  0.0697 -0.8031
  646MOL0     C87133   8.256  10.908   8.601  0.6628 -0.4326 -0.0834
  646MOL0     O87134   8.318  10.928   8.484  0.2611 -0.0445  0.3805
  646MOL0     C87135   8.432  10.852   8.433 -0.2587  0.7783  0.8812
  646MOL0     C87136   8.568  10.926   8.459  0.1903  0.4917  0.7235
  646MOL0     C87137   8.576  11.028   8.345 -0.1832 -0.2822  1.2917
  646MOL0     C87138   8.594  10.976   8.201  0.1465 -0.3985  0.9503
  646MOL0     C87139   8.678  11.073   8.127 -0.5261  0.9707  0.5256
  646MOL0     C87140   8.730  11.161   8.059  0.0090  0.0770  0.2163
  646MOL0     C87141   8.306  10.820   8.696 -0.2610 -0.7955 -1.0047
  646MOL0     C87142   8.232  10.788   8.813 -0.1878 -0.4835  0.6415
  646MOL0     H87143   7.834  10.689   9.071  0.0037  0.4637 -1.8004
  646MOL0     H87144   7.642  10.680   9.237 -0.3583  2.0032  2.7115
  646MOL0     H87145   7.403  11.033   9.381  0.4105 -0.8527 -0.4873
  646MOL0     H87146   7.380  11.002   9.203 -0.1848  0.4430  0.2488
  646MOL0     H87147   7.230  10.812   9.280  0.2514  0.6144 -1.3156
  646MOL0     H87148   7.274  10.851   9.446 -0.3890 -0.5833  0.0674
  646MOL0     H87149   7.085  10.946   9.450  2.7294  0.4704  2.1693
  646MOL0     H87150   7.175  11.090   9.408  1.3827  0.3218 -1.1271
  646MOL0     H87151   7.109  11.033   9.156 -1.3453 -2.6389 -0.9715
  646MOL0     H87152   6.988  10.932   9.222 -0.5268 -0.0156 -0.0188
  646MOL0     H87153   6.908  11.106   9.358  2.3580 -1.1227  1.3956
  646MOL0     H87154   7.032  11.225   9.300  1.3226 -1.9497  2.8050
  646MOL0     H87155   6.920  11.159   9.062 -1.0368 -1.4727  0.1290
  646MOL0     H87156   6.786  11.126   9.170 -0.4873 -0.6780 -1.5568
  646MOL0     H87157   6.950  11.384   9.162 -0.9439  0.5499  0.8669
  646MOL0     H87158   6.802  11.367   9.056 -2.6260  1.3667  0.9541
  646MOL0     H87159   6.764  11.482   9.293  1.2771 -0.1376 -0.9230
  646MOL0     H87160   6.737  11.318   9.352 -0.6036  0.4050  0.7509
  646MOL0     H87161   6.579  11.164   9.237  0.5221  1.3278  1.3982
  646MOL0     H87162   6.233  11.253   9.047 -0.3057 -0.8889  3.1344
  646MOL0     H87163   6.359  11.155   8.961 -0.3077  2.2975 -0.7955
  646MOL0     H87164   6.389  11.028   9.159 -0.9019 -0.1604 -0.5226
  646MOL0     H87165   6.236  11.001   9.105 -3.0377  1.8160 -0.4366
  646MOL0     H87166   6.128  11.147   9.269 -0.5591 -1.4263 -1.1149
  646MOL0     H87167   6.284  11.206   9.345  0.3114  1.3490 -2.6388
  646MOL0     H87168   6.329  10.945   9.364 -1.1792 -0.4627 -4.2393
  646MOL0     H87169   6.160  10.923   9.328  0.6568 -0.8847 -0.0145
  646MOL0     H87170   6.209  10.758   9.488  0.3883 -2.0880  0.5236
  646MOL0     H87171   6.287  10.520   9.740  3.2496 -0.2865 -2.5785
  646MOL0     H87172   6.139  10.477   9.649 -1.4743  0.3627 -1.3135
  646MOL0     H87173   6.280  10.525   9.568 -2.3725 -1.4843 -1.0120
  646MOL0     H87174   5.739  10.473   9.903 -0.9531  0.4738  2.5175
  646MOL0     H87175   5.667  10.332  10.072 -0.1375  0.2068  1.0949
  646MOL0     H87176   5.675  10.061  10.212 -0.0822 -1.3907  0.7693
  646MOL0     H87177   5.815  10.038  10.118  1.0086  0.4380 -0.2181
  646MOL0     H87178   5.781   9.871  10.275  3.0681 -0.7934 -1.5534
  646MOL0     H87179   5.934   9.941  10.301  1.1672  2.3294 -0.4524
  646MOL0     H87180   5.693  10.039  10.465 -0.3946  1.2486 -0.4587
  646MOL0     H87181   5.861  10.071  10.496  0.7521 -0.0538 -2.7044
  646MOL0     H87182   5.749   9.902  10.654 -0.8476 -0.9857  0.3707
  646MOL0     H87183   5.733   9.799  10.507 -0.2666 -0.9579  0.6578
  646MOL0     H87184   6.003   9.930  10.598 -0.5845  1.2236  0.4580
  646MOL0     H87185   5.982   9.794  10.494  2.0179 -1.1981  0.9876
  646MOL0     H87186   5.933   9.800  10.800 -2.7112  1.4137 -0.9562
  646MOL0     H87187   5.870   9.673  10.706  0.4996  1.8287 -0.4243
  646MOL0     H87188   6.137   9.653  10.630 -2.2420 -2.5517 -0.4025
  646MOL0     H87189   6.093   9.595  10.787  0.8992  0.8358  1.2843
  646MOL0     H87190   6.151   9.879  10.827  2.0088  1.5893 -0.1521
  646MOL0     H87191   6.258   9.833  10.701 -1.7137 -0.7871 -0.3092
  646MOL0     H87192   6.067  10.250  10.191 -0.4365  0.4715  0.7225
  646MOL0     H87193   6.145  10.390   9.997  0.5139  1.3317  0.4073
  646MOL0     H87194   6.092  10.913   9.932 -1.3056  0.5923 -0.4089
  646MOL0     H87195   6.140  11.068   9.767  0.7442 -1.5515  2.8425
  646MOL0     H87196   7.601  11.102   9.240 -1.4754 -1.7769  1.4483
  646MOL0     H87197   7.792  11.114   9.073  2.8796 -0.9211 -0.2169
  646MOL0     H87198   7.979  11.005   8.753  0.5887  0.2985  2.6826
  646MOL0     H87199   8.104  11.045   8.544  1.3590  1.8530 -0.1867
  646MOL0     H87200   8.439  10.752   8.476  0.8378  1.0047  1.2737
  646MOL0     H87201   8.409  10.841   8.327 -1.7744  4.0123  0.7529
  646MOL0     H87202   8.660  10.868   8.472  0.3461  0.4629 -0.4051
  646MOL0     H87203   8.559  10.981   8.553  1.1134  2.4415 -0.2600
  646MOL0     H87204   8.657  11.094   8.378 -0.1938  0.0199  0.7323
  646MOL0     H87205   8.485  11.089   8.356  0.1041  0.2753  0.6662
  646MOL0     H87206   8.503  10.975   8.142  0.6324 -0.5023  0.1899
  646MOL0     H87207   8.642  10.878   8.190  0.2222 -0.1012 -2.0613
  646MOL0     H87208   8.754  11.235   7.986 -0.2530 -0.6171 -0.5823
  646MOL0     H87209   8.403  10.773   8.686  0.1364  0.2931 -2.6414
  646MOL0     H87210   8.274  10.720   8.885  2.3558  0.0026 -0.2965
  647MOL0     O87211   6.503   7.945  10.580 -0.1875  1.0014 -1.2204
  647MOL0     C87212   6.518   7.826  10.599  0.7742 -0.2246 -0.6823
  647MOL0     O87213   6.433   7.730  10.585 -0.0760 -0.1318 -0.0417
  647MOL0     C87214   6.300   7.743  10.552  0.5822  0.3490  0.2055
  647MOL0     C87215   6.198   7.702  10.645  0.2521 -0.0439 -0.0109
  647MOL0     C87216   6.065   7.689  10.597  0.9682 -0.6788  0.2809
  647MOL0     C87217   6.023   7.735  10.468  0.1501  0.3741 -0.1990
  647MOL0     O87218   5.890   7.715  10.423  0.4444  0.1607  0.3078
  647MOL0     C87219   5.868   7.695  10.281  0.4574 -0.1598  0.3706
  647MOL0     C87220   5.731   7.615  10.257  0.5991  0.4399  0.1181
  647MOL0     C87221   5.615   7.703  10.312 -0.1276  1.2325 -0.0256
  647MOL0     C87222   5.480   7.632  10.289 -0.1754 -0.4685 -0.1808
  647MOL0     C87223   5.359   7.735  10.288 -0.8261  0.4251  0.0859
  647MOL0     C87224   5.213   7.648  10.305  0.0917 -0.2280  0.6409
  647MOL0     C87225   5.098   7.740  10.299 -0.0644  1.0232 -0.1975
  647MOL0     C87226   4.953   7.689  10.302  0.6143 -0.8629 -0.4222
  647MOL0     N87227   4.867   7.798  10.255 -0.1702 -0.4165  0.0087
  647MOL0     C87228   4.857   7.930  10.299  0.0304 -0.2886 -0.9040
  647MOL0     C87229   4.748   7.987  10.248 -0.0177  0.8417  0.0900
  647MOL0     C87230   4.690   8.120  10.290  0.5800 -0.2726  0.4328
  647MOL0     C87231   4.709   8.219  10.176  0.5856 -0.4024 -0.5429
  647MOL0     C87232   4.638   8.347  10.219  0.4760 -0.5302 -0.5351
  647MOL0     C87233   4.637   8.453  10.101 -0.3869 -0.7960 -0.3395
  647MOL0     O87234   4.531   8.413  10.015 -0.3747  0.3228 -0.4406
  647MOL0     C87235   4.406   8.478  10.034  0.4938 -0.5143 -0.0306
  647MOL0     C87236   4.372   8.565  10.135  0.1699 -0.9325 -0.8108
  647MOL0     C87237   4.233   8.610  10.152 -0.1802 -0.0717  0.0317
  647MOL0     C87238   4.203   8.692  10.280  1.1785  0.8801 -0.0754
  647MOL0     C87239   4.131   8.567  10.059  0.2655 -0.5842  0.3218
  647MOL0     C87240   3.984   8.611  10.057 -0.3139 -0.6279  0.2737
  647MOL0     O87241   3.937   8.710  10.139 -0.8084  0.1071 -0.2709
  647MOL0     C87242   3.806   8.733  10.166 -0.7148 -0.6602  0.2636
  647MOL0     C87243   3.756   8.735  10.298  0.5011 -0.2841  0.0155
  647MOL0     C87244   3.619   8.756  10.321 -0.7291  0.5048 -0.6151
  647MOL0     C87245   3.532   8.794  10.217  0.8741  0.2093 -0.0502
  647MOL0     O87246   3.405   8.814  10.258 -0.5174  0.2627  0.2323
  647MOL0     C87247   3.325   8.893  10.176  0.8510  0.0915  1.4416
  647MOL0     C87248   3.212   8.955  10.265  0.1783 -0.0472 -0.2687
  647MOL0     C87249   3.121   9.042  10.181  0.3822 -0.4682  0.5502
  647MOL0     C87250   3.044   9.146  10.269 -0.0886 -0.3879 -0.4170
  647MOL0     C87251   2.933   9.222  10.191  0.2408  0.3016 -0.7668
  647MOL0     C87252   2.790   9.184  10.229 -0.2705  0.6886  0.4167
  647MOL0     C87253   2.755   9.032  10.219 -0.7016 -0.2374  0.1064
  647MOL0     C87254   2.698   9.007  10.082  0.2881  0.3181 -0.8902
  647MOL0    Cl87255   2.537   9.077  10.084  0.1962  0.0176  0.2474
  647MOL0     C87256   3.576   8.785  10.087 -0.2734 -0.6038 -0.3386
  647MOL0     C87257   3.711   8.758  10.063 -0.4205  0.3251  0.2956
  647MOL0     O87258   3.912   8.548   9.977 -0.0917  0.4256 -0.2776
  647MOL0     C87259   4.174   8.487   9.948 -0.0157 -0.3705 -0.3335
  647MOL0     C87260   4.311   8.452   9.937  0.3792 -0.2276  0.3833
  647MOL0     N87261   4.694   7.891  10.164 -0.6127  0.9525 -0.3032
  647MOL0     N87262   4.761   7.778  10.167 -0.1978 -0.3956 -0.6163
  647MOL0     C87263   6.133   7.773  10.384  0.1441  0.0055 -0.0055
  647MOL0     C87264   6.262   7.779  10.423 -0.7696  0.6251  0.3795
  647MOL0     C87265   6.655   7.796  10.649  0.1017 -0.3565  0.8432
  647MOL0     C87266   6.678   7.684  10.727 -0.4015 -0.7478  0.1510
  647MOL0     C87267   6.811   7.656  10.772  0.4347  0.0189 -0.6417
  647MOL0     C87268   6.913   7.731  10.724  0.1886 -1.5377  0.1517
  647MOL0     O87269   7.037   7.701  10.768 -0.7408  0.2614  0.3841
  647MOL0     C87270   7.148   7.781  10.715  0.8137 -0.0730 -0.6775
  647MOL0     C87271   7.284   7.744  10.775 -0.3796 -0.1886  0.4061
  647MOL0     C87272   7.303   7.589  10.781 -0.1779 -0.0738 -0.4911
  647MOL0     C87273   7.424   7.545  10.862 -0.2745  0.4168  0.0385
  647MOL0     C87274   7.378   7.454  10.967 -0.7287  0.5933 -0.0618
  647MOL0     C87275   7.359   7.378  11.053  0.5826  0.6943  0.4469
  647MOL0     C87276   6.887   7.845  10.644 -0.2424  0.2911  0.8345
  647MOL0     C87277   6.761   7.880  10.607 -0.1248  0.4608 -0.6360
  647MOL0     H87278   6.237   7.680  10.744  1.1852  0.0712 -0.3437
  647MOL0     H87279   5.976   7.663  10.655 -0.1838  0.9653 -0.6569
  647MOL0     H87280   5.861   7.793  10.233 -1.2797  0.7316  2.2758
  647MOL0     H87281   5.945   7.643  10.223 -0.1364  0.4943 -1.0615
  647MOL0     H87282   5.715   7.572  10.158 -2.6028 -1.3632  1.3045
  647MOL0     H87283   5.734   7.521  10.312 -0.1250  0.0382 -0.5112
  647MOL0     H87284   5.636   7.736  10.414  0.8138  0.3892  0.0683
  647MOL0     H87285   5.612   7.792  10.249 -3.3798  2.1550  1.2047
  647MOL0     H87286   5.489   7.588  10.189  0.5652 -1.9020  0.4881
  647MOL0     H87287   5.458   7.554  10.363  0.2323 -0.4221 -0.0101
  647MOL0     H87288   5.370   7.795  10.379 -1.2436 -2.5618  2.2582
  647MOL0     H87289   5.367   7.802  10.203  0.8805  1.2691  0.8646
  647MOL0     H87290   5.216   7.574  10.225  1.1730 -0.6004  1.0061
  647MOL0     H87291   5.215   7.591  10.398  0.4187 -0.1859  0.6646
  647MOL0     H87292   5.109   7.820  10.373 -1.1053  1.1681 -0.1878
  647MOL0     H87293   5.112   7.787  10.201  0.1910  1.8627  0.2237
  647MOL0     H87294   4.923   7.651  10.400 -1.1673  1.9629  0.2613
  647MOL0     H87295   4.941   7.601  10.238  1.0061 -3.3125  2.6094
  647MOL0     H87296   4.918   7.981  10.373  2.0592 -0.8445 -2.1414
  647MOL0     H87297   4.586   8.103  10.317  0.1871  0.5317 -0.5373
  647MOL0     H87298   4.747   8.156  10.377 -1.0962  3.1185  0.3072
  647MOL0     H87299   4.660   8.188  10.084  2.1873 -1.9210 -0.9421
  647MOL0     H87300   4.814   8.230  10.145 -0.0097  1.7743 -1.9908
  647MOL0     H87301   4.703   8.388  10.297 -0.8516  1.7006 -0.5174
  647MOL0     H87302   4.542   8.331  10.268  0.8264  0.8130  0.6510
  647MOL0     H87303   4.728   8.459  10.042 -0.1967  1.1895  0.1002
  647MOL0     H87304   4.637   8.551  10.150  3.7025  0.2752 -2.0507
  647MOL0     H87305   4.438   8.598  10.214 -1.5951  1.0897 -0.0891
  647MOL0     H87306   4.178   8.797  10.260  0.4540  1.0694  1.6350
  647MOL0     H87307   4.120   8.664  10.345  0.6269  1.0370 -0.6990
  647MOL0     H87308   4.293   8.698  10.342 -1.1976 -0.4691  3.8513
  647MOL0     H87309   3.833   8.729  10.375  0.8174  5.0217  0.4347
  647MOL0     H87310   3.590   8.784  10.422  0.1342 -1.5007  0.2410
  647MOL0     H87311   3.380   8.976  10.132  1.2400 -0.9566 -0.1367
  647MOL0     H87312   3.290   8.827  10.095 -0.9060  3.1075 -0.4734
  647MOL0     H87313   3.151   8.878  10.312  1.4175 -1.4006 -0.7712
  647MOL0     H87314   3.262   9.017  10.340  0.2919 -1.3016  0.7390
  647MOL0     H87315   3.053   8.977  10.125 -1.3929  2.9284 -1.5137
  647MOL0     H87316   3.181   9.094  10.106  1.3507 -1.2588  0.7386
  647MOL0     H87317   2.990   9.108  10.357 -0.9124  1.4357 -0.0970
  647MOL0     H87318   3.103   9.228  10.309 -1.8219  1.4198 -1.3712
  647MOL0     H87319   2.949   9.209  10.083 -0.1455  0.4789 -0.8488
  647MOL0     H87320   2.952   9.325  10.221  0.1268  0.2674 -0.5774
  647MOL0     H87321   2.775   9.219  10.331 -2.0549  0.5406  0.2290
  647MOL0     H87322   2.722   9.251  10.175 -1.8839  2.0900  3.8971
  647MOL0     H87323   2.687   9.008  10.301 -1.9349  1.6809 -0.2828
  647MOL0     H87324   2.831   8.954  10.231 -0.7221 -0.4300 -0.9315
  647MOL0     H87325   2.690   8.898  10.071 -1.2252  0.0798  1.7496
  647MOL0     H87326   2.767   9.043  10.005  1.5661 -0.8172 -0.3242
  647MOL0     H87327   3.506   8.786  10.005 -2.0728 -3.0680  1.0588
  647MOL0     H87328   3.758   8.760   9.965  1.7770  0.9926  1.2929
  647MOL0     H87329   4.107   8.447   9.872 -0.7438 -0.9769  0.6021
  647MOL0     H87330   4.343   8.412   9.841 -1.8283  0.8267 -0.8865
  647MOL0     H87331   6.114   7.792  10.278 -0.2404  0.5482  0.1585
  647MOL0     H87332   6.348   7.804  10.362 -0.0534 -0.8182  0.7583
  647MOL0     H87333   6.602   7.621  10.771  2.5927 -2.8461  2.7517
  647MOL0     H87334   6.835   7.569  10.834 -0.0309  0.0057 -0.4758
  647MOL0     H87335   7.150   7.751  10.610  1.0194  0.4914 -0.8392
  647MOL0     H87336   7.123   7.887  10.728 -4.3172 -0.9831 -1.0334
  647MOL0     H87337   7.284   7.792  10.873  0.2687  1.4504 -0.3442
  647MOL0     H87338   7.371   7.779  10.718  2.8145  0.5009  5.1486
  647MOL0     H87339   7.320   7.560  10.677  1.6839 -1.3999  0.1112
  647MOL0     H87340   7.214   7.540  10.821  0.4128 -1.2970 -0.6244
  647MOL0     H87341   7.469   7.628  10.919  1.4842 -1.0490  0.8693
  647MOL0     H87342   7.506   7.498  10.808 -0.7197 -0.7618  0.3695
  647MOL0     H87343   7.318   7.316  11.131 -0.7862  0.0383 -0.7563
  647MOL0     H87344   6.967   7.906  10.601 -1.7701  2.5449  1.0109
  647MOL0     H87345   6.740   7.971  10.552 -3.2019  0.2053 -0.1016
  648MOL0     O87346   6.789   9.795   8.877  0.3972 -0.5742 -0.2056
  648MOL0     C87347   6.773   9.782   9.002 -0.6011  0.5684  0.4746
  648MOL0     O87348   6.671   9.831   9.070 -0.7317 -0.1825  0.3135
  648MOL0     C87349   6.583   9.908   8.991 -0.2563  0.7710  0.8788
  648MOL0     C87350   6.519   9.859   8.877  0.3145  0.1899  0.0866
  648MOL0     C87351   6.431   9.935   8.800  0.1667 -0.2520  0.1800
  648MOL0     C87352   6.411  10.077   8.839  0.4647  0.0344 -0.1957
  648MOL0     O87353   6.326  10.166   8.788  0.8251 -0.3418  0.4155
  648MOL0     C87354   6.226  10.101   8.699 -0.2203 -0.7338  0.2303
  648MOL0     C87355   6.117  10.197   8.653 -0.3204 -0.2414 -1.2204
  648MOL0     C87356   5.982  10.143   8.683  1.0150 -0.7098 -0.0737
  648MOL0     C87357   5.946  10.036   8.576  0.1136 -0.5830  0.4091
  648MOL0     C87358   5.812   9.960   8.616 -0.3694  0.1295  0.2198
  648MOL0     C87359   5.742   9.905   8.493 -0.3749  0.3189 -0.1019
  648MOL0     C87360   5.594   9.868   8.517 -0.6158 -0.6647  0.0321
  648MOL0     C87361   5.565   9.762   8.616  0.7430 -0.0057 -0.1647
  648MOL0     N87362   5.416   9.735   8.611 -0.2751 -0.2822 -0.2950
  648MOL0     C87363   5.314   9.794   8.679 -0.0981  0.1000  0.1401
  648MOL0     C87364   5.201   9.723   8.639 -0.0543  0.6358 -0.2351
  648MOL0     C87365   5.064   9.761   8.681  0.3270 -0.0472  0.4906
  648MOL0     C87366   4.963   9.717   8.576 -0.2849  0.2058 -0.1983
  648MOL0     C87367   4.924   9.568   8.602 -0.4554 -0.0356  0.7623
  648MOL0     C87368   4.868   9.504   8.477  0.0625 -0.1273  0.0174
  648MOL0     O87369   4.772   9.586   8.405  0.0144  0.0277 -0.3541
  648MOL0     C87370   4.646   9.580   8.451 -1.8899  0.3174  0.2791
  648MOL0     C87371   4.570   9.490   8.383 -0.0580  0.3771 -0.1159
  648MOL0     C87372   4.430   9.486   8.403  0.9370  0.6109 -0.4051
  648MOL0     C87373   4.355   9.365   8.339  0.2964 -0.7502 -0.4860
  648MOL0     C87374   4.369   9.576   8.495 -0.0390  0.5511 -0.2388
  648MOL0     C87375   4.219   9.578   8.521 -0.3756 -0.4576 -0.2331
  648MOL0     O87376   4.153   9.462   8.494 -0.1201 -0.0537  0.0369
  648MOL0     C87377   4.014   9.453   8.509 -0.3757 -0.1221 -0.0607
  648MOL0     C87378   3.925   9.557   8.480 -0.1982  0.0163 -0.2819
  648MOL0     C87379   3.787   9.539   8.511 -0.2913  0.0540  0.3572
  648MOL0     C87380   3.730   9.419   8.554 -0.4304 -0.2134 -0.6640
  648MOL0     O87381   3.601   9.424   8.582 -0.0903  0.1493 -0.6174
  648MOL0     C87382   3.549   9.342   8.690  0.4171  0.1246 -0.1231
  648MOL0     C87383   3.467   9.218   8.637 -1.1077 -0.3666  0.6395
  648MOL0     C87384   3.352   9.182   8.737 -0.9471  0.0865  0.2976
  648MOL0     C87385   3.270   9.070   8.681  0.4880  1.2113  0.0422
  648MOL0     C87386   3.139   9.046   8.752 -1.5715  0.6540 -0.4143
  648MOL0     C87387   3.070   8.925   8.687  0.2025 -0.1401  0.8006
  648MOL0     C87388   2.960   8.871   8.781  0.3348  0.4572 -0.2490
  648MOL0     C87389   2.892   8.749   8.714  0.6510  0.0310 -0.1240
  648MOL0    Cl87390   2.746   8.710   8.790  0.2618 -0.0970  0.2905
  648MOL0     C87391   3.825   9.312   8.572  0.3337 -0.1787  0.4423
  648MOL0     C87392   3.961   9.332   8.552  0.1555  0.6351 -0.1023
  648MOL0     O87393   4.176   9.667   8.586 -0.3781 -0.0245 -0.1583
  648MOL0     C87394   4.453   9.667   8.562  0.1177  0.2656  0.5104
  648MOL0     C87395   4.586   9.671   8.536  0.0119 -0.3707  0.2221
  648MOL0     N87396   5.242   9.622   8.554 -0.4400 -1.0622 -0.1081
  648MOL0     N87397   5.364   9.636   8.527 -0.4379 -0.5179  0.0955
  648MOL0     C87398   6.482  10.133   8.937 -0.9562  0.1858 -1.0875
  648MOL0     C87399   6.561  10.047   9.018  0.5836  0.2418  0.0514
  648MOL0     C87400   6.887   9.720   9.071  0.0024  1.3628 -0.5993
  648MOL0     C87401   6.992   9.654   9.005  0.4227 -0.6287  0.0719
  648MOL0     C87402   7.097   9.609   9.076  0.7054 -0.2630  0.1487
  648MOL0     C87403   7.103   9.622   9.217  0.6638 -0.2317  0.9691
  648MOL0     O87404   7.214   9.573   9.288  0.0049  0.3689  0.2755
  648MOL0     C87405   7.294   9.468   9.231  0.2593 -0.0079 -0.5576
  648MOL0     C87406   7.383   9.414   9.345 -0.0750 -0.2200 -1.1427
  648MOL0     C87407   7.513   9.335   9.294  0.2149 -1.1648 -0.3216
  648MOL0     C87408   7.473   9.206   9.235 -0.2996  0.6233  0.6988
  648MOL0     C87409   7.434   9.109   9.335 -0.4185  0.5804 -0.2782
  648MOL0     C87410   7.416   9.024   9.419  0.7911 -0.2474 -0.9741
  648MOL0     C87411   7.006   9.692   9.283 -0.2772  0.2890 -1.0578
  648MOL0     C87412   6.894   9.738   9.214  0.2771  0.4322  0.3997
  648MOL0     H87413   6.521   9.752   8.858  0.4350  0.1966  0.0589
  648MOL0     H87414   6.380   9.889   8.716 -0.8614  0.2067  0.5257
  648MOL0     H87415   6.262  10.063   8.603 -1.3487 -1.4332  0.0581
  648MOL0     H87416   6.180  10.014   8.747  0.9007 -1.5672 -0.1562
  648MOL0     H87417   6.138  10.286   8.712 -0.7942 -0.0798 -1.2874
  648MOL0     H87418   6.143  10.238   8.554 -0.9267 -0.4509 -1.4698
  648MOL0     H87419   5.969  10.092   8.778 -3.2574  3.0139  1.6845
  648MOL0     H87420   5.902  10.216   8.674  0.3108 -1.1594  2.0412
  648MOL0     H87421   5.917  10.077   8.478  0.6808 -1.2672 -0.0492
  648MOL0     H87422   6.031   9.969   8.565  2.2513  2.3565 -4.6527
  648MOL0     H87423   5.840   9.887   8.693 -1.9159 -0.7704 -0.0433
  648MOL0     H87424   5.740  10.021   8.671 -0.5852 -0.4088  0.5463
  648MOL0     H87425   5.740   9.981   8.415 -2.3034  0.3403 -0.0961
  648MOL0     H87426   5.795   9.817   8.456  0.7858  0.6839  0.6635
  648MOL0     H87427   5.546   9.964   8.540 -2.3066 -1.1358 -1.3151
  648MOL0     H87428   5.548   9.847   8.421  2.0846 -1.7841 -1.1145
  648MOL0     H87429   5.594   9.788   8.718  0.0781 -1.4673  0.4297
  648MOL0     H87430   5.620   9.668   8.605 -0.3658 -0.7491  0.4597
  648MOL0     H87431   5.316   9.879   8.747  3.1359 -0.0565  0.4109
  648MOL0     H87432   5.047   9.697   8.768 -1.0655 -1.5924 -0.8696
  648MOL0     H87433   5.046   9.867   8.702 -0.9236  0.5441 -2.9796
  648MOL0     H87434   5.000   9.742   8.476  2.1405  2.0091  1.0551
  648MOL0     H87435   4.870   9.775   8.577 -2.5844 -3.0883 -2.1345
  648MOL0     H87436   4.845   9.567   8.677 -2.2728 -2.6045 -1.0106
  648MOL0     H87437   5.019   9.519   8.624  2.1843  4.1411 -0.0247
  648MOL0     H87438   4.831   9.404   8.503  0.1705  0.4738  2.7853
  648MOL0     H87439   4.956   9.505   8.412 -0.6592 -0.8970 -1.0017
  648MOL0     H87440   4.606   9.429   8.301 -1.4704  0.4579 -0.8280
  648MOL0     H87441   4.326   9.299   8.422 -0.4709  1.0540  0.7448
  648MOL0     H87442   4.257   9.396   8.302 -0.6241 -1.7362  1.0303
  648MOL0     H87443   4.411   9.312   8.261  1.7541  0.6312 -0.4312
  648MOL0     H87444   3.965   9.648   8.437 -0.7269 -0.3154 -1.5181
  648MOL0     H87445   3.721   9.626   8.507  1.1453  1.1494 -0.4694
  648MOL0     H87446   3.624   9.300   8.758  2.0708  0.4572 -1.6747
  648MOL0     H87447   3.477   9.403   8.745 -1.4486  0.1199 -2.4432
  648MOL0     H87448   3.416   9.258   8.548 -2.2277  0.6838  1.7074
  648MOL0     H87449   3.538   9.140   8.608 -0.4925 -0.1467  1.5199
  648MOL0     H87450   3.291   9.273   8.745  0.5089  1.0704  0.7380
  648MOL0     H87451   3.393   9.157   8.835 -0.6082  1.8868  0.6572
  648MOL0     H87452   3.236   9.104   8.582 -0.1564 -2.2500 -1.0803
  648MOL0     H87453   3.330   8.980   8.666 -2.8976 -0.8210 -2.9113
  648MOL0     H87454   3.072   9.132   8.745 -3.2097 -0.5795 -0.5237
  648MOL0     H87455   3.154   9.023   8.858  3.2126  0.7828 -0.8385
  648MOL0     H87456   3.032   8.972   8.596  1.3823  1.9854  1.3367
  648MOL0     H87457   3.147   8.853   8.658 -0.6123 -0.9723  0.6589
  648MOL0     H87458   2.893   8.956   8.795 -1.1339 -0.5565 -0.9541
  648MOL0     H87459   2.999   8.858   8.882 -0.1342  4.0358  0.5516
  648MOL0     H87460   2.954   8.659   8.720 -0.0826 -0.4464  0.4257
  648MOL0     H87461   2.874   8.761   8.607 -1.8408 -1.6190  0.0313
  648MOL0     H87462   3.787   9.215   8.601 -0.9506  0.1116 -0.1771
  648MOL0     H87463   4.022   9.243   8.567 -1.8999 -0.7925  0.3137
  648MOL0     H87464   4.423   9.745   8.631 -2.1653 -0.1952  0.1219
  648MOL0     H87465   4.651   9.753   8.567  0.7087 -0.6156 -0.5501
  648MOL0     H87466   6.471  10.238   8.962  0.3648  0.8530 -3.0878
  648MOL0     H87467   6.598  10.086   9.112 -0.4386  0.4501  0.3820
  648MOL0     H87468   6.992   9.652   8.896 -0.7014  0.4152  0.0348
  648MOL0     H87469   7.184   9.575   9.020  0.0520 -1.4352 -0.1895
  648MOL0     H87470   7.226   9.389   9.197  0.5799 -0.8609  0.7101
  648MOL0     H87471   7.350   9.509   9.147 -0.0903 -1.2280 -1.4103
  648MOL0     H87472   7.337   9.342   9.413  0.7507 -0.1129 -0.4521
  648MOL0     H87473   7.430   9.485   9.414 -1.1908 -2.4126  2.1615
  648MOL0     H87474   7.581   9.315   9.377 -1.4585  0.2449  1.4675
  648MOL0     H87475   7.567   9.404   9.228  0.9540 -0.9871  0.4435
  648MOL0     H87476   7.565   9.153   9.208 -1.7071 -1.2279 -0.7027
  648MOL0     H87477   7.409   9.211   9.147  0.4963 -1.8500 -0.1066
  648MOL0     H87478   7.378   8.947   9.483  0.1280 -1.1766 -2.4318
  648MOL0     H87479   7.024   9.722   9.386  1.9496  0.5198 -1.4528
  648MOL0     H87480   6.815   9.794   9.262 -0.5547 -0.0450 -0.3873
  649MOL0     O87481   3.384   8.754  11.044 -0.0987 -0.0144 -1.1756
  649MOL0     C87482   3.355   8.765  11.162  0.1470  0.1320 -1.3011
  649MOL0     O87483   3.229   8.761  11.208  0.2604 -0.1421  0.1384
  649MOL0     C87484   3.125   8.720  11.119  0.1164  0.0900  0.1012
  649MOL0     C87485   3.135   8.611  11.033 -0.4017 -0.7418 -0.1719
  649MOL0     C87486   3.022   8.562  10.973  0.0668  1.3254  0.2719
  649MOL0     C87487   2.894   8.620  10.989 -0.4757 -0.2147  0.5157
  649MOL0     O87488   2.770   8.579  10.934 -0.2875  0.0901  0.4367
  649MOL0     C87489   2.772   8.463  10.844 -0.3323 -0.0246  0.0334
  649MOL0     C87490   2.630   8.415  10.812 -0.7223  0.6700 -0.9995
  649MOL0     C87491   2.541   8.500  10.718 -0.4204 -0.3569 -0.1033
  649MOL0     C87492   2.395   8.447  10.708  0.0440  0.3064 -0.2909
  649MOL0     C87493   2.286   8.526  10.629  0.1690 -0.4185  0.1407
  649MOL0     C87494   2.303   8.495  10.485 -0.1098  0.5308  0.2827
  649MOL0     C87495   2.187   8.565  10.401 -0.9298 -0.0112 -0.0634
  649MOL0     C87496   2.213   8.549  10.252 -0.4093 -0.0806  0.1399
  649MOL0     N87497   2.102   8.599  10.182  0.0692 -0.2362 -0.5544
  649MOL0     C87498   1.988   8.531  10.129 -1.0380  0.2089  0.1672
  649MOL0     C87499   1.901   8.629  10.098 -0.2959  0.1382 -0.4160
  649MOL0     C87500   1.753   8.624  10.048  0.2528  0.8606 -1.0925
  649MOL0     C87501   1.748   8.616   9.893  0.4794 -0.2017 -0.3799
  649MOL0     C87502   1.737   8.753   9.811 -0.9477 -0.4736 -0.3892
  649MOL0     C87503   1.604   8.819   9.824 -0.1882  0.1875 -0.7742
  649MOL0     O87504   1.607   8.935   9.912  0.4228 -0.3818  0.3049
  649MOL0     C87505   1.487   8.999   9.930 -0.1136  0.5780 -0.0050
  649MOL0     C87506   1.363   8.958   9.872 -0.7058 -0.1542 -0.2940
  649MOL0     C87507   1.251   9.032   9.899  0.1648  0.3186 -0.1523
  649MOL0     C87508   1.115   8.992   9.827 -0.2609 -0.1442 -0.2800
  649MOL0     C87509   1.254   9.149   9.988  0.0289  0.5299  0.7218
  649MOL0     C87510   1.139   9.224  10.031  0.3493  1.0277 -1.0474
  649MOL0     O87511   1.013   9.157  10.026  0.5115 -0.6173  0.4014
  649MOL0     C87512   0.898   9.220  10.060 -0.1741  0.4838 -1.5249
  649MOL0     C87513   0.892   9.306  10.172 -0.0601  1.1310 -0.3187
  649MOL0     C87514   0.766   9.345  10.209  0.3219  0.1671 -0.7745
  649MOL0     C87515   0.645   9.322  10.137 -0.1739  0.6463  0.7612
  649MOL0     O87516   0.528   9.368  10.187  0.3677 -0.6473  0.7162
  649MOL0     C87517   0.416   9.383  10.092 -0.2346  0.5356 -0.0634
  649MOL0     C87518   0.320   9.490  10.158  0.2048  0.1935 -0.8136
  649MOL0     C87519   0.202   9.489  10.061  0.8157 -0.0691  0.4944
  649MOL0     C87520   0.099   9.592  10.108  0.3374  0.0883 -0.6075
  649MOL0     C87521   0.013   9.536  10.230 -0.0153 -0.4342  0.6595
  649MOL0     C87522  -0.130   9.598  10.213  0.5433  0.3506 -0.3823
  649MOL0     C87523  -0.226   9.558  10.325  0.5528 -0.2110  0.5057
  649MOL0     C87524  -0.362   9.626  10.327 -0.1266 -1.3631  0.6774
  649MOL0    Cl87525  -0.432   9.623  10.170 -0.4524  0.3535  0.1839
  649MOL0     C87526   0.655   9.239  10.022  0.0548 -0.4461 -0.1882
  649MOL0     C87527   0.784   9.189   9.990 -0.4420 -0.0733 -0.6620
  649MOL0     O87528   1.160   9.340  10.066 -0.5993  0.3385 -0.3865
  649MOL0     C87529   1.379   9.178  10.040 -0.0565  0.4602 -0.3924
  649MOL0     C87530   1.489   9.109  10.004 -0.2169 -0.4316 -1.1308
  649MOL0     N87531   1.956   8.750  10.111 -0.3955  0.0732 -0.2871
  649MOL0     N87532   2.074   8.734  10.159 -0.4060  0.3212 -0.6285
  649MOL0     C87533   2.884   8.735  11.076  0.8902 -0.0403  0.3853
  649MOL0     C87534   2.994   8.778  11.147 -0.4332  0.4661 -0.3739
  649MOL0     C87535   3.469   8.802  11.252 -0.5428 -0.1518  0.0893
  649MOL0     C87536   3.454   8.830  11.389 -0.4144 -0.0586 -0.1269
  649MOL0     C87537   3.561   8.883  11.473  0.7233  0.3849  0.4322
  649MOL0     C87538   3.687   8.900  11.417 -0.3311  0.2099  0.3328
  649MOL0     O87539   3.808   8.935  11.481 -0.4237 -0.5678 -0.2657
  649MOL0     C87540   3.794   8.954  11.630 -1.2802  0.6171 -0.0793
  649MOL0     C87541   3.921   9.017  11.684  0.3981  0.3295  0.0222
  649MOL0     C87542   3.971   9.140  11.605  0.4947 -0.5241 -0.3801
  649MOL0     C87543   4.090   9.229  11.665  0.4334  0.5120 -0.2410
  649MOL0     C87544   4.201   9.140  11.712 -0.3513  0.8546  0.3159
  649MOL0     C87545   4.302   9.074  11.736 -0.0548 -0.2171 -0.6001
  649MOL0     C87546   3.696   8.881  11.285 -0.4263 -0.4686  0.6347
  649MOL0     C87547   3.594   8.832  11.199 -0.0227 -0.4021 -0.7204
  649MOL0     H87548   3.232   8.563  11.027 -0.7753 -1.4335 -0.8483
  649MOL0     H87549   3.028   8.471  10.914 -1.9779  1.0971  0.3205
  649MOL0     H87550   2.810   8.489  10.745 -0.3007 -0.5244 -0.0915
  649MOL0     H87551   2.829   8.381  10.890  0.9840  2.3528  2.9894
  649MOL0     H87552   2.632   8.312  10.775 -1.8860  0.3427 -0.2078
  649MOL0     H87553   2.581   8.411  10.910  0.0554 -1.6425 -0.6286
  649MOL0     H87554   2.546   8.605  10.748  1.1025  0.1883 -2.0119
  649MOL0     H87555   2.587   8.504  10.618 -0.7616 -1.7424 -0.3402
  649MOL0     H87556   2.390   8.342  10.676 -0.1521  0.5858 -1.2035
  649MOL0     H87557   2.360   8.455  10.811 -0.8138  1.3744 -0.6525
  649MOL0     H87558   2.193   8.475  10.659  2.8734 -3.5628  4.3018
  649MOL0     H87559   2.276   8.634  10.646 -0.1507 -0.0500 -2.1111
  649MOL0     H87560   2.403   8.519  10.446  0.1712 -1.6892 -0.5327
  649MOL0     H87561   2.295   8.387  10.466  1.9822  0.2703  0.6595
  649MOL0     H87562   2.094   8.510  10.418 -0.3365 -0.3598  2.3812
  649MOL0     H87563   2.169   8.672  10.413 -2.0724  0.2750 -3.4048
  649MOL0     H87564   2.223   8.446  10.218 -1.0198 -0.4249  0.9727
  649MOL0     H87565   2.303   8.608  10.229 -0.6907  1.9776  3.6960
  649MOL0     H87566   1.960   8.427  10.142  2.2176 -0.9553 -1.2115
  649MOL0     H87567   1.699   8.536  10.085  2.1237  0.2825  0.4377
  649MOL0     H87568   1.705   8.717  10.078 -0.2849  0.3520 -0.3456
  649MOL0     H87569   1.665   8.549   9.866  1.9571 -2.6620  0.7672
  649MOL0     H87570   1.843   8.576   9.857  0.5403  0.3231 -0.8140
  649MOL0     H87571   1.750   8.736   9.704  1.3230 -0.0454 -0.2473
  649MOL0     H87572   1.817   8.824   9.839 -1.2498  0.3508 -1.5460
  649MOL0     H87573   1.528   8.745   9.852 -2.8133  2.9887  0.0040
  649MOL0     H87574   1.581   8.841   9.720  0.4870 -0.1417 -0.9997
  649MOL0     H87575   1.355   8.873   9.805 -0.4156 -1.2790  1.0470
  649MOL0     H87576   1.121   8.905   9.761 -2.5066 -2.3021  2.1137
  649MOL0     H87577   1.046   8.960   9.905  0.6632  0.5636  0.8577
  649MOL0     H87578   1.073   9.075   9.769 -1.2640  0.5989  1.4153
  649MOL0     H87579   0.982   9.307  10.232  0.6660 -0.5752 -1.3066
  649MOL0     H87580   0.745   9.391  10.305 -0.5283 -2.4448  0.3797
  649MOL0     H87581   0.454   9.427   9.999  0.0284  1.1193  0.3095
  649MOL0     H87582   0.368   9.287  10.073 -1.3472  0.9430  0.5987
  649MOL0     H87583   0.292   9.466  10.261 -1.9831  0.6728 -1.2480
  649MOL0     H87584   0.364   9.590  10.162  0.6966  0.0176  3.3566
  649MOL0     H87585   0.153   9.391  10.063  2.2367 -0.8016  1.2506
  649MOL0     H87586   0.236   9.514   9.960  1.6533  0.1224  0.8107
  649MOL0     H87587   0.155   9.685  10.126  4.1129 -2.2951  1.1535
  649MOL0     H87588   0.039   9.597  10.017 -2.2713 -2.4307  0.8198
  649MOL0     H87589   0.054   9.587  10.318 -3.3398 -0.8661  2.6267
  649MOL0     H87590  -0.001   9.428  10.233 -0.6993 -0.4158 -0.8793
  649MOL0     H87591  -0.125   9.707  10.220  0.5514  0.4473 -1.7082
  649MOL0     H87592  -0.167   9.556  10.119  0.1909  0.5910 -0.3534
  649MOL0     H87593  -0.170   9.577  10.418  0.9279 -0.7998  0.4085
  649MOL0     H87594  -0.246   9.450  10.326  0.0745 -0.1391  2.1292
  649MOL0     H87595  -0.350   9.731  10.353 -1.0639 -0.0363 -3.5602
  649MOL0     H87596  -0.432   9.582  10.399 -1.7578  2.5539  1.7192
  649MOL0     H87597   0.568   9.201   9.968  0.9572 -0.7154 -1.5061
  649MOL0     H87598   0.769   9.127   9.902 -2.2036 -0.9275  0.1901
  649MOL0     H87599   1.398   9.265  10.102  2.0745  0.5930 -1.1484
  649MOL0     H87600   1.587   9.148  10.031  1.1273 -2.8105 -2.1963
  649MOL0     H87601   2.791   8.789  11.095 -0.2967 -1.1158 -1.9275
  649MOL0     H87602   2.990   8.858  11.221 -2.6579  0.2652 -0.2240
  649MOL0     H87603   3.352   8.808  11.421 -1.0810  0.0215 -2.0943
  649MOL0     H87604   3.532   8.892  11.578  0.5039  0.5311  0.3604
  649MOL0     H87605   3.706   9.015  11.650 -2.1177 -0.4328 -0.5162
  649MOL0     H87606   3.784   8.851  11.667 -0.0817  0.4147 -0.2791
  649MOL0     H87607   3.996   8.938  11.685 -0.2108 -0.2678 -0.3289
  649MOL0     H87608   3.913   9.050  11.788  1.8139 -1.8666  0.8833
  649MOL0     H87609   3.889   9.210  11.586  1.0337  0.3032  0.2634
  649MOL0     H87610   4.011   9.096  11.513  1.0249 -0.0260 -0.3947
  649MOL0     H87611   4.062   9.298  11.745 -2.0961  0.9282 -1.3987
  649MOL0     H87612   4.127   9.291  11.583 -1.0801  2.4752  0.4785
  649MOL0     H87613   4.393   9.022  11.755 -0.3871 -0.3531  0.7742
  649MOL0     H87614   3.791   8.891  11.233 -0.9494 -0.0535 -0.2447
  649MOL0     H87615   3.604   8.822  11.091 -1.9756 -0.9310 -0.9072
  650MOL0     O87616   1.502   3.199   0.606  0.1626  0.3812  0.0199
  650MOL0     C87617   1.412   3.281   0.565 -0.0659 -0.5387 -0.4276
  650MOL0     O87618   1.439   3.394   0.494 -0.0535 -0.4401 -0.1213
  650MOL0     C87619   1.568   3.447   0.477 -0.2492  0.5312  0.2627
  650MOL0     C87620   1.587   3.519   0.366  0.2092  0.7126 -0.0278
  650MOL0     C87621   1.707   3.581   0.336 -0.1147  0.6234 -0.2323
  650MOL0     C87622   1.804   3.584   0.437 -0.1601  0.4579  0.3019
  650MOL0     O87623   1.922   3.650   0.443  0.8362  0.5489  0.0887
  650MOL0     C87624   1.936   3.757   0.352 -0.2521  0.1753 -0.0838
  650MOL0     C87625   2.077   3.805   0.374 -0.2421 -1.0198 -0.6932
  650MOL0     C87626   2.180   3.742   0.280  1.3165 -0.3890  0.6202
  650MOL0     C87627   2.319   3.801   0.290  0.1931  0.0163 -0.5676
  650MOL0     C87628   2.403   3.795   0.167 -0.2437  0.1117  0.1451
  650MOL0     C87629   2.440   3.654   0.127 -0.1369  0.0141 -0.0198
  650MOL0     C87630   2.546   3.651   0.017  0.0381  0.1268 -0.0366
  650MOL0     C87631   2.547   3.502  -0.020 -0.7717  0.4540 -0.5123
  650MOL0     N87632   2.661   3.469  -0.111 -0.0583 -0.2140 -0.0021
  650MOL0     C87633   2.703   3.549  -0.217 -0.6831 -0.4862  0.0830
  650MOL0     C87634   2.830   3.503  -0.252  0.1997  0.2487 -0.7811
  650MOL0     C87635   2.906   3.546  -0.368 -0.7284  0.2497  0.4749
  650MOL0     C87636   2.905   3.444  -0.473  0.2452  0.2279  0.7395
  650MOL0     C87637   2.790   3.468  -0.568 -0.5006  0.6363  0.0077
  650MOL0     C87638   2.745   3.349  -0.654 -0.0883  0.7072  0.4319
  650MOL0     O87639   2.685   3.245  -0.573  0.4823 -0.3258  0.0481
  650MOL0     C87640   2.619   3.142  -0.623 -0.0601  0.7731 -0.1111
  650MOL0     C87641   2.601   3.113  -0.755  0.0399 -0.5670  0.7761
  650MOL0     C87642   2.521   3.006  -0.811 -0.2757 -0.0475 -0.4893
  650MOL0     C87643   2.489   3.014  -0.958 -0.0911 -0.6039 -0.4302
  650MOL0     C87644   2.468   2.913  -0.723 -0.1614 -0.1964 -0.4774
  650MOL0     C87645   2.363   2.810  -0.756 -0.0539  1.0623  0.3339
  650MOL0     O87646   2.350   2.769  -0.888 -0.1804  0.4300 -0.4471
  650MOL0     C87647   2.255   2.685  -0.943 -0.0158  0.2264  0.2725
  650MOL0     C87648   2.130   2.675  -0.890 -0.0630  0.3144  0.3049
  650MOL0     C87649   2.039   2.582  -0.939 -0.1669  0.3062 -0.7320
  650MOL0     C87650   2.072   2.505  -1.052  0.2534 -0.5157  0.0387
  650MOL0     O87651   1.994   2.416  -1.123 -0.3652  0.3784 -0.1968
  650MOL0     C87652   1.874   2.354  -1.073  0.3195  0.1818 -0.1781
  650MOL0     C87653   1.785   2.328  -1.187 -0.0348  0.2653 -0.8504
  650MOL0     C87654   1.637   2.330  -1.136 -0.0683  0.4162  1.2842
  650MOL0     C87655   1.547   2.305  -1.259  0.5963  0.1412 -0.0279
  650MOL0     C87656   1.421   2.232  -1.230 -0.5880  0.3794 -0.3382
  650MOL0     C87657   1.325   2.204  -1.351  0.2628  0.2336 -0.0826
  650MOL0     C87658   1.194   2.142  -1.301 -0.3719  0.0006  0.4294
  650MOL0     C87659   1.095   2.135  -1.417 -1.0335  0.1481 -0.0679
  650MOL0    Cl87660   0.964   2.016  -1.396 -0.0670 -0.0211  0.0637
  650MOL0     C87661   2.204   2.514  -1.103  0.9673  0.3974 -0.1902
  650MOL0     C87662   2.293   2.601  -1.047  0.0925  0.6722  0.0142
  650MOL0     O87663   2.305   2.762  -0.661  0.4724 -0.7101 -0.7717
  650MOL0     C87664   2.493   2.932  -0.586 -0.6078 -0.3050 -0.4706
  650MOL0     C87665   2.567   3.046  -0.535 -0.5537 -0.0680 -0.2553
  650MOL0     N87666   2.867   3.408  -0.162 -0.2380 -0.0076 -0.0305
  650MOL0     N87667   2.768   3.390  -0.082 -0.4643  0.3902  0.9623
  650MOL0     C87668   1.789   3.505   0.550 -0.9219 -0.7766 -0.4745
  650MOL0     C87669   1.668   3.441   0.574 -0.4384 -0.6029 -0.1605
  650MOL0     C87670   1.261   3.251   0.582 -0.4703 -0.9228 -0.6748
  650MOL0     C87671   1.165   3.303   0.499  0.2365  0.3223  0.0733
  650MOL0     C87672   1.030   3.298   0.541  0.1987  0.3025  0.1998
  650MOL0     C87673   0.988   3.225   0.650 -0.5717 -0.0464 -0.5869
  650MOL0     O87674   0.853   3.231   0.674  0.0016  0.1461  0.4735
  650MOL0     C87675   0.803   3.206   0.806  0.1042 -0.7759 -0.1227
  650MOL0     C87676   0.781   3.050   0.838  0.0949 -0.3414  0.0842
  650MOL0     C87677   0.723   2.969   0.714 -0.5610 -0.2996  0.5025
  650MOL0     C87678   0.596   3.029   0.654 -0.3653  0.3838 -0.1259
  650MOL0     C87679   0.491   3.033   0.748  0.1543  0.0207 -0.9683
  650MOL0     C87680   0.406   3.030   0.842 -0.2725  0.5795 -0.0734
  650MOL0     C87681   1.086   3.174   0.739  0.4814 -0.5381 -0.5304
  650MOL0     C87682   1.222   3.194   0.706  0.3585  0.5186 -0.0402
  650MOL0     H87683   1.511   3.540   0.290  0.4330  1.0402 -0.1672
  650MOL0     H87684   1.710   3.646   0.249 -1.2887  0.4719 -0.3989
  650MOL0     H87685   1.921   3.726   0.248 -1.1562  0.4215 -0.0342
  650MOL0     H87686   1.863   3.834   0.378 -1.9956 -2.0471  2.1041
  650MOL0     H87687   2.070   3.914   0.379 -5.7885 -1.1385  3.7149
  650MOL0     H87688   2.110   3.774   0.474  1.1935 -2.4962 -1.5624
  650MOL0     H87689   2.171   3.633   0.287 -2.7638 -0.4780 -2.3980
  650MOL0     H87690   2.143   3.762   0.179 -2.8487 -1.5968  1.7064
  650MOL0     H87691   2.324   3.904   0.327  1.7183  0.3769 -1.6869
  650MOL0     H87692   2.362   3.736   0.367  0.0261 -0.4512 -0.8617
  650MOL0     H87693   2.340   3.832   0.086 -0.5253  0.8747  0.6946
  650MOL0     H87694   2.494   3.854   0.182  0.6404 -1.0275 -0.6038
  650MOL0     H87695   2.462   3.616   0.228 -0.7820  0.0860  0.1515
  650MOL0     H87696   2.346   3.606   0.099 -0.6711  1.7814 -1.4698
  650MOL0     H87697   2.505   3.716  -0.061 -2.3295  0.9598  1.7366
  650MOL0     H87698   2.646   3.685   0.043 -0.6023  2.6208 -0.5135
  650MOL0     H87699   2.450   3.484  -0.067 -1.6577  1.9916  0.6481
  650MOL0     H87700   2.556   3.442   0.071 -1.1144  1.6762  0.3432
  650MOL0     H87701   2.652   3.633  -0.261  0.6467  0.5161  0.3996
  650MOL0     H87702   2.877   3.647  -0.399 -0.5925  0.3976  0.8288
  650MOL0     H87703   3.010   3.566  -0.343  0.1271  1.5206 -3.3404
  650MOL0     H87704   2.889   3.342  -0.435 -1.2731 -0.3563 -1.2798
  650MOL0     H87705   2.999   3.444  -0.528  0.3791 -0.6694  0.9531
  650MOL0     H87706   2.832   3.541  -0.638  0.1641 -1.7952 -2.2867
  650MOL0     H87707   2.706   3.511  -0.513 -0.7388 -2.4601  2.2591
  650MOL0     H87708   2.835   3.315  -0.705 -2.5672 -2.3689 -2.3274
  650MOL0     H87709   2.667   3.372  -0.727 -0.1315 -1.0784 -0.1194
  650MOL0     H87710   2.638   3.179  -0.833 -1.6545 -1.4039 -0.8313
  650MOL0     H87711   2.383   3.011  -0.986 -0.7309 -0.3086  1.7547
  650MOL0     H87712   2.549   3.103  -0.980  3.5263 -1.2321  4.8460
  650MOL0     H87713   2.531   2.924  -1.004 -0.1136 -1.5388  1.2680
  650MOL0     H87714   2.110   2.754  -0.817  0.4125  0.8483 -0.1376
  650MOL0     H87715   1.940   2.569  -0.897 -0.6910  0.7376 -1.7831
  650MOL0     H87716   1.896   2.265  -1.012 -1.8318  1.1163  2.0892
  650MOL0     H87717   1.834   2.428  -1.003  2.5078  0.1324  1.2356
  650MOL0     H87718   1.795   2.405  -1.265  1.0142 -1.0706 -2.1044
  650MOL0     H87719   1.809   2.229  -1.228  0.8666  0.4194 -0.7312
  650MOL0     H87720   1.619   2.432  -1.101 -0.9390  0.5247  0.5347
  650MOL0     H87721   1.623   2.266  -1.048 -0.9596  0.8661  1.4780
  650MOL0     H87722   1.521   2.401  -1.306 -0.2635  0.9583  2.0183
  650MOL0     H87723   1.592   2.242  -1.336  0.0483  0.2382 -0.4315
  650MOL0     H87724   1.360   2.298  -1.167  1.1910  3.3931 -1.5625
  650MOL0     H87725   1.445   2.138  -1.179  0.2478  0.6149 -0.2798
  650MOL0     H87726   1.301   2.298  -1.402  0.4924  0.5382  0.3615
  650MOL0     H87727   1.367   2.142  -1.430  1.5482  0.2185  0.5934
  650MOL0     H87728   1.140   2.184  -1.216  1.0245 -1.3499  2.0671
  650MOL0     H87729   1.216   2.037  -1.279  1.4565 -0.1888 -1.8575
  650MOL0     H87730   1.155   2.104  -1.504 -1.5035 -1.5844  0.1830
  650MOL0     H87731   1.045   2.231  -1.426 -1.1290  0.1631  0.6000
  650MOL0     H87732   2.237   2.460  -1.191  0.4511 -1.6745  0.8165
  650MOL0     H87733   2.389   2.608  -1.099  0.1625  1.3488  0.2264
  650MOL0     H87734   2.458   2.859  -0.513 -1.4111  0.8329  0.3278
  650MOL0     H87735   2.589   3.065  -0.431  3.6211  1.5326 -1.2449
  650MOL0     H87736   1.873   3.513   0.619  0.0391 -0.6954 -1.6173
  650MOL0     H87737   1.652   3.386   0.666  2.5512 -1.3859 -0.0227
  650MOL0     H87738   1.186   3.350   0.403 -0.6387  0.8020  0.1026
  650MOL0     H87739   0.952   3.351   0.487  2.1001  1.2588 -1.7765
  650MOL0     H87740   0.861   3.251   0.887  2.8759  0.4509 -2.6335
  650MOL0     H87741   0.708   3.256   0.828  0.1686 -0.9191  0.5014
  650MOL0     H87742   0.711   3.055   0.922  0.7399  1.8777  0.5628
  650MOL0     H87743   0.880   3.021   0.874  0.3292  0.0227 -0.2644
  650MOL0     H87744   0.697   2.865   0.738 -2.7908 -0.4649 -2.1507
  650MOL0     H87745   0.802   2.972   0.639 -0.5501 -1.3379  0.4477
  650MOL0     H87746   0.579   2.986   0.555  1.8768 -3.0180  0.8025
  650MOL0     H87747   0.620   3.133   0.627  0.5876 -0.1593 -1.4873
  650MOL0     H87748   0.328   3.016   0.914  0.6523 -3.3320  0.3772
  650MOL0     H87749   1.061   3.130   0.836 -0.9347 -0.6201 -0.9068
  650MOL0     H87750   1.300   3.167   0.777  1.4274 -0.7816 -1.6283
  651MOL0     O87751   2.524   5.663   5.282 -0.6283 -0.0956 -0.3045
  651MOL0     C87752   2.557   5.694   5.399 -0.7427  0.3909  0.4207
  651MOL0     O87753   2.471   5.722   5.512  0.4451  0.1087  0.6228
  651MOL0     C87754   2.346   5.670   5.511  0.1922 -0.3591 -0.0300
  651MOL0     C87755   2.304   5.555   5.441 -0.2942 -0.8128  0.0218
  651MOL0     C87756   2.167   5.530   5.418  0.2097  0.2768  0.2219
  651MOL0     C87757   2.065   5.610   5.465  1.3220  0.5432  0.2548
  651MOL0     O87758   1.932   5.573   5.444 -0.0425  0.6680 -0.0570
  651MOL0     C87759   1.838   5.669   5.486 -0.1653 -0.0762  0.2370
  651MOL0     C87760   1.698   5.621   5.467  0.9780 -0.6831 -0.9820
  651MOL0     C87761   1.620   5.620   5.596  1.0789  0.4517 -0.4374
  651MOL0     C87762   1.507   5.519   5.576 -0.1335 -0.5315 -0.0064
  651MOL0     C87763   1.394   5.530   5.686  0.1473  0.3162  0.6037
  651MOL0     C87764   1.276   5.460   5.624 -0.3469  0.3423 -0.1037
  651MOL0     C87765   1.156   5.460   5.722  0.9860 -0.0329 -0.5745
  651MOL0     C87766   1.170   5.371   5.846 -0.5216  0.3400 -0.0090
  651MOL0     N87767   1.046   5.348   5.913  0.6650  0.4438  0.0403
  651MOL0     C87768   0.981   5.228   5.938  0.0616 -0.1578  0.9164
  651MOL0     C87769   0.856   5.252   5.970  0.0436  0.6108 -0.6534
  651MOL0     C87770   0.760   5.160   6.048  0.6347  0.7056  0.1766
  651MOL0     C87771   0.613   5.174   6.018 -0.1004  0.0368 -0.3262
  651MOL0     C87772   0.524   5.090   6.102  0.9348 -0.0415 -0.5645
  651MOL0     C87773   0.378   5.129   6.073 -0.3831  0.1633 -0.1592
  651MOL0     O87774   0.354   5.156   5.931 -0.3030  0.2894 -0.0122
  651MOL0     C87775   0.223   5.159   5.886 -0.1966  0.9608  0.2420
  651MOL0     C87776   0.208   5.161   5.745 -0.5753 -0.2223 -0.0018
  651MOL0     C87777   0.083   5.144   5.668 -2.0772  0.5194 -0.6789
  651MOL0     C87778   0.095   5.142   5.523 -0.4612  0.2060 -0.0506
  651MOL0     C87779  -0.028   5.144   5.755  0.4992  0.5103 -0.0896
  651MOL0     C87780  -0.165   5.119   5.704 -0.1990  0.0797 -0.2967
  651MOL0     O87781  -0.256   5.074   5.799 -0.4582  0.7293 -0.1284
  651MOL0     C87782  -0.386   5.061   5.762  0.9791 -0.1769  0.1063
  651MOL0     C87783  -0.449   4.929   5.753 -0.3362 -0.4619  0.0296
  651MOL0     C87784  -0.584   4.913   5.718 -0.4421 -0.3160 -0.5914
  651MOL0     C87785  -0.671   5.026   5.722  0.9261 -0.1625  0.1542
  651MOL0     O87786  -0.800   4.998   5.698  0.0653  1.2075  0.0687
  651MOL0     C87787  -0.884   5.106   5.659 -0.1990 -0.1630 -0.0030
  651MOL0     C87788  -1.030   5.058   5.633 -0.0386  0.4151  0.3889
  651MOL0     C87789  -1.044   4.933   5.546 -0.4663  0.3058  0.4485
  651MOL0     C87790  -1.173   4.850   5.564 -0.2511  0.0240  0.1505
  651MOL0     C87791  -1.307   4.921   5.537  0.2599 -0.6612 -0.4331
  651MOL0     C87792  -1.433   4.848   5.590 -0.3428  0.5940 -0.1165
  651MOL0     C87793  -1.567   4.928   5.550  0.0987  0.7440 -0.4781
  651MOL0     C87794  -1.687   4.842   5.552 -0.0063 -0.1950 -0.1487
  651MOL0    Cl87795  -1.845   4.946   5.557  0.0549 -0.2891 -0.1464
  651MOL0     C87796  -0.614   5.150   5.754 -0.0206  0.2420 -0.4235
  651MOL0     C87797  -0.480   5.170   5.764  0.5993  0.5541 -0.2642
  651MOL0     O87798  -0.193   5.133   5.586  0.6223 -0.5057 -0.2546
  651MOL0     C87799  -0.014   5.157   5.893 -0.6496 -0.6310  0.1254
  651MOL0     C87800   0.106   5.163   5.961 -0.1572  0.0386  0.2683
  651MOL0     N87801   0.841   5.387   5.963 -0.0599  0.3050 -0.0760
  651MOL0     N87802   0.951   5.444   5.921 -0.1098 -0.9266  0.2317
  651MOL0     C87803   2.108   5.732   5.533 -0.2911  0.1303  0.0017
  651MOL0     C87804   2.246   5.757   5.559  0.0162 -0.0436 -0.4123
  651MOL0     C87805   2.694   5.737   5.424  0.4869 -0.0402 -0.4454
  651MOL0     C87806   2.733   5.757   5.559  0.1899  0.6393  0.4949
  651MOL0     C87807   2.863   5.797   5.586  0.0562  0.3472 -0.0212
  651MOL0     C87808   2.961   5.803   5.487 -0.2383 -0.2959  0.2825
  651MOL0     O87809   3.091   5.850   5.513  0.0053 -0.5804  0.3276
  651MOL0     C87810   3.126   5.908   5.645  0.2313  0.2944 -0.3637
  651MOL0     C87811   3.267   5.964   5.630 -0.7908  0.6097  0.1869
  651MOL0     C87812   3.385   5.859   5.626 -0.5687 -0.5347  0.0842
  651MOL0     C87813   3.515   5.922   5.583 -0.8263  0.2893  0.6776
  651MOL0     C87814   3.504   5.975   5.446 -0.0011 -0.4677 -0.3813
  651MOL0     C87815   3.477   6.034   5.341 -1.1986  0.3767  0.4918
  651MOL0     C87816   2.923   5.763   5.356  0.0543 -0.1024 -0.6932
  651MOL0     C87817   2.790   5.738   5.324  0.2841  0.8523  0.7174
  651MOL0     H87818   2.389   5.506   5.394  1.1207 -0.2856  1.9087
  651MOL0     H87819   2.133   5.441   5.366 -0.0558  0.8745 -0.6688
  651MOL0     H87820   1.850   5.697   5.592 -0.9544  1.3243 -0.0265
  651MOL0     H87821   1.846   5.758   5.423  0.3818 -1.2809 -1.4601
  651MOL0     H87822   1.643   5.668   5.385 -0.0281 -0.3479 -0.1381
  651MOL0     H87823   1.709   5.514   5.446  0.7764 -1.0734  0.7908
  651MOL0     H87824   1.678   5.599   5.686  0.3748 -1.0810 -0.3117
  651MOL0     H87825   1.572   5.719   5.605  1.1374  0.3737  0.9494
  651MOL0     H87826   1.449   5.550   5.489  0.1004  0.8578  0.3038
  651MOL0     H87827   1.541   5.415   5.568 -0.9120 -0.8761  0.9085
  651MOL0     H87828   1.425   5.467   5.770  0.3470  2.5039  2.2928
  651MOL0     H87829   1.379   5.633   5.720  1.1138  0.1411  1.6064
  651MOL0     H87830   1.245   5.511   5.532  1.7011  0.9406 -0.5155
  651MOL0     H87831   1.290   5.354   5.603  0.7804 -0.1135  2.6135
  651MOL0     H87832   1.121   5.557   5.757  0.7590 -0.1693 -0.4211
  651MOL0     H87833   1.078   5.411   5.663  0.6042 -1.2135  0.8568
  651MOL0     H87834   1.241   5.410   5.920 -0.2824 -0.3298  0.1150
  651MOL0     H87835   1.215   5.280   5.806 -1.5200 -0.3466  0.3894
  651MOL0     H87836   1.038   5.137   5.953 -2.2653 -1.6787  0.9954
  651MOL0     H87837   0.784   5.055   6.027  1.8420  1.0816 -0.4562
  651MOL0     H87838   0.766   5.185   6.154 -1.0741  1.6180  0.0770
  651MOL0     H87839   0.603   5.154   5.911  0.3178 -0.7062 -0.2366
  651MOL0     H87840   0.592   5.280   6.028 -0.9373 -0.1241 -0.3695
  651MOL0     H87841   0.538   5.093   6.210 -0.4088  0.8724 -0.3916
  651MOL0     H87842   0.520   4.985   6.070 -4.3337 -0.7035  1.3239
  651MOL0     H87843   0.355   5.218   6.133  1.1174 -0.2953  1.1916
  651MOL0     H87844   0.316   5.045   6.105  0.5786 -0.5319 -0.0437
  651MOL0     H87845   0.300   5.150   5.689  0.1039 -1.5107  1.3015
  651MOL0     H87846   0.055   5.051   5.477  3.2769 -1.0938 -1.1939
  651MOL0     H87847   0.031   5.223   5.489 -2.0530 -1.1592 -0.4314
  651MOL0     H87848   0.195   5.163   5.483 -2.0391  4.9585 -2.2429
  651MOL0     H87849  -0.392   4.839   5.776 -0.9942 -1.0568 -0.6360
  651MOL0     H87850  -0.629   4.814   5.709 -0.4288 -0.6140  1.8392
  651MOL0     H87851  -0.891   5.179   5.740 -2.3177 -0.4725  0.1642
  651MOL0     H87852  -0.852   5.165   5.573  2.3143 -0.8738  0.3772
  651MOL0     H87853  -1.086   5.035   5.724 -1.1453 -0.3793 -0.4691
  651MOL0     H87854  -1.093   5.132   5.583 -0.8847  0.3383  1.3114
  651MOL0     H87855  -0.958   4.869   5.563 -1.8586 -0.7223  5.6209
  651MOL0     H87856  -1.037   4.963   5.441 -0.1539  2.6467  1.0908
  651MOL0     H87857  -1.159   4.761   5.501 -0.9880  0.5569 -0.7830
  651MOL0     H87858  -1.189   4.812   5.665 -3.0865 -1.5039 -0.7522
  651MOL0     H87859  -1.308   4.943   5.430 -0.2708  1.0688 -0.1119
  651MOL0     H87860  -1.311   5.019   5.586  0.2655 -0.2346 -1.2733
  651MOL0     H87861  -1.432   4.744   5.555 -1.0431  0.0118  1.5168
  651MOL0     H87862  -1.430   4.850   5.699  2.4094  2.3505 -0.1290
  651MOL0     H87863  -1.564   4.962   5.446 -1.1639  0.9292 -0.4668
  651MOL0     H87864  -1.579   5.016   5.612  1.0359  2.7863 -2.9944
  651MOL0     H87865  -1.677   4.780   5.642  0.5764 -2.1548 -1.5021
  651MOL0     H87866  -1.706   4.769   5.472  2.1628  0.1125 -1.0235
  651MOL0     H87867  -0.663   5.246   5.767  0.7525  0.7979 -1.5549
  651MOL0     H87868  -0.446   5.271   5.788 -1.3729  0.9491  1.1253
  651MOL0     H87869  -0.099   5.155   5.961 -0.4332 -1.1159  0.3890
  651MOL0     H87870   0.111   5.181   6.068  1.2554  0.0786  0.2211
  651MOL0     H87871   2.041   5.813   5.564  1.2192  0.3241  3.1371
  651MOL0     H87872   2.276   5.852   5.600 -0.1281 -0.1482 -0.0595
  651MOL0     H87873   2.666   5.752   5.644  1.5674  0.5301  1.6078
  651MOL0     H87874   2.889   5.798   5.692  0.8911 -2.7437 -0.1161
  651MOL0     H87875   3.054   5.982   5.679 -0.0929 -0.2977  0.2662
  651MOL0     H87876   3.137   5.821   5.710  2.1694  1.4734  0.9739
  651MOL0     H87877   3.296   6.039   5.703  2.4062 -1.4139  1.2202
  651MOL0     H87878   3.272   6.009   5.530  0.2978  1.1058  0.4571
  651MOL0     H87879   3.357   5.774   5.563 -0.6979  0.8161 -1.7440
  651MOL0     H87880   3.388   5.830   5.732 -2.1783  0.6634  0.4946
  651MOL0     H87881   3.584   5.837   5.583 -1.7922 -0.5005 -0.1662
  651MOL0     H87882   3.542   5.992   5.664 -0.2883 -0.5109  1.2007
  651MOL0     H87883   3.453   6.089   5.253  2.3774 -0.7455 -1.3965
  651MOL0     H87884   3.007   5.758   5.287 -0.0107 -0.1880 -0.7657
  651MOL0     H87885   2.755   5.708   5.226  1.0976  2.2986 -0.0493
  652MOL0     O87886   3.563   3.321   8.929 -0.9821 -0.4057  0.3356
  652MOL0     C87887   3.533   3.217   8.987 -0.4798  0.8126  0.2232
  652MOL0     O87888   3.410   3.163   8.996  0.0433  0.1309  0.2078
  652MOL0     C87889   3.301   3.175   8.906 -0.4645  0.1199 -0.1360
  652MOL0     C87890   3.175   3.139   8.950  0.2028 -0.8659  1.2002
  652MOL0     C87891   3.066   3.151   8.864  0.0323  0.1932  0.1397
  652MOL0     C87892   3.085   3.189   8.727  0.5388 -0.0644 -0.3168
  652MOL0     O87893   2.993   3.186   8.628 -0.0890  0.1304  0.6749
  652MOL0     C87894   2.869   3.126   8.659  0.6644  0.6690  0.4242
  652MOL0     C87895   2.763   3.136   8.543 -0.3772  0.3109 -0.6407
  652MOL0     C87896   2.651   3.041   8.575 -0.6226  0.3762 -0.0999
  652MOL0     C87897   2.517   3.091   8.609 -0.3005  0.2831  0.4760
  652MOL0     C87898   2.405   2.995   8.578  0.2965 -0.4010  0.1036
  652MOL0     C87899   2.265   3.058   8.583 -0.0544 -0.1043 -0.8354
  652MOL0     C87900   2.146   2.973   8.521  0.2255  0.5395 -0.2267
  652MOL0     C87901   2.026   3.031   8.584 -0.1595  0.0835 -0.2860
  652MOL0     N87902   1.902   2.965   8.542  0.4773 -0.5502 -0.6778
  652MOL0     C87903   1.835   3.014   8.437  0.8323 -1.2155  0.6898
  652MOL0     C87904   1.738   2.920   8.406 -0.0334  0.1955  0.0456
  652MOL0     C87905   1.642   2.919   8.296 -0.4873 -0.0523  0.5654
  652MOL0     C87906   1.582   2.771   8.275 -0.4488 -0.4241  0.1497
  652MOL0     C87907   1.457   2.789   8.186  0.3171  0.9498 -1.4370
  652MOL0     C87908   1.372   2.659   8.195  0.8133 -1.0546 -0.5195
  652MOL0     O87909   1.263   2.669   8.100  0.0485  1.1147 -0.0963
  652MOL0     C87910   1.164   2.576   8.098  0.6715 -0.6561  0.3520
  652MOL0     C87911   1.147   2.478   8.197 -0.9465 -0.0256  0.5737
  652MOL0     C87912   1.039   2.385   8.201  0.2532 -0.2091  0.4608
  652MOL0     C87913   1.021   2.300   8.328 -0.4285 -0.0982 -1.2092
  652MOL0     C87914   0.950   2.389   8.088  0.0037  0.4235 -0.2351
  652MOL0     C87915   0.828   2.302   8.067  0.2071  0.2855  0.1903
  652MOL0     O87916   0.791   2.272   7.939 -0.3092 -0.3848  0.5856
  652MOL0     C87917   0.685   2.194   7.919  0.4811 -0.4443  0.1303
  652MOL0     C87918   0.678   2.099   7.813 -0.4569  0.5937 -0.0796
  652MOL0     C87919   0.566   2.029   7.779  0.7672  1.1548  0.1051
  652MOL0     C87920   0.450   2.037   7.857 -0.3747 -0.2461 -0.5003
  652MOL0     O87921   0.344   1.945   7.836 -0.3424  0.4974  0.1998
  652MOL0     C87922   0.238   1.931   7.930  0.0584  0.1988  0.3450
  652MOL0     C87923   0.120   2.019   7.908  0.1608  0.5748 -0.6326
  652MOL0     C87924   0.001   1.988   8.002 -0.0113  0.8797 -0.4453
  652MOL0     C87925  -0.061   1.852   7.974  0.4730  0.0434 -1.0918
  652MOL0     C87926  -0.207   1.842   8.029 -0.4580 -0.5013  0.2239
  652MOL0     C87927  -0.219   1.882   8.175 -1.1414 -0.5296  1.7309
  652MOL0     C87928  -0.356   1.842   8.245 -0.3938 -0.0568 -0.1555
  652MOL0     C87929  -0.331   1.851   8.395  0.6611  0.1292 -0.0451
  652MOL0    Cl87930  -0.207   1.725   8.448  0.0914 -0.7121  0.1895
  652MOL0     C87931   0.454   2.130   7.969  0.1294  1.0654 -0.4778
  652MOL0     C87932   0.565   2.216   7.989  0.6643 -0.5574 -0.3138
  652MOL0     O87933   0.763   2.271   8.164 -0.1196 -0.1469  0.2432
  652MOL0     C87934   0.980   2.477   7.983  0.2686 -0.1879 -0.3702
  652MOL0     C87935   1.078   2.578   7.997  0.2866 -0.5047  0.6313
  652MOL0     N87936   1.751   2.818   8.500  0.3193  0.0261 -0.2048
  652MOL0     N87937   1.846   2.845   8.580 -0.6205 -0.2122 -0.3872
  652MOL0     C87938   3.215   3.214   8.688  0.5686 -0.9366 -0.1554
  652MOL0     C87939   3.318   3.200   8.770  0.6304  0.0067  0.0231
  652MOL0     C87940   3.641   3.156   9.077  0.0222 -0.5166  0.7684
  652MOL0     C87941   3.778   3.187   9.068 -0.4475 -0.6515 -0.1743
  652MOL0     C87942   3.866   3.136   9.166 -0.0435  0.1814  0.5267
  652MOL0     C87943   3.824   3.037   9.258 -0.6839 -0.1285  0.1620
  652MOL0     O87944   3.925   2.980   9.340  0.7073 -0.1525  0.4457
  652MOL0     C87945   3.975   2.846   9.296 -0.1346 -0.5778  0.4315
  652MOL0     C87946   4.045   2.777   9.416  0.3595 -0.3111  0.5786
  652MOL0     C87947   3.936   2.716   9.505 -0.1008  0.5778 -0.4869
  652MOL0     C87948   3.998   2.681   9.642  0.3931 -0.3454 -0.3705
  652MOL0     C87949   3.926   2.574   9.703 -0.1029 -0.8708  0.1404
  652MOL0     C87950   3.876   2.481   9.760  0.7848 -0.1610  0.2936
  652MOL0     C87951   3.695   2.994   9.257  0.1178 -0.3411 -0.2725
  652MOL0     C87952   3.606   3.057   9.169 -0.0681 -0.0018 -0.1630
  652MOL0     H87953   3.166   3.126   9.057 -0.6228 -1.1038  1.1022
  652MOL0     H87954   2.971   3.121   8.908  1.7804 -5.4159  0.8427
  652MOL0     H87955   2.894   3.020   8.666  0.7144  0.7277  1.1485
  652MOL0     H87956   2.822   3.168   8.748  3.2696  2.8778  0.8818
  652MOL0     H87957   2.725   3.237   8.527 -2.5883 -0.2367  0.7995
  652MOL0     H87958   2.804   3.102   8.448 -1.4056 -2.2707 -0.2371
  652MOL0     H87959   2.652   2.978   8.486  1.1758  0.5499 -0.2434
  652MOL0     H87960   2.680   2.974   8.656  2.8254 -0.0746 -1.5350
  652MOL0     H87961   2.518   3.110   8.716  1.5925 -2.4678  1.0455
  652MOL0     H87962   2.508   3.184   8.550  1.7416 -0.1313 -0.5797
  652MOL0     H87963   2.418   2.957   8.476  1.0880  2.6699 -1.0421
  652MOL0     H87964   2.413   2.901   8.634  2.5910 -1.6149 -2.0807
  652MOL0     H87965   2.251   3.081   8.689  1.5611 -1.2199 -0.3544
  652MOL0     H87966   2.269   3.146   8.518 -0.0356  1.3226  1.0201
  652MOL0     H87967   2.142   2.983   8.412  0.0473 -0.5668 -0.3311
  652MOL0     H87968   2.158   2.865   8.535 -0.3143  0.4223 -0.6660
  652MOL0     H87969   2.025   3.135   8.548 -1.2098 -0.1486 -0.9908
  652MOL0     H87970   2.027   3.036   8.693 -0.6569  0.4874 -0.2997
  652MOL0     H87971   1.857   3.109   8.390 -0.7280 -0.5709  1.1777
  652MOL0     H87972   1.558   2.983   8.322 -2.2597 -1.0744 -2.1765
  652MOL0     H87973   1.695   2.946   8.204  1.0225 -0.8314  1.1558
  652MOL0     H87974   1.565   2.731   8.375  2.0559 -2.7161 -0.2222
  652MOL0     H87975   1.661   2.713   8.226  0.2920  0.3061  0.4527
  652MOL0     H87976   1.494   2.800   8.083  4.1021  1.4251 -0.1723
  652MOL0     H87977   1.399   2.879   8.209  0.9382  0.9973 -0.0287
  652MOL0     H87978   1.332   2.641   8.296  1.2369 -1.2685 -0.3853
  652MOL0     H87979   1.434   2.573   8.167  2.2586 -0.7964  1.6384
  652MOL0     H87980   1.228   2.471   8.268  1.3181  1.5898 -1.6522
  652MOL0     H87981   0.947   2.343   8.396 -1.9470 -3.5849 -0.4366
  652MOL0     H87982   0.982   2.200   8.304 -0.7610  0.1420 -1.6765
  652MOL0     H87983   1.116   2.286   8.381 -1.0305  0.1167 -0.0498
  652MOL0     H87984   0.772   2.076   7.763 -0.2938  0.3796  0.3235
  652MOL0     H87985   0.562   1.960   7.695  1.7612  1.1901  0.0232
  652MOL0     H87986   0.198   1.829   7.927  3.5761 -1.3448  0.0174
  652MOL0     H87987   0.279   1.929   8.032 -1.0765 -1.6569  0.8077
  652MOL0     H87988   0.158   2.122   7.908 -2.0681  1.4448 -0.2004
  652MOL0     H87989   0.090   2.004   7.804 -2.9099  1.9820 -0.0477
  652MOL0     H87990  -0.076   2.057   7.968  0.0740  1.9111  1.3253
  652MOL0     H87991   0.026   1.997   8.108  0.6792 -1.2894 -0.3700
  652MOL0     H87992  -0.073   1.831   7.867 -0.6916  3.5120 -1.7523
  652MOL0     H87993  -0.009   1.766   8.018 -1.2623  0.2788  1.7008
  652MOL0     H87994  -0.248   1.743   8.010 -0.1480 -0.4736 -0.6254
  652MOL0     H87995  -0.279   1.897   7.967 -2.2936 -2.5059  0.4702
  652MOL0     H87996  -0.150   1.814   8.226 -1.7529 -2.0642  0.5773
  652MOL0     H87997  -0.200   1.989   8.186 -0.2311 -0.3106 -1.2245
  652MOL0     H87998  -0.386   1.738   8.226 -0.5086  0.0836 -0.7591
  652MOL0     H87999  -0.439   1.905   8.210 -1.3010 -0.8663  0.4751
  652MOL0     H88000  -0.426   1.830   8.444  0.8498 -1.2319 -0.2014
  652MOL0     H88001  -0.288   1.949   8.414  0.4149  0.4737 -1.1963
  652MOL0     H88002   0.370   2.148   8.035 -0.3194 -0.5008 -0.5744
  652MOL0     H88003   0.551   2.297   8.060 -0.4607  0.5170 -1.6996
  652MOL0     H88004   0.930   2.454   7.889  1.8476 -1.7910 -0.8755
  652MOL0     H88005   1.097   2.640   7.909 -1.1518 -1.0347 -0.0862
  652MOL0     H88006   3.246   3.251   8.591 -0.7502 -0.3684 -0.3911
  652MOL0     H88007   3.421   3.214   8.739  0.2474  0.0620 -1.2893
  652MOL0     H88008   3.817   3.258   8.996 -0.0925 -0.4852  0.1809
  652MOL0     H88009   3.969   3.171   9.163  0.1886 -0.5594 -0.9244
  652MOL0     H88010   3.890   2.783   9.266  0.6894 -0.5061 -2.3461
  652MOL0     H88011   4.037   2.864   9.207  0.9929 -2.6035  0.7491
  652MOL0     H88012   4.087   2.861   9.472  2.1143 -0.9091  0.2337
  652MOL0     H88013   4.121   2.704   9.387  0.4577 -0.3875  1.0198
  652MOL0     H88014   3.885   2.629   9.462  0.2992 -0.6677  1.4227
  652MOL0     H88015   3.854   2.786   9.523  0.0650  1.2399 -2.1491
  652MOL0     H88016   3.997   2.771   9.704 -1.1448  0.4262 -1.4644
  652MOL0     H88017   4.102   2.648   9.632  0.7569  0.1683  1.3945
  652MOL0     H88018   3.818   2.406   9.809  0.1117 -1.0709 -1.8010
  652MOL0     H88019   3.659   2.926   9.334  0.2599  0.8237  0.8710
  652MOL0     H88020   3.502   3.029   9.185 -0.5207  1.3819 -0.5781
  653MOL0     O88021   2.267   0.349   0.943 -0.2609 -0.1236 -0.3768
  653MOL0     C88022   2.296   0.363   0.828 -0.6852 -0.8500  0.9946
  653MOL0     O88023   2.206   0.352   0.722 -0.0374  0.6619  0.0751
  653MOL0     C88024   2.078   0.322   0.747  0.3899  0.5566 -0.5715
  653MOL0     C88025   2.034   0.186   0.755  0.3273 -0.5826  0.5652
  653MOL0     C88026   1.895   0.159   0.765  0.8483  0.6029  0.6975
  653MOL0     C88027   1.802   0.268   0.773  0.0185  0.8699 -0.0479
  653MOL0     O88028   1.663   0.253   0.787 -0.4219  0.4332  0.1075
  653MOL0     C88029   1.612   0.122   0.820  0.1178  0.3830 -0.9761
  653MOL0     C88030   1.480   0.137   0.897 -0.3839 -0.9709  0.2919
  653MOL0     C88031   1.385   0.214   0.812 -0.0205 -0.2934  0.4432
  653MOL0     C88032   1.240   0.181   0.839  0.1565  0.4815 -1.3889
  653MOL0     C88033   1.133   0.274   0.766 -0.0952  0.1081 -0.8722
  653MOL0     C88034   0.990   0.229   0.790  0.0384 -0.3372 -0.3301
  653MOL0     C88035   0.896   0.304   0.698  0.2943  0.1407  0.7022
  653MOL0     C88036   0.867   0.232   0.568  0.3832  0.2149  0.0096
  653MOL0     N88037   0.789   0.112   0.594  0.2266 -0.0994 -0.0810
  653MOL0     C88038   0.683   0.102   0.679 -0.9969 -0.4339  0.4119
  653MOL0     C88039   0.636  -0.018   0.655 -0.4359 -0.4240  0.2134
  653MOL0     C88040   0.518  -0.067   0.725 -0.1298  0.2609  0.0802
  653MOL0     C88041   0.387  -0.042   0.649  0.0548  0.1591 -0.0442
  653MOL0     C88042   0.357  -0.146   0.536 -0.0523 -0.6142 -0.5858
  653MOL0     C88043   0.209  -0.138   0.500 -0.8794 -0.3653 -0.2244
  653MOL0     O88044   0.142  -0.238   0.586  0.3734  0.1400  0.0368
  653MOL0     C88045   0.006  -0.225   0.615 -0.5187 -0.1439 -0.4456
  653MOL0     C88046  -0.094  -0.186   0.523  0.0398 -0.8546 -1.0803
  653MOL0     C88047  -0.227  -0.169   0.559 -0.0512 -0.2676 -0.0057
  653MOL0     C88048  -0.328  -0.140   0.445 -0.4937  0.1620  0.7467
  653MOL0     C88049  -0.261  -0.185   0.701  0.0425  0.2955  0.3881
  653MOL0     C88050  -0.399  -0.150   0.749  0.3202  0.0475 -0.1736
  653MOL0     O88051  -0.432  -0.166   0.880 -0.2210 -0.1519 -0.0660
  653MOL0     C88052  -0.517  -0.088   0.948  0.0839 -0.4914  0.5355
  653MOL0     C88053  -0.540   0.048   0.923  0.3558 -0.6629  0.6437
  653MOL0     C88054  -0.634   0.123   1.007 -0.1111 -0.6803  0.3683
  653MOL0     C88055  -0.698   0.061   1.117 -0.5616 -0.6292  0.3850
  653MOL0     O88056  -0.777   0.116   1.219  0.0886 -0.1213  0.1414
  653MOL0     C88057  -0.835   0.249   1.205 -0.0119 -0.0315 -0.3362
  653MOL0     C88058  -0.723   0.341   1.243  0.6813 -0.0699 -0.2205
  653MOL0     C88059  -0.797   0.467   1.290  0.9814 -0.4181 -0.1707
  653MOL0     C88060  -0.690   0.568   1.306 -0.6686  0.4324  0.2480
  653MOL0     C88061  -0.727   0.671   1.411  0.3852 -0.5576  0.0536
  653MOL0     C88062  -0.639   0.798   1.422  0.4269 -0.0383  0.6394
  653MOL0     C88063  -0.489   0.769   1.434  0.0611 -0.1251 -0.4148
  653MOL0     C88064  -0.440   0.738   1.571  0.0344 -1.0479  0.3376
  653MOL0    Cl88065  -0.488   0.571   1.619  0.0004  0.1281 -0.0279
  653MOL0     C88066  -0.660  -0.078   1.146  0.2327 -0.1675  0.4700
  653MOL0     C88067  -0.574  -0.153   1.059  0.0786 -0.0066 -0.1514
  653MOL0     O88068  -0.465  -0.077   0.673 -0.2097 -0.5437  0.2588
  653MOL0     C88069  -0.168  -0.233   0.787  0.4284  0.5871 -0.5692
  653MOL0     C88070  -0.032  -0.267   0.741  0.7349 -0.3872  0.1074
  653MOL0     N88071   0.713  -0.086   0.568  0.0239  0.8279 -0.0572
  653MOL0     N88072   0.797   0.000   0.526  0.2776 -0.2741 -0.6894
  653MOL0     C88073   1.849   0.396   0.777 -0.4835 -0.5167  0.3172
  653MOL0     C88074   1.984   0.421   0.765 -0.3048  0.1854 -0.2781
  653MOL0     C88075   2.443   0.365   0.803  0.5564  1.3054  0.4832
  653MOL0     C88076   2.502   0.364   0.672 -0.4044  0.5277 -0.5616
  653MOL0     C88077   2.640   0.364   0.656  0.2655 -0.3747 -0.4925
  653MOL0     C88078   2.734   0.360   0.760  0.2619  0.3333  0.0371
  653MOL0     O88079   2.866   0.377   0.726 -0.5467  0.1256 -0.2460
  653MOL0     C88080   2.963   0.328   0.832  0.7118  0.1851  1.3944
  653MOL0     C88081   3.106   0.355   0.789  0.2444  0.2953 -0.0772
  653MOL0     C88082   3.191   0.284   0.895  0.2882 -0.1410 -0.2546
  653MOL0     C88083   3.331   0.339   0.893  0.2187 -0.9128  0.8730
  653MOL0     C88084   3.424   0.248   0.957 -0.1724 -0.7643  0.1360
  653MOL0     C88085   3.506   0.185   1.007 -0.6737 -0.0194 -0.8711
  653MOL0     C88086   2.677   0.350   0.889  0.1950  0.7859  0.1225
  653MOL0     C88087   2.540   0.352   0.905  0.4370  0.4916  0.6171
  653MOL0     H88088   2.105   0.108   0.730 -2.3093 -3.1151  0.3973
  653MOL0     H88089   1.873   0.053   0.758  1.7830  0.5010 -1.2215
  653MOL0     H88090   1.614   0.045   0.743  1.8738 -0.6662  0.0636
  653MOL0     H88091   1.688   0.082   0.887  3.3795  0.0034 -4.5499
  653MOL0     H88092   1.440   0.043   0.936 -0.2681 -0.9983  0.3471
  653MOL0     H88093   1.504   0.195   0.987  0.6529 -2.6462  1.1528
  653MOL0     H88094   1.400   0.321   0.828  2.7669 -0.4490 -0.6002
  653MOL0     H88095   1.403   0.206   0.704 -2.2583  0.6438 -0.0693
  653MOL0     H88096   1.226   0.077   0.808 -0.8371 -0.1598  1.0156
  653MOL0     H88097   1.222   0.193   0.946 -0.2995  1.8232 -1.6048
  653MOL0     H88098   1.145   0.374   0.810  0.9177 -0.5687  0.4727
  653MOL0     H88099   1.160   0.296   0.662 -1.2834  0.2737 -1.1578
  653MOL0     H88100   0.985   0.122   0.768 -3.0737 -0.6528  1.2480
  653MOL0     H88101   0.955   0.235   0.893  1.7440 -1.7918  0.3957
  653MOL0     H88102   0.800   0.325   0.747 -0.0431 -0.2437  0.2164
  653MOL0     H88103   0.948   0.397   0.676 -1.1847  1.1137  1.1724
  653MOL0     H88104   0.963   0.203   0.525  0.3337 -1.6651  1.0586
  653MOL0     H88105   0.804   0.292   0.502  0.3634 -1.7460 -1.8606
  653MOL0     H88106   0.651   0.182   0.746 -0.3008 -0.6718  1.0474
  653MOL0     H88107   0.547  -0.172   0.736  0.4498  0.5020  0.9521
  653MOL0     H88108   0.516  -0.020   0.823  0.2303  1.1570 -0.3272
  653MOL0     H88109   0.379   0.053   0.595 -1.4707 -0.8161 -1.6607
  653MOL0     H88110   0.301  -0.040   0.716 -1.4971  0.8144 -1.9484
  653MOL0     H88111   0.372  -0.242   0.586 -5.4738 -1.4345  0.0763
  653MOL0     H88112   0.427  -0.136   0.453 -0.4402 -1.2953 -1.0042
  653MOL0     H88113   0.185  -0.156   0.395  0.6646 -0.0475 -0.6674
  653MOL0     H88114   0.168  -0.038   0.520  1.5993  0.2232  2.8615
  653MOL0     H88115  -0.062  -0.172   0.420  2.5925 -0.7060 -0.3405
  653MOL0     H88116  -0.367  -0.038   0.450 -1.6155 -0.2316  0.2754
  653MOL0     H88117  -0.277  -0.151   0.349 -3.1575  0.0952 -0.7408
  653MOL0     H88118  -0.408  -0.213   0.462 -1.0743  0.7840  0.6858
  653MOL0     H88119  -0.492   0.097   0.838  0.2542 -0.3557  0.7604
  653MOL0     H88120  -0.650   0.227   0.980 -1.0395 -0.5690  1.2730
  653MOL0     H88121  -0.878   0.264   1.106 -1.0379 -2.1620 -0.2531
  653MOL0     H88122  -0.923   0.270   1.267 -1.5587  1.0679 -2.7381
  653MOL0     H88123  -0.659   0.301   1.323  1.8556  0.1469 -1.0146
  653MOL0     H88124  -0.656   0.363   1.160 -0.1770 -0.5496 -1.0638
  653MOL0     H88125  -0.865   0.461   1.375 -0.5909  2.6720 -1.0961
  653MOL0     H88126  -0.859   0.500   1.207 -1.5860 -0.9401  1.4375
  653MOL0     H88127  -0.599   0.521   1.347 -0.4693  1.6033  1.2132
  653MOL0     H88128  -0.674   0.616   1.209 -0.7255  2.4000  1.1655
  653MOL0     H88129  -0.735   0.618   1.507  0.1948  0.4496  0.6135
  653MOL0     H88130  -0.826   0.707   1.382  1.3128  2.2887  0.1576
  653MOL0     H88131  -0.658   0.860   1.334  3.2432  0.1623  0.0678
  653MOL0     H88132  -0.674   0.865   1.502  0.2419  0.9723 -0.2608
  653MOL0     H88133  -0.451   0.869   1.410  0.0686 -0.2884 -1.0984
  653MOL0     H88134  -0.451   0.693   1.366  0.6401 -1.8183  1.6672
  653MOL0     H88135  -0.488   0.803   1.645  0.1073  2.3734 -2.3798
  653MOL0     H88136  -0.331   0.747   1.575  0.0446 -0.4898 -0.8191
  653MOL0     H88137  -0.688  -0.126   1.239 -0.9649 -1.9297 -0.7334
  653MOL0     H88138  -0.533  -0.250   1.084  0.4842  0.4164  0.8705
  653MOL0     H88139  -0.207  -0.262   0.884 -1.9101 -0.1888 -1.6519
  653MOL0     H88140   0.032  -0.324   0.807  2.1193  1.2349  0.2302
  653MOL0     H88141   1.774   0.472   0.796  0.3753 -0.0278  1.9913
  653MOL0     H88142   2.025   0.522   0.758  0.0381  0.2074  1.6732
  653MOL0     H88143   2.440   0.360   0.583 -3.0075 -2.2708  1.1870
  653MOL0     H88144   2.687   0.384   0.560  1.5622 -1.1010 -0.0245
  653MOL0     H88145   2.938   0.385   0.922 -0.9309  0.8297  0.5793
  653MOL0     H88146   2.945   0.224   0.859  0.0576 -0.1379 -0.1688
  653MOL0     H88147   3.115   0.464   0.787 -3.1068  0.6484 -0.6948
  653MOL0     H88148   3.140   0.308   0.697  3.0640 -0.4122  1.1811
  653MOL0     H88149   3.191   0.175   0.881 -0.4401 -0.2747  0.6648
  653MOL0     H88150   3.146   0.293   0.994 -1.4277  0.3661 -1.0510
  653MOL0     H88151   3.343   0.437   0.938  1.1428 -1.4158  1.7574
  653MOL0     H88152   3.361   0.350   0.788 -1.7034 -1.8232  0.1778
  653MOL0     H88153   3.577   0.134   1.070 -1.5843  1.4307  1.4526
  653MOL0     H88154   2.740   0.342   0.978 -0.8524 -0.4514  0.7875
  653MOL0     H88155   2.508   0.345   1.009  1.3702 -2.4720  0.7944
  654MOL0     O88156   9.687   7.670   2.660  0.4309  0.8408 -0.5101
  654MOL0     C88157   9.736   7.784   2.660  0.3389  0.4517  0.5331
  654MOL0     O88158   9.661   7.895   2.687 -0.5387 -0.4218 -0.1444
  654MOL0     C88159   9.537   7.891   2.730 -0.8786 -1.0088 -0.0163
  654MOL0     C88160   9.432   7.956   2.651  0.5316  0.1965 -0.9974
  654MOL0     C88161   9.299   7.957   2.703 -0.1281 -0.7660  0.3001
  654MOL0     C88162   9.268   7.881   2.814 -0.2931  0.4890 -0.2195
  654MOL0     O88163   9.136   7.855   2.854  0.2407 -0.0068  0.4412
  654MOL0     C88164   9.083   7.740   2.802  0.4566  0.9839 -0.0828
  654MOL0     C88165   8.950   7.699   2.869 -0.0695  0.5818 -0.0174
  654MOL0     C88166   8.842   7.803   2.857 -0.0561  0.0370 -1.0582
  654MOL0     C88167   8.718   7.785   2.960 -0.2698  0.0892  0.4257
  654MOL0     C88168   8.645   7.921   2.995  0.4135 -0.2697 -0.4632
  654MOL0     C88169   8.574   7.982   2.871 -1.2168 -0.3773 -0.6519
  654MOL0     C88170   8.456   8.073   2.906  0.1392 -0.2167  0.1904
  654MOL0     C88171   8.437   8.143   3.046 -0.5921  0.7283 -0.8227
  654MOL0     N88172   8.545   8.230   3.084  0.9547 -0.0503  0.5688
  654MOL0     C88173   8.603   8.335   3.006 -0.1178  0.3750 -0.0587
  654MOL0     C88174   8.710   8.373   3.079 -0.4736 -0.2578  0.0448
  654MOL0     C88175   8.801   8.480   3.029 -0.5001 -0.7819  0.1792
  654MOL0     C88176   8.938   8.427   2.974 -0.0798 -0.6230 -0.4220
  654MOL0     C88177   8.994   8.305   3.039  1.4545  0.0217 -0.5784
  654MOL0     C88178   9.142   8.272   3.013  0.3234  1.1195  0.3396
  654MOL0     O88179   9.163   8.252   2.872  0.1466 -0.0951  0.1361
  654MOL0     C88180   9.288   8.258   2.830  0.1043 -0.7549 -0.8300
  654MOL0     C88181   9.391   8.193   2.905  0.8439 -0.8512  0.7715
  654MOL0     C88182   9.522   8.212   2.866  0.0994  0.8105  0.6839
  654MOL0     C88183   9.623   8.145   2.954 -1.0375 -0.3081  0.6818
  654MOL0     C88184   9.552   8.291   2.752  0.0536  0.0660 -0.5872
  654MOL0     C88185   9.689   8.330   2.712 -0.4416  0.0816 -0.0236
  654MOL0     O88186   9.718   8.321   2.573  0.3506  0.8383 -0.3234
  654MOL0     C88187   9.842   8.330   2.509 -0.0451 -0.2151 -0.3573
  654MOL0     C88188   9.957   8.383   2.575 -0.0770  0.1474  0.3200
  654MOL0     C88189  10.080   8.394   2.504  0.4032 -0.1173 -0.8559
  654MOL0     C88190  10.099   8.347   2.369  0.4501  0.0255 -0.1630
  654MOL0     O88191  10.208   8.349   2.292  0.0112  0.1654  0.4399
  654MOL0     C88192  10.298   8.448   2.334 -0.3532 -0.8304 -0.7683
  654MOL0     C88193  10.416   8.481   2.228 -0.4476 -0.7565 -0.4968
  654MOL0     C88194  10.497   8.599   2.270 -0.9369 -0.1696  0.6750
  654MOL0     C88195  10.616   8.574   2.363  0.4740 -0.0138 -0.4944
  654MOL0     C88196  10.691   8.699   2.420  1.5353 -0.4456 -0.0659
  654MOL0     C88197  10.795   8.653   2.519 -0.3473 -0.0663 -0.4765
  654MOL0     C88198  10.926   8.594   2.455 -0.0063 -0.7077 -0.5813
  654MOL0     C88199  11.020   8.591   2.569 -1.1722 -0.4618 -0.0482
  654MOL0    Cl88200  11.187   8.572   2.489 -0.3773 -0.0545 -0.3342
  654MOL0     C88201   9.989   8.296   2.299 -0.0840 -0.0358  0.3941
  654MOL0     C88202   9.856   8.295   2.374  0.3498  0.1837  0.2423
  654MOL0     O88203   9.769   8.358   2.796 -0.0574  0.2792  0.4524
  654MOL0     C88204   9.450   8.365   2.685  0.4806  0.3256  0.7698
  654MOL0     C88205   9.316   8.346   2.723 -0.4815  0.4204 -0.8098
  654MOL0     N88206   8.717   8.300   3.194  0.4845 -0.2363 -0.2201
  654MOL0     N88207   8.625   8.216   3.200  0.5175  0.0361  0.5974
  654MOL0     C88208   9.369   7.817   2.893 -0.6049  0.5562  0.6924
  654MOL0     C88209   9.503   7.827   2.849  0.1702  0.2605 -0.2054
  654MOL0     C88210   9.869   7.811   2.597 -0.0296 -0.0798 -0.8175
  654MOL0     C88211   9.960   7.704   2.569  0.3706 -0.2114 -0.7990
  654MOL0     C88212  10.084   7.730   2.499 -0.1076  0.8763 -0.9369
  654MOL0     C88213  10.130   7.860   2.497 -0.0138 -0.1521  0.1424
  654MOL0     O88214  10.258   7.872   2.458 -0.6541  0.3568 -0.1160
  654MOL0     C88215  10.308   7.998   2.427 -0.2896  0.1344  0.3843
  654MOL0     C88216  10.441   7.990   2.358 -0.8762 -0.2026 -0.0568
  654MOL0     C88217  10.445   7.910   2.235 -0.0499  0.2420  0.1153
  654MOL0     C88218  10.561   7.966   2.136  0.2430  1.1401 -0.0892
  654MOL0     C88219  10.678   8.005   2.212 -0.0920 -0.8542 -0.3436
  654MOL0     C88220  10.772   8.023   2.282  0.2487 -0.3082 -0.0528
  654MOL0     C88221  10.036   7.965   2.535 -0.4819 -0.9109 -0.0085
  654MOL0     C88222   9.906   7.939   2.572  0.4758 -0.3224  0.7679
  654MOL0     H88223   9.444   7.999   2.552  1.3800 -0.6553 -1.2822
  654MOL0     H88224   9.220   7.991   2.636 -1.9678 -0.7244  2.3612
  654MOL0     H88225   9.067   7.749   2.694 -0.6944 -4.4014 -0.6506
  654MOL0     H88226   9.156   7.665   2.833 -1.5938 -1.2431 -0.3459
  654MOL0     H88227   8.906   7.614   2.816  1.8990 -0.2972 -0.3319
  654MOL0     H88228   8.963   7.670   2.973  1.2560 -1.5816 -0.7192
  654MOL0     H88229   8.876   7.907   2.864 -0.9328  0.2113  2.5856
  654MOL0     H88230   8.803   7.791   2.755 -1.7289  0.0165 -0.4397
  654MOL0     H88231   8.648   7.714   2.914 -0.1377 -0.8294  1.5907
  654MOL0     H88232   8.750   7.736   3.053 -0.8366 -0.0354  0.5628
  654MOL0     H88233   8.566   7.901   3.068 -1.7847 -1.0908 -2.9065
  654MOL0     H88234   8.716   7.989   3.044  0.8607 -0.9070 -0.2135
  654MOL0     H88235   8.651   8.040   2.818  2.5948 -3.5352  0.9461
  654MOL0     H88236   8.542   7.904   2.801  0.8833 -0.5210 -1.5225
  654MOL0     H88237   8.457   8.148   2.827 -1.5981  0.8112  1.0968
  654MOL0     H88238   8.368   8.009   2.891 -0.4197  0.7310 -0.7832
  654MOL0     H88239   8.413   8.069   3.123  0.3074  1.1544 -0.1161
  654MOL0     H88240   8.349   8.207   3.054 -2.6998 -2.1868  1.9862
  654MOL0     H88241   8.567   8.390   2.919 -0.3111  1.7251  0.8437
  654MOL0     H88242   8.751   8.543   2.955  1.8264  1.2237  0.1681
  654MOL0     H88243   8.816   8.546   3.115 -1.9644  0.5340 -0.5301
  654MOL0     H88244   9.014   8.505   2.978  0.4248 -1.0671 -1.0923
  654MOL0     H88245   8.923   8.412   2.866  1.9306 -0.0382 -0.8158
  654MOL0     H88246   8.931   8.220   3.010 -1.6779  0.7668  3.1741
  654MOL0     H88247   8.968   8.313   3.145 -2.7173 -2.7829 -1.1193
  654MOL0     H88248   9.161   8.186   3.077 -1.6163  0.9691  0.7667
  654MOL0     H88249   9.210   8.351   3.047  0.1047  1.8979 -0.9758
  654MOL0     H88250   9.367   8.120   2.982  0.7106 -1.1241  0.4724
  654MOL0     H88251   9.705   8.094   2.903 -1.6555 -2.6285  1.8920
  654MOL0     H88252   9.662   8.207   3.035 -1.0567 -0.7152  1.0047
  654MOL0     H88253   9.572   8.066   3.008  0.5459 -0.6756  1.6950
  654MOL0     H88254   9.966   8.421   2.676 -0.9231 -0.6004  0.6953
  654MOL0     H88255  10.172   8.433   2.548  1.0396 -1.5296 -0.9060
  654MOL0     H88256  10.247   8.545   2.339  2.7055  0.9541 -1.0373
  654MOL0     H88257  10.353   8.440   2.429  1.5132  2.2065 -1.4432
  654MOL0     H88258  10.487   8.400   2.207  2.9179  2.0919 -1.1441
  654MOL0     H88259  10.375   8.502   2.129  1.3397 -0.4188 -1.2166
  654MOL0     H88260  10.435   8.674   2.319  1.5346  1.4690  1.4680
  654MOL0     H88261  10.537   8.650   2.182  1.4778 -0.9479  1.2434
  654MOL0     H88262  10.584   8.520   2.453 -0.4178  1.3031 -0.0035
  654MOL0     H88263  10.681   8.501   2.313  0.3268 -0.2521 -0.3401
  654MOL0     H88264  10.626   8.766   2.478  0.4277 -0.3597 -1.3557
  654MOL0     H88265  10.731   8.766   2.343  0.5211  2.1410  1.5067
  654MOL0     H88266  10.826   8.740   2.578  1.0297  1.1050 -2.7864
  654MOL0     H88267  10.755   8.586   2.595  0.3053  1.8815  1.7006
  654MOL0     H88268  10.963   8.658   2.375 -1.2020  0.3856 -0.2900
  654MOL0     H88269  10.910   8.498   2.405 -2.6407 -0.9099  0.4507
  654MOL0     H88270  10.992   8.511   2.638 -1.5857  1.0368  1.5676
  654MOL0     H88271  11.022   8.686   2.623  1.5056 -1.1544  1.2472
  654MOL0     H88272  10.008   8.251   2.202 -0.3207 -0.0358  0.3466
  654MOL0     H88273   9.769   8.248   2.331 -0.2970  1.4151  0.1579
  654MOL0     H88274   9.480   8.427   2.601 -2.0821 -1.5570 -1.7379
  654MOL0     H88275   9.232   8.403   2.684 -1.9899  1.0108  2.9119
  654MOL0     H88276   9.329   7.762   2.978  0.4421  1.5186  1.8527
  654MOL0     H88277   9.584   7.776   2.901 -3.5792 -1.8573  4.1993
  654MOL0     H88278   9.939   7.598   2.565  0.4338 -0.3132  0.8479
  654MOL0     H88279  10.145   7.644   2.472 -1.5466 -0.7520  0.6569
  654MOL0     H88280  10.238   8.054   2.364 -1.9535 -1.4266  0.7457
  654MOL0     H88281  10.312   8.064   2.514  0.7719  2.9330 -1.6481
  654MOL0     H88282  10.516   7.965   2.434 -1.4140  1.1571  0.9587
  654MOL0     H88283  10.474   8.090   2.325  0.2997 -1.2131 -2.1500
  654MOL0     H88284  10.351   7.916   2.179  0.7879 -1.4111 -1.5694
  654MOL0     H88285  10.463   7.806   2.266  0.2052  0.2417 -0.0297
  654MOL0     H88286  10.525   8.057   2.087  1.2157  1.8179  0.4186
  654MOL0     H88287  10.572   7.889   2.059 -0.0598 -0.2480  1.1942
  654MOL0     H88288  10.845   8.045   2.358 -2.0764 -0.5436  2.4312
  654MOL0     H88289  10.060   8.069   2.514 -0.5810 -0.3744  2.2649
  654MOL0     H88290   9.834   8.015   2.602 -2.8967 -3.3683  1.0940
  655MOL0     O88291   1.897   7.467   9.426  0.5012 -0.4208 -0.6204
  655MOL0     C88292   1.899   7.377   9.347 -0.0344  0.3072 -0.1354
  655MOL0     O88293   1.793   7.329   9.274  0.3899  0.0136 -0.0009
  655MOL0     C88294   1.672   7.390   9.263 -0.7179  0.4119 -0.6305
  655MOL0     C88295   1.561   7.311   9.228 -0.2456 -0.6208 -0.8406
  655MOL0     C88296   1.428   7.365   9.214  0.1597  0.2618  0.5402
  655MOL0     C88297   1.416   7.513   9.221 -0.4196  1.2031 -0.1356
  655MOL0     O88298   1.303   7.575   9.196 -0.0911  0.0653  0.2583
  655MOL0     C88299   1.213   7.586   9.306 -0.5223  0.1907 -0.4671
  655MOL0     C88300   1.126   7.695   9.277 -0.8604 -0.1741  0.4036
  655MOL0     C88301   0.981   7.683   9.341  0.2286  0.1204 -0.5015
  655MOL0     C88302   0.884   7.797   9.302 -0.3421  0.0556  0.5274
  655MOL0     C88303   0.764   7.808   9.393  0.1913 -0.5563  0.2202
  655MOL0     C88304   0.695   7.947   9.378 -0.7131 -0.1258 -0.3725
  655MOL0     C88305   0.585   7.981   9.482 -0.8688  0.4674  0.7205
  655MOL0     C88306   0.479   7.871   9.498 -0.2081 -0.1986 -0.5807
  655MOL0     N88307   0.375   7.943   9.577 -0.5423 -0.4969  0.5816
  655MOL0     C88308   0.243   7.925   9.549 -0.3853 -0.0962 -0.2672
  655MOL0     C88309   0.175   7.997   9.646  0.0893  0.6203 -0.1662
  655MOL0     C88310   0.026   8.013   9.673 -0.4847  0.5528  0.0014
  655MOL0     C88311  -0.055   8.085   9.563 -0.2658 -0.4394  0.5783
  655MOL0     C88312  -0.031   8.239   9.566 -0.1937  0.0886 -0.5564
  655MOL0     C88313  -0.109   8.308   9.453  0.6019  0.1116  0.2293
  655MOL0     O88314  -0.205   8.399   9.510 -0.9212 -0.5574 -0.6539
  655MOL0     C88315  -0.334   8.365   9.509 -0.1410 -1.1344  0.3609
  655MOL0     C88316  -0.426   8.466   9.492 -0.0815 -0.0028 -0.6140
  655MOL0     C88317  -0.565   8.440   9.477  0.4531  0.8548  0.1616
  655MOL0     C88318  -0.651   8.559   9.446  0.2617  0.6209 -0.4268
  655MOL0     C88319  -0.615   8.309   9.492 -0.2791  0.1515 -0.2166
  655MOL0     C88320  -0.753   8.268   9.498 -0.1389  0.0672 -0.9605
  655MOL0     O88321  -0.850   8.363   9.477  0.0688  0.1599 -0.1333
  655MOL0     C88322  -0.982   8.347   9.519 -0.0737  0.0606 -0.5988
  655MOL0     C88323  -1.064   8.459   9.487 -0.0370  0.5914  0.6454
  655MOL0     C88324  -1.199   8.448   9.492  0.0476 -0.0554 -0.5911
  655MOL0     C88325  -1.261   8.331   9.538 -0.5470 -0.8877  0.7406
  655MOL0     O88326  -1.401   8.344   9.539 -0.0494 -0.6525  0.4064
  655MOL0     C88327  -1.462   8.215   9.565 -0.2764  0.6761  0.0664
  655MOL0     C88328  -1.611   8.209   9.532 -0.0797 -0.4228  0.3633
  655MOL0     C88329  -1.638   8.239   9.381 -0.0595  0.9404  0.0899
  655MOL0     C88330  -1.786   8.217   9.336 -0.8112 -0.3591 -0.2904
  655MOL0     C88331  -1.865   8.343   9.379  0.0888 -0.2366 -0.0632
  655MOL0     C88332  -2.021   8.326   9.378  0.0157 -0.0388  0.3182
  655MOL0     C88333  -2.080   8.454   9.442  1.1164  0.2251  0.0416
  655MOL0     C88334  -2.230   8.434   9.462 -0.8089  0.4372  0.2609
  655MOL0    Cl88335  -2.327   8.428   9.310  0.1947 -0.0816  0.1947
  655MOL0     C88336  -1.187   8.220   9.587 -0.2866 -0.1888 -0.8034
  655MOL0     C88337  -1.038   8.233   9.581 -0.8267  0.4018 -0.0077
  655MOL0     O88338  -0.773   8.148   9.509  0.1231  0.1037 -0.1696
  655MOL0     C88339  -0.518   8.207   9.511 -1.0294 -0.1142 -0.2734
  655MOL0     C88340  -0.386   8.244   9.530  0.7865  0.4276  0.1375
  655MOL0     N88341   0.270   8.059   9.724 -0.0381  0.0847  0.0298
  655MOL0     N88342   0.388   8.035   9.680 -0.5973 -0.0862  0.1136
  655MOL0     C88343   1.529   7.587   9.251  1.1855  0.2023 -0.2038
  655MOL0     C88344   1.652   7.530   9.269  0.6451  0.4800  0.3877
  655MOL0     C88345   2.021   7.313   9.316  0.7657  0.5394 -0.4379
  655MOL0     C88346   2.132   7.394   9.322  0.6952 -0.6464  0.6599
  655MOL0     C88347   2.257   7.340   9.298 -0.3002 -0.9978  0.0890
  655MOL0     C88348   2.277   7.213   9.244 -0.0430 -0.0527  0.6596
  655MOL0     O88349   2.396   7.159   9.202  1.1926  0.3161  0.4056
  655MOL0     C88350   2.511   7.244   9.172 -0.6348 -0.2786  0.9574
  655MOL0     C88351   2.622   7.155   9.115  0.0559 -0.0299 -0.2349
  655MOL0     C88352   2.742   7.247   9.073 -0.4895 -0.6638  0.6961
  655MOL0     C88353   2.851   7.163   8.988  0.3176  0.5759  1.0570
  655MOL0     C88354   2.969   7.247   8.959 -0.0938  0.0307  0.0830
  655MOL0     C88355   3.043   7.326   8.922 -0.6857 -0.5622 -0.1408
  655MOL0     C88356   2.161   7.133   9.244 -0.6282 -0.3856 -0.1009
  655MOL0     C88357   2.034   7.174   9.284 -0.5892 -0.7806 -0.3006
  655MOL0     H88358   1.572   7.204   9.221 -0.4216 -0.7955  1.0675
  655MOL0     H88359   1.349   7.301   9.177  0.9570 -0.4824  0.0863
  655MOL0     H88360   1.151   7.496   9.315 -0.7237  0.4203  0.6472
  655MOL0     H88361   1.274   7.605   9.395 -1.3129 -1.1637  0.4099
  655MOL0     H88362   1.170   7.791   9.307 -0.6461 -0.5882  1.4890
  655MOL0     H88363   1.099   7.696   9.171 -0.7305  2.5772  0.3151
  655MOL0     H88364   0.931   7.587   9.327  0.2331  0.3144 -2.0286
  655MOL0     H88365   0.982   7.693   9.450 -2.0005  2.3868 -0.6078
  655MOL0     H88366   0.933   7.894   9.316 -1.6242  0.3542  3.9933
  655MOL0     H88367   0.850   7.788   9.198 -1.1577  1.5136  0.6342
  655MOL0     H88368   0.688   7.733   9.369 -2.2479  2.2923 -1.7851
  655MOL0     H88369   0.797   7.799   9.497  1.1012  2.5543  0.3063
  655MOL0     H88370   0.786   8.008   9.369  1.1285 -2.8736 -1.7040
  655MOL0     H88371   0.646   7.946   9.280  1.9558  2.3475 -1.9196
  655MOL0     H88372   0.624   8.009   9.580 -0.3520  0.0988  0.6271
  655MOL0     H88373   0.541   8.076   9.449  0.7736  1.5722  1.6082
  655MOL0     H88374   0.522   7.793   9.562 -1.0937 -1.1312 -1.0926
  655MOL0     H88375   0.443   7.839   9.400 -1.0878  2.3011 -1.1277
  655MOL0     H88376   0.191   7.868   9.473 -0.9819  2.5741 -2.0418
  655MOL0     H88377  -0.010   7.910   9.678  0.6408  0.1752  0.6637
  655MOL0     H88378   0.005   8.063   9.768  0.5416  2.5800 -0.7709
  655MOL0     H88379  -0.161   8.065   9.580 -0.5460  1.9495  2.0876
  655MOL0     H88380  -0.029   8.044   9.465 -0.9804 -0.1546  0.2620
  655MOL0     H88381   0.077   8.249   9.558  0.1062 -1.5355  0.9447
  655MOL0     H88382  -0.063   8.279   9.663  1.4190 -0.9165  0.4345
  655MOL0     H88383  -0.143   8.227   9.387  0.2503 -0.6464  1.3203
  655MOL0     H88384  -0.043   8.382   9.407  0.2351  0.4112  0.1759
  655MOL0     H88385  -0.375   8.560   9.476  3.2937 -0.9495  3.0227
  655MOL0     H88386  -0.594   8.652   9.445  0.8613  0.3567  2.2197
  655MOL0     H88387  -0.698   8.564   9.347 -1.7838  2.4240  0.5632
  655MOL0     H88388  -0.728   8.578   9.520  1.2993  2.3287  0.2705
  655MOL0     H88389  -1.022   8.545   9.435  1.6560 -0.5426  0.0323
  655MOL0     H88390  -1.271   8.521   9.457  2.5187  2.7641 -0.0912
  655MOL0     H88391  -1.416   8.136   9.506 -1.8944 -1.4337  1.4814
  655MOL0     H88392  -1.448   8.203   9.673 -0.9318  0.2751  0.1120
  655MOL0     H88393  -1.654   8.110   9.548 -2.1156  0.7340  2.6013
  655MOL0     H88394  -1.659   8.275   9.604  1.9664  1.4544  0.1248
  655MOL0     H88395  -1.577   8.180   9.312 -1.9360 -1.0339  0.0113
  655MOL0     H88396  -1.620   8.343   9.351 -3.0176  1.6427  0.3465
  655MOL0     H88397  -1.785   8.190   9.230  2.7893 -1.7658 -0.0293
  655MOL0     H88398  -1.839   8.143   9.397 -1.7166  1.8243  1.7129
  655MOL0     H88399  -1.845   8.431   9.317  0.3570 -0.4179 -0.2360
  655MOL0     H88400  -1.842   8.375   9.481 -2.2548  0.4653  0.3152
  655MOL0     H88401  -2.062   8.306   9.279  1.7885 -2.6915  0.0318
  655MOL0     H88402  -2.039   8.239   9.442 -1.5246 -0.2612 -0.3826
  655MOL0     H88403  -2.046   8.543   9.388 -2.4707  1.7339 -0.0082
  655MOL0     H88404  -2.043   8.464   9.545  1.3093  0.2576 -0.0311
  655MOL0     H88405  -2.263   8.524   9.514 -2.5698  0.6390 -1.0668
  655MOL0     H88406  -2.241   8.342   9.520 -0.1498  0.5996  0.6538
  655MOL0     H88407  -1.226   8.129   9.631  0.7458  0.1395  0.8799
  655MOL0     H88408  -0.980   8.142   9.598 -0.9779  0.2521 -0.2963
  655MOL0     H88409  -0.548   8.107   9.539 -2.7682  0.0632 -1.3191
  655MOL0     H88410  -0.321   8.160   9.552 -0.8710 -1.4148 -1.5651
  655MOL0     H88411   1.520   7.695   9.250  0.6723  0.1699 -1.5198
  655MOL0     H88412   1.729   7.598   9.303  0.6160 -0.1455  1.7814
  655MOL0     H88413   2.132   7.502   9.333  2.2246 -0.6059  0.5139
  655MOL0     H88414   2.348   7.399   9.302 -0.8702 -0.1247  0.3763
  655MOL0     H88415   2.478   7.317   9.098  2.3313  0.1618 -0.0440
  655MOL0     H88416   2.552   7.293   9.261  0.7747 -0.6226  0.5225
  655MOL0     H88417   2.586   7.104   9.025 -0.6274  3.1924 -1.9682
  655MOL0     H88418   2.657   7.082   9.188 -1.1740 -0.2868  0.1140
  655MOL0     H88419   2.790   7.289   9.162  1.7183 -0.6750 -0.4170
  655MOL0     H88420   2.697   7.333   9.022  0.3383 -0.9787 -0.6030
  655MOL0     H88421   2.804   7.139   8.892 -2.3553 -2.0420  2.8743
  655MOL0     H88422   2.877   7.068   9.036  1.7072 -0.8815 -2.2813
  655MOL0     H88423   3.105   7.410   8.898  1.0388 -1.4060  1.1312
  655MOL0     H88424   2.173   7.028   9.220 -0.1322 -0.8137  1.7986
  655MOL0     H88425   1.957   7.098   9.287  0.0840 -1.4835 -0.4844
  656MOL0     O88426   1.135   1.557   3.196 -0.0176  0.4034  0.1840
  656MOL0     C88427   1.215   1.467   3.171 -0.8615  0.8742  0.1241
  656MOL0     O88428   1.210   1.375   3.068  0.0460  0.4242 -0.4520
  656MOL0     C88429   1.104   1.363   2.982 -0.3372 -0.3775 -0.3836
  656MOL0     C88430   1.132   1.316   2.852  0.0910  0.3108 -0.2386
  656MOL0     C88431   1.031   1.279   2.766  0.0406 -0.3899 -0.0971
  656MOL0     C88432   0.895   1.297   2.796  0.1026 -0.6387 -0.4045
  656MOL0     O88433   0.799   1.256   2.709 -0.1672  0.1662  0.1877
  656MOL0     C88434   0.661   1.266   2.748  0.1808  0.6118 -0.1007
  656MOL0     C88435   0.577   1.210   2.634  0.3618 -0.5906  0.8753
  656MOL0     C88436   0.546   1.311   2.516  0.6026 -0.3742  0.5745
  656MOL0     C88437   0.473   1.249   2.398  0.0178 -0.1940 -0.5091
  656MOL0     C88438   0.499   1.328   2.273 -0.8898  0.0596  0.3730
  656MOL0     C88439   0.431   1.265   2.152 -0.5053 -0.5224 -1.5495
  656MOL0     C88440   0.285   1.246   2.165  0.0479 -0.9651  0.7614
  656MOL0     C88441   0.217   1.384   2.181 -0.4792  0.2767  0.6731
  656MOL0     N88442   0.077   1.365   2.188 -0.2091 -0.5140  0.3269
  656MOL0     C88443   0.000   1.325   2.086 -0.3468 -0.4042 -0.2991
  656MOL0     C88444  -0.111   1.284   2.148  0.1573  0.8724 -0.6253
  656MOL0     C88445  -0.209   1.195   2.071  0.0029 -0.0624 -0.8825
  656MOL0     C88446  -0.337   1.184   2.146 -0.2850 -0.4888 -0.1107
  656MOL0     C88447  -0.428   1.301   2.151 -0.1458 -0.1466  0.1993
  656MOL0     C88448  -0.560   1.279   2.233 -0.3711  0.9064 -0.2609
  656MOL0     O88449  -0.526   1.243   2.370 -0.3463 -0.2756  0.1339
  656MOL0     C88450  -0.498   1.333   2.468  0.3369  0.5816 -0.0573
  656MOL0     C88451  -0.599   1.388   2.544 -0.2603  0.2511  0.6044
  656MOL0     C88452  -0.567   1.481   2.646  0.2532 -0.2611 -0.6370
  656MOL0     C88453  -0.685   1.554   2.718 -0.3575  0.0930  0.7569
  656MOL0     C88454  -0.434   1.511   2.681  0.2595 -0.6317 -0.2826
  656MOL0     C88455  -0.383   1.591   2.804  0.4510 -0.0111  1.4165
  656MOL0     O88456  -0.259   1.582   2.836 -0.7567  0.5062 -0.1418
  656MOL0     C88457  -0.210   1.673   2.924  0.3574  0.4265 -0.0602
  656MOL0     C88458  -0.205   1.814   2.897 -0.3968 -0.1010  0.3037
  656MOL0     C88459  -0.161   1.894   3.000 -1.5439  0.1096  0.2379
  656MOL0     C88460  -0.106   1.843   3.115 -0.0620  0.3033  0.1420
  656MOL0     O88461  -0.052   1.929   3.207  0.2390 -0.8114  0.4292
  656MOL0     C88462  -0.115   1.922   3.338 -0.2421 -0.6525 -0.2342
  656MOL0     C88463  -0.141   2.056   3.402 -0.2394 -0.4719  0.9781
  656MOL0     C88464  -0.225   2.131   3.296  0.4938 -0.7071  1.0178
  656MOL0     C88465  -0.325   2.233   3.353  0.0232  0.5711 -0.0610
  656MOL0     C88466  -0.430   2.276   3.250  0.3360  0.2841  0.0131
  656MOL0     C88467  -0.552   2.348   3.313 -0.4654  1.1042  0.2688
  656MOL0     C88468  -0.650   2.384   3.202 -0.1707  0.5505 -0.3099
  656MOL0     C88469  -0.785   2.447   3.258 -0.3268 -0.4432  0.2234
  656MOL0    Cl88470  -0.888   2.343   3.364 -0.3252  0.0215  0.1696
  656MOL0     C88471  -0.106   1.704   3.141 -0.7984  0.2156  0.3017
  656MOL0     C88472  -0.155   1.623   3.045  0.0196 -0.2889  0.2289
  656MOL0     O88473  -0.463   1.676   2.848  0.7374  0.3737 -0.2692
  656MOL0     C88474  -0.335   1.452   2.600 -0.0966 -0.0283  1.0021
  656MOL0     C88475  -0.367   1.367   2.494 -0.1660 -0.3455  0.7553
  656MOL0     N88476  -0.117   1.336   2.273 -0.2648 -0.5691 -0.5013
  656MOL0     N88477   0.007   1.376   2.298  0.3740  0.6824  0.1556
  656MOL0     C88478   0.866   1.359   2.924  0.0541  0.2793 -0.0317
  656MOL0     C88479   0.969   1.396   3.013  0.2633 -1.1001 -0.1322
  656MOL0     C88480   1.343   1.461   3.245  0.8480  0.0646  0.0204
  656MOL0     C88481   1.444   1.371   3.208 -0.6608 -1.3845 -0.3464
  656MOL0     C88482   1.572   1.387   3.266  0.9438 -0.4339  0.2289
  656MOL0     C88483   1.601   1.479   3.373  0.0296  0.0357  0.8129
  656MOL0     O88484   1.731   1.485   3.407  0.0955 -0.1155 -1.2506
  656MOL0     C88485   1.773   1.567   3.512  0.9502 -0.6938  0.0244
  656MOL0     C88486   1.895   1.511   3.589  0.0299  0.1112  0.0274
  656MOL0     C88487   2.023   1.597   3.564 -0.0853  0.1470  0.9729
  656MOL0     C88488   2.132   1.531   3.637 -0.3941  0.4362  0.4356
  656MOL0     C88489   2.259   1.600   3.604  0.2846  0.3687 -0.5421
  656MOL0     C88490   2.363   1.656   3.576 -0.9451 -0.6977  0.4955
  656MOL0     C88491   1.496   1.563   3.408  0.6911  0.3713  0.7429
  656MOL0     C88492   1.373   1.570   3.336 -0.4000  0.1308  0.4768
  656MOL0     H88493   1.231   1.284   2.819 -0.5712  0.8786 -3.0126
  656MOL0     H88494   1.065   1.241   2.670  1.4306  0.4163  0.0583
  656MOL0     H88495   0.646   1.192   2.827  5.1946 -0.8844 -0.1914
  656MOL0     H88496   0.617   1.360   2.783 -0.3689 -0.6938  3.0472
  656MOL0     H88497   0.634   1.129   2.588 -0.0692 -0.6947  0.5177
  656MOL0     H88498   0.486   1.165   2.675  0.1745 -0.2362  0.8542
  656MOL0     H88499   0.493   1.398   2.556  1.3966 -0.0560  0.9416
  656MOL0     H88500   0.639   1.347   2.471 -0.1877  2.2883  0.9098
  656MOL0     H88501   0.522   1.152   2.386 -1.4892 -0.7781 -2.5042
  656MOL0     H88502   0.369   1.235   2.428 -0.6546  1.7546 -1.7550
  656MOL0     H88503   0.468   1.431   2.294  1.5133  1.0152 -0.4082
  656MOL0     H88504   0.605   1.344   2.252 -0.2418 -3.8299 -0.0388
  656MOL0     H88505   0.454   1.321   2.061 -0.7105  1.1897 -0.6108
  656MOL0     H88506   0.476   1.169   2.127 -1.0733 -0.7649 -1.6536
  656MOL0     H88507   0.246   1.205   2.071 -2.9331  2.7523  0.1086
  656MOL0     H88508   0.255   1.178   2.245 -2.7384  1.1644  1.6832
  656MOL0     H88509   0.240   1.451   2.098 -0.6855  3.4470  2.9659
  656MOL0     H88510   0.239   1.433   2.276 -0.4136  5.1720 -1.5765
  656MOL0     H88511   0.031   1.305   1.983 -0.6267 -2.5903 -0.0201
  656MOL0     H88512  -0.236   1.225   1.970 -1.0670 -1.8309 -1.1834
  656MOL0     H88513  -0.165   1.097   2.048  2.4315  1.1321 -1.5974
  656MOL0     H88514  -0.314   1.148   2.247  1.2926  1.0202  0.1136
  656MOL0     H88515  -0.399   1.109   2.096  0.9323  0.8281 -3.8915
  656MOL0     H88516  -0.453   1.319   2.046  1.1626 -3.2130 -0.7557
  656MOL0     H88517  -0.363   1.379   2.191  1.8277 -2.6416  2.2004
  656MOL0     H88518  -0.623   1.198   2.193 -0.1662  0.2511  0.7216
  656MOL0     H88519  -0.615   1.373   2.220 -1.6647  0.0822 -0.9378
  656MOL0     H88520  -0.702   1.370   2.513  0.7874  1.2386 -4.1778
  656MOL0     H88521  -0.782   1.529   2.675 -0.6231 -0.3003  1.5637
  656MOL0     H88522  -0.675   1.520   2.821  2.9168 -1.7697 -0.0281
  656MOL0     H88523  -0.674   1.663   2.709  0.2859  0.2152  2.6839
  656MOL0     H88524  -0.239   1.868   2.809 -1.7688 -0.8212  0.3695
  656MOL0     H88525  -0.150   2.002   2.996  3.6984 -0.2156 -0.3636
  656MOL0     H88526  -0.205   1.861   3.343 -0.7480  0.1393  1.1385
  656MOL0     H88527  -0.046   1.876   3.410 -1.1457  0.2541  1.2687
  656MOL0     H88528  -0.196   2.037   3.495 -1.0290 -1.5371  0.3158
  656MOL0     H88529  -0.050   2.111   3.425 -0.2877 -0.0654  0.2419
  656MOL0     H88530  -0.279   2.061   3.232  2.7165 -1.9955  0.4210
  656MOL0     H88531  -0.163   2.182   3.221 -1.7650 -1.6936 -1.7007
  656MOL0     H88532  -0.375   2.180   3.435  1.7914 -2.0431 -0.5592
  656MOL0     H88533  -0.274   2.317   3.401  0.7647 -0.8006  1.6443
  656MOL0     H88534  -0.468   2.187   3.199 -1.4586 -0.3781  2.3235
  656MOL0     H88535  -0.378   2.344   3.182  0.0912  1.0476  0.5701
  656MOL0     H88536  -0.599   2.284   3.388  2.1500 -0.3806  0.7552
  656MOL0     H88537  -0.518   2.445   3.351  0.7950  0.2237  1.4453
  656MOL0     H88538  -0.699   2.304   3.146 -0.6679  0.3628  0.3802
  656MOL0     H88539  -0.602   2.455   3.134 -1.3375  0.9697 -0.7075
  656MOL0     H88540  -0.846   2.478   3.173 -0.3357 -2.5958 -0.5952
  656MOL0     H88541  -0.749   2.539   3.307  2.6037 -0.2602 -1.9899
  656MOL0     H88542  -0.071   1.671   3.239 -0.5918 -0.6312 -0.0480
  656MOL0     H88543  -0.161   1.516   3.061 -2.4062 -0.0359  1.5158
  656MOL0     H88544  -0.232   1.480   2.615  0.4373  1.2747 -3.5870
  656MOL0     H88545  -0.280   1.316   2.453  0.3780  0.6440  0.6405
  656MOL0     H88546   0.766   1.391   2.951 -1.2558 -0.5509 -3.4071
  656MOL0     H88547   0.952   1.449   3.106 -1.5355 -0.2683 -0.8872
  656MOL0     H88548   1.431   1.294   3.133 -0.0160 -0.7897 -1.0735
  656MOL0     H88549   1.661   1.340   3.225  1.5668  1.7380 -1.0463
  656MOL0     H88550   1.799   1.667   3.477 -1.8045  0.9447  2.2095
  656MOL0     H88551   1.688   1.578   3.580  1.2780  0.0201  0.3336
  656MOL0     H88552   1.899   1.404   3.569 -1.7242  0.3342 -1.7680
  656MOL0     H88553   1.866   1.517   3.695  1.4191  3.9264  0.3570
  656MOL0     H88554   2.012   1.701   3.596  0.2656  0.2047  0.9065
  656MOL0     H88555   2.031   1.599   3.455 -2.9955 -3.0752  0.5223
  656MOL0     H88556   2.129   1.426   3.609  0.0159  0.4462  0.3451
  656MOL0     H88557   2.110   1.544   3.743  2.3885  3.2653  0.8294
  656MOL0     H88558   2.460   1.699   3.562 -1.0266 -0.6012  0.2278
  656MOL0     H88559   1.522   1.636   3.485  1.0257  2.2799 -1.0831
  656MOL0     H88560   1.302   1.640   3.378 -0.5254  1.0152 -1.1063
  657MOL0     O88561   9.300  10.522   0.003  0.0548 -0.1088 -0.1832
  657MOL0     C88562   9.335  10.642  -0.006 -0.7852  0.6464  0.0063
  657MOL0     O88563   9.302  10.725  -0.110 -0.2055 -0.1413 -0.1958
  657MOL0     C88564   9.186  10.704  -0.174 -0.3102  0.5100  1.1095
  657MOL0     C88565   9.196  10.719  -0.309  0.6788 -0.7272  0.3880
  657MOL0     C88566   9.085  10.691  -0.387  0.0219 -0.1068  0.0173
  657MOL0     C88567   8.963  10.650  -0.335 -0.1463  0.3347  0.1604
  657MOL0     O88568   8.863  10.612  -0.426 -0.3324  0.2811  0.3883
  657MOL0     C88569   8.746  10.544  -0.389  0.1971  0.4289 -0.1878
  657MOL0     C88570   8.689  10.442  -0.495  0.7128  0.9788 -0.4516
  657MOL0     C88571   8.561  10.364  -0.460 -0.7277 -0.1876 -0.3451
  657MOL0     C88572   8.434  10.445  -0.460  0.1339 -0.1745 -0.0521
  657MOL0     C88573   8.313  10.372  -0.421 -0.2278  0.6763 -0.7260
  657MOL0     C88574   8.282  10.252  -0.519  0.2812 -0.2938  0.3133
  657MOL0     C88575   8.153  10.169  -0.483 -0.1776  1.0611 -0.7110
  657MOL0     C88576   8.027  10.235  -0.539 -0.3693 -0.1368  0.4223
  657MOL0     N88577   7.916  10.145  -0.500 -0.1730  0.2714 -0.2872
  657MOL0     C88578   7.893  10.012  -0.544 -0.2802  0.3267  0.1357
  657MOL0     C88579   7.777   9.975  -0.484 -0.8346  0.6937 -0.1882
  657MOL0     C88580   7.730   9.834  -0.494  0.3959 -0.8827  0.2241
  657MOL0     C88581   7.716   9.784  -0.353 -0.1396 -0.2179  0.2462
  657MOL0     C88582   7.661   9.640  -0.364  0.2852 -0.1454  0.8843
  657MOL0     C88583   7.662   9.543  -0.249 -0.7926  1.1617 -0.8849
  657MOL0     O88584   7.613   9.404  -0.276 -0.0646  0.4014 -0.9134
  657MOL0     C88585   7.475   9.373  -0.287  0.4710  0.4890 -0.2233
  657MOL0     C88586   7.435   9.244  -0.318 -0.7020 -0.3139  0.0382
  657MOL0     C88587   7.301   9.204  -0.328  0.0255  0.4972 -0.6286
  657MOL0     C88588   7.270   9.060  -0.360 -0.2001  0.1174 -0.3737
  657MOL0     C88589   7.189   9.299  -0.306 -0.5717 -0.4527 -0.5315
  657MOL0     C88590   7.049   9.258  -0.299 -0.7154 -0.1505 -0.1528
  657MOL0     O88591   6.967   9.368  -0.269  1.0438 -0.7605 -0.3236
  657MOL0     C88592   6.832   9.362  -0.258 -0.6378  0.2913  0.4581
  657MOL0     C88593   6.763   9.449  -0.342  0.4915 -0.5662 -0.1697
  657MOL0     C88594   6.617   9.450  -0.328 -0.2253  0.2763  0.3706
  657MOL0     C88595   6.555   9.376  -0.222 -0.4763 -0.1491 -1.0727
  657MOL0     O88596   6.421   9.390  -0.220 -0.0512 -0.3872 -0.6927
  657MOL0     C88597   6.349   9.319  -0.125 -0.7591  0.0892 -0.2741
  657MOL0     C88598   6.205   9.372  -0.121 -0.2287 -0.5372  0.0678
  657MOL0     C88599   6.138   9.356  -0.255  0.5787 -0.1672 -0.2434
  657MOL0     C88600   5.988   9.371  -0.234 -0.1103 -1.1415 -0.4709
  657MOL0     C88601   5.908   9.311  -0.344  0.0649 -1.1470 -0.6662
  657MOL0     C88602   5.761   9.322  -0.309 -0.5308  0.0345 -0.2620
  657MOL0     C88603   5.705   9.460  -0.334 -0.2404 -0.5796  0.2468
  657MOL0     C88604   5.667   9.489  -0.480  0.1106 -1.3138  0.4050
  657MOL0    Cl88605   5.556   9.621  -0.485 -0.2098  0.0509  0.3096
  657MOL0     C88606   6.629   9.286  -0.143 -0.1102 -0.1923  1.2328
  657MOL0     C88607   6.769   9.280  -0.167 -0.6885 -0.8323 -0.8831
  657MOL0     O88608   7.012   9.144  -0.308 -0.2234 -0.5027  0.2632
  657MOL0     C88609   7.236   9.433  -0.295  0.4031 -0.6192 -0.2156
  657MOL0     C88610   7.370   9.469  -0.283 -1.0403  0.0929  0.0220
  657MOL0     N88611   7.724  10.076  -0.418 -0.9683 -0.1039  0.0750
  657MOL0     N88612   7.803  10.177  -0.437 -0.0412 -0.3311  0.2335
  657MOL0     C88613   8.952  10.652  -0.200  0.2952  0.4749 -0.9395
  657MOL0     C88614   9.061  10.676  -0.118  0.6192  0.4736 -0.0915
  657MOL0     C88615   9.431  10.674   0.102  0.5168 -0.7384 -0.5603
  657MOL0     C88616   9.519  10.587   0.163  0.5891 -0.3797  0.5118
  657MOL0     C88617   9.622  10.633   0.253 -0.3289  0.7077  0.7555
  657MOL0     C88618   9.640  10.772   0.267  0.6171 -0.0517  0.7335
  657MOL0     O88619   9.745  10.802   0.353  0.7400  0.0878  0.4627
  657MOL0     C88620   9.772  10.937   0.377  0.4766 -0.5367  0.6863
  657MOL0     C88621   9.844  11.006   0.262  0.1301 -1.3943  0.0933
  657MOL0     C88622   9.866  11.155   0.292 -0.4690  0.1688 -0.0727
  657MOL0     C88623   9.958  11.211   0.182 -0.1418 -0.1204 -0.1327
  657MOL0     C88624  10.101  11.193   0.223  0.0680 -0.3259  0.7819
  657MOL0     C88625  10.223  11.182   0.254  0.1441  0.5553 -0.0489
  657MOL0     C88626   9.541  10.855   0.227 -0.6198  0.7844 -0.0788
  657MOL0     C88627   9.441  10.810   0.138  0.7813 -0.5111 -0.8526
  657MOL0     H88628   9.286  10.757  -0.357 -1.4547  1.9634 -1.7918
  657MOL0     H88629   9.095  10.711  -0.493  1.2687  2.8740  0.6264
  657MOL0     H88630   8.765  10.489  -0.297  0.3046  0.0759 -0.4177
  657MOL0     H88631   8.665  10.609  -0.356 -0.5683 -0.2518 -0.6637
  657MOL0     H88632   8.660  10.489  -0.590 -1.7206 -2.2693 -1.5125
  657MOL0     H88633   8.772  10.373  -0.513 -0.7816 -0.1561 -3.9574
  657MOL0     H88634   8.558  10.297  -0.547 -3.4745 -1.2001  0.4086
  657MOL0     H88635   8.563  10.328  -0.357 -3.1357 -0.5589 -0.3675
  657MOL0     H88636   8.441  10.534  -0.397  2.8627 -0.6290  0.4410
  657MOL0     H88637   8.411  10.485  -0.560  1.3023 -0.3843 -0.4304
  657MOL0     H88638   8.322  10.337  -0.317 -1.4049  2.6136  0.0953
  657MOL0     H88639   8.231  10.444  -0.427 -0.2183  0.7790  0.1641
  657MOL0     H88640   8.269  10.295  -0.619 -0.1521 -2.5615 -0.6542
  657MOL0     H88641   8.370  10.187  -0.516  0.4598 -0.0205  1.4558
  657MOL0     H88642   8.170  10.076  -0.538 -0.8148  0.2764  0.3830
  657MOL0     H88643   8.139  10.154  -0.376 -2.2457  1.9815 -0.8207
  657MOL0     H88644   8.030  10.253  -0.646  2.2271  1.4571  0.6919
  657MOL0     H88645   8.004  10.327  -0.485 -1.1418 -0.1771  0.1827
  657MOL0     H88646   7.952   9.953  -0.613 -1.1109  0.1168 -0.4122
  657MOL0     H88647   7.638   9.841  -0.553  0.4277 -0.1339  0.2646
  657MOL0     H88648   7.805   9.773  -0.546  0.3010  0.3977 -1.5184
  657MOL0     H88649   7.662   9.851  -0.285  0.9342  2.3204 -1.2849
  657MOL0     H88650   7.810   9.787  -0.299  0.2447 -0.2192 -0.4123
  657MOL0     H88651   7.716   9.589  -0.444 -1.2035  0.4621 -0.5853
  657MOL0     H88652   7.555   9.648  -0.388 -0.0999  1.1026  2.7922
  657MOL0     H88653   7.604   9.592  -0.171  0.3757 -0.7545  1.2911
  657MOL0     H88654   7.764   9.533  -0.212 -0.2667 -0.1097 -2.5230
  657MOL0     H88655   7.510   9.166  -0.311 -1.9557 -1.4870  0.8145
  657MOL0     H88656   7.186   9.052  -0.430 -2.3227 -1.9626  2.1809
  657MOL0     H88657   7.352   9.003  -0.404  0.3118  1.2451 -0.8901
  657MOL0     H88658   7.254   9.002  -0.269  0.4158 -0.2652 -0.5052
  657MOL0     H88659   6.813   9.516  -0.411 -0.2067 -0.8849 -1.0132
  657MOL0     H88660   6.550   9.511  -0.388  0.4217  0.2994 -0.3369
  657MOL0     H88661   6.340   9.218  -0.164 -1.4284  0.3342 -0.7654
  657MOL0     H88662   6.404   9.324  -0.030  2.0716  1.1480 -1.8470
  657MOL0     H88663   6.159   9.310  -0.044  0.7141 -1.8042 -0.3446
  657MOL0     H88664   6.206   9.476  -0.087 -0.1121 -0.0589 -1.3002
  657MOL0     H88665   6.161   9.254  -0.289  1.3176  0.2958 -1.1726
  657MOL0     H88666   6.175   9.429  -0.327 -0.9865  0.3078 -0.5952
  657MOL0     H88667   5.961   9.319  -0.142 -0.0154 -1.9440 -0.8876
  657MOL0     H88668   5.967   9.477  -0.218 -0.0125 -1.3933  1.5509
  657MOL0     H88669   5.932   9.205  -0.357 -0.1698 -1.5072  1.4012
  657MOL0     H88670   5.940   9.361  -0.435 -0.3621 -0.0764 -0.2424
  657MOL0     H88671   5.702   9.242  -0.355 -1.6712  0.8245 -0.2273
  657MOL0     H88672   5.756   9.298  -0.203  2.1706 -2.6117 -0.6110
  657MOL0     H88673   5.781   9.536  -0.315 -0.8908  0.7586 -2.1310
  657MOL0     H88674   5.620   9.469  -0.265 -0.6451 -2.4638  0.0507
  657MOL0     H88675   5.606   9.412  -0.528 -2.4255  1.4688 -1.1516
  657MOL0     H88676   5.757   9.501  -0.542  1.0156  0.3206  1.9400
  657MOL0     H88677   6.588   9.218  -0.069  2.1791 -1.6241  1.2956
  657MOL0     H88678   6.833   9.211  -0.114 -3.1264 -2.0409  0.6541
  657MOL0     H88679   7.165   9.511  -0.268  0.2618 -0.5481 -0.7767
  657MOL0     H88680   7.384   9.573  -0.255 -1.4559 -0.5320  2.8316
  657MOL0     H88681   8.862  10.642  -0.139  0.4532 -4.2303 -1.1022
  657MOL0     H88682   9.058  10.679  -0.010  0.3964  0.9751 -0.1115
  657MOL0     H88683   9.504  10.481   0.147 -1.6037 -0.4816  2.5460
  657MOL0     H88684   9.683  10.555   0.298  1.8957  1.4034 -0.8795
  657MOL0     H88685   9.683  10.998   0.395  1.2178  1.0549 -0.7694
  657MOL0     H88686   9.830  10.949   0.468  1.6157 -0.4497 -0.0302
  657MOL0     H88687   9.768  11.000   0.184  0.9251 -1.9701 -0.6649
  657MOL0     H88688   9.931  10.947   0.231 -0.2852 -2.5009  0.9987
  657MOL0     H88689   9.900  11.169   0.395  1.6826  1.0008 -0.8337
  657MOL0     H88690   9.767  11.202   0.287  0.7928  2.9978 -0.7632
  657MOL0     H88691   9.943  11.315   0.153 -0.6522 -0.5013 -1.3029
  657MOL0     H88692   9.948  11.153   0.090  2.1906 -1.6518  0.4778
  657MOL0     H88693  10.327  11.180   0.276 -0.4048 -2.1589  3.1515
  657MOL0     H88694   9.530  10.957   0.263  2.4785  1.7068 -1.3801
  657MOL0     H88695   9.376  10.887   0.098  2.7877  0.2191 -2.8669
  658MOL0     O88696   1.779   4.142   5.137  0.0120 -0.2979 -0.2201
  658MOL0     C88697   1.769   4.195   5.030  0.0436 -0.3582  0.9513
  658MOL0     O88698   1.663   4.259   4.974  0.3628  0.0217 -0.2197
  658MOL0     C88699   1.543   4.255   5.044 -0.3618 -0.7148  0.2338
  658MOL0     C88700   1.472   4.374   5.078 -0.1952  0.4842 -0.0898
  658MOL0     C88701   1.341   4.358   5.134 -0.3975 -0.8912 -0.8390
  658MOL0     C88702   1.283   4.235   5.163 -0.3542  0.2065 -0.1076
  658MOL0     O88703   1.168   4.239   5.234  0.1658  0.5161 -0.4496
  658MOL0     C88704   1.053   4.212   5.154 -0.6150  0.4748  0.1167
  658MOL0     C88705   0.928   4.201   5.247 -0.1560  0.4767 -0.1566
  658MOL0     C88706   0.806   4.135   5.177  0.1729  0.0780 -0.6199
  658MOL0     C88707   0.707   4.053   5.268 -1.2955  0.7848  0.2896
  658MOL0     C88708   0.572   4.035   5.195 -0.6166 -0.5630 -0.2556
  658MOL0     C88709   0.479   3.941   5.270 -0.4012 -0.7283  0.5775
  658MOL0     C88710   0.347   3.939   5.205  0.5792 -0.2853 -0.0533
  658MOL0     C88711   0.257   3.838   5.272 -0.2364 -0.2968  0.0301
  658MOL0     N88712   0.121   3.839   5.213 -0.8326  0.5461  0.7358
  658MOL0     C88713   0.041   3.727   5.218  0.6291 -0.4174  0.6557
  658MOL0     C88714  -0.075   3.757   5.156  0.3774 -0.1435 -1.1509
  658MOL0     C88715  -0.199   3.675   5.133  0.5345  0.0474 -0.0895
  658MOL0     C88716  -0.214   3.558   5.236  0.7617 -0.4214 -0.6364
  658MOL0     C88717  -0.296   3.608   5.361 -0.1870 -0.0802  0.3873
  658MOL0     C88718  -0.304   3.498   5.461 -0.7135 -0.4278  0.9707
  658MOL0     O88719  -0.366   3.388   5.409  0.2636  0.4778 -0.2436
  658MOL0     C88720  -0.484   3.397   5.338  0.2567 -0.3201 -0.4261
  658MOL0     C88721  -0.489   3.317   5.228 -0.2383 -0.7024 -0.1399
  658MOL0     C88722  -0.576   3.343   5.123 -0.2665 -0.2266 -0.2035
  658MOL0     C88723  -0.554   3.274   4.992 -0.4109 -1.1304 -0.0325
  658MOL0     C88724  -0.672   3.441   5.136 -0.2952 -0.1377 -0.3906
  658MOL0     C88725  -0.761   3.484   5.024 -0.6272 -0.3355  0.5841
  658MOL0     O88726  -0.798   3.617   5.039 -0.0652  0.0006  0.3106
  658MOL0     C88727  -0.855   3.686   4.936  0.0814  0.4910  1.1536
  658MOL0     C88728  -0.981   3.742   4.957 -0.3168 -0.0516  0.0866
  658MOL0     C88729  -1.053   3.813   4.865 -0.6133  0.6865 -0.6621
  658MOL0     C88730  -0.995   3.818   4.735  0.2870  0.5946 -0.5659
  658MOL0     O88731  -1.065   3.885   4.636 -0.3539  0.0621 -0.6974
  658MOL0     C88732  -1.008   3.919   4.510  0.6291  0.7561 -0.0082
  658MOL0     C88733  -1.103   4.022   4.448  0.1057 -0.6946  0.1379
  658MOL0     C88734  -1.117   4.153   4.522  0.1951  0.7935 -0.0753
  658MOL0     C88735  -1.226   4.241   4.459  0.2722 -0.6730  0.8075
  658MOL0     C88736  -1.367   4.175   4.449 -0.8431 -0.3019 -0.1152
  658MOL0     C88737  -1.480   4.261   4.422  0.5428  0.5194 -0.2939
  658MOL0     C88738  -1.615   4.184   4.449 -0.8504 -0.5686  0.0864
  658MOL0     C88739  -1.715   4.268   4.374  0.2805  0.1191 -0.3833
  658MOL0    Cl88740  -1.887   4.243   4.429 -0.3488  0.3535 -0.0301
  658MOL0     C88741  -0.865   3.762   4.714  0.3094  0.2789 -0.0628
  658MOL0     C88742  -0.797   3.690   4.809  0.3779 -0.6469 -1.3250
  658MOL0     O88743  -0.808   3.407   4.943  0.5775  0.0979  0.2244
  658MOL0     C88744  -0.684   3.509   5.256  0.4423  0.5826  0.2897
  658MOL0     C88745  -0.585   3.493   5.355  0.3985 -0.1782  0.2203
  658MOL0     N88746  -0.054   3.891   5.104  0.4502  0.2311  0.2667
  658MOL0     N88747   0.058   3.937   5.145 -0.1476 -0.7505  0.1307
  658MOL0     C88748   1.352   4.123   5.111  1.0968 -0.9583  0.6152
  658MOL0     C88749   1.473   4.141   5.040 -0.3623 -0.1733 -0.3189
  658MOL0     C88750   1.888   4.184   4.933 -0.0647  0.0900 -0.4851
  658MOL0     C88751   1.880   4.234   4.801 -0.1399  0.7588 -0.1242
  658MOL0     C88752   1.995   4.233   4.716  0.7679 -1.0446 -0.4168
  658MOL0     C88753   2.121   4.184   4.769  0.5767 -0.1485  0.0819
  658MOL0     O88754   2.234   4.201   4.694 -0.4679 -0.0347  0.2709
  658MOL0     C88755   2.319   4.078   4.677  0.5578 -0.3136  0.1406
  658MOL0     C88756   2.371   4.060   4.532 -0.5247  0.1901  0.1686
  658MOL0     C88757   2.406   3.915   4.496 -0.2235 -0.0863 -0.0033
  658MOL0     C88758   2.516   3.862   4.593  0.0391  0.6387  0.0776
  658MOL0     C88759   2.547   3.720   4.561  0.2255 -1.1823 -0.8542
  658MOL0     C88760   2.552   3.598   4.539  0.4722  0.5357  0.1962
  658MOL0     C88761   2.120   4.120   4.893  0.1183  0.8000  0.0559
  658MOL0     C88762   2.011   4.125   4.972 -0.2262 -0.1146 -0.1542
  658MOL0     H88763   1.526   4.467   5.066  2.4377 -1.1512 -2.0628
  658MOL0     H88764   1.286   4.448   5.158  0.8556 -1.1182  3.9343
  658MOL0     H88765   1.031   4.288   5.078 -0.4400 -1.8603 -2.4247
  658MOL0     H88766   1.065   4.124   5.090 -1.2547  2.0114 -2.2594
  658MOL0     H88767   0.948   4.149   5.341 -3.3632  0.8913  0.8964
  658MOL0     H88768   0.895   4.297   5.290  0.5574  0.0707  1.3468
  658MOL0     H88769   0.749   4.203   5.113 -0.8915 -2.2934 -2.3816
  658MOL0     H88770   0.843   4.071   5.096  2.2517  0.4985 -0.0448
  658MOL0     H88771   0.757   3.963   5.305 -2.3497 -0.9489 -2.1529
  658MOL0     H88772   0.679   4.107   5.359  0.1824  2.2990 -0.1094
  658MOL0     H88773   0.530   4.136   5.192  0.7513  0.0334  0.1529
  658MOL0     H88774   0.588   3.996   5.094  0.7678  0.3786 -0.4213
  658MOL0     H88775   0.514   3.837   5.267  3.2244  0.3724 -1.3544
  658MOL0     H88776   0.465   3.980   5.371 -0.2839  0.6042  0.0929
  658MOL0     H88777   0.297   4.036   5.206  0.9545 -0.0795 -0.5891
  658MOL0     H88778   0.353   3.919   5.097 -2.2604 -1.0732 -0.1507
  658MOL0     H88779   0.238   3.863   5.377 -2.9828  3.6359 -1.1646
  658MOL0     H88780   0.295   3.737   5.256 -0.8386 -0.8490  1.8945
  658MOL0     H88781   0.065   3.627   5.253  2.8187 -1.6678 -3.6766
  658MOL0     H88782  -0.298   3.722   5.135  0.0251 -0.9918  0.1488
  658MOL0     H88783  -0.193   3.631   5.033  0.5388  0.3813 -0.2361
  658MOL0     H88784  -0.123   3.509   5.273  0.0354 -0.3836  1.3293
  658MOL0     H88785  -0.267   3.479   5.182 -0.4883 -2.1523  2.8478
  658MOL0     H88786  -0.391   3.651   5.329  0.3226 -2.3296 -5.3558
  658MOL0     H88787  -0.236   3.683   5.415 -0.1152 -0.2720  0.5758
  658MOL0     H88788  -0.365   3.537   5.543 -2.4518 -0.5995 -0.1748
  658MOL0     H88789  -0.204   3.476   5.498  0.6531 -0.3794 -2.3377
  658MOL0     H88790  -0.410   3.242   5.220 -0.3865 -0.7788 -0.8866
  658MOL0     H88791  -0.526   3.349   4.918 -3.6359  0.4446  0.1855
  658MOL0     H88792  -0.483   3.191   4.991 -1.3966 -2.0001 -0.1383
  658MOL0     H88793  -0.645   3.221   4.961  0.0826 -2.9835  1.4796
  658MOL0     H88794  -1.009   3.736   5.062  2.6939 -0.0725  0.9952
  658MOL0     H88795  -1.141   3.874   4.884  0.9958  3.6519 -2.0546
  658MOL0     H88796  -0.906   3.957   4.521  0.4442  1.3005 -0.1513
  658MOL0     H88797  -1.021   3.830   4.449 -1.3953  1.3146 -0.4695
  658MOL0     H88798  -1.078   4.040   4.343  0.0626 -2.2100 -0.1607
  658MOL0     H88799  -1.204   3.980   4.440 -0.0238 -0.2937 -0.4301
  658MOL0     H88800  -1.022   4.207   4.514  0.8389 -0.3470 -0.2244
  658MOL0     H88801  -1.148   4.134   4.625 -3.4751 -4.2657 -1.7184
  658MOL0     H88802  -1.229   4.331   4.521 -0.7879 -0.7296  0.8543
  658MOL0     H88803  -1.197   4.267   4.357 -2.2467 -1.7913 -0.2980
  658MOL0     H88804  -1.384   4.136   4.549  2.7426 -3.7207 -0.6077
  658MOL0     H88805  -1.364   4.093   4.376  1.8064 -0.9344  0.5724
  658MOL0     H88806  -1.474   4.349   4.487  0.1234  2.5714 -2.8862
  658MOL0     H88807  -1.463   4.295   4.320 -1.3342  0.2053 -0.7478
  658MOL0     H88808  -1.640   4.188   4.555  0.1728 -0.4165  0.3318
  658MOL0     H88809  -1.621   4.082   4.410  0.8852 -0.2602 -1.1529
  658MOL0     H88810  -1.703   4.249   4.267  4.1416 -0.1080 -0.0291
  658MOL0     H88811  -1.688   4.372   4.394  2.4958 -0.3888 -0.5498
  658MOL0     H88812  -0.819   3.767   4.616  0.6731  1.9915  0.1665
  658MOL0     H88813  -0.701   3.644   4.789  0.4938 -1.2794  0.4564
  658MOL0     H88814  -0.768   3.576   5.266  0.1991  0.2674  0.3753
  658MOL0     H88815  -0.585   3.571   5.430 -1.3287 -0.1243  0.2080
  658MOL0     H88816   1.323   4.027   5.150 -0.1100 -0.1530  1.7775
  658MOL0     H88817   1.517   4.058   4.987  0.1149 -0.3352  0.3258
  658MOL0     H88818   1.795   4.284   4.756 -1.3128 -2.2320 -1.5380
  658MOL0     H88819   1.987   4.275   4.616  2.9236 -0.8698 -0.5514
  658MOL0     H88820   2.407   4.075   4.743  1.1815 -1.3006 -0.7040
  658MOL0     H88821   2.256   3.992   4.701  2.1881 -0.6076  4.2798
  658MOL0     H88822   2.466   4.113   4.519 -0.6730  0.2127 -0.9011
  658MOL0     H88823   2.299   4.091   4.457  2.1596  2.4963 -1.6693
  658MOL0     H88824   2.457   3.920   4.399 -1.8251 -0.1941 -0.8917
  658MOL0     H88825   2.313   3.857   4.503 -0.8294  1.0195  1.8380
  658MOL0     H88826   2.484   3.861   4.697 -0.9873  1.5552 -0.2118
  658MOL0     H88827   2.610   3.919   4.585  1.0094 -0.9913 -0.6465
  658MOL0     H88828   2.551   3.493   4.520 -0.5646  0.3498  1.2411
  658MOL0     H88829   2.202   4.057   4.926  0.1997  1.3066  0.8476
  658MOL0     H88830   2.008   4.071   5.066 -1.5423  1.8318  0.9933
  659MOL0     O88831   2.065   8.314   9.819  0.5412  0.5411  0.1183
  659MOL0     C88832   2.063   8.194   9.810 -0.3067  0.3185 -0.8897
  659MOL0     O88833   1.954   8.108   9.827 -0.0691  0.2448 -0.3946
  659MOL0     C88834   1.836   8.171   9.832 -0.4063 -0.7039  0.0081
  659MOL0     C88835   1.774   8.196   9.957 -0.1834 -0.6632 -0.1298
  659MOL0     C88836   1.650   8.259   9.973 -0.9531  0.7821  0.3056
  659MOL0     C88837   1.577   8.287   9.857  0.1727  0.2884 -0.1999
  659MOL0     O88838   1.456   8.363   9.874  0.0446 -0.5266 -0.4227
  659MOL0     C88839   1.389   8.413   9.755 -0.4830  0.1667 -0.8980
  659MOL0     C88840   1.293   8.530   9.805  0.2810  0.4189  0.2628
  659MOL0     C88841   1.170   8.483   9.883 -0.1339 -0.0234  0.4667
  659MOL0     C88842   1.092   8.598   9.947 -0.4766  0.0643 -0.3146
  659MOL0     C88843   0.964   8.534   9.981 -0.0335  0.1863 -0.0664
  659MOL0     C88844   0.880   8.619  10.081 -0.1171  0.0412 -0.0949
  659MOL0     C88845   0.738   8.559  10.121 -0.8275 -0.4026  0.1743
  659MOL0     C88846   0.756   8.517  10.265 -0.2386  0.9900  0.5525
  659MOL0     N88847   0.636   8.471  10.323  0.8239  0.6544 -0.0602
  659MOL0     C88848   0.543   8.558  10.383 -0.7109  0.1249 -0.1034
  659MOL0     C88849   0.456   8.467  10.441  0.0226 -0.4936  0.4354
  659MOL0     C88850   0.338   8.507  10.519 -0.4674  0.2064  0.2621
  659MOL0     C88851   0.212   8.547  10.428 -0.3150  0.2240  0.1378
  659MOL0     C88852   0.093   8.574  10.511  0.7608  0.9065 -0.2152
  659MOL0     C88853  -0.018   8.596  10.414  0.0464 -0.6564 -1.2285
  659MOL0     O88854  -0.115   8.676  10.477  0.3805 -0.0637 -0.4324
  659MOL0     C88855  -0.228   8.693  10.397 -0.2144 -0.0245  0.0955
  659MOL0     C88856  -0.232   8.735  10.267  0.5692 -0.7038  0.3072
  659MOL0     C88857  -0.359   8.764  10.196  0.5397 -0.4509 -1.0007
  659MOL0     C88858  -0.345   8.775  10.047 -0.3926 -0.0205 -0.0945
  659MOL0     C88859  -0.471   8.766  10.277 -0.6793  0.0226 -0.3857
  659MOL0     C88860  -0.602   8.821  10.214  0.7256  0.2745  0.2154
  659MOL0     O88861  -0.587   8.899  10.104 -0.6503  0.2998 -0.2312
  659MOL0     C88862  -0.701   8.943  10.049  1.0830 -0.5829  0.2858
  659MOL0     C88863  -0.719   9.085  10.049  0.2258  0.0059  0.4586
  659MOL0     C88864  -0.835   9.139   9.991 -0.1932  0.3275 -0.5366
  659MOL0     C88865  -0.930   9.051   9.924 -0.6025 -1.2388  0.7631
  659MOL0     O88866  -1.043   9.109   9.851  0.6994 -0.2765 -0.1279
  659MOL0     C88867  -1.024   9.252   9.812 -0.0879  0.4381 -0.7205
  659MOL0     C88868  -1.116   9.284   9.690 -0.6589 -0.0676  0.7017
  659MOL0     C88869  -1.261   9.311   9.735  1.4115 -0.0069  0.1826
  659MOL0     C88870  -1.360   9.305   9.611  0.1846  0.1744 -0.4771
  659MOL0     C88871  -1.504   9.355   9.640 -0.1892 -0.3607 -0.0240
  659MOL0     C88872  -1.525   9.506   9.668  0.0286 -0.7846  0.6990
  659MOL0     C88873  -1.670   9.544   9.679  0.7853 -0.3730 -0.3173
  659MOL0     C88874  -1.736   9.572   9.540 -0.4474  0.0337  0.4287
  659MOL0    Cl88875  -1.911   9.620   9.573 -0.3617  0.5075  0.5815
  659MOL0     C88876  -0.905   8.914   9.921 -0.1509  0.2430  0.3348
  659MOL0     C88877  -0.800   8.865   9.992 -0.1798  0.4427 -0.2623
  659MOL0     O88878  -0.708   8.791  10.271 -0.0078 -0.0263 -0.6706
  659MOL0     C88879  -0.463   8.735  10.412  0.7021 -0.5124  0.1559
  659MOL0     C88880  -0.341   8.695  10.471  1.3232 -0.0171 -0.3303
  659MOL0     N88881   0.494   8.342  10.417  0.6413 -0.0358 -1.0718
  659MOL0     N88882   0.591   8.343  10.335  0.4751  0.4477 -0.2057
  659MOL0     C88883   1.639   8.261   9.730 -0.1632  0.7620  0.1314
  659MOL0     C88884   1.759   8.197   9.723 -0.3957 -0.0484  0.1354
  659MOL0     C88885   2.189   8.135   9.768  0.8159 -0.1475 -0.3392
  659MOL0     C88886   2.188   8.003   9.720 -0.4691  0.5086  0.7850
  659MOL0     C88887   2.318   7.938   9.709  0.3474 -0.5568  0.5348
  659MOL0     C88888   2.437   8.012   9.724 -0.4088 -0.7719 -0.0392
  659MOL0     O88889   2.560   7.956   9.710 -0.2900 -0.3763  0.5303
  659MOL0     C88890   2.564   7.812   9.676  0.0332 -0.0975  0.9661
  659MOL0     C88891   2.702   7.773   9.624 -0.7531  0.6818 -0.0711
  659MOL0     C88892   2.741   7.820   9.474  0.3305 -0.1826 -0.3006
  659MOL0     C88893   2.742   7.970   9.466  0.0414  0.0795  0.0997
  659MOL0     C88894   2.843   8.050   9.541  0.2471  0.4485 -0.4892
  659MOL0     C88895   2.925   8.102   9.613  0.2010 -0.4597  0.6189
  659MOL0     C88896   2.434   8.145   9.758 -0.2026 -0.2371 -0.1328
  659MOL0     C88897   2.307   8.209   9.777  0.0135  0.3060  0.4802
  659MOL0     H88898   1.830   8.170  10.046 -1.0024  0.4375  0.7442
  659MOL0     H88899   1.606   8.289  10.067 -1.3265  0.4689  0.2339
  659MOL0     H88900   1.462   8.470   9.698 -0.0022  1.5756  1.0196
  659MOL0     H88901   1.336   8.329   9.709 -0.3900  0.2890 -1.2251
  659MOL0     H88902   1.355   8.593   9.869  3.7344 -2.2175 -0.2364
  659MOL0     H88903   1.262   8.584   9.714 -1.3495 -3.8177 -1.9713
  659MOL0     H88904   1.108   8.434   9.807  1.1967  1.3933 -1.6578
  659MOL0     H88905   1.205   8.409   9.955  2.0605 -0.2204 -0.7202
  659MOL0     H88906   1.150   8.633  10.033  1.5825 -1.1680 -1.1253
  659MOL0     H88907   1.085   8.682   9.878  2.5719  0.9440  0.2992
  659MOL0     H88908   0.908   8.513   9.889 -1.4886 -1.0059  1.0477
  659MOL0     H88909   0.994   8.443  10.034  2.4296  0.3946 -0.9531
  659MOL0     H88910   0.938   8.642  10.171  2.6231 -3.1812 -0.8026
  659MOL0     H88911   0.861   8.712  10.026 -0.1922  1.9005  2.8615
  659MOL0     H88912   0.653   8.628  10.116 -0.3061  0.2026 -0.6656
  659MOL0     H88913   0.720   8.471  10.059  1.8599  0.0364 -1.3947
  659MOL0     H88914   0.795   8.599  10.326 -0.7206  1.7403 -0.1176
  659MOL0     H88915   0.833   8.440  10.252  0.1735  1.6669 -1.4546
  659MOL0     H88916   0.563   8.665  10.387  1.1240 -0.1811 -0.0560
  659MOL0     H88917   0.309   8.426  10.587  2.7234  1.8215  3.9363
  659MOL0     H88918   0.376   8.578  10.593 -1.2918  0.3257  0.5773
  659MOL0     H88919   0.190   8.473  10.351 -0.0472  1.1038 -0.8166
  659MOL0     H88920   0.234   8.639  10.372 -0.9337  0.1718 -0.1961
  659MOL0     H88921   0.108   8.660  10.577  0.3765  0.6038  0.2704
  659MOL0     H88922   0.064   8.496  10.582  2.4278 -0.0185 -0.4996
  659MOL0     H88923  -0.063   8.499  10.392  0.1997 -1.2994  1.0163
  659MOL0     H88924   0.013   8.647  10.323 -1.2909  3.3217  0.3222
  659MOL0     H88925  -0.145   8.732  10.201  0.8652 -0.8954  0.7052
  659MOL0     H88926  -0.255   8.729  10.006 -0.3917  0.3626 -0.5288
  659MOL0     H88927  -0.427   8.716  10.005  0.8983 -1.5077 -0.6420
  659MOL0     H88928  -0.344   8.880  10.017  1.7595  0.0623  0.1128
  659MOL0     H88929  -0.641   9.151  10.085 -0.4974  0.0245  2.0483
  659MOL0     H88930  -0.854   9.246   9.991 -1.6441  0.1239 -2.5288
  659MOL0     H88931  -1.031   9.315   9.902 -0.0244 -0.5618  0.0008
  659MOL0     H88932  -0.924   9.273   9.773 -0.5353  4.3969 -0.2208
  659MOL0     H88933  -1.071   9.371   9.640  0.7603 -1.3494 -0.3566
  659MOL0     H88934  -1.110   9.198   9.622  2.2277  2.0813 -2.0676
  659MOL0     H88935  -1.262   9.408   9.785 -0.8899  0.6640 -1.0234
  659MOL0     H88936  -1.285   9.242   9.817  1.1980 -0.1434  0.0070
  659MOL0     H88937  -1.325   9.370   9.531  1.1441 -0.5008 -0.6248
  659MOL0     H88938  -1.361   9.203   9.572  2.1780 -0.1673  0.2181
  659MOL0     H88939  -1.540   9.290   9.720  0.1981  0.3075  0.7022
  659MOL0     H88940  -1.568   9.329   9.555  0.0733 -2.5231  0.3978
  659MOL0     H88941  -1.473   9.525   9.763 -0.2710 -1.3697  0.9862
  659MOL0     H88942  -1.485   9.557   9.580 -2.8539  0.5208  0.0520
  659MOL0     H88943  -1.690   9.627   9.747  0.6191 -0.1128 -0.6813
  659MOL0     H88944  -1.721   9.462   9.730 -1.3784  0.8434 -0.4149
  659MOL0     H88945  -1.738   9.484   9.475  3.3987 -0.5462  0.8921
  659MOL0     H88946  -1.686   9.649   9.481  0.9253 -1.2568 -0.1535
  659MOL0     H88947  -0.966   8.856   9.853  1.1041 -1.1553  0.3380
  659MOL0     H88948  -0.788   8.757   9.994 -1.9216  0.2282 -0.4711
  659MOL0     H88949  -0.550   8.734  10.477 -0.4576 -1.4219 -1.3414
  659MOL0     H88950  -0.349   8.664  10.574  0.0019 -1.1210 -0.7486
  659MOL0     H88951   1.581   8.286   9.642  0.3814  2.7993  0.2964
  659MOL0     H88952   1.813   8.182   9.631  1.2858  0.8761  0.9371
  659MOL0     H88953   2.097   7.949   9.697 -0.7151  0.5729  1.5931
  659MOL0     H88954   2.323   7.832   9.685  0.6310 -0.5543  0.5878
  659MOL0     H88955   2.550   7.751   9.766 -1.2032  1.1397  1.6600
  659MOL0     H88956   2.490   7.787   9.599  1.2419 -1.6342  0.2528
  659MOL0     H88957   2.726   7.666   9.626 -0.5214  0.5142 -3.8267
  659MOL0     H88958   2.772   7.819   9.694 -0.4344 -1.4062  1.0686
  659MOL0     H88959   2.665   7.783   9.404 -0.0113 -2.1171  1.0163
  659MOL0     H88960   2.839   7.788   9.438 -0.7058 -3.1638 -0.8013
  659MOL0     H88961   2.641   8.006   9.488 -0.2908 -0.6571 -0.1744
  659MOL0     H88962   2.761   8.003   9.363  1.3793  2.0340  0.9115
  659MOL0     H88963   2.999   8.144   9.677 -1.3962  1.5763  1.2494
  659MOL0     H88964   2.529   8.197   9.757  1.3769 -2.9461 -0.0216
  659MOL0     H88965   2.290   8.312   9.806  0.8202  1.0225 -1.3930
  660MOL0     O88966   9.828   3.436   0.234  0.1287  0.2935 -0.4747
  660MOL0     C88967   9.806   3.426   0.112 -0.0282 -0.2665  0.5018
  660MOL0     O88968   9.895   3.383   0.014 -0.5766  0.2136 -0.4064
  660MOL0     C88969  10.023   3.345   0.053  0.2153 -0.0193  0.5028
  660MOL0     C88970  10.097   3.409   0.148  0.0240  0.4595  0.3292
  660MOL0     C88971  10.238   3.380   0.155  0.2677  0.3580  1.2349
  660MOL0     C88972  10.292   3.280   0.070 -0.3762 -0.3033 -0.6918
  660MOL0     O88973  10.423   3.251   0.059  0.0681  0.3200  0.1625
  660MOL0     C88974  10.501   3.230   0.173  0.0291 -0.2400 -0.0043
  660MOL0     C88975  10.646   3.226   0.133  0.1391 -0.1141 -0.3748
  660MOL0     C88976  10.730   3.202   0.257 -0.6200  0.1503  0.1236
  660MOL0     C88977  10.884   3.189   0.227  0.1252 -0.4379  0.4606
  660MOL0     C88978  10.957   3.321   0.197  0.6190 -0.7707  0.4177
  660MOL0     C88979  11.105   3.299   0.161 -0.3741  0.0353  0.1170
  660MOL0     C88980  11.176   3.420   0.108 -0.9188 -0.1134  1.0137
  660MOL0     C88981  11.335   3.416   0.113 -0.1228  0.3243  0.2302
  660MOL0     N88982  11.404   3.321   0.022  0.0793 -0.4716  0.5060
  660MOL0     C88983  11.431   3.340  -0.108  0.2964 -0.0592  0.2194
  660MOL0     C88984  11.519   3.249  -0.148 -0.5436  0.0432 -0.0651
  660MOL0     C88985  11.596   3.226  -0.274 -0.7710  0.1341 -0.3606
  660MOL0     C88986  11.520   3.190  -0.395  0.4093  0.3094  1.1140
  660MOL0     C88987  11.608   3.153  -0.515 -0.4836  0.4692 -0.0544
  660MOL0     C88988  11.537   3.108  -0.648 -0.2358  0.8627  0.1161
  660MOL0     O88989  11.505   3.215  -0.740 -0.7259 -0.1311  0.3637
  660MOL0     C88990  11.379   3.264  -0.738  0.0302 -0.9528 -0.1661
  660MOL0     C88991  11.350   3.350  -0.845  0.2658 -0.0874 -0.1930
  660MOL0     C88992  11.219   3.406  -0.858  0.1286 -0.7237 -0.3774
  660MOL0     C88993  11.206   3.503  -0.975 -0.4104 -0.3774 -0.0215
  660MOL0     C88994  11.116   3.361  -0.772  0.3321  0.1216  0.0025
  660MOL0     C88995  10.974   3.409  -0.786 -0.1540  0.1491 -0.5660
  660MOL0     O88996  10.879   3.354  -0.706  0.3844  0.3426  0.4570
  660MOL0     C88997  10.750   3.387  -0.734 -0.0811 -0.4973 -0.3470
  660MOL0     C88998  10.682   3.492  -0.665  0.0798 -0.7458 -0.9023
  660MOL0     C88999  10.548   3.529  -0.690 -0.0630  0.9821  0.3711
  660MOL0     C89000  10.478   3.441  -0.775  0.3907  0.5569 -0.9505
  660MOL0     O89001  10.352   3.477  -0.787 -0.3056 -0.5971 -0.3819
  660MOL0     C89002  10.258   3.427  -0.882  0.0084  0.0161  0.2873
  660MOL0     C89003  10.107   3.453  -0.846 -0.3763 -0.6402  0.5692
  660MOL0     C89004  10.019   3.412  -0.965 -0.7699  0.0295 -0.0353
  660MOL0     C89005   9.874   3.421  -0.927  0.2346  0.2910  0.4564
  660MOL0     C89006   9.785   3.319  -0.999 -0.4282  0.0688 -0.7753
  660MOL0     C89007   9.637   3.351  -0.980  0.4111  0.9741  0.0754
  660MOL0     C89008   9.584   3.444  -1.090 -0.0111 -0.0278  0.5766
  660MOL0     C89009   9.440   3.470  -1.061 -0.0871  0.4962 -1.0726
  660MOL0    Cl89010   9.409   3.549  -0.898 -0.1248 -0.1682 -0.1480
  660MOL0     C89011  10.546   3.332  -0.843  0.9381 -0.0717 -0.0205
  660MOL0     C89012  10.678   3.309  -0.825 -0.3618 -0.5965 -0.1720
  660MOL0     O89013  10.949   3.492  -0.874  0.6148  0.0425  0.3692
  660MOL0     C89014  11.150   3.286  -0.661 -0.2458  0.2940  0.6831
  660MOL0     C89015  11.283   3.233  -0.640 -0.0663  0.3180 -0.1706
  660MOL0     N89016  11.549   3.171  -0.041  0.3501 -0.5053 -0.0014
  660MOL0     N89017  11.469   3.205   0.054  0.0441 -0.3262  0.5561
  660MOL0     C89018  10.216   3.215  -0.025 -0.3333 -0.4670 -0.5632
  660MOL0     C89019  10.083   3.252  -0.037  0.7882  0.0384 -0.2270
  660MOL0     C89020   9.673   3.476   0.062  0.8703 -1.2242 -0.1739
  660MOL0     C89021   9.599   3.570   0.131  0.1124 -0.7716 -0.1042
  660MOL0     C89022   9.474   3.611   0.079  0.0068 -0.7792  0.5747
  660MOL0     C89023   9.418   3.572  -0.043 -0.2550 -0.1495 -0.5052
  660MOL0     O89024   9.306   3.629  -0.094  0.7962 -0.4414 -0.6729
  660MOL0     C89025   9.239   3.568  -0.199  0.4268 -0.5222 -0.6972
  660MOL0     C89026   9.112   3.666  -0.235  0.6999 -0.0518  0.5157
  660MOL0     C89027   8.996   3.652  -0.136 -0.6406 -0.3885  0.6506
  660MOL0     C89028   8.881   3.746  -0.156 -0.3047 -0.3441 -0.5847
  660MOL0     C89029   8.796   3.699  -0.264 -0.2415  0.2341 -0.3918
  660MOL0     C89030   8.728   3.664  -0.363 -0.0821 -0.2114 -0.0238
  660MOL0     C89031   9.495   3.471  -0.107  1.4094 -1.1273 -1.0424
  660MOL0     C89032   9.623   3.437  -0.060  0.2571 -0.2391 -0.4755
  660MOL0     H89033  10.048   3.487   0.205  0.6898  2.3901 -1.6138
  660MOL0     H89034  10.297   3.422   0.237  1.7664 -0.9728  0.8896
  660MOL0     H89035  10.490   3.312   0.245  2.4228  2.2177 -2.1998
  660MOL0     H89036  10.470   3.135   0.216  0.7449 -0.2983  0.4034
  660MOL0     H89037  10.657   3.139   0.066  0.8903  0.7362 -1.3985
  660MOL0     H89038  10.678   3.317   0.083  0.1238  0.9401  1.4549
  660MOL0     H89039  10.725   3.278   0.334  1.9908 -0.1060  0.6395
  660MOL0     H89040  10.707   3.103   0.299  0.5465  0.5798  1.8692
  660MOL0     H89041  10.932   3.139   0.311  0.7290 -2.1899 -0.8637
  660MOL0     H89042  10.898   3.131   0.135 -0.9118  0.4448 -0.2869
  660MOL0     H89043  10.908   3.370   0.112  1.0203  0.9203  1.1097
  660MOL0     H89044  10.945   3.391   0.281 -3.7202  0.7375 -1.1577
  660MOL0     H89045  11.161   3.272   0.251  0.2318  2.7408  0.6656
  660MOL0     H89046  11.115   3.215   0.092 -1.0974  1.0339 -1.2741
  660MOL0     H89047  11.151   3.425   0.002 -1.1929  2.0920  1.1367
  660MOL0     H89048  11.139   3.502   0.170 -0.7484 -0.4230  1.5304
  660MOL0     H89049  11.374   3.407   0.215 -0.5612  1.6247  0.5278
  660MOL0     H89050  11.365   3.512   0.070 -0.5264 -0.6932 -2.5279
  660MOL0     H89051  11.391   3.414  -0.177  2.9817 -0.3602 -1.8173
  660MOL0     H89052  11.645   3.323  -0.287  2.0113 -0.8573  1.7260
  660MOL0     H89053  11.673   3.150  -0.257 -1.6328 -0.1554  2.9411
  660MOL0     H89054  11.446   3.266  -0.422 -0.9626 -1.2921  0.2221
  660MOL0     H89055  11.447   3.110  -0.383 -1.5419  1.6833 -0.7861
  660MOL0     H89056  11.667   3.066  -0.485  1.8192  1.1418 -2.2951
  660MOL0     H89057  11.675   3.237  -0.533  0.5424 -0.6484 -1.6913
  660MOL0     H89058  11.442   3.056  -0.628 -1.7508  2.4925 -2.2531
  660MOL0     H89059  11.599   3.031  -0.696  1.4377  2.7267 -0.8565
  660MOL0     H89060  11.422   3.378  -0.922  0.7861  0.0816  0.3539
  660MOL0     H89061  11.160   3.595  -0.937  2.8554  0.8085  1.4014
  660MOL0     H89062  11.302   3.538  -1.012 -1.3291  2.4919  0.0224
  660MOL0     H89063  11.157   3.459  -1.063 -0.2924  0.4297 -0.5038
  660MOL0     H89064  10.739   3.542  -0.588 -0.5328 -1.5130  0.0763
  660MOL0     H89065  10.501   3.616  -0.645 -1.8230 -0.3698  1.2558
  660MOL0     H89066  10.272   3.459  -0.986 -2.2366 -0.4388 -0.2176
  660MOL0     H89067  10.258   3.318  -0.869 -0.6006 -0.0990 -0.5762
  660MOL0     H89068  10.088   3.389  -0.759  0.7675  0.4433  1.6616
  660MOL0     H89069  10.086   3.560  -0.837  2.1240 -0.0403 -0.0864
  660MOL0     H89070  10.047   3.310  -0.990  1.6077  0.6516 -0.1012
  660MOL0     H89071  10.025   3.474  -1.055  2.6656 -1.7855 -1.1947
  660MOL0     H89072   9.858   3.392  -0.823 -1.7261 -0.8242 -0.1080
  660MOL0     H89073   9.833   3.521  -0.944 -0.0339  0.1379  0.2090
  660MOL0     H89074   9.811   3.218  -0.966  0.7340  0.0555 -1.6832
  660MOL0     H89075   9.810   3.321  -1.105  0.5031 -0.8107 -0.5811
  660MOL0     H89076   9.582   3.258  -0.998  0.6121 -0.0634  4.0212
  660MOL0     H89077   9.611   3.378  -0.878  1.5916  3.6593 -0.2491
  660MOL0     H89078   9.590   3.402  -1.191 -1.8072  1.4568 -0.1984
  660MOL0     H89079   9.640   3.538  -1.084 -1.3688  0.9175 -0.8953
  660MOL0     H89080   9.373   3.385  -1.072 -0.4986  0.9034 -1.8135
  660MOL0     H89081   9.402   3.535  -1.140 -0.3608 -0.4022 -1.6865
  660MOL0     H89082  10.504   3.261  -0.914  0.4939  0.7668 -0.6153
  660MOL0     H89083  10.723   3.218  -0.863 -1.2374 -0.7470 -0.8839
  660MOL0     H89084  11.080   3.253  -0.585  1.5751  0.4662  2.5384
  660MOL0     H89085  11.297   3.170  -0.553 -0.6730 -0.3887 -0.5743
  660MOL0     H89086  10.257   3.143  -0.095 -1.8912 -0.4692 -1.5479
  660MOL0     H89087  10.014   3.211  -0.110 -0.1026 -0.1271  0.6910
  660MOL0     H89088   9.641   3.604   0.225  1.3792 -1.1552 -0.4992
  660MOL0     H89089   9.417   3.684   0.136 -0.5999  0.2154 -1.2154
  660MOL0     H89090   9.295   3.556  -0.292 -0.7458  3.1741 -2.0661
  660MOL0     H89091   9.193   3.473  -0.168 -0.4037 -0.1622 -0.7990
  660MOL0     H89092   9.064   3.633  -0.327 -0.7780  1.0877  0.8380
  660MOL0     H89093   9.141   3.770  -0.249 -0.1127 -0.0998 -1.9084
  660MOL0     H89094   9.029   3.676  -0.035  1.8381  1.1470 -0.4344
  660MOL0     H89095   8.957   3.549  -0.135  1.0870 -1.0892 -0.3498
  660MOL0     H89096   8.912   3.848  -0.178 -1.8677  0.1013 -0.8344
  660MOL0     H89097   8.820   3.747  -0.066  0.6089 -0.7596  0.0640
  660MOL0     H89098   8.686   3.643  -0.460  2.0968  0.1655 -1.1229
  660MOL0     H89099   9.462   3.435  -0.203 -0.8583 -1.6783 -0.1129
  660MOL0     H89100   9.672   3.378  -0.137 -1.3583 -1.8175 -0.3610
  661MOL0     O89101   2.820   4.733   6.451 -0.0324  0.1259  0.3106
  661MOL0     C89102   2.873   4.715   6.563  0.2655 -0.1772 -0.1218
  661MOL0     O89103   2.814   4.647   6.663  0.9180 -0.2351 -0.6693
  661MOL0     C89104   2.679   4.624   6.660  0.2257  0.0401 -1.0808
  661MOL0     C89105   2.579   4.720   6.654  1.4345 -0.2145  0.7449
  661MOL0     C89106   2.437   4.682   6.641  0.8476  0.6348  0.0947
  661MOL0     C89107   2.400   4.540   6.648  0.0151 -0.2797 -0.1736
  661MOL0     O89108   2.272   4.509   6.616  0.2534 -0.5051 -0.4655
  661MOL0     C89109   2.243   4.366   6.594 -0.4638 -0.6818  0.5104
  661MOL0     C89110   2.086   4.343   6.600  0.2361 -0.2859 -0.6842
  661MOL0     C89111   2.026   4.434   6.500  1.0288 -0.4157 -0.1152
  661MOL0     C89112   1.910   4.369   6.431  0.0958 -0.5824 -0.2881
  661MOL0     C89113   1.899   4.433   6.293 -0.5531 -0.3485  0.5482
  661MOL0     C89114   1.756   4.410   6.231 -0.3343 -0.3143 -0.6645
  661MOL0     C89115   1.744   4.491   6.108 -0.5215  0.5149  0.1778
  661MOL0     C89116   1.602   4.531   6.082 -0.2949 -0.4068  0.0756
  661MOL0     N89117   1.540   4.399   6.049 -0.0823 -1.1819 -0.0774
  661MOL0     C89118   1.469   4.313   6.126 -0.4098 -0.3904  0.6079
  661MOL0     C89119   1.419   4.218   6.045  0.9781 -1.1135 -0.2117
  661MOL0     C89120   1.348   4.104   6.113  0.3947  0.3561 -0.3486
  661MOL0     C89121   1.190   4.123   6.112  0.0636  0.2586  0.3244
  661MOL0     C89122   1.111   3.998   6.163  0.4043  0.0140 -0.2301
  661MOL0     C89123   0.967   4.021   6.201  0.9249 -0.2125  0.2252
  661MOL0     O89124   0.900   4.095   6.099  0.1350  0.4129 -0.6515
  661MOL0     C89125   0.764   4.094   6.094 -0.3832 -0.5689  0.0502
  661MOL0     C89126   0.704   4.134   5.977  0.9765  0.4456 -0.1147
  661MOL0     C89127   0.560   4.132   5.955 -0.5534  0.5398  0.3530
  661MOL0     C89128   0.510   4.189   5.824 -0.9063 -0.0217 -0.0284
  661MOL0     C89129   0.478   4.067   6.057 -0.3918 -1.0434 -0.3268
  661MOL0     C89130   0.331   4.059   6.053  0.0544  0.5141  0.4443
  661MOL0     O89131   0.272   4.021   6.171 -0.3751 -0.1231  0.1641
  661MOL0     C89132   0.133   4.026   6.179 -0.2203 -0.0739  0.2835
  661MOL0     C89133   0.058   3.912   6.149  0.4419  0.0536  0.5174
  661MOL0     C89134  -0.081   3.915   6.159  0.6965  0.0732  0.0900
  661MOL0     C89135  -0.145   4.026   6.215 -0.1303 -0.2866 -0.5905
  661MOL0     O89136  -0.290   4.029   6.231 -0.0878 -0.0176 -0.1685
  661MOL0     C89137  -0.361   4.139   6.282  0.3998  0.6574  0.8015
  661MOL0     C89138  -0.509   4.094   6.303  1.0298  0.1574 -0.4402
  661MOL0     C89139  -0.586   4.062   6.175  0.9524  0.7791  1.0821
  661MOL0     C89140  -0.732   4.034   6.222  0.3379 -0.3207  0.4260
  661MOL0     C89141  -0.828   3.980   6.117  1.0098  0.6195  0.3331
  661MOL0     C89142  -0.875   4.066   6.005 -1.1411 -0.2107  0.4573
  661MOL0     C89143  -0.993   4.002   5.934  0.0924  0.7554 -0.4462
  661MOL0     C89144  -1.119   4.089   5.940 -1.2425 -0.0413 -0.1638
  661MOL0    Cl89145  -1.073   4.230   5.838  0.4995  0.0125 -0.5959
  661MOL0     C89146  -0.070   4.140   6.243  0.7925  0.9897  0.2415
  661MOL0     C89147   0.071   4.143   6.231 -0.0682 -0.0516  0.3755
  661MOL0     O89148   0.272   4.073   5.951  0.2172  1.1465  0.5285
  661MOL0     C89149   0.545   4.034   6.178  0.1090 -1.0159 -0.0748
  661MOL0     C89150   0.685   4.052   6.196  0.3762  0.2552 -0.2005
  661MOL0     N89151   1.465   4.242   5.917 -0.2958 -0.0896  0.5846
  661MOL0     N89152   1.546   4.345   5.919 -0.8760  0.5943  0.0161
  661MOL0     C89153   2.503   4.451   6.667  1.0876  0.1514  0.1461
  661MOL0     C89154   2.635   4.493   6.669 -1.2683  0.4096 -0.3431
  661MOL0     C89155   3.017   4.758   6.584  0.2610 -0.3864 -0.0876
  661MOL0     C89156   3.080   4.853   6.492 -0.1382 -0.5384  0.0790
  661MOL0     C89157   3.212   4.890   6.498  0.1720 -1.0056  1.1877
  661MOL0     C89158   3.295   4.839   6.598 -0.1144  0.5847  0.0419
  661MOL0     O89159   3.422   4.881   6.601 -0.5178  0.3171  0.0420
  661MOL0     C89160   3.522   4.782   6.616 -0.1062  0.5219 -0.0648
  661MOL0     C89161   3.658   4.849   6.580  0.0632 -0.1171 -0.3878
  661MOL0     C89162   3.769   4.752   6.614  0.8593 -0.0514 -0.0594
  661MOL0     C89163   3.902   4.787   6.558 -0.5842 -0.2500 -0.1011
  661MOL0     C89164   3.946   4.916   6.602  0.5964  0.4836 -0.2309
  661MOL0     C89165   3.990   5.011   6.664 -0.4649 -0.2788  1.1959
  661MOL0     C89166   3.240   4.746   6.686  0.7399 -0.3510  0.5032
  661MOL0     C89167   3.106   4.710   6.683  1.3116 -0.0700  0.1744
  661MOL0     H89168   2.603   4.826   6.645  0.7244 -0.0256  1.0105
  661MOL0     H89169   2.358   4.754   6.620  1.2288  0.9568 -0.2400
  661MOL0     H89170   2.278   4.347   6.492 -2.7815  3.2181 -1.2134
  661MOL0     H89171   2.287   4.299   6.669 -0.7270 -4.3583 -2.3362
  661MOL0     H89172   2.052   4.240   6.586  0.1249 -0.1693 -1.3430
  661MOL0     H89173   2.062   4.371   6.703  2.3434 -1.4409  0.1888
  661MOL0     H89174   1.996   4.522   6.556 -3.6118 -0.1042 -2.6490
  661MOL0     H89175   2.099   4.457   6.422  2.9430  1.2118  2.0363
  661MOL0     H89176   1.916   4.260   6.418 -2.2044 -0.6305 -1.6133
  661MOL0     H89177   1.818   4.387   6.488 -0.8985 -1.7446 -1.4426
  661MOL0     H89178   1.915   4.541   6.300  2.0195 -0.3339 -2.9516
  661MOL0     H89179   1.981   4.404   6.227  2.9494  0.5244  4.1511
  661MOL0     H89180   1.732   4.308   6.200 -2.4004  0.9333 -3.6039
  661MOL0     H89181   1.675   4.447   6.294 -1.0949 -0.7237 -1.3781
  661MOL0     H89182   1.804   4.581   6.127 -3.5631  2.3888  1.6882
  661MOL0     H89183   1.781   4.440   6.018  1.4434  2.8214 -0.4320
  661MOL0     H89184   1.605   4.596   5.995  3.4105 -1.7179 -0.9338
  661MOL0     H89185   1.564   4.573   6.176 -0.2171 -4.0458  1.9467
  661MOL0     H89186   1.474   4.321   6.234  1.7202  0.5398  0.4802
  661MOL0     H89187   1.364   4.012   6.057 -0.3119  1.2722 -2.1378
  661MOL0     H89188   1.386   4.088   6.214 -0.4828  0.3471 -0.0136
  661MOL0     H89189   1.161   4.129   6.006  1.8661 -1.5524 -0.3379
  661MOL0     H89190   1.160   4.210   6.172 -4.6919 -1.6108  1.0796
  661MOL0     H89191   1.163   3.948   6.245  0.0787 -4.2560 -2.3978
  661MOL0     H89192   1.108   3.928   6.080 -0.7720 -0.0267 -0.1718
  661MOL0     H89193   0.970   4.087   6.289 -1.1075  0.8030 -0.3958
  661MOL0     H89194   0.916   3.927   6.222 -1.0484  0.7389 -0.1316
  661MOL0     H89195   0.768   4.186   5.906 -0.5135  0.7387 -1.2856
  661MOL0     H89196   0.462   4.286   5.842  1.0721  0.8192  0.9574
  661MOL0     H89197   0.588   4.200   5.749 -0.8676  0.5045  0.0869
  661MOL0     H89198   0.437   4.120   5.781 -2.1109  0.8643  0.5377
  661MOL0     H89199   0.106   3.823   6.110  1.6352  0.9211 -0.0802
  661MOL0     H89200  -0.134   3.827   6.123 -1.7631  0.2699  2.8824
  661MOL0     H89201  -0.317   4.153   6.381  3.1342 -0.0071 -0.2325
  661MOL0     H89202  -0.346   4.222   6.212 -0.7439 -1.1189 -1.7179
  661MOL0     H89203  -0.527   4.006   6.366 -2.2430  0.2349 -1.1258
  661MOL0     H89204  -0.565   4.174   6.352  0.5609  0.2413 -1.1041
  661MOL0     H89205  -0.537   3.976   6.130  1.3722  1.2003  0.7298
  661MOL0     H89206  -0.580   4.143   6.102  0.9261 -1.0111 -1.0235
  661MOL0     H89207  -0.733   3.972   6.312  0.0133  0.2842  0.8403
  661MOL0     H89208  -0.767   4.128   6.265 -0.9314 -0.8093  0.5133
  661MOL0     H89209  -0.909   3.947   6.183  2.6751  0.2944  2.3126
  661MOL0     H89210  -0.791   3.885   6.079  0.0442 -0.0138  0.9097
  661MOL0     H89211  -0.903   4.166   6.040 -0.8432  0.5854 -1.4897
  661MOL0     H89212  -0.795   4.067   5.930  0.4609 -0.2039  2.0976
  661MOL0     H89213  -1.020   3.904   5.974  2.4936  0.3929  0.4669
  661MOL0     H89214  -0.972   3.976   5.830  0.7431 -0.6752  0.0288
  661MOL0     H89215  -1.140   4.113   6.045  0.6024  0.9095  0.0183
  661MOL0     H89216  -1.199   4.032   5.890  0.4528  0.7500 -4.1741
  661MOL0     H89217  -0.108   4.231   6.288  1.2665 -1.0509  5.4897
  661MOL0     H89218   0.134   4.215   6.282  1.5677 -2.4708  2.0303
  661MOL0     H89219   0.494   3.986   6.261 -2.0663 -1.1859 -1.4223
  661MOL0     H89220   0.728   4.022   6.290  2.0005  0.9053 -0.6936
  661MOL0     H89221   2.489   4.344   6.680 -1.1383  0.4617  0.6451
  661MOL0     H89222   2.706   4.412   6.681 -0.7375  0.8146 -0.6897
  661MOL0     H89223   3.024   4.902   6.412  0.2785 -0.0790  0.0619
  661MOL0     H89224   3.245   4.964   6.425 -2.0582 -0.3035  0.7803
  661MOL0     H89225   3.529   4.754   6.721  1.7596  1.2601  0.0422
  661MOL0     H89226   3.508   4.688   6.562 -1.8069  0.0358  1.1590
  661MOL0     H89227   3.670   4.944   6.632 -0.5154  0.5791 -1.4921
  661MOL0     H89228   3.660   4.868   6.473 -2.0795 -0.8212 -0.5990
  661MOL0     H89229   3.741   4.657   6.568 -0.5664  0.2831  0.0665
  661MOL0     H89230   3.770   4.742   6.723 -1.5731 -0.8520 -0.0334
  661MOL0     H89231   3.907   4.796   6.449  0.7177  1.0422  0.0429
  661MOL0     H89232   3.976   4.707   6.574 -0.4675 -0.2022 -0.3817
  661MOL0     H89233   4.030   5.098   6.713 -1.7602  0.9400  0.1945
  661MOL0     H89234   3.301   4.697   6.761  0.7101  3.8077  3.6180
  661MOL0     H89235   3.060   4.638   6.749 -0.7058 -0.8033 -1.8875
  662MOL0     O89236  10.670   7.816   8.981 -0.1014  0.4561  0.1644
  662MOL0     C89237  10.694   7.728   8.899  0.5802 -0.2188  1.1419
  662MOL0     O89238  10.615   7.696   8.791  0.2224 -0.5891  0.1664
  662MOL0     C89239  10.484   7.742   8.759 -0.3363 -0.5450  0.7863
  662MOL0     C89240  10.408   7.853   8.808 -0.2468  0.7378 -0.6587
  662MOL0     C89241  10.276   7.873   8.768 -0.6067  0.9911  0.1706
  662MOL0     C89242  10.226   7.799   8.664 -0.5290 -0.1833 -0.3578
  662MOL0     O89243  10.097   7.836   8.629 -0.3543  0.6642 -0.1779
  662MOL0     C89244  10.034   7.768   8.521  0.3466  0.2248  0.0667
  662MOL0     C89245   9.915   7.853   8.477 -1.3960  0.2636  0.6357
  662MOL0     C89246   9.801   7.849   8.584 -0.3204  0.3472  0.2221
  662MOL0     C89247   9.825   7.919   8.721  0.0855  0.0153 -0.0331
  662MOL0     C89248   9.687   7.939   8.793 -0.3048  1.1325 -1.1566
  662MOL0     C89249   9.690   8.038   8.919 -0.2523 -0.7274  1.0832
  662MOL0     C89250   9.795   8.008   9.017  0.5654 -0.0205 -0.0296
  662MOL0     C89251   9.747   7.903   9.115 -0.0738  0.7722  0.6512
  662MOL0     N89252   9.847   7.862   9.213  0.2867  0.5685  0.2261
  662MOL0     C89253   9.972   7.809   9.187  0.5385 -0.0685 -0.2166
  662MOL0     C89254  10.026   7.784   9.308 -0.4261 -0.1061 -0.5463
  662MOL0     C89255  10.182   7.756   9.330 -0.1736 -0.0459 -0.5269
  662MOL0     C89256  10.268   7.879   9.328 -0.0874 -0.2083 -1.3142
  662MOL0     C89257  10.261   7.960   9.205 -0.3787 -0.4110  1.1092
  662MOL0     C89258  10.348   8.087   9.219 -0.3524  0.4009  0.4687
  662MOL0     O89259  10.340   8.170   9.101  0.0683 -0.2033 -0.0884
  662MOL0     C89260  10.217   8.223   9.072  0.1828  0.1475  0.4414
  662MOL0     C89261  10.190   8.234   8.936 -0.1144  0.4067 -0.0916
  662MOL0     C89262  10.063   8.286   8.896 -0.2764 -0.1071  0.4027
  662MOL0     C89263  10.027   8.265   8.747  0.3034  0.1380  0.9726
  662MOL0     C89264   9.971   8.333   8.995  0.8644 -0.3514  0.2471
  662MOL0     C89265   9.839   8.385   8.965 -0.1818 -0.2386  0.2157
  662MOL0     O89266   9.763   8.419   9.078  0.1902 -0.4665 -0.3846
  662MOL0     C89267   9.640   8.472   9.065  0.3919 -0.5031  0.8462
  662MOL0     C89268   9.538   8.399   9.011 -0.0709 -0.0432  0.4602
  662MOL0     C89269   9.408   8.445   8.990 -0.1269 -0.2132  0.6296
  662MOL0     C89270   9.372   8.574   9.045 -0.1758  0.2742  0.6597
  662MOL0     O89271   9.248   8.633   9.037  0.2830 -0.5069  0.0862
  662MOL0     C89272   9.183   8.625   8.907 -0.2100 -0.4772  1.0762
  662MOL0     C89273   9.065   8.728   8.910 -0.3235  0.4993  0.5020
  662MOL0     C89274   8.965   8.689   9.022 -0.1991 -0.0338 -0.0317
  662MOL0     C89275   8.822   8.727   9.009  0.4174  0.0846  0.6482
  662MOL0     C89276   8.757   8.724   9.145 -0.0718  0.7731  0.4011
  662MOL0     C89277   8.774   8.865   9.207 -0.3343  0.1172  0.7683
  662MOL0     C89278   8.712   8.864   9.346  0.4453  0.3744 -0.2782
  662MOL0     C89279   8.732   8.999   9.419  0.5130 -0.8730  0.5604
  662MOL0    Cl89280   8.635   9.125   9.339  0.3011  0.3343 -0.2701
  662MOL0     C89281   9.476   8.652   9.097 -0.0902  0.4469  0.0103
  662MOL0     C89282   9.603   8.594   9.115  1.1668  0.1992 -0.2650
  662MOL0     O89283   9.796   8.404   8.852  0.6096  0.2127 -0.1003
  662MOL0     C89284  10.011   8.331   9.130  0.8007  0.4648  0.4450
  662MOL0     C89285  10.127   8.276   9.170 -0.0994  0.5869 -0.3770
  662MOL0     N89286   9.948   7.842   9.403 -0.3512 -0.3347 -0.4047
  662MOL0     N89287   9.839   7.874   9.348  0.4663  0.4454  1.0560
  662MOL0     C89288  10.293   7.700   8.597  0.3228 -0.2433  0.0119
  662MOL0     C89289  10.421   7.674   8.647 -0.1923  0.4156  0.0085
  662MOL0     C89290  10.827   7.660   8.914 -0.5902 -0.3581 -0.1568
  662MOL0     C89291  10.842   7.528   8.883 -0.0826 -0.9599 -0.5045
  662MOL0     C89292  10.960   7.464   8.892  0.7351  0.3450 -0.2656
  662MOL0     C89293  11.078   7.522   8.938  0.5087  0.2856 -0.3606
  662MOL0     O89294  11.192   7.450   8.945 -0.9236  0.3617  0.7643
  662MOL0     C89295  11.181   7.316   8.980  0.8816  0.1007  0.2740
  662MOL0     C89296  11.286   7.273   9.080  0.0266 -0.1419 -0.3688
  662MOL0     C89297  11.252   7.291   9.222 -0.6154  0.2772  0.0713
  662MOL0     C89298  11.381   7.296   9.301 -0.3350 -0.7272 -0.5646
  662MOL0     C89299  11.355   7.287   9.450  0.1807 -0.4375 -0.3596
  662MOL0     C89300  11.328   7.290   9.572  0.4529  0.2693  0.5278
  662MOL0     C89301  11.068   7.657   8.963  0.3399 -0.0958 -0.4629
  662MOL0     C89302  10.947   7.728   8.958 -0.4446 -0.4857 -0.2635
  662MOL0     H89303  10.442   7.922   8.884  0.9783 -0.4708 -0.0617
  662MOL0     H89304  10.210   7.951   8.806 -2.8840 -1.5288  1.7251
  662MOL0     H89305  10.097   7.751   8.433  1.0086  0.1142  0.5605
  662MOL0     H89306   9.995   7.675   8.561 -0.7177  1.8084  2.9678
  662MOL0     H89307   9.950   7.955   8.461  0.5197 -0.1699  1.7152
  662MOL0     H89308   9.884   7.819   8.378  1.7901  2.3569 -1.2340
  662MOL0     H89309   9.708   7.896   8.550 -0.8710 -1.0878 -0.3162
  662MOL0     H89310   9.770   7.746   8.607  0.5300  0.0592  0.1081
  662MOL0     H89311   9.899   7.860   8.776 -0.6153 -1.1224 -0.2868
  662MOL0     H89312   9.872   8.015   8.698 -0.8506  0.0065 -2.2676
  662MOL0     H89313   9.605   7.974   8.730 -1.0929  1.6780  0.1471
  662MOL0     H89314   9.655   7.839   8.824 -2.3174  1.8102 -0.9111
  662MOL0     H89315   9.728   8.130   8.874  0.4123 -0.7665  1.5607
  662MOL0     H89316   9.589   8.052   8.959 -0.4907  1.2475 -0.0842
  662MOL0     H89317   9.893   7.984   8.974  1.0610 -0.3088  1.2184
  662MOL0     H89318   9.809   8.097   9.079  2.3053  0.5367 -1.1555
  662MOL0     H89319   9.716   7.817   9.054  0.5297  0.4337  0.8157
  662MOL0     H89320   9.656   7.929   9.169 -1.8053 -0.5461 -1.4816
  662MOL0     H89321  10.013   7.784   9.090 -0.4816 -0.5847 -0.5288
  662MOL0     H89322  10.203   7.709   9.427 -0.0777  0.7533 -0.1507
  662MOL0     H89323  10.223   7.689   9.255 -2.8334 -0.8041 -1.4214
  662MOL0     H89324  10.369   7.841   9.341 -1.0986 -1.9371  3.6019
  662MOL0     H89325  10.244   7.940   9.415 -0.6992 -2.4876  0.2071
  662MOL0     H89326  10.159   7.999   9.199  0.4767  2.0956  1.5879
  662MOL0     H89327  10.279   7.897   9.118  0.2650  0.2812  0.7298
  662MOL0     H89328  10.451   8.057   9.240 -0.6797 -0.4008  0.9752
  662MOL0     H89329  10.322   8.140   9.311  0.5458  0.9292  0.4280
  662MOL0     H89330  10.257   8.189   8.863 -0.0774 -1.9970  1.3282
  662MOL0     H89331  10.095   8.193   8.702  0.7776  0.4628  1.1607
  662MOL0     H89332   9.925   8.227   8.740  0.4455  0.0499 -2.0566
  662MOL0     H89333  10.021   8.361   8.695 -0.7692 -1.1031 -1.3990
  662MOL0     H89334   9.560   8.297   8.981 -3.3791  0.0312 -2.9729
  662MOL0     H89335   9.340   8.379   8.937  0.5133 -0.0187 -0.4829
  662MOL0     H89336   9.256   8.648   8.829 -1.1424  3.2727  1.1260
  662MOL0     H89337   9.137   8.529   8.882 -0.8037  0.7687 -3.6881
  662MOL0     H89338   9.102   8.828   8.932  0.5347  0.2492  0.2170
  662MOL0     H89339   9.013   8.727   8.813 -0.1285  3.0076  0.3114
  662MOL0     H89340   9.005   8.736   9.112  0.4208  0.5122 -0.5781
  662MOL0     H89341   8.974   8.583   9.046  1.1975  0.5738  2.4262
  662MOL0     H89342   8.822   8.829   8.971  2.9734 -0.3162 -0.6598
  662MOL0     H89343   8.771   8.657   8.942  0.6730 -0.6720  1.2165
  662MOL0     H89344   8.807   8.660   9.218  1.0872  2.3423  1.0358
  662MOL0     H89345   8.655   8.685   9.137  1.2945 -4.0259  2.8989
  662MOL0     H89346   8.879   8.892   9.219  0.3376 -1.8239 -0.2913
  662MOL0     H89347   8.725   8.939   9.143 -0.1996 -0.1297  0.3763
  662MOL0     H89348   8.749   8.799   9.426  0.6423  0.8413  0.0117
  662MOL0     H89349   8.604   8.850   9.335  0.4226 -0.0602  0.3851
  662MOL0     H89350   8.839   9.021   9.412  0.5786 -1.7948 -2.9709
  662MOL0     H89351   8.701   9.004   9.524  1.1339  0.9014  0.6934
  662MOL0     H89352   9.453   8.757   9.110 -0.0005  0.2778  1.8061
  662MOL0     H89353   9.681   8.649   9.165  0.1780  0.8242  0.6357
  662MOL0     H89354   9.950   8.365   9.212  0.8101 -1.7607  1.4619
  662MOL0     H89355  10.160   8.274   9.273  1.3392  0.8256 -0.8060
  662MOL0     H89356  10.266   7.638   8.512  0.1638 -0.8883  0.5288
  662MOL0     H89357  10.492   7.615   8.591 -1.4356 -0.1933 -0.9560
  662MOL0     H89358  10.768   7.464   8.837 -1.2725 -0.1335  0.2240
  662MOL0     H89359  10.963   7.367   8.843 -0.4802  0.6965 -1.1013
  662MOL0     H89360  11.085   7.284   9.021  1.0638 -1.2705 -0.3072
  662MOL0     H89361  11.197   7.252   8.893 -1.3516 -3.0289  1.9710
  662MOL0     H89362  11.377   7.333   9.068  0.3612 -1.0647 -3.1582
  662MOL0     H89363  11.315   7.171   9.054 -1.3452 -0.5097 -0.5447
  662MOL0     H89364  11.207   7.195   9.246  0.6930 -0.2116  0.6864
  662MOL0     H89365  11.199   7.385   9.240 -1.1437  0.3039 -1.4574
  662MOL0     H89366  11.438   7.384   9.270 -0.5648 -0.8850 -1.4785
  662MOL0     H89367  11.441   7.210   9.272 -0.7665 -1.2109 -0.0560
  662MOL0     H89368  11.318   7.296   9.678  0.3694  2.3278  0.4448
  662MOL0     H89369  11.164   7.701   8.986  1.2864 -1.3491 -1.8788
  662MOL0     H89370  10.935   7.828   8.997 -2.6886 -0.9347  0.3657
  663MOL0     O89371   3.558   0.538   0.380 -0.4184 -0.4263 -0.4144
  663MOL0     C89372   3.545   0.424   0.422 -0.4536 -0.8183 -0.5109
  663MOL0     O89373   3.438   0.384   0.490 -0.3153  0.0845  0.4817
  663MOL0     C89374   3.325   0.462   0.491 -0.1080  0.3071  0.0239
  663MOL0     C89375   3.313   0.584   0.577 -0.5012 -0.3451 -0.1967
  663MOL0     C89376   3.197   0.646   0.592 -0.0437  1.1422 -0.1880
  663MOL0     C89377   3.081   0.597   0.534 -0.1177 -0.4163  0.2818
  663MOL0     O89378   2.964   0.666   0.537 -0.5116  0.0245  0.2302
  663MOL0     C89379   2.942   0.769   0.628 -0.0165 -0.5053 -0.7630
  663MOL0     C89380   2.803   0.829   0.614 -0.1259  0.7614  0.5480
  663MOL0     C89381   2.686   0.722   0.633 -0.0648 -0.8434  0.4942
  663MOL0     C89382   2.562   0.798   0.592  0.3606  0.1667  0.1889
  663MOL0     C89383   2.444   0.717   0.623  0.3631  0.2258 -0.4990
  663MOL0     C89384   2.319   0.780   0.558  1.0945  0.3327  0.5522
  663MOL0     C89385   2.201   0.677   0.561  0.0304 -0.0366 -0.2019
  663MOL0     C89386   2.098   0.741   0.463  0.4285  0.5188 -0.0554
  663MOL0     N89387   1.980   0.649   0.485  0.8330  0.6199  0.1464
  663MOL0     C89388   1.965   0.524   0.430 -0.2534 -0.2112  0.4604
  663MOL0     C89389   1.842   0.488   0.453  0.6408  0.0092 -0.2309
  663MOL0     C89390   1.786   0.351   0.420 -0.3537  0.4632  0.4469
  663MOL0     C89391   1.628   0.343   0.439 -0.3467 -0.1831  0.4589
  663MOL0     C89392   1.589   0.204   0.403  0.0253 -0.4753 -0.2923
  663MOL0     C89393   1.436   0.203   0.367  0.3209  0.1574  0.8462
  663MOL0     O89394   1.393   0.065   0.369 -0.1081  0.6122  0.1213
  663MOL0     C89395   1.274   0.034   0.298 -0.3916  0.5896 -0.4259
  663MOL0     C89396   1.178   0.127   0.266 -0.0423  0.4632 -0.3729
  663MOL0     C89397   1.048   0.086   0.226 -0.8000  0.1052  0.8551
  663MOL0     C89398   0.937   0.188   0.203 -0.5537 -0.5487 -0.5178
  663MOL0     C89399   1.013  -0.048   0.192  0.2906 -0.2889 -0.3604
  663MOL0     C89400   0.873  -0.094   0.155 -1.0349 -0.0485 -0.1666
  663MOL0     O89401   0.862  -0.230   0.172 -0.0287 -0.4669  0.7314
  663MOL0     C89402   0.738  -0.291   0.185  0.6245  0.8245 -0.3783
  663MOL0     C89403   0.728  -0.428   0.183  0.2912 -0.4225 -0.5438
  663MOL0     C89404   0.606  -0.503   0.204  0.3787 -0.5956  0.1192
  663MOL0     C89405   0.484  -0.433   0.221  0.3147  0.0170  0.0153
  663MOL0     O89406   0.366  -0.509   0.250 -0.9080  0.5103 -0.5197
  663MOL0     C89407   0.322  -0.508   0.390  0.3798 -0.2452  0.9095
  663MOL0     C89408   0.185  -0.576   0.420 -1.5543  0.6702 -0.4877
  663MOL0     C89409   0.076  -0.513   0.339 -1.0110 -0.3001 -0.2956
  663MOL0     C89410  -0.064  -0.553   0.395 -0.3299 -0.2420 -0.1003
  663MOL0     C89411  -0.173  -0.501   0.303  0.2048  0.3520 -0.1018
  663MOL0     C89412  -0.293  -0.581   0.354  0.3522 -0.2001  0.3791
  663MOL0     C89413  -0.406  -0.550   0.255  0.0083 -0.4142 -0.1505
  663MOL0     C89414  -0.525  -0.629   0.270 -0.5793 -0.3748  0.1090
  663MOL0    Cl89415  -0.659  -0.570   0.158  0.0509  0.1479  0.5306
  663MOL0     C89416   0.491  -0.295   0.222 -0.4769 -0.0098  0.1174
  663MOL0     C89417   0.616  -0.227   0.208  0.3783  0.1895  0.5054
  663MOL0     O89418   0.797  -0.017   0.096  0.0257 -0.3915  1.2834
  663MOL0     C89419   1.114  -0.143   0.212 -0.7232  0.1421 -0.0703
  663MOL0     C89420   1.239  -0.105   0.279 -0.5614  0.0894  0.0841
  663MOL0     N89421   1.776   0.590   0.500  0.0573  0.3185 -0.8122
  663MOL0     N89422   1.854   0.681   0.540 -0.2784 -0.1446  0.1112
  663MOL0     C89423   3.084   0.485   0.452 -0.7176 -0.3715 -0.5822
  663MOL0     C89424   3.205   0.418   0.439 -0.0175  0.0808  0.0885
  663MOL0     C89425   3.649   0.328   0.372  0.2824  0.7176  0.1138
  663MOL0     C89426   3.755   0.366   0.295  0.4799 -0.3141 -0.6776
  663MOL0     C89427   3.850   0.287   0.250 -0.3954 -0.0513 -0.4587
  663MOL0     C89428   3.844   0.153   0.270  0.4183 -0.2675 -0.3988
  663MOL0     O89429   3.936   0.062   0.223  0.2904  0.0230  0.1074
  663MOL0     C89430   4.022   0.103   0.121 -0.7026  0.0429  0.0443
  663MOL0     C89431   4.095  -0.026   0.074 -0.0877 -0.0186 -0.3693
  663MOL0     C89432   4.217  -0.078   0.151 -0.3561  0.5634 -0.5348
  663MOL0     C89433   4.174  -0.135   0.287  0.3712  0.3349 -0.6016
  663MOL0     C89434   4.124  -0.276   0.287 -0.1249  0.3231 -0.6799
  663MOL0     C89435   4.094  -0.389   0.271 -0.4601 -0.1953 -0.2052
  663MOL0     C89436   3.736   0.105   0.337  0.9280  0.7810 -0.6394
  663MOL0     C89437   3.637   0.189   0.391 -0.1219  1.1345 -1.1196
  663MOL0     H89438   3.394   0.614   0.643 -1.5458  0.8525  0.5675
  663MOL0     H89439   3.196   0.733   0.658 -0.3749  1.0159 -0.0213
  663MOL0     H89440   2.939   0.729   0.729 -4.3674 -0.1937 -0.5768
  663MOL0     H89441   3.022   0.844   0.615 -0.0318 -0.4913 -0.7803
  663MOL0     H89442   2.798   0.896   0.700  2.2214  1.4665  0.2088
  663MOL0     H89443   2.792   0.896   0.529 -1.7253 -0.6845 -0.4680
  663MOL0     H89444   2.699   0.637   0.566 -1.3379 -1.0538  0.5004
  663MOL0     H89445   2.682   0.697   0.739 -0.3550  0.6619  0.8679
  663MOL0     H89446   2.545   0.892   0.644 -1.9615 -0.2289  0.2467
  663MOL0     H89447   2.580   0.830   0.489  2.8324 -0.5382  0.3353
  663MOL0     H89448   2.449   0.623   0.566 -0.6323  0.9524 -1.8175
  663MOL0     H89449   2.437   0.696   0.731  0.7910 -0.1662 -0.5426
  663MOL0     H89450   2.298   0.871   0.615 -2.6989 -1.2134  1.9556
  663MOL0     H89451   2.341   0.808   0.454  3.2126  2.5024  1.5028
  663MOL0     H89452   2.242   0.580   0.527 -0.9104 -0.5204  0.0187
  663MOL0     H89453   2.165   0.657   0.662 -0.7207  0.0741 -0.4430
  663MOL0     H89454   2.129   0.739   0.358  4.1475 -1.6751  0.9000
  663MOL0     H89455   2.072   0.840   0.501 -0.0072  1.3125 -2.2781
  663MOL0     H89456   2.045   0.464   0.389 -0.6627  1.0261 -2.3783
  663MOL0     H89457   1.830   0.325   0.324  3.5214  4.1327  0.9426
  663MOL0     H89458   1.818   0.270   0.486  0.9433 -0.3055 -1.0878
  663MOL0     H89459   1.576   0.414   0.374  2.0711  2.7083  1.4285
  663MOL0     H89460   1.595   0.371   0.539 -1.6025  1.5065 -0.3783
  663MOL0     H89461   1.602   0.151   0.498 -0.6342  1.2316  0.8015
  663MOL0     H89462   1.649   0.160   0.323  1.3326  1.9318 -0.7142
  663MOL0     H89463   1.440   0.247   0.268  1.8574 -3.2658 -0.8007
  663MOL0     H89464   1.378   0.263   0.438 -1.8913 -0.2231 -0.5539
  663MOL0     H89465   1.200   0.234   0.272 -0.4743  0.4698  2.6693
  663MOL0     H89466   0.851   0.179   0.271  2.0597 -0.4251  3.0805
  663MOL0     H89467   0.987   0.280   0.232 -2.3144  0.2433  0.1671
  663MOL0     H89468   0.907   0.194   0.098 -2.1433 -3.9379 -0.4042
  663MOL0     H89469   0.820  -0.485   0.174  0.3161 -0.4040 -0.4128
  663MOL0     H89470   0.615  -0.610   0.191  0.3675 -0.5915  0.0755
  663MOL0     H89471   0.399  -0.548   0.457  1.5382  0.8180  0.2581
  663MOL0     H89472   0.301  -0.406   0.424 -2.3508 -0.8144  1.1779
  663MOL0     H89473   0.195  -0.678   0.381 -2.2305  0.3566  0.1321
  663MOL0     H89474   0.160  -0.575   0.526 -0.9387  1.7322 -0.3462
  663MOL0     H89475   0.087  -0.562   0.242 -2.2823 -0.8620 -0.1714
  663MOL0     H89476   0.087  -0.405   0.325  0.6514 -0.6679 -2.3353
  663MOL0     H89477  -0.062  -0.662   0.409  1.6308 -0.8021 -3.6496
  663MOL0     H89478  -0.079  -0.507   0.493 -1.3410  0.8315 -0.7338
  663MOL0     H89479  -0.152  -0.525   0.198  0.9761  1.2932 -0.1729
  663MOL0     H89480  -0.200  -0.395   0.307 -5.8928 -0.6400 -2.6673
  663MOL0     H89481  -0.273  -0.688   0.353  1.5348 -0.0214  1.6672
  663MOL0     H89482  -0.325  -0.547   0.453  1.2673 -0.7564  0.8876
  663MOL0     H89483  -0.376  -0.573   0.153  0.4602 -0.3355 -0.0380
  663MOL0     H89484  -0.417  -0.441   0.253 -0.4159 -0.4267  0.6765
  663MOL0     H89485  -0.569  -0.628   0.371 -2.3015 -0.0734 -0.5972
  663MOL0     H89486  -0.497  -0.734   0.256 -1.0211 -1.0214  3.1890
  663MOL0     H89487   0.397  -0.244   0.239 -0.5248  0.3140 -1.0150
  663MOL0     H89488   0.614  -0.118   0.214  1.6663  0.1932  1.2306
  663MOL0     H89489   1.100  -0.249   0.194 -1.3231  0.2365 -0.1827
  663MOL0     H89490   1.315  -0.179   0.302 -1.0145 -0.3546  0.1699
  663MOL0     H89491   2.999   0.456   0.392  0.4800 -1.6152 -1.7448
  663MOL0     H89492   3.203   0.336   0.368 -0.5333 -1.8253  2.1813
  663MOL0     H89493   3.775   0.472   0.277 -1.7435  0.1188 -0.9271
  663MOL0     H89494   3.933   0.340   0.203 -1.0927  0.2829 -1.3442
  663MOL0     H89495   3.970   0.157   0.040 -1.9714  2.0468  2.0805
  663MOL0     H89496   4.098   0.168   0.166  0.1797 -2.4713  2.4402
  663MOL0     H89497   4.136   0.011  -0.021 -1.4659  0.5179 -0.7842
  663MOL0     H89498   4.016  -0.100   0.060  0.2799 -0.2927 -1.0707
  663MOL0     H89499   4.303  -0.013   0.169  1.6638 -2.3659  1.0968
  663MOL0     H89500   4.253  -0.165   0.097 -3.4257 -0.1961 -1.5959
  663MOL0     H89501   4.088  -0.083   0.330 -0.5093 -0.4020 -1.4164
  663MOL0     H89502   4.259  -0.144   0.355  2.3490  2.4510 -2.5851
  663MOL0     H89503   4.058  -0.490   0.259 -0.6270 -0.1118 -0.4158
  663MOL0     H89504   3.729  -0.003   0.352 -0.6709  0.9270 -0.0862
  663MOL0     H89505   3.565   0.146   0.459  1.9622  1.7482  1.6533
  664MOL0     O89506   6.538  10.693   1.356 -0.2594 -0.6842 -0.1905
  664MOL0     C89507   6.605  10.792   1.335 -0.3756 -0.5513  0.4140
  664MOL0     O89508   6.566  10.913   1.278 -0.5045  0.2979 -0.1245
  664MOL0     C89509   6.434  10.940   1.235  0.3406  0.0823  0.0914
  664MOL0     C89510   6.326  10.855   1.232 -0.3265 -0.6967  0.3716
  664MOL0     C89511   6.200  10.920   1.203  0.2989  0.7205  0.5978
  664MOL0     C89512   6.186  11.057   1.171 -0.1950  0.2061  0.8937
  664MOL0     O89513   6.062  11.101   1.133  0.0575 -0.3928  0.2281
  664MOL0     C89514   6.038  11.240   1.105  0.3888  0.2420 -0.0229
  664MOL0     C89515   5.918  11.249   1.020 -0.4125 -1.1608  0.5731
  664MOL0     C89516   5.871  11.392   0.984 -0.1374 -0.3667  0.7667
  664MOL0     C89517   5.735  11.387   0.913  0.1142 -0.1338 -0.5182
  664MOL0     C89518   5.688  11.523   0.854 -0.6744  0.4182  0.8459
  664MOL0     C89519   5.545  11.512   0.793  0.3840  0.2040  0.6534
  664MOL0     C89520   5.533  11.423   0.664  0.5931  0.2955  0.2690
  664MOL0     C89521   5.411  11.457   0.575 -0.2767 -0.1702  0.4477
  664MOL0     N89522   5.435  11.576   0.489  0.7831  0.2230 -0.5613
  664MOL0     C89523   5.436  11.708   0.517  0.6752 -1.1009 -0.5739
  664MOL0     C89524   5.423  11.776   0.401 -0.0381 -0.2009 -0.2469
  664MOL0     C89525   5.439  11.926   0.381 -0.6667  0.8181  0.1792
  664MOL0     C89526   5.588  11.961   0.399  0.0220 -0.3558 -0.5592
  664MOL0     C89527   5.616  12.112   0.376  0.2937  0.5341  0.2951
  664MOL0     C89528   5.530  12.211   0.471 -0.7731  0.6988 -0.4317
  664MOL0     O89529   5.567  12.184   0.607 -0.2286 -0.5726  0.6060
  664MOL0     C89530   5.507  12.263   0.701 -1.0539 -0.4533 -0.4418
  664MOL0     C89531   5.552  12.230   0.827 -0.4954 -0.9136  0.0762
  664MOL0     C89532   5.526  12.297   0.950  0.3201 -0.6470  0.3038
  664MOL0     C89533   5.606  12.268   1.074 -0.7777  0.3133  0.7848
  664MOL0     C89534   5.434  12.404   0.939 -0.5523 -1.0085 -0.4316
  664MOL0     C89535   5.380  12.476   1.058 -0.5073  0.2286  0.2451
  664MOL0     O89536   5.306  12.587   1.029 -0.0371  1.1988 -0.1358
  664MOL0     C89537   5.289  12.671   1.135  0.2386  0.3095 -0.3954
  664MOL0     C89538   5.176  12.666   1.216  0.0204  0.4007 -0.0819
  664MOL0     C89539   5.155  12.757   1.325  0.3548 -0.0473  1.0661
  664MOL0     C89540   5.246  12.858   1.345 -0.1738  0.2220 -0.1904
  664MOL0     O89541   5.209  12.947   1.443  0.1383 -0.1998  0.0116
  664MOL0     C89542   5.317  13.010   1.508 -0.1814  0.9559  0.6789
  664MOL0     C89543   5.284  13.068   1.646 -0.2034  0.4233  0.0086
  664MOL0     C89544   5.171  13.167   1.642  0.6065 -0.2461 -0.1359
  664MOL0     C89545   5.134  13.203   1.789  0.7909  0.0770  0.3873
  664MOL0     C89546   5.018  13.306   1.785  0.1879 -0.0015  0.4698
  664MOL0     C89547   4.881  13.241   1.787  0.1456  0.8712  0.1909
  664MOL0     C89548   4.769  13.336   1.763 -0.2715 -0.5255 -0.0584
  664MOL0     C89549   4.761  13.406   1.623 -0.2031 -0.6922 -0.5693
  664MOL0    Cl89550   4.733  13.273   1.518 -0.1386  0.2766 -0.0422
  664MOL0     C89551   5.365  12.858   1.267  0.6426 -0.3155 -0.3406
  664MOL0     C89552   5.377  12.771   1.160 -0.4469  0.7257 -0.3879
  664MOL0     O89553   5.404  12.442   1.176  0.4471 -0.3044  0.1312
  664MOL0     C89554   5.369  12.430   0.816  0.7787  0.3507  0.0508
  664MOL0     C89555   5.416  12.366   0.698 -0.2140 -0.2175 -0.4581
  664MOL0     N89556   5.411  11.688   0.298  0.3270 -0.0239  0.3077
  664MOL0     N89557   5.416  11.571   0.354  0.2111  0.3124 -0.1884
  664MOL0     C89558   6.301  11.138   1.175  1.1942 -0.7539  0.5175
  664MOL0     C89559   6.420  11.079   1.219 -0.6039 -0.7167 -0.0384
  664MOL0     C89560   6.747  10.783   1.361  0.4555  0.6791 -0.4514
  664MOL0     C89561   6.802  10.663   1.400 -0.4123  0.0763  0.1422
  664MOL0     C89562   6.943  10.645   1.393 -1.0348 -0.0343  0.4193
  664MOL0     C89563   7.029  10.746   1.350 -0.4837 -0.4234  0.4649
  664MOL0     O89564   7.170  10.727   1.349  0.0921 -1.1677 -0.0798
  664MOL0     C89565   7.227  10.600   1.349  0.6206  0.1457 -0.0666
  664MOL0     C89566   7.372  10.616   1.308  0.2071  0.6785 -0.9534
  664MOL0     C89567   7.465  10.674   1.418  0.1937 -0.2006 -0.2089
  664MOL0     C89568   7.606  10.718   1.353 -0.4841  0.3460  0.7150
  664MOL0     C89569   7.705  10.770   1.452 -0.2064 -0.3173  0.5392
  664MOL0     C89570   7.789  10.798   1.539 -1.8067 -0.0042  0.7817
  664MOL0     C89571   6.973  10.869   1.309  0.4019 -0.0479 -0.6412
  664MOL0     C89572   6.837  10.889   1.328 -0.0532 -0.2285  0.1022
  664MOL0     H89573   6.333  10.750   1.256 -2.1881 -1.4746 -2.0684
  664MOL0     H89574   6.121  10.846   1.214  2.7825 -2.0445  1.2132
  664MOL0     H89575   6.026  11.299   1.197 -3.1736 -0.4248  0.0864
  664MOL0     H89576   6.116  11.290   1.047 -2.3389  0.2971 -4.0841
  664MOL0     H89577   5.924  11.193   0.927 -1.3090  1.2581 -1.0435
  664MOL0     H89578   5.835  11.203   1.074 -1.4234 -0.9519 -0.7475
  664MOL0     H89579   5.853  11.458   1.069  3.1157  1.2033  0.4149
  664MOL0     H89580   5.956  11.432   0.927 -1.5976 -1.0410 -2.0312
  664MOL0     H89581   5.742  11.323   0.825 -0.9082  1.5813 -1.9325
  664MOL0     H89582   5.659  11.342   0.978  0.1433 -1.7256 -1.5424
  664MOL0     H89583   5.693  11.609   0.922  3.0346  0.8768  0.1594
  664MOL0     H89584   5.763  11.549   0.779 -0.2097  3.1038  2.1128
  664MOL0     H89585   5.471  11.478   0.865  0.1397 -0.3724  0.1387
  664MOL0     H89586   5.521  11.614   0.761  0.7878 -0.0793 -0.6044
  664MOL0     H89587   5.626  11.426   0.607  0.6586 -2.8771  0.0374
  664MOL0     H89588   5.532  11.318   0.693 -1.3879  0.3595  0.5825
  664MOL0     H89589   5.318  11.469   0.631 -0.4297 -3.5961  1.1010
  664MOL0     H89590   5.402  11.367   0.514  1.0571 -0.5635  0.7835
  664MOL0     H89591   5.438  11.756   0.615 -0.1083  0.3760 -1.2509
  664MOL0     H89592   5.397  11.964   0.287 -0.1175 -0.7890 -0.7564
  664MOL0     H89593   5.388  11.983   0.459  2.2734  1.9067  1.4400
  664MOL0     H89594   5.644  11.899   0.329 -2.0104 -0.4172 -2.2197
  664MOL0     H89595   5.611  11.939   0.504  0.7495  0.6144 -0.5083
  664MOL0     H89596   5.588  12.140   0.274  1.5488 -1.3657 -0.6272
  664MOL0     H89597   5.721  12.139   0.386  0.8986 -1.6693  0.4843
  664MOL0     H89598   5.423  12.186   0.473 -0.6004 -0.7558  4.6402
  664MOL0     H89599   5.557  12.316   0.461  2.0760  0.3047  1.9665
  664MOL0     H89600   5.622  12.147   0.828  0.5534 -0.1300  3.4048
  664MOL0     H89601   5.697  12.211   1.057 -0.0922  1.6122 -0.0851
  664MOL0     H89602   5.643  12.363   1.115  0.4339 -1.6427  4.7233
  664MOL0     H89603   5.549  12.225   1.157 -0.7644 -1.9794 -0.3214
  664MOL0     H89604   5.098  12.593   1.200  0.0374  0.1943  0.7562
  664MOL0     H89605   5.077  12.751   1.399 -1.1246  0.6684 -0.3664
  664MOL0     H89606   5.397  12.939   1.533 -1.3269 -0.2201  1.1687
  664MOL0     H89607   5.351  13.091   1.443 -0.4689 -1.0191 -2.0833
  664MOL0     H89608   5.242  12.989   1.709 -1.6892  0.7850 -0.4748
  664MOL0     H89609   5.376  13.105   1.692  0.1043 -2.4837  1.9921
  664MOL0     H89610   5.081  13.131   1.590  0.8407 -1.2191  0.1182
  664MOL0     H89611   5.208  13.253   1.584  0.2966 -1.5431 -2.3884
  664MOL0     H89612   5.102  13.114   1.843  1.3784  0.1627  0.8901
  664MOL0     H89613   5.223  13.254   1.829  0.2313 -0.0457  1.8269
  664MOL0     H89614   5.035  13.370   1.698  1.7329 -1.0183 -0.0269
  664MOL0     H89615   5.030  13.363   1.878 -2.6428  2.7624 -0.6803
  664MOL0     H89616   4.892  13.173   1.701 -1.2810 -3.0073  2.7959
  664MOL0     H89617   4.870  13.186   1.881  1.9512 -2.2401 -1.2695
  664MOL0     H89618   4.778  13.420   1.832  1.3059 -0.6531 -0.0771
  664MOL0     H89619   4.673  13.284   1.775  0.0189 -0.9917  0.2514
  664MOL0     H89620   4.863  13.436   1.599  0.2083 -1.9966 -0.5564
  664MOL0     H89621   4.689  13.488   1.623  2.5741  1.9930  1.7338
  664MOL0     H89622   5.453  12.921   1.278  3.1648 -3.2363 -2.1619
  664MOL0     H89623   5.465  12.768   1.096 -0.7268 -2.6128 -0.7898
  664MOL0     H89624   5.288  12.503   0.812  1.6786  1.4650  1.2669
  664MOL0     H89625   5.378  12.410   0.606 -2.7060 -1.6289 -0.1851
  664MOL0     H89626   6.299  11.242   1.144  0.2665 -1.1515 -0.8283
  664MOL0     H89627   6.506  11.142   1.234 -0.6330 -0.5717 -0.4621
  664MOL0     H89628   6.749  10.577   1.439 -0.7549  0.1303 -0.2012
  664MOL0     H89629   6.969  10.549   1.435 -1.7754 -1.0173 -1.2469
  664MOL0     H89630   7.217  10.554   1.448 -1.3826  0.5961 -0.0152
  664MOL0     H89631   7.182  10.533   1.275  1.5972  0.9926 -1.4757
  664MOL0     H89632   7.368  10.684   1.222 -1.5132  0.5484 -1.0062
  664MOL0     H89633   7.416  10.524   1.267  2.7859  0.4680  1.9412
  664MOL0     H89634   7.478  10.605   1.502 -0.7274  1.6116  1.5019
  664MOL0     H89635   7.429  10.759   1.475  2.6205 -0.7414  2.3242
  664MOL0     H89636   7.598  10.790   1.272 -0.2236  0.5327  0.8530
  664MOL0     H89637   7.663  10.631   1.318  1.0644  1.6364 -0.1162
  664MOL0     H89638   7.863  10.826   1.612 -0.6364 -0.4826 -0.1781
  664MOL0     H89639   7.035  10.950   1.272 -0.6488  1.2930  0.4079
  664MOL0     H89640   6.804  10.993   1.327  1.6088  0.3899  2.0045
  665MOL0     O89641   7.600   9.347   0.198  0.3121 -0.5345  0.7220
  665MOL0     C89642   7.646   9.232   0.174  0.1009  0.5840  0.4655
  665MOL0     O89643   7.577   9.119   0.178 -0.4561  0.4071 -0.4448
  665MOL0     C89644   7.439   9.132   0.206 -0.7290 -0.3323 -0.1301
  665MOL0     C89645   7.414   9.131   0.343  0.0205 -1.0247 -0.1866
  665MOL0     C89646   7.283   9.174   0.385 -1.5163  0.3326 -0.4269
  665MOL0     C89647   7.183   9.203   0.289 -0.5622  0.7079 -0.0299
  665MOL0     O89648   7.053   9.219   0.319  0.1668  0.4225 -0.2597
  665MOL0     C89649   6.987   9.152   0.430 -0.3137  0.5493  0.2796
  665MOL0     C89650   6.839   9.122   0.409 -0.1172  0.0023 -0.4570
  665MOL0     C89651   6.754   9.255   0.414  0.2063  0.0421 -0.5896
  665MOL0     C89652   6.599   9.217   0.405  0.0360 -0.1013  0.0352
  665MOL0     C89653   6.510   9.328   0.456 -0.1201 -0.2993  0.0088
  665MOL0     C89654   6.459   9.413   0.333  0.2026  0.5845 -0.7982
  665MOL0     C89655   6.548   9.507   0.261  0.6272 -0.0685 -0.2015
  665MOL0     C89656   6.588   9.631   0.355  0.2407 -0.4239  0.3459
  665MOL0     N89657   6.489   9.724   0.405  0.4334 -0.4829 -0.2324
  665MOL0     C89658   6.377   9.758   0.335 -0.5193  1.0422  0.5469
  665MOL0     C89659   6.336   9.881   0.388 -0.1160  0.0848  0.5145
  665MOL0     C89660   6.228   9.980   0.342 -0.8881 -0.5876  0.6001
  665MOL0     C89661   6.095   9.930   0.357  0.4008  0.2819 -0.2922
  665MOL0     C89662   5.989  10.032   0.362  0.6067 -0.1704 -0.4211
  665MOL0     C89663   5.851   9.971   0.396  0.1708 -0.8947  0.7670
  665MOL0     O89664   5.748  10.043   0.311 -0.1083  1.1393 -0.3466
  665MOL0     C89665   5.619   9.996   0.330  0.5592 -0.2057  0.2747
  665MOL0     C89666   5.518  10.060   0.256 -0.4993 -0.3515 -0.4423
  665MOL0     C89667   5.382  10.025   0.274 -0.0939  0.1258 -0.2035
  665MOL0     C89668   5.280  10.098   0.190  0.8655 -0.1278  0.7724
  665MOL0     C89669   5.345   9.909   0.356 -0.5538  0.7153  1.1307
  665MOL0     C89670   5.215   9.855   0.373  0.1612 -0.0949 -0.0033
  665MOL0     O89671   5.111   9.949   0.390 -0.2106 -0.5979 -0.0532
  665MOL0     C89672   4.984   9.903   0.432  0.0962 -0.5651 -0.2884
  665MOL0     C89673   4.924   9.968   0.548 -0.2175  0.4021 -0.3795
  665MOL0     C89674   4.812   9.912   0.619 -0.3598  0.7572 -0.0633
  665MOL0     C89675   4.748   9.799   0.565 -0.1164 -0.0503  1.1117
  665MOL0     O89676   4.629   9.747   0.612 -0.3053 -0.3949 -0.3833
  665MOL0     C89677   4.594   9.766   0.754  0.3558 -0.1738 -0.2135
  665MOL0     C89678   4.518   9.646   0.811 -0.0536  0.2612  0.2121
  665MOL0     C89679   4.387   9.625   0.727 -0.4410  0.8923  0.0369
  665MOL0     C89680   4.326   9.493   0.763  0.3626  0.3644 -0.5842
  665MOL0     C89681   4.208   9.453   0.677  0.1387 -0.3389  0.6361
  665MOL0     C89682   4.117   9.342   0.743  0.4406  0.2515 -0.0618
  665MOL0     C89683   4.195   9.224   0.791 -0.4609  0.9342 -0.1711
  665MOL0     C89684   4.106   9.093   0.804  0.2461 -0.3256  0.3763
  665MOL0    Cl89685   3.960   9.131   0.904  0.3912 -0.1432 -0.1019
  665MOL0     C89686   4.801   9.741   0.448  0.3114 -0.0552 -0.1057
  665MOL0     C89687   4.909   9.799   0.377 -0.2636 -0.0824  0.2094
  665MOL0     O89688   5.201   9.734   0.390 -0.0658 -0.2505 -0.2801
  665MOL0     C89689   5.449   9.842   0.427 -0.1819  0.6136  0.1810
  665MOL0     C89690   5.584   9.884   0.411  0.1148  0.2735 -0.1941
  665MOL0     N89691   6.429   9.913   0.490 -0.2360  0.1269 -0.3192
  665MOL0     N89692   6.515   9.822   0.496  0.0087  0.0377 -1.3116
  665MOL0     C89693   7.217   9.194   0.150  0.8120  0.3053 -0.9615
  665MOL0     C89694   7.345   9.168   0.109  0.4252 -0.0730  0.9748
  665MOL0     C89695   7.792   9.222   0.152  0.3576 -0.9896 -1.0692
  665MOL0     C89696   7.863   9.101   0.149 -0.4850  0.3572  0.6729
  665MOL0     C89697   8.004   9.103   0.121 -0.6489  0.7143 -0.1502
  665MOL0     C89698   8.080   9.222   0.110  0.8136  0.3361 -0.1035
  665MOL0     O89699   8.212   9.212   0.081 -0.6448  0.1915  0.4981
  665MOL0     C89700   8.298   9.332   0.066 -0.7576  0.1327 -0.6036
  665MOL0     C89701   8.444   9.291   0.064  0.2230 -0.3184  0.5894
  665MOL0     C89702   8.542   9.389  -0.010 -0.0246 -0.0999  0.0134
  665MOL0     C89703   8.542   9.529   0.042  0.5157  0.0546  0.3198
  665MOL0     C89704   8.663   9.603   0.004  0.1409  0.4210 -0.3157
  665MOL0     C89705   8.774   9.653  -0.020  0.2395  0.2899 -0.0714
  665MOL0     C89706   8.007   9.340   0.122  0.5546 -0.3309  0.2208
  665MOL0     C89707   7.867   9.342   0.141 -0.3009  0.5740  0.8452
  665MOL0     H89708   7.495   9.109   0.412  1.1085  0.8530 -0.7877
  665MOL0     H89709   7.259   9.191   0.490  0.8295  1.8535 -0.0554
  665MOL0     H89710   7.039   9.059   0.453  1.8313  1.6621  0.1520
  665MOL0     H89711   6.992   9.224   0.512  1.5825  1.7075 -0.7812
  665MOL0     H89712   6.826   9.066   0.316  0.1267 -0.8396  0.0079
  665MOL0     H89713   6.809   9.060   0.494  2.7191  2.0785  2.2926
  665MOL0     H89714   6.762   9.299   0.514 -1.1351 -0.6358 -0.1596
  665MOL0     H89715   6.792   9.322   0.335 -2.8033  0.1312 -2.0928
  665MOL0     H89716   6.565   9.186   0.306 -1.3973 -2.4375  1.1727
  665MOL0     H89717   6.599   9.125   0.464  0.3248 -0.0278  0.1522
  665MOL0     H89718   6.422   9.273   0.491  1.2876 -1.5561  1.7821
  665MOL0     H89719   6.554   9.388   0.536 -1.1022  1.8318 -0.9629
  665MOL0     H89720   6.435   9.345   0.250  0.0598  0.2492 -0.4826
  665MOL0     H89721   6.363   9.456   0.363  0.7443  0.7262  0.8265
  665MOL0     H89722   6.631   9.445   0.225 -0.2022 -0.9464 -0.6424
  665MOL0     H89723   6.502   9.551   0.172 -0.4323  0.2728  0.4963
  665MOL0     H89724   6.670   9.688   0.309 -0.3393  0.6818  0.6602
  665MOL0     H89725   6.632   9.589   0.447  1.7272  1.0173  0.3509
  665MOL0     H89726   6.353   9.704   0.244 -2.8493 -0.9765  2.2331
  665MOL0     H89727   6.254  10.079   0.379 -0.1080 -1.1225  1.5550
  665MOL0     H89728   6.239   9.981   0.233 -0.2100  3.3977  0.5703
  665MOL0     H89729   6.092   9.883   0.456 -2.2946 -1.8350 -1.2385
  665MOL0     H89730   6.066   9.853   0.284 -1.5493  2.4427 -1.9484
  665MOL0     H89731   5.983  10.079   0.263 -1.1253 -0.1387 -0.3205
  665MOL0     H89732   5.998  10.100   0.447 -1.7648  1.5423 -1.4039
  665MOL0     H89733   5.819   9.988   0.499  0.7600 -0.8299  0.9476
  665MOL0     H89734   5.854   9.863   0.382 -2.5490 -1.5837  4.2900
  665MOL0     H89735   5.548  10.137   0.187  0.3200  0.0291  0.3216
  665MOL0     H89736   5.323  10.194   0.157  1.3221 -0.1613  1.2724
  665MOL0     H89737   5.261  10.035   0.103 -2.5974  2.8399 -0.9353
  665MOL0     H89738   5.181  10.116   0.233 -0.6855  0.2192 -2.5706
  665MOL0     H89739   4.968  10.057   0.590  0.9988  0.4579 -1.6993
  665MOL0     H89740   4.759   9.953   0.704 -0.5545 -0.2220  0.2989
  665MOL0     H89741   4.680   9.778   0.820 -2.2211  0.1416  3.3228
  665MOL0     H89742   4.532   9.855   0.764  1.7423  1.3857 -3.7243
  665MOL0     H89743   4.585   9.560   0.819  1.6637  1.3416 -1.7859
  665MOL0     H89744   4.483   9.665   0.914  0.5214 -1.1195  0.6855
  665MOL0     H89745   4.422   9.630   0.623  0.6802  2.4040  0.4399
  665MOL0     H89746   4.318   9.709   0.735  1.0123  1.9786  2.7654
  665MOL0     H89747   4.403   9.415   0.765  0.1113 -0.0651 -3.1931
  665MOL0     H89748   4.295   9.515   0.865  3.4678 -1.2207  0.8412
  665MOL0     H89749   4.248   9.420   0.581 -0.7927 -0.1971  0.1870
  665MOL0     H89750   4.142   9.538   0.656 -1.3700 -1.3578  1.1568
  665MOL0     H89751   4.070   9.383   0.833  0.8910 -1.2862  0.9061
  665MOL0     H89752   4.036   9.308   0.677 -1.8664  0.9023  2.2784
  665MOL0     H89753   4.226   9.242   0.894 -2.6820 -0.6527  0.8678
  665MOL0     H89754   4.280   9.205   0.725  0.3075  1.2378  0.7052
  665MOL0     H89755   4.156   9.004   0.844 -1.7415 -1.3690  0.6496
  665MOL0     H89756   4.071   9.069   0.703 -0.1624  0.5068  0.3110
  665MOL0     H89757   4.753   9.652   0.409 -1.9212  1.0981 -0.1489
  665MOL0     H89758   4.960   9.736   0.304  0.3776 -0.8821  1.3128
  665MOL0     H89759   5.447   9.747   0.479  0.3409  0.2986 -0.3640
  665MOL0     H89760   5.663   9.830   0.463 -0.0383  0.5401  0.3177
  665MOL0     H89761   7.138   9.211   0.077  0.2765  2.7293  0.0789
  665MOL0     H89762   7.367   9.171   0.003 -0.2054 -4.5876  0.5320
  665MOL0     H89763   7.823   9.003   0.171  0.7319  0.2147  2.4681
  665MOL0     H89764   8.048   9.004   0.122 -1.1534  0.4881  0.4881
  665MOL0     H89765   8.282   9.399  -0.019  0.5295  1.7050  0.3505
  665MOL0     H89766   8.298   9.394   0.156  0.7336 -0.7704  0.0461
  665MOL0     H89767   8.446   9.195   0.010  0.2268  0.2459 -0.4345
  665MOL0     H89768   8.467   9.281   0.170  0.1987  1.0885  0.7366
  665MOL0     H89769   8.525   9.389  -0.118 -2.0960 -0.8150  0.2978
  665MOL0     H89770   8.638   9.338   0.001  0.0824  0.3248  1.2516
  665MOL0     H89771   8.537   9.537   0.151 -0.2394 -0.8601  0.3722
  665MOL0     H89772   8.452   9.580   0.008  0.3128 -0.3760  0.1967
  665MOL0     H89773   8.866   9.702  -0.045  0.1863 -0.0099 -0.8495
  665MOL0     H89774   8.052   9.439   0.114 -4.2193  2.2033  0.9220
  665MOL0     H89775   7.820   9.440   0.143 -3.0283 -0.5612 -1.4845
  666MOL0     O89776   9.183   0.117   6.568  0.1908  0.0273  0.7377
  666MOL0     C89777   9.235   0.140   6.681 -0.1811  0.1729  0.3351
  666MOL0     O89778   9.176   0.167   6.795 -0.0559  0.6858 -0.6648
  666MOL0     C89779   9.037   0.174   6.788  0.0532 -0.0716 -1.0970
  666MOL0     C89780   8.958   0.080   6.841  0.3831  0.3646 -0.4183
  666MOL0     C89781   8.810   0.090   6.839  0.3508  0.4390  0.9906
  666MOL0     C89782   8.755   0.204   6.777 -0.3041 -0.7441 -0.8118
  666MOL0     O89783   8.618   0.227   6.779  0.7920  0.1584 -0.5002
  666MOL0     C89784   8.520   0.119   6.787  0.5164 -0.2835 -0.8985
  666MOL0     C89785   8.380   0.182   6.789  0.5202 -0.3770  0.3290
  666MOL0     C89786   8.273   0.067   6.791 -0.2774 -0.3723 -0.8486
  666MOL0     C89787   8.141   0.112   6.851 -0.2893  0.0141 -0.2224
  666MOL0     C89788   8.046  -0.003   6.876  0.1608  0.9331  0.6398
  666MOL0     C89789   7.905   0.058   6.898  0.3033 -0.1869 -0.3742
  666MOL0     C89790   7.819  -0.027   6.995  0.0486  0.1552  0.3667
  666MOL0     C89791   7.680   0.040   7.021 -0.6504 -0.1329  0.3852
  666MOL0     N89792   7.596  -0.063   7.088  0.3193 -0.7247  0.2788
  666MOL0     C89793   7.502  -0.026   7.182  0.1761  0.1347 -0.2042
  666MOL0     C89794   7.422  -0.130   7.194 -0.8404  0.9988 -0.7390
  666MOL0     C89795   7.310  -0.131   7.293  0.0055  0.5782 -0.0181
  666MOL0     C89796   7.174  -0.108   7.226 -0.4490 -0.3586 -0.6694
  666MOL0     C89797   7.093  -0.237   7.188  0.4915 -0.4457  0.4787
  666MOL0     C89798   7.064  -0.324   7.311  0.2386 -0.3655  0.3959
  666MOL0     O89799   6.932  -0.287   7.353  0.4212 -0.6423  0.6380
  666MOL0     C89800   6.851  -0.364   7.429  0.9122 -0.1250 -0.1117
  666MOL0     C89801   6.867  -0.496   7.450 -0.6412 -0.5133  0.4802
  666MOL0     C89802   6.778  -0.569   7.520 -0.3748  0.6496 -0.4884
  666MOL0     C89803   6.804  -0.711   7.521 -0.4135  0.3894  0.8496
  666MOL0     C89804   6.662  -0.505   7.572  0.2832  0.3556  0.4952
  666MOL0     C89805   6.534  -0.568   7.609  0.1053 -0.0234 -0.0313
  666MOL0     O89806   6.523  -0.704   7.589 -0.0457 -0.5477 -0.2091
  666MOL0     C89807   6.401  -0.761   7.619 -0.0528 -0.5898 -0.3242
  666MOL0     C89808   6.332  -0.828   7.518 -0.6080  0.4812 -0.2363
  666MOL0     C89809   6.205  -0.879   7.543 -0.9173  0.6877 -0.2232
  666MOL0     C89810   6.145  -0.859   7.669  0.2235 -0.7284 -0.1453
  666MOL0     O89811   6.026  -0.913   7.690  1.0196 -0.4523 -0.3565
  666MOL0     C89812   5.912  -0.871   7.600 -0.2598  0.3179  0.6551
  666MOL0     C89813   5.790  -0.862   7.684  0.4287 -0.5748 -0.0571
  666MOL0     C89814   5.670  -0.796   7.606 -0.4123  0.2488  0.3504
  666MOL0     C89815   5.547  -0.791   7.689 -0.0611 -0.5911 -0.1680
  666MOL0     C89816   5.438  -0.714   7.621 -0.5845  0.0263  1.0183
  666MOL0     C89817   5.296  -0.717   7.677  0.3444  0.0918 -0.4097
  666MOL0     C89818   5.307  -0.702   7.833  0.4492  0.3141 -0.3881
  666MOL0     C89819   5.172  -0.665   7.893  0.6069  0.1308  0.8535
  666MOL0    Cl89820   5.051  -0.779   7.844  0.0811  0.3095  0.0158
  666MOL0     C89821   6.215  -0.793   7.772  1.3396 -0.6675  0.3265
  666MOL0     C89822   6.340  -0.743   7.749  0.1735  0.3966 -0.8166
  666MOL0     O89823   6.444  -0.499   7.654 -0.2708 -0.3358  0.3938
  666MOL0     C89824   6.659  -0.365   7.566 -0.2270 -0.0055  0.1677
  666MOL0     C89825   6.751  -0.292   7.493 -0.5215  0.3026 -0.0176
  666MOL0     N89826   7.455  -0.223   7.096  0.3836  0.0522 -0.4675
  666MOL0     N89827   7.567  -0.188   7.047 -0.0548 -0.2056 -0.1801
  666MOL0     C89828   8.834   0.302   6.731  0.3049 -0.3284  0.1945
  666MOL0     C89829   8.966   0.289   6.734 -0.2681 -0.0173 -0.5281
  666MOL0     C89830   9.384   0.141   6.688 -0.1956 -0.1865  0.5974
  666MOL0     C89831   9.455   0.133   6.809 -0.5626 -0.1152  0.2208
  666MOL0     C89832   9.596   0.128   6.813 -0.4624  0.4304 -0.2950
  666MOL0     C89833   9.670   0.136   6.700 -1.0354 -0.1384  0.1855
  666MOL0     O89834   9.804   0.112   6.689  0.2595  0.2503 -0.4145
  666MOL0     C89835   9.875   0.072   6.803  0.2943 -0.2873 -1.0302
  666MOL0     C89836  10.024   0.062   6.783 -0.5086 -0.3640 -0.0453
  666MOL0     C89837  10.093   0.172   6.713 -0.2419 -0.1563 -0.2616
  666MOL0     C89838  10.227   0.121   6.669 -0.8706 -0.4419  0.1273
  666MOL0     C89839  10.317   0.213   6.589  0.3308  0.0637  0.7540
  666MOL0     C89840  10.393   0.281   6.518  0.4453  0.1425 -0.1927
  666MOL0     C89841   9.600   0.147   6.578  0.4724  0.3271 -0.0299
  666MOL0     C89842   9.459   0.147   6.572  1.3007  0.4958 -1.0124
  666MOL0     H89843   8.998  -0.008   6.889  2.6394  1.1929 -0.6917
  666MOL0     H89844   8.752   0.008   6.881 -1.1191  1.1504  0.4119
  666MOL0     H89845   8.542   0.047   6.708  3.8684  0.5054 -0.7998
  666MOL0     H89846   8.529   0.068   6.883 -1.3032  0.6378 -0.1749
  666MOL0     H89847   8.368   0.246   6.877  1.4721 -1.5003  1.3033
  666MOL0     H89848   8.357   0.240   6.698 -1.5034 -0.5788  0.6568
  666MOL0     H89849   8.242   0.033   6.691 -1.6479 -1.1716 -0.1929
  666MOL0     H89850   8.297  -0.016   6.858 -2.9835 -0.6077 -0.0148
  666MOL0     H89851   8.163   0.161   6.946  0.5289  0.1074 -0.4608
  666MOL0     H89852   8.102   0.181   6.776 -0.8604  0.4816  0.4852
  666MOL0     H89853   8.051  -0.076   6.795 -0.8665 -0.7054  1.9857
  666MOL0     H89854   8.092  -0.057   6.959 -0.1454 -2.8335 -1.4564
  666MOL0     H89855   7.918   0.154   6.949  0.4554  0.4179 -1.5117
  666MOL0     H89856   7.852   0.085   6.806 -3.0999 -1.4230  1.0936
  666MOL0     H89857   7.793  -0.118   6.939 -1.2789  0.8862 -0.2624
  666MOL0     H89858   7.866  -0.054   7.090  1.8117  1.0760 -0.1971
  666MOL0     H89859   7.628   0.073   6.931 -1.5189 -1.1171  0.5155
  666MOL0     H89860   7.703   0.126   7.085  0.4574 -1.7828  2.3334
  666MOL0     H89861   7.490   0.062   7.244  1.8085 -1.0037  1.8479
  666MOL0     H89862   7.309  -0.230   7.338 -0.9298  0.7756  0.4266
  666MOL0     H89863   7.339  -0.060   7.371 -0.5399  0.3656  0.3832
  666MOL0     H89864   7.180  -0.049   7.135  0.2743 -1.1645 -1.1571
  666MOL0     H89865   7.116  -0.054   7.301  1.5620 -0.5180  1.0808
  666MOL0     H89866   7.141  -0.299   7.112 -1.2756 -2.1441  0.6691
  666MOL0     H89867   6.997  -0.200   7.151  1.1002  0.5484 -0.1641
  666MOL0     H89868   7.130  -0.305   7.397 -2.3949 -0.7969  2.6497
  666MOL0     H89869   7.065  -0.426   7.272 -5.0488 -0.5003 -0.0993
  666MOL0     H89870   6.949  -0.549   7.404 -0.6690 -0.5933  0.5228
  666MOL0     H89871   6.752  -0.757   7.437  3.0598 -0.5160 -1.0295
  666MOL0     H89872   6.910  -0.737   7.508 -0.3634  0.4366  1.1488
  666MOL0     H89873   6.762  -0.761   7.608  0.1328 -0.9679  0.3626
  666MOL0     H89874   6.373  -0.844   7.419 -0.4108  0.1867 -0.1083
  666MOL0     H89875   6.143  -0.942   7.481 -0.6964  1.1205 -0.8930
  666MOL0     H89876   5.935  -0.774   7.556  0.8500  0.8357  2.2773
  666MOL0     H89877   5.901  -0.948   7.523 -2.3929 -0.2247  1.4128
  666MOL0     H89878   5.764  -0.960   7.725  0.0679  0.2733  1.8869
  666MOL0     H89879   5.807  -0.801   7.774  0.6542 -0.0990 -0.4165
  666MOL0     H89880   5.656  -0.857   7.516 -2.4142  1.4528 -0.2171
  666MOL0     H89881   5.706  -0.699   7.570 -1.5940  1.1547  1.5459
  666MOL0     H89882   5.514  -0.891   7.719 -0.3879 -0.0038  1.5875
  666MOL0     H89883   5.572  -0.747   7.786  0.8492 -0.4716 -0.4432
  666MOL0     H89884   5.437  -0.756   7.520  0.3680 -0.6760  1.2821
  666MOL0     H89885   5.466  -0.612   7.595  0.6185 -0.6955 -0.7107
  666MOL0     H89886   5.234  -0.634   7.641 -1.3778 -0.8020  0.3640
  666MOL0     H89887   5.242  -0.805   7.641 -0.7972  0.6019 -0.0003
  666MOL0     H89888   5.383  -0.628   7.859 -0.2132  0.6098  0.7551
  666MOL0     H89889   5.337  -0.799   7.874 -0.2314  0.1518 -0.2634
  666MOL0     H89890   5.144  -0.563   7.865  1.9950  0.3313  0.0905
  666MOL0     H89891   5.199  -0.660   7.999 -0.0992 -0.2603  1.0577
  666MOL0     H89892   6.176  -0.788   7.873 -0.9014 -0.7502 -0.4722
  666MOL0     H89893   6.380  -0.684   7.831  0.7534  0.0347 -0.8349
  666MOL0     H89894   6.574  -0.314   7.613 -1.6697  0.0019 -2.2640
  666MOL0     H89895   6.751  -0.184   7.483  2.3455  0.2312 -1.9423
  666MOL0     H89896   8.802   0.395   6.685  3.7438  1.2304  0.6341
  666MOL0     H89897   9.030   0.365   6.689  1.5539 -1.9685 -1.3826
  666MOL0     H89898   9.398   0.117   6.900 -0.5842 -0.3954  0.1593
  666MOL0     H89899   9.643   0.103   6.908 -2.3101  0.2419  0.6246
  666MOL0     H89900   9.870   0.157   6.871 -3.1255 -1.4387  0.4041
  666MOL0     H89901   9.834  -0.020   6.847 -2.2419  0.7986 -0.9501
  666MOL0     H89902  10.041  -0.026   6.720 -0.2102  0.2170 -0.7916
  666MOL0     H89903  10.071   0.051   6.881 -0.9679  1.0125  0.3444
  666MOL0     H89904  10.080   0.247   6.791 -2.3374 -0.7134  0.0047
  666MOL0     H89905  10.046   0.201   6.618  1.2698  0.7128 -0.7728
  666MOL0     H89906  10.224   0.028   6.611 -0.5574 -0.2866 -0.1351
  666MOL0     H89907  10.282   0.105   6.763  0.4723 -1.1097 -0.7466
  666MOL0     H89908  10.456   0.331   6.447  3.2406 -1.6382  0.8595
  666MOL0     H89909   9.659   0.139   6.488 -0.8954 -1.6739 -0.8136
  666MOL0     H89910   9.401   0.146   6.480  1.2253  0.0114 -0.9619
  667MOL0     O89911  10.872  10.116   8.003 -0.0493  0.2758  0.0316
  667MOL0     C89912  10.903  10.020   8.075 -0.0520 -1.0761  0.6125
  667MOL0     O89913  10.826   9.948   8.158 -0.2447  0.0088  0.0041
  667MOL0     C89914  10.694   9.983   8.187  0.3660  0.9323 -0.8938
  667MOL0     C89915  10.588   9.886   8.191 -0.8166 -0.3037  0.4052
  667MOL0     C89916  10.458   9.927   8.213  0.7554 -0.6758 -0.6321
  667MOL0     C89917  10.427  10.060   8.232 -0.7717  0.4458 -0.1392
  667MOL0     O89918  10.293  10.093   8.234 -0.6637  0.3434  0.5373
  667MOL0     C89919  10.254  10.236   8.253  0.8171  0.0768 -0.8662
  667MOL0     C89920  10.100  10.240   8.246 -0.6987 -0.2159  0.0409
  667MOL0     C89921  10.029  10.208   8.378 -0.6701  0.7928 -0.1811
  667MOL0     C89922   9.882  10.246   8.357 -1.1351  0.3087  0.1773
  667MOL0     C89923   9.802  10.194   8.479 -1.0043  0.0129  0.7596
  667MOL0     C89924   9.650  10.197   8.447 -0.5408  0.3647 -0.5663
  667MOL0     C89925   9.587  10.328   8.445 -0.0431 -0.7124 -0.6844
  667MOL0     C89926   9.577  10.408   8.574  0.0119  0.1628  0.3393
  667MOL0     N89927   9.466  10.361   8.656 -0.5717  0.4574 -0.0242
  667MOL0     C89928   9.471  10.251   8.733 -0.2804  0.3524 -0.4307
  667MOL0     C89929   9.372  10.255   8.827  0.1451 -0.1348  0.3273
  667MOL0     C89930   9.346  10.179   8.954  0.4551 -0.0352  1.5778
  667MOL0     C89931   9.427  10.224   9.074  0.2333 -0.6690 -0.0365
  667MOL0     C89932   9.585  10.234   9.061  0.2030  1.0505  0.0303
  667MOL0     C89933   9.649  10.306   9.183  0.3676  0.1415  0.6634
  667MOL0     O89934   9.570  10.419   9.227 -0.1802 -0.3475  0.1186
  667MOL0     C89935   9.617  10.481   9.333  0.2076 -0.2995  0.4368
  667MOL0     C89936   9.753  10.480   9.384  0.1673 -0.6143 -0.4105
  667MOL0     C89937   9.777  10.542   9.511  0.4306 -0.0051  0.7310
  667MOL0     C89938   9.923  10.532   9.556 -0.1813  0.5207  0.5358
  667MOL0     C89939   9.675  10.602   9.589 -0.1598  0.3645  0.2905
  667MOL0     C89940   9.684  10.663   9.724  0.5307 -0.1603  0.0485
  667MOL0     O89941   9.577  10.733   9.773  0.1170 -0.5564 -0.1966
  667MOL0     C89942   9.596  10.819   9.870 -1.4249  0.0664 -0.1556
  667MOL0     C89943   9.663  10.936   9.861  0.1770  0.4522  0.3219
  667MOL0     C89944   9.689  11.015   9.977  0.7755  0.4104 -0.0454
  667MOL0     C89945   9.649  10.971  10.097 -0.8084  0.2661 -0.0629
  667MOL0     O89946   9.680  11.057  10.202  0.1779  0.8822 -0.1575
  667MOL0     C89947   9.637  11.024  10.340 -0.0705  0.0296  0.2434
  667MOL0     C89948   9.480  11.051  10.350 -0.5228 -0.3586 -0.1933
  667MOL0     C89949   9.437  11.200  10.371  0.6478 -0.0914 -0.8936
  667MOL0     C89950   9.282  11.206  10.376 -0.2211 -0.0102 -0.1290
  667MOL0     C89951   9.226  11.347  10.375 -0.4408 -0.0893  0.5791
  667MOL0     C89952   9.075  11.336  10.369 -0.0664  0.6711 -0.6780
  667MOL0     C89953   9.004  11.301  10.234 -0.0957  0.5948 -0.5195
  667MOL0     C89954   9.030  11.379  10.109  0.3543  1.1757 -1.0482
  667MOL0    Cl89955   8.966  11.546  10.135  0.3183  0.6154 -0.3942
  667MOL0     C89956   9.592  10.844  10.110 -0.1273 -0.2837 -1.1209
  667MOL0     C89957   9.569  10.771   9.998  0.6285  0.6824 -0.2060
  667MOL0     O89958   9.772  10.618   9.796 -0.2427  0.3334  0.1688
  667MOL0     C89959   9.542  10.594   9.540 -0.8559 -0.0493 -0.4604
  667MOL0     C89960   9.519  10.539   9.414  0.0232 -0.1728  0.0468
  667MOL0     N89961   9.286  10.349   8.778 -0.7289  0.1429 -0.8611
  667MOL0     N89962   9.341  10.405   8.673  0.0860 -0.6509 -0.0989
  667MOL0     C89963  10.530  10.151   8.233 -0.5178 -0.2029  0.1113
  667MOL0     C89964  10.663  10.115   8.206 -0.9816 -0.3113  0.5953
  667MOL0     C89965  11.050   9.976   8.068  0.2090  0.9099 -1.0242
  667MOL0     C89966  11.099   9.867   8.145 -0.4536  0.0665  0.1639
  667MOL0     C89967  11.236   9.836   8.141 -0.2836 -0.1649  0.3624
  667MOL0     C89968  11.330   9.909   8.055  0.4650  0.1415  0.1400
  667MOL0     O89969  11.468   9.891   8.040 -0.2747 -0.4448 -0.5924
  667MOL0     C89970  11.537   9.811   8.141 -0.0006  0.2929 -0.6162
  667MOL0     C89971  11.684   9.816   8.105 -0.3341 -0.9351 -0.1155
  667MOL0     C89972  11.763   9.725   8.206  0.1945 -0.1259 -1.2492
  667MOL0     C89973  11.900   9.790   8.247  0.1370 -0.0054  0.3431
  667MOL0     C89974  11.963   9.694   8.336 -0.1995  0.7938 -0.1171
  667MOL0     C89975  12.007   9.612   8.407 -0.2650  0.2371 -0.3103
  667MOL0     C89976  11.276  10.013   7.974  0.2856  0.5628  0.2473
  667MOL0     C89977  11.138  10.039   7.970  0.3176 -0.9157  0.2549
  667MOL0     H89978  10.609   9.782   8.165  0.5857  0.5968 -2.3952
  667MOL0     H89979  10.369   9.865   8.211  1.4601 -1.7050 -0.7828
  667MOL0     H89980  10.289  10.272   8.351 -2.2569 -0.5738  0.5843
  667MOL0     H89981  10.298  10.299   8.175  1.4621  0.0152 -0.5543
  667MOL0     H89982  10.069  10.344   8.236 -1.8382 -0.2264  2.4952
  667MOL0     H89983  10.066  10.176   8.164 -0.7276  0.2278 -0.2970
  667MOL0     H89984  10.041  10.104   8.409 -0.5243  0.5996 -0.8716
  667MOL0     H89985  10.066  10.271   8.459  1.1224 -1.3450  0.7599
  667MOL0     H89986   9.869  10.354   8.352  0.0376  0.4451 -0.2295
  667MOL0     H89987   9.855  10.200   8.261 -2.9527 -1.4164  1.4366
  667MOL0     H89988   9.832  10.091   8.497  1.2335  1.1541  4.5417
  667MOL0     H89989   9.817  10.260   8.564 -1.5164  0.9168  0.1657
  667MOL0     H89990   9.627  10.160   8.347  0.5261  1.0581 -1.0879
  667MOL0     H89991   9.599  10.138   8.524  1.2498  2.9339  2.8953
  667MOL0     H89992   9.637  10.395   8.374 -0.3389  0.4357  0.1601
  667MOL0     H89993   9.489  10.317   8.400  0.5025 -0.8271 -1.8819
  667MOL0     H89994   9.560  10.514   8.551 -2.0754 -0.9178 -4.1534
  667MOL0     H89995   9.665  10.400   8.639  0.6363  1.5494 -0.3041
  667MOL0     H89996   9.563  10.193   8.732 -0.0584  0.6885 -0.0034
  667MOL0     H89997   9.239  10.181   8.977 -0.6090  0.3580 -2.6634
  667MOL0     H89998   9.365  10.077   8.922 -0.2696 -0.5812  2.7980
  667MOL0     H89999   9.406  10.164   9.163  1.9411  0.3669  1.1191
  667MOL0     H90000   9.386  10.323   9.098  1.2770 -0.3584  0.5361
  667MOL0     H90001   9.618  10.289   8.973  0.1058  0.1591 -0.5682
  667MOL0     H90002   9.611  10.129   9.048 -1.2944  0.5522  0.7906
  667MOL0     H90003   9.756  10.317   9.164  0.5491 -1.7616  0.4070
  667MOL0     H90004   9.655  10.231   9.263 -3.5902 -0.8783  0.1886
  667MOL0     H90005   9.831  10.441   9.319  0.8200  1.3231 -0.8744
  667MOL0     H90006   9.936  10.437   9.607 -1.8087 -0.2777 -0.4671
  667MOL0     H90007   9.988  10.541   9.468 -0.3676 -1.0287  0.2118
  667MOL0     H90008   9.939  10.615   9.626 -1.3310  2.1219 -0.9975
  667MOL0     H90009   9.691  10.979   9.765  1.5400 -1.4844 -0.2216
  667MOL0     H90010   9.734  11.110   9.949 -0.8800  0.5940 -2.4139
  667MOL0     H90011   9.661  10.922  10.370 -0.4634  0.0385  0.5920
  667MOL0     H90012   9.692  11.091  10.407  3.1519 -0.7890 -1.3879
  667MOL0     H90013   9.433  11.020  10.256 -1.2594  0.9870 -0.3057
  667MOL0     H90014   9.435  10.991  10.429 -2.6324 -2.8171 -3.0409
  667MOL0     H90015   9.471  11.259  10.286  0.3741  3.5815  1.3009
  667MOL0     H90016   9.473  11.251  10.461 -1.0630  2.5154 -1.5713
  667MOL0     H90017   9.244  11.147  10.292  0.9191 -0.5062 -0.3187
  667MOL0     H90018   9.254  11.165  10.474 -0.0838  1.7389  0.6780
  667MOL0     H90019   9.259  11.403  10.287 -0.7610 -0.1564  0.4126
  667MOL0     H90020   9.256  11.412  10.457  0.6513 -0.1323  0.2195
  667MOL0     H90021   9.049  11.260  10.443 -0.4246  1.8225  0.3960
  667MOL0     H90022   9.028  11.431  10.397 -0.7930  0.5505 -1.4516
  667MOL0     H90023   8.899  11.301  10.265 -0.0314  0.9515 -0.3001
  667MOL0     H90024   9.034  11.198  10.213  0.8826  0.7886 -0.1193
  667MOL0     H90025   8.984  11.328  10.024  2.5931 -2.5074 -0.3091
  667MOL0     H90026   9.138  11.387  10.094  0.5905  0.4557  0.1019
  667MOL0     H90027   9.558  10.807  10.205  0.8010  0.4152 -0.4938
  667MOL0     H90028   9.524  10.673   9.991  0.4229  0.7605  0.0304
  667MOL0     H90029   9.459  10.628   9.602 -1.1047  0.3816 -1.0249
  667MOL0     H90030   9.418  10.540   9.377  0.2510 -0.2996 -0.5794
  667MOL0     H90031  10.503  10.255   8.225  2.8134  0.6718 -1.6994
  667MOL0     H90032  10.732  10.197   8.188 -1.9399  0.4443  0.2829
  667MOL0     H90033  11.025   9.816   8.206 -2.8375  1.3863 -1.4687
  667MOL0     H90034  11.264   9.753   8.205 -1.4302 -0.6790  0.2271
  667MOL0     H90035  11.513   9.851   8.240 -1.0146  3.2102 -1.9458
  667MOL0     H90036  11.504   9.707   8.128  0.7001  0.1708 -1.4718
  667MOL0     H90037  11.715   9.919   8.126 -0.2225 -1.3068  1.6454
  667MOL0     H90038  11.702   9.788   8.001 -0.2715 -3.4771  0.5113
  667MOL0     H90039  11.763   9.619   8.181 -1.9128 -0.9524  1.8032
  667MOL0     H90040  11.701   9.732   8.296 -0.8631 -3.6146 -1.5757
  667MOL0     H90041  11.892   9.893   8.283 -0.0778 -0.5722  2.0139
  667MOL0     H90042  11.969   9.788   8.162  0.7674 -3.9096  0.7716
  667MOL0     H90043  12.051   9.532   8.464  0.1807  0.2348 -0.6558
  667MOL0     H90044  11.348  10.074   7.920  0.2877 -0.2256 -0.6516
  667MOL0     H90045  11.100  10.128   7.921  1.1424  0.5499  2.1899
  668MOL0     O90046   3.635   7.768   1.269  0.3588 -0.1321 -0.6337
  668MOL0     C90047   3.682   7.846   1.193  0.2210 -0.7278 -0.1670
  668MOL0     O90048   3.619   7.917   1.094 -0.7853  0.1178 -0.1131
  668MOL0     C90049   3.481   7.911   1.075 -0.8790  0.0496  0.3089
  668MOL0     C90050   3.388   7.887   1.178  0.1283 -0.0613  0.1697
  668MOL0     C90051   3.255   7.915   1.155  0.1645  0.1879 -0.5836
  668MOL0     C90052   3.206   7.970   1.032  0.6129 -0.1314  0.1514
  668MOL0     O90053   3.083   8.019   0.992  0.4570 -0.1190  0.4247
  668MOL0     C90054   2.973   7.982   1.073  0.2231  0.4482 -0.1300
  668MOL0     C90055   2.834   8.004   1.016  0.3259 -0.2426 -0.2262
  668MOL0     C90056   2.720   8.005   1.115  0.2720  0.4444  0.8621
  668MOL0     C90057   2.583   7.952   1.064 -1.0709 -0.2595 -0.3648
  668MOL0     C90058   2.516   8.026   0.956  0.4991 -1.1238  0.4194
  668MOL0     C90059   2.384   7.952   0.931 -0.5745 -0.1549 -0.0495
  668MOL0     C90060   2.306   8.032   0.822 -0.5388 -0.7192  0.4429
  668MOL0     C90061   2.154   8.017   0.830  0.0650 -0.8540 -0.2780
  668MOL0     N90062   2.086   8.099   0.733  0.5218 -0.0298 -0.0624
  668MOL0     C90063   2.066   8.236   0.739  0.3688  0.1834  0.0883
  668MOL0     C90064   1.982   8.262   0.632 -0.4805  1.0198 -0.2569
  668MOL0     C90065   1.909   8.380   0.571 -0.3915 -0.3868 -0.3932
  668MOL0     C90066   1.997   8.507   0.573  0.1122  0.0488  0.9130
  668MOL0     C90067   1.933   8.619   0.491  0.4161  0.4569  0.6210
  668MOL0     C90068   1.908   8.746   0.574 -0.3317 -0.1260 -0.1328
  668MOL0     O90069   1.850   8.722   0.703  0.0413 -0.2360 -0.8087
  668MOL0     C90070   1.722   8.678   0.713  0.5531 -0.5080  0.7038
  668MOL0     C90071   1.688   8.600   0.825 -0.2266  0.6148  1.0724
  668MOL0     C90072   1.562   8.558   0.848 -0.9249  0.0464 -0.6689
  668MOL0     C90073   1.560   8.462   0.966  0.1423  0.7164 -0.2582
  668MOL0     C90074   1.462   8.601   0.761 -0.3132 -0.0117  0.7080
  668MOL0     C90075   1.317   8.563   0.788 -0.1622 -0.1879  0.3819
  668MOL0     O90076   1.227   8.592   0.683 -0.5132  0.7451 -0.5425
  668MOL0     C90077   1.096   8.553   0.700 -0.0220  0.2561  0.1643
  668MOL0     C90078   0.995   8.649   0.677  0.7940  0.2849  0.3602
  668MOL0     C90079   0.864   8.616   0.687 -0.0258  0.2125 -0.5393
  668MOL0     C90080   0.829   8.483   0.713 -0.2277  0.0206 -0.5110
  668MOL0     O90081   0.706   8.425   0.714 -0.2637  0.3156  0.8401
  668MOL0     C90082   0.594   8.508   0.696  0.6846  0.0428 -0.4247
  668MOL0     C90083   0.462   8.422   0.684 -0.5141 -0.5083  0.4367
  668MOL0     C90084   0.447   8.383   0.533  0.0977 -0.4232  0.0943
  668MOL0     C90085   0.303   8.310   0.507 -0.0399  0.3022  0.0662
  668MOL0     C90086   0.178   8.396   0.544  0.4338  0.0456 -0.5032
  668MOL0     C90087   0.050   8.311   0.525 -0.0662 -0.5660  0.8142
  668MOL0     C90088  -0.082   8.375   0.570 -0.5375 -0.2139  0.0471
  668MOL0     C90089  -0.090   8.399   0.719 -0.1645  0.7545 -0.1160
  668MOL0    Cl90090  -0.264   8.452   0.755 -0.4330 -0.2644  0.0908
  668MOL0     C90091   0.928   8.384   0.747  0.1985  0.1581  0.0201
  668MOL0     C90092   1.056   8.424   0.744 -0.1725  0.6179 -0.3977
  668MOL0     O90093   1.286   8.529   0.902  0.2477 -0.3833 -0.5475
  668MOL0     C90094   1.491   8.666   0.645  0.0314 -0.4561 -0.3982
  668MOL0     C90095   1.620   8.706   0.624  0.3820 -1.1109 -0.4201
  668MOL0     N90096   1.951   8.137   0.577  0.4867 -0.4999 -0.3206
  668MOL0     N90097   2.022   8.044   0.633  1.0512 -0.4409  0.2291
  668MOL0     C90098   3.303   7.981   0.928  0.3792  0.4624 -0.4250
  668MOL0     C90099   3.437   7.957   0.951  0.2069  0.6242 -0.0315
  668MOL0     C90100   3.828   7.870   1.195 -0.1098  0.2238  0.5961
  668MOL0     C90101   3.905   7.841   1.309  0.7527  0.0978  0.3365
  668MOL0     C90102   4.038   7.869   1.316  0.1508  0.5773  0.2608
  668MOL0     C90103   4.110   7.916   1.210 -0.3700  0.3379  0.5095
  668MOL0     O90104   4.245   7.926   1.217 -0.5607  0.2697  0.0565
  668MOL0     C90105   4.312   7.964   1.096  0.1018  1.0514 -0.2679
  668MOL0     C90106   4.463   7.971   1.127 -0.2394  0.6426  0.4423
  668MOL0     C90107   4.554   7.855   1.061  0.5972 -0.4018  0.1905
  668MOL0     C90108   4.542   7.720   1.135  0.0756  0.0480  0.9610
  668MOL0     C90109   4.408   7.659   1.138  0.6644 -0.1522 -0.1895
  668MOL0     C90110   4.300   7.605   1.140 -0.2668  0.3409  0.1174
  668MOL0     C90111   4.035   7.946   1.090 -0.8285  0.4179 -0.0653
  668MOL0     C90112   3.901   7.927   1.087  0.2691  0.0048 -0.2694
  668MOL0     H90113   3.417   7.842   1.273 -0.0824  1.0516  0.7711
  668MOL0     H90114   3.183   7.919   1.236 -0.2210  1.7214 -0.9718
  668MOL0     H90115   2.981   7.877   1.102  1.4924  0.4314 -0.4697
  668MOL0     H90116   2.981   8.040   1.166  0.7760 -0.1987  0.2375
  668MOL0     H90117   2.832   8.102   0.968 -3.6465 -0.7577 -1.4933
  668MOL0     H90118   2.813   7.931   0.937  2.9900 -0.4957 -0.7759
  668MOL0     H90119   2.745   7.951   1.207 -1.1442  1.4122  1.8649
  668MOL0     H90120   2.700   8.107   1.149 -0.8743 -0.3114  2.6337
  668MOL0     H90121   2.596   7.851   1.024 -2.6657 -1.0970  1.0987
  668MOL0     H90122   2.526   7.932   1.156  0.4882  2.1298  1.2650
  668MOL0     H90123   2.504   8.132   0.981 -2.7570 -0.7560 -1.8653
  668MOL0     H90124   2.570   8.006   0.863 -0.4689 -0.9244 -0.2126
  668MOL0     H90125   2.396   7.855   0.882 -1.9767  0.6286 -2.0933
  668MOL0     H90126   2.323   7.935   1.021  1.0470  0.2622  1.1568
  668MOL0     H90127   2.318   8.138   0.850 -1.0233 -0.3309 -0.7663
  668MOL0     H90128   2.346   8.027   0.721 -1.0140  0.2165  0.1992
  668MOL0     H90129   2.122   8.064   0.924 -0.9491 -0.4719 -0.7998
  668MOL0     H90130   2.129   7.911   0.834  0.9436 -1.0575  2.6586
  668MOL0     H90131   2.111   8.301   0.813  4.4016 -2.0105 -0.1574
  668MOL0     H90132   1.886   8.346   0.470  2.8595 -1.7101 -0.8257
  668MOL0     H90133   1.825   8.397   0.639 -0.8503 -2.0751 -0.5060
  668MOL0     H90134   2.095   8.484   0.530  0.2425  0.8204  0.7798
  668MOL0     H90135   2.013   8.537   0.677  2.4645 -0.0672  0.6379
  668MOL0     H90136   1.833   8.584   0.465  0.5073  0.3007  0.4813
  668MOL0     H90137   1.993   8.637   0.401  0.4215  0.3776  0.6084
  668MOL0     H90138   1.877   8.832   0.514  1.7972 -0.6447 -2.1353
  668MOL0     H90139   2.008   8.779   0.604  0.0285  1.5600 -2.8640
  668MOL0     H90140   1.766   8.563   0.891  0.4736  0.4801  0.1886
  668MOL0     H90141   1.489   8.379   0.955  1.0024 -0.4198  1.9546
  668MOL0     H90142   1.658   8.419   0.990  0.0560  0.6208 -0.0666
  668MOL0     H90143   1.530   8.517   1.056 -0.9845 -0.6440  0.2392
  668MOL0     H90144   1.024   8.748   0.642  0.8168 -0.4224 -1.7641
  668MOL0     H90145   0.789   8.692   0.668  0.5073  0.8493 -0.1278
  668MOL0     H90146   0.592   8.568   0.788 -1.2321  0.1774 -0.5205
  668MOL0     H90147   0.607   8.573   0.610  0.9833  0.3035 -0.1859
  668MOL0     H90148   0.461   8.333   0.748  0.4775 -0.0570  1.0929
  668MOL0     H90149   0.383   8.489   0.718  2.3054  1.8702  2.8188
  668MOL0     H90150   0.524   8.316   0.493 -1.6760 -1.0235 -2.5653
  668MOL0     H90151   0.461   8.470   0.469 -2.3162  1.7004  2.2199
  668MOL0     H90152   0.299   8.273   0.405  3.0788  1.1272 -0.4482
  668MOL0     H90153   0.294   8.222   0.572 -3.1631  0.0059 -0.6171
  668MOL0     H90154   0.175   8.469   0.463 -0.3182 -1.2715 -1.7262
  668MOL0     H90155   0.192   8.443   0.641  0.8784  0.1491 -0.6154
  668MOL0     H90156   0.042   8.284   0.420 -3.0204  1.5973  0.3701
  668MOL0     H90157   0.056   8.222   0.589  2.8964 -0.0240  1.4438
  668MOL0     H90158  -0.158   8.299   0.552 -1.2536  0.4943  0.0494
  668MOL0     H90159  -0.111   8.470   0.524  2.1180  2.3395  3.1217
  668MOL0     H90160  -0.023   8.482   0.744 -1.5304  1.2021  2.4567
  668MOL0     H90161  -0.058   8.306   0.768 -0.9417  0.5683  0.0472
  668MOL0     H90162   0.903   8.281   0.770 -0.7750 -0.0905 -1.9059
  668MOL0     H90163   1.128   8.352   0.780 -1.7486 -0.1229  1.4225
  668MOL0     H90164   1.412   8.694   0.577 -1.3082  0.4878  1.4440
  668MOL0     H90165   1.653   8.767   0.540  1.1542  0.2864  0.8377
  668MOL0     H90166   3.264   8.022   0.835 -2.1935  0.9898  0.8197
  668MOL0     H90167   3.514   7.983   0.879  1.5201 -0.5891  0.8692
  668MOL0     H90168   3.859   7.799   1.398 -0.1138 -0.6642 -0.4525
  668MOL0     H90169   4.087   7.838   1.407 -1.4318  0.5894  1.1562
  668MOL0     H90170   4.311   7.879   1.027  2.5218 -0.9412  1.9405
  668MOL0     H90171   4.272   8.054   1.048 -0.5066  1.0071  0.1421
  668MOL0     H90172   4.482   7.944   1.231  0.1767 -1.3237 -0.1036
  668MOL0     H90173   4.501   8.071   1.102 -2.0741  1.4310  0.6525
  668MOL0     H90174   4.657   7.894   1.059 -0.0954  1.5540  0.4461
  668MOL0     H90175   4.525   7.837   0.957 -1.2597 -0.8497  0.7491
  668MOL0     H90176   4.580   7.722   1.238  0.6356 -2.1419  0.8324
  668MOL0     H90177   4.604   7.654   1.075 -2.4455 -0.6785 -1.0280
  668MOL0     H90178   4.202   7.561   1.132 -1.0007  2.0491 -0.6754
  668MOL0     H90179   4.075   7.994   1.001  0.4477 -1.3434 -0.4952
  668MOL0     H90180   3.844   7.957   0.999 -0.4891 -1.0727 -0.1737
  669MOL0     O90181   8.726   3.260   7.521  0.3475  0.1729  0.0320
  669MOL0     C90182   8.741   3.229   7.636 -0.1064 -0.1826  0.0914
  669MOL0     O90183   8.660   3.265   7.741 -0.1928  0.3688 -0.5869
  669MOL0     C90184   8.541   3.326   7.709 -0.8026  0.1340 -0.2801
  669MOL0     C90185   8.415   3.258   7.720  0.3675  0.2228  0.5118
  669MOL0     C90186   8.295   3.325   7.696  0.0263  0.4409  0.0359
  669MOL0     C90187   8.300   3.449   7.643  0.4139 -0.6877 -0.6296
  669MOL0     O90188   8.182   3.511   7.601 -0.6083  1.0808  0.7417
  669MOL0     C90189   8.130   3.452   7.478  0.5420 -0.2350  1.5730
  669MOL0     C90190   7.984   3.465   7.475  1.0619 -0.0869 -0.0374
  669MOL0     C90191   7.901   3.370   7.563  0.1221 -1.0510  0.5615
  669MOL0     C90192   7.760   3.417   7.572 -0.7260 -0.5803  0.8425
  669MOL0     C90193   7.671   3.306   7.623 -0.6210  0.8810  0.0929
  669MOL0     C90194   7.522   3.353   7.627  0.0206  0.1803 -0.3839
  669MOL0     C90195   7.495   3.450   7.749  0.4223 -0.2726 -0.0032
  669MOL0     C90196   7.352   3.487   7.777  0.6187  0.5959  0.5274
  669MOL0     N90197   7.260   3.376   7.768 -0.7217 -0.3536 -0.3741
  669MOL0     C90198   7.238   3.285   7.865 -0.4368  0.5304  0.1186
  669MOL0     C90199   7.141   3.198   7.824  0.1217 -0.0189 -0.0356
  669MOL0     C90200   7.095   3.076   7.909 -0.0597 -1.0812  0.1948
  669MOL0     C90201   6.953   3.096   7.968  0.1087  0.3720  0.1906
  669MOL0     C90202   6.848   3.096   7.865  0.0433 -0.6206 -0.1703
  669MOL0     C90203   6.729   3.187   7.901 -0.2358  0.2707 -0.1642
  669MOL0     O90204   6.657   3.152   8.019 -0.5018  0.2085  0.0477
  669MOL0     C90205   6.544   3.072   7.998  0.4306 -0.5016  0.1385
  669MOL0     C90206   6.447   3.087   8.099  0.0435  0.3328 -0.5115
  669MOL0     C90207   6.324   3.033   8.081 -0.1276  0.4129 -1.1274
  669MOL0     C90208   6.220   3.067   8.184  0.0715  0.0608  0.8600
  669MOL0     C90209   6.301   2.941   7.974  0.4823  0.4926 -0.3229
  669MOL0     C90210   6.164   2.885   7.944 -0.4802  0.2454 -0.1918
  669MOL0     O90211   6.061   2.925   8.017 -0.3663  0.5072 -0.7623
  669MOL0     C90212   5.938   2.915   7.972  0.6044  0.2626 -0.3710
  669MOL0     C90213   5.872   3.015   7.904  0.2409 -0.3308 -0.0206
  669MOL0     C90214   5.743   3.007   7.852 -0.3023  0.2571  0.4513
  669MOL0     C90215   5.674   2.881   7.869 -1.0173  0.0923  0.2582
  669MOL0     O90216   5.558   2.857   7.809 -0.4505  0.3112  0.1288
  669MOL0     C90217   5.461   2.965   7.790 -0.2561 -0.4062  0.2190
  669MOL0     C90218   5.313   2.929   7.750  0.0099 -0.1236  0.0242
  669MOL0     C90219   5.254   2.822   7.838  0.0983 -0.8493  0.0821
  669MOL0     C90220   5.121   2.771   7.789 -0.0213  0.0691  0.8037
  669MOL0     C90221   5.043   2.683   7.897  0.3145 -0.2261 -0.0640
  669MOL0     C90222   4.921   2.623   7.829  0.5724  0.3570 -0.2039
  669MOL0     C90223   4.823   2.573   7.932 -0.3917  0.0874  0.3045
  669MOL0     C90224   4.690   2.502   7.879  0.4727 -0.4453 -0.1027
  669MOL0    Cl90225   4.557   2.610   7.832  0.4024  0.1141  0.2559
  669MOL0     C90226   5.737   2.771   7.926 -0.4475 -0.0878 -1.0055
  669MOL0     C90227   5.864   2.792   7.984  0.3680  0.3828 -0.4998
  669MOL0     O90228   6.156   2.800   7.860  0.0194 -0.2136 -0.4868
  669MOL0     C90229   6.401   2.916   7.880 -0.1110  0.0371  0.1015
  669MOL0     C90230   6.519   2.980   7.896 -0.4757  0.0720 -0.6998
  669MOL0     N90231   7.112   3.248   7.694 -0.3087  0.7369  0.1490
  669MOL0     N90232   7.185   3.350   7.657 -0.3292 -0.0630 -0.1376
  669MOL0     C90233   8.415   3.523   7.636 -0.9083 -0.3859  0.0892
  669MOL0     C90234   8.536   3.468   7.675 -0.5568  0.2533 -0.2158
  669MOL0     C90235   8.860   3.134   7.667  0.8609 -0.6452 -0.4034
  669MOL0     C90236   8.938   3.087   7.560 -0.9287 -1.3521  0.2739
  669MOL0     C90237   9.029   2.984   7.582  1.3556  0.4674 -0.2460
  669MOL0     C90238   9.058   2.933   7.710 -0.4795  0.5168 -0.1760
  669MOL0     O90239   9.147   2.836   7.728 -0.2489  0.2916  0.3597
  669MOL0     C90240   9.219   2.825   7.854  0.0802 -0.1687  0.4607
  669MOL0     C90241   9.375   2.791   7.836  0.5766  0.0249 -0.5438
  669MOL0     C90242   9.406   2.651   7.789  0.6755 -0.1629  0.4656
  669MOL0     C90243   9.379   2.543   7.902  1.1376  0.5091  0.8473
  669MOL0     C90244   9.404   2.407   7.837  0.2878  0.1758 -0.9210
  669MOL0     C90245   9.403   2.291   7.791 -0.3445 -0.2954 -0.1632
  669MOL0     C90246   8.980   2.989   7.818  0.3285  0.3381  0.2624
  669MOL0     C90247   8.880   3.078   7.793  0.4407 -0.0632 -0.7954
  669MOL0     H90248   8.401   3.155   7.750  0.4706  0.2097  0.5172
  669MOL0     H90249   8.208   3.262   7.711  1.2915 -1.3273  0.3885
  669MOL0     H90250   8.176   3.497   7.389 -1.1149 -0.2198  0.6785
  669MOL0     H90251   8.140   3.343   7.482 -4.2021 -1.0454 -0.9406
  669MOL0     H90252   7.961   3.569   7.499 -0.9531 -0.1597 -1.4437
  669MOL0     H90253   7.958   3.450   7.370 -0.1803 -0.6996  0.3436
  669MOL0     H90254   7.912   3.268   7.524 -1.3322 -1.1828  0.4528
  669MOL0     H90255   7.944   3.371   7.663  3.0760 -0.2326 -0.6087
  669MOL0     H90256   7.764   3.504   7.638  2.3570  0.0438  0.0074
  669MOL0     H90257   7.727   3.455   7.475  0.1995 -0.7955  0.4290
  669MOL0     H90258   7.677   3.215   7.562  1.0658  1.2139 -0.2891
  669MOL0     H90259   7.704   3.272   7.721 -0.2337 -1.6633 -0.8554
  669MOL0     H90260   7.491   3.398   7.532  1.8996 -0.1705 -1.2083
  669MOL0     H90261   7.470   3.258   7.636  0.1384  0.2390  1.1711
  669MOL0     H90262   7.539   3.405   7.838 -0.2998 -0.6914  0.1481
  669MOL0     H90263   7.548   3.545   7.733 -0.9488  0.1498 -2.5383
  669MOL0     H90264   7.325   3.553   7.694  0.3956  2.1295  1.7572
  669MOL0     H90265   7.342   3.550   7.867 -1.2932 -0.1988  0.9059
  669MOL0     H90266   7.281   3.279   7.965 -0.2057  0.5879  0.0232
  669MOL0     H90267   7.107   2.981   7.856  2.3870 -1.5734  1.4537
  669MOL0     H90268   7.168   3.063   7.989  2.6026 -2.4825 -2.2706
  669MOL0     H90269   6.954   3.185   8.032 -0.4632 -0.8548  2.0078
  669MOL0     H90270   6.930   3.016   8.040  1.7405  0.6865  1.1042
  669MOL0     H90271   6.808   2.994   7.861 -0.2988 -0.4627 -0.9965
  669MOL0     H90272   6.883   3.105   7.762 -1.0893 -2.7243 -0.8012
  669MOL0     H90273   6.655   3.190   7.821  1.1894  2.2032 -1.5310
  669MOL0     H90274   6.769   3.288   7.915  0.3224 -0.1855  1.8813
  669MOL0     H90275   6.468   3.149   8.186  0.3949  0.7815 -0.9103
  669MOL0     H90276   6.146   3.138   8.148  0.3372  0.1326  0.4503
  669MOL0     H90277   6.174   2.971   8.212  0.1908 -0.3391 -0.2547
  669MOL0     H90278   6.279   3.114   8.263  0.1878  0.1862  0.6961
  669MOL0     H90279   5.918   3.113   7.894 -1.7312  0.4232 -3.5549
  669MOL0     H90280   5.693   3.092   7.808  2.7940  2.7596  1.4337
  669MOL0     H90281   5.452   3.024   7.882  0.8361  0.7287 -0.3616
  669MOL0     H90282   5.499   3.034   7.714 -0.3994 -1.0006 -0.3948
  669MOL0     H90283   5.248   3.016   7.759 -0.6481 -0.7685  2.0411
  669MOL0     H90284   5.307   2.892   7.647 -3.2148  1.4594 -0.4673
  669MOL0     H90285   5.241   2.876   7.932  1.6534  1.1087 -0.7499
  669MOL0     H90286   5.319   2.737   7.860 -0.0507 -1.1103 -0.4537
  669MOL0     H90287   5.052   2.850   7.758  0.9020  1.1096  1.3269
  669MOL0     H90288   5.139   2.717   7.695 -1.7331 -1.9918  1.5812
  669MOL0     H90289   5.009   2.748   7.977 -1.0254  1.6022 -2.0119
  669MOL0     H90290   5.111   2.604   7.931 -1.1686 -0.6392  2.1323
  669MOL0     H90291   4.876   2.708   7.776 -1.1097  0.2812  1.0113
  669MOL0     H90292   4.946   2.545   7.757 -1.7126  2.3144 -3.3958
  669MOL0     H90293   4.795   2.652   8.002  3.0756  0.2941  1.6432
  669MOL0     H90294   4.871   2.494   7.990 -1.8320 -1.5234 -0.5868
  669MOL0     H90295   4.645   2.437   7.956 -3.6012 -0.9182 -2.5998
  669MOL0     H90296   4.726   2.443   7.794 -0.1293  2.7318 -2.7379
  669MOL0     H90297   5.682   2.677   7.921 -2.9362  1.0559  2.0048
  669MOL0     H90298   5.910   2.705   8.029 -1.8888 -0.6873 -0.0863
  669MOL0     H90299   6.392   2.844   7.799  0.3909  0.9422 -0.7880
  669MOL0     H90300   6.587   2.979   7.812 -1.2565  2.6182 -1.4497
  669MOL0     H90301   8.411   3.622   7.591  0.0412 -0.6195 -0.5306
  669MOL0     H90302   8.631   3.522   7.676  0.3022 -1.1580 -1.3243
  669MOL0     H90303   8.941   3.138   7.464  4.2542 -0.5834  0.5453
  669MOL0     H90304   9.092   2.947   7.501  0.3775  0.1325 -0.8737
  669MOL0     H90305   9.215   2.923   7.901  0.5744  1.1533 -2.0876
  669MOL0     H90306   9.170   2.745   7.911 -1.0883  1.1213  1.3256
  669MOL0     H90307   9.425   2.803   7.933 -0.1133 -0.5085 -0.1117
  669MOL0     H90308   9.423   2.860   7.766  1.2533  0.7879  0.6400
  669MOL0     H90309   9.514   2.647   7.770  0.5978 -1.0670  0.1404
  669MOL0     H90310   9.351   2.636   7.696  1.8214  1.4639 -0.5072
  669MOL0     H90311   9.278   2.557   7.940  1.0655 -1.0150  1.3012
  669MOL0     H90312   9.448   2.548   7.986  1.5193 -1.4619  0.7053
  669MOL0     H90313   9.407   2.189   7.758  1.4007  0.1592 -1.5053
  669MOL0     H90314   8.995   2.948   7.918  3.5390 -0.3136 -0.3685
  669MOL0     H90315   8.834   3.126   7.879  1.7908  0.4874 -0.3418
  670MOL0     O90316   2.068   4.442   7.805  0.7096  1.1133  0.0596
  670MOL0     C90317   2.135   4.520   7.867  0.0915 -0.8356 -1.0001
  670MOL0     O90318   2.090   4.636   7.923 -0.6410  0.4248 -0.0323
  670MOL0     C90319   1.961   4.677   7.933  0.4625 -0.7903 -0.1488
  670MOL0     C90320   1.844   4.609   7.896 -0.1525  0.1998 -0.5886
  670MOL0     C90321   1.714   4.667   7.939 -0.5904 -0.4941 -0.2964
  670MOL0     C90322   1.708   4.792   7.998  0.9336 -0.6987  0.5993
  670MOL0     O90323   1.589   4.859   8.033 -0.2734  0.1265  0.5211
  670MOL0     C90324   1.524   4.921   7.918 -0.0630  0.2384  0.9290
  670MOL0     C90325   1.434   5.039   7.940  0.3704 -0.2090  0.0138
  670MOL0     C90326   1.320   5.003   8.033  0.4825  0.0037 -0.0168
  670MOL0     C90327   1.238   4.883   7.984  1.2833 -0.0206 -0.2970
  670MOL0     C90328   1.105   4.871   8.062  0.1344  0.3351  0.2187
  670MOL0     C90329   1.020   4.751   7.999 -0.9821 -0.6757 -0.3349
  670MOL0     C90330   0.892   4.733   8.081  0.7745 -0.1534  0.1188
  670MOL0     C90331   0.793   4.628   8.015 -0.2106 -0.7019  0.6477
  670MOL0     N90332   0.667   4.590   8.089 -0.3848 -0.7387 -0.2854
  670MOL0     C90333   0.597   4.675   8.176  0.1902 -0.6298  0.4434
  670MOL0     C90334   0.516   4.588   8.239 -0.3871 -0.6749  0.1938
  670MOL0     C90335   0.435   4.634   8.361  0.3403 -0.1043 -0.0237
  670MOL0     C90336   0.298   4.585   8.347  0.0550 -0.5558 -0.0121
  670MOL0     C90337   0.229   4.597   8.481  0.7522 -0.7865 -0.1676
  670MOL0     C90338   0.092   4.531   8.470  0.5296  0.2429 -0.2638
  670MOL0     O90339   0.021   4.547   8.590  0.3579  0.3424 -0.3700
  670MOL0     C90340  -0.111   4.509   8.592 -0.5801  0.0167 -0.1756
  670MOL0     C90341  -0.186   4.547   8.702 -0.0927 -0.0885  0.0409
  670MOL0     C90342  -0.319   4.518   8.726 -0.0167  0.6025 -0.3342
  670MOL0     C90343  -0.398   4.547   8.855  0.0114  0.1713 -0.5785
  670MOL0     C90344  -0.390   4.458   8.620  0.5686  0.2610 -0.6845
  670MOL0     C90345  -0.537   4.430   8.620 -0.5224  0.3311  0.4479
  670MOL0     O90346  -0.592   4.379   8.733  0.9866 -0.6256  0.0881
  670MOL0     C90347  -0.734   4.367   8.743 -0.4335 -0.1669 -0.1186
  670MOL0     C90348  -0.807   4.301   8.646  0.4012  0.2492  0.3888
  670MOL0     C90349  -0.947   4.286   8.646 -0.6355  0.5374 -0.1033
  670MOL0     C90350  -1.020   4.342   8.745 -0.5632 -0.4055 -0.3791
  670MOL0     O90351  -1.151   4.327   8.773 -0.8841 -0.3204 -0.3203
  670MOL0     C90352  -1.243   4.313   8.658 -0.0687  0.3326  0.1210
  670MOL0     C90353  -1.385   4.313   8.711  0.2739  0.3167  0.6179
  670MOL0     C90354  -1.493   4.270   8.602 -0.0088  0.6658 -0.5148
  670MOL0     C90355  -1.607   4.202   8.683 -0.2802 -0.9184 -0.3200
  670MOL0     C90356  -1.728   4.156   8.597  0.5922 -0.5143  0.4927
  670MOL0     C90357  -1.688   4.067   8.477 -0.4391  0.4443 -0.2765
  670MOL0     C90358  -1.808   4.042   8.376 -1.1092  0.6430  0.3871
  670MOL0     C90359  -1.910   3.947   8.429 -0.1220  0.4956  0.1962
  670MOL0    Cl90360  -2.040   4.032   8.511 -0.1031 -0.3135  0.0653
  670MOL0     C90361  -0.945   4.414   8.847  0.5532  0.2125  0.6442
  670MOL0     C90362  -0.804   4.426   8.847  0.5997 -0.1935  0.9157
  670MOL0     O90363  -0.600   4.460   8.518 -0.0253 -0.8960 -0.7231
  670MOL0     C90364  -0.320   4.429   8.501  0.0725  0.2587  0.1767
  670MOL0     C90365  -0.179   4.452   8.486  0.7202 -0.3478 -0.0831
  670MOL0     N90366   0.543   4.461   8.193 -0.3935  0.9124  0.0396
  670MOL0     N90367   0.639   4.461   8.106  0.5730  0.4613  1.0675
  670MOL0     C90368   1.827   4.848   8.045 -0.0379  0.8785  0.4201
  670MOL0     C90369   1.950   4.791   8.015 -0.0705 -0.0909 -0.2498
  670MOL0     C90370   2.281   4.483   7.877  0.5177 -0.7215  0.2312
  670MOL0     C90371   2.324   4.358   7.852 -0.3985  0.2494  0.7471
  670MOL0     C90372   2.459   4.324   7.865  0.2704  0.5319 -0.6366
  670MOL0     C90373   2.554   4.419   7.912  0.1632 -0.0664  0.4475
  670MOL0     O90374   2.684   4.371   7.919  0.1535  1.5268  0.5707
  670MOL0     C90375   2.792   4.457   7.939  0.0927 -0.1122 -0.1711
  670MOL0     C90376   2.829   4.551   7.827  0.0167  0.6936  0.1898
  670MOL0     C90377   2.860   4.467   7.697  0.5005 -0.3496 -0.2420
  670MOL0     C90378   2.921   4.567   7.592 -0.4029  0.7831 -0.3890
  670MOL0     C90379   2.970   4.493   7.474  0.8497  0.6764  0.2543
  670MOL0     C90380   2.987   4.434   7.363 -0.2702 -0.0207  0.1789
  670MOL0     C90381   2.510   4.548   7.953 -0.5846 -0.2346  0.2925
  670MOL0     C90382   2.373   4.580   7.933  0.8832  1.0390  0.2643
  670MOL0     H90383   1.835   4.515   7.841 -3.3953  0.1904 -0.2111
  670MOL0     H90384   1.624   4.619   7.902 -0.9854 -0.9237  1.1526
  670MOL0     H90385   1.593   4.949   7.838  0.3628 -0.9677  0.8628
  670MOL0     H90386   1.469   4.842   7.866  0.2996  0.8391 -0.4133
  670MOL0     H90387   1.497   5.124   7.967  1.4891 -0.1349 -2.5313
  670MOL0     H90388   1.384   5.064   7.846  1.2576 -0.4722 -0.5372
  670MOL0     H90389   1.369   4.965   8.123 -1.6649 -1.8056  0.4543
  670MOL0     H90390   1.261   5.092   8.058  1.0626  0.0764  1.1718
  670MOL0     H90391   1.214   4.882   7.877 -0.0522 -0.1725 -0.0199
  670MOL0     H90392   1.288   4.786   7.996  0.3826 -0.9601 -3.2269
  670MOL0     H90393   1.129   4.844   8.165 -1.1355 -0.3248  0.3620
  670MOL0     H90394   1.052   4.967   8.055 -2.4039 -1.0397 -0.9031
  670MOL0     H90395   1.002   4.765   7.892  2.7762 -0.1494 -1.0344
  670MOL0     H90396   1.076   4.658   8.015  3.2134  1.9988  2.8620
  670MOL0     H90397   0.922   4.711   8.184  1.8307 -1.8553 -0.5074
  670MOL0     H90398   0.836   4.827   8.083 -0.3549 -0.8006 -0.1367
  670MOL0     H90399   0.852   4.537   8.007  0.3270 -0.2927 -0.1011
  670MOL0     H90400   0.765   4.666   7.916 -0.9959 -2.1278  0.3054
  670MOL0     H90401   0.595   4.781   8.197 -2.2658 -0.4811 -0.2294
  670MOL0     H90402   0.482   4.592   8.451  1.5028 -1.1888 -1.1074
  670MOL0     H90403   0.433   4.742   8.379  1.3508 -0.2676  1.2040
  670MOL0     H90404   0.296   4.481   8.314  2.6157 -0.4852 -0.5911
  670MOL0     H90405   0.245   4.645   8.273  1.0303 -2.4190 -2.3786
  670MOL0     H90406   0.213   4.704   8.498 -1.0236 -0.5298 -2.7728
  670MOL0     H90407   0.286   4.550   8.561 -0.5765 -0.0271  1.2682
  670MOL0     H90408   0.099   4.424   8.453  0.2284  0.0716  0.6111
  670MOL0     H90409   0.036   4.575   8.387 -0.1873 -1.1359 -0.5300
  670MOL0     H90410  -0.127   4.601   8.775 -1.5364 -2.4037  3.1292
  670MOL0     H90411  -0.395   4.455   8.915  1.5682  0.2097 -0.5433
  670MOL0     H90412  -0.339   4.619   8.913  0.7126  0.2890 -1.4189
  670MOL0     H90413  -0.499   4.587   8.846 -0.9786 -1.7343  1.1549
  670MOL0     H90414  -0.751   4.268   8.559  0.1869  1.2723 -0.1444
  670MOL0     H90415  -1.004   4.222   8.578  0.5345  0.2984 -0.8986
  670MOL0     H90416  -1.229   4.387   8.579 -0.1671 -0.3220 -0.5179
  670MOL0     H90417  -1.208   4.220   8.612  3.3570  1.8804 -0.6908
  670MOL0     H90418  -1.388   4.245   8.796  4.2301 -1.5920 -0.4942
  670MOL0     H90419  -1.430   4.408   8.741 -2.5494 -0.7918  0.1302
  670MOL0     H90420  -1.442   4.200   8.534 -2.5373 -1.7174 -0.1362
  670MOL0     H90421  -1.526   4.354   8.541 -1.1516  1.5119  1.2060
  670MOL0     H90422  -1.557   4.120   8.736  0.7557  0.3481  0.7412
  670MOL0     H90423  -1.643   4.269   8.762 -0.1855 -2.2956  0.9412
  670MOL0     H90424  -1.777   4.247   8.561  0.0993 -0.1269  2.0416
  670MOL0     H90425  -1.794   4.095   8.659 -0.0780  0.0727  0.3760
  670MOL0     H90426  -1.615   4.117   8.413 -0.2304  1.3894  0.6704
  670MOL0     H90427  -1.638   3.976   8.510  1.5570  1.7818  0.5810
  670MOL0     H90428  -1.772   4.000   8.282 -2.6631 -1.4520  0.6689
  670MOL0     H90429  -1.851   4.135   8.337  0.0530  0.1038 -2.4380
  670MOL0     H90430  -1.875   3.866   8.494 -0.0192  1.2143  1.0509
  670MOL0     H90431  -1.953   3.890   8.345 -1.1439  1.4968  0.0203
  670MOL0     H90432  -0.999   4.444   8.937 -1.4998 -0.5885 -0.2676
  670MOL0     H90433  -0.748   4.489   8.916 -3.5390  0.9397  3.6304
  670MOL0     H90434  -0.362   4.368   8.421 -1.6219  0.9341  0.5159
  670MOL0     H90435  -0.137   4.425   8.390  0.9669  3.9851 -1.4240
  670MOL0     H90436   1.815   4.937   8.107  0.5422  0.7431  0.7331
  670MOL0     H90437   2.037   4.836   8.061 -0.7457  0.6352  0.3400
  670MOL0     H90438   2.261   4.276   7.819  1.0707 -0.0659 -1.5428
  670MOL0     H90439   2.488   4.220   7.861 -1.7655 -0.2193  1.7490
  670MOL0     H90440   2.781   4.527   8.022  5.8242  0.9237  0.1178
  670MOL0     H90441   2.876   4.396   7.972  0.4931 -0.3109 -1.4730
  670MOL0     H90442   2.913   4.618   7.846  0.2811  1.0337 -1.8894
  670MOL0     H90443   2.739   4.613   7.824 -1.6531 -1.6245  0.0566
  670MOL0     H90444   2.768   4.426   7.654 -0.6561  1.0947  0.7506
  670MOL0     H90445   2.929   4.384   7.715  0.6560 -1.2997 -4.3219
  670MOL0     H90446   3.008   4.618   7.635  1.2378  0.4258 -3.0853
  670MOL0     H90447   2.856   4.648   7.560 -0.5381  0.7122 -0.2965
  670MOL0     H90448   2.999   4.369   7.279  2.3601  0.7719 -0.1630
  670MOL0     H90449   2.584   4.611   8.000 -0.6436 -1.4866  2.1873
  670MOL0     H90450   2.332   4.673   7.970 -2.2142 -0.5502  1.1637
  671MOL0     O90451   4.619   7.200   5.887  0.9412  0.3514 -0.7232
  671MOL0     C90452   4.691   7.248   5.800  0.6682 -0.1286  0.0787
  671MOL0     O90453   4.654   7.262   5.668  0.9989  0.0574  0.0123
  671MOL0     C90454   4.542   7.196   5.624 -0.3103 -0.5362 -0.5513
  671MOL0     C90455   4.556   7.075   5.551  0.7064  0.0422  0.7417
  671MOL0     C90456   4.435   7.021   5.500  0.8568 -0.5534  0.0707
  671MOL0     C90457   4.305   7.071   5.524 -0.1193  0.5386  0.6242
  671MOL0     O90458   4.193   7.009   5.469  0.5525  0.2146  0.0184
  671MOL0     C90459   4.069   7.075   5.498  0.4288 -0.0947 -0.2001
  671MOL0     C90460   3.961   6.984   5.451  0.9550  0.6278 -0.1721
  671MOL0     C90461   3.937   7.016   5.305 -0.0914  0.3085 -0.8100
  671MOL0     C90462   3.841   7.132   5.284 -0.0219  0.2595  0.2249
  671MOL0     C90463   3.815   7.154   5.132  0.1034  0.2907 -0.4292
  671MOL0     C90464   3.709   7.272   5.109 -0.6579  1.1641 -0.5773
  671MOL0     C90465   3.560   7.238   5.141  0.2120 -0.1524 -0.8034
  671MOL0     C90466   3.462   7.342   5.095  0.1185  0.2995 -0.4261
  671MOL0     N90467   3.322   7.302   5.135 -0.4625 -0.3411 -0.2275
  671MOL0     C90468   3.256   7.196   5.080  0.1930 -0.2563 -0.2484
  671MOL0     C90469   3.129   7.201   5.124  0.1535 -0.2550  0.3009
  671MOL0     C90470   3.020   7.110   5.081 -0.2744 -0.3251 -0.2196
  671MOL0     C90471   2.888   7.157   5.136 -0.4934 -0.0621 -0.1150
  671MOL0     C90472   2.766   7.062   5.095 -0.1521 -0.3218  0.2584
  671MOL0     C90473   2.632   7.099   5.160  0.2592 -0.2188 -0.1933
  671MOL0     O90474   2.650   7.149   5.294  0.4756  0.0507  0.2049
  671MOL0     C90475   2.538   7.167   5.369  0.7626 -0.0475  0.5171
  671MOL0     C90476   2.552   7.210   5.501 -0.8789 -0.5274 -0.1495
  671MOL0     C90477   2.449   7.226   5.590  0.5486  0.6220  0.3914
  671MOL0     C90478   2.486   7.245   5.734  0.3524  0.6802  1.0320
  671MOL0     C90479   2.309   7.213   5.540  0.5859  0.3816  0.6991
  671MOL0     C90480   2.189   7.215   5.626  0.2533  0.4141  0.4338
  671MOL0     O90481   2.206   7.283   5.737  0.4739 -0.5179  0.2475
  671MOL0     C90482   2.098   7.287   5.824  0.5639 -0.6479  0.7022
  671MOL0     C90483   2.118   7.246   5.957  0.1582  0.2349 -0.5942
  671MOL0     C90484   2.019   7.259   6.059  0.2575 -0.0070 -0.4789
  671MOL0     C90485   1.892   7.307   6.018  0.5191  0.0550  0.4723
  671MOL0     O90486   1.776   7.310   6.097 -0.1722  0.6372 -0.2192
  671MOL0     C90487   1.770   7.216   6.203  0.1452 -0.5099  0.1771
  671MOL0     C90488   1.631   7.205   6.261 -0.2564 -0.7279  0.4697
  671MOL0     C90489   1.523   7.105   6.188 -0.4405 -0.4495 -0.0961
  671MOL0     C90490   1.393   7.089   6.272  0.0547 -0.9394 -1.1806
  671MOL0     C90491   1.317   6.967   6.211 -0.6536  0.0234  0.4487
  671MOL0     C90492   1.192   6.938   6.298 -0.3184  0.6545 -0.0305
  671MOL0     C90493   1.144   6.786   6.290  0.0895  0.7403  0.2766
  671MOL0     C90494   1.054   6.745   6.403  0.2213  0.6110  0.2651
  671MOL0    Cl90495   0.890   6.811   6.389  0.2321  0.3212 -0.1253
  671MOL0     C90496   1.865   7.337   5.883 -0.3871 -0.0760 -0.3172
  671MOL0     C90497   1.967   7.333   5.790 -0.4949 -0.3166  0.3546
  671MOL0     O90498   2.094   7.139   5.606  0.1605 -0.2859  0.2656
  671MOL0     C90499   2.295   7.169   5.409 -0.9611  0.1012  0.1115
  671MOL0     C90500   2.410   7.141   5.330  0.1048 -0.2062  0.7933
  671MOL0     N90501   3.121   7.302   5.220 -1.2493 -0.1792 -0.1404
  671MOL0     N90502   3.238   7.361   5.223 -0.1998  0.5090  0.2072
  671MOL0     C90503   4.298   7.197   5.595 -0.3609  0.4041 -0.3495
  671MOL0     C90504   4.419   7.255   5.640  1.0554  0.3545  0.3511
  671MOL0     C90505   4.818   7.304   5.843  0.0340 -0.5525 -0.1709
  671MOL0     C90506   4.839   7.330   5.979 -0.0791 -0.4190  0.1661
  671MOL0     C90507   4.960   7.388   6.014  0.1612  0.8569  0.2130
  671MOL0     C90508   5.057   7.426   5.925 -0.3629  0.0882  0.2838
  671MOL0     O90509   5.174   7.468   5.981 -0.6498  0.1676  0.3982
  671MOL0     C90510   5.294   7.484   5.897  1.4982 -0.7894 -0.6583
  671MOL0     C90511   5.413   7.479   5.993  0.8648 -0.0932 -0.4968
  671MOL0     C90512   5.551   7.493   5.924 -0.2884  0.4127 -0.2240
  671MOL0     C90513   5.665   7.445   6.013  0.5794  1.1658 -0.4252
  671MOL0     C90514   5.682   7.526   6.130 -0.5096  0.6179 -0.7422
  671MOL0     C90515   5.693   7.576   6.237 -0.7856 -0.1170  1.2952
  671MOL0     C90516   5.030   7.406   5.789 -0.0967 -0.7093  0.6665
  671MOL0     C90517   4.914   7.336   5.742 -0.6747 -0.4836  0.6541
  671MOL0     H90518   4.649   7.021   5.543  1.6490  1.7544 -0.5090
  671MOL0     H90519   4.438   6.926   5.448  0.6538 -1.3646  1.4776
  671MOL0     H90520   4.059   7.080   5.607  0.8756 -1.4918 -0.0809
  671MOL0     H90521   4.066   7.169   5.442 -0.9727 -0.5621 -0.9582
  671MOL0     H90522   3.991   6.880   5.470  0.5353  0.5139 -0.1364
  671MOL0     H90523   3.867   7.001   5.504  0.2036  0.8404 -1.5162
  671MOL0     H90524   4.031   7.043   5.255  0.1906  0.9508  0.0508
  671MOL0     H90525   3.904   6.921   5.261  1.4873 -0.6896  0.0626
  671MOL0     H90526   3.745   7.115   5.333  0.7687 -0.7348  1.5318
  671MOL0     H90527   3.887   7.214   5.341  2.3126 -2.3119  2.4069
  671MOL0     H90528   3.913   7.177   5.089  0.2772 -0.3084 -0.3551
  671MOL0     H90529   3.777   7.056   5.103  0.0952 -0.5399  2.1156
  671MOL0     H90530   3.741   7.362   5.162  0.5094  2.0814 -2.6942
  671MOL0     H90531   3.705   7.291   5.001  0.1017 -1.5988 -1.1856
  671MOL0     H90532   3.534   7.140   5.098 -0.5429 -1.3873  2.2070
  671MOL0     H90533   3.560   7.221   5.249 -0.4048 -2.4309 -1.1093
  671MOL0     H90534   3.472   7.357   4.987 -1.2737 -2.4098 -1.0158
  671MOL0     H90535   3.479   7.433   5.152 -1.2132  0.0404  0.4138
  671MOL0     H90536   3.303   7.129   5.009  0.6571  0.4565 -0.6248
  671MOL0     H90537   3.016   7.113   4.972 -1.0971  1.3498 -0.1627
  671MOL0     H90538   3.043   7.011   5.121 -1.4416 -0.8589 -0.8418
  671MOL0     H90539   2.878   7.261   5.104  1.7122  0.5474  0.9565
  671MOL0     H90540   2.897   7.150   5.245  2.9517 -2.1384 -0.3809
  671MOL0     H90541   2.802   6.960   5.113  2.0464  0.1555 -1.0308
  671MOL0     H90542   2.767   7.077   4.987  0.9531  0.2534  0.3396
  671MOL0     H90543   2.590   6.999   5.174  1.6319 -0.4629  3.3616
  671MOL0     H90544   2.564   7.160   5.100 -0.8390  0.1572  1.3791
  671MOL0     H90545   2.651   7.221   5.546 -2.3501  0.0144  3.2774
  671MOL0     H90546   2.590   7.234   5.765  0.5479  2.5971  1.1835
  671MOL0     H90547   2.449   7.346   5.755  1.0362  1.5519 -1.5308
  671MOL0     H90548   2.433   7.171   5.795 -1.3392  0.6090 -0.4371
  671MOL0     H90549   2.214   7.215   5.997 -0.0309 -0.2334 -0.4935
  671MOL0     H90550   2.027   7.240   6.166 -1.1585 -1.4379 -0.5896
  671MOL0     H90551   1.809   7.120   6.168  1.6275 -0.2889  1.0883
  671MOL0     H90552   1.833   7.243   6.289 -0.1413 -0.5432  0.3993
  671MOL0     H90553   1.657   7.166   6.360 -1.4933 -0.9829  0.7047
  671MOL0     H90554   1.586   7.304   6.266  0.5353 -0.2486 -1.2854
  671MOL0     H90555   1.578   7.011   6.180 -2.3995 -1.4849 -2.5624
  671MOL0     H90556   1.502   7.131   6.084 -5.9338 -0.2245  0.7624
  671MOL0     H90557   1.420   7.062   6.375  1.5727  0.9317 -1.0433
  671MOL0     H90558   1.333   7.180   6.271  1.2562 -0.1095 -0.7307
  671MOL0     H90559   1.386   6.883   6.225 -2.8111 -1.6159  2.0513
  671MOL0     H90560   1.290   6.975   6.105 -0.5001  0.2117  0.4236
  671MOL0     H90561   1.211   6.973   6.399  0.2437  1.4396 -0.3968
  671MOL0     H90562   1.109   7.003   6.270  0.6987  1.2294 -1.8924
  671MOL0     H90563   1.229   6.717   6.291  3.0456  4.0799  0.0318
  671MOL0     H90564   1.082   6.774   6.201  0.9016 -2.1275 -0.0094
  671MOL0     H90565   1.097   6.755   6.503  0.1472  0.8296  0.2758
  671MOL0     H90566   1.044   6.636   6.394  2.0914  0.3566  1.0253
  671MOL0     H90567   1.766   7.365   5.850 -0.9663 -0.8605  0.7123
  671MOL0     H90568   1.951   7.378   5.693 -2.4521 -1.6231  0.0166
  671MOL0     H90569   2.196   7.149   5.368 -1.3426 -2.1176  1.9222
  671MOL0     H90570   2.382   7.099   5.234  0.9530  1.0276 -0.0104
  671MOL0     H90571   4.213   7.263   5.604  0.3901  1.2914  0.5126
  671MOL0     H90572   4.411   7.353   5.685  1.3251  0.2397  0.6510
  671MOL0     H90573   4.767   7.299   6.055 -0.7691  3.1792  1.1765
  671MOL0     H90574   4.979   7.383   6.121 -1.2007 -3.8240  0.4643
  671MOL0     H90575   5.296   7.405   5.821  1.0304 -0.9499 -0.5128
  671MOL0     H90576   5.295   7.581   5.847  0.2310 -1.2087 -1.5581
  671MOL0     H90577   5.408   7.384   6.047 -0.8046  1.5260  2.4922
  671MOL0     H90578   5.405   7.560   6.067 -0.2764  2.0364 -2.7874
  671MOL0     H90579   5.577   7.592   5.885 -4.7458  0.5549 -3.5652
  671MOL0     H90580   5.547   7.431   5.834 -0.5268  1.5553 -1.0330
  671MOL0     H90581   5.750   7.441   5.945  0.6508  0.2047 -0.2940
  671MOL0     H90582   5.657   7.344   6.054  0.7773  1.5092  0.4956
  671MOL0     H90583   5.703   7.622   6.333 -1.1538  1.4789  0.6111
  671MOL0     H90584   5.107   7.433   5.717  1.1462 -4.3327  0.4215
  671MOL0     H90585   4.891   7.318   5.638  2.4814  3.1777 -0.9174
  672MOL0     O90586   4.769   5.426   9.269  0.5621  0.1690  0.1309
  672MOL0     C90587   4.874   5.437   9.205  0.6748 -0.2767  0.4799
  672MOL0     O90588   4.900   5.363   9.087 -0.0601 -0.5584  0.5177
  672MOL0     C90589   4.812   5.288   9.019  0.2094 -0.5238  0.1393
  672MOL0     C90590   4.871   5.176   8.956  0.0690 -0.0708  0.8925
  672MOL0     C90591   4.786   5.088   8.894 -0.3051  0.0413  0.6671
  672MOL0     C90592   4.647   5.091   8.905 -0.1849  0.3625  0.5085
  672MOL0     O90593   4.565   5.000   8.839  0.5380 -0.1478 -0.3312
  672MOL0     C90594   4.607   4.868   8.803  0.9245  0.6194 -0.1756
  672MOL0     C90595   4.483   4.792   8.741 -0.8716  0.5315 -0.9040
  672MOL0     C90596   4.453   4.857   8.612  0.1818  0.1261  0.4108
  672MOL0     C90597   4.373   4.756   8.522 -0.6786 -0.9067  0.1140
  672MOL0     C90598   4.334   4.827   8.387 -0.0897  0.2031  0.4389
  672MOL0     C90599   4.239   4.945   8.398  0.2794 -0.0509  0.5222
  672MOL0     C90600   4.212   5.022   8.268  0.8767 -0.4221  0.5324
  672MOL0     C90601   4.112   5.137   8.295  0.2051  0.3423  0.4594
  672MOL0     N90602   3.979   5.091   8.326 -0.2387  0.4767 -0.4579
  672MOL0     C90603   3.869   5.080   8.236  0.1368  0.7404  0.1317
  672MOL0     C90604   3.760   5.060   8.312  0.2635 -0.6645 -0.5262
  672MOL0     C90605   3.619   5.015   8.270  0.7444  0.1630  0.3868
  672MOL0     C90606   3.508   5.009   8.368 -0.5482 -0.8380 -0.8194
  672MOL0     C90607   3.391   4.938   8.295  0.4640  0.3496  0.1498
  672MOL0     C90608   3.267   4.931   8.382 -0.2089  0.1116 -0.1986
  672MOL0     O90609   3.155   4.871   8.309 -0.0169  0.1991  0.0626
  672MOL0     C90610   3.024   4.881   8.358  0.1742 -0.4274  0.5406
  672MOL0     C90611   2.922   4.861   8.267 -0.3829 -0.2201  0.5523
  672MOL0     C90612   2.789   4.871   8.300  1.2202 -0.2693  0.4225
  672MOL0     C90613   2.687   4.840   8.188  0.1143  0.8070 -0.3485
  672MOL0     C90614   2.754   4.902   8.434  0.0021 -0.9347  0.5318
  672MOL0     C90615   2.615   4.911   8.483 -0.7561  0.3038 -0.1539
  672MOL0     O90616   2.509   4.897   8.393  0.7537 -0.6372 -0.0241
  672MOL0     C90617   2.381   4.875   8.435  1.0655 -0.0074 -0.2691
  672MOL0     C90618   2.286   4.888   8.334  0.5797 -0.6739 -0.2076
  672MOL0     C90619   2.153   4.864   8.355 -0.7281  0.1455 -0.0210
  672MOL0     C90620   2.106   4.818   8.478 -0.5558 -0.7715  0.3175
  672MOL0     O90621   1.972   4.791   8.507 -0.4381 -0.8932  0.4918
  672MOL0     C90622   1.883   4.859   8.421  0.4839 -0.1386  0.7650
  672MOL0     C90623   1.750   4.890   8.504  0.1809  0.4580  0.2755
  672MOL0     C90624   1.780   5.001   8.596  0.6394  0.0471  0.1351
  672MOL0     C90625   1.649   5.051   8.659  0.2863 -0.0339  0.6331
  672MOL0     C90626   1.576   4.957   8.756 -0.5897  0.0311  0.2587
  672MOL0     C90627   1.455   5.014   8.831  0.1719 -0.5397 -0.5534
  672MOL0     C90628   1.467   5.154   8.893  0.4235  0.6126 -0.1187
  672MOL0     C90629   1.401   5.265   8.815 -1.1689 -0.0817  0.9147
  672MOL0    Cl90630   1.227   5.239   8.800  0.3859  0.6815  0.1339
  672MOL0     C90631   2.202   4.796   8.580 -0.2860  0.2650  0.4965
  672MOL0     C90632   2.339   4.826   8.561 -0.0776 -0.5411  0.2613
  672MOL0     O90633   2.605   4.927   8.607 -0.0283  0.1224 -0.5018
  672MOL0     C90634   2.858   4.939   8.526  0.1775 -0.3195  0.7965
  672MOL0     C90635   2.990   4.930   8.485 -0.0604 -0.6078  0.2970
  672MOL0     N90636   3.802   5.055   8.448 -0.4427  0.7315 -0.4485
  672MOL0     N90637   3.928   5.084   8.449  0.4364  0.9908  0.6681
  672MOL0     C90638   4.591   5.197   8.964 -0.4978 -0.6095 -0.3806
  672MOL0     C90639   4.670   5.296   9.027 -0.4561 -0.2220 -0.7966
  672MOL0     C90640   4.975   5.529   9.248 -0.2354  0.2746 -0.5640
  672MOL0     C90641   5.087   5.538   9.163 -0.3093  0.0240 -0.0615
  672MOL0     C90642   5.195   5.624   9.195 -0.8609 -0.4813 -0.2020
  672MOL0     C90643   5.184   5.712   9.302 -0.6599  1.1396  0.1243
  672MOL0     O90644   5.287   5.802   9.326  0.1178  0.5121  0.1536
  672MOL0     C90645   5.306   5.857   9.459  0.0694 -0.5778  0.4697
  672MOL0     C90646   5.242   5.997   9.465  0.2596  0.6698 -0.0996
  672MOL0     C90647   5.230   6.054   9.609  0.8144  0.0214  0.0410
  672MOL0     C90648   5.353   6.084   9.697  0.0458 -0.1671  0.3847
  672MOL0     C90649   5.484   6.108   9.623  0.6063 -0.0158  1.6395
  672MOL0     C90650   5.582   6.110   9.550 -0.3004 -0.2141  0.4147
  672MOL0     C90651   5.074   5.712   9.388 -0.2000  0.1194  0.2923
  672MOL0     C90652   4.971   5.614   9.361 -0.2518 -0.7053 -0.7199
  672MOL0     H90653   4.979   5.172   8.949  0.1538  2.4606 -1.0262
  672MOL0     H90654   4.823   5.018   8.819  0.8028 -2.2132  3.1673
  672MOL0     H90655   4.694   4.871   8.737  1.2103  3.0649  0.2327
  672MOL0     H90656   4.644   4.826   8.897 -0.0134  0.1921  0.0079
  672MOL0     H90657   4.510   4.687   8.728  0.6379  1.1551 -3.8323
  672MOL0     H90658   4.392   4.790   8.801 -2.3358 -0.0172 -3.0345
  672MOL0     H90659   4.409   4.957   8.619 -1.2587 -0.5160  0.8472
  672MOL0     H90660   4.540   4.874   8.548  0.1614 -1.1427  0.0200
  672MOL0     H90661   4.445   4.675   8.506 -0.5704 -0.2384 -3.6323
  672MOL0     H90662   4.283   4.732   8.579  0.1995  2.0298  3.0712
  672MOL0     H90663   4.421   4.871   8.338 -1.1799  1.7510 -0.2010
  672MOL0     H90664   4.301   4.741   8.327 -1.2631  0.8821  0.0731
  672MOL0     H90665   4.147   4.911   8.447  1.1931 -1.8810  1.0607
  672MOL0     H90666   4.283   5.025   8.459  1.4108  0.6964 -1.1923
  672MOL0     H90667   4.306   5.069   8.237  0.9263  0.1482  1.5312
  672MOL0     H90668   4.186   4.944   8.195  2.0896 -1.7538  1.4665
  672MOL0     H90669   4.107   5.203   8.207  5.9956 -1.2824 -1.5295
  672MOL0     H90670   4.141   5.212   8.369  1.3413 -0.8095  1.2165
  672MOL0     H90671   3.857   5.090   8.129 -0.9640 -1.9059 -0.0761
  672MOL0     H90672   3.591   5.085   8.191  2.0112  2.1090  1.5728
  672MOL0     H90673   3.635   4.919   8.220  2.1902  2.0310 -2.9962
  672MOL0     H90674   3.484   5.111   8.399  3.3053  0.0743 -0.3694
  672MOL0     H90675   3.539   4.953   8.457 -1.7406  0.9656  0.8046
  672MOL0     H90676   3.408   4.831   8.283 -2.7686 -0.1432 -0.9486
  672MOL0     H90677   3.371   4.983   8.197 -0.2429  0.5003  0.3631
  672MOL0     H90678   3.256   5.036   8.411  2.4627  0.9493 -1.8397
  672MOL0     H90679   3.291   4.868   8.467 -2.5711  0.1635  0.5717
  672MOL0     H90680   2.959   4.822   8.173  1.4688  0.1580  1.0731
  672MOL0     H90681   2.635   4.751   8.225  3.7219 -2.1302 -1.6662
  672MOL0     H90682   2.625   4.924   8.156  0.0924  0.2485 -1.8667
  672MOL0     H90683   2.728   4.806   8.092 -1.7658 -0.2332 -0.8526
  672MOL0     H90684   2.309   4.920   8.233 -0.1073  0.5860  0.0180
  672MOL0     H90685   2.089   4.871   8.268  0.1770  0.4295 -0.6814
  672MOL0     H90686   1.930   4.950   8.381 -0.3842  0.1979  0.4901
  672MOL0     H90687   1.861   4.796   8.334  3.7746  0.5778 -0.7270
  672MOL0     H90688   1.674   4.915   8.429  2.4853  0.2061 -2.3520
  672MOL0     H90689   1.735   4.795   8.555  0.6012  0.1458 -0.1709
  672MOL0     H90690   1.816   5.092   8.546 -0.9514  1.2031  0.9951
  672MOL0     H90691   1.840   4.977   8.685 -1.5089  0.2582  1.7327
  672MOL0     H90692   1.685   5.141   8.710 -0.1451  0.2416  0.4513
  672MOL0     H90693   1.577   5.086   8.584  0.5919  1.6994  1.0949
  672MOL0     H90694   1.654   4.925   8.827 -1.0587 -1.4247  0.1579
  672MOL0     H90695   1.536   4.867   8.709  1.9917 -0.1107 -1.9495
  672MOL0     H90696   1.370   5.013   8.762 -1.3527 -0.2462  1.2407
  672MOL0     H90697   1.428   4.947   8.913 -1.7764 -0.6616 -1.2408
  672MOL0     H90698   1.573   5.183   8.891  0.1752  1.5060 -1.9324
  672MOL0     H90699   1.428   5.154   8.995  1.6457  0.6955  0.3708
  672MOL0     H90700   1.442   5.262   8.713 -0.7642 -2.7294  1.0815
  672MOL0     H90701   1.422   5.363   8.859 -1.9156  1.3575 -1.6828
  672MOL0     H90702   2.171   4.761   8.678 -3.1189 -2.3488 -1.1926
  672MOL0     H90703   2.405   4.814   8.645  0.4465  0.2940 -0.0230
  672MOL0     H90704   2.825   4.979   8.621  3.2272 -3.4781  3.4585
  672MOL0     H90705   3.062   4.953   8.563  2.9728 -1.4383 -2.0381
  672MOL0     H90706   4.485   5.215   8.953 -0.8291 -2.1084  0.1335
  672MOL0     H90707   4.613   5.376   9.073 -1.9590 -0.9790 -1.2818
  672MOL0     H90708   5.107   5.471   9.080 -0.7204  0.0789 -0.2024
  672MOL0     H90709   5.287   5.630   9.139 -0.1861 -0.6178  0.8595
  672MOL0     H90710   5.265   5.793   9.538  0.7638  0.9400  2.1025
  672MOL0     H90711   5.414   5.872   9.467  0.0347 -0.4729  0.7589
  672MOL0     H90712   5.143   5.997   9.417  0.0357 -1.6962  0.2637
  672MOL0     H90713   5.299   6.063   9.399 -0.6051  1.0215 -0.5239
  672MOL0     H90714   5.164   5.982   9.661  0.5518 -1.1773 -1.8520
  672MOL0     H90715   5.169   6.144   9.599  2.3705  1.5540  3.1146
  672MOL0     H90716   5.363   6.000   9.766  0.4486  0.4831  1.1393
  672MOL0     H90717   5.334   6.171   9.760  1.3919  0.4702 -0.0446
  672MOL0     H90718   5.666   6.114   9.484 -0.0397  1.3695  0.7944
  672MOL0     H90719   5.055   5.775   9.474 -1.1882  0.3060 -0.0466
  672MOL0     H90720   4.892   5.616   9.435  0.0327  1.5083 -0.3994
  673MOL0     O90721   3.834  10.660   1.260 -0.1045 -0.1116 -0.2129
  673MOL0     C90722   3.880  10.583   1.176  0.5987  0.7616 -0.9028
  673MOL0     O90723   3.818  10.537   1.071 -0.2979  0.2129  0.5335
  673MOL0     C90724   3.694  10.590   1.054  0.0982  0.8932 -1.0006
  673MOL0     C90725   3.671  10.679   0.942  0.4088  0.1547 -1.0467
  673MOL0     C90726   3.546  10.735   0.936  1.2993 -0.5964 -0.6398
  673MOL0     C90727   3.444  10.707   1.034  0.4790  0.3169 -0.8872
  673MOL0     O90728   3.316  10.764   1.045  0.2218  0.2575 -0.4076
  673MOL0     C90729   3.251  10.798   0.912 -0.2231  0.4998 -1.0239
  673MOL0     C90730   3.112  10.840   0.926  0.1395  0.1573  0.4757
  673MOL0     C90731   3.012  10.718   0.949 -0.0111 -0.6342  0.4515
  673MOL0     C90732   2.871  10.774   0.958 -0.5217 -0.4097 -0.0429
  673MOL0     C90733   2.771  10.649   0.942  0.2010 -0.0877 -0.3032
  673MOL0     C90734   2.624  10.685   0.951  0.7645 -0.5215 -0.0638
  673MOL0     C90735   2.583  10.751   1.089 -0.8561 -0.0615 -0.0504
  673MOL0     C90736   2.440  10.757   1.110  0.1258 -0.0195 -0.5616
  673MOL0     N90737   2.369  10.841   1.005 -0.3734  0.8863 -0.5402
  673MOL0     C90738   2.381  10.980   1.006 -1.0062  0.3518  0.0915
  673MOL0     C90739   2.302  11.021   0.904 -0.3771 -0.1157  0.3135
  673MOL0     C90740   2.274  11.165   0.884  0.1558 -0.1661 -0.1154
  673MOL0     C90741   2.219  11.239   1.014 -0.6467 -0.2502  0.7713
  673MOL0     C90742   2.105  11.158   1.071  0.5198 -0.9940  0.7170
  673MOL0     C90743   1.978  11.144   0.979 -0.1960  0.7193  0.4142
  673MOL0     O90744   1.857  11.131   1.063 -0.0222 -0.6696  0.3540
  673MOL0     C90745   1.831  10.998   1.076 -0.1937 -0.2955  0.8210
  673MOL0     C90746   1.771  10.929   0.970  0.5167 -0.6310 -0.5628
  673MOL0     C90747   1.721  10.802   0.985 -0.4776  1.1013  0.0735
  673MOL0     C90748   1.650  10.745   0.863 -0.8530  0.9905 -0.2011
  673MOL0     C90749   1.739  10.729   1.107  0.0585  0.4635  0.5385
  673MOL0     C90750   1.676  10.595   1.131 -0.2550  0.7286 -0.4287
  673MOL0     O90751   1.545  10.591   1.123 -0.0063 -0.4230 -0.5870
  673MOL0     C90752   1.492  10.463   1.135  0.5336 -0.6962  0.3893
  673MOL0     C90753   1.474  10.386   1.022  0.2592  0.5809  0.3980
  673MOL0     C90754   1.415  10.263   1.023  1.2661 -0.2278 -0.4115
  673MOL0     C90755   1.378  10.215   1.144  0.0894  0.3469 -0.2465
  673MOL0     O90756   1.312  10.092   1.147 -0.7751 -0.1034  0.4575
  673MOL0     C90757   1.173  10.084   1.183  0.1654  0.0622  0.0424
  673MOL0     C90758   1.126   9.954   1.253 -0.9293  0.6524  0.3518
  673MOL0     C90759   0.984   9.920   1.263  0.4377 -0.5163 -0.4341
  673MOL0     C90760   0.920  10.028   1.356  0.1497 -0.1588 -0.0257
  673MOL0     C90761   0.777   9.993   1.393 -0.0415 -0.0881 -1.2144
  673MOL0     C90762   0.737  10.083   1.508 -0.3876  0.7655  0.1066
  673MOL0     C90763   0.595  10.040   1.548 -0.4857  0.2045  0.6735
  673MOL0     C90764   0.551  10.142   1.652 -0.5357  0.7215 -0.4432
  673MOL0    Cl90765   0.370  10.150   1.654 -0.2958  0.0224 -0.1643
  673MOL0     C90766   1.398  10.288   1.264 -1.0472 -0.2129  0.0762
  673MOL0     C90767   1.449  10.424   1.260  1.0446  0.4555  0.0291
  673MOL0     O90768   1.748  10.499   1.176  0.0064 -0.0023  1.0279
  673MOL0     C90769   1.791  10.803   1.216  0.2692 -0.1820  0.4059
  673MOL0     C90770   1.841  10.930   1.199 -0.6192  1.1468 -1.3389
  673MOL0     N90771   2.249  10.913   0.836 -0.6586 -0.2224 -0.0595
  673MOL0     N90772   2.288  10.806   0.901  0.3339 -0.4327 -0.6064
  673MOL0     C90773   3.463  10.611   1.137 -0.3601 -0.2879  0.4600
  673MOL0     C90774   3.588  10.548   1.140 -0.2962  0.4933 -0.9624
  673MOL0     C90775   4.016  10.520   1.200  0.1865  0.6137 -0.2462
  673MOL0     C90776   4.081  10.544   1.321 -0.1622  0.4823  0.7965
  673MOL0     C90777   4.214  10.504   1.341  0.3364  0.8750 -0.7290
  673MOL0     C90778   4.278  10.421   1.249 -0.2409 -0.4888  0.6280
  673MOL0     O90779   4.402  10.374   1.280  0.0946  0.1741 -0.0255
  673MOL0     C90780   4.511  10.428   1.199 -0.0878 -0.2200  0.2720
  673MOL0     C90781   4.532  10.575   1.232 -0.2701 -0.3860  0.9180
  673MOL0     C90782   4.575  10.594   1.379 -0.2977  0.3072 -0.7994
  673MOL0     C90783   4.604  10.741   1.412  0.5027 -0.3481  0.2375
  673MOL0     C90784   4.477  10.811   1.433 -0.5107 -0.0117  0.8453
  673MOL0     C90785   4.381  10.885   1.448  1.3399  0.1990 -0.2098
  673MOL0     C90786   4.218  10.403   1.123  0.1782 -0.3095 -0.3495
  673MOL0     C90787   4.082  10.453   1.101 -0.3671  0.3227 -0.1173
  673MOL0     H90788   3.754  10.717   0.883  1.1084  1.8674  0.9011
  673MOL0     H90789   3.521  10.811   0.862 -2.2164  0.9748  1.8452
  673MOL0     H90790   3.304  10.879   0.861  2.3364  0.5019  1.3906
  673MOL0     H90791   3.259  10.711   0.845  0.9361 -1.1050  1.0698
  673MOL0     H90792   3.094  10.903   1.013  2.0140 -2.5022  3.0087
  673MOL0     H90793   3.081  10.882   0.830  0.0283 -0.8614  0.0516
  673MOL0     H90794   3.014  10.654   0.861 -0.7135 -0.2862  0.1723
  673MOL0     H90795   3.034  10.660   1.039  1.1617 -0.4185  0.3187
  673MOL0     H90796   2.856  10.823   1.055 -0.5380  0.0736 -0.2892
  673MOL0     H90797   2.860  10.844   0.875  0.2299 -0.7771 -0.4591
  673MOL0     H90798   2.787  10.609   0.841 -4.5870 -2.4359 -0.3815
  673MOL0     H90799   2.788  10.565   1.009 -3.4109 -1.9944 -1.5117
  673MOL0     H90800   2.607  10.757   0.870 -1.1524 -1.4141 -0.5133
  673MOL0     H90801   2.560  10.598   0.934 -1.7589  0.9807  0.9744
  673MOL0     H90802   2.631  10.700   1.173 -1.7711 -0.7201  0.0868
  673MOL0     H90803   2.619  10.854   1.092  1.5345 -0.7695 -1.9701
  673MOL0     H90804   2.417  10.804   1.206 -2.2216 -0.5134 -0.8212
  673MOL0     H90805   2.401  10.656   1.124  1.3578 -0.0331  5.6994
  673MOL0     H90806   2.444  11.044   1.068  0.0151  0.9440 -1.4810
  673MOL0     H90807   2.364  11.209   0.841  2.0524 -2.0462  1.6760
  673MOL0     H90808   2.194  11.165   0.810 -0.4197 -2.7543  0.3847
  673MOL0     H90809   2.177  11.331   0.972  0.6626  0.3757  0.7837
  673MOL0     H90810   2.298  11.261   1.087 -1.0708  2.4194  0.5089
  673MOL0     H90811   2.078  11.212   1.162  0.0471 -0.0317  0.0341
  673MOL0     H90812   2.133  11.055   1.094  3.5549 -0.6509 -0.9674
  673MOL0     H90813   1.984  11.056   0.915  0.0867 -0.2089  1.6696
  673MOL0     H90814   1.966  11.239   0.927 -1.7405 -0.4751 -1.5474
  673MOL0     H90815   1.763  10.982   0.876  1.0382  2.6222  1.1065
  673MOL0     H90816   1.630  10.637   0.873  0.5812  0.8914  2.3775
  673MOL0     H90817   1.556  10.798   0.843 -0.5538  1.1743 -1.1808
  673MOL0     H90818   1.715  10.772   0.779  1.4497  0.1100  1.2292
  673MOL0     H90819   1.502  10.439   0.931 -0.0828 -0.9422 -0.6399
  673MOL0     H90820   1.393  10.203   0.935 -3.5276  1.3704 -0.5687
  673MOL0     H90821   1.139  10.174   1.235 -0.9739  1.4369 -2.8211
  673MOL0     H90822   1.124  10.091   1.085  2.2810  3.5066 -0.9441
  673MOL0     H90823   1.158   9.871   1.189 -1.4165 -0.4647  1.5185
  673MOL0     H90824   1.173   9.935   1.350 -2.5026 -0.5337  0.9259
  673MOL0     H90825   0.967   9.816   1.292 -0.7934 -0.2835 -0.2664
  673MOL0     H90826   0.944   9.931   1.162  1.1230  1.3218 -0.5571
  673MOL0     H90827   0.987  10.032   1.442  2.9629  2.0630 -2.1221
  673MOL0     H90828   0.910  10.126   1.308 -2.6630  0.2534  1.1749
  673MOL0     H90829   0.779   9.888   1.425 -1.7477  0.5457  1.2417
  673MOL0     H90830   0.724  10.015   1.300  1.8575 -0.2896 -2.3907
  673MOL0     H90831   0.800  10.060   1.595 -0.8799 -3.5107 -0.4400
  673MOL0     H90832   0.735  10.184   1.466 -1.3832 -0.5061 -3.2126
  673MOL0     H90833   0.583   9.936   1.580 -2.1735  0.2582  0.2647
  673MOL0     H90834   0.537  10.046   1.456 -0.1282  2.9205  0.5439
  673MOL0     H90835   0.585  10.241   1.619  0.5584  0.1969 -0.9479
  673MOL0     H90836   0.583  10.126   1.756  1.4495  1.7357 -0.8615
  673MOL0     H90837   1.370  10.238   1.356  4.7244  1.0078  2.9362
  673MOL0     H90838   1.451  10.481   1.353  0.2665 -1.9285  1.6137
  673MOL0     H90839   1.784  10.766   1.318  0.0575  1.3780  0.9855
  673MOL0     H90840   1.881  10.973   1.290 -1.9642 -1.7175  0.7549
  673MOL0     H90841   3.384  10.580   1.204  0.6755  1.4324  2.5763
  673MOL0     H90842   3.601  10.467   1.211  0.7426  2.5230  1.3278
  673MOL0     H90843   4.037  10.598   1.404  1.3985 -0.6125  2.3972
  673MOL0     H90844   4.263  10.533   1.433 -0.9115  0.5560  0.0675
  673MOL0     H90845   4.600  10.367   1.219  1.3862  1.8413  0.2193
  673MOL0     H90846   4.486  10.424   1.092  0.3006  1.0421  0.1189
  673MOL0     H90847   4.445  10.635   1.202 -0.4270 -0.8984  0.3304
  673MOL0     H90848   4.610  10.618   1.169 -2.7241  3.0522 -0.0536
  673MOL0     H90849   4.662  10.534   1.406  0.4235  0.7931 -1.9743
  673MOL0     H90850   4.496  10.556   1.445  1.8567 -1.7606  0.7435
  673MOL0     H90851   4.664  10.783   1.331 -0.4824  0.0021 -0.3373
  673MOL0     H90852   4.668  10.745   1.501  2.5950  1.3154 -1.2325
  673MOL0     H90853   4.294  10.948   1.449 -1.0955 -2.8413 -1.1510
  673MOL0     H90854   4.267  10.342   1.047 -1.1410 -4.4769  1.8179
  673MOL0     H90855   4.027  10.446   1.008  0.9248 -2.8630 -0.7721
  674MOL0     O90856   4.916   4.297   0.406 -0.2917 -0.2205 -0.4197
  674MOL0     C90857   4.869   4.205   0.464  0.2901  0.9133 -0.1127
  674MOL0     O90858   4.734   4.186   0.483 -0.6174  0.7159 -0.1321
  674MOL0     C90859   4.636   4.269   0.442 -0.4915 -0.2920  0.7308
  674MOL0     C90860   4.645   4.407   0.412 -0.2347 -0.1377  0.1643
  674MOL0     C90861   4.535   4.481   0.376 -0.0583 -0.2563 -0.3169
  674MOL0     C90862   4.408   4.426   0.366  0.6806 -0.1333  0.9484
  674MOL0     O90863   4.293   4.491   0.331  0.3831 -0.0916  0.3047
  674MOL0     C90864   4.304   4.636   0.311  0.2590  0.3618 -0.3170
  674MOL0     C90865   4.288   4.723   0.434  0.1405  0.5254  0.1469
  674MOL0     C90866   4.148   4.793   0.435 -0.0019 -0.3882 -0.0728
  674MOL0     C90867   4.153   4.925   0.515 -0.4138  0.4461  0.0370
  674MOL0     C90868   4.020   4.961   0.576  0.5967 -0.3561  0.0804
  674MOL0     C90869   4.001   4.917   0.720 -0.0079  0.0307 -0.3693
  674MOL0     C90870   3.876   4.987   0.764  0.0550  0.0377 -0.1815
  674MOL0     C90871   3.815   4.917   0.887  0.4940 -0.9182  0.1559
  674MOL0     N90872   3.718   4.996   0.960  0.4108 -0.4219  0.3611
  674MOL0     C90873   3.586   4.961   0.965 -0.2922 -0.3515 -0.2407
  674MOL0     C90874   3.532   5.048   1.058 -1.2489 -0.1274 -0.5528
  674MOL0     C90875   3.384   5.052   1.096 -0.5698  0.3325  0.2386
  674MOL0     C90876   3.295   5.109   0.989  0.6435 -1.5145  0.4716
  674MOL0     C90877   3.269   5.018   0.868  0.6068  0.2305  0.7872
  674MOL0     C90878   3.148   5.056   0.772  1.0021 -0.4781 -0.6247
  674MOL0     O90879   3.034   5.054   0.855 -0.0785  0.9051 -0.2741
  674MOL0     C90880   2.912   5.030   0.798  0.1290 -0.2971 -0.3730
  674MOL0     C90881   2.806   5.119   0.824 -0.1036  0.3977  0.6900
  674MOL0     C90882   2.677   5.096   0.773 -0.3033 -0.0394  0.2386
  674MOL0     C90883   2.569   5.196   0.806  0.0756 -0.2802  0.1525
  674MOL0     C90884   2.661   4.995   0.674  0.0409  0.0944 -0.6198
  674MOL0     C90885   2.528   4.982   0.599  0.1683  0.6345  0.5417
  674MOL0     O90886   2.432   5.079   0.593  0.1949 -0.0341  0.7685
  674MOL0     C90887   2.297   5.047   0.582  1.0504 -0.8789 -0.2819
  674MOL0     C90888   2.225   5.118   0.489 -0.2288 -0.1901  0.6396
  674MOL0     C90889   2.095   5.090   0.456 -0.4487 -0.1556 -0.2581
  674MOL0     C90890   2.023   4.994   0.526  0.1521 -0.2893  0.9041
  674MOL0     O90891   1.884   4.995   0.513 -0.0419  0.6963 -0.6942
  674MOL0     C90892   1.831   4.864   0.527 -0.2465  0.0508  1.1173
  674MOL0     C90893   1.681   4.859   0.472  0.6773 -0.3678  0.0094
  674MOL0     C90894   1.627   4.725   0.422 -0.1126  0.6037 -1.1872
  674MOL0     C90895   1.500   4.734   0.348  0.1068  0.3177 -0.8088
  674MOL0     C90896   1.437   4.593   0.320  0.8813 -0.2688 -0.9401
  674MOL0     C90897   1.340   4.594   0.205  1.1794 -0.2499 -0.2521
  674MOL0     C90898   1.209   4.664   0.239  0.9621 -0.4240  0.3209
  674MOL0     C90899   1.135   4.702   0.108  0.4388 -0.5050  0.1725
  674MOL0    Cl90900   0.960   4.729   0.166 -0.3266  0.1345  0.1984
  674MOL0     C90901   2.093   4.925   0.630 -0.2871  0.8183  0.1514
  674MOL0     C90902   2.227   4.955   0.665 -0.4598  0.5797  0.5728
  674MOL0     O90903   2.518   4.875   0.537  0.1927 -0.3835  0.1874
  674MOL0     C90904   2.768   4.897   0.661  0.0104 -0.2222  0.4601
  674MOL0     C90905   2.888   4.913   0.726  0.0987  0.5011  1.3971
  674MOL0     N90906   3.624   5.140   1.099 -0.1172  0.1826 -0.1456
  674MOL0     N90907   3.741   5.100   1.048  0.2337  0.3869 -0.7379
  674MOL0     C90908   4.395   4.290   0.388  0.5890 -0.1363 -0.1061
  674MOL0     C90909   4.507   4.215   0.427  0.2840 -0.0007 -0.3472
  674MOL0     C90910   4.969   4.103   0.505  0.5222 -0.0945 -0.7371
  674MOL0     C90911   5.109   4.127   0.499  0.8500 -0.7202 -0.8090
  674MOL0     C90912   5.195   4.034   0.553 -0.6056 -0.3598  0.1969
  674MOL0     C90913   5.157   3.906   0.601  0.0078 -0.6826  0.3177
  674MOL0     O90914   5.240   3.817   0.655  0.2945  0.3192 -0.1775
  674MOL0     C90915   5.370   3.857   0.699  0.8136 -0.0201 -0.3400
  674MOL0     C90916   5.409   3.765   0.809  0.2286  0.5615 -0.9860
  674MOL0     C90917   5.541   3.807   0.885 -0.6687 -0.3025 -0.3511
  674MOL0     C90918   5.665   3.766   0.811  0.4067 -0.0010 -0.3802
  674MOL0     C90919   5.677   3.621   0.774  0.2068  0.7231  0.1332
  674MOL0     C90920   5.687   3.505   0.742  0.3102 -1.0675 -0.8411
  674MOL0     C90921   5.024   3.873   0.602  0.6564  0.1180 -0.7425
  674MOL0     C90922   4.932   3.972   0.557  0.1820 -0.8631 -0.7452
  674MOL0     H90923   4.737   4.462   0.428 -0.6329  0.0506  2.1206
  674MOL0     H90924   4.555   4.587   0.367  0.5638 -0.3636 -0.2629
  674MOL0     H90925   4.399   4.660   0.263  0.7101  0.0218  0.3906
  674MOL0     H90926   4.222   4.659   0.242 -0.8476 -0.7945  0.5679
  674MOL0     H90927   4.284   4.656   0.520  1.8010 -3.4942 -2.6063
  674MOL0     H90928   4.368   4.797   0.446 -1.2882  2.5621 -2.0249
  674MOL0     H90929   4.114   4.816   0.333  0.1495 -3.7294 -1.0068
  674MOL0     H90930   4.078   4.723   0.481 -0.3704 -0.1387 -0.2520
  674MOL0     H90931   4.228   4.921   0.595  1.1381  1.5451 -1.2912
  674MOL0     H90932   4.198   4.998   0.447  1.3138 -1.5138 -1.0552
  674MOL0     H90933   4.011   5.069   0.561  0.4693 -0.7105 -3.0894
  674MOL0     H90934   3.947   4.908   0.514 -0.9233 -1.5196  2.7419
  674MOL0     H90935   3.991   4.809   0.727  0.1110  0.0275 -0.2205
  674MOL0     H90936   4.083   4.951   0.784  0.4633  0.5215 -1.2158
  674MOL0     H90937   3.899   5.090   0.792  1.9755  0.4126 -2.7687
  674MOL0     H90938   3.802   4.998   0.683  0.0855 -0.6213 -0.3056
  674MOL0     H90939   3.904   4.896   0.948 -0.3840 -2.4579  0.9612
  674MOL0     H90940   3.782   4.818   0.854 -0.4824 -0.6226  0.2216
  674MOL0     H90941   3.538   4.882   0.908 -0.5658  1.2856 -2.4087
  674MOL0     H90942   3.342   4.952   1.109  1.1571 -0.5722 -0.6976
  674MOL0     H90943   3.377   5.116   1.184  1.2166 -0.6555  1.1608
  674MOL0     H90944   3.338   5.200   0.946 -3.5701 -0.7328 -2.6837
  674MOL0     H90945   3.201   5.140   1.035 -0.6422 -2.0130 -1.6967
  674MOL0     H90946   3.247   4.918   0.906 -0.5803 -0.3845 -1.3521
  674MOL0     H90947   3.359   5.020   0.805 -1.0220  1.0242 -1.6529
  674MOL0     H90948   3.141   4.973   0.701  1.9225 -1.1220  0.0100
  674MOL0     H90949   3.173   5.151   0.724  2.9942  0.9593  2.8899
  674MOL0     H90950   2.821   5.203   0.891  2.1214  2.2554 -1.9084
  674MOL0     H90951   2.533   5.249   0.717 -1.3038 -2.0829 -0.4180
  674MOL0     H90952   2.480   5.143   0.840 -0.5417  1.2670  1.0582
  674MOL0     H90953   2.601   5.269   0.880  0.6136  0.7101 -1.0176
  674MOL0     H90954   2.277   5.197   0.437 -0.6962 -1.1320 -1.3284
  674MOL0     H90955   2.053   5.154   0.379  2.8185  3.5260  0.6960
  674MOL0     H90956   1.894   4.792   0.474 -2.1524 -1.6037  1.0098
  674MOL0     H90957   1.826   4.836   0.633  1.7540 -1.3996  0.8883
  674MOL0     H90958   1.617   4.891   0.555 -0.7112  0.5197 -1.3526
  674MOL0     H90959   1.662   4.925   0.387 -1.4179 -2.6975 -1.4676
  674MOL0     H90960   1.620   4.657   0.507 -1.1917  0.1395 -1.6212
  674MOL0     H90961   1.703   4.676   0.360 -1.0785 -0.0099 -1.9124
  674MOL0     H90962   1.440   4.797   0.415  1.4991  1.7879 -0.8591
  674MOL0     H90963   1.511   4.790   0.255  2.0349 -0.5689 -1.1625
  674MOL0     H90964   1.388   4.559   0.412  0.2206  1.3830 -0.6588
  674MOL0     H90965   1.508   4.515   0.290 -0.5987 -1.5908 -1.1482
  674MOL0     H90966   1.386   4.646   0.120  1.6332 -1.7464 -0.9549
  674MOL0     H90967   1.314   4.494   0.169  3.3591 -1.8271  2.2238
  674MOL0     H90968   1.234   4.754   0.297 -1.7050 -0.0480  1.0286
  674MOL0     H90969   1.148   4.593   0.295  0.6547 -0.0758  0.4286
  674MOL0     H90970   1.140   4.620   0.036 -0.0312 -0.5149  0.1487
  674MOL0     H90971   1.172   4.796   0.068  0.8076 -0.2688  1.0439
  674MOL0     H90972   2.032   4.848   0.676  1.2100 -0.3675  0.2170
  674MOL0     H90973   2.279   4.901   0.744 -2.9091 -2.6181  0.2249
  674MOL0     H90974   2.766   4.813   0.592 -0.8945 -1.8063  2.3322
  674MOL0     H90975   2.969   4.843   0.708 -1.6716 -1.1686 -0.6504
  674MOL0     H90976   4.300   4.237   0.380 -0.5024  1.3507  2.0799
  674MOL0     H90977   4.486   4.109   0.434 -1.8858  0.3766 -0.3274
  674MOL0     H90978   5.151   4.220   0.460 -1.5874  1.9261  2.2977
  674MOL0     H90979   5.302   4.055   0.551 -0.4067 -1.3233 -0.0587
  674MOL0     H90980   5.445   3.857   0.619  0.6708 -2.7499 -0.5733
  674MOL0     H90981   5.360   3.958   0.740  2.0338  0.7529 -1.8493
  674MOL0     H90982   5.408   3.666   0.762  1.5261 -0.3048  0.6744
  674MOL0     H90983   5.328   3.773   0.882 -0.2989  4.6596 -1.7825
  674MOL0     H90984   5.550   3.765   0.986  1.2822  0.4065 -0.1873
  674MOL0     H90985   5.546   3.915   0.899  0.2156 -0.4676  0.7422
  674MOL0     H90986   5.751   3.792   0.874 -0.0926  0.2905  0.1852
  674MOL0     H90987   5.677   3.833   0.725 -1.3926 -1.2887 -1.7045
  674MOL0     H90988   5.714   3.407   0.708  0.2515 -1.8567  1.2616
  674MOL0     H90989   4.989   3.774   0.631 -1.2489  1.2083  0.9923
  674MOL0     H90990   4.825   3.955   0.555 -0.0884  0.6491 -2.3076
  675MOL0     O90991   0.667   2.443   3.929  0.0834 -0.7579 -0.3563
  675MOL0     C90992   0.680   2.470   4.052  0.5061  0.1955  1.1164
  675MOL0     O90993   0.577   2.519   4.130  0.0537 -0.3566  0.5123
  675MOL0     C90994   0.454   2.533   4.068  0.7675 -0.8488 -0.4442
  675MOL0     C90995   0.395   2.458   3.969  0.3661  0.5261  1.0260
  675MOL0     C90996   0.264   2.482   3.918  0.1939  0.1590  0.3286
  675MOL0     C90997   0.188   2.590   3.972  1.0356 -0.1287  0.3487
  675MOL0     O90998   0.057   2.614   3.934 -0.0352  0.2732  0.6476
  675MOL0     C90999  -0.044   2.632   4.037 -0.4156 -0.4012  0.0363
  675MOL0     C91000  -0.150   2.738   4.000 -0.0102 -1.0150 -0.1897
  675MOL0     C91001  -0.252   2.685   3.902  0.2052  0.7837  0.3328
  675MOL0     C91002  -0.333   2.559   3.950 -0.4124 -0.2435  0.2577
  675MOL0     C91003  -0.442   2.606   4.050  0.0887 -0.4270 -0.5255
  675MOL0     C91004  -0.549   2.698   3.983  0.7893  0.4140  0.1081
  675MOL0     C91005  -0.675   2.661   4.060  0.0293 -0.2513 -0.5397
  675MOL0     C91006  -0.676   2.694   4.212 -0.3788 -0.4648  0.8621
  675MOL0     N91007  -0.803   2.674   4.278  0.7377  0.0447  0.4064
  675MOL0     C91008  -0.916   2.753   4.264 -0.2323  0.5503  0.1506
  675MOL0     C91009  -0.997   2.720   4.362 -0.1246 -0.2474 -0.2074
  675MOL0     C91010  -1.125   2.798   4.393  0.2044 -0.3176 -0.1565
  675MOL0     C91011  -1.252   2.717   4.363 -0.5145  0.2888 -0.1140
  675MOL0     C91012  -1.379   2.784   4.406 -0.3024 -0.0745  0.5696
  675MOL0     C91013  -1.495   2.684   4.386 -1.0454  0.4640 -0.7712
  675MOL0     O91014  -1.614   2.743   4.439  0.3224  0.1716 -0.2819
  675MOL0     C91015  -1.725   2.662   4.411  0.7488 -0.4857  0.4624
  675MOL0     C91016  -1.846   2.737   4.411  0.1744 -0.0451 -0.5824
  675MOL0     C91017  -1.967   2.677   4.391 -1.1649  1.2378  0.8774
  675MOL0     C91018  -2.087   2.759   4.404 -0.0142 -0.5511  0.1169
  675MOL0     C91019  -1.975   2.534   4.374 -0.5161  0.0291  0.1561
  675MOL0     C91020  -2.096   2.457   4.339  0.5595  0.3011  0.5383
  675MOL0     O91021  -2.095   2.321   4.322 -0.5310  0.3017  0.1816
  675MOL0     C91022  -2.205   2.265   4.269  0.0077  0.5327  0.2491
  675MOL0     C91023  -2.182   2.183   4.160 -0.8563 -0.1430  0.3377
  675MOL0     C91024  -2.283   2.110   4.098  0.6834  0.9872 -0.3490
  675MOL0     C91025  -2.415   2.124   4.142 -0.3485 -0.2245 -0.3465
  675MOL0     O91026  -2.528   2.047   4.121 -0.2845  0.2281 -0.9272
  675MOL0     C91027  -2.508   1.928   4.046  0.2881  0.0504 -0.4353
  675MOL0     C91028  -2.615   1.834   4.101 -0.4311  0.1650 -0.1621
  675MOL0     C91029  -2.756   1.863   4.029  0.3147  0.2052  0.0050
  675MOL0     C91030  -2.861   1.770   4.077  0.3284  0.3062 -0.0614
  675MOL0     C91031  -3.009   1.820   4.054  0.0584 -0.3471  0.4145
  675MOL0     C91032  -3.114   1.742   4.122 -0.2858  0.3781 -0.0770
  675MOL0     C91033  -3.253   1.773   4.068  0.5047 -0.8624 -0.9843
  675MOL0     C91034  -3.362   1.730   4.167  0.4113 -0.0859  0.4453
  675MOL0    Cl91035  -3.515   1.808   4.105  0.2108 -0.1712 -0.3569
  675MOL0     C91036  -2.437   2.214   4.246  0.3551 -0.3508  0.2337
  675MOL0     C91037  -2.338   2.283   4.309 -0.7927  0.4776 -0.1409
  675MOL0     O91038  -2.198   2.528   4.320  0.4468  0.2091 -0.2665
  675MOL0     C91039  -1.857   2.458   4.392  0.4690 -0.2039  0.8203
  675MOL0     C91040  -1.739   2.523   4.409 -0.2784 -0.4383  0.3867
  675MOL0     N91041  -0.949   2.603   4.428  0.4782 -0.5759 -0.1951
  675MOL0     N91042  -0.831   2.580   4.372  0.4558 -0.3988  0.5585
  675MOL0     C91043   0.245   2.674   4.070 -0.2623  0.4570  0.1176
  675MOL0     C91044   0.376   2.639   4.121  0.0516 -0.7559 -0.1943
  675MOL0     C91045   0.814   2.442   4.115  0.2496  0.3476 -0.2130
  675MOL0     C91046   0.909   2.365   4.051 -0.7738  1.1903  0.5290
  675MOL0     C91047   1.038   2.356   4.101  0.2618 -0.6035  0.2849
  675MOL0     C91048   1.074   2.406   4.227 -0.0661 -0.1831 -0.5277
  675MOL0     O91049   1.206   2.389   4.272 -0.4712  0.7366  0.0987
  675MOL0     C91050   1.240   2.442   4.402 -0.7002  0.6834 -0.5455
  675MOL0     C91051   1.398   2.459   4.404 -0.7537  0.2703 -0.4344
  675MOL0     C91052   1.480   2.345   4.343 -0.1830 -0.1769 -0.6654
  675MOL0     C91053   1.626   2.352   4.382  0.4421  1.0445  0.0901
  675MOL0     C91054   1.718   2.238   4.348  0.0091  0.1878 -0.0665
  675MOL0     C91055   1.815   2.160   4.332  0.2170 -0.1528 -0.6052
  675MOL0     C91056   0.973   2.468   4.303  0.1623  0.1955 -0.5393
  675MOL0     C91057   0.847   2.488   4.247 -0.3489 -0.1572 -0.2700
  675MOL0     H91058   0.437   2.368   3.925 -3.0832 -1.4821  1.4610
  675MOL0     H91059   0.219   2.425   3.837  2.6835  1.8008 -2.4612
  675MOL0     H91060  -0.083   2.537   4.073 -4.1703  1.6401  1.9257
  675MOL0     H91061   0.003   2.680   4.124 -1.0370 -0.8599  0.6321
  675MOL0     H91062  -0.187   2.763   4.099  1.7557  0.6622  0.1050
  675MOL0     H91063  -0.098   2.827   3.963  0.3008  0.0340  2.5442
  675MOL0     H91064  -0.315   2.773   3.884  1.9178  1.9052 -0.4585
  675MOL0     H91065  -0.213   2.666   3.802 -0.3052 -0.8638  0.4169
  675MOL0     H91066  -0.376   2.505   3.865  0.4237 -3.7399  1.8750
  675MOL0     H91067  -0.267   2.489   4.003 -2.8175 -0.4679  3.1774
  675MOL0     H91068  -0.483   2.518   4.100 -0.5498  1.5189  2.6148
  675MOL0     H91069  -0.401   2.661   4.136  1.7599 -0.5037 -1.2314
  675MOL0     H91070  -0.523   2.804   3.975  1.1135  0.2389 -1.4411
  675MOL0     H91071  -0.558   2.677   3.876 -0.3423 -1.0903  0.4617
  675MOL0     H91072  -0.758   2.715   4.013 -0.3948 -2.5877 -2.6914
  675MOL0     H91073  -0.699   2.556   4.042  3.1534 -0.6112 -3.9000
  675MOL0     H91074  -0.660   2.802   4.219 -1.7602 -0.1657 -0.2262
  675MOL0     H91075  -0.607   2.629   4.267 -1.6503 -1.2049  1.6344
  675MOL0     H91076  -0.926   2.821   4.180 -1.6784 -1.0244 -1.0189
  675MOL0     H91077  -1.122   2.837   4.495 -2.4268  1.3624 -0.6233
  675MOL0     H91078  -1.126   2.884   4.325 -0.9802 -2.9711 -3.8145
  675MOL0     H91079  -1.248   2.629   4.429 -0.8148 -1.5608 -2.4218
  675MOL0     H91080  -1.256   2.694   4.256 -0.9486  0.4648 -0.1373
  675MOL0     H91081  -1.399   2.880   4.358 -1.4231 -0.9790 -0.8566
  675MOL0     H91082  -1.376   2.797   4.514 -1.6512  0.8895  0.5233
  675MOL0     H91083  -1.489   2.594   4.447 -1.0707  1.6982  1.1497
  675MOL0     H91084  -1.514   2.672   4.279 -1.6872  1.4504 -0.7819
  675MOL0     H91085  -1.831   2.844   4.411 -0.0441  0.0155  1.5031
  675MOL0     H91086  -2.137   2.774   4.309 -1.0922  1.9565  0.9983
  675MOL0     H91087  -2.163   2.714   4.469  0.3994 -0.1368  0.9125
  675MOL0     H91088  -2.063   2.859   4.441 -0.6282  0.6583 -2.5661
  675MOL0     H91089  -2.082   2.173   4.120  0.1757  1.6422  2.2752
  675MOL0     H91090  -2.244   2.043   4.022  1.3856  1.5158 -0.4692
  675MOL0     H91091  -2.524   1.941   3.939 -1.5572 -2.4693 -0.5526
  675MOL0     H91092  -2.406   1.888   4.056 -0.1755 -0.7871  1.4525
  675MOL0     H91093  -2.580   1.731   4.094 -0.7592 -0.2382  2.7564
  675MOL0     H91094  -2.621   1.844   4.210 -2.2206 -0.0520 -0.2064
  675MOL0     H91095  -2.741   1.844   3.922  2.7016  0.7100  0.1844
  675MOL0     H91096  -2.779   1.970   4.031 -3.0450 -0.3071 -2.5569
  675MOL0     H91097  -2.853   1.673   4.027  0.0932  0.6158 -0.7161
  675MOL0     H91098  -2.842   1.762   4.184  1.6784  0.5843 -0.2708
  675MOL0     H91099  -3.024   1.816   3.945  3.4566 -2.8870 -0.1226
  675MOL0     H91100  -3.017   1.922   4.093 -2.2498  0.7140 -2.4159
  675MOL0     H91101  -3.095   1.635   4.107  1.5895  0.2602  2.4676
  675MOL0     H91102  -3.107   1.759   4.230 -3.7882  0.5955  0.2071
  675MOL0     H91103  -3.275   1.736   3.968 -2.5947 -1.6472 -0.1401
  675MOL0     H91104  -3.256   1.882   4.076 -3.8269 -0.8199 -0.8126
  675MOL0     H91105  -3.338   1.757   4.270 -0.1588  2.3039  0.0146
  675MOL0     H91106  -3.375   1.621   4.170  1.5833 -0.2578  0.1386
  675MOL0     H91107  -2.529   2.218   4.303  0.6497  4.1388  0.7100
  675MOL0     H91108  -2.369   2.336   4.399 -1.0959 -1.3098  0.8630
  675MOL0     H91109  -1.866   2.351   4.411 -2.7871 -0.8146 -2.8657
  675MOL0     H91110  -1.647   2.466   4.416  0.1633  0.3352  1.1437
  675MOL0     H91111   0.199   2.764   4.107 -2.5095 -1.2964  1.8837
  675MOL0     H91112   0.414   2.707   4.197 -3.2414  2.4977 -1.1339
  675MOL0     H91113   0.882   2.314   3.959 -0.1028  0.2950  0.8088
  675MOL0     H91114   1.113   2.305   4.041  1.7611  1.8853 -0.1204
  675MOL0     H91115   1.192   2.535   4.431  2.5249  2.3190  0.0128
  675MOL0     H91116   1.228   2.367   4.481  0.7145  1.3505  0.3486
  675MOL0     H91117   1.427   2.475   4.508 -0.6357  0.8783 -0.5554
  675MOL0     H91118   1.418   2.554   4.352  1.6045  1.1191  1.7715
  675MOL0     H91119   1.466   2.345   4.235  3.3136 -1.3238 -1.2168
  675MOL0     H91120   1.440   2.245   4.367 -2.3507 -0.1148 -3.5117
  675MOL0     H91121   1.642   2.373   4.489  1.1633  3.0001 -0.3712
  675MOL0     H91122   1.665   2.443   4.337 -0.4994  2.2238  1.5463
  675MOL0     H91123   1.905   2.104   4.311  1.6703  2.8868 -3.2186
  675MOL0     H91124   0.972   2.505   4.405 -0.0651  2.1945 -1.2203
  675MOL0     H91125   0.769   2.538   4.304 -2.6509 -0.1638 -3.1783
  676MOL0     O91126   5.649   1.543   3.940  0.3343 -0.0499  0.4514
  676MOL0     C91127   5.725   1.596   3.860 -0.2869  0.9282  0.4689
  676MOL0     O91128   5.697   1.670   3.756  0.2113  0.2048 -0.1630
  676MOL0     C91129   5.569   1.690   3.716 -0.0368  0.2319 -1.0258
  676MOL0     C91130   5.515   1.603   3.619  1.2555 -0.1268  0.8622
  676MOL0     C91131   5.382   1.619   3.581  0.3394  0.0145 -0.3419
  676MOL0     C91132   5.309   1.721   3.632 -0.8926 -0.2652  0.3563
  676MOL0     O91133   5.181   1.731   3.594 -0.6420  0.4620 -0.1935
  676MOL0     C91134   5.118   1.862   3.609 -0.0278 -0.4801 -0.6836
  676MOL0     C91135   4.985   1.857   3.533 -0.0868  0.2724 -0.4078
  676MOL0     C91136   4.880   1.743   3.570 -0.0869 -0.4796  0.4456
  676MOL0     C91137   4.780   1.780   3.678 -0.7469 -0.4170 -1.2779
  676MOL0     C91138   4.653   1.853   3.625  0.1847 -0.1234  0.4790
  676MOL0     C91139   4.589   1.904   3.751  0.3138 -0.0583  1.2129
  676MOL0     C91140   4.446   1.960   3.724  0.0516  0.1220  0.4272
  676MOL0     C91141   4.416   2.026   3.863 -0.2112 -0.6619 -0.1877
  676MOL0     N91142   4.280   2.078   3.864  0.2294 -0.0858 -0.0023
  676MOL0     C91143   4.169   2.004   3.856 -0.0368 -0.7149 -0.0485
  676MOL0     C91144   4.074   2.097   3.881 -0.3615 -0.7196 -0.0031
  676MOL0     C91145   3.927   2.067   3.904  0.2322  0.0547  0.4085
  676MOL0     C91146   3.842   2.073   3.770 -0.2721  0.1925 -0.4317
  676MOL0     C91147   3.819   2.212   3.718  0.3194  0.4152 -0.9660
  676MOL0     C91148   3.772   2.322   3.818  0.4518  0.1993 -0.6146
  676MOL0     O91149   3.648   2.274   3.868 -0.3125  0.5090 -0.2487
  676MOL0     C91150   3.606   2.340   3.980 -0.7695  0.2357 -0.6006
  676MOL0     C91151   3.471   2.324   4.003  0.9445  0.0451 -0.3056
  676MOL0     C91152   3.405   2.370   4.121 -0.8217  0.0280  1.1514
  676MOL0     C91153   3.256   2.334   4.129 -0.8012  0.7675  0.1724
  676MOL0     C91154   3.482   2.442   4.210  0.5617 -0.3326  0.0880
  676MOL0     C91155   3.421   2.512   4.324 -0.2014 -0.0553 -0.0480
  676MOL0     O91156   3.316   2.449   4.379 -0.1828 -0.0840  1.2611
  676MOL0     C91157   3.226   2.522   4.453  0.1107  0.7455  0.6316
  676MOL0     C91158   3.176   2.462   4.564  0.6942 -0.9696  0.5558
  676MOL0     C91159   3.083   2.523   4.643  0.0033 -0.1491 -0.4401
  676MOL0     C91160   3.025   2.648   4.598  0.6522 -0.1505 -0.4450
  676MOL0     O91161   2.946   2.736   4.672 -0.7258 -0.1990 -0.6607
  676MOL0     C91162   2.831   2.670   4.738  0.1302 -0.3861 -0.4891
  676MOL0     C91163   2.745   2.784   4.796 -0.3162  0.2092  0.5305
  676MOL0     C91164   2.603   2.727   4.809  0.0329  0.0178 -0.2986
  676MOL0     C91165   2.513   2.803   4.910  0.6245 -0.5921  0.2034
  676MOL0     C91166   2.383   2.719   4.959  0.1287  0.4477  0.2657
  676MOL0     C91167   2.285   2.693   4.847 -0.2351 -0.1663 -0.2120
  676MOL0     C91168   2.205   2.804   4.799  0.0117 -0.3202 -0.3007
  676MOL0     C91169   2.113   2.873   4.904 -0.1866  0.4231  0.6342
  676MOL0    Cl91170   2.005   2.742   4.963  0.0357 -0.3586 -0.3320
  676MOL0     C91171   3.065   2.699   4.480  0.5484 -0.2797 -0.2757
  676MOL0     C91172   3.164   2.640   4.411  0.7251  0.0012 -0.2594
  676MOL0     O91173   3.462   2.624   4.356 -0.5864  0.0760  0.3342
  676MOL0     C91174   3.614   2.468   4.181  0.1196  0.1305  0.2740
  676MOL0     C91175   3.680   2.407   4.075 -0.3558  0.2340  0.5607
  676MOL0     N91176   4.134   2.224   3.895 -0.5161  0.5061 -0.2812
  676MOL0     N91177   4.257   2.211   3.870 -0.2377  0.6999  0.7349
  676MOL0     C91178   5.366   1.816   3.723 -0.1462  0.0422 -0.1359
  676MOL0     C91179   5.494   1.788   3.772 -0.2373 -0.4267 -0.3395
  676MOL0     C91180   5.869   1.563   3.883  0.3771 -1.2817 -0.6482
  676MOL0     C91181   5.969   1.646   3.825  0.2298 -0.2347  1.0773
  676MOL0     C91182   6.110   1.619   3.850  0.6915 -0.4283 -0.5860
  676MOL0     C91183   6.146   1.496   3.898 -0.3574 -0.6787 -0.2292
  676MOL0     O91184   6.277   1.444   3.909 -0.2404  0.4144  0.5626
  676MOL0     C91185   6.394   1.527   3.901  0.6876 -0.3905  0.3901
  676MOL0     C91186   6.492   1.462   3.992 -0.8745  0.1133 -0.8638
  676MOL0     C91187   6.628   1.527   3.983 -0.8154  0.5608  0.4643
  676MOL0     C91188   6.710   1.463   3.864  0.4033  0.1849 -0.3311
  676MOL0     C91189   6.845   1.495   3.858  0.2182  0.8238 -0.1045
  676MOL0     C91190   6.962   1.517   3.861  0.1164 -1.1528 -0.7069
  676MOL0     C91191   6.047   1.417   3.952 -0.1140  0.0012  0.1132
  676MOL0     C91192   5.909   1.451   3.951  0.8176 -0.2055  1.0453
  676MOL0     H91193   5.559   1.518   3.567 -4.5479 -2.7021 -0.7143
  676MOL0     H91194   5.338   1.560   3.501  0.0027  1.9682 -1.6541
  676MOL0     H91195   5.093   1.879   3.714  0.2886  1.1326 -0.8437
  676MOL0     H91196   5.191   1.936   3.575  1.0313 -0.5934  1.2307
  676MOL0     H91197   4.932   1.952   3.545  0.1626  0.0967  2.9227
  676MOL0     H91198   5.003   1.838   3.427 -0.8460  0.1545 -0.5236
  676MOL0     H91199   4.825   1.727   3.477 -0.5845 -0.2808  0.7009
  676MOL0     H91200   4.935   1.654   3.600  0.5989 -0.4670 -0.7290
  676MOL0     H91201   4.742   1.694   3.734  1.0866  1.1655  2.7221
  676MOL0     H91202   4.834   1.832   3.757 -0.4176  0.8122 -2.2890
  676MOL0     H91203   4.684   1.937   3.562  0.8470 -0.1766  0.7183
  676MOL0     H91204   4.587   1.787   3.569 -1.8877 -0.5917  3.2689
  676MOL0     H91205   4.588   1.831   3.832  1.0676 -2.6592 -0.9838
  676MOL0     H91206   4.654   1.985   3.785  0.1866  0.6176 -0.0519
  676MOL0     H91207   4.444   2.030   3.639  0.1321 -1.1688 -0.6784
  676MOL0     H91208   4.367   1.886   3.712 -3.2183  3.0064  2.3764
  676MOL0     H91209   4.494   2.103   3.874  0.1397 -0.9729 -0.4785
  676MOL0     H91210   4.424   1.964   3.953 -2.5329  1.2515  1.4636
  676MOL0     H91211   4.149   1.897   3.845  2.1782 -1.4919  2.4551
  676MOL0     H91212   3.923   1.964   3.940 -1.2360 -0.0031  0.1539
  676MOL0     H91213   3.883   2.135   3.977 -1.9318  0.5693 -1.2570
  676MOL0     H91214   3.750   2.016   3.786 -0.1938 -0.6435 -2.5562
  676MOL0     H91215   3.889   2.017   3.689 -1.0820 -1.0136 -0.1057
  676MOL0     H91216   3.751   2.208   3.633  1.0857  0.1021 -1.5751
  676MOL0     H91217   3.915   2.246   3.678  1.1263 -0.1828  0.3947
  676MOL0     H91218   3.760   2.418   3.767  1.9626  1.3689  1.0952
  676MOL0     H91219   3.858   2.332   3.886 -0.0583  2.1367 -0.1727
  676MOL0     H91220   3.419   2.259   3.934  2.4696 -2.2150  0.5648
  676MOL0     H91221   3.188   2.419   4.144 -0.3870  1.4756 -1.6191
  676MOL0     H91222   3.220   2.280   4.041  1.2115 -1.0473  0.3771
  676MOL0     H91223   3.241   2.281   4.223 -4.0872  2.2344  0.6287
  676MOL0     H91224   3.211   2.361   4.586  0.5864 -1.0040  0.5710
  676MOL0     H91225   3.067   2.477   4.740  2.1629 -1.8233 -0.8177
  676MOL0     H91226   2.772   2.621   4.661  0.2234  0.4031 -1.0773
  676MOL0     H91227   2.861   2.599   4.816  1.1266  0.1138 -0.3936
  676MOL0     H91228   2.792   2.823   4.887  1.3245  1.2070 -0.6768
  676MOL0     H91229   2.747   2.858   4.716  1.3637  0.4268  0.7243
  676MOL0     H91230   2.606   2.625   4.849 -1.7293  0.2714  0.5819
  676MOL0     H91231   2.562   2.716   4.708  0.0680 -1.8249 -0.1519
  676MOL0     H91232   2.571   2.821   5.001  0.1164 -1.1432  0.6409
  676MOL0     H91233   2.486   2.896   4.860  1.0757  0.1476  1.3082
  676MOL0     H91234   2.332   2.775   5.039  2.5620 -0.1998  2.4130
  676MOL0     H91235   2.424   2.625   4.998  1.0523  0.3928 -0.7955
  676MOL0     H91236   2.332   2.643   4.762 -0.3614  1.2559 -1.1497
  676MOL0     H91237   2.214   2.619   4.887  0.0860 -2.1752 -3.0210
  676MOL0     H91238   2.148   2.764   4.715  0.4045  1.3335 -1.4139
  676MOL0     H91239   2.264   2.887   4.758  1.7367 -1.5022 -0.3147
  676MOL0     H91240   2.055   2.947   4.848 -1.9649 -0.2134  1.5714
  676MOL0     H91241   2.172   2.922   4.983  0.6137  2.3790 -1.0762
  676MOL0     H91242   3.014   2.788   4.444 -0.5718 -1.4043 -1.6253
  676MOL0     H91243   3.198   2.682   4.317 -0.8264 -1.5696 -1.5808
  676MOL0     H91244   3.652   2.552   4.238 -2.4488  0.2958  1.9180
  676MOL0     H91245   3.786   2.420   4.054 -0.6420 -0.9966 -1.9531
  676MOL0     H91246   5.313   1.903   3.762  0.0549  0.1785 -0.1663
  676MOL0     H91247   5.539   1.854   3.846 -0.8839  0.4908 -0.7493
  676MOL0     H91248   5.942   1.739   3.776  1.8029 -0.2029  0.2284
  676MOL0     H91249   6.197   1.678   3.822  1.0161 -1.0710 -0.9736
  676MOL0     H91250   6.427   1.529   3.797  0.6471 -0.1090  0.3834
  676MOL0     H91251   6.373   1.629   3.935 -1.3811  0.3752 -2.7350
  676MOL0     H91252   6.500   1.354   3.976  1.3105  0.0657  0.0969
  676MOL0     H91253   6.461   1.480   4.095  0.6958  1.0252 -0.5210
  676MOL0     H91254   6.695   1.520   4.069 -0.8019  2.4234  0.6408
  676MOL0     H91255   6.611   1.634   3.964 -4.0557  0.3797  1.6530
  676MOL0     H91256   6.666   1.491   3.767 -0.0384 -1.1659 -0.5342
  676MOL0     H91257   6.698   1.356   3.877  0.1123  0.1626 -0.7510
  676MOL0     H91258   7.064   1.550   3.862 -0.6569  1.4384  0.0208
  676MOL0     H91259   6.093   1.337   4.010  1.9981  1.4719  0.5977
  676MOL0     H91260   5.837   1.397   4.011 -1.0995 -0.1821 -1.0897
  677MOL0     O91261  10.866   9.912   0.217  0.5499 -0.7803  0.3811
  677MOL0     C91262  10.953   9.969   0.284 -0.1102  0.1900  0.0560
  677MOL0     O91263  10.949  10.001   0.409 -0.2093  0.0338 -0.5803
  677MOL0     C91264  10.829   9.978   0.474  0.7789  0.8223  0.6458
  677MOL0     C91265  10.823   9.890   0.590  0.3446 -0.2803 -0.6611
  677MOL0     C91266  10.699   9.866   0.652 -0.1547  0.2620  0.5277
  677MOL0     C91267  10.586   9.938   0.609  0.3788  0.2644  0.0187
  677MOL0     O91268  10.465   9.923   0.668 -0.1337  0.6912 -0.4543
  677MOL0     C91269  10.383   9.824   0.601 -0.2779  0.3363 -0.3010
  677MOL0     C91270  10.249   9.817   0.654 -0.2628 -0.3615  0.7032
  677MOL0     C91271  10.171   9.952   0.628 -0.0366  0.4029  1.6655
  677MOL0     C91272  10.026   9.946   0.655  0.4510 -1.0338  0.0234
  677MOL0     C91273   9.984   9.964   0.800  0.3920 -0.2969 -0.6273
  677MOL0     C91274   9.970  10.115   0.831 -0.8102 -0.3795  0.2164
  677MOL0     C91275   9.903  10.130   0.973  0.2285 -0.2887  0.4418
  677MOL0     C91276   9.848  10.271   0.992 -0.6151 -0.5054  0.3769
  677MOL0     N91277   9.707  10.276   0.982 -0.2512  0.4772  0.3814
  677MOL0     C91278   9.644  10.247   0.859 -0.6001  0.5717  1.2827
  677MOL0     C91279   9.519  10.292   0.880 -0.1827 -0.1010  0.4912
  677MOL0     C91280   9.415  10.298   0.774 -0.9247  0.1376  0.1948
  677MOL0     C91281   9.266  10.300   0.826 -0.3879  0.2543 -0.7755
  677MOL0     C91282   9.235  10.157   0.876  0.2407 -0.8940 -0.5262
  677MOL0     C91283   9.083  10.135   0.900  0.3224 -0.2122 -0.6778
  677MOL0     O91284   9.013  10.143   0.774  0.4333  0.0753 -0.3994
  677MOL0     C91285   8.877  10.161   0.772 -0.2222  0.8404 -0.4583
  677MOL0     C91286   8.794  10.121   0.878 -0.0956 -0.4986 -0.4648
  677MOL0     C91287   8.657  10.146   0.876  1.4114  0.4117 -0.2261
  677MOL0     C91288   8.584  10.110   1.004 -0.6688  0.0533  0.1307
  677MOL0     C91289   8.599  10.193   0.760 -0.6940  0.5432  0.0035
  677MOL0     C91290   8.455  10.208   0.757  0.1649  0.8794  0.3535
  677MOL0     O91291   8.415  10.343   0.744 -0.6410  0.9778 -0.6786
  677MOL0     C91292   8.279  10.362   0.747 -0.3992  0.1027  0.6854
  677MOL0     C91293   8.212  10.400   0.863 -0.1404 -0.2007  0.1776
  677MOL0     C91294   8.073  10.428   0.862  0.7639  0.0695  0.0436
  677MOL0     C91295   8.003  10.428   0.742 -1.5129  0.1648  0.4381
  677MOL0     O91296   7.874  10.473   0.742 -0.2221  0.2968  0.1584
  677MOL0     C91297   7.791  10.452   0.629 -0.0051  0.2285  0.9370
  677MOL0     C91298   7.655  10.508   0.639 -0.0739  0.6926  0.3936
  677MOL0     C91299   7.556  10.433   0.538  0.8718  0.4421 -0.2422
  677MOL0     C91300   7.422  10.501   0.543 -0.7020 -0.1700 -0.0061
  677MOL0     C91301   7.326  10.441   0.449 -0.2135  0.3639 -0.7915
  677MOL0     C91302   7.182  10.497   0.447  0.9712 -0.4569 -0.6253
  677MOL0     C91303   7.098  10.444   0.571 -0.1457  0.2769  0.1152
  677MOL0     C91304   6.947  10.481   0.562 -0.5599 -0.8013 -0.1652
  677MOL0    Cl91305   6.859  10.354   0.646  0.4624 -0.1364 -0.3357
  677MOL0     C91306   8.068  10.379   0.620 -0.1288  0.1865 -0.3344
  677MOL0     C91307   8.202  10.350   0.626  0.2882  0.7756  0.2905
  677MOL0     O91308   8.381  10.117   0.772  0.2544  0.0031 -0.5462
  677MOL0     C91309   8.680  10.231   0.655  0.0360 -0.8177 -1.0642
  677MOL0     C91310   8.819  10.215   0.658  0.2211  0.7730  0.2863
  677MOL0     N91311   9.508  10.332   1.013  0.2156  0.0331  0.3281
  677MOL0     N91312   9.620  10.318   1.073 -0.6409 -0.2476 -0.2877
  677MOL0     C91313  10.587  10.021   0.495 -0.1720 -0.1139  0.4068
  677MOL0     C91314  10.711  10.048   0.429 -0.2735  0.0612 -0.4913
  677MOL0     C91315  11.084  10.009   0.229 -0.3189  0.5667 -0.0490
  677MOL0     C91316  11.175  10.094   0.287  0.1774  0.0801 -0.5792
  677MOL0     C91317  11.291  10.121   0.226  0.7301 -0.3115  0.4773
  677MOL0     C91318  11.324  10.080   0.097 -0.0581 -0.7656 -0.2274
  677MOL0     O91319  11.446  10.099   0.038  0.6815  0.1088  1.1325
  677MOL0     C91320  11.550  10.143   0.116 -0.8884 -0.7038 -0.9271
  677MOL0     C91321  11.695  10.106   0.052 -0.0192  0.9090 -0.0262
  677MOL0     C91322  11.804  10.180   0.133 -0.7035  0.1220 -0.8164
  677MOL0     C91323  11.818  10.324   0.088  0.4470 -0.0168  0.5715
  677MOL0     C91324  11.935  10.386   0.152 -0.2772  0.1122  0.3147
  677MOL0     C91325  12.021  10.442   0.213 -0.2308  0.7615 -0.2328
  677MOL0     C91326  11.230  10.005   0.031 -0.3049 -0.1051  1.0801
  677MOL0     C91327  11.106   9.978   0.088  0.4337  0.5510 -0.4767
  677MOL0     H91328  10.919   9.852   0.625  0.5282  1.0210  0.3158
  677MOL0     H91329  10.700   9.790   0.730  1.7011 -1.4787 -1.0923
  677MOL0     H91330  10.373   9.842   0.494  2.3225  1.4205 -0.4211
  677MOL0     H91331  10.436   9.729   0.612  2.8579  1.7502 -2.0726
  677MOL0     H91332  10.189   9.731   0.622  1.9039 -2.6542  2.4380
  677MOL0     H91333  10.261   9.806   0.762 -0.2788  0.3539  0.7817
  677MOL0     H91334  10.219  10.037   0.678  2.9222  0.9839 -1.7416
  677MOL0     H91335  10.176   9.966   0.520 -1.2118  1.7773  1.7611
  677MOL0     H91336   9.982  10.025   0.594 -1.2500 -0.9022  1.3358
  677MOL0     H91337   9.983   9.853   0.614  0.3759 -0.0051 -2.4078
  677MOL0     H91338   9.890   9.912   0.819  1.1949 -2.4949 -2.3253
  677MOL0     H91339  10.071   9.924   0.853 -1.6721 -0.9241  2.5546
  677MOL0     H91340  10.057  10.176   0.804  0.2812 -2.0067 -0.0469
  677MOL0     H91341   9.890  10.146   0.763  0.0784 -1.3053 -1.2928
  677MOL0     H91342   9.825  10.053   0.981  1.0231 -0.9840  1.7672
  677MOL0     H91343   9.972  10.103   1.053 -1.8376 -0.2769  2.3191
  677MOL0     H91344   9.895  10.335   0.917  2.0199 -0.7106  1.7382
  677MOL0     H91345   9.879  10.300   1.093  0.9313  0.5978 -0.3817
  677MOL0     H91346   9.698  10.230   0.767  1.3004 -3.8464  2.9504
  677MOL0     H91347   9.432  10.389   0.716  1.6479 -0.6238 -0.3610
  677MOL0     H91348   9.437  10.216   0.706 -1.2794  0.8406 -0.7843
  677MOL0     H91349   9.205  10.330   0.740 -1.3025 -0.2558 -0.3185
  677MOL0     H91350   9.249  10.373   0.905  0.7672 -1.0204  0.7167
  677MOL0     H91351   9.296  10.142   0.965 -0.3107  0.3484  0.0791
  677MOL0     H91352   9.255  10.082   0.798 -0.1607  0.0086 -1.5264
  677MOL0     H91353   9.053  10.216   0.966  3.0882  0.9240 -0.6740
  677MOL0     H91354   9.066  10.041   0.953  1.3516  0.4540  0.8879
  677MOL0     H91355   8.839  10.087   0.971 -2.2248 -1.0940  0.4059
  677MOL0     H91356   8.596  10.193   1.074 -1.8071  0.2396  0.1320
  677MOL0     H91357   8.480  10.078   0.994 -0.1171 -1.3073 -1.5103
  677MOL0     H91358   8.629  10.020   1.047 -1.0093 -1.7000 -2.8856
  677MOL0     H91359   8.272  10.408   0.954  0.3816  2.7439 -0.3512
  677MOL0     H91360   8.007  10.459   0.942 -0.1192  0.7463 -0.9249
  677MOL0     H91361   7.840  10.491   0.540  0.3013 -1.7271  0.1887
  677MOL0     H91362   7.788  10.345   0.605  1.6754  0.6863 -1.6771
  677MOL0     H91363   7.613  10.507   0.740 -1.1950  2.1308 -0.0316
  677MOL0     H91364   7.661  10.615   0.618 -0.1366  0.1830 -2.8458
  677MOL0     H91365   7.549  10.327   0.561 -0.3246  0.2018 -1.5778
  677MOL0     H91366   7.594  10.446   0.436 -0.2529  2.1645 -0.4962
  677MOL0     H91367   7.390  10.498   0.648 -2.4052 -1.7736 -0.5278
  677MOL0     H91368   7.446  10.602   0.508  0.6791 -0.4475  0.0546
  677MOL0     H91369   7.313  10.334   0.471 -2.1511  0.5693 -0.7806
  677MOL0     H91370   7.356  10.453   0.345 -2.7657 -1.7073 -1.9003
  677MOL0     H91371   7.183  10.606   0.442 -1.3849 -0.3396  0.2177
  677MOL0     H91372   7.151  10.462   0.348 -0.2693 -0.5986 -0.2042
  677MOL0     H91373   7.133  10.474   0.670  1.6036 -2.8027  0.5871
  677MOL0     H91374   7.105  10.335   0.575  1.1696  0.3444  0.0232
  677MOL0     H91375   6.905  10.479   0.461 -0.4686 -1.2365 -0.1988
  677MOL0     H91376   6.930  10.582   0.599  0.9505 -0.0717 -1.3657
  677MOL0     H91377   8.008  10.383   0.530 -0.8378  2.2444  0.1624
  677MOL0     H91378   8.249  10.318   0.533  0.5536  2.0062 -0.0122
  677MOL0     H91379   8.640  10.278   0.565  0.6747 -2.0160 -2.0034
  677MOL0     H91380   8.873  10.225   0.564 -0.4196 -1.4307 -0.3877
  677MOL0     H91381  10.492  10.065   0.467 -0.0456  0.8739  1.4490
  677MOL0     H91382  10.721  10.098   0.333  0.7910 -0.8076 -0.8616
  677MOL0     H91383  11.166  10.135   0.387  2.5473  1.6263 -0.9457
  677MOL0     H91384  11.349  10.200   0.274 -0.4628  0.3923  0.8140
  677MOL0     H91385  11.550  10.252   0.119  0.8634 -0.6907 -0.5616
  677MOL0     H91386  11.546  10.103   0.217  1.5488  2.4495  0.5796
  677MOL0     H91387  11.704  10.144  -0.050  1.2220 -0.3780 -0.4268
  677MOL0     H91388  11.707   9.998   0.045 -2.2586  0.6472 -0.6335
  677MOL0     H91389  11.898  10.129   0.111 -2.0570 -3.7971  1.4417
  677MOL0     H91390  11.787  10.167   0.241 -1.7504  4.6849 -0.1987
  677MOL0     H91391  11.732  10.387   0.110 -0.2160 -0.4248 -0.7510
  677MOL0     H91392  11.840  10.326  -0.020  0.7951 -2.0541  0.5725
  677MOL0     H91393  12.098  10.494   0.266 -1.1971 -0.1981  2.3053
  677MOL0     H91394  11.254   9.960  -0.065  3.0386 -2.4704  2.8196
  677MOL0     H91395  11.028   9.936   0.025 -2.0153  2.7494  0.8850
  678MOL0     O91396   0.407   4.419  10.061  0.4690 -0.2132 -0.0350
  678MOL0     C91397   0.451   4.437   9.949 -0.0192  0.5334  0.2552
  678MOL0     O91398   0.405   4.396   9.828  0.0687  0.3797 -0.2977
  678MOL0     C91399   0.279   4.343   9.819  0.4392 -0.3725  0.5766
  678MOL0     C91400   0.165   4.406   9.865 -0.4164 -0.1856 -0.7287
  678MOL0     C91401   0.037   4.343   9.859  0.0511 -0.2563  0.3656
  678MOL0     C91402   0.017   4.235   9.778  0.2330  0.5470 -0.3405
  678MOL0     O91403  -0.101   4.166   9.792  0.4079  0.3816 -1.3054
  678MOL0     C91404  -0.142   4.071   9.691 -0.1819  0.3275 -0.2211
  678MOL0     C91405  -0.294   4.042   9.718 -0.1305 -0.5886  1.1698
  678MOL0     C91406  -0.342   3.937   9.615  1.1238 -0.2997 -0.3648
  678MOL0     C91407  -0.500   3.925   9.617 -0.9469  0.6850  0.3627
  678MOL0     C91408  -0.542   3.836   9.499 -0.2315  0.0312 -0.0210
  678MOL0     C91409  -0.686   3.804   9.510 -0.1291  0.1839  0.7887
  678MOL0     C91410  -0.738   3.700   9.410 -0.0015  0.1896  0.4555
  678MOL0     C91411  -0.750   3.746   9.260  0.6767  0.1883 -0.1676
  678MOL0     N91412  -0.825   3.662   9.163  0.0644  0.1566  0.6753
  678MOL0     C91413  -0.787   3.636   9.034 -0.1203  0.2106 -0.1361
  678MOL0     C91414  -0.899   3.612   8.969  0.3746  0.4293  0.7952
  678MOL0     C91415  -0.899   3.582   8.815 -0.0134 -0.0120  0.2408
  678MOL0     C91416  -1.048   3.525   8.775 -0.4169  0.2643  0.4305
  678MOL0     C91417  -1.044   3.456   8.641 -0.3134 -0.0713  0.7926
  678MOL0     C91418  -1.168   3.388   8.608  0.0569 -0.9280  0.2514
  678MOL0     O91419  -1.263   3.486   8.574 -0.4323  0.5374  0.0250
  678MOL0     C91420  -1.383   3.445   8.537  0.1787 -0.6064 -0.3639
  678MOL0     C91421  -1.418   3.319   8.471 -0.5577  0.8021 -0.6826
  678MOL0     C91422  -1.550   3.290   8.443  0.2098 -0.0333  0.0723
  678MOL0     C91423  -1.577   3.148   8.406  0.4488  0.4061  0.2906
  678MOL0     C91424  -1.663   3.378   8.460 -0.0790  1.1942 -0.1035
  678MOL0     C91425  -1.806   3.345   8.430 -0.8906 -0.1132 -0.7203
  678MOL0     O91426  -1.890   3.392   8.523 -0.0205 -0.2644  0.4781
  678MOL0     C91427  -2.025   3.363   8.522  0.6089 -0.4333  0.3606
  678MOL0     C91428  -2.103   3.394   8.410  0.1464  0.0784 -0.5821
  678MOL0     C91429  -2.242   3.378   8.420  0.6405 -0.4649 -0.3044
  678MOL0     C91430  -2.302   3.346   8.547  0.9406  0.1594 -0.8145
  678MOL0     O91431  -2.441   3.353   8.564  0.1152 -0.2261 -0.0890
  678MOL0     C91432  -2.501   3.436   8.468 -0.2249 -0.6412 -0.3801
  678MOL0     C91433  -2.644   3.485   8.512 -0.2207 -0.3964  0.8071
  678MOL0     C91434  -2.708   3.574   8.406 -0.2716  0.0715 -0.9082
  678MOL0     C91435  -2.832   3.645   8.461 -0.0331  0.3691 -1.2195
  678MOL0     C91436  -2.941   3.557   8.530  0.1734  0.7099 -0.0635
  678MOL0     C91437  -3.074   3.637   8.543 -0.4084  0.1467 -0.3022
  678MOL0     C91438  -3.197   3.555   8.572  0.2034  0.0091  0.5391
  678MOL0     C91439  -3.195   3.487   8.705  0.1736 -0.3231 -0.0820
  678MOL0    Cl91440  -3.199   3.601   8.836  0.3044 -0.0716 -0.4575
  678MOL0     C91441  -2.223   3.300   8.643 -0.3655 -0.1342  0.3182
  678MOL0     C91442  -2.090   3.306   8.632 -0.8997  0.6008 -0.1887
  678MOL0     O91443  -1.845   3.270   8.340 -0.0115 -0.3113  0.2980
  678MOL0     C91444  -1.623   3.501   8.522  0.0551  0.2155  0.7409
  678MOL0     C91445  -1.487   3.534   8.552  0.0078 -0.1073  0.1355
  678MOL0     N91446  -1.001   3.618   9.061 -0.0049  0.3110 -0.1177
  678MOL0     N91447  -0.961   3.648   9.173 -0.1702  0.2637 -0.5144
  678MOL0     C91448   0.130   4.178   9.715  0.3799  0.5910 -0.1689
  678MOL0     C91449   0.262   4.229   9.744 -0.6222 -0.6991  0.1278
  678MOL0     C91450   0.588   4.495   9.945 -0.5461 -0.0012 -1.4468
  678MOL0     C91451   0.665   4.524   9.827  0.1402 -0.6455 -0.5966
  678MOL0     C91452   0.783   4.597   9.829  0.9964 -0.6305 -0.5168
  678MOL0     C91453   0.831   4.649   9.952  1.2560  0.8146 -0.0453
  678MOL0     O91454   0.947   4.723   9.953 -0.9332  0.7269 -0.3362
  678MOL0     C91455   1.067   4.639   9.946  0.8156 -0.0432 -0.0998
  678MOL0     C91456   1.158   4.683  10.060 -0.2864 -0.1220 -0.2463
  678MOL0     C91457   1.135   4.607  10.186 -0.1908 -0.7225 -0.3454
  678MOL0     C91458   1.193   4.665  10.312  0.7333 -0.1510 -0.5004
  678MOL0     C91459   1.118   4.622  10.429  0.4925  0.0535 -0.0503
  678MOL0     C91460   1.050   4.584  10.524 -0.0217 -0.0584  1.1908
  678MOL0     C91461   0.763   4.624  10.068  0.4030 -0.7811  0.0360
  678MOL0     C91462   0.644   4.547  10.068  0.3324 -0.3174 -0.2663
  678MOL0     H91463   0.179   4.494   9.927  1.8565 -1.9255  1.4354
  678MOL0     H91464  -0.055   4.385   9.896 -0.0803 -2.2474  2.4799
  678MOL0     H91465  -0.133   4.112   9.589  0.4222 -3.7747 -2.0004
  678MOL0     H91466  -0.075   3.985   9.694  1.1393  1.3159 -0.2340
  678MOL0     H91467  -0.315   4.002   9.817 -1.4168  0.4469  1.3422
  678MOL0     H91468  -0.346   4.138   9.705 -0.6154 -0.6489  2.4757
  678MOL0     H91469  -0.309   3.973   9.518  1.3845  2.0133  0.5123
  678MOL0     H91470  -0.304   3.836   9.632 -1.6035 -1.2911  0.3022
  678MOL0     H91471  -0.518   3.875   9.712 -0.1563  0.6767  0.5153
  678MOL0     H91472  -0.548   4.022   9.604  0.1785  1.1941 -0.1734
  678MOL0     H91473  -0.529   3.902   9.413 -1.4593  0.7840  0.3375
  678MOL0     H91474  -0.489   3.741   9.492 -4.9242 -2.9425  0.6729
  678MOL0     H91475  -0.697   3.768   9.613  3.7577 -2.7171  0.4474
  678MOL0     H91476  -0.753   3.890   9.506 -1.6386 -0.9909 -1.3941
  678MOL0     H91477  -0.668   3.616   9.418 -0.6714 -0.2628  2.0692
  678MOL0     H91478  -0.842   3.669   9.427  0.1233 -1.7666 -1.7782
  678MOL0     H91479  -0.651   3.755   9.213  2.5356 -2.0945  2.9428
  678MOL0     H91480  -0.799   3.843   9.270 -2.0084 -0.9198 -1.6607
  678MOL0     H91481  -0.685   3.635   8.997 -0.1668  0.1793 -0.2644
  678MOL0     H91482  -0.868   3.669   8.756  0.4598 -1.2014 -1.3401
  678MOL0     H91483  -0.826   3.503   8.797 -0.4405  0.2638 -3.6281
  678MOL0     H91484  -1.119   3.608   8.763  1.4595  1.5977 -3.2031
  678MOL0     H91485  -1.075   3.460   8.858  1.2405 -0.1729  0.6561
  678MOL0     H91486  -0.955   3.393   8.639 -0.4942 -0.3458  1.4290
  678MOL0     H91487  -1.030   3.533   8.564 -1.7991  0.1272  0.6903
  678MOL0     H91488  -1.208   3.319   8.683 -2.1519 -0.0047  0.0070
  678MOL0     H91489  -1.159   3.314   8.528  2.5651 -0.6719  0.2203
  678MOL0     H91490  -1.342   3.247   8.443  1.2610  1.8642  1.2111
  678MOL0     H91491  -1.654   3.134   8.330 -1.6441  0.0423  2.3368
  678MOL0     H91492  -1.492   3.094   8.363 -2.1830 -1.3263 -3.2208
  678MOL0     H91493  -1.603   3.092   8.497  0.1716 -2.7193 -1.5737
  678MOL0     H91494  -2.059   3.418   8.314 -2.3517  0.8218 -1.6164
  678MOL0     H91495  -2.302   3.392   8.330  0.0182 -0.8352  0.0407
  678MOL0     H91496  -2.440   3.526   8.454  0.9239 -1.4272 -0.5148
  678MOL0     H91497  -2.516   3.395   8.368 -1.2179 -1.7946  0.2083
  678MOL0     H91498  -2.704   3.395   8.529  0.3764 -0.8025  0.8341
  678MOL0     H91499  -2.643   3.532   8.611 -2.2952  1.8200 -0.1349
  678MOL0     H91500  -2.732   3.514   8.318  1.6154 -0.6829 -0.9535
  678MOL0     H91501  -2.646   3.654   8.364 -0.4896  1.9381  1.9865
  678MOL0     H91502  -2.796   3.723   8.530  1.3852 -0.3775 -1.0825
  678MOL0     H91503  -2.878   3.695   8.375  1.9408  0.5572 -2.2189
  678MOL0     H91504  -2.906   3.515   8.625  1.9453  4.8377  1.3580
  678MOL0     H91505  -2.952   3.474   8.460 -0.4567  2.8517 -2.6929
  678MOL0     H91506  -3.051   3.715   8.616 -1.0196 -2.0798  2.4381
  678MOL0     H91507  -3.091   3.693   8.450 -2.4336  1.1170  0.5811
  678MOL0     H91508  -3.198   3.470   8.504  4.3207 -1.0954  1.5745
  678MOL0     H91509  -3.290   3.613   8.573 -0.2115 -0.6425  0.3063
  678MOL0     H91510  -3.109   3.421   8.722  0.7286  0.4020 -0.0445
  678MOL0     H91511  -3.291   3.433   8.711 -0.0629  0.2084  1.3926
  678MOL0     H91512  -2.270   3.278   8.738 -1.6152  2.3366  0.3482
  678MOL0     H91513  -2.032   3.273   8.718 -0.5891 -1.5382 -1.1557
  678MOL0     H91514  -1.693   3.581   8.544 -0.2833 -0.4009  2.0552
  678MOL0     H91515  -1.462   3.635   8.584 -1.0662  0.3670 -0.4820
  678MOL0     H91516   0.122   4.087   9.656  3.0116  0.3585 -0.2879
  678MOL0     H91517   0.349   4.186   9.697 -0.5701 -0.3059 -0.1411
  678MOL0     H91518   0.624   4.504   9.729 -1.7992 -0.9815  0.2335
  678MOL0     H91519   0.843   4.627   9.743 -1.2838  5.1500 -0.5808
  678MOL0     H91520   1.054   4.531   9.962  1.5185 -0.1782 -0.4317
  678MOL0     H91521   1.114   4.649   9.848  1.2191  1.0404  0.1885
  678MOL0     H91522   1.143   4.792  10.065  0.4370  0.1701 -2.7253
  678MOL0     H91523   1.256   4.659  10.017  0.1048  1.6167 -0.4011
  678MOL0     H91524   1.161   4.502  10.175  0.0202 -0.5728 -1.3502
  678MOL0     H91525   1.026   4.621  10.191 -0.2467 -0.4270 -1.8774
  678MOL0     H91526   1.202   4.774  10.306  0.1460  0.0573  1.5540
  678MOL0     H91527   1.289   4.620  10.338  0.1693 -1.2817 -0.3258
  678MOL0     H91528   0.978   4.569  10.602 -1.0522 -2.6987 -0.1509
  678MOL0     H91529   0.812   4.657  10.159  1.6573  0.7335 -1.1189
  678MOL0     H91530   0.592   4.539  10.164  0.2171  0.2327 -0.2802
  679MOL0     O91531   2.062   6.932  11.019  0.4106 -0.6121 -0.1048
  679MOL0     C91532   2.136   6.941  11.114  0.2997 -1.2376 -0.0925
  679MOL0     O91533   2.102   6.979  11.241 -0.4271  0.0309  0.4135
  679MOL0     C91534   1.975   7.015  11.256 -1.4712  1.7775  0.2372
  679MOL0     C91535   1.897   6.927  11.336  0.9148 -0.7295  0.8347
  679MOL0     C91536   1.756   6.950  11.355  0.8587 -0.0543  0.3507
  679MOL0     C91537   1.698   7.057  11.278 -0.1550  0.6521  0.8075
  679MOL0     O91538   1.563   7.088  11.270  0.4519 -0.2036  0.2218
  679MOL0     C91539   1.475   7.012  11.355 -0.2734  1.0606  0.1562
  679MOL0     C91540   1.359   7.104  11.383  0.3830 -0.6026 -0.5973
  679MOL0     C91541   1.271   7.139  11.263 -0.3141  0.0934 -0.0926
  679MOL0     C91542   1.148   7.201  11.309 -0.1618 -1.1391  0.3406
  679MOL0     C91543   1.048   7.213  11.182  0.3356  0.2529  0.0998
  679MOL0     C91544   0.917   7.279  11.228 -0.4898 -0.0082 -0.7393
  679MOL0     C91545   0.828   7.192  11.334 -1.0500 -0.7207  0.2444
  679MOL0     C91546   0.684   7.237  11.347 -0.2104 -0.3238 -0.9398
  679MOL0     N91547   0.617   7.265  11.226  0.0792  0.1141 -0.5836
  679MOL0     C91548   0.571   7.389  11.182 -0.0555  1.0743 -0.3137
  679MOL0     C91549   0.538   7.379  11.057 -0.1402 -0.9486 -0.0439
  679MOL0     C91550   0.465   7.486  10.973 -0.3876 -0.3658 -0.8323
  679MOL0     C91551   0.310   7.468  10.979  0.3536 -0.3342  0.2583
  679MOL0     C91552   0.230   7.592  10.970 -0.2620 -0.0302  1.2797
  679MOL0     C91553   0.078   7.566  10.974  0.7359  0.1660  0.4690
  679MOL0     O91554   0.047   7.489  11.088  0.1155 -0.7801 -0.3961
  679MOL0     C91555  -0.073   7.422  11.093 -0.4884 -0.0031  0.9170
  679MOL0     C91556  -0.177   7.453  11.008  0.7136 -0.5786  0.2790
  679MOL0     C91557  -0.308   7.387  11.015 -0.6018 -0.3201  0.0426
  679MOL0     C91558  -0.406   7.443  10.916 -0.1088 -0.1797 -0.2272
  679MOL0     C91559  -0.331   7.292  11.109 -0.1295 -0.3668 -0.0681
  679MOL0     C91560  -0.460   7.222  11.146 -0.1468 -0.2790 -0.3294
  679MOL0     O91561  -0.460   7.102  11.222  0.7587 -0.2951 -0.1213
  679MOL0     C91562  -0.581   7.045  11.263 -0.0445  0.1286  0.3050
  679MOL0     C91563  -0.675   7.000  11.178  0.4960  0.3492  0.3380
  679MOL0     C91564  -0.783   6.930  11.212 -0.0299  0.0472 -0.3579
  679MOL0     C91565  -0.803   6.897  11.340 -0.1008 -0.0742  0.5580
  679MOL0     O91566  -0.920   6.838  11.363  0.2388 -0.7663 -0.1030
  679MOL0     C91567  -0.983   6.845  11.497  0.1350  0.4203  0.1499
  679MOL0     C91568  -1.130   6.798  11.498  0.6293  0.8628 -0.4020
  679MOL0     C91569  -1.231   6.888  11.417 -0.5130  0.0348  0.0372
  679MOL0     C91570  -1.201   7.040  11.412  0.0034 -0.5588  0.0792
  679MOL0     C91571  -1.317   7.134  11.384 -0.1896  0.1515 -0.0443
  679MOL0     C91572  -1.356   7.136  11.241 -0.7565  0.1278 -0.3857
  679MOL0     C91573  -1.476   7.229  11.232 -0.2859 -0.5047 -0.1219
  679MOL0     C91574  -1.530   7.222  11.093  0.7540  0.0992  0.5490
  679MOL0    Cl91575  -1.665   7.328  11.073  0.3050 -0.1197  0.1206
  679MOL0     C91576  -0.712   6.933  11.438 -0.6927  0.2407 -0.4661
  679MOL0     C91577  -0.595   7.011  11.395  0.2037  0.8585 -0.2803
  679MOL0     O91578  -0.563   7.284  11.128 -0.2986 -0.3992  0.0823
  679MOL0     C91579  -0.230   7.265  11.200 -0.3973 -0.2383  0.2381
  679MOL0     C91580  -0.104   7.326  11.188  0.2585  0.5650 -0.4304
  679MOL0     N91581   0.548   7.243  11.024 -0.1318  0.4180 -0.4368
  679MOL0     N91582   0.596   7.179  11.128  0.7368 -0.9741  0.2027
  679MOL0     C91583   1.780   7.140  11.205  0.0425 -0.4673 -0.0824
  679MOL0     C91584   1.918   7.120  11.194  0.0842  0.3085 -0.0662
  679MOL0     C91585   2.276   6.905  11.094  0.0259  0.7072  0.2370
  679MOL0     C91586   2.365   6.895  11.204 -0.4093  0.4083  0.2923
  679MOL0     C91587   2.502   6.855  11.187  0.4886 -0.4647  0.0955
  679MOL0     C91588   2.549   6.816  11.063  0.0292 -0.1148 -1.1328
  679MOL0     O91589   2.668   6.762  11.033 -0.0436  0.1382  0.1095
  679MOL0     C91590   2.763   6.738  11.133 -0.1876 -0.1992 -0.2856
  679MOL0     C91591   2.893   6.680  11.073  0.1208  0.4205 -0.2534
  679MOL0     C91592   2.961   6.595  11.185 -0.5642 -0.3241 -0.0381
  679MOL0     C91593   3.100   6.540  11.140  0.7612  0.2647 -0.1653
  679MOL0     C91594   3.075   6.463  11.021 -0.0764  0.2490 -0.0437
  679MOL0     C91595   3.053   6.385  10.928  0.5007 -0.4494  0.5218
  679MOL0     C91596   2.459   6.823  10.954 -0.7198 -0.1350  0.0796
  679MOL0     C91597   2.320   6.870  10.967 -0.7946 -0.4104 -0.7116
  679MOL0     H91598   1.933   6.831  11.371 -1.1384 -1.5418  0.8737
  679MOL0     H91599   1.705   6.868  11.405  1.3095  0.6232  1.9621
  679MOL0     H91600   1.442   6.918  11.309 -0.3610  0.9476  0.4494
  679MOL0     H91601   1.524   6.989  11.450 -0.1503 -2.6817 -0.6742
  679MOL0     H91602   1.299   7.044  11.452 -0.4228  0.4690 -0.3346
  679MOL0     H91603   1.392   7.192  11.438  0.1931 -1.2183  0.5509
  679MOL0     H91604   1.322   7.191  11.181  0.1116 -1.5526 -0.9346
  679MOL0     H91605   1.244   7.043  11.218 -1.8863  0.4856 -0.0306
  679MOL0     H91606   1.090   7.148  11.384 -2.5333  1.4907  0.5280
  679MOL0     H91607   1.177   7.299  11.349 -0.7041 -0.9152  0.1819
  679MOL0     H91608   1.089   7.262  11.094  0.2940 -2.7041 -1.6978
  679MOL0     H91609   1.029   7.110  11.148 -2.8860  0.9621 -0.6265
  679MOL0     H91610   0.936   7.376  11.274 -1.1873 -1.0282  1.9204
  679MOL0     H91611   0.870   7.287  11.129  0.0096  0.2940 -0.9553
  679MOL0     H91612   0.842   7.090  11.298  1.6974 -0.6667  0.9099
  679MOL0     H91613   0.878   7.194  11.432 -0.4062  1.5973 -0.0623
  679MOL0     H91614   0.683   7.323  11.415  0.5934 -0.6684 -0.4719
  679MOL0     H91615   0.622   7.165  11.402  1.9653  0.3826  2.7998
  679MOL0     H91616   0.562   7.479  11.242  3.6515  0.6259  1.1847
  679MOL0     H91617   0.483   7.583  11.021  2.2648 -2.1197  2.0956
  679MOL0     H91618   0.508   7.487  10.873 -0.7075  0.6989 -0.9656
  679MOL0     H91619   0.285   7.419  11.074  1.8686 -0.4948  0.5896
  679MOL0     H91620   0.286   7.392  10.904  0.8524  0.8236 -1.1136
  679MOL0     H91621   0.261   7.639  10.876  0.9679 -0.7769  1.2880
  679MOL0     H91622   0.253   7.664  11.049  1.0331  2.1841 -0.9607
  679MOL0     H91623   0.039   7.515  10.885 -1.8697  0.9068  1.1060
  679MOL0     H91624   0.034   7.665  10.979  0.5557  0.0585  1.1133
  679MOL0     H91625  -0.172   7.536  10.939  2.4483 -0.0346  1.0154
  679MOL0     H91626  -0.362   7.505  10.837  0.8742 -0.9666 -0.3178
  679MOL0     H91627  -0.461   7.358  10.876  0.8329  0.0438 -2.1458
  679MOL0     H91628  -0.475   7.511  10.967 -1.7953  0.0224 -2.5931
  679MOL0     H91629  -0.651   7.022  11.074 -2.8118 -1.1131 -0.8868
  679MOL0     H91630  -0.852   6.896  11.135  0.1810 -1.7279  0.1935
  679MOL0     H91631  -0.932   6.779  11.568 -0.3739  2.1807  2.2586
  679MOL0     H91632  -0.975   6.950  11.528  2.2633  1.0882 -2.3056
  679MOL0     H91633  -1.139   6.696  11.460 -0.1230  0.2269  1.3895
  679MOL0     H91634  -1.156   6.783  11.603 -1.4192  0.7766 -0.8733
  679MOL0     H91635  -1.329   6.869  11.460 -0.2198 -0.2233  0.6069
  679MOL0     H91636  -1.230   6.852  11.313  0.3778  3.8563 -1.4555
  679MOL0     H91637  -1.160   7.067  11.510  1.8192 -1.7680 -0.3061
  679MOL0     H91638  -1.116   7.058  11.346 -0.2874 -0.8386 -0.3702
  679MOL0     H91639  -1.287   7.235  11.413 -1.6444  1.3581 -2.4440
  679MOL0     H91640  -1.397   7.113  11.456  1.3572  1.9041  2.3507
  679MOL0     H91641  -1.272   7.164  11.177  2.5139 -2.4231  2.4391
  679MOL0     H91642  -1.385   7.036  11.210  0.3034 -0.1001 -0.6779
  679MOL0     H91643  -1.455   7.334  11.254 -1.0808 -0.7414  1.9750
  679MOL0     H91644  -1.548   7.203  11.310 -4.4648  2.7280 -2.4736
  679MOL0     H91645  -1.561   7.118  11.075 -1.1274  0.2957  2.2559
  679MOL0     H91646  -1.448   7.249  11.026  1.2044 -2.9793 -0.3112
  679MOL0     H91647  -0.730   6.899  11.539 -0.3180  3.2598  0.6932
  679MOL0     H91648  -0.521   7.036  11.470 -0.9137 -0.4469  1.3312
  679MOL0     H91649  -0.245   7.197  11.284 -1.5149  0.4890  0.6572
  679MOL0     H91650  -0.027   7.299  11.258  0.4937 -0.8601 -1.2084
  679MOL0     H91651   1.742   7.226  11.150  2.6984  0.3538 -0.7593
  679MOL0     H91652   1.962   7.193  11.127 -3.4847  0.7006 -2.2387
  679MOL0     H91653   2.344   6.911  11.310  1.0205 -0.8581  0.8034
  679MOL0     H91654   2.579   6.863  11.263  1.2746  2.5683 -0.8801
  679MOL0     H91655   2.790   6.819  11.201  1.0539 -0.1156 -0.8454
  679MOL0     H91656   2.720   6.656  11.191 -0.3340  0.2712  0.2739
  679MOL0     H91657   2.957   6.758  11.030  0.2100 -0.4526 -1.7757
  679MOL0     H91658   2.856   6.616  10.993 -4.5289  1.0450  1.0885
  679MOL0     H91659   2.896   6.511  11.212  0.4537 -0.8966  0.6941
  679MOL0     H91660   2.976   6.650  11.279  0.4352  1.1262 -0.9893
  679MOL0     H91661   3.145   6.477  11.217  0.3250 -0.6818 -0.6589
  679MOL0     H91662   3.174   6.614  11.109  0.2851 -0.6853 -4.2165
  679MOL0     H91663   3.041   6.311  10.851  0.0565 -0.0379  0.1961
  679MOL0     H91664   2.504   6.795  10.859 -0.1529  0.1334  0.2651
  679MOL0     H91665   2.253   6.871  10.881  0.3780 -3.2107 -1.7843
  680MOL0     O91666   1.737   1.149   9.234 -0.7060  0.0990  0.3341
  680MOL0     C91667   1.756   1.264   9.259  0.2705  0.4476 -1.3241
  680MOL0     O91668   1.660   1.365   9.279 -0.1819  0.7370  0.1769
  680MOL0     C91669   1.524   1.340   9.253  1.1633  0.5085  0.0907
  680MOL0     C91670   1.448   1.457   9.245  0.0035 -0.4645 -0.8562
  680MOL0     C91671   1.306   1.456   9.227  0.2790  0.3068  0.3714
  680MOL0     C91672   1.241   1.332   9.230  0.4988 -0.0751 -0.8485
  680MOL0     O91673   1.107   1.349   9.212  0.1100 -0.7312  0.4730
  680MOL0     C91674   1.035   1.231   9.170 -0.6708 -0.4312 -0.4109
  680MOL0     C91675   0.915   1.276   9.091 -0.1867 -0.5375 -1.0529
  680MOL0     C91676   0.796   1.323   9.183 -0.0176 -0.3949 -0.8412
  680MOL0     C91677   0.667   1.349   9.105  0.4312 -0.1309  0.4643
  680MOL0     C91678   0.567   1.427   9.191  0.7663  0.3355 -0.4424
  680MOL0     C91679   0.437   1.462   9.113  0.1220  0.0007 -0.0995
  680MOL0     C91680   0.323   1.522   9.191  0.2596 -0.7286  0.5235
  680MOL0     C91681   0.198   1.537   9.094  0.6303 -0.4865 -0.2852
  680MOL0     N91682   0.102   1.635   9.146 -0.3060 -0.0302 -0.0226
  680MOL0     C91683   0.078   1.759   9.087  0.5245 -0.1738 -0.6053
  680MOL0     C91684  -0.063   1.768   9.081 -0.4720  0.4210 -0.0584
  680MOL0     C91685  -0.155   1.886   9.033 -0.0319  0.2491 -0.1317
  680MOL0     C91686  -0.122   1.956   8.893 -0.4026  0.7926 -0.3997
  680MOL0     C91687  -0.233   2.050   8.844  1.0072  0.2687 -0.4481
  680MOL0     C91688  -0.371   1.969   8.833 -0.7536  0.3152 -1.0174
  680MOL0     O91689  -0.444   2.000   8.957 -0.8655  0.7084 -0.4263
  680MOL0     C91690  -0.571   1.954   8.975 -0.6428  0.5174  0.2652
  680MOL0     C91691  -0.643   2.006   9.077  0.2089 -0.4628  0.0517
  680MOL0     C91692  -0.778   1.986   9.084 -0.2115  1.0048  0.6911
  680MOL0     C91693  -0.846   2.080   9.192  0.4766 -0.0339  0.2943
  680MOL0     C91694  -0.840   1.890   9.007  0.7194  0.4662 -0.4710
  680MOL0     C91695  -0.975   1.840   9.024  0.2947 -0.2106 -0.2518
  680MOL0     O91696  -1.007   1.727   8.953  0.1125  0.1032  0.1958
  680MOL0     C91697  -1.144   1.689   8.952  0.9651 -0.7793  0.3541
  680MOL0     C91698  -1.184   1.558   8.984  0.0463  0.0509 -0.4310
  680MOL0     C91699  -1.319   1.528   9.005  0.7426  0.3746  0.4089
  680MOL0     C91700  -1.421   1.620   8.984  0.3018 -0.9508  0.6088
  680MOL0     O91701  -1.554   1.617   9.021  0.4821  0.4843 -0.2525
  680MOL0     C91702  -1.602   1.492   9.051 -0.4283  0.4431 -0.2148
  680MOL0     C91703  -1.754   1.513   9.075 -0.1126 -0.0547 -0.2230
  680MOL0     C91704  -1.789   1.552   9.222  1.0908  0.7092 -0.0973
  680MOL0     C91705  -1.938   1.509   9.247  0.3960  0.0375 -0.8701
  680MOL0     C91706  -1.975   1.578   9.380 -0.3467  0.0167  0.7011
  680MOL0     C91707  -2.095   1.515   9.440 -0.4319  0.0768  0.4651
  680MOL0     C91708  -2.224   1.572   9.380  0.1402 -0.4089 -0.3386
  680MOL0     C91709  -2.345   1.500   9.433 -0.7083 -0.0865 -0.4251
  680MOL0    Cl91710  -2.373   1.516   9.604 -0.5527  0.1789 -0.1080
  680MOL0     C91711  -1.382   1.745   8.941  0.3786  0.2563  0.3012
  680MOL0     C91712  -1.248   1.783   8.929 -0.6695  1.0430 -0.3621
  680MOL0     O91713  -1.051   1.893   9.107 -0.3156  0.0283 -1.4002
  680MOL0     C91714  -0.759   1.824   8.908 -0.2857  0.2052  0.1731
  680MOL0     C91715  -0.626   1.855   8.889  0.8104 -0.1224 -0.4720
  680MOL0     N91716  -0.119   1.663   9.146 -0.5317  0.7903 -0.0741
  680MOL0     N91717  -0.022   1.583   9.181  0.3241  0.1562  0.0218
  680MOL0     C91718   1.307   1.208   9.247 -1.1514  0.1823 -1.1794
  680MOL0     C91719   1.453   1.218   9.249 -0.6420  0.6251  0.1245
  680MOL0     C91720   1.897   1.315   9.256 -0.7672 -0.8253  0.0479
  680MOL0     C91721   1.985   1.262   9.155  0.1514 -0.8266 -0.2070
  680MOL0     C91722   2.117   1.311   9.157 -0.4841  0.2377  0.4788
  680MOL0     C91723   2.163   1.409   9.250  0.0235 -0.0121 -0.5312
  680MOL0     O91724   2.296   1.441   9.251 -0.4155  0.0564 -0.3192
  680MOL0     C91725   2.343   1.542   9.343  0.1076 -0.8581 -0.1603
  680MOL0     C91726   2.497   1.522   9.337 -0.2409 -0.2735  1.0509
  680MOL0     C91727   2.559   1.565   9.202 -0.6566  0.5397  0.2517
  680MOL0     C91728   2.693   1.498   9.177 -0.1839 -0.1886  0.2795
  680MOL0     C91729   2.760   1.558   9.064  0.5032  0.4085  0.6856
  680MOL0     C91730   2.836   1.605   8.976  0.9779 -0.3305 -0.1544
  680MOL0     C91731   2.068   1.452   9.343 -0.0613 -0.0755 -0.3172
  680MOL0     C91732   1.943   1.410   9.357  0.5627  0.3274  0.7431
  680MOL0     H91733   1.500   1.552   9.239 -0.1609 -0.2118  1.0517
  680MOL0     H91734   1.252   1.545   9.197  0.7759  0.6578  0.5079
  680MOL0     H91735   1.086   1.159   9.106  0.0800  0.4463 -0.8231
  680MOL0     H91736   1.000   1.179   9.260  1.2264 -1.8406 -0.4469
  680MOL0     H91737   0.952   1.357   9.026  0.5071  0.1603  0.1828
  680MOL0     H91738   0.890   1.183   9.039 -0.6013 -0.4159 -1.0741
  680MOL0     H91739   0.772   1.249   9.260 -1.6151  1.4329  0.5174
  680MOL0     H91740   0.824   1.414   9.237 -2.7020 -0.2589  0.4739
  680MOL0     H91741   0.677   1.405   9.012  0.3163  1.2860  1.2850
  680MOL0     H91742   0.623   1.252   9.078 -0.7670 -0.0494  1.9771
  680MOL0     H91743   0.539   1.380   9.286 -1.3768  2.9605  0.3687
  680MOL0     H91744   0.625   1.518   9.209 -0.2657  1.2165 -1.3693
  680MOL0     H91745   0.453   1.525   9.025 -2.1950  0.3779 -0.3060
  680MOL0     H91746   0.394   1.370   9.071 -1.4943  0.0969  1.2260
  680MOL0     H91747   0.302   1.461   9.279  0.8154 -2.3822 -0.4343
  680MOL0     H91748   0.360   1.620   9.223 -0.7991 -0.4921  1.0376
  680MOL0     H91749   0.151   1.439   9.088  0.1216 -0.2638  0.0330
  680MOL0     H91750   0.234   1.562   8.994  3.7692  1.2498  1.1118
  680MOL0     H91751   0.151   1.833   9.057  1.6765 -1.2712 -0.6122
  680MOL0     H91752  -0.257   1.846   9.022  0.0098  0.2866 -0.6972
  680MOL0     H91753  -0.153   1.959   9.115  2.0301 -0.1746  0.2346
  680MOL0     H91754  -0.127   1.875   8.819 -0.3257 -1.5202  1.9938
  680MOL0     H91755  -0.025   2.006   8.885  0.0774 -0.3245 -2.2555
  680MOL0     H91756  -0.197   2.072   8.743  0.6296  0.0863 -0.6215
  680MOL0     H91757  -0.237   2.144   8.901  0.3755 -0.0418  0.0280
  680MOL0     H91758  -0.352   1.863   8.815 -3.1097 -0.2721 -0.2979
  680MOL0     H91759  -0.429   2.005   8.748 -2.2113 -0.4687 -0.3812
  680MOL0     H91760  -0.592   2.080   9.138 -0.1940  0.6955 -0.9579
  680MOL0     H91761  -0.784   2.161   9.232  0.5666 -0.9825  2.1435
  680MOL0     H91762  -0.942   2.127   9.170  1.1200  1.3930  0.4113
  680MOL0     H91763  -0.872   2.023   9.281 -0.1097  0.9750  0.7852
  680MOL0     H91764  -1.103   1.490   9.009 -2.8484 -3.3668  0.6158
  680MOL0     H91765  -1.353   1.433   9.045 -0.3329  0.3716 -0.4642
  680MOL0     H91766  -1.591   1.416   8.972 -1.4537  2.3785 -2.3419
  680MOL0     H91767  -1.563   1.455   9.146 -3.0659  0.2464  0.8643
  680MOL0     H91768  -1.795   1.587   9.005  1.2085  0.6100 -0.3280
  680MOL0     H91769  -1.794   1.414   9.052 -0.3208 -0.7809  2.9002
  680MOL0     H91770  -1.765   1.658   9.233  2.0236  0.2721  3.0783
  680MOL0     H91771  -1.720   1.512   9.297  0.7574 -0.4991 -0.4134
  680MOL0     H91772  -2.010   1.544   9.173 -1.2023 -0.8293  0.2226
  680MOL0     H91773  -1.950   1.401   9.258  2.3556 -0.3023 -1.5537
  680MOL0     H91774  -1.989   1.686   9.367  0.5580  0.3796  2.3712
  680MOL0     H91775  -1.889   1.581   9.449  1.4647  1.3676 -1.4788
  680MOL0     H91776  -2.095   1.406   9.437  1.6670  0.0280  0.6308
  680MOL0     H91777  -2.092   1.536   9.547  0.7826  2.9292 -0.0167
  680MOL0     H91778  -2.230   1.547   9.273 -1.1102 -0.6445 -0.2363
  680MOL0     H91779  -2.220   1.680   9.394  0.3547  0.0069 -2.9974
  680MOL0     H91780  -2.325   1.393   9.417 -0.6692 -0.2814  0.8695
  680MOL0     H91781  -2.432   1.527   9.372  0.2527 -1.1533 -2.3953
  680MOL0     H91782  -1.452   1.826   8.931 -0.8083 -1.0341 -3.9740
  680MOL0     H91783  -1.212   1.882   8.904  1.3460  1.1232  2.2731
  680MOL0     H91784  -0.802   1.743   8.849  2.7074  0.2707 -2.3446
  680MOL0     H91785  -0.560   1.811   8.815  1.5542  0.2188 -0.0172
  680MOL0     H91786   1.254   1.117   9.271 -0.0666 -0.8459 -2.5061
  680MOL0     H91787   1.517   1.134   9.273  0.6336  1.5090 -0.0750
  680MOL0     H91788   1.945   1.192   9.082 -0.5671 -1.6036  0.8899
  680MOL0     H91789   2.182   1.261   9.086  0.3325 -0.2438  1.5475
  680MOL0     H91790   2.321   1.643   9.306  2.0938 -1.1753 -2.4865
  680MOL0     H91791   2.311   1.537   9.447  0.5212 -0.1819  0.0084
  680MOL0     H91792   2.507   1.413   9.348 -1.4794 -0.7181 -1.4235
  680MOL0     H91793   2.551   1.562   9.423 -1.4088  0.2951  1.5516
  680MOL0     H91794   2.574   1.673   9.198 -0.3861  0.4718 -0.8377
  680MOL0     H91795   2.495   1.541   9.117 -2.0218 -0.1678  1.4300
  680MOL0     H91796   2.678   1.390   9.167 -2.5539 -0.1373  2.2161
  680MOL0     H91797   2.756   1.516   9.264  0.8575 -1.0176 -0.2840
  680MOL0     H91798   2.907   1.649   8.909 -0.5875  1.9412 -0.4019
  680MOL0     H91799   2.097   1.512   9.429  1.5354 -0.8152 -0.3021
  680MOL0     H91800   1.872   1.437   9.435 -1.3362 -0.3899 -0.6439
  681MOL0     O91801   0.522   1.211   4.760 -0.7420 -0.0265  0.4876
  681MOL0     C91802   0.543   1.134   4.848 -0.5383  0.9650  0.8312
  681MOL0     O91803   0.447   1.065   4.931 -0.9637  0.1803 -0.1601
  681MOL0     C91804   0.321   1.116   4.894 -0.1257  0.3772  0.6081
  681MOL0     C91805   0.272   1.221   4.963  0.9420  0.1852 -0.3609
  681MOL0     C91806   0.144   1.275   4.940 -0.1618 -0.1436  0.2489
  681MOL0     C91807   0.068   1.220   4.834  0.7376  0.3888  0.4753
  681MOL0     O91808  -0.050   1.267   4.788  0.3282 -0.1109  0.1999
  681MOL0     C91809  -0.138   1.310   4.890  0.2766  0.1866 -0.1609
  681MOL0     C91810  -0.285   1.312   4.844  0.0356 -1.0623  0.6691
  681MOL0     C91811  -0.306   1.354   4.698  0.3553  0.7709 -0.2593
  681MOL0     C91812  -0.454   1.366   4.689  0.2878  0.5814  0.9714
  681MOL0     C91813  -0.500   1.395   4.549 -0.6880 -0.4550 -0.3570
  681MOL0     C91814  -0.479   1.540   4.507 -0.1656 -0.2998  0.0139
  681MOL0     C91815  -0.530   1.551   4.362 -0.9279 -0.9953 -0.4680
  681MOL0     C91816  -0.444   1.482   4.257  0.7564 -0.7597 -0.3016
  681MOL0     N91817  -0.296   1.490   4.292  0.4609 -0.4535 -0.5668
  681MOL0     C91818  -0.223   1.377   4.329 -0.3354 -0.1228  0.7001
  681MOL0     C91819  -0.092   1.421   4.336 -0.4179 -0.6917 -0.3750
  681MOL0     C91820   0.020   1.331   4.382  0.6863  0.5156 -0.1847
  681MOL0     C91821   0.153   1.401   4.392 -0.5079 -0.2894  0.1826
  681MOL0     C91822   0.260   1.315   4.462 -0.7463 -0.1011 -0.4811
  681MOL0     C91823   0.294   1.194   4.382 -0.4296  0.2433  0.3366
  681MOL0     O91824   0.380   1.217   4.272  0.3802  0.0534  0.1811
  681MOL0     C91825   0.515   1.211   4.286  0.9916 -1.3672  0.2375
  681MOL0     C91826   0.587   1.211   4.172  0.3361  0.4031 -0.8917
  681MOL0     C91827   0.726   1.215   4.173  0.7090  0.8399  0.4535
  681MOL0     C91828   0.792   1.237   4.047 -0.0301 -0.0931  0.3148
  681MOL0     C91829   0.800   1.219   4.299 -0.2149 -0.2627  0.6578
  681MOL0     C91830   0.946   1.219   4.315  0.5232 -0.7112 -1.0264
  681MOL0     O91831   0.991   1.279   4.433 -0.5392 -0.0847 -0.1843
  681MOL0     C91832   1.115   1.256   4.484 -0.6260 -0.4208 -0.2630
  681MOL0     C91833   1.219   1.170   4.427  0.4910 -0.0169  0.6849
  681MOL0     C91834   1.348   1.166   4.474 -0.7799  0.0729 -0.7330
  681MOL0     C91835   1.379   1.235   4.591 -0.1575 -0.5336  0.1891
  681MOL0     O91836   1.512   1.222   4.623  0.6589 -0.5442 -0.1616
  681MOL0     C91837   1.540   1.211   4.763  0.4128  0.0276 -0.0415
  681MOL0     C91838   1.680   1.166   4.793  0.2693  0.3312 -0.4365
  681MOL0     C91839   1.709   1.025   4.743  0.2628  0.0608  0.4324
  681MOL0     C91840   1.864   1.003   4.755 -0.2265  0.4481  0.5758
  681MOL0     C91841   1.915   0.867   4.719  0.7855  0.7257  0.7180
  681MOL0     C91842   2.068   0.879   4.701 -0.0350  0.1693  0.6417
  681MOL0     C91843   2.129   0.751   4.648  1.2837 -0.5485  0.9367
  681MOL0     C91844   2.266   0.722   4.707  0.2208  0.9441  0.0947
  681MOL0    Cl91845   2.331   0.570   4.644 -0.3393  0.4600  0.2300
  681MOL0     C91846   1.285   1.313   4.652  0.1539 -0.3535  0.8207
  681MOL0     C91847   1.148   1.318   4.601 -0.9481 -0.4018  0.2143
  681MOL0     O91848   1.003   1.149   4.236 -0.7364 -1.0322 -0.3972
  681MOL0     C91849   0.722   1.220   4.415 -0.2312 -0.9013 -0.4941
  681MOL0     C91850   0.580   1.209   4.409 -1.0121 -0.4164  0.4356
  681MOL0     N91851  -0.097   1.563   4.314 -0.3866  0.5134  0.1869
  681MOL0     N91852  -0.216   1.600   4.287 -0.2245 -0.2804 -0.0365
  681MOL0     C91853   0.122   1.122   4.755 -0.2455  0.0826 -0.4197
  681MOL0     C91854   0.256   1.067   4.782  0.0250  0.0397 -0.4787
  681MOL0     C91855   0.679   1.125   4.894 -0.3043 -0.3343  0.1264
  681MOL0     C91856   0.726   1.016   4.979 -0.0989  0.8837  0.8006
  681MOL0     C91857   0.854   1.016   5.028  0.0189 -0.1928  0.0996
  681MOL0     C91858   0.945   1.110   4.995 -0.5767 -0.8864  0.0301
  681MOL0     O91859   1.074   1.087   5.032 -0.1101  0.4315  0.4191
  681MOL0     C91860   1.167   1.196   5.021 -0.1873  0.2415 -0.7897
  681MOL0     C91861   1.288   1.163   5.106 -0.4378  0.2640 -0.0750
  681MOL0     C91862   1.245   1.171   5.249 -0.1867  0.2816  0.3162
  681MOL0     C91863   1.352   1.139   5.352 -0.3357 -0.4288  0.3574
  681MOL0     C91864   1.282   1.102   5.476 -0.1305 -0.4555  0.6376
  681MOL0     C91865   1.225   1.094   5.583  0.3914 -0.5026 -0.0444
  681MOL0     C91866   0.905   1.221   4.928  0.3004 -0.2553 -0.1500
  681MOL0     C91867   0.777   1.229   4.873  0.4705 -0.7518  0.6482
  681MOL0     H91868   0.336   1.251   5.045  0.5172 -0.5243  0.2495
  681MOL0     H91869   0.110   1.364   4.991  3.2105  1.3494  0.1343
  681MOL0     H91870  -0.144   1.237   4.971 -0.8148  0.5960  0.1403
  681MOL0     H91871  -0.110   1.408   4.930  3.3223 -0.6268 -0.0325
  681MOL0     H91872  -0.325   1.211   4.858  0.0580 -1.5594 -2.3540
  681MOL0     H91873  -0.347   1.377   4.907 -0.6778  0.3416 -1.3999
  681MOL0     H91874  -0.260   1.450   4.675 -2.0494  2.6118  1.9237
  681MOL0     H91875  -0.267   1.279   4.628 -0.0504 -0.7856  1.1174
  681MOL0     H91876  -0.503   1.274   4.719  1.8287 -0.0380  1.6600
  681MOL0     H91877  -0.492   1.446   4.754 -1.5980  1.3845 -0.9822
  681MOL0     H91878  -0.447   1.328   4.481  0.1272  0.8870 -1.0977
  681MOL0     H91879  -0.604   1.361   4.542 -0.3045 -1.3864 -2.2199
  681MOL0     H91880  -0.535   1.615   4.564  1.2013  1.4299 -0.7958
  681MOL0     H91881  -0.373   1.568   4.510 -0.8621  3.0007 -1.2300
  681MOL0     H91882  -0.634   1.515   4.368 -1.3911  0.0871 -1.6189
  681MOL0     H91883  -0.518   1.656   4.337  3.4676 -1.1135  0.4043
  681MOL0     H91884  -0.460   1.534   4.162 -1.5977 -1.2019 -0.2112
  681MOL0     H91885  -0.471   1.379   4.232 -0.2424 -0.2712 -1.3635
  681MOL0     H91886  -0.258   1.275   4.342  2.2185 -1.1969 -0.1969
  681MOL0     H91887  -0.018   1.293   4.477  1.9604  1.2701  0.6654
  681MOL0     H91888   0.021   1.254   4.305 -2.1189 -1.0395  1.1793
  681MOL0     H91889   0.148   1.489   4.456  0.1239  0.7582 -1.1701
  681MOL0     H91890   0.191   1.432   4.295  3.0456  1.6740  1.9991
  681MOL0     H91891   0.234   1.286   4.564  2.3225  0.2791  0.4960
  681MOL0     H91892   0.344   1.381   4.483 -0.5395 -0.4849 -0.0760
  681MOL0     H91893   0.206   1.146   4.338 -0.8051  1.7510 -0.6678
  681MOL0     H91894   0.327   1.116   4.451  0.8668  0.9711  0.5669
  681MOL0     H91895   0.534   1.220   4.078  0.0952  0.9159 -0.7060
  681MOL0     H91896   0.835   1.141   4.017 -0.3090 -0.7136  1.8405
  681MOL0     H91897   0.720   1.264   3.969  1.0941  1.2402 -0.3135
  681MOL0     H91898   0.871   1.312   4.061 -1.3001  0.8627  3.0596
  681MOL0     H91899   1.195   1.103   4.345  0.8857 -0.6127  1.0474
  681MOL0     H91900   1.421   1.098   4.431  1.3181  1.0715  1.0006
  681MOL0     H91901   1.517   1.305   4.812 -0.9580 -0.2257 -0.1521
  681MOL0     H91902   1.467   1.144   4.811 -0.8035  0.2978 -1.4182
  681MOL0     H91903   1.746   1.241   4.747  1.3234 -0.6575 -0.5940
  681MOL0     H91904   1.694   1.180   4.901  1.4803  1.2309 -0.6783
  681MOL0     H91905   1.679   1.020   4.638 -1.1506 -1.2320  0.8551
  681MOL0     H91906   1.655   0.955   4.808 -1.0335  1.1501  0.5767
  681MOL0     H91907   1.905   1.081   4.690 -0.8409  0.6325  0.4021
  681MOL0     H91908   1.909   1.036   4.848 -2.5529 -1.5801  2.5818
  681MOL0     H91909   1.865   0.834   4.628  0.5686 -0.0446  1.1059
  681MOL0     H91910   1.885   0.801   4.801 -0.2777  0.4781  0.1541
  681MOL0     H91911   2.087   0.950   4.620 -1.5149 -0.8501 -0.6408
  681MOL0     H91912   2.129   0.915   4.784  1.3672  0.7683 -0.6044
  681MOL0     H91913   2.142   0.762   4.540  0.0631  3.8589  1.0405
  681MOL0     H91914   2.076   0.660   4.674  0.8047 -0.6220 -0.2420
  681MOL0     H91915   2.261   0.708   4.816 -1.1547 -1.6449 -0.2111
  681MOL0     H91916   2.338   0.795   4.669  1.7332  0.9521  2.7213
  681MOL0     H91917   1.310   1.365   4.744 -1.1702  1.2425  0.3208
  681MOL0     H91918   1.082   1.397   4.635 -2.4264 -0.5706 -2.0918
  681MOL0     H91919   0.767   1.218   4.514 -0.2839 -0.3274 -0.4555
  681MOL0     H91920   0.529   1.210   4.505 -0.0529  2.1935  0.9999
  681MOL0     H91921   0.084   1.080   4.662  2.0734 -0.8288 -1.0267
  681MOL0     H91922   0.292   0.986   4.719 -2.9874 -2.7722  1.1277
  681MOL0     H91923   0.660   0.934   5.005  2.3973 -0.5029  3.3626
  681MOL0     H91924   0.897   0.936   5.087  1.5068  1.5240  1.4775
  681MOL0     H91925   1.194   1.210   4.916 -0.1633 -2.9788 -1.2947
  681MOL0     H91926   1.125   1.285   5.069  0.6088 -0.6909  1.7912
  681MOL0     H91927   1.373   1.230   5.091  0.7299 -1.3475 -1.0987
  681MOL0     H91928   1.331   1.067   5.075  2.8924  1.6212 -0.0730
  681MOL0     H91929   1.164   1.098   5.259  0.0428 -0.2933 -1.5945
  681MOL0     H91930   1.205   1.270   5.275 -0.9612  1.1601 -3.5129
  681MOL0     H91931   1.421   1.220   5.375  1.1590 -1.3960 -0.5514
  681MOL0     H91932   1.419   1.062   5.312  2.3011  2.4763 -1.3102
  681MOL0     H91933   1.175   1.080   5.676  1.2946 -0.7241  0.4150
  681MOL0     H91934   0.984   1.290   4.898  2.0091 -2.4880 -1.1271
  681MOL0     H91935   0.752   1.313   4.810  0.7177 -1.0133  0.2013
  682MOL0     O91936   2.794   9.063   1.700  0.1800 -0.0283  0.0694
  682MOL0     C91937   2.882   9.021   1.778  0.3002 -0.1996 -0.4744
  682MOL0     O91938   2.855   8.969   1.895  0.2741  0.5254  0.2923
  682MOL0     C91939   2.726   8.934   1.933  0.3967  0.1630  1.0367
  682MOL0     C91940   2.627   8.887   1.841 -0.2026 -0.8887  0.5869
  682MOL0     C91941   2.499   8.850   1.882 -0.6654  0.6222 -0.1063
  682MOL0     C91942   2.476   8.849   2.023  0.5586  0.5882 -0.4445
  682MOL0     O91943   2.347   8.828   2.065 -0.2284 -0.5320  0.4215
  682MOL0     C91944   2.280   8.947   2.056  0.8461 -0.3867 -0.8270
  682MOL0     C91945   2.138   8.933   2.123  0.0675  0.3522  0.2823
  682MOL0     C91946   2.146   8.887   2.276 -0.5296 -0.0173  0.8098
  682MOL0     C91947   2.003   8.857   2.317 -0.0083 -0.3632 -0.0588
  682MOL0     C91948   1.986   8.784   2.453  1.2378 -0.3059 -1.0364
  682MOL0     C91949   1.833   8.764   2.489 -0.2319  0.0731  0.3948
  682MOL0     C91950   1.791   8.632   2.429 -0.0215 -0.8109 -0.4799
  682MOL0     C91951   1.637   8.627   2.412  0.4185 -0.1097 -0.3266
  682MOL0     N91952   1.565   8.636   2.538 -0.7528 -0.1189 -0.3576
  682MOL0     C91953   1.583   8.562   2.651  0.0957 -0.8508  0.3569
  682MOL0     C91954   1.478   8.591   2.737 -0.6078 -0.9336  0.2791
  682MOL0     C91955   1.450   8.527   2.872 -0.7829 -0.1887 -0.0748
  682MOL0     C91956   1.354   8.411   2.858 -0.7644  0.4118 -0.3428
  682MOL0     C91957   1.219   8.449   2.816 -0.5694  0.2422  0.0446
  682MOL0     C91958   1.126   8.328   2.793  0.7825  0.4799  0.0847
  682MOL0     O91959   0.997   8.377   2.750  0.4214 -0.7468 -0.1854
  682MOL0     C91960   0.882   8.296   2.744  0.1723 -0.2601  0.1433
  682MOL0     C91961   0.891   8.160   2.771 -0.7960 -0.5579 -0.1781
  682MOL0     C91962   0.789   8.069   2.766 -0.6595 -0.0768 -0.6544
  682MOL0     C91963   0.822   7.929   2.822  0.0015 -0.1807  0.0125
  682MOL0     C91964   0.662   8.111   2.724 -1.0141 -0.0706 -0.3929
  682MOL0     C91965   0.547   8.024   2.731  0.3322 -0.3447 -0.2476
  682MOL0     O91966   0.551   7.905   2.780  0.5961  0.0182  0.3064
  682MOL0     C91967   0.431   7.845   2.813 -0.1880  0.1034 -0.6868
  682MOL0     C91968   0.350   7.780   2.720 -0.6498  0.2036 -0.4978
  682MOL0     C91969   0.241   7.695   2.755 -0.7318 -0.2957 -0.2696
  682MOL0     C91970   0.208   7.689   2.889  0.9183 -0.1548  0.7003
  682MOL0     O91971   0.101   7.618   2.942  0.8851  0.1740 -0.0766
  682MOL0     C91972  -0.017   7.603   2.862 -0.2484 -0.1395 -0.3778
  682MOL0     C91973  -0.133   7.579   2.957 -0.5874 -0.4726  0.3646
  682MOL0     C91974  -0.144   7.701   3.063  0.7814 -0.1091  0.9999
  682MOL0     C91975  -0.226   7.812   2.997 -0.7095  0.1092 -0.3630
  682MOL0     C91976  -0.222   7.941   3.086  0.6177 -0.3454 -0.3450
  682MOL0     C91977  -0.273   7.914   3.232 -0.4446 -0.6806 -0.3273
  682MOL0     C91978  -0.297   8.038   3.315 -0.2649 -1.2563  0.7199
  682MOL0     C91979  -0.328   8.015   3.459 -0.4251 -0.0041  0.1737
  682MOL0    Cl91980  -0.498   7.965   3.486  0.2957  0.1133 -0.0700
  682MOL0     C91981   0.283   7.760   2.980 -0.2178  0.2302 -0.2698
  682MOL0     C91982   0.399   7.835   2.951  0.4569  0.3712  0.7506
  682MOL0     O91983   0.439   8.073   2.691 -0.3596 -0.1281  0.7304
  682MOL0     C91984   0.651   8.249   2.673 -0.1391  0.5131  0.2118
  682MOL0     C91985   0.764   8.334   2.679 -0.3675 -0.4162  0.2482
  682MOL0     N91986   1.402   8.677   2.665 -0.4477  0.3889  1.3151
  682MOL0     N91987   1.457   8.716   2.555  0.2435  0.7117  0.1401
  682MOL0     C91988   2.563   8.892   2.116 -0.7572  0.2744  0.3284
  682MOL0     C91989   2.692   8.925   2.071  0.1846 -0.3465  0.0525
  682MOL0     C91990   3.023   9.061   1.749 -0.6908 -0.3682  0.6261
  682MOL0     C91991   3.120   8.995   1.820  1.0055 -0.4374 -0.2312
  682MOL0     C91992   3.248   9.045   1.818 -0.7334 -0.1072  0.2650
  682MOL0     C91993   3.281   9.143   1.728  0.5169  0.3766  0.2114
  682MOL0     O91994   3.407   9.198   1.732 -0.2557  0.8294 -0.1018
  682MOL0     C91995   3.520   9.115   1.693  0.0286 -0.5831 -0.4221
  682MOL0     C91996   3.656   9.169   1.741  0.3349 -0.6576  0.2768
  682MOL0     C91997   3.763   9.111   1.651 -0.7443  0.8026  0.1083
  682MOL0     C91998   3.896   9.138   1.707  0.1302  0.8488 -0.4736
  682MOL0     C91999   3.947   9.272   1.667 -0.0305 -0.0995  0.5245
  682MOL0     C92000   3.970   9.384   1.628 -0.1212 -0.0223 -0.0338
  682MOL0     C92001   3.185   9.195   1.647 -1.0720 -0.0559  0.3598
  682MOL0     C92002   3.054   9.158   1.656 -0.1903  0.1838  0.6642
  682MOL0     H92003   2.643   8.868   1.735 -2.2718 -1.1003  0.2659
  682MOL0     H92004   2.434   8.811   1.805  0.0859  2.0523 -1.5470
  682MOL0     H92005   2.321   9.031   2.112 -2.0073 -0.0662  0.9652
  682MOL0     H92006   2.259   8.977   1.953 -1.2898 -2.9854 -1.2503
  682MOL0     H92007   2.083   9.027   2.112  0.8746  0.6773 -1.3368
  682MOL0     H92008   2.071   8.876   2.059 -0.7058  1.2212  0.2876
  682MOL0     H92009   2.215   8.802   2.277  0.1803  0.5454  1.7736
  682MOL0     H92010   2.192   8.966   2.336 -1.8412 -1.0888  3.3522
  682MOL0     H92011   1.943   8.948   2.329  0.6892  0.2048 -0.7419
  682MOL0     H92012   1.966   8.794   2.236 -0.3222 -0.6035  0.2691
  682MOL0     H92013   2.042   8.691   2.439  0.3491 -1.3123  1.5474
  682MOL0     H92014   2.031   8.843   2.534  0.5829  0.3527 -1.1456
  682MOL0     H92015   1.814   8.767   2.597 -0.0312 -0.4027  0.4439
  682MOL0     H92016   1.780   8.846   2.440  1.8484  0.0756 -2.0108
  682MOL0     H92017   1.833   8.628   2.328  0.7824  2.4232 -0.3817
  682MOL0     H92018   1.822   8.551   2.496  2.8988  0.3310 -0.3146
  682MOL0     H92019   1.623   8.526   2.371  0.7178  0.2231 -1.2761
  682MOL0     H92020   1.589   8.694   2.340  2.0529  2.3436  0.7721
  682MOL0     H92021   1.664   8.493   2.673 -0.4359 -1.1830  1.3485
  682MOL0     H92022   1.547   8.488   2.905  0.0547  0.9546 -1.0928
  682MOL0     H92023   1.418   8.604   2.943  0.1064  1.2667 -1.1989
  682MOL0     H92024   1.360   8.343   2.944  1.4081 -1.2624 -1.7230
  682MOL0     H92025   1.400   8.343   2.786 -2.6847 -0.4850 -0.7716
  682MOL0     H92026   1.234   8.495   2.718  0.5402 -3.0361 -1.4443
  682MOL0     H92027   1.177   8.514   2.894  0.0663 -1.8948  2.3076
  682MOL0     H92028   1.117   8.273   2.888 -0.9880 -1.2760 -1.0345
  682MOL0     H92029   1.162   8.249   2.726 -0.9538 -0.5584  0.3315
  682MOL0     H92030   0.989   8.119   2.794  0.0492 -0.1804 -2.8319
  682MOL0     H92031   0.764   7.918   2.914  1.0761  0.0230  0.7296
  682MOL0     H92032   0.796   7.851   2.750  0.0007 -0.7859  0.6646
  682MOL0     H92033   0.929   7.925   2.844 -0.3668 -1.1502  1.7906
  682MOL0     H92034   0.379   7.786   2.616 -0.2967 -3.1286 -0.6992
  682MOL0     H92035   0.186   7.634   2.684 -0.0243 -2.9066  1.2814
  682MOL0     H92036  -0.029   7.682   2.788 -0.2941  0.4747  0.2737
  682MOL0     H92037   0.006   7.516   2.801  0.2068 -0.0833 -0.2880
  682MOL0     H92038  -0.224   7.556   2.900  0.0064 -0.9817 -0.4010
  682MOL0     H92039  -0.098   7.491   3.012 -1.0717 -1.7608 -1.2673
  682MOL0     H92040  -0.047   7.730   3.104 -0.5090  1.5148  3.1183
  682MOL0     H92041  -0.202   7.665   3.148 -0.3875  2.0072  1.1616
  682MOL0     H92042  -0.175   7.839   2.904  1.8376 -1.7730  0.3443
  682MOL0     H92043  -0.327   7.775   2.979 -0.1727 -1.2562 -0.6543
  682MOL0     H92044  -0.286   8.020   3.046 -0.8275 -0.0991  2.2504
  682MOL0     H92045  -0.118   7.974   3.094  0.6832 -0.3991 -0.9191
  682MOL0     H92046  -0.360   7.848   3.231  1.4501 -3.5083  2.3693
  682MOL0     H92047  -0.199   7.857   3.289  0.8921  1.9319  0.7137
  682MOL0     H92048  -0.367   8.107   3.267  0.2458 -0.0460  1.6646
  682MOL0     H92049  -0.202   8.093   3.315 -0.0030 -1.7030  0.4437
  682MOL0     H92050  -0.303   8.100   3.523  1.3272 -1.9536  2.2505
  682MOL0     H92051  -0.263   7.934   3.491 -1.3099 -1.5462 -1.7163
  682MOL0     H92052   0.235   7.770   3.077 -2.6568  0.5986 -1.4501
  682MOL0     H92053   0.450   7.898   3.023  2.6971 -1.5340  0.9670
  682MOL0     H92054   0.558   8.285   2.630 -0.2785 -0.1777 -0.0747
  682MOL0     H92055   0.759   8.435   2.640 -1.3308  0.4011  2.3143
  682MOL0     H92056   2.554   8.889   2.224  1.9092  0.6551  0.6149
  682MOL0     H92057   2.759   8.953   2.151  0.5162 -1.2762  0.1123
  682MOL0     H92058   3.092   8.917   1.891 -0.3443  0.1602 -0.0718
  682MOL0     H92059   3.318   9.003   1.889 -0.1341  2.3773  1.2445
  682MOL0     H92060   3.506   9.014   1.732 -1.1675  0.2899  1.5454
  682MOL0     H92061   3.512   9.108   1.584  2.4278 -2.2371 -0.5762
  682MOL0     H92062   3.668   9.140   1.846 -1.0223 -3.2794 -0.2158
  682MOL0     H92063   3.651   9.276   1.723  0.7399 -0.9378 -1.7632
  682MOL0     H92064   3.745   9.136   1.546  1.1668  1.7931 -0.0364
  682MOL0     H92065   3.753   9.003   1.639 -0.1560  0.9726 -2.8291
  682MOL0     H92066   3.961   9.053   1.685  0.6528  0.3727  2.4790
  682MOL0     H92067   3.896   9.134   1.816 -1.2832 -1.0839 -0.5061
  682MOL0     H92068   3.985   9.486   1.598 -0.9758 -0.5252 -2.4485
  682MOL0     H92069   3.219   9.273   1.579  2.1902 -1.3276  0.3371
  682MOL0     H92070   2.977   9.203   1.594 -0.2283 -1.7561 -0.8170
  683MOL0     O92071   5.161   1.218   1.590 -0.4688 -0.7742  0.1539
  683MOL0     C92072   5.240   1.188   1.674 -0.1808 -1.1370 -0.5193
  683MOL0     O92073   5.209   1.119   1.790  0.0341  0.3280 -0.0314
  683MOL0     C92074   5.082   1.077   1.787  0.6349  0.3537 -0.3398
  683MOL0     C92075   5.058   0.946   1.758 -0.2932  0.5478 -0.5577
  683MOL0     C92076   4.926   0.897   1.769 -0.0151  0.5504  0.8692
  683MOL0     C92077   4.816   0.978   1.813 -0.4409 -0.0919  0.1913
  683MOL0     O92078   4.693   0.921   1.830 -0.4534 -0.1650 -0.1503
  683MOL0     C92079   4.570   0.996   1.790 -0.6189 -0.3629 -1.0165
  683MOL0     C92080   4.502   1.046   1.917  0.3301  0.1181  0.1506
  683MOL0     C92081   4.370   1.116   1.890  0.1411  0.0832  0.5095
  683MOL0     C92082   4.391   1.240   1.807  0.3204 -0.3226  0.9363
  683MOL0     C92083   4.265   1.324   1.772 -0.4220  0.1338  0.0508
  683MOL0     C92084   4.178   1.264   1.665  0.4549 -0.0586  0.4832
  683MOL0     C92085   4.039   1.330   1.644  0.1175  0.3885  0.6477
  683MOL0     C92086   3.955   1.270   1.530  0.4455  0.2514  0.5706
  683MOL0     N92087   3.815   1.319   1.517  0.4127  0.2277 -0.5481
  683MOL0     C92088   3.763   1.424   1.444 -0.4039  0.1039  0.6154
  683MOL0     C92089   3.636   1.438   1.488 -0.7713  0.4038 -0.0252
  683MOL0     C92090   3.532   1.539   1.439  0.0697  0.0395  0.5487
  683MOL0     C92091   3.543   1.655   1.535  0.4360  0.0802 -0.2197
  683MOL0     C92092   3.428   1.760   1.514 -0.3358  0.9805  0.8203
  683MOL0     C92093   3.285   1.695   1.564  0.2281 -1.5417  0.1506
  683MOL0     O92094   3.198   1.819   1.566  0.3092  0.7071 -0.0184
  683MOL0     C92095   3.068   1.794   1.534  0.2493  0.8103 -0.4564
  683MOL0     C92096   3.001   1.884   1.453  0.2204 -0.3471  0.0361
  683MOL0     C92097   2.864   1.883   1.426  0.4247  0.4264 -0.3798
  683MOL0     C92098   2.814   1.999   1.345  0.0886 -0.3200  0.5099
  683MOL0     C92099   2.783   1.781   1.480  0.0881 -0.2921 -1.1682
  683MOL0     C92100   2.643   1.752   1.440 -0.4669 -0.0481  0.6090
  683MOL0     O92101   2.559   1.703   1.539  0.5779 -0.2327  0.7310
  683MOL0     C92102   2.426   1.679   1.526  0.0247  0.6725 -0.4415
  683MOL0     C92103   2.366   1.609   1.632  1.1137 -0.2775  0.1655
  683MOL0     C92104   2.228   1.570   1.624  0.5710  0.6057 -0.9840
  683MOL0     C92105   2.144   1.620   1.526  0.8589  0.3087  0.0753
  683MOL0     O92106   2.006   1.602   1.539 -0.2301 -0.0326 -0.3109
  683MOL0     C92107   1.917   1.617   1.431 -0.0777 -0.2693 -0.0947
  683MOL0     C92108   1.798   1.513   1.439 -0.2045 -0.5687 -0.0474
  683MOL0     C92109   1.699   1.519   1.319  0.4182 -0.5628 -0.4046
  683MOL0     C92110   1.610   1.394   1.321 -0.6069  0.6829  0.7943
  683MOL0     C92111   1.491   1.422   1.226  0.0456 -0.0413  0.0065
  683MOL0     C92112   1.385   1.525   1.280 -0.2802  0.3675  0.7219
  683MOL0     C92113   1.253   1.549   1.196 -0.2961 -0.3437 -0.3397
  683MOL0     C92114   1.153   1.437   1.209 -0.2804 -0.5738 -0.7021
  683MOL0    Cl92115   1.038   1.435   1.072  0.2796  0.6370 -0.3752
  683MOL0     C92116   2.206   1.686   1.420 -0.5388  0.7595 -0.3532
  683MOL0     C92117   2.342   1.706   1.420 -0.2364 -0.0547  0.5380
  683MOL0     O92118   2.602   1.780   1.325 -0.4171 -0.9732 -0.2468
  683MOL0     C92119   2.843   1.695   1.584 -0.4752 -0.5578  0.0922
  683MOL0     C92120   2.986   1.699   1.599 -0.2484  0.3071 -0.4747
  683MOL0     N92121   3.618   1.337   1.578  0.8156 -0.0894 -0.3846
  683MOL0     N92122   3.724   1.268   1.599 -0.1949 -0.4131 -0.1148
  683MOL0     C92123   4.847   1.107   1.843  0.6734  0.4333  0.6326
  683MOL0     C92124   4.974   1.161   1.829 -0.3904 -0.1682  0.0891
  683MOL0     C92125   5.380   1.231   1.651 -0.0503 -0.6758  0.4091
  683MOL0     C92126   5.421   1.301   1.529  0.4825  0.1410  0.6975
  683MOL0     C92127   5.546   1.358   1.511  0.4841 -0.0162 -0.1117
  683MOL0     C92128   5.647   1.335   1.606 -0.0983 -0.3172 -0.2724
  683MOL0     O92129   5.771   1.381   1.564 -0.2747  0.2462 -0.2293
  683MOL0     C92130   5.862   1.409   1.667 -0.7187  0.2132  0.7042
  683MOL0     C92131   5.821   1.544   1.733 -0.0220 -0.0462 -0.1733
  683MOL0     C92132   5.915   1.589   1.845 -0.0575 -0.2468  0.0997
  683MOL0     C92133   5.880   1.719   1.923  1.5165  0.2587 -0.9651
  683MOL0     C92134   5.738   1.726   1.976 -0.3959  0.7362 -0.1122
  683MOL0     C92135   5.621   1.721   2.013 -0.3600  0.9071  0.5301
  683MOL0     C92136   5.610   1.281   1.731  0.3442  0.5474  0.2518
  683MOL0     C92137   5.482   1.223   1.750 -1.0996 -0.7574 -1.1127
  683MOL0     H92138   5.136   0.879   1.725  0.6292 -0.4410  3.1426
  683MOL0     H92139   4.897   0.797   1.740  1.1152  0.5388 -0.2980
  683MOL0     H92140   4.595   1.081   1.725 -1.9707  2.3716  1.7431
  683MOL0     H92141   4.511   0.924   1.733 -1.3914 -1.4541  1.0688
  683MOL0     H92142   4.479   0.961   1.982 -2.9555  0.0966 -0.8769
  683MOL0     H92143   4.571   1.115   1.967 -1.0005  1.2164  0.4996
  683MOL0     H92144   4.299   1.051   1.838 -0.6651  1.1558  0.2284
  683MOL0     H92145   4.325   1.144   1.986 -0.0505 -1.1624  0.7978
  683MOL0     H92146   4.461   1.314   1.846 -0.9179  1.8262 -0.6705
  683MOL0     H92147   4.421   1.210   1.706 -1.7274  0.4179  0.0486
  683MOL0     H92148   4.201   1.328   1.860 -3.3203 -1.3494 -1.8314
  683MOL0     H92149   4.292   1.425   1.739  0.4007 -0.3520 -0.8053
  683MOL0     H92150   4.233   1.258   1.571  0.8947  0.9127  0.6672
  683MOL0     H92151   4.142   1.166   1.696 -2.5137  0.6788 -0.3222
  683MOL0     H92152   3.981   1.307   1.733 -0.6219  0.4300  0.1822
  683MOL0     H92153   4.056   1.438   1.630 -1.2533  0.4445 -0.8851
  683MOL0     H92154   3.953   1.161   1.542 -0.9709 -0.0895 -2.0277
  683MOL0     H92155   4.001   1.291   1.433  0.3542  1.3463  0.7510
  683MOL0     H92156   3.809   1.492   1.373 -1.9837  0.4462 -0.1342
  683MOL0     H92157   3.553   1.560   1.334  0.5208  0.3740  0.7019
  683MOL0     H92158   3.430   1.501   1.437 -0.6876  1.7505  2.5684
  683MOL0     H92159   3.636   1.706   1.508  2.3816 -3.1601 -0.3268
  683MOL0     H92160   3.554   1.637   1.643 -0.4184  0.5070 -0.0508
  683MOL0     H92161   3.428   1.784   1.408  2.1197 -0.0390  0.5266
  683MOL0     H92162   3.464   1.850   1.564  4.6787  1.2206 -2.5000
  683MOL0     H92163   3.310   1.654   1.662  2.2244  1.2196  0.9465
  683MOL0     H92164   3.255   1.625   1.486 -0.9873 -0.5198 -0.3428
  683MOL0     H92165   3.054   1.973   1.418  0.5786 -0.3893  0.4698
  683MOL0     H92166   2.705   2.003   1.340 -0.0045 -2.2681 -0.0555
  683MOL0     H92167   2.853   2.096   1.375  2.7732 -1.1780  0.1033
  683MOL0     H92168   2.829   1.990   1.237  0.2803 -0.9769  0.5850
  683MOL0     H92169   2.433   1.572   1.709  1.7164  0.8990  0.2288
  683MOL0     H92170   2.184   1.499   1.693  2.6472  0.7700  0.5928
  683MOL0     H92171   1.891   1.723   1.426  1.1625  0.1988  2.1922
  683MOL0     H92172   1.965   1.597   1.334  1.6324  0.5566  0.5390
  683MOL0     H92173   1.846   1.415   1.437 -0.6389 -0.7993 -3.3039
  683MOL0     H92174   1.743   1.539   1.530  0.4219 -1.3504  0.5782
  683MOL0     H92175   1.752   1.511   1.224  1.9184  0.1732  0.3278
  683MOL0     H92176   1.639   1.610   1.324 -1.5083 -1.8252  3.0802
  683MOL0     H92177   1.677   1.311   1.294  0.5317  1.9379 -0.4567
  683MOL0     H92178   1.565   1.382   1.419 -0.4931 -1.1806  0.6494
  683MOL0     H92179   1.436   1.329   1.207 -3.0469  1.3086  1.6243
  683MOL0     H92180   1.543   1.458   1.137  2.9675  0.9127  1.9462
  683MOL0     H92181   1.365   1.490   1.382  3.2963  1.7721  2.0653
  683MOL0     H92182   1.421   1.629   1.279 -1.6967  0.8775  0.2875
  683MOL0     H92183   1.286   1.569   1.093  2.7676  1.1732  0.8047
  683MOL0     H92184   1.213   1.645   1.231 -2.4205 -1.7622  1.4053
  683MOL0     H92185   1.090   1.457   1.296  0.6104  0.8080 -0.3382
  683MOL0     H92186   1.216   1.348   1.220  2.6728  1.5477  0.9296
  683MOL0     H92187   2.152   1.731   1.337  0.3612  0.8287 -0.9150
  683MOL0     H92188   2.383   1.756   1.333 -0.1744  1.0518  1.1961
  683MOL0     H92189   2.778   1.631   1.643  0.9862 -0.8740  1.4479
  683MOL0     H92190   3.040   1.640   1.672  1.2405 -2.3076 -3.4360
  683MOL0     H92191   4.770   1.175   1.880  0.6196  1.1959 -0.8045
  683MOL0     H92192   4.991   1.263   1.861  0.1785 -0.1228 -0.3410
  683MOL0     H92193   5.359   1.303   1.440 -3.4894 -1.5506  3.1337
  683MOL0     H92194   5.571   1.398   1.414 -0.8717 -0.3837 -0.6391
  683MOL0     H92195   5.867   1.330   1.741  0.5892 -0.5036 -0.1070
  683MOL0     H92196   5.959   1.422   1.619 -1.3183  2.1821 -0.0896
  683MOL0     H92197   5.722   1.522   1.775 -1.5630  0.3997 -3.2871
  683MOL0     H92198   5.811   1.627   1.661 -2.5053  0.3239  0.5060
  683MOL0     H92199   6.012   1.610   1.799 -0.4416  1.8904  0.1754
  683MOL0     H92200   5.917   1.501   1.911 -0.9296  0.3053  0.8835
  683MOL0     H92201   5.901   1.798   1.851 -0.1161  1.2260 -0.4233
  683MOL0     H92202   5.952   1.716   2.006  0.8478  2.2444 -0.2486
  683MOL0     H92203   5.517   1.719   2.036 -0.3138 -2.1663  0.9780
  683MOL0     H92204   5.692   1.266   1.800  1.3906  2.3611 -0.5134
  683MOL0     H92205   5.463   1.168   1.841  0.8195 -1.7416 -1.2660
  684MOL0     O92206   2.678   3.465   6.504 -0.5689 -0.2815  0.5829
  684MOL0     C92207   2.797   3.440   6.508 -1.0120 -0.3852  0.1494
  684MOL0     O92208   2.859   3.344   6.578 -0.9951 -0.0122 -1.2108
  684MOL0     C92209   2.796   3.265   6.672 -0.2794  0.5552 -0.1415
  684MOL0     C92210   2.676   3.294   6.734  0.2992  0.0454 -0.1794
  684MOL0     C92211   2.632   3.210   6.839 -0.3186  0.6685 -0.3106
  684MOL0     C92212   2.714   3.106   6.883  0.7928 -0.3176 -0.3542
  684MOL0     O92213   2.677   3.035   6.995 -0.8001  0.2152  0.2912
  684MOL0     C92214   2.634   3.105   7.114 -0.7237 -0.4196  0.3421
  684MOL0     C92215   2.495   3.054   7.167  0.5659  0.0174 -0.5379
  684MOL0     C92216   2.384   3.065   7.067 -0.4038  0.1501 -0.2311
  684MOL0     C92217   2.261   3.022   7.135  0.5528  0.8713 -1.1386
  684MOL0     C92218   2.155   3.041   7.021 -0.5762  0.0983  0.1535
  684MOL0     C92219   2.013   2.984   7.056  0.5456  0.4743 -0.0586
  684MOL0     C92220   1.912   2.999   6.944 -0.5807  0.1719  0.6176
  684MOL0     C92221   1.779   2.945   6.985  0.4795  1.0949  0.3341
  684MOL0     N92222   1.668   2.962   6.889 -0.6931 -0.6229 -0.0387
  684MOL0     C92223   1.598   3.082   6.868 -0.2570 -0.3963  0.9694
  684MOL0     C92224   1.501   3.047   6.778  0.9318 -0.1629 -0.4510
  684MOL0     C92225   1.403   3.142   6.706 -0.4061 -0.4341  0.3414
  684MOL0     C92226   1.274   3.073   6.667 -0.1983 -0.2070 -0.4025
  684MOL0     C92227   1.169   3.066   6.779  1.0919  0.2622  0.0830
  684MOL0     C92228   1.052   2.979   6.738  0.5669  0.5201  0.6645
  684MOL0     O92229   0.942   3.019   6.825  0.1321 -1.6583  0.0540
  684MOL0     C92230   0.813   2.986   6.774 -0.0832  0.1026  0.2238
  684MOL0     C92231   0.700   3.037   6.851  0.3319  0.2442  0.8938
  684MOL0     C92232   0.568   3.013   6.827  0.7258  0.1565 -0.1016
  684MOL0     C92233   0.472   3.062   6.928  0.2335  0.2451  0.1886
  684MOL0     C92234   0.538   2.930   6.715  0.9809 -0.4327  0.3134
  684MOL0     C92235   0.400   2.893   6.668 -0.0169 -0.2780 -0.3371
  684MOL0     O92236   0.297   2.919   6.753 -0.3369  0.2389 -0.0572
  684MOL0     C92237   0.176   2.870   6.720  0.5402 -0.0716  0.5362
  684MOL0     C92238   0.146   2.733   6.735 -0.3955 -0.2415  0.6397
  684MOL0     C92239   0.030   2.682   6.675  0.4289  0.3753  0.4034
  684MOL0     C92240  -0.062   2.758   6.609 -0.5098 -0.3168  0.2404
  684MOL0     O92241  -0.176   2.706   6.559  0.4955  0.4167 -0.0712
  684MOL0     C92242  -0.165   2.642   6.435  0.0920  0.5716  1.0037
  684MOL0     C92243  -0.273   2.714   6.346  1.0509 -0.5250 -0.2295
  684MOL0     C92244  -0.417   2.684   6.376 -0.0142 -0.6736 -0.2284
  684MOL0     C92245  -0.491   2.694   6.248 -0.7636  0.0137  0.2570
  684MOL0     C92246  -0.647   2.690   6.276 -0.0368 -0.0099  0.3636
  684MOL0     C92247  -0.729   2.675   6.150  0.0895 -0.4167 -0.3003
  684MOL0     C92248  -0.872   2.737   6.171 -0.3968 -0.6698 -0.3680
  684MOL0     C92249  -0.977   2.689   6.069 -0.3002  0.3913 -0.3837
  684MOL0    Cl92250  -1.132   2.722   6.146  0.2973 -0.1095  0.4521
  684MOL0     C92251  -0.042   2.899   6.599 -0.0256 -0.5270 -1.4651
  684MOL0     C92252   0.071   2.951   6.670  0.3507 -0.1941 -0.2913
  684MOL0     O92253   0.391   2.833   6.565 -0.2423  0.4379 -0.4578
  684MOL0     C92254   0.643   2.876   6.642  0.0298  0.4313 -0.7096
  684MOL0     C92255   0.777   2.902   6.669  0.0967 -0.3348  0.8114
  684MOL0     N92256   1.506   2.913   6.754 -0.4519 -0.0386 -0.1260
  684MOL0     N92257   1.603   2.862   6.828 -0.6271  0.4603 -0.1530
  684MOL0     C92258   2.840   3.087   6.839 -0.4047 -0.5985 -0.7061
  684MOL0     C92259   2.879   3.167   6.735 -0.7943  0.7206 -0.6308
  684MOL0     C92260   2.887   3.514   6.415  0.4353  0.4821  0.3907
  684MOL0     C92261   3.023   3.495   6.422 -0.1140 -0.4836 -0.3727
  684MOL0     C92262   3.116   3.552   6.334  0.4003 -0.1285 -0.2581
  684MOL0     C92263   3.071   3.646   6.246  0.4626  0.1640 -0.2584
  684MOL0     O92264   3.177   3.682   6.169  0.6967  0.6100 -0.1772
  684MOL0     C92265   3.152   3.782   6.061 -0.0912 -0.7107 -0.7077
  684MOL0     C92266   3.136   3.931   6.107  1.1145  0.1258 -0.2153
  684MOL0     C92267   3.267   3.986   6.162 -0.2486  0.2536 -0.0671
  684MOL0     C92268   3.262   4.128   6.212  0.4316 -1.2893 -0.9152
  684MOL0     C92269   3.279   4.227   6.098 -0.4257  1.3183 -0.4473
  684MOL0     C92270   3.312   4.315   6.019 -0.3722 -0.3274  0.5539
  684MOL0     C92271   2.930   3.678   6.234  0.2718  0.6765  0.6883
  684MOL0     C92272   2.842   3.598   6.314  0.2559  0.3582 -0.3046
  684MOL0     H92273   2.618   3.384   6.714 -1.1540 -1.0985 -1.2811
  684MOL0     H92274   2.533   3.227   6.881 -0.9596 -0.7688 -1.1695
  684MOL0     H92275   2.716   3.098   7.186 -0.9762  0.1165  0.6812
  684MOL0     H92276   2.625   3.208   7.079 -1.7326 -1.4240 -2.6458
  684MOL0     H92277   2.497   2.947   7.193  2.3822  0.4642  1.4548
  684MOL0     H92278   2.469   3.112   7.256  0.0017 -0.5875 -0.2977
  684MOL0     H92279   2.386   3.172   7.041  0.9561 -0.4487 -2.9787
  684MOL0     H92280   2.401   3.009   6.975 -2.1076  1.1607 -1.2358
  684MOL0     H92281   2.274   2.914   7.153 -1.6193  0.9666  1.8504
  684MOL0     H92282   2.242   3.080   7.226  1.5292  0.2142 -0.4881
  684MOL0     H92283   2.139   3.147   6.998  0.5366  0.7454  2.1386
  684MOL0     H92284   2.193   2.999   6.927  0.0748 -0.3646  0.6158
  684MOL0     H92285   2.030   2.878   7.075 -0.3305  0.4526  0.6791
  684MOL0     H92286   1.980   3.031   7.149 -0.9676  0.9714 -0.8109
  684MOL0     H92287   1.896   3.104   6.917  1.6196  1.0937  2.5382
  684MOL0     H92288   1.932   2.937   6.856  0.9126 -1.1533  1.8325
  684MOL0     H92289   1.750   3.000   7.075 -3.0919  0.2576 -0.1373
  684MOL0     H92290   1.786   2.839   7.010  0.0102  1.1129  0.5464
  684MOL0     H92291   1.622   3.176   6.916  1.4913  1.2137 -2.6567
  684MOL0     H92292   1.378   3.227   6.771  2.4076 -0.8500  2.1660
  684MOL0     H92293   1.442   3.179   6.611 -0.6043  0.7151  0.6836
  684MOL0     H92294   1.295   2.973   6.628 -0.4287 -0.3443 -0.1796
  684MOL0     H92295   1.241   3.122   6.575 -0.7579 -0.7398 -0.4895
  684MOL0     H92296   1.135   3.166   6.808  0.7884 -0.0699  0.8944
  684MOL0     H92297   1.207   3.018   6.869 -0.9237 -2.7368 -0.5470
  684MOL0     H92298   1.067   2.872   6.755 -1.1701  0.1690  0.2238
  684MOL0     H92299   1.022   2.998   6.635 -0.9444  1.3558  1.2147
  684MOL0     H92300   0.729   3.107   6.929  1.8045  0.8048 -0.0999
  684MOL0     H92301   0.421   2.975   6.972 -3.1548  1.9401 -0.0989
  684MOL0     H92302   0.532   3.114   7.003  0.1171 -0.1031  0.5295
  684MOL0     H92303   0.392   3.124   6.887  0.0040 -1.5814 -2.3858
  684MOL0     H92304   0.201   2.669   6.804 -1.5336  0.1618  1.9589
  684MOL0     H92305   0.014   2.575   6.686  2.2967 -0.0438 -0.6043
  684MOL0     H92306  -0.067   2.667   6.393  1.1808 -2.2189  1.6586
  684MOL0     H92307  -0.181   2.534   6.434 -1.2028  0.7225 -1.2364
  684MOL0     H92308  -0.259   2.822   6.353  3.3759 -0.6621 -1.5954
  684MOL0     H92309  -0.252   2.680   6.244  0.4089 -2.5818  0.2863
  684MOL0     H92310  -0.458   2.749   6.455 -0.9737 -1.7998  0.2304
  684MOL0     H92311  -0.432   2.583   6.413 -1.0476  0.4107  2.5840
  684MOL0     H92312  -0.452   2.776   6.187 -0.6694 -1.0031 -1.0822
  684MOL0     H92313  -0.464   2.600   6.200 -1.7743 -0.3349  0.3374
  684MOL0     H92314  -0.677   2.788   6.315 -0.3830 -0.4789  1.2988
  684MOL0     H92315  -0.676   2.623   6.357 -3.8045  2.0317  0.9455
  684MOL0     H92316  -0.671   2.730   6.075  0.7842  1.4674  1.5145
  684MOL0     H92317  -0.738   2.571   6.120  1.9776 -0.1981 -1.7554
  684MOL0     H92318  -0.864   2.846   6.165 -3.7419 -0.2716  0.8019
  684MOL0     H92319  -0.896   2.696   6.269 -0.5145 -0.8648 -0.4783
  684MOL0     H92320  -0.955   2.584   6.048  0.5203  0.5688 -0.4694
  684MOL0     H92321  -0.982   2.742   5.973  0.8799 -0.7630 -1.1142
  684MOL0     H92322  -0.122   2.964   6.565 -1.4816 -0.6485  1.4196
  684MOL0     H92323   0.080   3.059   6.662 -3.1332  0.3129  0.9629
  684MOL0     H92324   0.629   2.804   6.562 -1.2641  0.7810 -0.8103
  684MOL0     H92325   0.846   2.858   6.598  0.8946  0.9175  0.7727
  684MOL0     H92326   2.898   3.004   6.878  0.6534  0.1338 -0.6676
  684MOL0     H92327   2.980   3.156   6.696 -0.7738 -1.2595 -0.1643
  684MOL0     H92328   3.063   3.436   6.503  1.2022  0.3994 -0.3526
  684MOL0     H92329   3.219   3.522   6.346  0.1295 -2.2542 -2.6449
  684MOL0     H92330   3.238   3.791   5.993  1.4069  0.9156  1.2580
  684MOL0     H92331   3.071   3.752   5.994  0.4354 -2.4969 -0.5891
  684MOL0     H92332   3.060   3.942   6.185  0.2136 -1.9152 -0.7299
  684MOL0     H92333   3.110   4.004   6.029 -1.4130  2.5068  2.6160
  684MOL0     H92334   3.343   3.972   6.085  0.1820 -1.0095  0.5464
  684MOL0     H92335   3.284   3.923   6.250  2.3094  1.3957  0.3393
  684MOL0     H92336   3.345   4.148   6.281  1.4130 -2.4169 -1.7271
  684MOL0     H92337   3.167   4.147   6.262  0.7774  0.4596 -0.8609
  684MOL0     H92338   3.334   4.402   5.962 -2.5840  0.2301  0.4402
  684MOL0     H92339   2.906   3.749   6.154  1.1953  1.7566  1.3456
  684MOL0     H92340   2.735   3.601   6.300  0.0298 -0.1437  1.0686
  685MOL0     O92341   7.876   0.078   2.933 -1.1268 -0.0351 -0.7883
  685MOL0     C92342   7.889   0.195   2.902 -0.3032 -0.3631 -0.4986
  685MOL0     O92343   7.795   0.282   2.884 -0.0776  0.3029 -0.3932
  685MOL0     C92344   7.660   0.248   2.872 -0.1792  0.2856 -0.0327
  685MOL0     C92345   7.606   0.140   2.808  0.6502  0.5462  0.2074
  685MOL0     C92346   7.465   0.102   2.827 -0.0034 -0.4077 -0.1161
  685MOL0     C92347   7.379   0.180   2.904  0.0851  0.2877  0.2872
  685MOL0     O92348   7.239   0.158   2.917 -0.0470 -0.0795  0.3019
  685MOL0     C92349   7.211   0.043   2.992 -0.2282 -0.0659 -1.0171
  685MOL0     C92350   7.170   0.071   3.139  0.2968 -0.7267 -0.3284
  685MOL0     C92351   7.027   0.090   3.178 -0.0916 -0.3180  0.3283
  685MOL0     C92352   6.955  -0.043   3.175  0.3617  0.9063 -0.8334
  685MOL0     C92353   6.830  -0.032   3.250  0.5608  0.0489  0.1751
  685MOL0     C92354   6.774  -0.166   3.287 -0.0590 -0.1887 -0.4063
  685MOL0     C92355   6.629  -0.164   3.328  0.4205  0.2225 -0.4335
  685MOL0     C92356   6.594  -0.291   3.401  0.7836  0.1846 -0.2403
  685MOL0     N92357   6.450  -0.302   3.437  0.3099 -0.5444  0.8552
  685MOL0     C92358   6.389  -0.225   3.536  0.1621 -0.7199  0.2689
  685MOL0     C92359   6.257  -0.267   3.541 -0.8559 -0.3749 -0.0072
  685MOL0     C92360   6.154  -0.217   3.632  0.3513 -0.3381 -0.3679
  685MOL0     C92361   6.047  -0.339   3.645  0.3669 -0.5466  0.5781
  685MOL0     C92362   5.919  -0.299   3.718 -0.2989 -0.3603 -0.6642
  685MOL0     C92363   5.838  -0.423   3.755  0.9457  0.1463  1.3308
  685MOL0     O92364   5.815  -0.514   3.646 -0.6267  0.1714 -0.6511
  685MOL0     C92365   5.718  -0.609   3.665 -0.5749 -0.4917  0.3992
  685MOL0     C92366   5.653  -0.642   3.780  0.3213  0.6707 -0.1750
  685MOL0     C92367   5.572  -0.751   3.792  0.6268  0.0327 -0.4939
  685MOL0     C92368   5.522  -0.794   3.933  1.0125  0.8926  0.3166
  685MOL0     C92369   5.535  -0.826   3.671 -0.3122 -0.2742 -0.6261
  685MOL0     C92370   5.445  -0.938   3.667  0.3550  0.3395  0.1840
  685MOL0     O92371   5.409  -0.988   3.542 -0.4343  0.0037 -0.8793
  685MOL0     C92372   5.369  -1.117   3.542 -0.2969 -0.4609  0.4975
  685MOL0     C92373   5.238  -1.155   3.588 -0.0174  1.0420 -0.5348
  685MOL0     C92374   5.206  -1.288   3.592  0.2028  1.1717 -0.3671
  685MOL0     C92375   5.289  -1.383   3.532 -0.2333  0.0382 -0.1114
  685MOL0     O92376   5.260  -1.515   3.518  0.7438 -0.2729  0.7021
  685MOL0     C92377   5.133  -1.564   3.572 -0.1382  0.5808 -0.1403
  685MOL0     C92378   5.009  -1.543   3.492  0.3308  0.1438 -0.4906
  685MOL0     C92379   4.896  -1.616   3.566 -0.0860 -0.4739 -0.4899
  685MOL0     C92380   4.768  -1.573   3.504  0.2136 -0.4023 -0.2499
  685MOL0     C92381   4.650  -1.661   3.553  0.1320 -0.0261 -0.3404
  685MOL0     C92382   4.510  -1.614   3.513  0.2607  0.3101 -0.3034
  685MOL0     C92383   4.410  -1.676   3.609  1.0041 -0.4197  0.7700
  685MOL0     C92384   4.268  -1.616   3.597 -0.0652  0.4176 -0.4133
  685MOL0    Cl92385   4.210  -1.632   3.428 -0.2584  0.0964 -0.3799
  685MOL0     C92386   5.413  -1.344   3.471 -0.3990 -0.2895  0.2896
  685MOL0     C92387   5.450  -1.209   3.480  0.8688 -0.4148 -0.1459
  685MOL0     O92388   5.407  -0.984   3.770 -0.5514 -0.0838  0.5063
  685MOL0     C92389   5.604  -0.788   3.552 -0.2757  0.8931  0.1562
  685MOL0     C92390   5.695  -0.681   3.548  0.2526 -0.0542 -0.0537
  685MOL0     N92391   6.237  -0.366   3.441 -0.2647 -0.5801 -0.2450
  685MOL0     N92392   6.355  -0.376   3.381  0.0101  0.6916  0.5695
  685MOL0     C92393   7.436   0.300   2.950 -0.3383 -0.3195 -0.3933
  685MOL0     C92394   7.577   0.325   2.937  0.2633  0.7380 -0.3924
  685MOL0     C92395   8.029   0.249   2.875  1.0529 -0.3061 -0.8347
  685MOL0     C92396   8.061   0.376   2.841 -0.2230 -0.2973  1.0083
  685MOL0     C92397   8.186   0.437   2.835  0.2382  0.8080  0.7403
  685MOL0     C92398   8.293   0.351   2.843 -0.3444  0.3764  0.5695
  685MOL0     O92399   8.419   0.402   2.839  0.2951  0.1855 -0.2425
  685MOL0     C92400   8.534   0.324   2.847  0.2928  1.0824  0.3658
  685MOL0     C92401   8.652   0.420   2.820 -0.7151  0.7643  0.0713
  685MOL0     C92402   8.787   0.349   2.842  0.1519  0.1797 -0.2132
  685MOL0     C92403   8.895   0.460   2.883  0.0993 -0.4660  0.0439
  685MOL0     C92404   9.023   0.389   2.899  0.4239 -0.4319 -0.0879
  685MOL0     C92405   9.125   0.324   2.899  0.2799  0.4682 -0.6205
  685MOL0     C92406   8.267   0.212   2.870 -0.5506 -0.4823  0.3259
  685MOL0     C92407   8.136   0.163   2.878  0.1643  0.1301 -0.8427
  685MOL0     H92408   7.667   0.081   2.742  0.1778  1.1360 -0.7872
  685MOL0     H92409   7.429   0.009   2.785 -1.5352  0.4377 -0.7709
  685MOL0     H92410   7.140  -0.028   2.950 -1.7452  0.3362  0.7493
  685MOL0     H92411   7.306  -0.010   3.001  0.2133  0.4819 -2.1952
  685MOL0     H92412   7.207  -0.009   3.204  0.6886 -1.5901 -1.5668
  685MOL0     H92413   7.206   0.170   3.167 -2.4943  0.1023  0.6771
  685MOL0     H92414   7.021   0.142   3.274  0.5538 -0.1580  0.2871
  685MOL0     H92415   6.977   0.160   3.111 -1.3852 -3.2449 -1.9890
  685MOL0     H92416   6.919  -0.068   3.075  0.1153 -0.3353 -0.4471
  685MOL0     H92417   7.020  -0.125   3.206 -0.5026  0.8869  1.1375
  685MOL0     H92418   6.847   0.017   3.347 -1.3427 -2.9210  2.1815
  685MOL0     H92419   6.755   0.028   3.199 -0.4714 -1.0603  0.3667
  685MOL0     H92420   6.776  -0.233   3.201 -0.2577 -0.6987 -0.0158
  685MOL0     H92421   6.840  -0.214   3.361 -0.7381  1.7935  1.6158
  685MOL0     H92422   6.620  -0.075   3.390  0.6415 -0.0559 -0.0012
  685MOL0     H92423   6.565  -0.148   3.240  0.0145  2.3538  0.1916
  685MOL0     H92424   6.657  -0.303   3.490  1.2537 -0.6114 -0.6694
  685MOL0     H92425   6.622  -0.372   3.333  1.1930  2.3642 -2.8203
  685MOL0     H92426   6.438  -0.149   3.595  0.8126 -0.0497 -1.0836
  685MOL0     H92427   6.191  -0.179   3.727  0.2765  2.1644 -1.2420
  685MOL0     H92428   6.092  -0.135   3.594  0.4355 -0.9754 -1.9830
  685MOL0     H92429   6.080  -0.419   3.712 -4.3320 -1.9195  1.5959
  685MOL0     H92430   6.013  -0.379   3.549 -0.5939 -1.0076  1.0989
  685MOL0     H92431   5.858  -0.231   3.657  1.8606  1.5627 -0.8288
  685MOL0     H92432   5.947  -0.241   3.806 -0.0895  1.7297 -2.0361
  685MOL0     H92433   5.746  -0.385   3.800 -0.2909 -0.8285 -0.2751
  685MOL0     H92434   5.889  -0.478   3.835  0.9543 -1.7487  0.0853
  685MOL0     H92435   5.668  -0.582   3.869  1.6846 -4.1462  3.2450
  685MOL0     H92436   5.548  -0.900   3.945 -1.3737 -0.4082 -3.8224
  685MOL0     H92437   5.568  -0.723   4.002 -1.2103  3.0112 -0.2709
  685MOL0     H92438   5.413  -0.792   3.931  0.9972  0.0838 -0.1300
  685MOL0     H92439   5.174  -1.079   3.631  0.7007  2.3732 -1.7439
  685MOL0     H92440   5.119  -1.325   3.645  1.4127  1.2546  1.8218
  685MOL0     H92441   5.145  -1.672   3.576  0.1942  0.6099 -0.2882
  685MOL0     H92442   5.119  -1.530   3.675 -0.3225  0.8625 -0.2536
  685MOL0     H92443   5.004  -1.434   3.482  2.8422  0.3836  0.1294
  685MOL0     H92444   5.027  -1.591   3.396  0.5808 -2.4968  0.7848
  685MOL0     H92445   4.905  -1.580   3.669 -0.6192  2.5920 -1.4211
  685MOL0     H92446   4.908  -1.724   3.552 -1.9514 -0.6926 -0.6677
  685MOL0     H92447   4.750  -1.468   3.527 -1.3225 -0.3177 -1.6449
  685MOL0     H92448   4.770  -1.589   3.395  0.3470 -0.5794 -0.2217
  685MOL0     H92449   4.657  -1.674   3.661 -0.2830  0.9624 -0.1840
  685MOL0     H92450   4.657  -1.765   3.520  1.2507 -0.4888  1.2710
  685MOL0     H92451   4.507  -1.505   3.517 -2.2683  0.2569  0.7546
  685MOL0     H92452   4.481  -1.641   3.411 -0.6057 -0.6065  0.1707
  685MOL0     H92453   4.430  -1.664   3.716 -0.6581  0.8630  0.9775
  685MOL0     H92454   4.400  -1.781   3.579 -0.2041 -0.3748  0.9787
  685MOL0     H92455   4.281  -1.509   3.616  0.0161  0.4774 -0.7900
  685MOL0     H92456   4.192  -1.666   3.658 -0.9510  0.7519 -1.2057
  685MOL0     H92457   5.486  -1.419   3.440 -0.1333  0.8623 -2.0698
  685MOL0     H92458   5.545  -1.169   3.445 -0.0756  1.4291 -0.7372
  685MOL0     H92459   5.601  -0.853   3.465  2.6099 -0.8594  1.1966
  685MOL0     H92460   5.741  -0.654   3.453  1.9650  0.1755  0.8130
  685MOL0     H92461   7.378   0.372   3.007 -1.0866 -0.3970 -1.0418
  685MOL0     H92462   7.631   0.405   2.987  4.7059 -0.8218 -2.2619
  685MOL0     H92463   7.972   0.436   2.826 -0.2726 -0.0432  2.2731
  685MOL0     H92464   8.204   0.539   2.803  2.9197 -0.2134 -1.3734
  685MOL0     H92465   8.554   0.281   2.945 -0.6677  0.8010  0.4502
  685MOL0     H92466   8.530   0.246   2.769  2.6399 -1.0831  2.2404
  685MOL0     H92467   8.650   0.510   2.883  1.9953  0.2911  0.9447
  685MOL0     H92468   8.651   0.456   2.717  1.1349  1.9624  0.4177
  685MOL0     H92469   8.823   0.295   2.755  1.6052 -0.9263  1.0293
  685MOL0     H92470   8.778   0.270   2.917 -0.0177 -0.5104 -0.9409
  685MOL0     H92471   8.854   0.510   2.971 -2.1941 -1.3765 -0.4443
  685MOL0     H92472   8.891   0.537   2.805 -2.3469 -0.8180 -0.2570
  685MOL0     H92473   9.214   0.270   2.876  0.4844  0.3545  0.3894
  685MOL0     H92474   8.357   0.151   2.882  1.3806  2.5792  3.0334
  685MOL0     H92475   8.118   0.059   2.904 -3.6295  0.6447 -0.8334
  686MOL0     O92476   4.752   9.383   7.789  0.1541  0.1543 -0.0585
  686MOL0     C92477   4.791   9.351   7.681 -0.6040  0.0398 -0.2655
  686MOL0     O92478   4.728   9.277   7.597  0.7149 -0.4173  0.5364
  686MOL0     C92479   4.591   9.255   7.611  0.2924  0.1778 -0.7137
  686MOL0     C92480   4.559   9.145   7.693 -0.1701  0.3665 -0.6756
  686MOL0     C92481   4.425   9.117   7.704  0.3839  0.8417  0.1117
  686MOL0     C92482   4.321   9.190   7.641 -0.4652 -0.7093 -0.0126
  686MOL0     O92483   4.200   9.146   7.668  0.5329  0.2329  0.1056
  686MOL0     C92484   4.086   9.229   7.634 -0.2381  0.6867  0.2851
  686MOL0     C92485   3.956   9.140   7.656 -0.2021  0.5928  0.5507
  686MOL0     C92486   3.864   9.171   7.536 -0.3385 -0.3538  0.2158
  686MOL0     C92487   3.751   9.074   7.514  0.1854  0.1501 -0.7471
  686MOL0     C92488   3.667   9.058   7.641 -0.1060  0.7255 -0.0618
  686MOL0     C92489   3.525   9.003   7.622  0.2854 -0.0666  0.0895
  686MOL0     C92490   3.529   8.852   7.589  0.4217 -0.0505 -0.1803
  686MOL0     C92491   3.389   8.808   7.538  0.0155 -0.7599  0.1767
  686MOL0     N92492   3.280   8.844   7.628 -0.0848 -0.4283 -0.0259
  686MOL0     C92493   3.184   8.934   7.606  0.3528 -0.0564  0.2400
  686MOL0     C92494   3.128   8.961   7.725 -0.2298  1.5144  0.1492
  686MOL0     C92495   3.005   9.039   7.759  0.9675  0.1161  0.7442
  686MOL0     C92496   3.017   9.140   7.884 -0.4056 -0.2182 -0.3602
  686MOL0     C92497   2.898   9.229   7.903 -0.5431 -0.1477  0.3552
  686MOL0     C92498   2.767   9.144   7.936  0.4229 -0.8517 -0.2096
  686MOL0     O92499   2.656   9.237   7.921  0.2229 -0.1621 -0.2764
  686MOL0     C92500   2.530   9.210   7.958  0.4401  0.5553 -0.1139
  686MOL0     C92501   2.483   9.106   8.039  0.7972  0.1892 -0.5618
  686MOL0     C92502   2.349   9.093   8.083 -0.2002  1.7805  0.1817
  686MOL0     C92503   2.318   8.977   8.182 -0.1429 -0.3195  1.3681
  686MOL0     C92504   2.258   9.175   8.020 -0.5157  0.0913  0.0055
  686MOL0     C92505   2.115   9.152   8.061 -1.0622  0.2833 -0.1954
  686MOL0     O92506   2.046   9.273   8.086 -0.2052  0.3627 -0.5384
  686MOL0     C92507   1.911   9.256   8.078  0.0959 -0.6299 -0.3041
  686MOL0     C92508   1.847   9.284   7.955  0.5619 -0.4470  0.5949
  686MOL0     C92509   1.713   9.247   7.935  0.2429 -0.0450  0.3903
  686MOL0     C92510   1.635   9.197   8.044 -0.2477 -0.8660 -0.1760
  686MOL0     O92511   1.508   9.153   8.016  0.6551 -0.3930  0.6039
  686MOL0     C92512   1.419   9.127   8.131  0.4683  0.0372  0.0888
  686MOL0     C92513   1.278   9.126   8.105 -0.7551  0.0415 -0.2752
  686MOL0     C92514   1.253   9.066   7.963  0.1193 -0.6636  0.6387
  686MOL0     C92515   1.107   9.020   7.954 -0.5254  0.4342 -0.2584
  686MOL0     C92516   1.058   9.026   7.810  0.9641 -0.5665 -0.4943
  686MOL0     C92517   0.913   8.960   7.802  0.5905 -0.4112 -0.2615
  686MOL0     C92518   0.814   9.053   7.729 -0.3938 -0.0131 -0.2782
  686MOL0     C92519   0.689   8.978   7.675  0.5372 -0.0973  0.0661
  686MOL0    Cl92520   0.592   8.926   7.810 -0.1021 -0.5720 -0.2929
  686MOL0     C92521   1.693   9.188   8.168  0.1482 -0.2511 -0.4733
  686MOL0     C92522   1.832   9.217   8.188  0.3485  0.4559 -0.6456
  686MOL0     O92523   2.066   9.041   8.043  0.1220  0.0416  0.0943
  686MOL0     C92524   2.297   9.279   7.938  0.2105  0.6828  0.0124
  686MOL0     C92525   2.434   9.292   7.904 -0.8845  0.7138  0.5466
  686MOL0     N92526   3.186   8.874   7.813 -0.2913  0.0437 -0.4302
  686MOL0     N92527   3.279   8.803   7.757  0.0385 -0.2464  0.0980
  686MOL0     C92528   4.364   9.306   7.572 -0.4630 -0.2572 -0.3548
  686MOL0     C92529   4.494   9.340   7.563  0.2097 -0.8168  0.9010
  686MOL0     C92530   4.918   9.404   7.641 -0.1030 -0.9806  1.2582
  686MOL0     C92531   4.956   9.412   7.501  0.9733 -0.3676 -0.7644
  686MOL0     C92532   5.081   9.471   7.467  0.4838  0.3556  0.3122
  686MOL0     C92533   5.175   9.506   7.557  1.1467 -0.1108 -0.3072
  686MOL0     O92534   5.298   9.555   7.513  0.1189  0.4404  0.0601
  686MOL0     C92535   5.404   9.591   7.607 -1.1374  0.6124  0.0530
  686MOL0     C92536   5.489   9.472   7.651 -0.0613 -0.3928  0.2378
  686MOL0     C92537   5.619   9.524   7.720  0.6992 -0.0502 -0.3014
  686MOL0     C92538   5.735   9.561   7.624 -0.0238  0.6057  0.0475
  686MOL0     C92539   5.815   9.434   7.618 -0.2822  0.3168 -0.4035
  686MOL0     C92540   5.891   9.337   7.618 -0.8620 -0.0968 -0.3278
  686MOL0     C92541   5.142   9.480   7.693 -0.0043  0.0558  0.7127
  686MOL0     C92542   5.014   9.449   7.736 -0.5388 -0.1841 -0.3329
  686MOL0     H92543   4.629   9.085   7.749  0.8086  1.4782 -0.6712
  686MOL0     H92544   4.399   9.043   7.779  1.2521 -0.6370 -1.0034
  686MOL0     H92545   4.085   9.324   7.688  0.5512  0.7417  0.2139
  686MOL0     H92546   4.083   9.259   7.529 -4.7293 -0.0653  0.0070
  686MOL0     H92547   3.994   9.039   7.638  0.6118  1.2785 -2.0374
  686MOL0     H92548   3.913   9.161   7.755 -0.8756 -0.3234  0.4663
  686MOL0     H92549   3.818   9.268   7.559 -0.0380  0.0640 -0.8810
  686MOL0     H92550   3.921   9.174   7.443 -1.3556 -3.5345 -0.6452
  686MOL0     H92551   3.684   9.109   7.435  0.0533 -2.1395 -1.7107
  686MOL0     H92552   3.788   8.974   7.489  0.0979 -0.2926  0.7828
  686MOL0     H92553   3.718   8.988   7.708  0.8696  0.4450 -1.0812
  686MOL0     H92554   3.669   9.157   7.687  2.8733  0.5724  0.3034
  686MOL0     H92555   3.463   9.030   7.708 -1.0316  0.3397 -0.9520
  686MOL0     H92556   3.477   9.053   7.537 -1.7936 -0.3667  1.0043
  686MOL0     H92557   3.599   8.817   7.512  0.1656  0.4010 -0.6284
  686MOL0     H92558   3.549   8.791   7.677 -2.2837  1.4596  1.6323
  686MOL0     H92559   3.392   8.702   7.513  5.3478 -1.3609  2.0875
  686MOL0     H92560   3.366   8.871   7.452 -1.6943 -0.4121  0.8433
  686MOL0     H92561   3.156   8.975   7.510  1.2773  2.0085  0.7988
  686MOL0     H92562   2.983   9.101   7.672 -1.6438 -0.4069  0.9671
  686MOL0     H92563   2.927   8.963   7.753  0.6705  0.4837 -0.1623
  686MOL0     H92564   3.102   9.206   7.860 -0.9691  0.3829 -0.7552
  686MOL0     H92565   3.031   9.081   7.974 -0.8762 -0.4616 -0.4437
  686MOL0     H92566   2.887   9.281   7.807  0.9672 -2.5079 -1.2191
  686MOL0     H92567   2.924   9.310   7.972 -0.9175  1.9010 -1.7829
  686MOL0     H92568   2.776   9.121   8.043  0.1165  0.1776  0.0486
  686MOL0     H92569   2.753   9.048   7.887  0.6277 -1.1093  0.2237
  686MOL0     H92570   2.540   9.027   8.085 -1.8273 -1.2166  0.5079
  686MOL0     H92571   2.218   8.981   8.227 -0.4002 -1.0427  0.8705
  686MOL0     H92572   2.336   8.881   8.132  0.8688  0.7856 -0.5325
  686MOL0     H92573   2.396   8.989   8.257  2.5098 -1.0779 -1.0734
  686MOL0     H92574   1.894   9.338   7.874 -3.8207  0.9273 -1.3041
  686MOL0     H92575   1.662   9.255   7.840 -0.3880 -0.9186  0.6449
  686MOL0     H92576   1.441   9.029   8.176 -2.0362  0.9708  3.7880
  686MOL0     H92577   1.430   9.199   8.212 -0.2271 -0.9598  1.0984
  686MOL0     H92578   1.229   9.069   8.183  0.5123 -0.0671  0.4663
  686MOL0     H92579   1.244   9.230   8.107 -4.0438 -0.9612  1.6329
  686MOL0     H92580   1.312   8.975   7.944 -0.5234 -1.2037  1.1645
  686MOL0     H92581   1.273   9.130   7.877 -0.1631 -1.7424 -0.2565
  686MOL0     H92582   1.104   8.914   7.980 -1.2962  0.8226  1.3679
  686MOL0     H92583   1.044   9.073   8.026 -1.6824 -0.3936 -0.6318
  686MOL0     H92584   1.115   8.971   7.734 -1.4318 -2.9083 -0.7599
  686MOL0     H92585   1.054   9.132   7.784  0.8412 -0.6906 -0.9902
  686MOL0     H92586   0.918   8.865   7.750 -1.3527 -0.5314 -0.3160
  686MOL0     H92587   0.868   8.935   7.899 -2.0415 -0.0262 -1.2880
  686MOL0     H92588   0.856   9.112   7.646  0.8541  0.0499  0.3696
  686MOL0     H92589   0.787   9.140   7.789 -1.4116 -0.4537 -0.0735
  686MOL0     H92590   0.727   8.897   7.612  0.3764  0.3842 -0.6521
  686MOL0     H92591   0.621   9.033   7.610  1.8707 -1.7039 -2.8768
  686MOL0     H92592   1.636   9.152   8.253  0.0728 -0.9712 -0.8173
  686MOL0     H92593   1.871   9.193   8.287  0.0777 -1.5121 -0.9644
  686MOL0     H92594   2.224   9.335   7.880 -0.6371 -0.1043  0.2798
  686MOL0     H92595   2.460   9.372   7.836  1.7436 -0.8133 -0.4035
  686MOL0     H92596   4.285   9.372   7.538 -1.8333 -0.5734  1.9716
  686MOL0     H92597   4.520   9.430   7.508 -0.9681 -0.4009  0.9888
  686MOL0     H92598   4.889   9.369   7.427  0.8853  0.8467 -1.4202
  686MOL0     H92599   5.107   9.472   7.362 -0.0181 -0.3884  0.1756
  686MOL0     H92600   5.468   9.666   7.559  0.0273  0.4724  1.3251
  686MOL0     H92601   5.359   9.650   7.687 -1.7485  2.1976 -1.4067
  686MOL0     H92602   5.506   9.417   7.559  0.5001 -0.7875  0.5652
  686MOL0     H92603   5.433   9.409   7.720  1.1223 -2.1078 -0.2892
  686MOL0     H92604   5.631   9.439   7.787  0.4443 -0.3136 -0.5845
  686MOL0     H92605   5.596   9.615   7.776 -0.4972 -0.1535 -0.5922
  686MOL0     H92606   5.791   9.641   7.674 -0.4200  1.9193 -1.5231
  686MOL0     H92607   5.697   9.586   7.525  0.0732 -1.9512 -0.6936
  686MOL0     H92608   5.958   9.254   7.609  2.3625  2.1862  0.7833
  686MOL0     H92609   5.216   9.500   7.771 -1.2771  2.7645  1.3199
  686MOL0     H92610   4.999   9.448   7.844  1.1397 -0.4503 -0.0783
  687MOL0     O92611   4.356   6.567   4.717 -0.2706 -0.8642 -0.0126
  687MOL0     C92612   4.315   6.666   4.776 -0.9946 -1.1217 -0.1347
  687MOL0     O92613   4.206   6.738   4.747 -1.1300  0.5045  0.1321
  687MOL0     C92614   4.148   6.713   4.626 -1.4389 -0.4167  1.0767
  687MOL0     C92615   4.212   6.728   4.498 -0.4952 -0.2674 -0.3974
  687MOL0     C92616   4.144   6.695   4.384  0.3291  0.5568  0.2767
  687MOL0     C92617   4.009   6.654   4.385 -0.2338  0.6610  0.8543
  687MOL0     O92618   3.945   6.623   4.270 -0.6386 -0.0515  0.2682
  687MOL0     C92619   3.873   6.734   4.224  0.1295  0.1433  0.7190
  687MOL0     C92620   3.742   6.676   4.168 -0.1561 -0.1488  1.2574
  687MOL0     C92621   3.639   6.642   4.277 -0.0631 -0.0177 -0.3863
  687MOL0     C92622   3.525   6.560   4.241 -0.2339  0.6840 -0.2358
  687MOL0     C92623   3.423   6.562   4.345  0.0920 -1.0367  0.4662
  687MOL0     C92624   3.305   6.477   4.296  0.3348 -0.6252  0.3897
  687MOL0     C92625   3.180   6.490   4.376 -0.1337  0.1021  0.8052
  687MOL0     C92626   3.092   6.380   4.327  0.2569  0.3118  0.0622
  687MOL0     N92627   2.950   6.411   4.351  0.1937  0.0123 -0.8526
  687MOL0     C92628   2.877   6.504   4.280 -0.4402  0.0945 -0.3593
  687MOL0     C92629   2.751   6.477   4.311  0.0822  0.0956  0.0283
  687MOL0     C92630   2.630   6.567   4.279 -0.1415  0.0890  0.2249
  687MOL0     C92631   2.517   6.514   4.182 -0.6964  0.0906  0.1900
  687MOL0     C92632   2.571   6.430   4.065 -0.5074 -0.0457  0.0287
  687MOL0     C92633   2.467   6.417   3.959 -0.4335 -0.1820 -1.0033
  687MOL0     O92634   2.349   6.377   4.021  1.1508 -0.1649  0.9753
  687MOL0     C92635   2.230   6.418   3.964  0.2861  0.4482  0.9527
  687MOL0     C92636   2.212   6.463   3.832 -0.3186 -0.1851 -0.1119
  687MOL0     C92637   2.083   6.480   3.776 -0.3859  0.3623  0.8122
  687MOL0     C92638   2.073   6.500   3.621  0.3185 -0.8793 -0.3116
  687MOL0     C92639   1.975   6.483   3.867  0.2560 -0.1386 -0.0646
  687MOL0     C92640   1.837   6.509   3.806 -0.1997 -0.3362 -0.1862
  687MOL0     O92641   1.730   6.421   3.843  0.0068 -0.0179 -0.3857
  687MOL0     C92642   1.600   6.463   3.815  0.1413  0.9137  0.3309
  687MOL0     C92643   1.546   6.441   3.689 -0.8241  0.2551 -0.1654
  687MOL0     C92644   1.415   6.486   3.659  0.0755 -0.2020 -0.1536
  687MOL0     C92645   1.341   6.557   3.751  0.6749  0.2775  0.3525
  687MOL0     O92646   1.208   6.596   3.713  0.2086  0.9527 -0.4973
  687MOL0     C92647   1.116   6.631   3.815  0.5081 -0.7792  1.4172
  687MOL0     C92648   0.983   6.668   3.748  0.4810 -0.4274 -0.3316
  687MOL0     C92649   0.935   6.554   3.653  0.1734  0.3683 -0.1884
  687MOL0     C92650   0.794   6.577   3.619  0.2952 -0.1913  0.4233
  687MOL0     C92651   0.759   6.516   3.480  0.1673  0.8617 -0.3532
  687MOL0     C92652   0.602   6.510   3.470  0.4244 -0.2920 -0.2425
  687MOL0     C92653   0.540   6.650   3.477  1.0270  0.3636  0.1900
  687MOL0     C92654   0.550   6.743   3.346  0.1156 -0.0043 -0.2065
  687MOL0    Cl92655   0.455   6.884   3.374  0.3717  0.5367 -0.0835
  687MOL0     C92656   1.393   6.570   3.879 -0.6040  0.3166 -0.5273
  687MOL0     C92657   1.522   6.525   3.917 -0.5690  0.1850  0.0543
  687MOL0     O92658   1.834   6.610   3.736  0.6857  1.0760  1.0194
  687MOL0     C92659   1.992   6.466   4.005 -0.3976  0.3988  1.1889
  687MOL0     C92660   2.114   6.421   4.047 -0.0354  0.0606 -0.7058
  687MOL0     N92661   2.739   6.369   4.398 -0.1537 -0.9430  0.6006
  687MOL0     N92662   2.860   6.332   4.417  0.3451 -0.6344 -0.1710
  687MOL0     C92663   3.935   6.635   4.510 -0.1377 -0.0696 -0.5142
  687MOL0     C92664   4.022   6.652   4.623 -0.2754 -0.0478 -0.2880
  687MOL0     C92665   4.399   6.698   4.895  0.0026  0.0784  0.1249
  687MOL0     C92666   4.508   6.620   4.939 -0.4220  0.2526  0.6962
  687MOL0     C92667   4.588   6.651   5.044 -0.8375  0.0062 -0.7441
  687MOL0     C92668   4.562   6.760   5.125 -0.3819  0.3696 -0.7692
  687MOL0     O92669   4.618   6.779   5.246  0.6083 -0.8267 -0.4253
  687MOL0     C92670   4.736   6.864   5.226 -0.6287  0.0777 -0.6443
  687MOL0     C92671   4.843   6.801   5.319  0.0649  0.2540 -0.6023
  687MOL0     C92672   4.957   6.898   5.317 -1.5725  0.0286 -0.5396
  687MOL0     C92673   5.089   6.856   5.384 -0.8434  0.0472  0.4029
  687MOL0     C92674   5.187   6.965   5.398  0.0254 -0.8110  0.0532
  687MOL0     C92675   5.252   7.071   5.413  0.7606 -0.1324  0.6489
  687MOL0     C92676   4.450   6.840   5.095  0.3042 -0.1446  0.0776
  687MOL0     C92677   4.380   6.816   4.973  0.0766 -0.2786 -0.4016
  687MOL0     H92678   4.315   6.753   4.478 -0.4757 -1.5241 -2.0444
  687MOL0     H92679   4.198   6.710   4.291  1.0810  1.2919  0.8063
  687MOL0     H92680   3.859   6.812   4.299  0.1628  1.1742 -0.3115
  687MOL0     H92681   3.931   6.784   4.146  1.2517 -1.1835  0.6600
  687MOL0     H92682   3.693   6.749   4.103  0.5297 -1.4171 -0.7941
  687MOL0     H92683   3.767   6.580   4.120 -2.6794 -1.5177  2.4695
  687MOL0     H92684   3.695   6.578   4.345 -0.6292 -1.4672 -1.2478
  687MOL0     H92685   3.602   6.738   4.314 -1.5150  1.0461 -4.0979
  687MOL0     H92686   3.490   6.601   4.146 -1.6336 -0.3527 -0.2021
  687MOL0     H92687   3.551   6.454   4.230  0.9879  1.0623 -1.2895
  687MOL0     H92688   3.449   6.505   4.435 -0.8844 -1.8671  0.2485
  687MOL0     H92689   3.392   6.666   4.356 -1.0963 -1.1560 -1.3463
  687MOL0     H92690   3.288   6.503   4.191 -0.6962  1.0659  0.9203
  687MOL0     H92691   3.346   6.377   4.308  0.6756 -0.4660  0.5909
  687MOL0     H92692   3.200   6.483   4.484  0.8638 -0.2599  0.6148
  687MOL0     H92693   3.143   6.589   4.347  0.1572  0.0855  0.3757
  687MOL0     H92694   3.111   6.292   4.390 -0.1332  0.6118  0.6021
  687MOL0     H92695   3.108   6.350   4.223  1.2367 -1.0346  0.5686
  687MOL0     H92696   2.915   6.586   4.220 -0.1649 -0.1865 -0.5698
  687MOL0     H92697   2.588   6.587   4.378 -0.6628 -1.2713  0.3095
  687MOL0     H92698   2.659   6.665   4.240  0.4459 -0.3679 -0.5037
  687MOL0     H92699   2.464   6.603   4.147 -3.4064 -1.0219  1.2398
  687MOL0     H92700   2.456   6.450   4.246  1.0097  0.5251  2.4113
  687MOL0     H92701   2.594   6.331   4.105 -0.3845 -0.8739 -1.9462
  687MOL0     H92702   2.654   6.479   4.013 -1.8842  0.5866 -1.7017
  687MOL0     H92703   2.492   6.350   3.876  2.3674  1.2210 -1.4051
  687MOL0     H92704   2.455   6.517   3.917  1.1939  0.3921 -0.1679
  687MOL0     H92705   2.296   6.464   3.764  1.5934 -1.1301  2.0791
  687MOL0     H92706   2.031   6.597   3.593 -0.3938 -0.2750  2.5257
  687MOL0     H92707   2.162   6.486   3.559 -0.0432  0.5571 -1.1989
  687MOL0     H92708   2.005   6.424   3.581 -1.4058 -1.0830  2.7171
  687MOL0     H92709   1.609   6.391   3.616  0.8700 -0.6034  1.8070
  687MOL0     H92710   1.368   6.464   3.564  2.2505 -1.4150 -1.0031
  687MOL0     H92711   1.108   6.546   3.883 -0.9675 -0.6248  1.4736
  687MOL0     H92712   1.149   6.728   3.853 -0.7978  1.7410 -3.0620
  687MOL0     H92713   0.903   6.688   3.821 -0.4414  1.7567 -1.8496
  687MOL0     H92714   0.991   6.760   3.691 -2.0697  0.9133  1.2789
  687MOL0     H92715   0.956   6.455   3.694  1.1871  0.4290 -0.5404
  687MOL0     H92716   0.982   6.559   3.555 -1.1612 -1.1927 -0.9462
  687MOL0     H92717   0.732   6.540   3.701 -1.5411 -0.1726 -0.8614
  687MOL0     H92718   0.779   6.685   3.625 -1.1409 -0.3747  0.5974
  687MOL0     H92719   0.797   6.413   3.468 -1.2175  0.4152 -1.1072
  687MOL0     H92720   0.797   6.570   3.393 -0.8828  1.8279 -0.2280
  687MOL0     H92721   0.563   6.459   3.381 -0.9076 -0.4617  0.4183
  687MOL0     H92722   0.557   6.464   3.558  0.3145  1.2175  0.5275
  687MOL0     H92723   0.581   6.695   3.567  1.8189 -3.3512  1.8647
  687MOL0     H92724   0.433   6.635   3.492  0.6337  1.6221 -1.0796
  687MOL0     H92725   0.509   6.694   3.258 -0.5733  0.8999 -0.3941
  687MOL0     H92726   0.657   6.763   3.333 -0.4805  2.8367 -1.5470
  687MOL0     H92727   1.340   6.623   3.958 -2.6091 -2.9209  0.4992
  687MOL0     H92728   1.561   6.533   4.018  1.3582  1.9232 -0.7698
  687MOL0     H92729   1.908   6.464   4.073 -2.2050 -0.8654 -0.9358
  687MOL0     H92730   2.123   6.390   4.150 -1.4448  3.2977  0.5187
  687MOL0     H92731   3.830   6.610   4.524  0.1133 -0.0391  1.8661
  687MOL0     H92732   3.977   6.644   4.721 -0.6394  2.8027 -0.1434
  687MOL0     H92733   4.551   6.536   4.886  4.4665  2.3141  0.8666
  687MOL0     H92734   4.659   6.573   5.069  2.2013  2.5102 -0.9258
  687MOL0     H92735   4.778   6.861   5.125  1.0589 -0.3642  0.0401
  687MOL0     H92736   4.723   6.965   5.266  2.2466  0.9498 -1.6908
  687MOL0     H92737   4.875   6.701   5.287 -2.3421 -1.7703  2.7164
  687MOL0     H92738   4.806   6.778   5.419  2.3916 -1.1219  0.0288
  687MOL0     H92739   4.923   6.992   5.360 -1.3688 -0.5540  0.9620
  687MOL0     H92740   4.981   6.919   5.213 -1.5554  1.7355 -0.2157
  687MOL0     H92741   5.145   6.794   5.314 -1.0137 -0.6444  0.8661
  687MOL0     H92742   5.072   6.801   5.478 -0.0053 -1.1188 -0.0991
  687MOL0     H92743   5.313   7.158   5.425  2.5422 -1.3228  0.7176
  687MOL0     H92744   4.422   6.926   5.155 -1.3912  0.5591 -1.6095
  687MOL0     H92745   4.306   6.890   4.943  0.0544  0.2388  0.8583
  688MOL0     O92746   8.221   7.069   2.470 -0.5142 -0.4347 -0.0366
  688MOL0     C92747   8.294   6.992   2.528 -0.0428 -0.1472 -0.2344
  688MOL0     O92748   8.251   6.885   2.607 -0.0131 -0.7216  0.0454
  688MOL0     C92749   8.117   6.871   2.635  0.2928 -0.2942 -0.3288
  688MOL0     C92750   8.072   6.944   2.746 -0.8392  0.1904  0.5192
  688MOL0     C92751   7.948   6.929   2.791  0.1022  0.0882 -0.2043
  688MOL0     C92752   7.852   6.856   2.720 -1.1489  0.2382  0.6815
  688MOL0     O92753   7.719   6.853   2.742 -0.3039 -0.9968  0.0400
  688MOL0     C92754   7.679   6.838   2.878 -0.3655  0.0711  0.1696
  688MOL0     C92755   7.603   6.960   2.927 -0.2752 -0.2146  0.3159
  688MOL0     C92756   7.490   7.005   2.832  0.5264  0.4718  0.4833
  688MOL0     C92757   7.416   7.136   2.889 -0.1830  0.5240 -0.1799
  688MOL0     C92758   7.271   7.160   2.837  0.3563  0.9948 -0.0558
  688MOL0     C92759   7.241   7.306   2.813 -0.1690 -0.5410 -0.3960
  688MOL0     C92760   7.093   7.328   2.773  0.1073 -0.5526 -0.5495
  688MOL0     C92761   7.080   7.475   2.756 -0.2166 -0.9530  0.4512
  688MOL0     N92762   6.936   7.511   2.729 -0.0440  0.2204  0.4112
  688MOL0     C92763   6.851   7.566   2.827 -0.2055  0.7453 -0.4794
  688MOL0     C92764   6.738   7.603   2.770  0.2466  0.8952  0.0682
  688MOL0     C92765   6.615   7.643   2.840 -0.4746 -1.0570  1.0592
  688MOL0     C92766   6.644   7.788   2.890  0.3211  0.0384  0.0595
  688MOL0     C92767   6.522   7.864   2.944  1.0443  0.0090 -0.5572
  688MOL0     C92768   6.408   7.887   2.842  0.3276  0.7869 -0.3386
  688MOL0     O92769   6.300   7.948   2.909 -0.4838 -0.4808  0.2408
  688MOL0     C92770   6.197   8.001   2.827  0.1015 -0.4610  0.0190
  688MOL0     C92771   6.184   7.973   2.690  0.3779 -0.0393  0.3995
  688MOL0     C92772   6.066   8.002   2.617 -0.0240 -0.3788 -0.1887
  688MOL0     C92773   6.063   7.963   2.472 -0.4262 -0.6074  0.2992
  688MOL0     C92774   5.960   8.061   2.692  0.3435 -0.6839 -0.2155
  688MOL0     C92775   5.833   8.099   2.632  0.4327 -0.0401  0.4438
  688MOL0     O92776   5.746   8.175   2.706 -1.0021  0.1605  0.3370
  688MOL0     C92777   5.630   8.224   2.663  0.8299 -0.2449  0.6671
  688MOL0     C92778   5.602   8.358   2.683  0.4194  0.3985  0.3657
  688MOL0     C92779   5.474   8.406   2.649 -0.2587  0.5824 -0.1197
  688MOL0     C92780   5.383   8.318   2.592  1.0211 -0.4315 -0.0184
  688MOL0     O92781   5.257   8.370   2.558 -0.2750 -0.7148 -0.5440
  688MOL0     C92782   5.159   8.293   2.504  0.3407 -0.1524 -0.1047
  688MOL0     C92783   5.038   8.382   2.474 -0.1847  0.0611  0.1533
  688MOL0     C92784   4.911   8.321   2.433  0.3658  0.1713 -0.3212
  688MOL0     C92785   4.811   8.314   2.549  0.0694  0.5247  0.3805
  688MOL0     C92786   4.684   8.238   2.492 -0.2301 -0.6779 -0.2379
  688MOL0     C92787   4.564   8.243   2.589  0.1871 -1.2839  0.0786
  688MOL0     C92788   4.430   8.211   2.517  0.5225 -0.1512  0.4534
  688MOL0     C92789   4.316   8.312   2.519 -0.2303  0.9668 -0.1325
  688MOL0    Cl92790   4.231   8.293   2.360  0.0837 -0.1054  0.1763
  688MOL0     C92791   5.415   8.184   2.569 -0.1301 -0.1697 -0.7007
  688MOL0     C92792   5.536   8.137   2.604  0.2297  0.0904 -0.2764
  688MOL0     O92793   5.811   8.044   2.527  0.4807 -0.5125  0.0803
  688MOL0     C92794   5.976   8.091   2.828 -0.8016  0.3884  1.0359
  688MOL0     C92795   6.093   8.068   2.898  0.9995  0.6076  0.3323
  688MOL0     N92796   6.750   7.554   2.638 -0.3376 -0.1563  0.8024
  688MOL0     N92797   6.872   7.512   2.609  0.4014  0.8309 -0.0984
  688MOL0     C92798   7.895   6.801   2.600  1.0470 -0.3220  0.1583
  688MOL0     C92799   8.024   6.799   2.563  0.7338  0.0668 -0.3491
  688MOL0     C92800   8.435   7.009   2.509  0.1876  0.7213  0.5269
  688MOL0     C92801   8.527   6.926   2.580 -0.0315  0.0666 -0.2817
  688MOL0     C92802   8.657   6.960   2.599 -0.2855  0.3702 -0.7452
  688MOL0     C92803   8.705   7.069   2.539  0.1996 -0.8250  0.1119
  688MOL0     O92804   8.837   7.100   2.555  0.2540 -0.7355 -0.6110
  688MOL0     C92805   8.895   7.168   2.445 -0.1688 -0.8958  0.9885
  688MOL0     C92806   9.047   7.154   2.440 -0.4496 -0.1285 -0.6235
  688MOL0     C92807   9.095   7.006   2.423  0.0353  0.2081 -0.5683
  688MOL0     C92808   9.244   6.981   2.434 -0.1167 -0.0290  0.0884
  688MOL0     C92809   9.318   7.047   2.320  0.6990 -0.4616 -0.0265
  688MOL0     C92810   9.376   7.113   2.240  0.2041 -0.2627  0.3927
  688MOL0     C92811   8.622   7.153   2.465  0.0906 -0.0628 -0.5898
  688MOL0     C92812   8.486   7.128   2.454  0.4485 -0.5383 -0.0914
  688MOL0     H92813   8.129   7.023   2.794 -0.2534 -0.8674  1.6135
  688MOL0     H92814   7.926   6.996   2.873  1.9137  0.5227 -0.0256
  688MOL0     H92815   7.628   6.741   2.873  0.3858 -0.2748 -1.1840
  688MOL0     H92816   7.761   6.820   2.949 -1.5988 -1.6854  1.2442
  688MOL0     H92817   7.572   6.947   3.031  2.1193  0.3545  1.1704
  688MOL0     H92818   7.679   7.039   2.929  2.2796 -2.3075 -2.5207
  688MOL0     H92819   7.527   7.029   2.732  0.5008  0.2902  0.4300
  688MOL0     H92820   7.420   6.922   2.823  0.5294  0.2637  2.0144
  688MOL0     H92821   7.402   7.109   2.994  1.3632  0.3454 -0.0019
  688MOL0     H92822   7.485   7.220   2.881  0.5980  0.0477  1.3918
  688MOL0     H92823   7.258   7.102   2.745 -0.1236  0.7951  0.1320
  688MOL0     H92824   7.199   7.107   2.901 -0.8739 -1.3872 -3.1393
  688MOL0     H92825   7.259   7.366   2.903  0.0031 -1.4435  0.1846
  688MOL0     H92826   7.305   7.349   2.736 -0.2124 -0.6638 -0.4998
  688MOL0     H92827   7.050   7.274   2.688 -5.5524  0.7684  0.9988
  688MOL0     H92828   7.020   7.298   2.850 -2.1606  2.6506 -1.2180
  688MOL0     H92829   7.138   7.514   2.672 -2.4905  0.9254 -0.3879
  688MOL0     H92830   7.116   7.519   2.850  0.0496  1.9438 -0.8992
  688MOL0     H92831   6.882   7.572   2.931  1.4338  2.6029 -0.9940
  688MOL0     H92832   6.535   7.652   2.766 -1.1064  2.1164  1.9852
  688MOL0     H92833   6.584   7.567   2.913  0.7239 -0.9359  1.7210
  688MOL0     H92834   6.671   7.855   2.807 -0.1601 -0.4881 -0.5305
  688MOL0     H92835   6.723   7.788   2.966  0.7022  1.6906 -0.2988
  688MOL0     H92836   6.547   7.961   2.987  0.4545 -0.4587  0.8999
  688MOL0     H92837   6.479   7.799   3.021  1.2365  1.7647  1.1024
  688MOL0     H92838   6.378   7.792   2.797  0.0926  0.1309  1.1510
  688MOL0     H92839   6.452   7.939   2.756  2.6585  1.1762  0.9958
  688MOL0     H92840   6.268   7.928   2.638  0.9432 -0.1017  1.3308
  688MOL0     H92841   6.040   8.050   2.410 -1.5229  1.5270  3.4703
  688MOL0     H92842   6.162   7.930   2.439 -0.7298 -1.3314  0.0998
  688MOL0     H92843   5.989   7.884   2.458  0.4317 -1.1113 -1.8727
  688MOL0     H92844   5.683   8.420   2.721  0.5529  1.1233 -1.0262
  688MOL0     H92845   5.443   8.507   2.675 -2.9771 -0.2180 -0.0226
  688MOL0     H92846   5.197   8.239   2.417  1.7336  0.6578 -0.0390
  688MOL0     H92847   5.130   8.230   2.589  1.3842 -1.2390 -0.5216
  688MOL0     H92848   5.014   8.445   2.559 -2.3845 -0.5462  0.0464
  688MOL0     H92849   5.062   8.441   2.385 -1.9978 -0.1878 -0.5316
  688MOL0     H92850   4.927   8.217   2.403 -0.0674 -1.0259  3.1999
  688MOL0     H92851   4.864   8.386   2.358  0.6591  2.1651  1.1483
  688MOL0     H92852   4.844   8.253   2.633 -2.1265 -0.8853  0.3055
  688MOL0     H92853   4.800   8.417   2.585 -1.0748 -0.0059  1.6656
  688MOL0     H92854   4.712   8.133   2.479 -0.2391 -0.6843 -0.2000
  688MOL0     H92855   4.647   8.272   2.394  0.9086 -1.9954 -1.1649
  688MOL0     H92856   4.566   8.183   2.680  2.0520 -2.0978 -0.4577
  688MOL0     H92857   4.550   8.344   2.629 -1.7463 -1.8331  0.9108
  688MOL0     H92858   4.395   8.115   2.555 -0.5432 -0.8426 -2.0159
  688MOL0     H92859   4.449   8.191   2.411  2.0746  1.3156  0.4116
  688MOL0     H92860   4.350   8.416   2.529  2.0802  0.2432  0.2147
  688MOL0     H92861   4.249   8.289   2.603 -0.6673  1.8667 -0.2196
  688MOL0     H92862   5.348   8.115   2.519 -2.4007 -0.1908  2.1229
  688MOL0     H92863   5.557   8.034   2.577 -1.2461 -0.1809 -0.5103
  688MOL0     H92864   5.900   8.153   2.875 -1.1453  1.4921 -0.8554
  688MOL0     H92865   6.094   8.102   3.000 -0.9472 -2.5087  1.5642
  688MOL0     H92866   7.819   6.758   2.536  0.1044  2.7198 -0.9820
  688MOL0     H92867   8.053   6.739   2.477 -2.7373 -0.2169 -1.4663
  688MOL0     H92868   8.487   6.844   2.639  1.7036 -1.5632 -1.2446
  688MOL0     H92869   8.722   6.912   2.671 -1.4144  0.2359  0.2081
  688MOL0     H92870   8.858   7.114   2.357 -0.1361 -1.7004  1.4577
  688MOL0     H92871   8.861   7.271   2.431  1.4689 -0.7538 -4.1663
  688MOL0     H92872   9.093   7.202   2.527  1.6206 -2.8824 -0.0795
  688MOL0     H92873   9.084   7.218   2.360  1.2151 -0.6675 -0.3147
  688MOL0     H92874   9.046   6.970   2.332 -0.7762 -1.5317  0.5234
  688MOL0     H92875   9.061   6.950   2.510  3.0204  1.1842  1.3698
  688MOL0     H92876   9.258   6.874   2.415 -1.2345 -0.3480  0.9287
  688MOL0     H92877   9.290   7.001   2.531  1.6822  0.1973 -0.7673
  688MOL0     H92878   9.418   7.185   2.173  1.4551 -1.0850  0.2474
  688MOL0     H92879   8.670   7.242   2.425  0.6690 -0.3108 -0.4669
  688MOL0     H92880   8.423   7.192   2.392  0.0857 -0.2149  0.6057
  689MOL0     O92881   7.438   1.392   8.955 -0.4825 -0.2748 -0.1430
  689MOL0     C92882   7.500   1.381   9.061 -0.3685  0.0367  0.1997
  689MOL0     O92883   7.466   1.296   9.161 -0.0826  0.7496 -0.6197
  689MOL0     C92884   7.360   1.203   9.137  0.4105  0.1904  0.2900
  689MOL0     C92885   7.232   1.248   9.100 -0.6197 -0.1968  0.0551
  689MOL0     C92886   7.129   1.156   9.052 -1.0899  0.0160 -0.7772
  689MOL0     C92887   7.161   1.016   9.053  0.9270 -0.4520 -0.0707
  689MOL0     O92888   7.052   0.930   9.036 -0.6549 -0.0335 -0.0495
  689MOL0     C92889   7.090   0.791   9.030  0.2322  0.6375  1.0653
  689MOL0     C92890   6.969   0.699   8.994 -0.4150 -0.3596 -0.4052
  689MOL0     C92891   6.849   0.735   9.087 -0.7897  0.0874  0.3149
  689MOL0     C92892   6.723   0.654   9.054  0.9228  0.5887  0.5616
  689MOL0     C92893   6.624   0.639   9.168 -0.3543  0.1080  0.0391
  689MOL0     C92894   6.492   0.595   9.112 -0.0617  0.7864 -0.3712
  689MOL0     C92895   6.402   0.537   9.223  0.7600 -0.0946  0.2850
  689MOL0     C92896   6.275   0.463   9.164  0.1463 -0.5182  0.4799
  689MOL0     N92897   6.197   0.410   9.273 -0.9945 -0.2194  0.4689
  689MOL0     C92898   6.182   0.280   9.302 -0.0648  0.4297  0.4719
  689MOL0     C92899   6.077   0.276   9.387 -0.2198  0.3496  0.0301
  689MOL0     C92900   6.016   0.158   9.449  0.4070 -0.6274 -0.3639
  689MOL0     C92901   5.921   0.197   9.564  0.5305  0.4023  0.4352
  689MOL0     C92902   5.781   0.221   9.495  0.2631  0.0197  0.5819
  689MOL0     C92903   5.687   0.299   9.582 -0.2206 -0.2212 -0.0442
  689MOL0     O92904   5.625   0.216   9.677  0.1320  0.0960  0.1638
  689MOL0     C92905   5.512   0.253   9.743 -0.7353 -0.7355 -0.4185
  689MOL0     C92906   5.490   0.384   9.782  0.1124  0.4251  0.2729
  689MOL0     C92907   5.376   0.417   9.861 -0.6421  0.1877  0.2076
  689MOL0     C92908   5.367   0.561   9.904 -0.3298 -0.4697 -0.2374
  689MOL0     C92909   5.284   0.312   9.896  0.0339  0.2776 -0.0869
  689MOL0     C92910   5.148   0.339   9.958  0.0067 -0.5878 -0.7630
  689MOL0     O92911   5.041   0.266   9.913 -0.5508  1.0340  0.0006
  689MOL0     C92912   4.915   0.308   9.955  0.1553 -0.2022 -0.2487
  689MOL0     C92913   4.889   0.439   9.970  0.6602 -0.0393  0.0824
  689MOL0     C92914   4.761   0.474  10.021 -0.6570 -0.3336  0.0054
  689MOL0     C92915   4.669   0.381  10.065 -0.3075  0.2051  0.9678
  689MOL0     O92916   4.547   0.405  10.117  0.0517 -0.5346 -0.1650
  689MOL0     C92917   4.482   0.519  10.057  0.5654 -0.5144  0.6540
  689MOL0     C92918   4.345   0.542  10.115  0.6915  0.4691 -0.8054
  689MOL0     C92919   4.270   0.656  10.051  0.6152 -0.3902  0.3720
  689MOL0     C92920   4.146   0.698  10.137 -0.1920 -0.3972 -0.2856
  689MOL0     C92921   4.018   0.618  10.116  0.1004 -0.2190 -0.1371
  689MOL0     C92922   4.026   0.471  10.169 -0.2401  0.2288 -0.4073
  689MOL0     C92923   3.879   0.410  10.171 -0.2834  0.4126 -0.0045
  689MOL0     C92924   3.869   0.307  10.277 -0.4685 -0.9044  0.5805
  689MOL0    Cl92925   3.843   0.376  10.442 -0.1942 -0.1431  0.5400
  689MOL0     C92926   4.702   0.243  10.061  0.0555 -0.2766 -0.1665
  689MOL0     C92927   4.829   0.215  10.003  0.4212  0.7882 -0.4397
  689MOL0     O92928   5.140   0.427  10.048 -0.6464 -0.3397  0.0282
  689MOL0     C92929   5.315   0.182   9.852  0.1159 -0.4747  0.8519
  689MOL0     C92930   5.425   0.155   9.783 -0.3175  0.0176  0.3321
  689MOL0     N92931   6.049   0.407   9.420  0.3779  0.0432  0.0227
  689MOL0     N92932   6.129   0.483   9.360 -0.0819 -0.4319 -0.4004
  689MOL0     C92933   7.290   0.975   9.087 -0.2141  0.3327  0.2544
  689MOL0     C92934   7.386   1.068   9.120 -0.0359 -1.1469  0.0696
  689MOL0     C92935   7.612   1.467   9.078  0.0277 -1.1224 -1.3708
  689MOL0     C92936   7.661   1.483   9.208 -0.4894 -0.4830  0.1732
  689MOL0     C92937   7.779   1.552   9.219 -0.0231 -0.3162 -0.2008
  689MOL0     C92938   7.846   1.616   9.110 -0.0950  0.1208 -0.6228
  689MOL0     O92939   7.956   1.695   9.129 -0.2273 -0.5346 -0.1498
  689MOL0     C92940   8.012   1.699   9.260  0.2748 -0.5832 -0.5906
  689MOL0     C92941   8.134   1.796   9.271 -0.6510 -1.1815  0.3024
  689MOL0     C92942   8.103   1.946   9.239  0.3797 -0.3644 -0.4666
  689MOL0     C92943   8.229   2.023   9.204 -0.4451 -0.1071  0.1576
  689MOL0     C92944   8.323   2.015   9.316  0.0030  0.1167 -0.2434
  689MOL0     C92945   8.382   2.002   9.426  0.5292  0.1927 -0.0583
  689MOL0     C92946   7.790   1.605   8.988  0.5660 -0.7773 -0.0423
  689MOL0     C92947   7.671   1.534   8.974  0.5863 -0.4143  0.3175
  689MOL0     H92948   7.201   1.352   9.098 -1.5346 -0.4675 -1.2747
  689MOL0     H92949   7.034   1.193   9.013 -1.4358  1.5040  1.3408
  689MOL0     H92950   7.165   0.777   8.952 -0.7809  1.2295 -0.0430
  689MOL0     H92951   7.126   0.746   9.123 -2.6662 -2.8082  0.7417
  689MOL0     H92952   6.938   0.732   8.894  2.0508 -1.4008 -1.6017
  689MOL0     H92953   6.989   0.591   8.998 -0.1167 -0.2812  0.2197
  689MOL0     H92954   6.881   0.710   9.188  1.4321 -0.3603 -0.4362
  689MOL0     H92955   6.820   0.839   9.071 -2.1603 -0.0727  1.6021
  689MOL0     H92956   6.668   0.696   8.969  1.6665  0.5824  0.0664
  689MOL0     H92957   6.746   0.548   9.036 -0.6892 -0.1130  2.3134
  689MOL0     H92958   6.671   0.578   9.245  2.0347  2.6672  0.7615
  689MOL0     H92959   6.607   0.740   9.205 -0.6321 -0.2156  0.8069
  689MOL0     H92960   6.447   0.678   9.057  1.1462  0.0921 -2.5029
  689MOL0     H92961   6.510   0.516   9.038 -1.7069  0.7558 -0.7832
  689MOL0     H92962   6.456   0.455   9.272 -2.1829 -1.5171  1.3527
  689MOL0     H92963   6.376   0.615   9.295 -0.0315 -0.7690  0.7462
  689MOL0     H92964   6.287   0.383   9.091 -0.1001 -0.9378  0.8965
  689MOL0     H92965   6.211   0.541   9.121  0.8759 -0.5144 -0.6404
  689MOL0     H92966   6.235   0.201   9.250  1.1250  0.5213  1.4822
  689MOL0     H92967   5.960   0.099   9.375 -2.1705  0.4314  0.5981
  689MOL0     H92968   6.103   0.103   9.484  0.8298 -0.4978 -1.1883
  689MOL0     H92969   5.948   0.289   9.617 -0.5648  0.8682  0.2065
  689MOL0     H92970   5.923   0.114   9.635  1.8749  1.2368  1.4084
  689MOL0     H92971   5.731   0.127   9.471 -1.9594  1.0964  0.8265
  689MOL0     H92972   5.805   0.266   9.398  1.2177 -1.0068  0.3077
  689MOL0     H92973   5.604   0.343   9.526 -3.7779 -2.0874  3.2541
  689MOL0     H92974   5.754   0.377   9.619  2.8712 -1.1314 -3.1446
  689MOL0     H92975   5.552   0.465   9.743 -0.3720  1.4007  1.4483
  689MOL0     H92976   5.285   0.603   9.844 -0.8559  1.2673  1.5973
  689MOL0     H92977   5.352   0.566  10.012  1.8633  0.9295  0.0766
  689MOL0     H92978   5.462   0.613   9.887  1.4147 -3.2662  0.4265
  689MOL0     H92979   4.967   0.512   9.948  1.6583 -1.1643 -0.2355
  689MOL0     H92980   4.747   0.580  10.038 -0.3246 -0.2762 -0.0674
  689MOL0     H92981   4.534   0.611  10.087 -1.2138  0.4953  0.8114
  689MOL0     H92982   4.477   0.512   9.948 -1.3085 -1.7352  0.7843
  689MOL0     H92983   4.295   0.445  10.123 -0.6977  1.1885 -0.4613
  689MOL0     H92984   4.371   0.570  10.218 -1.0884 -1.9303  0.4158
  689MOL0     H92985   4.245   0.648   9.945  1.0949  0.4401  0.1877
  689MOL0     H92986   4.335   0.742  10.067 -0.1732  0.4948 -1.0557
  689MOL0     H92987   4.178   0.695  10.242 -0.9234 -0.4683 -0.0569
  689MOL0     H92988   4.120   0.802  10.116 -0.2490 -0.3160  0.1697
  689MOL0     H92989   3.995   0.615  10.009  1.5955 -1.8627 -0.4386
  689MOL0     H92990   3.940   0.676  10.168  0.6233  0.6229 -0.2741
  689MOL0     H92991   4.081   0.411  10.096 -0.8432  0.8206 -1.3821
  689MOL0     H92992   4.069   0.459  10.269 -0.4807 -1.3571 -0.4624
  689MOL0     H92993   3.855   0.365  10.074 -0.4452  0.8447 -0.1676
  689MOL0     H92994   3.811   0.492  10.195 -2.3232 -1.8451  2.5683
  689MOL0     H92995   3.957   0.241  10.273 -0.0126 -0.2927  0.2450
  689MOL0     H92996   3.780   0.248  10.255 -1.2489 -0.0169  1.3166
  689MOL0     H92997   4.646   0.171  10.120  0.5936 -0.7289 -0.1975
  689MOL0     H92998   4.865   0.113   9.992  2.2280  1.4381 -0.9626
  689MOL0     H92999   5.255   0.095   9.876 -0.5532 -0.4804 -0.7464
  689MOL0     H93000   5.450   0.052   9.759  0.6907  0.3981 -0.3443
  689MOL0     H93001   7.315   0.869   9.093  4.5584  1.0126 -2.5164
  689MOL0     H93002   7.485   1.027   9.135  1.9427  2.5599 -1.5439
  689MOL0     H93003   7.615   1.432   9.292 -0.2438 -1.3057 -0.1770
  689MOL0     H93004   7.809   1.550   9.324 -1.4502  0.8095  0.2616
  689MOL0     H93005   7.932   1.732   9.326  0.3062  1.1351 -1.3637
  689MOL0     H93006   8.047   1.598   9.286 -0.4074 -0.7103 -0.1594
  689MOL0     H93007   8.216   1.761   9.207 -2.3994 -2.0772 -1.5393
  689MOL0     H93008   8.168   1.787   9.375 -0.3705 -1.2601  0.2071
  689MOL0     H93009   8.048   1.977   9.329  0.3142  2.2749 -1.3437
  689MOL0     H93010   8.025   1.956   9.164 -1.9625  0.0753  1.8916
  689MOL0     H93011   8.194   2.126   9.192  2.2017  1.1202  1.9140
  689MOL0     H93012   8.281   1.993   9.112  1.2195 -1.1875  1.4088
  689MOL0     H93013   8.433   1.989   9.520  1.2285  0.2384 -0.4251
  689MOL0     H93014   7.834   1.661   8.907 -0.0814  1.8116  1.3040
  689MOL0     H93015   7.624   1.536   8.876  1.2360  0.0005  0.0029
  690MOL0     O93016   8.489   1.990   1.609  0.0871 -0.6195  0.2349
  690MOL0     C93017   8.510   1.938   1.500 -0.7731 -0.2337  0.2814
  690MOL0     O93018   8.417   1.893   1.416  0.0930  0.7916 -0.3876
  690MOL0     C93019   8.294   1.859   1.469  0.0669 -0.3855  0.1637
  690MOL0     C93020   8.273   1.724   1.504 -0.3668 -1.1059 -0.4770
  690MOL0     C93021   8.150   1.680   1.545  0.1524  0.0679  0.9261
  690MOL0     C93022   8.040   1.765   1.537 -0.0923 -0.2158 -0.3238
  690MOL0     O93023   7.915   1.727   1.572  0.7817  1.5886 -0.0336
  690MOL0     C93024   7.885   1.595   1.636  0.0388 -0.5020 -0.2201
  690MOL0     C93025   7.751   1.591   1.715 -0.6625 -0.0752 -0.4684
  690MOL0     C93026   7.731   1.466   1.791  0.6052 -0.0555 -0.0997
  690MOL0     C93027   7.793   1.450   1.935  1.0501  0.6896 -0.3179
  690MOL0     C93028   7.698   1.369   2.022  0.3214 -0.6188 -0.2325
  690MOL0     C93029   7.745   1.361   2.172  0.4078  0.4570  0.2018
  690MOL0     C93030   7.641   1.286   2.250 -0.2455 -0.4694 -0.5958
  690MOL0     C93031   7.689   1.268   2.386  0.5898 -0.6752 -0.7618
  690MOL0     N93032   7.575   1.211   2.459 -0.2108  0.3433  0.6820
  690MOL0     C93033   7.521   1.085   2.453  0.2559 -0.7402 -0.1161
  690MOL0     C93034   7.428   1.082   2.560  0.1111  0.4119  0.1536
  690MOL0     C93035   7.333   0.975   2.592 -0.1657  0.4934  0.2404
  690MOL0     C93036   7.197   0.989   2.527  0.0109  0.5062  0.3228
  690MOL0     C93037   7.118   0.870   2.576 -0.3341  0.8719  0.1513
  690MOL0     C93038   6.976   0.885   2.536  0.0415  0.3715 -0.4818
  690MOL0     O93039   6.913   0.980   2.622  0.1313  0.6197  0.1241
  690MOL0     C93040   6.792   1.030   2.588  0.7699  0.7136 -0.1017
  690MOL0     C93041   6.691   0.949   2.523 -0.3843 -0.3782 -0.8278
  690MOL0     C93042   6.561   1.007   2.500  0.2226 -0.9762  0.3299
  690MOL0     C93043   6.458   0.921   2.430  0.8071  0.4320 -0.1558
  690MOL0     C93044   6.529   1.141   2.539  0.3862  0.1930 -0.3441
  690MOL0     C93045   6.401   1.202   2.524 -0.5326  0.2075  0.1791
  690MOL0     O93046   6.293   1.148   2.582  0.3483 -0.3169 -0.1618
  690MOL0     C93047   6.173   1.217   2.573  0.5013 -0.3890 -0.3263
  690MOL0     C93048   6.152   1.340   2.629 -0.0490 -0.8223 -0.4957
  690MOL0     C93049   6.020   1.396   2.627  0.0124  0.4752 -0.7848
  690MOL0     C93050   5.908   1.323   2.587 -0.5625  0.5204  0.1231
  690MOL0     O93051   5.792   1.386   2.616 -0.6098 -0.2248  0.2308
  690MOL0     C93052   5.673   1.308   2.600 -0.7355 -0.0956 -0.0404
  690MOL0     C93053   5.544   1.392   2.614 -0.5826 -0.5596 -0.9091
  690MOL0     C93054   5.429   1.309   2.559  0.3170 -0.4876  0.4722
  690MOL0     C93055   5.288   1.367   2.594  0.7592 -0.6429 -0.3440
  690MOL0     C93056   5.282   1.505   2.531  0.8765  0.4142 -0.1709
  690MOL0     C93057   5.145   1.575   2.549 -0.5072 -0.9045  0.7607
  690MOL0     C93058   5.154   1.663   2.668 -0.6278  0.5070  0.0049
  690MOL0     C93059   5.014   1.716   2.713  0.4446 -0.1539  0.1219
  690MOL0    Cl93060   4.928   1.809   2.589 -0.1012  0.0052 -0.0237
  690MOL0     C93061   5.926   1.193   2.538  0.1463  0.0440 -0.5448
  690MOL0     C93062   6.057   1.143   2.537 -0.6517  0.3684 -0.3706
  690MOL0     O93063   6.405   1.314   2.472  0.1316  0.0439  0.1774
  690MOL0     C93064   6.626   1.207   2.613 -0.7581  0.3482  0.2827
  690MOL0     C93065   6.756   1.160   2.636 -0.1129  0.3021 -0.4303
  690MOL0     N93066   7.423   1.214   2.612 -0.5423  1.0988  0.0951
  690MOL0     N93067   7.514   1.284   2.554 -0.2247  0.6090  0.4022
  690MOL0     C93068   8.069   1.899   1.495  0.6792  1.0329  0.1168
  690MOL0     C93069   8.190   1.944   1.473  0.1794  0.1199  0.4870
  690MOL0     C93070   8.646   1.926   1.456 -1.3475 -0.5456  0.6549
  690MOL0     C93071   8.758   1.957   1.541  0.5261  1.1163 -0.0718
  690MOL0     C93072   8.884   1.966   1.488  0.2595 -0.1141 -0.6070
  690MOL0     C93073   8.917   1.939   1.357 -0.4591 -0.3718 -0.5647
  690MOL0     O93074   9.051   1.941   1.313  0.4811 -0.1839 -0.1516
  690MOL0     C93075   9.080   1.877   1.191 -0.3158 -0.0765 -0.8267
  690MOL0     C93076   9.232   1.848   1.178  0.2922 -0.3093 -0.0256
  690MOL0     C93077   9.282   1.775   1.306  0.3613  0.5833  1.0586
  690MOL0     C93078   9.423   1.734   1.298 -0.4132 -0.1129 -0.8826
  690MOL0     C93079   9.464   1.652   1.407 -0.3637  0.0407  0.4592
  690MOL0     C93080   9.503   1.580   1.498  0.5618 -0.7872  0.4860
  690MOL0     C93081   8.811   1.908   1.274  0.1352 -0.7261  0.1136
  690MOL0     C93082   8.677   1.910   1.316 -0.0458  0.3762 -0.6033
  690MOL0     H93083   8.365   1.668   1.491  1.7807  2.2293 -0.8807
  690MOL0     H93084   8.137   1.577   1.578 -1.7947  0.0900  0.3554
  690MOL0     H93085   7.893   1.521   1.556  0.2195  1.2460 -1.8904
  690MOL0     H93086   7.965   1.566   1.705  0.3385  0.1782 -0.2781
  690MOL0     H93087   7.748   1.677   1.782  2.4495  1.5239 -2.1441
  690MOL0     H93088   7.676   1.605   1.637 -1.7517 -0.7671  0.4384
  690MOL0     H93089   7.624   1.453   1.812  0.8314  0.4805  1.4925
  690MOL0     H93090   7.750   1.376   1.732 -2.7118 -0.7621 -0.2981
  690MOL0     H93091   7.893   1.407   1.936  0.2624 -1.2547 -0.4460
  690MOL0     H93092   7.791   1.551   1.977 -0.8235  0.1191  1.1503
  690MOL0     H93093   7.600   1.418   2.023  1.4740  1.8311 -0.5880
  690MOL0     H93094   7.682   1.271   1.975 -1.1061 -0.5133 -0.0033
  690MOL0     H93095   7.839   1.305   2.171  0.8267  0.8387  3.9479
  690MOL0     H93096   7.767   1.461   2.211 -0.7789  1.0113 -0.5153
  690MOL0     H93097   7.546   1.340   2.249  1.1431  2.2136  0.6342
  690MOL0     H93098   7.620   1.190   2.201 -4.3335  0.2305 -0.5668
  690MOL0     H93099   7.726   1.362   2.428  0.3105 -0.8743 -0.0613
  690MOL0     H93100   7.769   1.193   2.381 -0.6050 -2.2117  1.4135
  690MOL0     H93101   7.548   1.007   2.384  2.0349  0.6009 -1.0154
  690MOL0     H93102   7.370   0.875   2.568  0.2078  0.9487 -1.1892
  690MOL0     H93103   7.310   0.965   2.698 -1.8257 -1.4520 -0.2514
  690MOL0     H93104   7.192   0.995   2.418  0.0408 -0.0685  0.2838
  690MOL0     H93105   7.154   1.085   2.555  0.6100  2.4591 -4.5538
  690MOL0     H93106   7.122   0.859   2.685 -1.4466  0.8389  0.1915
  690MOL0     H93107   7.164   0.779   2.535 -2.3566 -1.1316  2.0333
  690MOL0     H93108   6.921   0.790   2.540 -1.6931  1.3812  1.8828
  690MOL0     H93109   6.979   0.915   2.431  1.4050 -3.1829 -1.6220
  690MOL0     H93110   6.716   0.850   2.487  0.7407 -0.5343  0.2986
  690MOL0     H93111   6.416   0.865   2.514  0.3662  2.0567  0.7451
  690MOL0     H93112   6.377   0.970   2.376 -2.1457 -0.4668  3.0550
  690MOL0     H93113   6.517   0.854   2.367  1.8729  1.4027 -0.2370
  690MOL0     H93114   6.236   1.404   2.650 -0.9760  0.1331  0.3968
  690MOL0     H93115   5.991   1.497   2.654 -1.3877  0.4740 -2.1423
  690MOL0     H93116   5.682   1.279   2.495 -0.1784  1.0373 -0.3193
  690MOL0     H93117   5.667   1.217   2.661  1.5198  0.2185  0.7389
  690MOL0     H93118   5.517   1.420   2.716 -1.8471  2.2490 -1.9138
  690MOL0     H93119   5.570   1.479   2.552 -0.3404 -1.0947 -1.5687
  690MOL0     H93120   5.418   1.219   2.621 -1.2108 -0.2248  0.6208
  690MOL0     H93121   5.446   1.286   2.454  0.3998  2.6508 -0.2991
  690MOL0     H93122   5.213   1.296   2.561 -0.0234 -0.0096  0.0326
  690MOL0     H93123   5.283   1.386   2.702  4.5271  1.9698 -0.4142
  690MOL0     H93124   5.292   1.491   2.423  0.3507 -0.9444 -0.0709
  690MOL0     H93125   5.365   1.568   2.566  2.3109 -0.6134 -1.5812
  690MOL0     H93126   5.148   1.650   2.469 -0.1464 -0.4100  1.2259
  690MOL0     H93127   5.055   1.515   2.531 -0.1735 -0.6034 -2.4374
  690MOL0     H93128   5.215   1.751   2.647 -0.3819  0.2547 -0.3451
  690MOL0     H93129   5.201   1.612   2.753 -1.2686  2.5586  1.6928
  690MOL0     H93130   5.021   1.779   2.801 -0.2470  1.3855 -0.8847
  690MOL0     H93131   4.950   1.632   2.742  1.3995 -0.2554  2.0924
  690MOL0     H93132   5.847   1.129   2.500  0.1493  1.4867 -3.1614
  690MOL0     H93133   6.081   1.048   2.492  0.5231 -1.4222  3.5705
  690MOL0     H93134   6.591   1.301   2.654 -1.2739 -0.1058  0.9082
  690MOL0     H93135   6.825   1.220   2.694  0.3621  0.5875 -1.2838
  690MOL0     H93136   7.995   1.976   1.480 -0.8900 -0.5570 -0.6431
  690MOL0     H93137   8.209   2.047   1.445 -1.5962  0.7753  1.5334
  690MOL0     H93138   8.730   1.992   1.639 -3.7400  2.7896 -1.6591
  690MOL0     H93139   8.967   1.998   1.551 -0.3129 -0.9890  0.6236
  690MOL0     H93140   9.028   1.782   1.175  0.4910 -0.9626  1.3961
  690MOL0     H93141   9.057   1.949   1.112  0.8954  0.2969 -0.8517
  690MOL0     H93142   9.297   1.935   1.165  0.6909 -0.2571  2.0690
  690MOL0     H93143   9.254   1.779   1.095  2.3484 -0.4435  0.5604
  690MOL0     H93144   9.218   1.687   1.303  2.3730 -0.9599 -2.1991
  690MOL0     H93145   9.267   1.850   1.384  1.8859  0.7430  1.2449
  690MOL0     H93146   9.486   1.824   1.292  0.8944 -1.0361 -1.4935
  690MOL0     H93147   9.445   1.665   1.216  2.7399 -1.9270  1.2788
  690MOL0     H93148   9.552   1.513   1.565 -0.4784  0.7116  2.8912
  690MOL0     H93149   8.830   1.897   1.168 -4.8375  1.4622 -1.2491
  690MOL0     H93150   8.593   1.898   1.249 -0.7732  0.0996  0.3329
  691MOL0     O93151   8.704   5.336   9.020 -0.8303 -0.1565  0.3075
  691MOL0     C93152   8.805   5.298   8.961 -0.0793  0.0880 -0.3548
  691MOL0     O93153   8.800   5.244   8.837  0.3725  0.6147 -0.0304
  691MOL0     C93154   8.707   5.284   8.749 -0.8201  0.0805 -0.2307
  691MOL0     C93155   8.623   5.184   8.691 -0.2245  0.5609 -1.6663
  691MOL0     C93156   8.517   5.216   8.609 -0.7919 -0.2823 -0.7072
  691MOL0     C93157   8.494   5.349   8.583 -0.3189  0.0544 -0.2303
  691MOL0     O93158   8.390   5.360   8.503  0.4831 -0.1025  0.1294
  691MOL0     C93159   8.374   5.494   8.454 -0.1236  0.0528  0.7298
  691MOL0     C93160   8.276   5.504   8.332  0.7010 -0.2577  0.4717
  691MOL0     C93161   8.137   5.451   8.370 -0.1373 -0.3664 -0.5202
  691MOL0     C93162   8.069   5.412   8.241  0.6505  0.3250  1.2639
  691MOL0     C93163   7.931   5.362   8.261 -0.1977  0.0119 -0.4744
  691MOL0     C93164   7.928   5.214   8.300  0.5876  0.5520 -0.3891
  691MOL0     C93165   7.782   5.148   8.285  0.2452  0.4914 -0.0771
  691MOL0     C93166   7.801   4.992   8.304  0.9146 -0.4972  1.1968
  691MOL0     N93167   7.674   4.925   8.306 -0.1769  0.5101 -0.1144
  691MOL0     C93168   7.555   4.959   8.373 -0.5762  0.0708 -0.8922
  691MOL0     C93169   7.461   4.868   8.335  0.5662 -0.6097 -0.0504
  691MOL0     C93170   7.332   4.862   8.408  0.5322 -0.2232  0.7141
  691MOL0     C93171   7.211   4.803   8.316 -0.3172  0.1466 -0.4903
  691MOL0     C93172   7.222   4.649   8.314  0.2627 -0.0648  0.4708
  691MOL0     C93173   7.097   4.577   8.259  0.2364 -0.7275  0.0313
  691MOL0     O93174   7.034   4.643   8.152  0.7167  0.1390 -0.0249
  691MOL0     C93175   6.899   4.643   8.137 -0.1038 -0.0227  0.1063
  691MOL0     C93176   6.820   4.528   8.173 -0.7504 -0.0993  0.5527
  691MOL0     C93177   6.685   4.546   8.175 -0.4728  0.0582 -0.4202
  691MOL0     C93178   6.610   4.426   8.228 -0.1872 -0.2305 -0.0134
  691MOL0     C93179   6.625   4.665   8.137  0.6599 -0.4730 -0.1074
  691MOL0     C93180   6.479   4.690   8.147  0.6031 -0.1381 -0.1557
  691MOL0     O93181   6.435   4.762   8.037  1.2240  0.2945  0.0208
  691MOL0     C93182   6.307   4.746   7.979  0.0819  0.4961  0.4954
  691MOL0     C93183   6.277   4.810   7.859  0.7413  0.4915  0.0434
  691MOL0     C93184   6.145   4.800   7.797 -0.3971 -0.3582  0.6513
  691MOL0     C93185   6.057   4.703   7.847  0.8896 -0.5349  0.0395
  691MOL0     O93186   5.943   4.660   7.785 -0.7768 -0.1658  0.0911
  691MOL0     C93187   5.842   4.757   7.786  0.4115 -0.3756  0.1210
  691MOL0     C93188   5.710   4.690   7.736 -0.9210  0.0687  0.2126
  691MOL0     C93189   5.662   4.562   7.804  0.3596  0.1980 -1.1040
  691MOL0     C93190   5.580   4.586   7.937  0.0115 -0.4607  0.5286
  691MOL0     C93191   5.524   4.479   8.033  0.1850  0.1927  0.3260
  691MOL0     C93192   5.396   4.410   7.991  0.4799  0.4942  0.7658
  691MOL0     C93193   5.357   4.292   8.084 -0.3763 -0.8915  0.0725
  691MOL0     C93194   5.229   4.222   8.034 -0.0973 -0.1920  0.1052
  691MOL0    Cl93195   5.086   4.319   8.083 -0.5541  0.2192 -0.2525
  691MOL0     C93196   6.102   4.626   7.948  0.1752 -0.7120 -0.2885
  691MOL0     C93197   6.219   4.650   8.023  0.0346  1.1881  0.4388
  691MOL0     O93198   6.415   4.667   8.246 -0.6251  0.3645  0.2719
  691MOL0     C93199   6.705   4.772   8.106 -0.2226 -0.3176  0.2476
  691MOL0     C93200   6.841   4.767   8.108  1.0183 -0.7503 -0.1277
  691MOL0     N93201   7.517   4.795   8.233  0.6277 -0.9266 -0.3114
  691MOL0     N93202   7.637   4.841   8.212  0.5620 -0.8985 -0.4010
  691MOL0     C93203   8.581   5.443   8.639 -0.5984 -0.6485  0.9871
  691MOL0     C93204   8.682   5.410   8.727 -0.3166  0.3227  0.7357
  691MOL0     C93205   8.933   5.308   9.037  0.8055 -0.2450  0.0239
  691MOL0     C93206   8.946   5.395   9.147 -0.0910  0.1219 -0.5793
  691MOL0     C93207   9.069   5.401   9.219  0.7142 -0.0690  0.0743
  691MOL0     C93208   9.171   5.319   9.185 -0.4443 -0.4074  0.3404
  691MOL0     O93209   9.278   5.337   9.267  0.4344  0.4604  0.4769
  691MOL0     C93210   9.403   5.264   9.240  0.1421 -0.4009 -0.2159
  691MOL0     C93211   9.508   5.326   9.332 -0.4578  1.1058 -0.2329
  691MOL0     C93212   9.633   5.235   9.327 -0.2759  0.5261  0.4882
  691MOL0     C93213   9.732   5.297   9.421 -0.7551  0.4161  0.5594
  691MOL0     C93214   9.875   5.244   9.387  0.7862  0.1226 -0.4316
  691MOL0     C93215   9.968   5.176   9.348 -0.7673 -0.3990  1.2440
  691MOL0     C93216   9.163   5.249   9.065 -0.2354  0.1719 -0.8206
  691MOL0     C93217   9.044   5.243   8.992  0.2249 -0.8563  0.7586
  691MOL0     H93218   8.661   5.083   8.708  3.7324  2.0551 -0.4538
  691MOL0     H93219   8.443   5.141   8.582 -0.2217 -1.1330  0.0208
  691MOL0     H93220   8.326   5.555   8.531 -1.2855 -0.3592  0.3557
  691MOL0     H93221   8.466   5.544   8.423 -1.0184  0.4694 -1.4556
  691MOL0     H93222   8.274   5.609   8.301  1.5631 -0.2069  0.5581
  691MOL0     H93223   8.319   5.442   8.253  0.6410 -0.9243  0.9525
  691MOL0     H93224   8.145   5.356   8.424 -0.6657  0.2703  0.7258
  691MOL0     H93225   8.078   5.519   8.433  1.2175  0.1909  0.1816
  691MOL0     H93226   8.063   5.497   8.172 -1.1866  0.7082  1.8549
  691MOL0     H93227   8.119   5.330   8.188  0.2877 -0.7586  2.5661
  691MOL0     H93228   7.865   5.421   8.326 -2.0873 -1.1061 -1.2778
  691MOL0     H93229   7.882   5.369   8.163 -0.1974  0.9571 -0.4123
  691MOL0     H93230   7.996   5.161   8.233  2.1496  1.4375  0.4556
  691MOL0     H93231   7.958   5.204   8.404 -1.0624  1.6455  0.2352
  691MOL0     H93232   7.723   5.189   8.367 -0.3715 -1.8567  0.7409
  691MOL0     H93233   7.729   5.172   8.193  0.2848  1.4265  0.1309
  691MOL0     H93234   7.862   4.969   8.392  0.0456 -4.4925  0.9229
  691MOL0     H93235   7.861   4.955   8.221  1.3904  2.8325 -0.0952
  691MOL0     H93236   7.549   5.040   8.445 -1.5549 -0.1478 -0.7160
  691MOL0     H93237   7.340   4.799   8.497  1.0896  0.5740  1.2442
  691MOL0     H93238   7.319   4.961   8.454  5.1511  0.5422  0.8568
  691MOL0     H93239   7.221   4.854   8.220  1.8939  2.0743  0.6709
  691MOL0     H93240   7.114   4.828   8.359  0.5335 -0.7517  2.1920
  691MOL0     H93241   7.224   4.616   8.418 -1.5376  1.4360  1.0409
  691MOL0     H93242   7.306   4.611   8.255 -1.2023 -3.4653  0.3319
  691MOL0     H93243   7.038   4.563   8.350 -0.3417  1.7083  0.0914
  691MOL0     H93244   7.125   4.475   8.231  4.0657  0.6592 -1.9621
  691MOL0     H93245   6.866   4.433   8.198 -0.0043 -0.4270 -1.7924
  691MOL0     H93246   6.673   4.337   8.238  0.2869  0.3165  3.1943
  691MOL0     H93247   6.582   4.446   8.332 -1.0294  0.4522 -0.3645
  691MOL0     H93248   6.517   4.403   8.176  1.2234 -2.9198 -1.5601
  691MOL0     H93249   6.349   4.880   7.817  0.3874  1.4438  0.9705
  691MOL0     H93250   6.120   4.854   7.706 -1.0066 -2.9097 -0.8024
  691MOL0     H93251   5.828   4.785   7.891 -1.3626 -3.4495  0.8167
  691MOL0     H93252   5.869   4.837   7.716 -1.0350 -2.4638 -3.0705
  691MOL0     H93253   5.635   4.769   7.747 -0.3177  0.5637  0.8440
  691MOL0     H93254   5.718   4.681   7.627 -1.3798 -1.0162  0.2585
  691MOL0     H93255   5.751   4.504   7.830  0.0435  0.0393 -0.3597
  691MOL0     H93256   5.609   4.493   7.737 -0.3458  0.2771 -0.6417
  691MOL0     H93257   5.634   4.656   8.002 -0.0980 -1.1798  1.4219
  691MOL0     H93258   5.493   4.646   7.908  2.6684  3.5928  0.0835
  691MOL0     H93259   5.507   4.521   8.133  1.0416  2.3867 -0.4005
  691MOL0     H93260   5.603   4.404   8.045  0.4833  0.4949  0.2570
  691MOL0     H93261   5.317   4.486   7.990  0.7101  0.7343  0.3907
  691MOL0     H93262   5.401   4.366   7.891  0.0914  1.4580  0.3059
  691MOL0     H93263   5.344   4.338   8.182  0.7585  2.8378 -1.3280
  691MOL0     H93264   5.432   4.213   8.095  1.2704  0.6256  0.2809
  691MOL0     H93265   5.231   4.117   8.067  1.5040  0.0241  0.8078
  691MOL0     H93266   5.227   4.228   7.925 -0.4904  0.3381  0.1388
  691MOL0     H93267   6.037   4.541   7.965  2.9005 -2.9264 -0.1623
  691MOL0     H93268   6.244   4.578   8.101  1.2382  3.9158  2.7306
  691MOL0     H93269   6.664   4.872   8.093  0.0912 -0.3910 -1.5857
  691MOL0     H93270   6.900   4.858   8.098  0.5086 -0.6738 -3.6154
  691MOL0     H93271   8.570   5.551   8.634  0.7164 -0.5224  0.1374
  691MOL0     H93272   8.748   5.474   8.784 -0.1367  0.1465  0.7264
  691MOL0     H93273   8.861   5.458   9.172  0.7779  0.6429  1.2296
  691MOL0     H93274   9.077   5.476   9.297 -2.0768  1.9440 -1.3979
  691MOL0     H93275   9.379   5.159   9.262 -1.4385  0.4134  2.3403
  691MOL0     H93276   9.429   5.288   9.137 -0.5106 -1.8395 -0.7421
  691MOL0     H93277   9.477   5.322   9.437  0.4753 -3.4198  0.0819
  691MOL0     H93278   9.527   5.430   9.303  3.8900  0.8547  1.0301
  691MOL0     H93279   9.670   5.235   9.224  2.4720  0.2148  1.4013
  691MOL0     H93280   9.604   5.131   9.349 -1.3579  0.1377 -2.3805
  691MOL0     H93281   9.691   5.261   9.515 -2.8669 -1.2356 -0.8954
  691MOL0     H93282   9.724   5.406   9.424  2.9343  0.7995  1.1396
  691MOL0     H93283  10.051   5.114   9.320 -1.8629 -2.2435  1.9031
  691MOL0     H93284   9.241   5.177   9.043 -2.1706 -2.6812  1.0364
  691MOL0     H93285   9.033   5.201   8.893  0.9178  0.2170  0.2135
  692MOL0     O93286   0.607   5.405   0.118 -0.0413 -0.1011 -0.3496
  692MOL0     C93287   0.544   5.346   0.033  0.1058 -0.2112  0.0885
  692MOL0     O93288   0.580   5.345  -0.102 -0.4580 -0.3399  0.2465
  692MOL0     C93289   0.691   5.422  -0.137  0.1250  0.3487 -0.6064
  692MOL0     C93290   0.675   5.526  -0.226 -0.5380  0.7160  0.9322
  692MOL0     C93291   0.787   5.590  -0.277 -0.5396 -0.2293  0.0944
  692MOL0     C93292   0.919   5.559  -0.229  0.6216 -0.5687  1.1278
  692MOL0     O93293   1.018   5.633  -0.282  0.0826 -1.0399  0.0444
  692MOL0     C93294   1.151   5.600  -0.243 -0.8959  0.0461  0.4409
  692MOL0     C93295   1.248   5.673  -0.321 -0.2794 -0.2839 -0.4771
  692MOL0     C93296   1.396   5.653  -0.289  0.0199  0.2107 -0.3413
  692MOL0     C93297   1.493   5.722  -0.381  0.8476  0.6051  0.3254
  692MOL0     C93298   1.629   5.652  -0.379 -0.7168 -0.1604 -0.3324
  692MOL0     C93299   1.729   5.745  -0.449  0.0212 -0.2823 -0.7069
  692MOL0     C93300   1.861   5.664  -0.473  0.4253  0.0115  0.1070
  692MOL0     C93301   1.948   5.654  -0.357 -0.1894  0.9237  0.4559
  692MOL0     N93302   2.080   5.595  -0.387 -0.2757  0.2071 -0.1486
  692MOL0     C93303   2.175   5.675  -0.445  0.2188  0.0655 -0.3248
  692MOL0     C93304   2.286   5.607  -0.425  0.2322 -0.0301 -1.2894
  692MOL0     C93305   2.426   5.658  -0.444 -0.1985 -0.1591 -0.0823
  692MOL0     C93306   2.482   5.743  -0.329  0.0374 -0.2120  0.8616
  692MOL0     C93307   2.539   5.673  -0.202  0.4348 -0.3876  0.0854
  692MOL0     C93308   2.431   5.634  -0.100  0.4395 -0.3748 -0.2947
  692MOL0     O93309   2.341   5.746  -0.083 -0.2040 -0.4674 -0.4764
  692MOL0     C93310   2.206   5.726  -0.069  0.0249  0.0874  0.6750
  692MOL0     C93311   2.116   5.838  -0.084  0.7869 -0.3926 -0.1885
  692MOL0     C93312   1.975   5.824  -0.058 -0.3704 -0.0672 -0.2408
  692MOL0     C93313   1.904   5.959  -0.051 -0.0284  0.2997  0.3658
  692MOL0     C93314   1.918   5.703  -0.021 -0.2835  0.0523 -0.0362
  692MOL0     C93315   1.774   5.692   0.012  0.1787 -0.4458  0.5060
  692MOL0     O93316   1.725   5.602   0.093  0.0965 -0.1138 -0.2016
  692MOL0     C93317   1.588   5.587   0.097  0.2190  0.4502  0.3479
  692MOL0     C93318   1.520   5.639   0.210  0.0469  0.0142  0.2143
  692MOL0     C93319   1.377   5.613   0.228  0.4068  0.4123 -1.3222
  692MOL0     C93320   1.298   5.548   0.137  0.4436  0.5379 -0.2028
  692MOL0     O93321   1.162   5.527   0.145  0.4642  0.5032  0.3630
  692MOL0     C93322   1.093   5.525   0.274  0.3134  0.5689  0.4088
  692MOL0     C93323   0.944   5.559   0.264 -0.2844 -0.2220  0.5926
  692MOL0     C93324   0.874   5.533   0.396 -0.5355  0.1900  0.7362
  692MOL0     C93325   0.740   5.595   0.405  0.8983  0.5022  0.5767
  692MOL0     C93326   0.653   5.498   0.491  0.9279 -0.4189 -0.1697
  692MOL0     C93327   0.503   5.543   0.508  0.3325 -0.1615 -0.6733
  692MOL0     C93328   0.422   5.464   0.614  0.1070  0.4049 -0.0325
  692MOL0     C93329   0.274   5.513   0.621  0.0055  0.8001  0.1462
  692MOL0    Cl93330   0.172   5.431   0.493  0.1415  0.0126  0.1516
  692MOL0     C93331   1.369   5.494   0.024  0.4124  0.2007 -0.0159
  692MOL0     C93332   1.506   5.522  -0.002 -0.5882 -0.5410 -0.7431
  692MOL0     O93333   1.704   5.770  -0.054 -0.1759 -0.0691 -0.3237
  692MOL0     C93334   2.011   5.599   0.006  0.9658  0.3214  0.6899
  692MOL0     C93335   2.148   5.604  -0.025 -0.3537 -0.9006 -0.1330
  692MOL0     N93336   2.261   5.495  -0.343  0.5996 -0.4136  0.2518
  692MOL0     N93337   2.137   5.494  -0.308  0.1851  1.1201  0.5278
  692MOL0     C93338   0.930   5.464  -0.133  1.2339 -0.2481 -1.1566
  692MOL0     C93339   0.817   5.394  -0.079 -0.7423 -0.0365  0.3836
  692MOL0     C93340   0.419   5.269   0.069 -0.0538 -0.0154  0.4004
  692MOL0     C93341   0.376   5.270   0.207 -0.1695  0.1816  0.2401
  692MOL0     C93342   0.261   5.202   0.239 -0.1273 -0.0461  0.1800
  692MOL0     C93343   0.170   5.150   0.152 -0.4154 -1.1821 -0.0787
  692MOL0     O93344   0.054   5.080   0.184 -0.3297 -0.4903  0.6820
  692MOL0     C93345  -0.022   5.093   0.300 -0.4573  0.1226 -0.2310
  692MOL0     C93346  -0.129   5.201   0.270  0.3876 -0.0064  0.0703
  692MOL0     C93347  -0.238   5.223   0.371 -0.1811 -0.3266 -0.3714
  692MOL0     C93348  -0.222   5.358   0.456 -0.6684  0.2275 -0.2118
  692MOL0     C93349  -0.288   5.467   0.387 -0.1650 -0.9197  0.1430
  692MOL0     C93350  -0.347   5.555   0.322 -0.3441  0.1905 -0.3970
  692MOL0     C93351   0.202   5.174   0.019  0.3953 -0.2052  0.4112
  692MOL0     C93352   0.319   5.234  -0.023  0.1658 -0.3149 -0.4859
  692MOL0     H93353   0.575   5.546  -0.265 -1.0756 -0.4970  1.6473
  692MOL0     H93354   0.775   5.669  -0.351 -0.0588 -1.3084 -1.1817
  692MOL0     H93355   1.168   5.628  -0.138 -1.0516 -1.9331  1.0513
  692MOL0     H93356   1.166   5.494  -0.265 -0.0887 -0.0691  1.4814
  692MOL0     H93357   1.225   5.647  -0.425  1.0796  0.6485 -1.0396
  692MOL0     H93358   1.207   5.775  -0.313 -1.4724 -0.8317  0.9389
  692MOL0     H93359   1.425   5.679  -0.187  0.9317  1.9775 -0.9928
  692MOL0     H93360   1.424   5.548  -0.301  0.0245  0.0080  1.2701
  692MOL0     H93361   1.464   5.721  -0.486  3.1880  0.9460 -0.3953
  692MOL0     H93362   1.504   5.825  -0.344  4.7903 -0.1453  1.7183
  692MOL0     H93363   1.672   5.637  -0.279  3.1864 -0.2176 -1.8528
  692MOL0     H93364   1.616   5.558  -0.432  0.6000 -0.4508 -0.1814
  692MOL0     H93365   1.704   5.781  -0.549  0.7490  0.9887 -0.4538
  692MOL0     H93366   1.748   5.831  -0.384 -3.7584 -0.8877  1.5360
  692MOL0     H93367   1.830   5.564  -0.503 -0.5281  1.2100 -3.4123
  692MOL0     H93368   1.906   5.712  -0.561 -2.9941  1.6551 -0.9314
  692MOL0     H93369   1.898   5.596  -0.279  0.3768 -0.6316 -0.2779
  692MOL0     H93370   1.968   5.755  -0.322  0.4613  1.0672 -0.2769
  692MOL0     H93371   2.163   5.767  -0.501 -1.2986 -2.1236 -3.9355
  692MOL0     H93372   2.481   5.564  -0.440 -3.4363 -2.1682  0.7177
  692MOL0     H93373   2.429   5.695  -0.547  1.3287 -0.2435 -0.0947
  692MOL0     H93374   2.408   5.821  -0.309  1.2661  1.3845 -0.4702
  692MOL0     H93375   2.572   5.791  -0.370 -0.2639  1.5536  2.1569
  692MOL0     H93376   2.616   5.731  -0.150  0.7072 -0.7245  0.0588
  692MOL0     H93377   2.587   5.580  -0.231 -1.9805 -1.5988 -0.2670
  692MOL0     H93378   2.471   5.599  -0.004 -1.9444  1.3220  1.4127
  692MOL0     H93379   2.381   5.551  -0.150 -0.1157 -0.2399  0.0349
  692MOL0     H93380   2.160   5.932  -0.116 -0.1983 -0.5927 -2.3399
  692MOL0     H93381   1.981   6.027  -0.012  0.2945  0.1129  0.0688
  692MOL0     H93382   1.875   5.992  -0.151  1.1293  0.0275 -0.0855
  692MOL0     H93383   1.826   5.949   0.025 -1.0474  2.5290 -0.2932
  692MOL0     H93384   1.576   5.691   0.287 -1.0898  1.3477  0.1836
  692MOL0     H93385   1.337   5.637   0.326  0.5664 -1.4988 -0.7619
  692MOL0     H93386   1.107   5.428   0.323  0.1448  0.3937  0.1099
  692MOL0     H93387   1.139   5.600   0.340 -1.0567 -0.5937  2.8245
  692MOL0     H93388   0.925   5.661   0.230  1.6986  0.3431  1.0151
  692MOL0     H93389   0.905   5.488   0.191 -1.0086  0.0070  0.7558
  692MOL0     H93390   0.936   5.585   0.471  2.5070 -1.0461 -0.7600
  692MOL0     H93391   0.870   5.426   0.419 -2.4626  0.0126 -0.2429
  692MOL0     H93392   0.743   5.691   0.456 -1.5736  0.7524  0.3501
  692MOL0     H93393   0.687   5.602   0.310 -0.4403  1.4936  1.3637
  692MOL0     H93394   0.695   5.504   0.591 -0.5737 -1.6068  0.5863
  692MOL0     H93395   0.646   5.397   0.449  0.4420  0.2007 -1.6416
  692MOL0     H93396   0.507   5.646   0.544 -1.1574 -0.0801 -0.6580
  692MOL0     H93397   0.443   5.536   0.416 -1.8694  1.3346  0.5424
  692MOL0     H93398   0.469   5.476   0.712 -3.2229 -2.4795  2.1400
  692MOL0     H93399   0.428   5.358   0.586  1.4567  1.1281 -2.8264
  692MOL0     H93400   0.278   5.622   0.610  0.8509  0.5964 -1.9769
  692MOL0     H93401   0.234   5.499   0.722  0.8121 -1.5895  0.1840
  692MOL0     H93402   1.310   5.430  -0.041  0.5403 -0.9054  0.9312
  692MOL0     H93403   1.557   5.496  -0.094 -0.9022 -2.3779 -0.4431
  692MOL0     H93404   1.973   5.514   0.061  1.5354  1.2157  2.5768
  692MOL0     H93405   2.215   5.520  -0.010 -1.2550 -1.2121  2.6098
  692MOL0     H93406   1.028   5.444  -0.092  0.4148  0.0918  1.1109
  692MOL0     H93407   0.831   5.303  -0.022 -1.2627 -1.1545 -1.2125
  692MOL0     H93408   0.424   5.314   0.294  0.4629 -0.4959  0.2485
  692MOL0     H93409   0.240   5.187   0.344 -0.7268  0.3222  0.1178
  692MOL0     H93410  -0.069   4.994   0.304  1.5820 -1.0426 -2.1513
  692MOL0     H93411   0.032   5.121   0.391 -1.5762  0.1978  0.4156
  692MOL0     H93412  -0.185   5.175   0.179 -0.0043 -2.7606  1.0004
  692MOL0     H93413  -0.071   5.292   0.251  4.2421 -1.8375  1.9226
  692MOL0     H93414  -0.247   5.135   0.435 -0.6586  1.0176  1.4965
  692MOL0     H93415  -0.328   5.221   0.308  0.8214 -1.2247 -1.8387
  692MOL0     H93416  -0.117   5.377   0.478 -0.2711  1.7053 -2.8863
  692MOL0     H93417  -0.279   5.347   0.549  2.1964  2.4836  2.0054
  692MOL0     H93418  -0.406   5.626   0.267 -4.3305 -2.9731 -0.7448
  692MOL0     H93419   0.121   5.148  -0.049 -1.1115  0.0109  2.0588
  692MOL0     H93420   0.340   5.245  -0.129 -1.7769  1.4538 -0.7658
  693MOL0     O93421   5.808   0.618   1.892 -0.4599 -0.3010  1.4649
  693MOL0     C93422   5.908   0.564   1.832  0.4516 -0.2672 -0.6520
  693MOL0     O93423   5.900   0.445   1.773 -0.1440  0.1489 -0.5393
  693MOL0     C93424   5.784   0.378   1.772  0.6719  0.0280  0.7904
  693MOL0     C93425   5.669   0.428   1.704  0.1085 -0.2926 -0.0822
  693MOL0     C93426   5.543   0.362   1.714 -0.0688 -0.7781  0.2248
  693MOL0     C93427   5.527   0.246   1.786 -0.2799  0.4238  0.1958
  693MOL0     O93428   5.405   0.178   1.792  0.1607 -0.1279  0.6894
  693MOL0     C93429   5.362   0.156   1.653  0.0144 -0.2680 -0.1175
  693MOL0     C93430   5.246   0.062   1.670 -0.3436  0.1780  0.1737
  693MOL0     C93431   5.278  -0.068   1.746  0.1901 -0.6837 -0.3515
  693MOL0     C93432   5.164  -0.109   1.839  0.0040  0.2781  0.6096
  693MOL0     C93433   5.174  -0.253   1.895 -0.1627  0.0462  0.0939
  693MOL0     C93434   5.085  -0.276   2.013 -0.0312 -0.1154 -0.4316
  693MOL0     C93435   5.084  -0.416   2.069 -0.8167  0.0561  0.5299
  693MOL0     C93436   5.036  -0.523   1.973 -0.1455 -0.0797 -0.4876
  693MOL0     N93437   4.895  -0.482   1.920  0.9679  0.3471 -0.2885
  693MOL0     C93438   4.786  -0.441   1.990 -0.2962 -0.7230  0.3149
  693MOL0     C93439   4.690  -0.414   1.893  0.0820  0.1457  0.4491
  693MOL0     C93440   4.552  -0.352   1.915  0.3620 -0.5379  0.1889
  693MOL0     C93441   4.455  -0.448   1.994  0.5011  0.1353  0.2042
  693MOL0     C93442   4.343  -0.517   1.905 -0.7046  0.1600 -0.1870
  693MOL0     C93443   4.234  -0.427   1.842 -0.2661 -0.1861 -0.3527
  693MOL0     O93444   4.164  -0.349   1.945 -0.2528  0.2441  0.0823
  693MOL0     C93445   4.047  -0.283   1.922  0.6566 -0.5849 -0.0481
  693MOL0     C93446   3.988  -0.253   1.797 -0.5171  0.4505  0.0721
  693MOL0     C93447   3.873  -0.173   1.787  0.3292 -0.8620 -1.1510
  693MOL0     C93448   3.817  -0.141   1.657 -0.2926 -0.9036  0.7877
  693MOL0     C93449   3.809  -0.131   1.915 -0.5549 -0.0387 -0.1069
  693MOL0     C93450   3.674  -0.075   1.916 -0.2763 -0.2996  0.2944
  693MOL0     O93451   3.587  -0.093   1.812 -1.0662  0.1447  0.2163
  693MOL0     C93452   3.452  -0.067   1.797  0.2578 -1.2204 -0.8643
  693MOL0     C93453   3.372   0.001   1.895 -0.1625  0.1401 -0.3842
  693MOL0     C93454   3.240   0.023   1.880 -0.2733  0.9218  0.1441
  693MOL0     C93455   3.171  -0.027   1.766 -0.4224 -0.4955 -0.3727
  693MOL0     O93456   3.038  -0.021   1.728  0.1259 -0.4177 -0.3473
  693MOL0     C93457   2.935   0.011   1.828 -0.1444 -0.4808  0.4369
  693MOL0     C93458   2.797   0.028   1.756 -0.0499 -0.0576 -0.0247
  693MOL0     C93459   2.694   0.086   1.851 -0.2775  0.4610  0.1352
  693MOL0     C93460   2.553   0.082   1.791 -0.1144  0.0427 -0.9035
  693MOL0     C93461   2.441   0.145   1.879  0.1633 -0.4319 -0.1600
  693MOL0     C93462   2.304   0.145   1.807 -0.6899 -0.5241  0.1997
  693MOL0     C93463   2.211   0.245   1.867  0.3331 -0.5356  0.6533
  693MOL0     C93464   2.069   0.230   1.817  0.4677 -0.5384  0.4855
  693MOL0    Cl93465   2.045   0.252   1.637 -0.0863 -0.3926  0.4474
  693MOL0     C93466   3.259  -0.081   1.665  0.2306  0.0012 -0.3976
  693MOL0     C93467   3.392  -0.098   1.680  0.3510  1.2048 -0.5494
  693MOL0     O93468   3.632  -0.027   2.022 -0.7146 -0.1293  0.4534
  693MOL0     C93469   3.863  -0.177   2.032  0.4287 -0.3541 -0.3239
  693MOL0     C93470   3.989  -0.231   2.036 -0.4477 -0.4345  0.2322
  693MOL0     N93471   4.739  -0.463   1.770 -0.0517  0.0864 -1.0280
  693MOL0     N93472   4.861  -0.508   1.790  0.6494  0.1885 -0.2228
  693MOL0     C93473   5.642   0.187   1.845 -0.2710 -0.0577  0.0117
  693MOL0     C93474   5.768   0.260   1.843  0.0632  0.9418 -0.1126
  693MOL0     C93475   6.032   0.642   1.830 -0.0293 -0.5290  0.1859
  693MOL0     C93476   6.041   0.750   1.926 -0.3967  0.0725 -0.4939
  693MOL0     C93477   6.159   0.826   1.931 -0.0309 -0.5846  1.1610
  693MOL0     C93478   6.278   0.781   1.863  1.0143  0.1668 -0.5895
  693MOL0     O93479   6.403   0.839   1.870  0.4834  0.2793 -0.7430
  693MOL0     C93480   6.435   0.956   1.955  0.2592  0.5702  0.7501
  693MOL0     C93481   6.581   0.996   1.955  0.6266 -0.1463 -0.1689
  693MOL0     C93482   6.594   1.127   2.030  0.5335 -0.4180 -0.8046
  693MOL0     C93483   6.731   1.192   2.018 -0.2704 -0.1778  0.6345
  693MOL0     C93484   6.839   1.110   2.080 -0.4354 -0.4235 -0.1832
  693MOL0     C93485   6.927   1.038   2.123 -0.8868 -0.6507 -0.8267
  693MOL0     C93486   6.263   0.676   1.780  0.5338  0.5985  1.1207
  693MOL0     C93487   6.144   0.610   1.753  0.1625  0.2950 -0.0004
  693MOL0     H93488   5.677   0.530   1.668  0.5621 -0.2027  0.2615
  693MOL0     H93489   5.465   0.418   1.663  0.3659 -0.1865  0.1928
  693MOL0     H93490   5.316   0.245   1.608  0.4383 -0.0970 -0.2175
  693MOL0     H93491   5.447   0.131   1.590  0.8016 -2.4764  1.7052
  693MOL0     H93492   5.167   0.120   1.719 -0.8501 -0.5733  0.2653
  693MOL0     H93493   5.204   0.045   1.571 -0.4118 -1.5792  0.4775
  693MOL0     H93494   5.296  -0.151   1.677 -2.0040 -0.9818 -0.6530
  693MOL0     H93495   5.364  -0.064   1.812 -0.9833 -1.8012  1.3379
  693MOL0     H93496   5.163  -0.028   1.912 -1.2619  1.1170 -0.2852
  693MOL0     H93497   5.068  -0.110   1.785 -0.7927 -1.3405  1.9269
  693MOL0     H93498   5.129  -0.323   1.824 -2.5660  2.8236 -1.3343
  693MOL0     H93499   5.274  -0.287   1.923 -1.2869 -2.8605  0.9357
  693MOL0     H93500   5.121  -0.204   2.087 -2.0132 -1.6547  2.2227
  693MOL0     H93501   4.987  -0.252   1.971 -0.8471 -3.9692 -1.0694
  693MOL0     H93502   5.186  -0.442   2.099 -0.1993 -0.5493 -1.8814
  693MOL0     H93503   5.021  -0.410   2.159 -0.3520 -0.0824  0.8653
  693MOL0     H93504   5.017  -0.615   2.029  0.5756 -2.3319 -3.7038
  693MOL0     H93505   5.101  -0.551   1.890  1.1501 -0.9369  0.7726
  693MOL0     H93506   4.768  -0.418   2.095  0.6948 -1.0849  0.5719
  693MOL0     H93507   4.572  -0.268   1.982  1.0806  1.1252 -1.9753
  693MOL0     H93508   4.492  -0.315   1.831  0.4812  0.4764  0.5339
  693MOL0     H93509   4.409  -0.393   2.076 -0.4144  1.0150 -0.8578
  693MOL0     H93510   4.504  -0.534   2.040  0.2529  0.7100  1.5741
  693MOL0     H93511   4.289  -0.594   1.961  2.9554 -1.3492  1.6427
  693MOL0     H93512   4.387  -0.571   1.821 -2.5950 -1.2923 -0.2876
  693MOL0     H93513   4.161  -0.489   1.790 -1.4039  1.4209 -0.7671
  693MOL0     H93514   4.279  -0.355   1.772 -0.9044  0.4482 -0.1252
  693MOL0     H93515   4.046  -0.283   1.710 -0.6998  0.5541 -0.0842
  693MOL0     H93516   3.888  -0.158   1.575 -0.2287 -0.1590  0.6787
  693MOL0     H93517   3.721  -0.192   1.642 -2.0296  1.5671  2.7288
  693MOL0     H93518   3.807  -0.034   1.638  4.3093 -0.6258 -1.2461
  693MOL0     H93519   3.406   0.031   1.994 -1.2684 -2.5675  0.9225
  693MOL0     H93520   3.172   0.077   1.946 -1.4957 -0.6688  0.2502
  693MOL0     H93521   2.925  -0.078   1.891  1.9344 -1.7527 -0.9136
  693MOL0     H93522   2.963   0.101   1.883  2.4641 -0.6297 -0.5034
  693MOL0     H93523   2.796   0.087   1.664 -1.6052 -1.8514 -1.2211
  693MOL0     H93524   2.756  -0.069   1.728 -1.0480  0.4175 -0.2256
  693MOL0     H93525   2.722   0.189   1.873 -1.0582  0.7777 -0.3346
  693MOL0     H93526   2.685   0.017   1.935 -1.7585 -2.3209 -2.1111
  693MOL0     H93527   2.555   0.148   1.704  2.9139  4.7359  2.2489
  693MOL0     H93528   2.519  -0.018   1.763 -0.7362  0.1967 -0.7167
  693MOL0     H93529   2.471   0.250   1.890 -0.2606 -0.3767  0.5158
  693MOL0     H93530   2.426   0.095   1.975 -1.5180  2.2429  1.0833
  693MOL0     H93531   2.303   0.171   1.701 -0.2158  0.2067  0.3689
  693MOL0     H93532   2.260   0.045   1.817 -2.7094 -0.1497 -3.2124
  693MOL0     H93533   2.244   0.348   1.852 -0.6193 -0.6768 -3.9724
  693MOL0     H93534   2.215   0.223   1.974  3.8535  1.5351  1.1166
  693MOL0     H93535   2.004   0.302   1.867  2.0204  0.0872  1.6584
  693MOL0     H93536   2.033   0.128   1.836 -0.2408 -0.9782 -2.6461
  693MOL0     H93537   3.217  -0.119   1.572  0.0947 -0.4272 -0.1624
  693MOL0     H93538   3.447  -0.156   1.607 -0.5508 -0.9277  0.3960
  693MOL0     H93539   3.804  -0.174   2.123  2.0287  2.1896  0.7210
  693MOL0     H93540   4.032  -0.259   2.132  2.8551  2.2234 -0.2536
  693MOL0     H93541   5.637   0.100   1.909  0.4717 -0.3629 -0.3323
  693MOL0     H93542   5.853   0.218   1.896  0.6376  1.3403 -0.6987
  693MOL0     H93543   5.954   0.790   1.978 -0.0380 -1.8917  1.8060
  693MOL0     H93544   6.169   0.911   1.997 -1.1030 -0.0387  0.6410
  693MOL0     H93545   6.366   1.034   1.921 -0.1956  0.4334  1.3493
  693MOL0     H93546   6.410   0.946   2.061 -0.6717 -0.1784  0.4684
  693MOL0     H93547   6.623   1.010   1.855 -0.4672  0.5404 -0.5571
  693MOL0     H93548   6.635   0.921   2.012 -0.4213  1.1100  2.6405
  693MOL0     H93549   6.585   1.099   2.135  1.0426  0.4823 -0.5076
  693MOL0     H93550   6.522   1.203   1.995 -0.5582 -1.0186  0.0750
  693MOL0     H93551   6.721   1.289   2.067 -0.0506 -0.3335  0.9940
  693MOL0     H93552   6.750   1.216   1.913 -0.2260  1.8635  1.0604
  693MOL0     H93553   7.016   0.991   2.160 -1.7615 -2.5491 -1.0236
  693MOL0     H93554   6.352   0.658   1.720 -0.3738  0.5982 -0.2734
  693MOL0     H93555   6.140   0.533   1.676 -0.6168  0.4280 -0.0986
  694MOL0     O93556   9.900   9.150   0.631 -0.4331 -0.0618  0.5946
  694MOL0     C93557   9.913   9.044   0.686 -0.2753  0.3005 -0.3376
  694MOL0     O93558   9.816   8.964   0.752 -0.0060 -0.3603 -0.0870
  694MOL0     C93559   9.679   8.959   0.733 -0.7961 -0.4421 -0.1011
  694MOL0     C93560   9.617   8.851   0.787  0.3169 -0.4542  0.9171
  694MOL0     C93561   9.483   8.829   0.764  0.8454  0.2866 -0.3378
  694MOL0     C93562   9.408   8.920   0.685  0.4530  0.4994  0.1228
  694MOL0     O93563   9.276   8.897   0.662  0.0954  0.3382 -0.2439
  694MOL0     C93564   9.218   8.962   0.549  0.8561 -0.3991 -0.0347
  694MOL0     C93565   9.115   8.860   0.485  0.1212  0.1430 -0.7425
  694MOL0     C93566   8.990   8.847   0.574  0.1125 -0.2780  0.8188
  694MOL0     C93567   8.896   8.744   0.514  0.0488  0.0244  0.2105
  694MOL0     C93568   8.784   8.700   0.614  0.3160 -0.3690 -0.0040
  694MOL0     C93569   8.690   8.812   0.655  0.2026  0.1821 -0.0722
  694MOL0     C93570   8.565   8.768   0.745 -0.5927 -0.9318  0.7543
  694MOL0     C93571   8.481   8.649   0.696  0.1306 -1.0129 -0.1454
  694MOL0     N93572   8.356   8.651   0.770  0.1036  0.2143 -0.4569
  694MOL0     C93573   8.241   8.717   0.754  1.2565 -0.2075  0.6225
  694MOL0     C93574   8.143   8.652   0.819 -0.2980 -0.5079 -0.3660
  694MOL0     C93575   7.998   8.691   0.823  1.0029 -0.3916  0.1945
  694MOL0     C93576   7.952   8.684   0.679  0.3473 -0.1038 -0.0174
  694MOL0     C93577   7.797   8.678   0.668 -0.3654 -0.3957  0.1840
  694MOL0     C93578   7.734   8.807   0.699 -0.0658  0.4054 -0.3925
  694MOL0     O93579   7.591   8.758   0.713 -0.2966  0.4688  0.1982
  694MOL0     C93580   7.501   8.782   0.615 -0.3066 -0.5425 -0.1813
  694MOL0     C93581   7.372   8.792   0.646  0.1921 -0.5167 -0.5357
  694MOL0     C93582   7.271   8.794   0.546  0.3079  0.3010 -0.3466
  694MOL0     C93583   7.125   8.779   0.599 -0.5026  0.7911  0.8786
  694MOL0     C93584   7.302   8.814   0.404 -0.0739  0.2263 -0.5716
  694MOL0     C93585   7.200   8.820   0.294  0.1678 -0.2084  0.4491
  694MOL0     O93586   7.066   8.822   0.322 -0.5472  0.1044  0.1099
  694MOL0     C93587   6.970   8.843   0.221  1.1625 -0.7641  0.7969
  694MOL0     C93588   6.990   8.903   0.096 -0.1931  0.1067 -0.2419
  694MOL0     C93589   6.881   8.904   0.004 -0.3820  0.0635 -0.1002
  694MOL0     C93590   6.753   8.861   0.047 -0.2836 -0.5222 -0.7070
  694MOL0     O93591   6.649   8.889  -0.042 -0.2329 -0.1968 -0.7814
  694MOL0     C93592   6.521   8.844  -0.005 -0.1783  0.2726 -0.9020
  694MOL0     C93593   6.423   8.895  -0.103  0.5151 -0.0396 -0.4427
  694MOL0     C93594   6.279   8.863  -0.054  0.5092  0.1069  0.1737
  694MOL0     C93595   6.170   8.915  -0.152 -0.1954  0.4112  0.0431
  694MOL0     C93596   6.035   8.880  -0.089 -0.2964  0.2502  1.0975
  694MOL0     C93597   5.933   8.900  -0.195 -0.4530 -0.3002 -0.6068
  694MOL0     C93598   5.786   8.871  -0.139  0.6376 -0.6328  0.5129
  694MOL0     C93599   5.688   8.921  -0.245  0.3506  0.4410  0.3201
  694MOL0    Cl93600   5.691   8.829  -0.410  0.4032 -0.1791 -1.0499
  694MOL0     C93601   6.743   8.801   0.172  0.2407  0.7297  0.8641
  694MOL0     C93602   6.849   8.791   0.259 -0.5361  0.2959  0.9125
  694MOL0     O93603   7.247   8.816   0.183 -0.0830 -0.4483 -0.2445
  694MOL0     C93604   7.438   8.821   0.371 -0.2260  0.5171 -0.0863
  694MOL0     C93605   7.537   8.806   0.472 -0.9693  0.1091 -0.2651
  694MOL0     N93606   8.209   8.560   0.906 -0.2552  0.7670  0.1258
  694MOL0     N93607   8.338   8.572   0.879  0.0398 -0.4600 -0.0073
  694MOL0     C93608   9.473   9.039   0.636  0.6842  0.3873 -0.1258
  694MOL0     C93609   9.607   9.054   0.657  1.4610  0.3537 -0.3818
  694MOL0     C93610  10.049   8.977   0.679 -0.1000 -0.2760 -0.5957
  694MOL0     C93611  10.166   9.044   0.653  0.2258  0.9907 -0.9387
  694MOL0     C93612  10.281   8.974   0.656 -0.3701 -0.0974  0.1314
  694MOL0     C93613  10.290   8.844   0.680 -0.7509 -0.0701 -0.3616
  694MOL0     O93614  10.404   8.772   0.687 -0.2836  0.1423 -0.6766
  694MOL0     C93615  10.454   8.713   0.570 -0.1160 -0.0482 -0.3187
  694MOL0     C93616  10.477   8.567   0.601  0.4214 -0.5524 -0.2780
  694MOL0     C93617  10.581   8.552   0.717 -0.1537 -0.0523  0.6008
  694MOL0     C93618  10.569   8.425   0.795  0.0927  0.7976  0.2994
  694MOL0     C93619  10.467   8.420   0.897 -0.0151  0.4687  0.7766
  694MOL0     C93620  10.378   8.421   0.971  0.6344  0.3348 -1.4403
  694MOL0     C93621  10.169   8.776   0.702  0.7358  0.7021  0.5428
  694MOL0     C93622  10.052   8.845   0.706  0.2422  0.1344 -0.5534
  694MOL0     H93623   9.673   8.787   0.854  0.0413 -2.1310 -0.4027
  694MOL0     H93624   9.435   8.753   0.825 -2.4494  2.1501 -0.3636
  694MOL0     H93625   9.165   9.050   0.587  0.1607 -0.7353 -0.2147
  694MOL0     H93626   9.293   8.995   0.476  0.5328  1.6649  0.5018
  694MOL0     H93627   9.091   8.900   0.387  1.5170 -0.4347 -1.3519
  694MOL0     H93628   9.168   8.766   0.467 -0.2512 -0.0459 -0.8665
  694MOL0     H93629   9.022   8.818   0.675  1.3192  0.2726  0.6167
  694MOL0     H93630   8.940   8.942   0.591 -0.2501 -0.9722  4.5394
  694MOL0     H93631   8.851   8.801   0.431  0.1879  0.2406  0.2830
  694MOL0     H93632   8.958   8.667   0.469  0.5350  0.6360 -0.1883
  694MOL0     H93633   8.722   8.625   0.564 -0.4966 -0.3003  0.8777
  694MOL0     H93634   8.826   8.651   0.703 -0.4114 -1.9597 -0.4897
  694MOL0     H93635   8.742   8.899   0.695 -0.6346  1.1449 -1.0173
  694MOL0     H93636   8.642   8.868   0.574 -2.7220  0.5919  1.8081
  694MOL0     H93637   8.601   8.745   0.845  0.0427 -1.4904  0.4094
  694MOL0     H93638   8.508   8.861   0.748  0.7758  0.0218 -0.9308
  694MOL0     H93639   8.541   8.558   0.701  1.1826 -0.3909 -1.0428
  694MOL0     H93640   8.461   8.654   0.589  0.3160 -0.5410 -0.1615
  694MOL0     H93641   8.227   8.796   0.680  1.3209 -0.5844  0.2080
  694MOL0     H93642   7.936   8.622   0.880 -0.5841  0.7711 -0.0683
  694MOL0     H93643   7.981   8.793   0.859 -1.5728 -0.4684 -0.6545
  694MOL0     H93644   7.980   8.591   0.628  2.9246  1.4365 -1.6365
  694MOL0     H93645   7.995   8.759   0.612 -1.5966  1.7010  0.6368
  694MOL0     H93646   7.753   8.614   0.745  2.7188 -2.9440  0.0237
  694MOL0     H93647   7.770   8.651   0.565  1.1165 -1.6007  0.0732
  694MOL0     H93648   7.760   8.872   0.615  2.6650 -0.5585 -0.3963
  694MOL0     H93649   7.759   8.860   0.791 -1.9989  1.4207 -0.3995
  694MOL0     H93650   7.347   8.800   0.751  3.2476  0.7598  0.2118
  694MOL0     H93651   7.076   8.701   0.541  1.6899 -0.5218  0.6770
  694MOL0     H93652   7.131   8.758   0.707  0.5188  2.2988  1.1552
  694MOL0     H93653   7.076   8.877   0.589 -1.3242  0.3292  0.3441
  694MOL0     H93654   7.089   8.934   0.064  1.4887 -2.3988  2.1049
  694MOL0     H93655   6.882   8.945  -0.097  0.2844  0.7638  0.1794
  694MOL0     H93656   6.511   8.737   0.011  2.9535 -0.0462 -0.6091
  694MOL0     H93657   6.493   8.888   0.092  0.7048 -1.6735  0.2956
  694MOL0     H93658   6.421   9.004  -0.105  0.9070  0.1928  3.6383
  694MOL0     H93659   6.435   8.855  -0.204 -2.0122  0.2241 -0.9293
  694MOL0     H93660   6.261   8.886   0.051  2.1068  2.0136  0.0952
  694MOL0     H93661   6.268   8.755  -0.042 -1.9998  0.1347 -1.1811
  694MOL0     H93662   6.180   9.023  -0.161  1.3769  0.4432  1.5577
  694MOL0     H93663   6.177   8.865  -0.249 -0.5396  1.0916 -0.3359
  694MOL0     H93664   6.010   8.941  -0.002 -2.6945  1.5020 -0.3683
  694MOL0     H93665   6.029   8.777  -0.051 -3.1577 -0.4287 -0.8495
  694MOL0     H93666   5.942   8.998  -0.243 -0.9180 -0.5251 -1.1654
  694MOL0     H93667   5.958   8.810  -0.252  1.2287 -0.7580  0.7591
  694MOL0     H93668   5.766   8.923  -0.045  0.6766 -0.0754  0.2173
  694MOL0     H93669   5.770   8.765  -0.121  0.9846 -0.9875 -1.1421
  694MOL0     H93670   5.710   9.027  -0.264 -1.4262  0.5630 -1.3631
  694MOL0     H93671   5.588   8.914  -0.202  0.1570 -2.8820 -0.4084
  694MOL0     H93672   6.646   8.762   0.202  0.8488 -0.2516  1.5867
  694MOL0     H93673   6.838   8.748   0.359 -0.0159 -2.5723 -0.1761
  694MOL0     H93674   7.452   8.816   0.264 -0.8373 -2.5086 -0.1240
  694MOL0     H93675   7.640   8.821   0.440 -0.3822 -0.0612  1.4370
  694MOL0     H93676   9.426   9.121   0.583  0.7529  0.3213 -0.2873
  694MOL0     H93677   9.664   9.136   0.613  1.0708  2.6089  2.9416
  694MOL0     H93678  10.161   9.151   0.635 -1.8102  0.9426 -0.8407
  694MOL0     H93679  10.376   9.023   0.639  0.7189 -2.8016 -2.5027
  694MOL0     H93680  10.391   8.735   0.482 -0.5925  1.3144  0.3303
  694MOL0     H93681  10.550   8.765   0.558  0.5846 -0.9651  1.0798
  694MOL0     H93682  10.506   8.516   0.509  0.5226 -0.1817 -0.4528
  694MOL0     H93683  10.373   8.535   0.617 -0.0386 -1.2348 -3.8459
  694MOL0     H93684  10.554   8.620   0.799  0.4899 -1.1006  1.7167
  694MOL0     H93685  10.682   8.572   0.680  0.5794 -0.7797  2.0976
  694MOL0     H93686  10.664   8.393   0.839  0.9432  1.5380 -0.9651
  694MOL0     H93687  10.555   8.340   0.727  0.1865  1.7409 -0.9245
  694MOL0     H93688  10.303   8.434   1.046  0.4670 -0.7126 -1.4086
  694MOL0     H93689  10.181   8.668   0.701  3.4207  0.8498 -2.9440
  694MOL0     H93690   9.963   8.783   0.707 -2.7881  4.0787 -0.3381
  695MOL0     O93691   5.596   4.103   0.709  0.1367 -0.1808 -0.0969
  695MOL0     C93692   5.627   4.217   0.681  0.5193 -0.4400  0.1432
  695MOL0     O93693   5.560   4.327   0.722 -0.6127 -0.1456  0.0208
  695MOL0     C93694   5.422   4.322   0.752 -0.6976 -0.3148  0.9499
  695MOL0     C93695   5.351   4.412   0.680  0.5050 -0.0332  0.2354
  695MOL0     C93696   5.212   4.417   0.680 -0.4980 -0.0360 -0.9310
  695MOL0     C93697   5.137   4.324   0.757 -0.5683  0.5440  0.6960
  695MOL0     O93698   5.007   4.335   0.782 -0.1487  0.2091 -0.4293
  695MOL0     C93699   4.930   4.440   0.724  0.2644  0.0306  0.7002
  695MOL0     C93700   4.775   4.418   0.756 -0.1540 -0.0705  0.3924
  695MOL0     C93701   4.744   4.434   0.901 -0.1328 -0.0332 -0.4449
  695MOL0     C93702   4.741   4.584   0.958 -0.4377 -0.6669 -0.4577
  695MOL0     C93703   4.619   4.621   1.045  0.1017  0.1630 -0.4422
  695MOL0     C93704   4.494   4.638   0.952  0.9889  0.4989 -0.4192
  695MOL0     C93705   4.370   4.666   1.036  0.0797 -0.2286 -0.2554
  695MOL0     C93706   4.256   4.739   0.959 -0.2531 -0.0001 -0.2406
  695MOL0     N93707   4.138   4.771   1.041 -0.0293 -0.7009 -0.1530
  695MOL0     C93708   4.130   4.877   1.129  0.0250 -0.1720 -0.1220
  695MOL0     C93709   4.027   4.852   1.208  0.6249 -0.0861 -0.2804
  695MOL0     C93710   3.983   4.946   1.312 -0.1122 -0.5437  0.2371
  695MOL0     C93711   3.852   4.921   1.380 -1.1671 -0.6114  0.3965
  695MOL0     C93712   3.802   5.039   1.472  0.1817 -0.1739 -0.0611
  695MOL0     C93713   3.649   5.045   1.482  0.0112  0.3067  0.4975
  695MOL0     O93714   3.597   4.928   1.546  0.3165 -0.1877  0.2920
  695MOL0     C93715   3.458   4.928   1.543  0.1459  0.0169  0.0941
  695MOL0     C93716   3.381   5.020   1.627 -0.4459  0.0148  0.1280
  695MOL0     C93717   3.244   5.030   1.607 -0.7926  0.0476  0.3680
  695MOL0     C93718   3.171   5.129   1.692  1.7021  0.5602  0.8742
  695MOL0     C93719   3.191   4.947   1.496  0.4359 -0.4657 -0.1783
  695MOL0     C93720   3.054   4.953   1.447  0.0015  0.5221  0.3071
  695MOL0     O93721   3.018   4.891   1.336 -0.1339 -0.0199 -0.0735
  695MOL0     C93722   2.892   4.889   1.293  1.3694 -0.6219  0.6711
  695MOL0     C93723   2.788   4.813   1.346  1.2553  0.1566 -0.2779
  695MOL0     C93724   2.652   4.824   1.303  0.2242 -0.2967  0.2870
  695MOL0     C93725   2.627   4.895   1.181  1.1081  0.5296 -0.2100
  695MOL0     O93726   2.507   4.907   1.115  0.0825  0.9871  0.2198
  695MOL0     C93727   2.410   4.801   1.137  0.3476  0.6205  0.2700
  695MOL0     C93728   2.271   4.826   1.066 -0.6488  0.1638  0.2056
  695MOL0     C93729   2.213   4.960   1.089 -0.4061  0.1369 -1.5137
  695MOL0     C93730   2.076   4.972   1.016  0.4510  0.0747  0.4357
  695MOL0     C93731   2.009   5.108   1.037  0.3205 -0.3211 -0.2939
  695MOL0     C93732   1.859   5.115   1.003  0.0559  0.2586 -0.3256
  695MOL0     C93733   1.843   5.083   0.855 -0.2145  0.0108  1.6957
  695MOL0     C93734   1.706   5.114   0.808  0.0626  1.0744 -0.2220
  695MOL0    Cl93735   1.684   5.289   0.828  0.3875  0.1800  0.1006
  695MOL0     C93736   2.731   4.960   1.124 -0.3484  0.1372  0.0841
  695MOL0     C93737   2.860   4.975   1.183 -0.1615  0.0004 -0.6434
  695MOL0     O93738   2.969   5.003   1.522 -0.2031 -0.5578  0.0787
  695MOL0     C93739   3.267   4.862   1.416 -0.0192  0.1528 -0.1454
  695MOL0     C93740   3.396   4.845   1.453  0.3184  0.2909 -0.1147
  695MOL0     N93741   3.966   4.732   1.165  0.2467 -0.2204 -0.2513
  695MOL0     N93742   4.034   4.687   1.067 -0.4884 -0.4759  0.0759
  695MOL0     C93743   5.213   4.235   0.834 -1.0539 -0.8704 -0.5099
  695MOL0     C93744   5.354   4.227   0.836 -0.5151 -0.4567 -0.1343
  695MOL0     C93745   5.754   4.234   0.611 -1.1521  0.0668 -0.7954
  695MOL0     C93746   5.835   4.132   0.561 -0.0703  0.7688  0.8133
  695MOL0     C93747   5.949   4.152   0.487  0.0220 -0.1989 -0.2430
  695MOL0     C93748   5.998   4.282   0.463 -0.5935 -0.9473 -0.6618
  695MOL0     O93749   6.114   4.302   0.392 -0.0190 -0.1662 -1.0126
  695MOL0     C93750   6.191   4.422   0.420  0.5478  0.5772  0.2931
  695MOL0     C93751   6.332   4.385   0.388 -0.1096 -0.6843 -0.3442
  695MOL0     C93752   6.369   4.438   0.250 -0.3338  0.7717 -0.0055
  695MOL0     C93753   6.292   4.361   0.141  1.2597 -0.3344 -0.4358
  695MOL0     C93754   6.339   4.406   0.017 -1.1342 -0.0053 -0.5725
  695MOL0     C93755   6.374   4.441  -0.100  0.4613  0.4098 -0.1004
  695MOL0     C93756   5.922   4.396   0.512  0.7626  0.3604  0.3958
  695MOL0     C93757   5.803   4.369   0.584  0.6073  0.6728 -0.3448
  695MOL0     H93758   5.402   4.487   0.620  0.7350  0.8114  1.4569
  695MOL0     H93759   5.161   4.496   0.625 -0.1323  0.0872 -1.1001
  695MOL0     H93760   4.959   4.535   0.770  0.3599 -1.2939  3.5905
  695MOL0     H93761   4.940   4.434   0.616  0.5497  0.9417  0.6701
  695MOL0     H93762   4.717   4.487   0.694 -1.2753 -1.0657  0.2924
  695MOL0     H93763   4.749   4.316   0.728 -2.8938  0.6288  0.0990
  695MOL0     H93764   4.647   4.385   0.914 -0.3540  0.4642 -0.1912
  695MOL0     H93765   4.820   4.382   0.959  0.3947 -1.0258 -1.9517
  695MOL0     H93766   4.832   4.601   1.017 -0.5369  1.3189 -0.8255
  695MOL0     H93767   4.748   4.650   0.872  2.0674 -0.6790 -0.3466
  695MOL0     H93768   4.597   4.535   1.109 -1.5588 -1.4825 -3.0485
  695MOL0     H93769   4.634   4.709   1.108  1.2683 -1.1232  1.1625
  695MOL0     H93770   4.507   4.733   0.898  1.7524  1.3568  1.2073
  695MOL0     H93771   4.471   4.555   0.884 -1.6303  2.1131 -1.6735
  695MOL0     H93772   4.337   4.574   1.084 -1.0435 -0.1755 -0.8952
  695MOL0     H93773   4.397   4.736   1.115 -1.7244  0.9602 -0.6284
  695MOL0     H93774   4.230   4.673   0.876  2.3750 -0.5396 -0.7282
  695MOL0     H93775   4.292   4.837   0.926  0.9156  0.6818  2.7780
  695MOL0     H93776   4.197   4.962   1.121  1.8385 -1.4572  0.5234
  695MOL0     H93777   4.061   4.961   1.387  2.5464 -1.5452 -2.1494
  695MOL0     H93778   3.958   5.041   1.264  0.9012 -0.7337 -0.6946
  695MOL0     H93779   3.865   4.832   1.442 -2.5528 -1.6328 -0.7102
  695MOL0     H93780   3.775   4.901   1.306  1.0063 -1.8568 -1.6673
  695MOL0     H93781   3.828   5.132   1.421 -0.5017 -0.7282 -1.4883
  695MOL0     H93782   3.849   5.051   1.570 -0.3512  0.2537  0.1483
  695MOL0     H93783   3.600   5.048   1.384 -2.0308 -0.4284  1.4620
  695MOL0     H93784   3.618   5.139   1.528  1.8056  1.6552 -0.8568
  695MOL0     H93785   3.430   5.099   1.683 -2.6073  1.4865  0.0647
  695MOL0     H93786   3.229   5.195   1.757  1.1445  1.2169  0.7269
  695MOL0     H93787   3.108   5.191   1.628 -0.1353 -2.7070 -0.7643
  695MOL0     H93788   3.100   5.088   1.765  0.6123  3.8402  1.8535
  695MOL0     H93789   2.819   4.755   1.432 -0.2528  0.4199  0.4690
  695MOL0     H93790   2.585   4.765   1.365  0.8347 -0.4851  0.7923
  695MOL0     H93791   2.444   4.703   1.101  0.6134  0.6130  0.5348
  695MOL0     H93792   2.383   4.797   1.243 -0.1150 -4.9114  0.2542
  695MOL0     H93793   2.281   4.806   0.959 -1.4056  0.7180  0.0172
  695MOL0     H93794   2.199   4.747   1.089  0.5972 -3.0321 -5.0905
  695MOL0     H93795   2.288   5.031   1.052  0.7958 -1.6288 -2.6551
  695MOL0     H93796   2.183   4.973   1.193 -1.5323  2.1148 -2.0322
  695MOL0     H93797   2.092   4.951   0.910 -0.3555 -2.2892  0.7401
  695MOL0     H93798   1.998   4.901   1.045  0.7579  0.1759  1.5272
  695MOL0     H93799   2.069   5.182   0.983  1.6221 -0.7310  0.5391
  695MOL0     H93800   2.009   5.136   1.143  1.0217  3.9870 -1.2094
  695MOL0     H93801   1.803   5.046   1.067 -1.1165 -0.8860 -2.4930
  695MOL0     H93802   1.826   5.217   1.025 -2.7702 -1.2087  3.4114
  695MOL0     H93803   1.859   4.978   0.831  1.9589  0.8538 -1.0940
  695MOL0     H93804   1.908   5.137   0.786 -0.6385 -2.7890 -1.1314
  695MOL0     H93805   1.634   5.050   0.858  0.0259  1.9500  0.8797
  695MOL0     H93806   1.700   5.078   0.705  0.2311 -0.9858  0.4544
  695MOL0     H93807   2.717   5.024   1.037  0.5119  1.1923  0.7011
  695MOL0     H93808   2.939   5.043   1.151 -0.5805  1.1133  0.5974
  695MOL0     H93809   3.229   4.808   1.329 -0.1668 -0.5174  0.3262
  695MOL0     H93810   3.468   4.785   1.398  1.7137  2.4727 -0.8014
  695MOL0     H93811   5.170   4.167   0.908  2.5613 -2.3122  0.4778
  695MOL0     H93812   5.402   4.153   0.898 -0.6167 -0.7414 -0.3921
  695MOL0     H93813   5.806   4.030   0.586  1.5090  0.3871  1.2024
  695MOL0     H93814   5.994   4.058   0.456 -1.9578 -1.5412  0.6592
  695MOL0     H93815   6.151   4.511   0.370 -0.3736  0.0072 -0.0131
  695MOL0     H93816   6.184   4.445   0.526 -2.3942  0.4310  0.2262
  695MOL0     H93817   6.345   4.279   0.366  0.8717 -0.7475  0.4532
  695MOL0     H93818   6.401   4.431   0.459 -1.8133  0.5261  0.5959
  695MOL0     H93819   6.473   4.411   0.232 -0.9280 -0.2807 -2.1972
  695MOL0     H93820   6.359   4.547   0.245  0.0387  0.8443  0.6638
  695MOL0     H93821   6.187   4.391   0.150  1.8479  1.2351  1.9917
  695MOL0     H93822   6.304   4.252   0.142  2.4886 -0.2186  0.9306
  695MOL0     H93823   6.398   4.465  -0.202 -0.4547 -2.5030 -1.0789
  695MOL0     H93824   5.940   4.500   0.487  2.3311 -0.2263 -1.1374
  695MOL0     H93825   5.745   4.456   0.615  0.6189  0.4887  0.2095
  696MOL0     O93826   1.271   1.598   5.108 -1.1171 -0.3179  0.6805
  696MOL0     C93827   1.333   1.587   5.001  0.0792  0.0375  0.4745
  696MOL0     O93828   1.283   1.596   4.877  0.0066 -1.3971  0.0541
  696MOL0     C93829   1.151   1.611   4.835 -0.2346 -0.2658 -0.5015
  696MOL0     C93830   1.118   1.656   4.710  0.2864 -0.0955  0.6337
  696MOL0     C93831   0.983   1.680   4.666 -0.6173  0.2476  0.0934
  696MOL0     C93832   0.884   1.647   4.752  0.1249  0.0626 -0.3859
  696MOL0     O93833   0.755   1.674   4.731 -0.0652  0.7720 -0.5634
  696MOL0     C93834   0.711   1.703   4.593 -0.8472 -0.5624  0.5322
  696MOL0     C93835   0.735   1.590   4.490  0.1756 -0.1741  0.5656
  696MOL0     C93836   0.692   1.613   4.342  0.3372  0.8517 -0.3323
  696MOL0     C93837   0.549   1.639   4.328 -0.3890  0.0466  0.2587
  696MOL0     C93838   0.511   1.626   4.182  0.0124  0.8456  0.0041
  696MOL0     C93839   0.358   1.656   4.166  0.3285  0.3854 -0.1019
  696MOL0     C93840   0.310   1.627   4.024 -0.2929  0.2291  0.0938
  696MOL0     C93841   0.170   1.583   4.017 -0.0588 -0.5016 -0.5148
  696MOL0     N93842   0.118   1.585   3.879 -0.4989  0.0315  0.4825
  696MOL0     C93843   0.112   1.477   3.796 -0.8337 -0.0025  0.0393
  696MOL0     C93844   0.056   1.513   3.681 -0.3736 -0.6264  0.3882
  696MOL0     C93845   0.046   1.435   3.552 -0.1343  0.0117  0.1048
  696MOL0     C93846  -0.098   1.388   3.513 -0.0904  0.6127 -0.1687
  696MOL0     C93847  -0.191   1.503   3.470 -0.8016  0.0775 -0.0344
  696MOL0     C93848  -0.314   1.442   3.415 -0.2001 -0.4718 -0.0854
  696MOL0     O93849  -0.380   1.547   3.350 -0.1788  0.8791 -0.3232
  696MOL0     C93850  -0.493   1.515   3.283 -0.0037 -0.7974 -0.6372
  696MOL0     C93851  -0.533   1.614   3.195 -0.0247 -0.0449 -0.4698
  696MOL0     C93852  -0.659   1.612   3.131 -0.4633  0.0746 -0.6917
  696MOL0     C93853  -0.695   1.728   3.046 -1.0480  0.5613 -0.3437
  696MOL0     C93854  -0.741   1.492   3.153  0.3392  0.2439  0.4481
  696MOL0     C93855  -0.882   1.476   3.093 -0.4540  0.0699  0.3749
  696MOL0     O93856  -0.918   1.553   2.975  0.3275 -0.0730 -0.2995
  696MOL0     C93857  -1.039   1.559   2.927  0.8513 -1.0831 -0.6054
  696MOL0     C93858  -1.143   1.616   3.004 -0.2480  0.9316 -0.5521
  696MOL0     C93859  -1.274   1.621   2.957  0.1823  0.2492  0.4234
  696MOL0     C93860  -1.305   1.579   2.825  0.6146 -0.5212  0.1711
  696MOL0     O93861  -1.424   1.589   2.771  0.6856  0.0331  0.1668
  696MOL0     C93862  -1.497   1.711   2.796 -0.5036 -0.2428 -0.0454
  696MOL0     C93863  -1.620   1.703   2.707 -0.6462 -0.0862  0.0754
  696MOL0     C93864  -1.697   1.577   2.741 -0.1456 -0.0342  0.2314
  696MOL0     C93865  -1.823   1.555   2.660 -0.3382 -0.0282 -0.4522
  696MOL0     C93866  -1.858   1.410   2.670 -0.0234 -0.4932 -0.0092
  696MOL0     C93867  -1.990   1.377   2.605  0.6876  0.0684  0.2971
  696MOL0     C93868  -2.019   1.229   2.574 -0.2634  0.5206 -0.2360
  696MOL0     C93869  -2.003   1.151   2.711  0.4521 -0.4018 -0.1348
  696MOL0    Cl93870  -2.139   1.204   2.828  0.3203 -0.2731  0.2304
  696MOL0     C93871  -1.196   1.523   2.748  0.3052 -0.4697 -0.1149
  696MOL0     C93872  -1.068   1.512   2.800  0.4833 -0.3481  0.0176
  696MOL0     O93873  -0.951   1.394   3.149  0.3720  0.3853 -0.2939
  696MOL0     C93874  -0.691   1.390   3.238  0.0930  0.4426 -0.1155
  696MOL0     C93875  -0.574   1.405   3.301  1.3049 -0.1693 -0.0296
  696MOL0     N93876   0.035   1.647   3.687  0.3827 -0.4668 -0.2546
  696MOL0     N93877   0.070   1.689   3.808 -0.6275 -0.8978 -0.3045
  696MOL0     C93878   0.912   1.603   4.878  0.3100  0.3551  0.4529
  696MOL0     C93879   1.043   1.574   4.918 -0.0958  0.7264  0.0751
  696MOL0     C93880   1.472   1.535   5.010 -0.4609  0.4579 -0.8189
  696MOL0     C93881   1.563   1.554   4.914  0.2733 -0.0006  0.6104
  696MOL0     C93882   1.696   1.508   4.947 -0.7266  0.3755  0.2094
  696MOL0     C93883   1.731   1.443   5.068 -0.7440  0.0410  0.3095
  696MOL0     O93884   1.863   1.401   5.079  0.5139  0.5248 -0.5788
  696MOL0     C93885   1.907   1.364   5.211 -0.5326  0.8589  0.4788
  696MOL0     C93886   2.056   1.407   5.214  0.0969  0.3197 -0.1281
  696MOL0     C93887   2.067   1.560   5.190 -0.3169  0.0665  0.1436
  696MOL0     C93888   2.211   1.613   5.178  0.1428 -0.0778  0.5061
  696MOL0     C93889   2.303   1.548   5.268  0.7931 -0.1520  0.7113
  696MOL0     C93890   2.362   1.491   5.355 -0.4309 -0.9418  0.7437
  696MOL0     C93891   1.636   1.433   5.160  0.5125 -1.0603 -0.0841
  696MOL0     C93892   1.504   1.475   5.136  0.4681 -0.3331  0.5947
  696MOL0     H93893   1.196   1.676   4.637 -0.6802 -1.8737 -0.9819
  696MOL0     H93894   0.981   1.732   4.571 -0.8199  0.8335  0.4127
  696MOL0     H93895   0.603   1.720   4.584 -0.5585  0.6526 -1.1454
  696MOL0     H93896   0.759   1.799   4.569 -2.1720 -0.0801 -0.3327
  696MOL0     H93897   0.841   1.563   4.489  0.1290 -1.0151  4.5334
  696MOL0     H93898   0.683   1.507   4.538 -0.1358 -1.5960 -2.0512
  696MOL0     H93899   0.743   1.704   4.309  1.1224  0.3667 -0.4772
  696MOL0     H93900   0.725   1.528   4.282 -0.1406  1.2265 -1.1494
  696MOL0     H93901   0.493   1.562   4.381 -0.5066  0.1355  0.2645
  696MOL0     H93902   0.516   1.737   4.364  0.2188  1.0794 -1.8353
  696MOL0     H93903   0.564   1.692   4.114  0.3178 -0.1981 -0.7994
  696MOL0     H93904   0.537   1.523   4.155  1.7957  1.6165 -1.4159
  696MOL0     H93905   0.298   1.593   4.232  0.0627  0.8847  0.1386
  696MOL0     H93906   0.332   1.757   4.197 -1.9482 -0.4045  0.7296
  696MOL0     H93907   0.333   1.712   3.960  2.2623  0.7216  1.5272
  696MOL0     H93908   0.361   1.544   3.974  0.6551 -0.1362  1.5969
  696MOL0     H93909   0.107   1.646   4.081  1.3920  1.4432 -0.9240
  696MOL0     H93910   0.161   1.481   4.055  0.5610 -0.0692  0.8517
  696MOL0     H93911   0.151   1.378   3.817 -0.6172 -0.2848 -1.5180
  696MOL0     H93912   0.072   1.504   3.472  1.1774  0.1808  0.6558
  696MOL0     H93913   0.110   1.347   3.558 -0.7816 -0.4865 -0.1673
  696MOL0     H93914  -0.137   1.329   3.596 -0.7057 -0.4470 -1.1808
  696MOL0     H93915  -0.081   1.328   3.423 -1.6072  1.0115 -0.7540
  696MOL0     H93916  -0.144   1.561   3.390 -0.2983 -0.1123  0.1240
  696MOL0     H93917  -0.215   1.562   3.559 -1.8416 -0.1455 -0.1450
  696MOL0     H93918  -0.379   1.405   3.495  2.8502  0.1455  2.9465
  696MOL0     H93919  -0.291   1.361   3.345 -0.1191 -0.5197 -0.0042
  696MOL0     H93920  -0.471   1.701   3.177  0.3139 -0.0848  0.4813
  696MOL0     H93921  -0.775   1.784   3.095 -1.7626 -0.3799 -0.4107
  696MOL0     H93922  -0.611   1.797   3.031 -1.8818  2.2203  2.0349
  696MOL0     H93923  -0.730   1.695   2.948 -1.3476  0.2201 -0.1248
  696MOL0     H93924  -1.109   1.643   3.103  2.9528 -2.2671 -0.5683
  696MOL0     H93925  -1.345   1.672   3.022 -0.5282 -0.9513  0.6156
  696MOL0     H93926  -1.520   1.720   2.903  0.0566  0.9502 -0.0162
  696MOL0     H93927  -1.432   1.794   2.767 -0.2242  0.8643  3.2463
  696MOL0     H93928  -1.691   1.785   2.717 -1.2027 -0.4636 -0.6796
  696MOL0     H93929  -1.580   1.707   2.606  0.4373  0.9447  0.5163
  696MOL0     H93930  -1.734   1.579   2.844 -4.2034  0.1956 -1.0812
  696MOL0     H93931  -1.626   1.497   2.719  2.2886  1.5589  1.7271
  696MOL0     H93932  -1.896   1.624   2.703  0.1414  0.1476  0.0747
  696MOL0     H93933  -1.796   1.577   2.556 -1.1533 -1.2119 -0.9390
  696MOL0     H93934  -1.867   1.376   2.774 -0.3035 -0.9308 -0.1741
  696MOL0     H93935  -1.789   1.341   2.623 -0.5793 -1.7442  0.9416
  696MOL0     H93936  -2.067   1.417   2.672  2.5868  1.2044  1.9125
  696MOL0     H93937  -1.999   1.432   2.511 -0.5626 -0.9925 -0.2236
  696MOL0     H93938  -1.941   1.191   2.509  1.7526  3.4496  0.2977
  696MOL0     H93939  -2.114   1.219   2.520 -0.0106  3.5057 -1.4137
  696MOL0     H93940  -1.903   1.158   2.756  0.8789  2.2604 -1.2984
  696MOL0     H93941  -2.014   1.051   2.668  3.7862 -0.4461 -1.1830
  696MOL0     H93942  -1.227   1.482   2.652 -3.5689  2.7455 -0.5321
  696MOL0     H93943  -0.992   1.464   2.739  0.0914 -1.9656  0.7423
  696MOL0     H93944  -0.752   1.309   3.275  2.8443 -0.8590  1.8707
  696MOL0     H93945  -0.550   1.324   3.370 -0.5392  0.5580  1.5676
  696MOL0     H93946   0.834   1.586   4.951  2.6804 -2.0279  2.6347
  696MOL0     H93947   1.050   1.524   5.014 -2.0284 -3.6263 -1.7845
  696MOL0     H93948   1.541   1.623   4.833  0.0601  0.3026  0.9304
  696MOL0     H93949   1.777   1.523   4.876  0.9673 -1.8439  1.5186
  696MOL0     H93950   1.846   1.411   5.290  0.1253  0.8419  1.0089
  696MOL0     H93951   1.884   1.258   5.228 -0.8763  1.3504  3.9729
  696MOL0     H93952   2.097   1.351   5.130 -1.3627 -0.1956 -0.5313
  696MOL0     H93953   2.099   1.365   5.306 -2.4244 -0.4746  0.7806
  696MOL0     H93954   2.026   1.621   5.271  4.5880  3.9346  0.2107
  696MOL0     H93955   2.024   1.582   5.092  3.0754  1.0748 -1.2746
  696MOL0     H93956   2.226   1.719   5.197  2.0157 -0.2498  0.1923
  696MOL0     H93957   2.262   1.587   5.085  3.4902  1.5552  1.7370
  696MOL0     H93958   2.407   1.441   5.438  2.2765 -1.3805 -0.8739
  696MOL0     H93959   1.651   1.389   5.257 -0.8789  0.6247  0.9578
  696MOL0     H93960   1.420   1.451   5.201 -0.1187 -1.5394 -0.5559
  697MOL0     O93961   3.473   8.345   9.646 -0.0322  0.4001 -1.1727
  697MOL0     C93962   3.530   8.402   9.556  0.3856  0.6218  0.5337
  697MOL0     O93963   3.474   8.489   9.464 -0.1516  0.0881 -0.2332
  697MOL0     C93964   3.337   8.518   9.475 -0.7603 -0.1037 -0.4108
  697MOL0     C93965   3.302   8.651   9.471 -0.8061 -0.5465 -0.1813
  697MOL0     C93966   3.166   8.689   9.474  0.5385 -0.6079  0.1370
  697MOL0     C93967   3.061   8.597   9.461 -0.5642  1.0805 -0.5975
  697MOL0     O93968   2.930   8.634   9.461 -0.7483  0.0859  0.0070
  697MOL0     C93969   2.829   8.559   9.382 -0.2529 -0.2859 -0.0229
  697MOL0     C93970   2.693   8.614   9.421  0.5593  0.0124 -0.0071
  697MOL0     C93971   2.648   8.565   9.562 -0.3222 -0.8679 -0.0573
  697MOL0     C93972   2.503   8.607   9.592 -0.4628 -0.9818 -0.1531
  697MOL0     C93973   2.475   8.572   9.738 -0.0597  0.3931 -1.0178
  697MOL0     C93974   2.326   8.582   9.768  0.5470  0.1055 -0.9609
  697MOL0     C93975   2.289   8.727   9.780 -0.1265 -0.3915  0.4443
  697MOL0     C93976   2.356   8.812   9.880  0.4540  0.1051  0.7878
  697MOL0     N93977   2.307   8.948   9.871  0.5948 -0.4282 -0.8153
  697MOL0     C93978   2.208   9.007   9.940  0.8198  0.9197  0.0193
  697MOL0     C93979   2.211   9.140   9.904  0.3443 -0.4708 -0.6991
  697MOL0     C93980   2.109   9.250   9.933  0.4073 -0.2015 -0.3623
  697MOL0     C93981   1.969   9.198   9.916  0.1907 -0.1287 -0.5428
  697MOL0     C93982   1.863   9.288   9.971 -1.0859  0.1237 -0.4431
  697MOL0     C93983   1.852   9.432   9.908 -0.2478  0.4691  0.3485
  697MOL0     O93984   1.829   9.411   9.768 -0.2832 -0.0256 -0.0666
  697MOL0     C93985   1.701   9.380   9.743  0.7173 -0.0947  1.3394
  697MOL0     C93986   1.686   9.266   9.675  0.0045 -0.2809  0.9154
  697MOL0     C93987   1.560   9.218   9.629 -0.0061 -0.5017 -0.0498
  697MOL0     C93988   1.560   9.085   9.557 -0.5566  0.0365  0.7391
  697MOL0     C93989   1.449   9.292   9.650 -0.2427  0.3266  0.4666
  697MOL0     C93990   1.307   9.253   9.615 -1.0342  1.1393  0.3973
  697MOL0     O93991   1.216   9.343   9.661 -0.1502 -0.1995  0.2208
  697MOL0     C93992   1.088   9.309   9.641  0.3294 -0.4516  0.6647
  697MOL0     C93993   0.992   9.343   9.746 -0.8454  0.1073  0.4523
  697MOL0     C93994   0.859   9.340   9.713  0.0163 -0.3937  0.3172
  697MOL0     C93995   0.813   9.306   9.586  0.1105  0.1120  0.7148
  697MOL0     O93996   0.678   9.300   9.538 -0.2950 -0.1838  0.5048
  697MOL0     C93997   0.575   9.359   9.619  0.0146  0.2364  0.2339
  697MOL0     C93998   0.449   9.361   9.531 -0.7333  0.2188 -0.0830
  697MOL0     C93999   0.322   9.358   9.610 -0.8316 -0.5020  0.7999
  697MOL0     C94000   0.212   9.248   9.574 -0.0178 -0.1929 -0.1260
  697MOL0     C94001   0.087   9.267   9.672 -0.7954 -0.6467  0.4130
  697MOL0     C94002   0.013   9.401   9.641 -0.4225  1.0459 -0.4183
  697MOL0     C94003  -0.115   9.425   9.723 -0.2618 -0.6982 -0.1392
  697MOL0     C94004  -0.159   9.574   9.701 -0.6791  0.4992  0.5319
  697MOL0    Cl94005  -0.298   9.622   9.805  0.0270 -0.2335  0.0090
  697MOL0     C94006   0.900   9.262   9.484 -0.5610 -0.7790 -0.5562
  697MOL0     C94007   1.037   9.266   9.520  0.3015  0.6105 -0.4044
  697MOL0     O94008   1.291   9.148   9.549  0.5198 -0.7736 -0.0991
  697MOL0     C94009   1.460   9.407   9.725 -1.1385 -0.7931 -1.4384
  697MOL0     C94010   1.587   9.449   9.773 -0.2390  0.6712  0.4695
  697MOL0     N94011   2.319   9.155   9.824 -0.9662 -0.6083  0.0531
  697MOL0     N94012   2.377   9.043   9.812  0.0967 -0.4495  0.6717
  697MOL0     C94013   3.104   8.461   9.445 -0.2535 -0.1724  0.1199
  697MOL0     C94014   3.234   8.420   9.463  0.1757  0.0336  0.7507
  697MOL0     C94015   3.679   8.391   9.557  0.0150  0.2836 -0.4098
  697MOL0     C94016   3.741   8.285   9.632  0.1213  1.3262 -0.4090
  697MOL0     C94017   3.882   8.276   9.639 -0.4911  0.9687 -1.0331
  697MOL0     C94018   3.954   8.377   9.579 -0.2859  0.5768  1.2202
  697MOL0     O94019   4.092   8.391   9.584 -0.4581  0.3384 -0.4948
  697MOL0     C94020   4.171   8.271   9.606  0.2135 -0.6662  0.1942
  697MOL0     C94021   4.152   8.167   9.495  0.3878  0.1086 -0.6455
  697MOL0     C94022   4.234   8.043   9.536  0.1063 -0.8180 -0.2674
  697MOL0     C94023   4.204   7.928   9.443 -0.2433 -0.2341 -0.5421
  697MOL0     C94024   4.291   7.816   9.493 -0.6456 -0.0664 -0.6421
  697MOL0     C94025   4.370   7.741   9.553 -0.2624  0.4582  0.6137
  697MOL0     C94026   3.890   8.476   9.500 -0.8120  0.0048 -0.0550
  697MOL0     C94027   3.755   8.487   9.484  0.1228  0.0863  0.2338
  697MOL0     H94028   3.378   8.729   9.477 -1.2116 -0.2116  1.0665
  697MOL0     H94029   3.130   8.790   9.489  1.3405 -0.5206  1.6820
  697MOL0     H94030   2.860   8.586   9.281  0.1122  2.4484  0.7465
  697MOL0     H94031   2.831   8.450   9.395 -3.8230 -0.9038 -3.0117
  697MOL0     H94032   2.697   8.724   9.419 -0.8692  0.1057  0.7929
  697MOL0     H94033   2.627   8.574   9.344  0.9386  0.2808 -0.4778
  697MOL0     H94034   2.647   8.456   9.555  0.8466 -0.9475  0.7468
  697MOL0     H94035   2.722   8.601   9.634  0.5190 -1.6465 -0.5096
  697MOL0     H94036   2.499   8.715   9.576 -0.7823 -1.4540 -4.5677
  697MOL0     H94037   2.427   8.566   9.525  0.1398 -1.8175 -0.3480
  697MOL0     H94038   2.512   8.472   9.758 -1.5056  0.3252  1.8443
  697MOL0     H94039   2.542   8.637   9.795  2.5505 -1.6353 -1.5849
  697MOL0     H94040   2.269   8.534   9.687  0.3465  1.2518 -1.5106
  697MOL0     H94041   2.303   8.525   9.859 -2.5094  1.4415 -0.7757
  697MOL0     H94042   2.306   8.775   9.683 -0.4559 -1.9207 -0.4126
  697MOL0     H94043   2.182   8.733   9.800 -0.2398  2.4540 -0.5331
  697MOL0     H94044   2.465   8.806   9.870  0.3700 -1.4525  0.5544
  697MOL0     H94045   2.326   8.772   9.978 -0.0934  1.0157  1.0112
  697MOL0     H94046   2.141   8.952  10.006 -0.6374  2.5503 -0.0203
  697MOL0     H94047   2.114   9.291  10.035  0.4331  0.9439 -0.8125
  697MOL0     H94048   2.138   9.328   9.863  2.3858 -2.3416 -2.0540
  697MOL0     H94049   1.960   9.102   9.969  2.3429 -0.7685 -1.2430
  697MOL0     H94050   1.951   9.173   9.811  1.7373  1.5344 -1.2417
  697MOL0     H94051   1.876   9.293  10.079 -1.5165  0.1895 -0.3914
  697MOL0     H94052   1.767   9.236   9.977 -0.2984 -1.3334  5.0952
  697MOL0     H94053   1.944   9.492   9.917 -0.5967  0.6795  3.9967
  697MOL0     H94054   1.777   9.493   9.958 -0.5207  0.0808  0.4147
  697MOL0     H94055   1.775   9.206   9.656  1.0270  1.1841  0.9489
  697MOL0     H94056   1.500   9.008   9.606  0.6571 -1.0939  0.4968
  697MOL0     H94057   1.543   9.100   9.450  2.9928 -2.3160 -0.3196
  697MOL0     H94058   1.659   9.040   9.545 -0.3872  0.7127 -0.5075
  697MOL0     H94059   1.028   9.379   9.841  0.7230  1.0516 -0.4617
  697MOL0     H94060   0.785   9.385   9.779  1.5995  2.5124  0.2450
  697MOL0     H94061   0.571   9.296   9.708  1.3666 -0.3719 -0.1113
  697MOL0     H94062   0.601   9.463   9.644  0.1215  0.3703 -0.4206
  697MOL0     H94063   0.453   9.456   9.475 -0.1019  0.3900  0.2429
  697MOL0     H94064   0.452   9.273   9.466  3.3965 -0.1757  0.3386
  697MOL0     H94065   0.278   9.458   9.617 -0.3714 -0.0661 -1.6740
  697MOL0     H94066   0.356   9.339   9.712 -1.4238 -2.7454  0.6325
  697MOL0     H94067   0.173   9.250   9.472 -0.1257 -0.7278 -0.0997
  697MOL0     H94068   0.258   9.149   9.577  0.7644  0.1668 -0.1405
  697MOL0     H94069   0.116   9.277   9.777  1.3480 -0.2776 -0.1466
  697MOL0     H94070   0.013   9.188   9.661  1.1545 -2.5439  0.3042
  697MOL0     H94071   0.081   9.484   9.659 -2.2695  2.3139  1.0743
  697MOL0     H94072  -0.011   9.406   9.535 -2.7244  1.0529  0.0604
  697MOL0     H94073  -0.093   9.410   9.829  1.1650  0.4319 -0.2472
  697MOL0     H94074  -0.198   9.360   9.697 -0.3358 -1.4635  1.8369
  697MOL0     H94075  -0.189   9.578   9.596 -0.2570 -1.3442  0.3104
  697MOL0     H94076  -0.077   9.645   9.718 -1.1190  0.9571  0.7627
  697MOL0     H94077   0.862   9.217   9.394 -1.5048 -2.0350  0.4365
  697MOL0     H94078   1.105   9.256   9.436  2.2494 -0.4239  1.2229
  697MOL0     H94079   1.384   9.478   9.757  0.4470  0.6472 -0.7081
  697MOL0     H94080   1.585   9.542   9.828 -0.6040  1.1568 -0.3385
  697MOL0     H94081   3.029   8.386   9.425  0.6970 -0.7182 -1.5937
  697MOL0     H94082   3.262   8.317   9.442 -0.1143  0.3624 -1.5342
  697MOL0     H94083   3.689   8.202   9.680  1.3111  1.1154  0.5677
  697MOL0     H94084   3.940   8.204   9.695 -0.1212  0.7152 -1.7318
  697MOL0     H94085   4.277   8.297   9.618  0.5498 -2.7168  2.5014
  697MOL0     H94086   4.142   8.227   9.702  2.2346  1.3317  1.8552
  697MOL0     H94087   4.201   8.213   9.409  1.8384  2.4692  1.2956
  697MOL0     H94088   4.046   8.149   9.473  0.1607  2.6978 -2.0530
  697MOL0     H94089   4.225   8.013   9.641  1.5644  0.0912  0.1415
  697MOL0     H94090   4.338   8.071   9.518  0.2735 -1.1446  0.1654
  697MOL0     H94091   4.234   7.964   9.344  1.5397  0.0250  0.0393
  697MOL0     H94092   4.098   7.904   9.446 -0.0377 -1.0780  0.2632
  697MOL0     H94093   4.436   7.679   9.610 -2.1721 -2.8138 -0.4797
  697MOL0     H94094   3.955   8.553   9.461  0.2313  1.3577  3.8492
  697MOL0     H94095   3.713   8.560   9.415 -0.0375 -1.2013 -1.1030
  698MOL0     O94096   1.226   9.722   5.143  0.2145 -0.1859 -0.3634
  698MOL0     C94097   1.124   9.740   5.074  0.1823 -0.8092 -0.5227
  698MOL0     O94098   0.997   9.764   5.119  0.2040 -0.1395 -0.1179
  698MOL0     C94099   0.972   9.790   5.258  0.3609  0.5518 -1.3748
  698MOL0     C94100   0.844   9.758   5.309 -0.0240 -0.7549 -0.2759
  698MOL0     C94101   0.810   9.771   5.451  0.1142 -0.2079 -0.4034
  698MOL0     C94102   0.904   9.821   5.541  0.6491 -0.3662 -0.3237
  698MOL0     O94103   0.866   9.810   5.675 -1.0002 -0.1150  0.6330
  698MOL0     C94104   0.960   9.849   5.776 -0.8823  0.0429 -0.0108
  698MOL0     C94105   1.042   9.728   5.830  0.8425  0.7216 -0.0420
  698MOL0     C94106   1.116   9.745   5.961 -1.3150  0.2117 -0.4718
  698MOL0     C94107   1.166   9.624   6.035 -0.0993 -0.0184  0.0469
  698MOL0     C94108   1.239   9.656   6.165 -0.6850  0.3704  0.1981
  698MOL0     C94109   1.333   9.540   6.195  0.1359 -0.0713 -0.2223
  698MOL0     C94110   1.388   9.556   6.335 -0.4429  0.4688 -0.3767
  698MOL0     C94111   1.481   9.436   6.373  0.9747 -0.2376 -0.0155
  698MOL0     N94112   1.494   9.454   6.512 -0.2079  0.4969  0.1017
  698MOL0     C94113   1.578   9.549   6.580 -0.3599 -0.3856  1.4477
  698MOL0     C94114   1.563   9.524   6.710  0.4019 -0.6599  0.6997
  698MOL0     C94115   1.609   9.609   6.827 -0.7410  0.0018 -0.3503
  698MOL0     C94116   1.735   9.531   6.873 -0.8771  0.6693  0.3308
  698MOL0     C94117   1.810   9.610   6.979  0.7466  0.9662 -0.4046
  698MOL0     C94118   1.944   9.559   7.029  0.7395  0.5983  0.1805
  698MOL0     O94119   2.006   9.655   7.112 -0.6330  0.4650 -0.4610
  698MOL0     C94120   2.143   9.629   7.142  0.6337  0.2964  0.7165
  698MOL0     C94121   2.206   9.497   7.135 -0.3624  0.4958  0.1420
  698MOL0     C94122   2.339   9.493   7.178  0.4590  0.0164 -0.7441
  698MOL0     C94123   2.402   9.359   7.177  0.2529 -0.1909 -0.1294
  698MOL0     C94124   2.409   9.606   7.231 -0.0080  0.5422  0.2737
  698MOL0     C94125   2.549   9.591   7.285 -0.2819  0.4165  0.5287
  698MOL0     O94126   2.621   9.697   7.254  0.4281  0.4104 -0.1510
  698MOL0     C94127   2.748   9.708   7.309  0.0902 -0.4999  0.2072
  698MOL0     C94128   2.851   9.733   7.217 -0.5422 -0.1761  1.2592
  698MOL0     C94129   2.974   9.783   7.265  0.8453 -1.3344  0.8837
  698MOL0     C94130   2.995   9.792   7.402  0.4336  0.3666 -0.3975
  698MOL0     O94131   3.114   9.830   7.456 -0.1481 -0.2861  0.4695
  698MOL0     C94132   3.149   9.970   7.424 -0.5551  0.5896 -1.2007
  698MOL0     C94133   3.248  10.030   7.525 -0.2040 -0.1551  1.0353
  698MOL0     C94134   3.387   9.984   7.494 -0.4990 -0.1936 -0.7874
  698MOL0     C94135   3.492  10.020   7.598  0.4952 -0.2807 -0.1840
  698MOL0     C94136   3.634   9.965   7.559 -0.6821 -0.6653  1.1625
  698MOL0     C94137   3.718  10.089   7.518 -0.2297  0.4461 -0.4668
  698MOL0     C94138   3.857  10.042   7.493 -0.0498  0.1088 -0.2053
  698MOL0     C94139   3.948  10.148   7.438 -0.2365  0.6456  0.3795
  698MOL0    Cl94140   4.001  10.238   7.581  0.3356 -0.2590 -0.3661
  698MOL0     C94141   2.889   9.756   7.489  0.1420  0.3645 -0.3415
  698MOL0     C94142   2.763   9.714   7.448 -0.4070 -0.2529 -0.4463
  698MOL0     O94143   2.575   9.498   7.358  0.2760  0.2378  0.7730
  698MOL0     C94144   2.345   9.735   7.243  1.1824  0.6926  0.3072
  698MOL0     C94145   2.217   9.739   7.197  0.5768  0.1923 -0.3853
  698MOL0     N94146   1.467   9.422   6.726 -0.6144 -0.5868  0.8623
  698MOL0     N94147   1.430   9.381   6.602  0.6333  0.3365 -0.4295
  698MOL0     C94148   1.031   9.865   5.487 -0.2391  0.8041 -0.6782
  698MOL0     C94149   1.063   9.849   5.350  0.1357  0.0663  0.2403
  698MOL0     C94150   1.133   9.717   4.931  0.8075 -0.3085  0.7053
  698MOL0     C94151   1.015   9.704   4.851 -0.1680  0.3869  0.3936
  698MOL0     C94152   1.021   9.681   4.711  0.4002  0.0236  0.2971
  698MOL0     C94153   1.141   9.683   4.650 -0.8365  0.7769 -0.8972
  698MOL0     O94154   1.167   9.669   4.514 -0.0149  0.3181 -0.3483
  698MOL0     C94155   1.064   9.682   4.417  0.2095 -0.2469  0.8686
  698MOL0     C94156   1.124   9.705   4.282 -0.0407 -0.8280  0.0431
  698MOL0     C94157   1.239   9.602   4.244 -0.2489 -0.7207  0.2512
  698MOL0     C94158   1.174   9.473   4.189  0.2271  0.7070  1.3525
  698MOL0     C94159   1.075   9.485   4.085 -0.4410  0.1573  0.2773
  698MOL0     C94160   0.981   9.504   4.006 -0.4038  0.3912  0.0128
  698MOL0     C94161   1.255   9.700   4.732 -0.7612  0.1229 -0.3426
  698MOL0     C94162   1.252   9.710   4.868  0.5686 -0.5695  0.4605
  698MOL0     H94163   0.760   9.718   5.252 -0.0550 -1.5123  0.2845
  698MOL0     H94164   0.725   9.726   5.502  1.1073  1.5238  3.0283
  698MOL0     H94165   1.030   9.927   5.747  0.9127 -0.9431  1.4074
  698MOL0     H94166   0.890   9.897   5.845 -1.8013  0.1310 -0.9845
  698MOL0     H94167   0.972   9.644   5.836  0.7486  0.8971  2.2119
  698MOL0     H94168   1.112   9.703   5.750  1.3346  3.1174 -0.4223
  698MOL0     H94169   1.209   9.798   5.938 -1.7088  1.0843 -0.1154
  698MOL0     H94170   1.057   9.800   6.035 -1.3171 -2.4217  1.6362
  698MOL0     H94171   1.085   9.553   6.054  1.0395 -1.0724  1.0970
  698MOL0     H94172   1.233   9.576   5.963 -1.9250 -0.6679 -1.2817
  698MOL0     H94173   1.285   9.753   6.145 -0.1923 -0.0373 -0.6688
  698MOL0     H94174   1.168   9.667   6.248 -0.5393  1.1540  0.2222
  698MOL0     H94175   1.275   9.448   6.198  5.6781 -4.0228  2.1850
  698MOL0     H94176   1.411   9.528   6.119  0.7209 -2.7205  0.6950
  698MOL0     H94177   1.449   9.647   6.342 -0.0639  0.2234 -0.4834
  698MOL0     H94178   1.300   9.546   6.399  0.7222 -1.3124  1.0512
  698MOL0     H94179   1.574   9.437   6.315 -0.2376 -0.8421 -2.0734
  698MOL0     H94180   1.422   9.345   6.361 -1.8919  0.4236  5.7478
  698MOL0     H94181   1.651   9.618   6.540  0.5095 -0.6205  2.5770
  698MOL0     H94182   1.642   9.705   6.786 -1.5669 -0.2103 -1.5509
  698MOL0     H94183   1.535   9.618   6.907  1.6429  0.5656  1.9464
  698MOL0     H94184   1.794   9.509   6.784 -3.1807 -0.7035 -0.9443
  698MOL0     H94185   1.696   9.436   6.911 -0.5802 -0.3880 -1.8539
  698MOL0     H94186   1.739   9.614   7.061  0.7652 -1.1851 -0.2212
  698MOL0     H94187   1.826   9.710   6.937 -0.0169  0.0211 -3.2310
  698MOL0     H94188   1.999   9.559   6.934 -0.4466 -0.8466 -0.5510
  698MOL0     H94189   1.928   9.461   7.073 -1.9838  0.5632 -0.6586
  698MOL0     H94190   2.153   9.411   7.097  0.6469  0.0078 -0.1968
  698MOL0     H94191   2.362   9.309   7.265 -0.2371  0.2612 -0.0896
  698MOL0     H94192   2.368   9.293   7.097 -3.5579 -0.4403  1.4849
  698MOL0     H94193   2.511   9.358   7.175  0.3004 -0.2769 -3.2852
  698MOL0     H94194   2.832   9.731   7.111  2.0854 -1.4234  0.7241
  698MOL0     H94195   3.056   9.809   7.199  0.6693  0.2539  1.2557
  698MOL0     H94196   3.189   9.974   7.323  1.7136 -1.7960 -0.4981
  698MOL0     H94197   3.062  10.036   7.419 -1.6797 -0.6457  0.6858
  698MOL0     H94198   3.253  10.139   7.520 -1.3282 -0.1250 -0.0239
  698MOL0     H94199   3.223  10.006   7.629 -0.7367  2.1395  1.4966
  698MOL0     H94200   3.410  10.008   7.390 -1.1126 -3.0224 -1.6567
  698MOL0     H94201   3.377   9.875   7.489 -3.8091  0.0764 -3.6853
  698MOL0     H94202   3.496  10.127   7.618  1.3655 -0.6994  2.2062
  698MOL0     H94203   3.476   9.971   7.694  0.7131 -1.7467 -0.8579
  698MOL0     H94204   3.627   9.898   7.474 -2.0400 -0.8968  1.4279
  698MOL0     H94205   3.688   9.915   7.640 -0.2610 -0.3970  1.0497
  698MOL0     H94206   3.667  10.151   7.444 -2.0388  2.8558  2.5467
  698MOL0     H94207   3.727  10.163   7.598 -1.6407  0.6151 -0.4303
  698MOL0     H94208   3.836   9.958   7.425 -1.1886 -0.1188  0.3827
  698MOL0     H94209   3.911  10.001   7.578  0.2428  0.0439 -0.4214
  698MOL0     H94210   3.901  10.204   7.356  0.1142  0.0929 -0.2028
  698MOL0     H94211   4.034  10.099   7.392 -1.1923 -0.2691 -0.4764
  698MOL0     H94212   2.916   9.765   7.594 -2.4473  1.9938  0.2752
  698MOL0     H94213   2.685   9.687   7.518  0.6455 -0.0586  0.8446
  698MOL0     H94214   2.379   9.814   7.309 -0.4606  0.7178  1.1944
  698MOL0     H94215   2.163   9.833   7.196 -2.3232 -1.3580 -0.8959
  698MOL0     H94216   1.108   9.914   5.547  1.8120 -0.2736 -2.3004
  698MOL0     H94217   1.158   9.879   5.308 -0.4521 -1.3774 -2.3714
  698MOL0     H94218   0.916   9.688   4.891  0.1852 -1.8944  0.5006
  698MOL0     H94219   0.929   9.669   4.655  0.2325 -0.8423  0.7426
  698MOL0     H94220   1.019   9.584   4.403  0.7287 -0.3375 -0.2753
  698MOL0     H94221   0.986   9.756   4.441  0.6933  0.7257 -0.4469
  698MOL0     H94222   1.151   9.811   4.286 -1.5531 -0.3975 -0.3091
  698MOL0     H94223   1.047   9.710   4.204 -0.6554 -0.4568  0.6686
  698MOL0     H94224   1.311   9.581   4.324  1.5839  2.3578 -0.4302
  698MOL0     H94225   1.301   9.647   4.166 -1.3306  3.0662  1.3687
  698MOL0     H94226   1.117   9.418   4.265 -1.4884  0.6980  0.1257
  698MOL0     H94227   1.255   9.408   4.154 -0.3297  1.0053 -0.6421
  698MOL0     H94228   0.908   9.508   3.928  1.1478  0.0872 -1.5295
  698MOL0     H94229   1.352   9.685   4.685  1.4537  0.2530  3.7772
  698MOL0     H94230   1.349   9.721   4.914  1.0829  4.2323 -1.1588
  699MOL0     O94231   8.135   2.881   8.775 -0.4321  0.2856  0.2344
  699MOL0     C94232   8.143   2.912   8.891 -0.8673 -0.5298 -0.9884
  699MOL0     O94233   8.091   3.030   8.946  0.2032  0.7685 -0.1452
  699MOL0     C94234   7.984   3.100   8.896 -0.8102  0.3169 -0.0029
  699MOL0     C94235   7.991   3.234   8.919  0.1497 -0.2683  0.4290
  699MOL0     C94236   7.879   3.316   8.888  0.6246 -0.3841 -0.5940
  699MOL0     C94237   7.775   3.263   8.810 -0.7407 -0.0333  1.1834
  699MOL0     O94238   7.663   3.322   8.763  0.5974 -0.4257  1.0274
  699MOL0     C94239   7.644   3.466   8.782  0.0623 -0.3401  0.1956
  699MOL0     C94240   7.569   3.489   8.916 -0.9699 -0.2704  0.9193
  699MOL0     C94241   7.415   3.502   8.899  0.6987  0.4534 -0.0509
  699MOL0     C94242   7.362   3.550   9.035 -0.8563  0.5259 -0.9249
  699MOL0     C94243   7.214   3.548   9.027  0.5408 -0.3902  0.2069
  699MOL0     C94244   7.153   3.611   9.156 -0.1884  0.0356 -1.0385
  699MOL0     C94245   7.005   3.582   9.170  0.4469 -0.1825  0.1051
  699MOL0     C94246   6.994   3.449   9.237  0.3583 -0.2228  0.7652
  699MOL0     N94247   6.856   3.398   9.244  0.0553  0.1258  0.1948
  699MOL0     C94248   6.819   3.293   9.159  0.8126 -0.7441 -0.4122
  699MOL0     C94249   6.689   3.278   9.187 -0.3266  0.1863 -0.7717
  699MOL0     C94250   6.618   3.173   9.114  0.6903 -0.6878 -0.6145
  699MOL0     C94251   6.555   3.239   8.989  0.3833 -0.1858  1.0861
  699MOL0     C94252   6.489   3.139   8.896 -0.8360  0.0395 -0.3124
  699MOL0     C94253   6.402   3.028   8.965 -0.5323 -0.5965  0.5764
  699MOL0     O94254   6.304   3.089   9.054 -1.1160 -0.2195 -0.2992
  699MOL0     C94255   6.172   3.095   9.030  0.1843  1.2786 -0.0613
  699MOL0     C94256   6.100   3.186   9.104 -0.4898 -0.8157  0.3636
  699MOL0     C94257   5.957   3.211   9.082 -0.2645  0.0528 -0.1479
  699MOL0     C94258   5.885   3.309   9.175 -1.0431  0.2095 -0.1918
  699MOL0     C94259   5.898   3.154   8.965  0.9731 -1.1518 -0.3418
  699MOL0     C94260   5.760   3.184   8.922 -0.1584 -0.2602 -0.1850
  699MOL0     O94261   5.697   3.284   8.982 -0.2794  0.4201 -0.7908
  699MOL0     C94262   5.565   3.283   8.991  0.7290  0.7229 -0.0208
  699MOL0     C94263   5.469   3.181   8.968 -0.0831 -0.7423 -0.1651
  699MOL0     C94264   5.331   3.193   8.977 -0.1566 -0.8052 -1.3895
  699MOL0     C94265   5.276   3.319   9.010 -0.3834 -0.1343  0.0222
  699MOL0     O94266   5.144   3.357   9.014 -0.5238 -0.0082 -0.4159
  699MOL0     C94267   5.049   3.261   8.985  0.1358 -0.3873  0.3185
  699MOL0     C94268   4.975   3.208   9.110 -0.4705 -0.2244  0.7694
  699MOL0     C94269   4.842   3.281   9.127  0.5248  0.4117  0.4997
  699MOL0     C94270   4.735   3.238   9.022 -0.6263 -0.9357  0.0108
  699MOL0     C94271   4.596   3.293   9.054 -0.1929 -0.1648 -1.3992
  699MOL0     C94272   4.538   3.231   9.185  0.4357  0.9487 -0.4844
  699MOL0     C94273   4.388   3.235   9.185  1.8020 -0.0118  0.1687
  699MOL0     C94274   4.324   3.161   9.301 -0.3446 -0.8284 -0.2252
  699MOL0    Cl94275   4.378   2.989   9.285 -0.6620  0.2241 -0.3039
  699MOL0     C94276   5.363   3.430   9.033  0.0351 -0.0695 -0.5925
  699MOL0     C94277   5.504   3.408   9.027 -0.0902  0.5174 -0.1291
  699MOL0     O94278   5.711   3.103   8.833  0.0520 -0.3102  0.7076
  699MOL0     C94279   5.971   3.063   8.892 -0.1044 -0.4011  0.1715
  699MOL0     C94280   6.106   3.030   8.922 -0.1514  0.3583  0.5073
  699MOL0     N94281   6.642   3.370   9.285  0.5344  0.2463  0.1141
  699MOL0     N94282   6.747   3.445   9.320  0.2620  0.5209  0.4940
  699MOL0     C94283   7.774   3.121   8.791  0.3986 -0.0535  0.2839
  699MOL0     C94284   7.871   3.034   8.842  0.8105  0.0167 -0.5159
  699MOL0     C94285   8.228   2.824   8.984 -0.0384 -1.1115 -0.2541
  699MOL0     C94286   8.246   2.857   9.123  0.0101  0.4178  0.4871
  699MOL0     C94287   8.322   2.765   9.207  0.6811 -0.5712  0.4535
  699MOL0     C94288   8.377   2.650   9.145 -0.6123  0.3479 -0.3313
  699MOL0     O94289   8.458   2.565   9.221  0.0916 -0.6381  0.2159
  699MOL0     C94290   8.475   2.599   9.365 -0.1540 -0.5041 -0.7433
  699MOL0     C94291   8.579   2.507   9.427  0.9360 -0.1818  0.6466
  699MOL0     C94292   8.540   2.362   9.461 -0.3088  0.0835 -0.1782
  699MOL0     C94293   8.661   2.281   9.506  0.0618 -0.2272  1.0635
  699MOL0     C94294   8.748   2.350   9.595 -0.0904  0.2350  0.2436
  699MOL0     C94295   8.825   2.408   9.670  0.2872  0.4936  0.1701
  699MOL0     C94296   8.363   2.619   9.011  0.1376 -0.2112  0.3430
  699MOL0     C94297   8.300   2.716   8.929  0.8565  0.2441  0.2200
  699MOL0     H94298   8.080   3.272   8.968  1.6011 -2.1381 -0.6248
  699MOL0     H94299   7.883   3.419   8.921  1.5087 -0.9527  1.2056
  699MOL0     H94300   7.738   3.516   8.807 -0.9702  0.2013  3.3565
  699MOL0     H94301   7.600   3.519   8.697 -1.7556 -1.3332  0.4849
  699MOL0     H94302   7.597   3.417   8.993 -0.1878 -0.4007  0.5182
  699MOL0     H94303   7.601   3.586   8.953  2.4795  0.3360 -2.9399
  699MOL0     H94304   7.382   3.568   8.818 -1.7837 -2.4333 -1.6211
  699MOL0     H94305   7.377   3.400   8.887 -0.0431  0.4145  2.1675
  699MOL0     H94306   7.380   3.477   9.114 -0.7447  0.0098 -1.4283
  699MOL0     H94307   7.399   3.652   9.049  0.2689  0.7671 -4.5907
  699MOL0     H94308   7.181   3.611   8.944  1.6599 -1.0107 -0.7504
  699MOL0     H94309   7.181   3.446   9.006  1.2512 -0.6814  0.4406
  699MOL0     H94310   7.200   3.571   9.246 -2.8625 -0.5577  0.1857
  699MOL0     H94311   7.172   3.719   9.155  0.3008  0.0270  1.2594
  699MOL0     H94312   6.959   3.657   9.235 -0.8824  1.0340 -2.0988
  699MOL0     H94313   6.952   3.590   9.074  2.1026 -1.8238 -1.0336
  699MOL0     H94314   7.025   3.460   9.341 -1.6568 -1.8035  1.6039
  699MOL0     H94315   7.060   3.380   9.183 -0.7569  0.2415 -1.2989
  699MOL0     H94316   6.888   3.230   9.102  0.7920 -1.6284  0.5069
  699MOL0     H94317   6.678   3.087   9.084 -0.4074 -0.7751 -2.7729
  699MOL0     H94318   6.541   3.123   9.174  0.3359 -0.9939 -1.3062
  699MOL0     H94319   6.624   3.304   8.934  2.3122 -2.1420  1.0518
  699MOL0     H94320   6.465   3.288   9.025  0.7665  0.2345  1.4722
  699MOL0     H94321   6.577   3.101   8.844  0.1820  2.0854 -0.1686
  699MOL0     H94322   6.423   3.189   8.824 -1.1322 -1.6723 -1.2846
  699MOL0     H94323   6.478   2.976   9.023  0.5669 -1.0624 -1.1980
  699MOL0     H94324   6.361   2.953   8.897 -1.5301 -0.4846  1.0315
  699MOL0     H94325   6.151   3.246   9.179 -2.1382  2.1106 -0.6654
  699MOL0     H94326   5.810   3.254   9.232 -0.0223 -0.4771  0.5107
  699MOL0     H94327   5.960   3.350   9.243  0.2274  0.2260 -1.5469
  699MOL0     H94328   5.839   3.399   9.132 -1.7144  0.2089  0.5120
  699MOL0     H94329   5.501   3.079   8.949  2.4919  0.2962 -1.9940
  699MOL0     H94330   5.278   3.108   8.935  0.7699 -0.9598 -2.2823
  699MOL0     H94331   4.981   3.306   8.912  3.1846  0.4551 -2.2266
  699MOL0     H94332   5.091   3.174   8.936  1.0580  0.7862 -1.0662
  699MOL0     H94333   4.961   3.100   9.103 -0.2961 -0.2632  0.9958
  699MOL0     H94334   5.026   3.231   9.204 -1.2843  0.4227  1.0715
  699MOL0     H94335   4.843   3.390   9.120 -2.4601  0.5017  0.2355
  699MOL0     H94336   4.806   3.269   9.230 -1.9381 -1.3964 -0.4700
  699MOL0     H94337   4.765   3.275   8.924  1.2214 -0.8604  0.5758
  699MOL0     H94338   4.723   3.129   9.022  0.1112 -1.0252 -0.5100
  699MOL0     H94339   4.533   3.275   8.966 -1.4275 -0.6096 -0.4403
  699MOL0     H94340   4.605   3.400   9.078 -3.9428 -0.0753  0.4464
  699MOL0     H94341   4.567   3.126   9.189  0.1265  0.8956  1.4788
  699MOL0     H94342   4.585   3.283   9.268  1.0527  1.3241 -1.0619
  699MOL0     H94343   4.350   3.206   9.086  0.6839 -1.6525  1.0320
  699MOL0     H94344   4.372   3.343   9.191 -2.8669 -0.5685  1.1954
  699MOL0     H94345   4.215   3.174   9.294 -0.1021  0.9866 -1.2678
  699MOL0     H94346   4.359   3.205   9.394  3.0922 -0.7040 -1.4395
  699MOL0     H94347   5.324   3.531   9.046 -2.7430 -1.1323  0.1749
  699MOL0     H94348   5.577   3.481   9.063  1.1989 -0.6636 -0.2499
  699MOL0     H94349   5.932   3.014   8.804  2.2016  0.0259 -1.1751
  699MOL0     H94350   6.154   2.954   8.860  0.9476 -0.4691  2.2951
  699MOL0     H94351   7.686   3.084   8.739 -1.0825  2.3304  0.9452
  699MOL0     H94352   7.866   2.927   8.828 -0.3928  0.2387 -2.0682
  699MOL0     H94353   8.193   2.939   9.170  0.1298  0.7907 -0.0163
  699MOL0     H94354   8.327   2.789   9.313  0.6923 -1.5031  0.6707
  699MOL0     H94355   8.509   2.701   9.386 -2.0086 -0.2877  1.6839
  699MOL0     H94356   8.376   2.587   9.411 -0.0384  0.2385 -0.2745
  699MOL0     H94357   8.609   2.553   9.522 -0.8831  3.1039 -0.2100
  699MOL0     H94358   8.664   2.487   9.362 -0.2343 -2.9388 -0.1541
  699MOL0     H94359   8.486   2.314   9.379 -1.1952  1.3730 -0.3926
  699MOL0     H94360   8.468   2.368   9.544  1.8418  1.5659  1.6990
  699MOL0     H94361   8.712   2.254   9.413 -1.4253  0.3129  0.0505
  699MOL0     H94362   8.626   2.199   9.569  0.4357 -0.6527  0.7295
  699MOL0     H94363   8.901   2.443   9.736  0.4879  0.9185 -0.2832
  699MOL0     H94364   8.399   2.528   8.963 -3.2726 -1.3874 -0.2364
  699MOL0     H94365   8.293   2.704   8.822 -1.3507 -1.2267  0.4611
  700MOL0     O94366   3.667   8.145   0.023  0.0713 -0.5884 -0.3451
  700MOL0     C94367   3.705   8.031   0.043 -0.4348  0.4759  0.0801
  700MOL0     O94368   3.630   7.911   0.037  0.2092 -0.1701  0.4553
  700MOL0     C94369   3.497   7.915   0.008 -0.8331  1.2587  0.9064
  700MOL0     C94370   3.418   7.810   0.068 -0.9535 -0.4443  1.8649
  700MOL0     C94371   3.286   7.806   0.032  0.8530 -0.4588 -0.3565
  700MOL0     C94372   3.220   7.900  -0.036  0.1530 -0.5930 -1.3616
  700MOL0     O94373   3.086   7.900  -0.070 -1.1852 -0.0068  0.5328
  700MOL0     C94374   2.994   7.884   0.036  0.6869  0.2229  0.0319
  700MOL0     C94375   2.850   7.904  -0.004 -0.0245 -0.3713 -0.4030
  700MOL0     C94376   2.828   8.021  -0.094  0.3794  0.0367 -0.3779
  700MOL0     C94377   2.686   8.026  -0.151  0.8274  0.0410  0.2328
  700MOL0     C94378   2.573   8.083  -0.063 -0.0201 -0.4784 -0.9513
  700MOL0     C94379   2.451   8.084  -0.153 -0.1661  0.4490 -0.0492
  700MOL0     C94380   2.324   8.144  -0.081  0.1758  1.2376  0.3724
  700MOL0     C94381   2.191   8.147  -0.157  0.0779  0.0572  0.6846
  700MOL0     N94382   2.098   8.225  -0.078  0.5205  0.4914 -0.2663
  700MOL0     C94383   2.008   8.173   0.010 -0.6389 -0.8603 -0.2038
  700MOL0     C94384   1.952   8.277   0.076 -0.0270  0.1090 -0.7293
  700MOL0     C94385   1.831   8.266   0.165 -0.4916  0.7599  0.1720
  700MOL0     C94386   1.768   8.408   0.201  0.1594 -0.3487  0.1049
  700MOL0     C94387   1.635   8.418   0.281  0.6422  0.0205  0.5492
  700MOL0     C94388   1.530   8.361   0.189  0.0728 -0.0558  0.0333
  700MOL0     O94389   1.412   8.394   0.251 -0.0254  0.2562 -0.1734
  700MOL0     C94390   1.294   8.343   0.195 -0.2337  0.1602 -0.1813
  700MOL0     C94391   1.176   8.381   0.261 -0.0551  1.3414 -0.3938
  700MOL0     C94392   1.049   8.331   0.222  0.2194 -0.7881  0.3577
  700MOL0     C94393   0.929   8.389   0.301  1.0389 -0.1167 -0.2041
  700MOL0     C94394   1.043   8.253   0.105 -0.6097 -0.4719  0.1314
  700MOL0     C94395   0.916   8.209   0.056  0.6219 -1.0598  0.3073
  700MOL0     O94396   0.831   8.306   0.010  0.1565  0.4326 -0.7080
  700MOL0     C94397   0.695   8.265   0.009 -0.5833 -0.2099 -0.2165
  700MOL0     C94398   0.600   8.321   0.099 -0.2075  0.0208 -0.6828
  700MOL0     C94399   0.466   8.297   0.084  0.7422  1.0957 -0.1308
  700MOL0     C94400   0.416   8.204  -0.019 -0.3773 -0.0493 -0.2347
  700MOL0     O94401   0.276   8.168  -0.031 -0.5234  0.2242 -0.1585
  700MOL0     C94402   0.233   8.051  -0.103  0.2245  0.2505  0.9744
  700MOL0     C94403   0.083   8.063  -0.108 -0.3630  1.3157 -0.0547
  700MOL0     C94404   0.026   7.946  -0.193  0.6563  0.5181  0.6159
  700MOL0     C94405  -0.112   7.987  -0.240 -0.4503  0.8359  0.0702
  700MOL0     C94406  -0.200   7.883  -0.317 -0.1462  0.0811 -0.3343
  700MOL0     C94407  -0.343   7.934  -0.342 -0.3131 -0.6172  0.0066
  700MOL0     C94408  -0.433   7.819  -0.373 -0.2959  0.5506  1.1856
  700MOL0     C94409  -0.578   7.874  -0.393 -0.1258 -0.2867  0.7798
  700MOL0    Cl94410  -0.720   7.756  -0.399 -0.0982  0.2253  0.3331
  700MOL0     C94411   0.513   8.143  -0.099 -0.5221  0.0832 -0.3036
  700MOL0     C94412   0.647   8.176  -0.091 -0.1909  0.5034  0.1188
  700MOL0     O94413   0.898   8.090   0.059  0.0581  0.4584  0.4829
  700MOL0     C94414   1.166   8.218   0.039  0.2523  0.5103 -0.5365
  700MOL0     C94415   1.288   8.260   0.087  0.3434 -0.9969 -0.3059
  700MOL0     N94416   1.992   8.394   0.011  0.9253  0.5720  0.1285
  700MOL0     N94417   2.089   8.356  -0.063  0.6175 -0.7785 -0.7319
  700MOL0     C94418   3.298   8.002  -0.081  0.0891 -0.0511  0.4680
  700MOL0     C94419   3.435   8.013  -0.067 -0.2393 -0.0825  1.0996
  700MOL0     C94420   3.842   8.019   0.077 -0.2341  0.0363 -0.1270
  700MOL0     C94421   3.933   8.113   0.026  1.2171 -0.1821 -0.6671
  700MOL0     C94422   4.067   8.103   0.054 -0.0993 -0.8828  0.3703
  700MOL0     C94423   4.115   8.001   0.126  0.0716  0.3742 -0.3104
  700MOL0     O94424   4.245   7.969   0.155 -0.1866  0.3723  0.4139
  700MOL0     C94425   4.357   8.064   0.137  0.0625 -0.5608 -0.4471
  700MOL0     C94426   4.357   8.178   0.234  0.9534 -0.1580  0.4572
  700MOL0     C94427   4.339   8.131   0.382 -0.0628  0.5376  0.1891
  700MOL0     C94428   4.462   8.077   0.458  0.0588  0.2253  0.7863
  700MOL0     C94429   4.421   8.075   0.599  0.3227  0.1387 -0.0310
  700MOL0     C94430   4.395   8.074   0.709 -0.5281 -0.2763  0.0922
  700MOL0     C94431   4.025   7.900   0.159 -0.1117 -0.1857  0.4460
  700MOL0     C94432   3.890   7.907   0.140  0.4772 -0.1196  0.2421
  700MOL0     H94433   3.464   7.735   0.131 -1.0205 -1.6707  0.4873
  700MOL0     H94434   3.226   7.725   0.072  2.1307  0.3145  3.5833
  700MOL0     H94435   3.008   7.781   0.071 -2.5189 -0.8772 -1.4791
  700MOL0     H94436   3.013   7.953   0.118 -0.8186 -0.9418  1.4429
  700MOL0     H94437   2.829   7.806  -0.049 -2.9812 -0.8599  1.7434
  700MOL0     H94438   2.777   7.901   0.077 -0.0140 -2.2072 -0.4177
  700MOL0     H94439   2.845   8.109  -0.030  1.2470 -0.3240 -0.0997
  700MOL0     H94440   2.901   8.021  -0.174 -0.0045 -0.8316 -0.7372
  700MOL0     H94441   2.705   8.089  -0.238  0.9719 -0.4299 -0.0791
  700MOL0     H94442   2.648   7.930  -0.185 -1.6712  0.9283  0.2822
  700MOL0     H94443   2.558   8.019   0.025 -0.5946  1.8474  0.7243
  700MOL0     H94444   2.602   8.182  -0.026  4.2727 -1.8451  0.0020
  700MOL0     H94445   2.479   8.144  -0.240 -1.8691 -0.4937 -1.3073
  700MOL0     H94446   2.421   7.981  -0.178  1.6257  0.1197 -1.0030
  700MOL0     H94447   2.298   8.092   0.011 -3.3599  0.8226 -0.7203
  700MOL0     H94448   2.348   8.248  -0.053  0.1232  1.8845 -1.7965
  700MOL0     H94449   2.159   8.043  -0.166 -1.8715  0.3806  3.0514
  700MOL0     H94450   2.206   8.188  -0.258 -2.0004  0.2936  0.4309
  700MOL0     H94451   1.994   8.068   0.034 -1.4121 -0.4834  1.1303
  700MOL0     H94452   1.756   8.201   0.117 -0.5818 -0.0511  1.3686
  700MOL0     H94453   1.868   8.220   0.257  3.0053  0.3188 -1.2976
  700MOL0     H94454   1.752   8.453   0.102  2.4421 -1.0147 -0.6081
  700MOL0     H94455   1.841   8.473   0.250 -1.1357  0.4843  0.9909
  700MOL0     H94456   1.605   8.519   0.311  3.5570  0.0011  4.2577
  700MOL0     H94457   1.650   8.363   0.374  0.1165  0.2912  0.7957
  700MOL0     H94458   1.550   8.254   0.175 -0.3588 -0.0857 -0.3897
  700MOL0     H94459   1.527   8.398   0.086 -0.7226  0.5731  0.2754
  700MOL0     H94460   1.178   8.445   0.349 -0.8222 -1.0399  1.4759
  700MOL0     H94461   0.964   8.439   0.391  3.5194 -1.0981 -0.5649
  700MOL0     H94462   0.867   8.461   0.245 -0.9387 -3.6511 -2.9643
  700MOL0     H94463   0.858   8.313   0.335 -3.4494  3.0361 -1.4911
  700MOL0     H94464   0.642   8.379   0.180 -1.9818 -0.2138  0.4586
  700MOL0     H94465   0.393   8.349   0.147  2.5845  2.1151  1.2575
  700MOL0     H94466   0.273   8.058  -0.204 -2.9755  3.8911 -0.3119
  700MOL0     H94467   0.271   7.964  -0.049  0.8887 -0.1923 -0.1709
  700MOL0     H94468   0.046   8.057  -0.006 -3.5774 -0.2759 -1.1680
  700MOL0     H94469   0.056   8.158  -0.156 -0.0277  0.7905 -1.3280
  700MOL0     H94470   0.014   7.863  -0.123  2.8954  0.4794  1.0482
  700MOL0     H94471   0.087   7.921  -0.280  0.4857  0.2649  0.5693
  700MOL0     H94472  -0.162   8.013  -0.146  2.2695  2.1736  1.2524
  700MOL0     H94473  -0.097   8.079  -0.297 -1.5848  0.0035 -1.6292
  700MOL0     H94474  -0.211   7.791  -0.259  1.8607 -0.4353 -0.6863
  700MOL0     H94475  -0.149   7.842  -0.405 -0.9695 -5.2088  1.3198
  700MOL0     H94476  -0.375   7.978  -0.247  4.3776  0.7714  1.2593
  700MOL0     H94477  -0.350   8.009  -0.422  0.2936 -2.7150 -2.1121
  700MOL0     H94478  -0.431   7.745  -0.293  0.6314 -0.7461  0.0071
  700MOL0     H94479  -0.401   7.763  -0.461  0.6602 -0.4534  2.1368
  700MOL0     H94480  -0.584   7.952  -0.470  1.0429 -1.2030 -0.2835
  700MOL0     H94481  -0.596   7.931  -0.302 -0.3474 -0.5796  0.9191
  700MOL0     H94482   0.478   8.071  -0.173  1.0574 -1.4855  0.4198
  700MOL0     H94483   0.717   8.130  -0.159  0.5813 -1.4027  2.0685
  700MOL0     H94484   1.152   8.152  -0.046 -2.5120  1.7810 -1.2044
  700MOL0     H94485   1.374   8.217   0.037  0.0507 -1.9479 -0.0315
  700MOL0     H94486   3.249   8.073  -0.146  2.4733  0.6810 -0.6457
  700MOL0     H94487   3.491   8.087  -0.124 -0.5563 -1.0426 -0.5180
  700MOL0     H94488   3.898   8.209  -0.013 -0.5688  1.1646  3.5646
  700MOL0     H94489   4.127   8.182   0.011 -0.4145 -1.9190 -2.1428
  700MOL0     H94490   4.454   8.013   0.146  0.6616  0.7012  0.8229
  700MOL0     H94491   4.354   8.106   0.036 -3.2113 -1.7823 -0.9805
  700MOL0     H94492   4.276   8.248   0.214  2.4184  1.2539 -0.7655
  700MOL0     H94493   4.455   8.226   0.226  3.1279 -4.3473 -0.8041
  700MOL0     H94494   4.255   8.063   0.398 -1.7618  2.3125 -0.6948
  700MOL0     H94495   4.307   8.217   0.441 -2.2019  0.2736 -0.5180
  700MOL0     H94496   4.550   8.141   0.446 -0.0063  0.2476  0.3935
  700MOL0     H94497   4.492   7.976   0.427  0.4401  0.2113  1.1911
  700MOL0     H94498   4.384   8.074   0.816 -1.6119  1.2724  0.0080
  700MOL0     H94499   4.068   7.813   0.209  2.9812 -0.2101 -1.9304
  700MOL0     H94500   3.829   7.818   0.150 -2.1656  1.1643 -2.8256
  701MOL0     O94501   1.242   6.218   8.214 -0.2486  0.3835 -0.3454
  701MOL0     C94502   1.325   6.137   8.184 -0.8012  0.0564 -0.0750
  701MOL0     O94503   1.324   6.002   8.214 -0.1547  0.0910 -0.4426
  701MOL0     C94504   1.212   5.958   8.275 -0.5909  0.5446  0.2306
  701MOL0     C94505   1.193   5.947   8.414 -0.0298 -0.0130 -0.0030
  701MOL0     C94506   1.068   5.916   8.473  0.1039 -0.5380 -0.0932
  701MOL0     C94507   0.963   5.910   8.386  1.0245 -0.3381  0.3302
  701MOL0     O94508   0.844   5.888   8.452 -0.3929  0.5475  0.0507
  701MOL0     C94509   0.713   5.884   8.388 -0.5846  0.1454 -0.3911
  701MOL0     C94510   0.598   5.932   8.482 -0.1384  0.6187  0.0290
  701MOL0     C94511   0.459   5.882   8.444 -0.6037 -0.1371 -0.1021
  701MOL0     C94512   0.349   5.957   8.522 -0.3850 -0.5292  0.6491
  701MOL0     C94513   0.220   5.889   8.522 -0.4687  0.0769  0.4999
  701MOL0     C94514   0.138   5.913   8.392 -0.5864  0.2724 -0.4272
  701MOL0     C94515  -0.002   5.850   8.405 -0.1987  0.7781 -0.8398
  701MOL0     C94516  -0.112   5.880   8.303  0.2610 -0.4150  0.8827
  701MOL0     N94517  -0.232   5.805   8.318 -0.2050 -0.1707 -0.0671
  701MOL0     C94518  -0.350   5.832   8.250 -0.6128 -0.5435  0.2190
  701MOL0     C94519  -0.441   5.752   8.303 -0.4754  0.3305 -0.0287
  701MOL0     C94520  -0.587   5.754   8.265 -1.2191  0.4053 -0.7638
  701MOL0     C94521  -0.673   5.733   8.388 -0.5212  0.0771 -0.4057
  701MOL0     C94522  -0.819   5.734   8.348 -0.2829  0.9391  0.8845
  701MOL0     C94523  -0.906   5.689   8.465 -0.9440 -0.9296  0.7164
  701MOL0     O94524  -1.039   5.691   8.421  0.2901 -0.2864  0.2674
  701MOL0     C94525  -1.115   5.573   8.395  0.2976 -0.7800  0.0254
  701MOL0     C94526  -1.064   5.445   8.386  0.1518 -0.2866  1.3033
  701MOL0     C94527  -1.145   5.329   8.377  0.2581 -0.1109  0.0619
  701MOL0     C94528  -1.086   5.193   8.388 -0.2450  0.1681 -1.0878
  701MOL0     C94529  -1.279   5.344   8.365  0.3481  0.7818  0.7164
  701MOL0     C94530  -1.385   5.239   8.346 -0.2123  0.8936 -0.6603
  701MOL0     O94531  -1.510   5.275   8.304  0.1520 -0.3630 -0.8491
  701MOL0     C94532  -1.613   5.193   8.309  0.7733  0.2212  0.4346
  701MOL0     C94533  -1.728   5.256   8.358 -0.1909  0.2999  0.2534
  701MOL0     C94534  -1.846   5.182   8.345 -0.6115 -0.4221  0.1910
  701MOL0     C94535  -1.857   5.056   8.293 -0.2278 -0.0750  0.1794
  701MOL0     O94536  -1.974   4.994   8.303 -0.3873  0.5898  0.4661
  701MOL0     C94537  -1.986   4.865   8.236 -0.1661 -0.3968  0.3897
  701MOL0     C94538  -2.134   4.840   8.222 -0.1966  0.1092  0.3439
  701MOL0     C94539  -2.152   4.698   8.160  0.8156  0.2507  0.0810
  701MOL0     C94540  -2.299   4.684   8.113  1.0909 -0.6519 -0.0118
  701MOL0     C94541  -2.394   4.655   8.233 -0.2645 -0.2125  0.1028
  701MOL0     C94542  -2.544   4.634   8.195  0.6022  0.2324  0.3819
  701MOL0     C94543  -2.564   4.499   8.119 -0.1460 -0.4792  0.1767
  701MOL0     C94544  -2.710   4.468   8.083 -0.9506  1.1648  0.6210
  701MOL0    Cl94545  -2.829   4.461   8.213 -0.0562 -0.0940  0.4548
  701MOL0     C94546  -1.737   5.004   8.240  0.4867 -0.4626 -0.1818
  701MOL0     C94547  -1.613   5.071   8.240  0.1685  0.5119 -0.4229
  701MOL0     O94548  -1.358   5.124   8.370  0.4824  0.4300 -0.4509
  701MOL0     C94549  -1.335   5.475   8.375  0.7687 -0.1776  0.0318
  701MOL0     C94550  -1.252   5.588   8.388  0.3982  0.3001 -0.0515
  701MOL0     N94551  -0.381   5.675   8.400  0.2976  0.2843 -1.3636
  701MOL0     N94552  -0.259   5.708   8.416  0.3564 -0.3212  0.8642
  701MOL0     C94553   0.975   5.928   8.248 -0.0581  0.2669  0.2462
  701MOL0     C94554   1.102   5.939   8.187  1.2722 -0.6588 -0.1183
  701MOL0     C94555   1.436   6.190   8.098 -0.2184  0.6652 -0.4846
  701MOL0     C94556   1.445   6.328   8.070  0.3896 -0.5965 -0.5569
  701MOL0     C94557   1.542   6.371   7.985  0.0739 -0.7338  0.7131
  701MOL0     C94558   1.640   6.283   7.937 -0.2274  0.1101 -0.1880
  701MOL0     O94559   1.737   6.331   7.850 -0.2828  1.0020  0.3485
  701MOL0     C94560   1.808   6.231   7.770  1.0456  0.5597 -0.5708
  701MOL0     C94561   1.901   6.284   7.665  0.3927 -0.2159  0.3740
  701MOL0     C94562   1.974   6.160   7.592  0.4695  0.0573 -0.4286
  701MOL0     C94563   2.101   6.192   7.517 -0.2261 -0.1882 -0.8160
  701MOL0     C94564   2.204   6.253   7.604  0.0314  0.1686 -0.7851
  701MOL0     C94565   2.285   6.317   7.665  0.1538  0.1397  0.4309
  701MOL0     C94566   1.638   6.151   7.979 -0.5098  0.0054 -0.6690
  701MOL0     C94567   1.531   6.101   8.051 -0.9099 -0.2314 -0.7949
  701MOL0     H94568   1.280   5.951   8.477  0.6079 -1.6823 -0.7148
  701MOL0     H94569   1.057   5.897   8.579  2.9230  0.4785  0.4590
  701MOL0     H94570   0.715   5.950   8.301  2.2025  0.5971 -0.0634
  701MOL0     H94571   0.694   5.784   8.348  0.9280 -0.5104  0.4452
  701MOL0     H94572   0.625   5.889   8.579  1.0888 -1.6619 -1.2228
  701MOL0     H94573   0.607   6.040   8.493 -3.4223  0.8196  1.8453
  701MOL0     H94574   0.444   5.888   8.336  0.2813 -1.5005 -0.3355
  701MOL0     H94575   0.462   5.777   8.477 -0.3160 -0.2024 -0.3264
  701MOL0     H94576   0.382   5.972   8.625  3.2442  1.7908 -0.6530
  701MOL0     H94577   0.340   6.057   8.479  3.1745  0.7708  2.4846
  701MOL0     H94578   0.244   5.782   8.530 -1.0205 -0.3484 -2.4037
  701MOL0     H94579   0.156   5.924   8.603  0.3636  2.5907  0.1592
  701MOL0     H94580   0.123   6.021   8.385 -0.2399  0.2400 -1.9251
  701MOL0     H94581   0.182   5.876   8.299 -2.9188  1.7596 -2.2451
  701MOL0     H94582   0.012   5.742   8.413 -1.8832  0.6467  1.6483
  701MOL0     H94583  -0.035   5.876   8.506 -0.4873 -1.3300 -0.3317
  701MOL0     H94584  -0.061   5.850   8.211  1.4309  0.1267  1.3203
  701MOL0     H94585  -0.134   5.987   8.305  1.7762 -0.0778  1.1111
  701MOL0     H94586  -0.382   5.915   8.188 -1.8180 -2.1285 -1.3826
  701MOL0     H94587  -0.619   5.851   8.227 -1.5669  0.8245  0.5176
  701MOL0     H94588  -0.618   5.673   8.199 -1.2689 -1.7552  1.7487
  701MOL0     H94589  -0.648   5.812   8.459 -0.9133  1.3081 -1.6168
  701MOL0     H94590  -0.642   5.641   8.440  0.8164  1.3565  1.1441
  701MOL0     H94591  -0.827   5.656   8.271  1.2352  0.3544  1.2771
  701MOL0     H94592  -0.857   5.827   8.306  2.5947  1.7526 -0.1425
  701MOL0     H94593  -0.898   5.762   8.546 -1.9243  1.0300 -0.8735
  701MOL0     H94594  -0.865   5.592   8.495  2.2228  0.3905  0.9880
  701MOL0     H94595  -0.958   5.423   8.391 -0.3437 -3.0209  1.0314
  701MOL0     H94596  -1.117   5.149   8.484  0.9152  1.3377 -0.1495
  701MOL0     H94597  -1.123   5.126   8.310 -2.0112  0.1287 -0.2761
  701MOL0     H94598  -0.977   5.201   8.388 -0.3336  1.5848 -0.4712
  701MOL0     H94599  -1.720   5.358   8.394  1.5875  0.6134 -0.8772
  701MOL0     H94600  -1.936   5.218   8.392  0.0891 -2.0677  2.9936
  701MOL0     H94601  -1.931   4.868   8.142  0.0488  1.4652  0.5232
  701MOL0     H94602  -1.943   4.793   8.306 -0.1511 -1.5911 -0.8123
  701MOL0     H94603  -2.183   4.840   8.320 -1.6068 -0.4814 -0.3419
  701MOL0     H94604  -2.187   4.909   8.156 -2.2890 -0.4305  1.3803
  701MOL0     H94605  -2.125   4.617   8.228 -2.3434 -1.6777 -0.7658
  701MOL0     H94606  -2.091   4.689   8.070 -1.6432 -0.3269 -1.6407
  701MOL0     H94607  -2.329   4.775   8.061  0.2297  0.2241  1.9303
  701MOL0     H94608  -2.311   4.605   8.038 -2.0536  0.0237 -0.3397
  701MOL0     H94609  -2.392   4.743   8.298  1.3989 -1.0870  1.3093
  701MOL0     H94610  -2.361   4.573   8.297 -2.5565 -0.9293  0.4497
  701MOL0     H94611  -2.598   4.625   8.290 -0.6141 -0.0427 -0.3184
  701MOL0     H94612  -2.591   4.718   8.143  2.5233  2.3621  1.8986
  701MOL0     H94613  -2.526   4.415   8.178  0.7565 -1.2682 -1.4724
  701MOL0     H94614  -2.507   4.494   8.026 -0.2924  0.1606  0.0495
  701MOL0     H94615  -2.713   4.368   8.038  0.1233  1.4511 -0.1183
  701MOL0     H94616  -2.743   4.548   8.017 -0.0315  0.9710 -0.0910
  701MOL0     H94617  -1.721   4.908   8.193 -1.8439 -0.2372 -1.5748
  701MOL0     H94618  -1.525   5.036   8.188  0.6563 -1.1647  1.4152
  701MOL0     H94619  -1.442   5.488   8.382  0.9551  1.0088  0.9169
  701MOL0     H94620  -1.298   5.685   8.401 -1.9642 -0.7553  0.0082
  701MOL0     H94621   0.885   5.950   8.192  0.7559  1.3110 -0.6863
  701MOL0     H94622   1.111   5.951   8.080 -2.2109 -0.0570 -0.4320
  701MOL0     H94623   1.365   6.392   8.106  0.4277 -0.3880 -0.8405
  701MOL0     H94624   1.557   6.475   7.956 -0.7768 -1.0909 -1.1846
  701MOL0     H94625   1.874   6.170   7.832  2.0340  1.0757 -1.0968
  701MOL0     H94626   1.733   6.162   7.730  2.4769 -1.9675  0.8797
  701MOL0     H94627   1.974   6.345   7.720 -1.6405  2.8448 -0.0578
  701MOL0     H94628   1.838   6.349   7.603 -1.1262 -0.7969  1.2498
  701MOL0     H94629   1.908   6.131   7.511  2.5074 -0.1416 -2.1120
  701MOL0     H94630   1.989   6.076   7.660 -2.5087 -2.4738 -2.6453
  701MOL0     H94631   2.073   6.258   7.434  0.5002  0.9831 -0.1597
  701MOL0     H94632   2.155   6.102   7.486 -2.6529 -2.4254  1.0290
  701MOL0     H94633   2.357   6.383   7.710  0.5343 -0.5318  0.8159
  701MOL0     H94634   1.718   6.080   7.962 -1.6859 -2.7393  3.5929
  701MOL0     H94635   1.532   6.002   8.096  0.8950 -0.9251 -2.2516
  702MOL0     O94636   0.225   7.916  10.813  0.1967  0.0887 -0.7471
  702MOL0     C94637   0.308   7.998  10.776  0.0760  0.4254  0.3014
  702MOL0     O94638   0.288   8.113  10.702  0.6837  0.3936  0.5337
  702MOL0     C94639   0.161   8.146  10.662  0.0353  0.4900  0.2739
  702MOL0     C94640   0.054   8.122  10.747  0.3657 -0.0670  0.1405
  702MOL0     C94641  -0.073   8.143  10.708  0.0757  0.2220  0.1639
  702MOL0     C94642  -0.102   8.191  10.580  0.8851  0.3935 -0.3384
  702MOL0     O94643  -0.234   8.209  10.531 -0.7530 -0.1108 -0.1154
  702MOL0     C94644  -0.345   8.155  10.605  0.4104  0.1212  0.2879
  702MOL0     C94645  -0.448   8.098  10.502  0.3052 -0.9541 -1.2431
  702MOL0     C94646  -0.521   8.198  10.410  0.1870 -0.1014 -0.3341
  702MOL0     C94647  -0.593   8.307  10.475 -0.4846 -0.3527  0.7078
  702MOL0     C94648  -0.694   8.366  10.373 -0.5927  0.6424  0.8863
  702MOL0     C94649  -0.800   8.457  10.443 -0.7266  0.0829 -0.5838
  702MOL0     C94650  -0.906   8.481  10.342  0.0845  0.1841  0.8029
  702MOL0     C94651  -1.011   8.566  10.402  0.3596  0.5078 -0.0484
  702MOL0     N94652  -1.135   8.579  10.328  0.5766  0.4393  1.0237
  702MOL0     C94653  -1.160   8.680  10.234  0.8924  0.3256  0.5330
  702MOL0     C94654  -1.292   8.661  10.201 -0.1522  0.8381  0.1806
  702MOL0     C94655  -1.377   8.755  10.124  0.1998 -0.3651  0.5406
  702MOL0     C94656  -1.304   8.859  10.042  1.0411  0.0646  0.9349
  702MOL0     C94657  -1.394   8.947   9.956  0.7700  0.3403 -0.3689
  702MOL0     C94658  -1.487   9.044  10.043 -0.1025  0.0288 -0.3325
  702MOL0     O94659  -1.613   8.974  10.077 -0.4841 -0.2887 -0.3791
  702MOL0     C94660  -1.726   9.012  10.019 -0.3535 -1.0374  0.3889
  702MOL0     C94661  -1.730   9.045   9.883 -0.6518  1.0776  0.3919
  702MOL0     C94662  -1.840   9.107   9.825 -0.5576  0.1019  0.7151
  702MOL0     C94663  -1.842   9.122   9.676 -0.2342 -0.3686  0.6167
  702MOL0     C94664  -1.946   9.152   9.907 -0.6591  0.1683  0.3305
  702MOL0     C94665  -2.068   9.222   9.856 -0.3501  0.0126 -0.6207
  702MOL0     O94666  -2.166   9.225   9.950 -0.0017  0.4260  0.3881
  702MOL0     C94667  -2.296   9.223   9.913  0.1986  0.7857 -0.1728
  702MOL0     C94668  -2.378   9.265  10.014  0.6562  0.2291 -0.1667
  702MOL0     C94669  -2.519   9.263   9.986  0.1115  0.7458 -0.4077
  702MOL0     C94670  -2.575   9.226   9.860  0.1901 -0.7563 -0.0066
  702MOL0     O94671  -2.706   9.224   9.842 -0.2476  0.0347  0.3084
  702MOL0     C94672  -2.764   9.094   9.805  0.4628  0.9031  0.5916
  702MOL0     C94673  -2.851   9.118   9.679  0.4464  0.3072  0.1403
  702MOL0     C94674  -2.903   8.984   9.639 -0.1925  1.2037  0.7199
  702MOL0     C94675  -2.993   8.983   9.516 -0.8241 -0.9890 -0.5182
  702MOL0     C94676  -3.041   8.849   9.473 -0.1726  0.0395 -1.0043
  702MOL0     C94677  -3.100   8.858   9.338  0.5776  1.3087  1.6188
  702MOL0     C94678  -3.000   8.878   9.221 -0.9378  0.3724  0.4112
  702MOL0     C94679  -3.071   8.896   9.087  0.0086 -0.4469 -0.1382
  702MOL0    Cl94680  -2.955   8.911   8.965 -0.0063 -0.0049  0.0515
  702MOL0     C94681  -2.485   9.199   9.762 -0.3352 -0.4953 -0.6326
  702MOL0     C94682  -2.348   9.197   9.780  0.1367 -0.3104 -0.6490
  702MOL0     O94683  -2.069   9.274   9.750 -0.0056 -0.1198  0.4293
  702MOL0     C94684  -1.942   9.114  10.048 -0.2157 -0.5776  0.4238
  702MOL0     C94685  -1.835   9.049  10.100  0.0019  0.9700  0.0073
  702MOL0     N94686  -1.346   8.551  10.269 -0.6915  0.3442 -0.1309
  702MOL0     N94687  -1.250   8.505  10.342 -0.8905 -0.1168  0.4598
  702MOL0     C94688   0.004   8.214  10.490  0.1651 -1.1614 -0.5488
  702MOL0     C94689   0.135   8.203  10.532 -0.1783 -0.3958  0.5552
  702MOL0     C94690   0.450   7.981  10.816 -0.2000  0.5434  0.0007
  702MOL0     C94691   0.488   7.886  10.914  0.0311  0.4002  0.2400
  702MOL0     C94692   0.622   7.890  10.949  0.3089  0.5632  0.5534
  702MOL0     C94693   0.721   7.978  10.896  0.2007  0.7200 -0.4381
  702MOL0     O94694   0.849   7.988  10.933  0.0174  0.4383  0.5385
  702MOL0     C94695   0.891   7.901  11.048 -0.0893 -1.5279  0.2032
  702MOL0     C94696   0.931   7.762  11.000  0.8853  0.2053 -0.4005
  702MOL0     C94697   1.063   7.725  11.062  0.7461 -0.4380 -0.1421
  702MOL0     C94698   1.090   7.575  11.025 -0.8281  0.1250 -0.8154
  702MOL0     C94699   1.224   7.540  11.071 -0.6162 -0.4404 -0.0305
  702MOL0     C94700   1.340   7.522  11.104  0.4988 -0.4422  0.2130
  702MOL0     C94701   0.675   8.071  10.799 -0.5470  0.7460 -0.5091
  702MOL0     C94702   0.542   8.064  10.759  0.0031 -0.8661 -0.2625
  702MOL0     H94703   0.079   8.102  10.851 -1.7233 -0.4383  0.6152
  702MOL0     H94704  -0.156   8.126  10.777 -0.0559 -4.5798 -0.8081
  702MOL0     H94705  -0.323   8.068  10.668  0.1671 -0.0483  0.1415
  702MOL0     H94706  -0.390   8.241  10.655  1.6308  0.2807  1.1424
  702MOL0     H94707  -0.401   8.023  10.437 -1.4072 -1.4378 -1.9773
  702MOL0     H94708  -0.525   8.043  10.556  0.1566 -0.4824 -0.9666
  702MOL0     H94709  -0.457   8.253  10.340  0.2268  0.7716  0.3777
  702MOL0     H94710  -0.592   8.140  10.349  0.0455 -0.3549  0.0706
  702MOL0     H94711  -0.647   8.261  10.558 -0.1312  0.3066  1.3118
  702MOL0     H94712  -0.526   8.384  10.514  2.9525 -1.9043 -1.6026
  702MOL0     H94713  -0.643   8.418  10.292 -1.6161  0.8550  0.3562
  702MOL0     H94714  -0.744   8.289  10.313  0.1551  0.6364  0.2659
  702MOL0     H94715  -0.836   8.399  10.529  0.1270 -2.1850 -1.6718
  702MOL0     H94716  -0.751   8.546  10.484 -1.1371 -1.6387  4.3354
  702MOL0     H94717  -0.873   8.527  10.248 -1.3454  0.9379  0.6413
  702MOL0     H94718  -0.955   8.387  10.313  2.6201 -0.7731 -0.8258
  702MOL0     H94719  -0.972   8.668  10.415  0.6201  0.9001 -3.0977
  702MOL0     H94720  -1.034   8.527  10.501 -0.8983  1.2073 -0.0315
  702MOL0     H94721  -1.092   8.760  10.208  0.0930  0.8589  0.0653
  702MOL0     H94722  -1.448   8.703  10.059  1.2728 -2.4748  0.9799
  702MOL0     H94723  -1.427   8.819  10.198 -0.8909  0.4852 -0.8700
  702MOL0     H94724  -1.233   8.803   9.980  1.5550  2.2792 -0.6257
  702MOL0     H94725  -1.244   8.926  10.106 -1.5469  1.3213  2.1997
  702MOL0     H94726  -1.460   8.885   9.894 -0.5374 -0.3059  1.5404
  702MOL0     H94727  -1.334   9.003   9.884 -1.0658  1.0046 -1.4422
  702MOL0     H94728  -1.506   9.142   9.998 -0.0622  0.4213  0.4817
  702MOL0     H94729  -1.433   9.062  10.136  0.4408 -1.7820 -0.2662
  702MOL0     H94730  -1.639   9.030   9.827  0.1127  0.9025  1.6343
  702MOL0     H94731  -1.764   9.067   9.622 -0.5827  0.1547 -0.4433
  702MOL0     H94732  -1.939   9.091   9.637 -0.0290 -0.0564 -0.1591
  702MOL0     H94733  -1.839   9.231   9.664 -0.5750 -0.3315  0.8597
  702MOL0     H94734  -2.348   9.283  10.117 -0.7037  1.5742  0.0351
  702MOL0     H94735  -2.584   9.299  10.065 -1.4220  0.6446 -1.5721
  702MOL0     H94736  -2.689   9.017   9.786 -0.5226 -0.6371  2.5910
  702MOL0     H94737  -2.824   9.050   9.886 -0.4013  0.6836 -0.1434
  702MOL0     H94738  -2.931   9.192   9.692  0.3003  0.4292 -1.3134
  702MOL0     H94739  -2.777   9.164   9.613  2.5229 -0.6027  1.7352
  702MOL0     H94740  -2.952   8.939   9.726 -0.1873  1.0496  0.6437
  702MOL0     H94741  -2.821   8.916   9.613 -1.2514  0.7170 -1.5490
  702MOL0     H94742  -3.081   9.041   9.543  0.4473  1.7657 -1.8678
  702MOL0     H94743  -2.932   9.035   9.441  0.5811 -0.5154  0.9165
  702MOL0     H94744  -3.115   8.804   9.541  0.3478 -1.4980 -1.4152
  702MOL0     H94745  -2.954   8.783   9.473  0.3006  0.6543 -1.0139
  702MOL0     H94746  -3.154   8.764   9.322  0.1699  1.7142  0.4793
  702MOL0     H94747  -3.173   8.939   9.325  1.8132  2.1001 -1.3903
  702MOL0     H94748  -2.946   8.783   9.224  0.7919  1.3128  0.1100
  702MOL0     H94749  -2.935   8.963   9.244  2.0125 -1.1073 -1.8204
  702MOL0     H94750  -3.131   8.987   9.098  1.7429  0.8530 -0.9788
  702MOL0     H94751  -3.130   8.808   9.058  2.5411 -2.5923  0.8500
  702MOL0     H94752  -2.521   9.189   9.660 -1.6854 -1.5021 -0.0845
  702MOL0     H94753  -2.286   9.189   9.691  0.8234 -0.9919 -0.1152
  702MOL0     H94754  -2.030   9.148  10.103 -0.7178  2.3506 -1.9208
  702MOL0     H94755  -1.828   9.021  10.205  0.5422 -2.0226 -0.7365
  702MOL0     H94756  -0.018   8.228  10.385  2.4371 -2.8759 -1.3427
  702MOL0     H94757   0.211   8.215  10.456 -0.1585  1.8791  0.8687
  702MOL0     H94758   0.417   7.827  10.970 -0.5563  0.5834 -0.3041
  702MOL0     H94759   0.643   7.815  11.025 -1.7413 -1.6761 -0.9403
  702MOL0     H94760   0.983   7.943  11.089  1.7489 -3.9147 -1.1829
  702MOL0     H94761   0.813   7.907  11.124 -0.0246  2.0347  0.1435
  702MOL0     H94762   0.936   7.761  10.891 -2.9660  0.0580 -0.7352
  702MOL0     H94763   0.849   7.695  11.029 -1.3444  2.5553 -0.8404
  702MOL0     H94764   1.068   7.737  11.171 -1.0192  4.1152 -0.3486
  702MOL0     H94765   1.141   7.795  11.030  0.6151  1.5136  3.2630
  702MOL0     H94766   1.085   7.553  10.918  2.5197 -1.1524 -0.8252
  702MOL0     H94767   1.020   7.510  11.079 -0.9463  0.5164 -0.4923
  702MOL0     H94768   1.441   7.502  11.134  1.1336 -1.4803 -2.3721
  702MOL0     H94769   0.748   8.136  10.752 -0.8041  1.1180 -0.3961
  702MOL0     H94770   0.511   8.138  10.686 -2.4894  0.0780  1.5814
  703MOL0     O94771   1.505   7.046   2.207 -0.6276  0.2280  0.7613
  703MOL0     C94772   1.542   6.978   2.305  0.1310 -0.8211  0.8977
  703MOL0     O94773   1.456   6.911   2.382 -0.5050  0.5301 -0.2500
  703MOL0     C94774   1.324   6.870   2.343 -0.9452 -0.7849  0.4988
  703MOL0     C94775   1.284   6.860   2.205 -0.0436 -0.4407 -0.4207
  703MOL0     C94776   1.165   6.811   2.165  0.5702  0.4269  0.1235
  703MOL0     C94777   1.070   6.764   2.253 -0.1414  0.4319  0.1457
  703MOL0     O94778   0.957   6.710   2.203  0.0355  0.0674 -0.2995
  703MOL0     C94779   0.895   6.611   2.290  0.1054  0.4720 -0.4397
  703MOL0     C94780   0.749   6.599   2.270  0.0100  0.7735 -0.0023
  703MOL0     C94781   0.718   6.572   2.121 -0.2988 -0.0474 -0.8411
  703MOL0     C94782   0.571   6.547   2.085 -0.0404 -0.5190 -0.3421
  703MOL0     C94783   0.514   6.422   2.145  0.2655  0.4099 -0.0069
  703MOL0     C94784   0.365   6.415   2.146 -0.2695 -0.4398  0.4275
  703MOL0     C94785   0.319   6.291   2.220  0.5525  0.2791  0.3657
  703MOL0     C94786   0.170   6.292   2.261 -0.1588  0.6605 -0.2766
  703MOL0     N94787   0.078   6.281   2.143  1.0995 -0.7094  0.2829
  703MOL0     C94788   0.046   6.160   2.081 -0.0854 -0.2113  0.3780
  703MOL0     C94789   0.009   6.195   1.948  0.6126 -0.1522 -0.1307
  703MOL0     C94790  -0.036   6.101   1.843 -0.3554 -0.1147  0.0003
  703MOL0     C94791  -0.177   6.041   1.875 -0.2515  0.2218 -0.5379
  703MOL0     C94792  -0.210   5.947   1.759  0.3241 -0.0298  0.2335
  703MOL0     C94793  -0.353   5.890   1.793  0.3137  0.0797  0.5525
  703MOL0     O94794  -0.382   5.791   1.701  0.0483  0.8435  0.2440
  703MOL0     C94795  -0.508   5.733   1.717 -0.1433  0.1563 -0.6568
  703MOL0     C94796  -0.538   5.642   1.613 -0.1894  0.0993  0.4646
  703MOL0     C94797  -0.664   5.571   1.604 -0.2631 -0.0771 -0.8502
  703MOL0     C94798  -0.665   5.480   1.479  0.3377  0.5671 -0.8300
  703MOL0     C94799  -0.760   5.604   1.705  0.0298 -0.3622 -0.1241
  703MOL0     C94800  -0.891   5.550   1.689 -0.5166 -0.2592  0.6197
  703MOL0     O94801  -0.947   5.475   1.797 -0.8691  0.1548  0.4521
  703MOL0     C94802  -1.082   5.449   1.803  0.3625  0.1612 -0.7967
  703MOL0     C94803  -1.192   5.527   1.744 -0.5020 -0.4198 -0.2437
  703MOL0     C94804  -1.322   5.497   1.777  1.0342 -0.1658 -0.4547
  703MOL0     C94805  -1.360   5.387   1.863 -0.9075 -0.4496  0.0539
  703MOL0     O94806  -1.489   5.378   1.895 -1.0383 -0.7560  0.6176
  703MOL0     C94807  -1.533   5.329   2.024 -0.0804  0.4301  0.5593
  703MOL0     C94808  -1.533   5.441   2.122  0.3953 -0.2971 -0.0368
  703MOL0     C94809  -1.595   5.402   2.257 -0.3176  0.5927 -0.1256
  703MOL0     C94810  -1.698   5.497   2.314 -0.1021  0.0911 -0.0997
  703MOL0     C94811  -1.768   5.432   2.425 -0.1816 -0.1128 -0.1702
  703MOL0     C94812  -1.866   5.532   2.491  0.1876 -0.1081 -0.2881
  703MOL0     C94813  -1.971   5.591   2.389 -0.4147  0.6054  0.1094
  703MOL0     C94814  -2.098   5.645   2.465 -0.3898 -0.3239  0.0079
  703MOL0    Cl94815  -2.052   5.772   2.575  0.1332 -0.1576  0.2404
  703MOL0     C94816  -1.259   5.300   1.895 -0.1759 -0.2865 -0.8025
  703MOL0     C94817  -1.127   5.331   1.868 -1.3582 -0.3754 -0.7111
  703MOL0     O94818  -0.953   5.591   1.592  0.4700 -0.0413 -0.2067
  703MOL0     C94819  -0.731   5.692   1.812 -0.3515  0.0788  0.0499
  703MOL0     C94820  -0.605   5.757   1.817  0.1473 -0.4919 -0.5508
  703MOL0     N94821   0.013   6.333   1.940 -0.3096  1.3318 -0.3097
  703MOL0     N94822   0.057   6.386   2.055  0.0053 -0.1228  0.2075
  703MOL0     C94823   1.107   6.786   2.391 -0.0858 -0.8589  0.2853
  703MOL0     C94824   1.231   6.839   2.434  0.5439  0.3779 -0.9206
  703MOL0     C94825   1.690   6.987   2.339  0.5008 -0.3435 -0.5175
  703MOL0     C94826   1.781   7.060   2.266 -0.3218 -0.2148  0.8037
  703MOL0     C94827   1.913   7.066   2.308  0.3995  1.0284  1.5933
  703MOL0     C94828   1.960   6.989   2.420  0.0460 -0.6263  0.2261
  703MOL0     O94829   2.092   6.999   2.461  0.3377  0.9666 -0.9725
  703MOL0     C94830   2.178   7.105   2.410  0.6971 -0.0990 -0.8901
  703MOL0     C94831   2.316   7.102   2.467 -0.0129 -0.5012 -0.2509
  703MOL0     C94832   2.407   7.206   2.373  0.6263 -0.2692  0.2536
  703MOL0     C94833   2.536   7.226   2.437 -0.3206 -0.0790 -0.2516
  703MOL0     C94834   2.616   7.108   2.446  0.0391  0.1517  0.6697
  703MOL0     C94835   2.663   6.996   2.457  0.1880  0.0038  0.1348
  703MOL0     C94836   1.867   6.912   2.492  0.8093  0.2414  0.0959
  703MOL0     C94837   1.731   6.917   2.462  0.2293  0.1450 -0.8677
  703MOL0     H94838   1.365   6.872   2.134  2.3060 -0.2129  2.0959
  703MOL0     H94839   1.142   6.812   2.059  0.4890 -1.0111  0.1121
  703MOL0     H94840   0.945   6.515   2.307  1.3956  1.6320  3.3920
  703MOL0     H94841   0.900   6.653   2.391  0.7451 -1.4190  0.3645
  703MOL0     H94842   0.715   6.515   2.331 -0.0956 -1.0609 -2.4357
  703MOL0     H94843   0.691   6.687   2.300 -1.5307 -0.4714  0.8222
  703MOL0     H94844   0.760   6.656   2.065  3.4081  2.7265  5.0738
  703MOL0     H94845   0.765   6.479   2.088 -0.7930 -0.2455 -0.9928
  703MOL0     H94846   0.510   6.629   2.124  2.8229  1.9030 -0.5826
  703MOL0     H94847   0.564   6.538   1.976  0.1472  2.9197 -0.7548
  703MOL0     H94848   0.561   6.343   2.086  3.3821  4.4709 -3.6749
  703MOL0     H94849   0.549   6.408   2.248  1.3311  0.0916 -0.3940
  703MOL0     H94850   0.328   6.503   2.199  1.1147  0.3613  0.0978
  703MOL0     H94851   0.321   6.417   2.046 -2.5587  0.2469  1.3822
  703MOL0     H94852   0.329   6.200   2.160 -3.0787  1.6165 -2.6427
  703MOL0     H94853   0.382   6.278   2.309  2.2305 -3.0026 -1.1113
  703MOL0     H94854   0.147   6.375   2.328  1.5499 -0.9019  2.4319
  703MOL0     H94855   0.157   6.205   2.326 -3.0215  3.0465  2.6860
  703MOL0     H94856   0.043   6.066   2.134 -1.6967  0.2923  1.2595
  703MOL0     H94857  -0.045   6.153   1.747 -1.7948  1.4781  0.9513
  703MOL0     H94858   0.046   6.029   1.844 -1.2923 -1.4604 -3.7003
  703MOL0     H94859  -0.238   6.131   1.873 -0.1655  0.2733 -1.3904
  703MOL0     H94860  -0.185   5.992   1.972 -2.8653 -3.0268 -2.1913
  703MOL0     H94861  -0.136   5.868   1.746  0.4757  0.4839 -2.6246
  703MOL0     H94862  -0.217   6.007   1.668 -1.4063 -0.2601  0.1656
  703MOL0     H94863  -0.421   5.974   1.775  0.9199  0.3605 -0.5210
  703MOL0     H94864  -0.363   5.867   1.900  1.1031 -2.0527  0.2227
  703MOL0     H94865  -0.467   5.626   1.533 -1.2985 -0.6023 -0.4151
  703MOL0     H94866  -0.573   5.431   1.445 -0.3497 -0.7777 -0.8163
  703MOL0     H94867  -0.738   5.403   1.505  0.0070  1.0608 -0.2569
  703MOL0     H94868  -0.706   5.535   1.394 -0.4242  0.5360 -0.4874
  703MOL0     H94869  -1.189   5.620   1.689  1.0413 -0.4589 -0.2667
  703MOL0     H94870  -1.396   5.566   1.737  2.7521  0.8704 -1.9986
  703MOL0     H94871  -1.633   5.284   2.022  0.5432 -1.1256 -3.0718
  703MOL0     H94872  -1.467   5.251   2.061 -0.6192  1.0292  2.9604
  703MOL0     H94873  -1.428   5.468   2.138  0.6173  1.6025 -3.6906
  703MOL0     H94874  -1.589   5.524   2.079 -1.6019 -0.3410  2.2442
  703MOL0     H94875  -1.520   5.386   2.335 -0.7848 -1.3767 -0.0264
  703MOL0     H94876  -1.643   5.305   2.239 -3.4324  2.3161 -2.1073
  703MOL0     H94877  -1.668   5.595   2.352 -0.9806 -0.4922  2.2387
  703MOL0     H94878  -1.770   5.514   2.233 -0.2419  2.0703  0.3806
  703MOL0     H94879  -1.694   5.389   2.492  1.9901  4.4811  0.7898
  703MOL0     H94880  -1.831   5.353   2.384  0.3695  0.3995 -2.1515
  703MOL0     H94881  -1.933   5.486   2.565 -2.2249  1.4686 -1.3460
  703MOL0     H94882  -1.806   5.606   2.544 -1.2103  1.6969 -1.1064
  703MOL0     H94883  -2.004   5.511   2.322 -0.4707 -0.3685  1.2593
  703MOL0     H94884  -1.922   5.674   2.337 -2.1838  0.9660 -1.0593
  703MOL0     H94885  -2.149   5.564   2.518 -1.1701 -0.2007 -0.5449
  703MOL0     H94886  -2.167   5.678   2.387 -0.8730  0.0303  0.5726
  703MOL0     H94887  -1.287   5.201   1.930 -1.9188  1.2798  2.6632
  703MOL0     H94888  -1.046   5.270   1.906 -0.6212  1.7162  1.2889
  703MOL0     H94889  -0.804   5.698   1.893 -0.6419  2.7077 -0.3409
  703MOL0     H94890  -0.582   5.815   1.905 -0.8604 -1.7514  0.5906
  703MOL0     H94891   1.032   6.775   2.469 -0.6166 -1.6027 -0.3131
  703MOL0     H94892   1.255   6.851   2.539 -2.1857  2.7504 -0.4450
  703MOL0     H94893   1.737   7.111   2.182 -0.1342 -1.2651  0.0447
  703MOL0     H94894   1.977   7.131   2.249  0.5571  0.1955  0.8257
  703MOL0     H94895   2.189   7.109   2.301  2.6435  0.3609 -0.7024
  703MOL0     H94896   2.134   7.202   2.435 -2.0536 -1.9271  2.1619
  703MOL0     H94897   2.356   7.001   2.468 -1.9637 -1.3227 -0.8433
  703MOL0     H94898   2.322   7.139   2.570 -0.4333 -2.0149  0.3390
  703MOL0     H94899   2.360   7.303   2.353  0.7067 -0.4224 -0.7792
  703MOL0     H94900   2.424   7.162   2.274 -0.4475  2.4585 -1.2417
  703MOL0     H94901   2.527   7.267   2.538 -2.0488  0.0459 -0.4150
  703MOL0     H94902   2.591   7.302   2.381  1.1915 -1.2829 -0.4475
  703MOL0     H94903   2.716   6.909   2.490 -0.6367 -0.8594 -0.7320
  703MOL0     H94904   1.879   6.851   2.581  3.1839  1.3408  0.6114
  703MOL0     H94905   1.663   6.874   2.534 -1.8703  1.4985 -1.9225
  704MOL0     O94906   7.996  10.941   6.918 -0.0586 -0.3488  0.1754
  704MOL0     C94907   7.974  10.880   6.816 -0.5407 -0.1673  0.6865
  704MOL0     O94908   8.069  10.844   6.719  0.4196  0.2322  0.6302
  704MOL0     C94909   8.196  10.888   6.728 -1.5582 -0.7098 -0.4815
  704MOL0     C94910   8.241  10.983   6.636  0.2672  0.3054  0.4523
  704MOL0     C94911   8.376  11.025   6.625 -0.3699  0.2285  0.4885
  704MOL0     C94912   8.457  11.000   6.735  0.2010  0.4818 -0.0663
  704MOL0     O94913   8.586  11.049   6.747 -0.0502 -0.4987 -0.1955
  704MOL0     C94914   8.679  11.042   6.635  0.1201  0.8774 -0.5951
  704MOL0     C94915   8.744  10.904   6.629 -0.4456  0.0769  0.2652
  704MOL0     C94916   8.663  10.783   6.560 -0.2066  0.1780 -0.1770
  704MOL0     C94917   8.707  10.654   6.628 -0.4618  0.4345 -1.0637
  704MOL0     C94918   8.673  10.526   6.549  0.3014 -0.3508 -0.0176
  704MOL0     C94919   8.531  10.535   6.500 -0.1089  0.2422 -0.3960
  704MOL0     C94920   8.488  10.413   6.430  0.0860 -0.3125  0.2034
  704MOL0     C94921   8.354  10.421   6.355 -0.0867 -0.5137 -0.3607
  704MOL0     N94922   8.253  10.426   6.460  0.2130  1.0106  0.0096
  704MOL0     C94923   8.204  10.313   6.530  0.7560 -1.7554  0.4136
  704MOL0     C94924   8.093  10.357   6.599 -0.4441 -0.5941  0.5278
  704MOL0     C94925   7.998  10.282   6.681  0.9333  0.3445  0.1159
  704MOL0     C94926   7.851  10.334   6.652 -0.6749  0.3985 -0.1360
  704MOL0     C94927   7.792  10.289   6.516  0.0437 -0.1832 -0.0664
  704MOL0     C94928   7.641  10.301   6.493 -0.1566  0.8678  0.4705
  704MOL0     O94929   7.570  10.230   6.600  0.5724 -0.6152  0.2832
  704MOL0     C94930   7.430  10.229   6.604 -0.5016 -0.0838  0.1493
  704MOL0     C94931   7.345  10.260   6.494 -0.4215 -0.3977 -0.1705
  704MOL0     C94932   7.205  10.239   6.499  0.2986  0.6226 -0.0563
  704MOL0     C94933   7.131  10.271   6.363 -0.4189  0.5955 -0.1978
  704MOL0     C94934   7.141  10.202   6.621 -0.0333  0.4142  0.3162
  704MOL0     C94935   6.999  10.168   6.624  0.2944 -0.1320 -0.1352
  704MOL0     O94936   6.924  10.167   6.517 -0.2075  0.1878  0.4754
  704MOL0     C94937   6.798  10.136   6.537  0.7656 -0.1061 -0.2592
  704MOL0     C94938   6.703  10.243   6.509 -0.3066  0.0015  0.2805
  704MOL0     C94939   6.566  10.217   6.530 -0.6119  0.6952  0.1415
  704MOL0     C94940   6.522  10.085   6.570  0.6702 -0.0054 -0.6008
  704MOL0     O94941   6.387  10.056   6.591 -0.5489 -0.0641 -0.0151
  704MOL0     C94942   6.285  10.160   6.581  0.8628  0.1214 -0.0265
  704MOL0     C94943   6.185  10.111   6.678 -0.4473  0.6343 -0.5512
  704MOL0     C94944   6.056  10.188   6.647 -0.4358 -0.1497 -0.1809
  704MOL0     C94945   5.953  10.188   6.757 -0.0683 -0.4669 -0.1266
  704MOL0     C94946   5.862  10.314   6.745  0.6129  0.6762 -0.2577
  704MOL0     C94947   5.742  10.288   6.836  1.1420 -0.0118 -0.1561
  704MOL0     C94948   5.645  10.413   6.832  0.1195 -0.2853  0.6759
  704MOL0     C94949   5.550  10.382   6.942 -0.0748  0.5411  0.5313
  704MOL0    Cl94950   5.466  10.222   6.930 -0.1037  0.1093 -0.3191
  704MOL0     C94951   6.618   9.981   6.598 -0.5617  0.8391  0.2263
  704MOL0     C94952   6.750  10.017   6.584 -0.5659 -0.2139  0.1497
  704MOL0     O94953   6.960  10.131   6.742  0.2974 -1.1157 -0.2080
  704MOL0     C94954   7.232  10.179   6.732 -0.1386  0.9730  0.6283
  704MOL0     C94955   7.367  10.189   6.721  0.5505 -0.4741 -0.7234
  704MOL0     N94956   8.087  10.497   6.582  0.6454 -0.6216 -0.4061
  704MOL0     N94957   8.187  10.530   6.514  0.0662 -0.4487 -0.9872
  704MOL0     C94958   8.411  10.915   6.836 -0.6878 -0.9557 -0.1600
  704MOL0     C94959   8.289  10.858   6.833  0.2571 -0.6111  0.2461
  704MOL0     C94960   7.835  10.823   6.793  0.5571 -0.5917 -0.4230
  704MOL0     C94961   7.740  10.866   6.882  0.5380  0.2146 -0.5045
  704MOL0     C94962   7.613  10.801   6.867  0.4040 -0.3867  0.5240
  704MOL0     C94963   7.592  10.697   6.776  1.0237  0.7599 -0.3550
  704MOL0     O94964   7.463  10.640   6.756 -0.5146  0.3953 -0.1127
  704MOL0     C94965   7.353  10.696   6.829  0.4920 -0.2104  0.0832
  704MOL0     C94966   7.331  10.644   6.969  0.7370 -0.1623  0.1263
  704MOL0     C94967   7.286  10.750   7.067  0.3398  0.2885 -0.7419
  704MOL0     C94968   7.294  10.706   7.217 -0.0874  0.1016 -0.0403
  704MOL0     C94969   7.195  10.602   7.243  0.7026  0.5168  0.7895
  704MOL0     C94970   7.101  10.533   7.282 -0.1359 -0.2428  0.0295
  704MOL0     C94971   7.695  10.654   6.693  0.0575  0.5053  0.4546
  704MOL0     C94972   7.812  10.728   6.687 -0.9966 -0.1452 -0.2099
  704MOL0     H94973   8.174  11.028   6.564 -0.0098  0.1505  0.6093
  704MOL0     H94974   8.402  11.086   6.538 -1.8937 -1.1490 -1.0055
  704MOL0     H94975   8.628  11.071   6.543  1.0249  0.3785 -1.2670
  704MOL0     H94976   8.755  11.120   6.639  2.4808 -1.3004 -0.5391
  704MOL0     H94977   8.832  10.914   6.565 -1.1081 -2.3798 -1.1807
  704MOL0     H94978   8.767  10.876   6.731  1.5512  1.0208  0.1142
  704MOL0     H94979   8.559  10.814   6.573  0.0256  0.2699  1.6844
  704MOL0     H94980   8.681  10.771   6.453  0.3286  0.0273 -0.0721
  704MOL0     H94981   8.815  10.655   6.646 -0.6024 -1.4223  0.0745
  704MOL0     H94982   8.658  10.655   6.726  1.3687 -1.5980 -0.0491
  704MOL0     H94983   8.735  10.527   6.459 -1.6776 -0.2497 -1.4447
  704MOL0     H94984   8.691  10.443   6.618  1.2506  0.8636  1.2664
  704MOL0     H94985   8.463  10.561   6.582  2.3874 -2.7640  2.9301
  704MOL0     H94986   8.517  10.611   6.422 -1.1332  0.7594  0.2812
  704MOL0     H94987   8.555  10.381   6.350 -3.4939  0.7010 -3.5647
  704MOL0     H94988   8.480  10.337   6.508 -1.4099 -0.2238  0.1740
  704MOL0     H94989   8.344  10.331   6.293  0.4743 -1.9989  1.5989
  704MOL0     H94990   8.350  10.512   6.295  0.5753 -0.1158  0.1826
  704MOL0     H94991   8.241  10.211   6.530  0.7361 -1.7723  1.2752
  704MOL0     H94992   8.004  10.174   6.666  0.3540  0.2521  0.5433
  704MOL0     H94993   8.007  10.300   6.788 -0.9732 -0.6047  0.4742
  704MOL0     H94994   7.836  10.439   6.677  1.5392  0.1018  2.9988
  704MOL0     H94995   7.791  10.283   6.728  2.7212 -2.6790  0.7306
  704MOL0     H94996   7.818  10.184   6.501 -1.3981 -0.7754  1.2767
  704MOL0     H94997   7.836  10.343   6.432 -1.8236 -1.8257 -2.2232
  704MOL0     H94998   7.616  10.264   6.394  0.6798  0.0554  0.5469
  704MOL0     H94999   7.615  10.407   6.502  2.7369  1.6133  1.0242
  704MOL0     H95000   7.384  10.305   6.403 -1.4140 -0.4757 -0.6507
  704MOL0     H95001   7.040  10.329   6.378 -1.0940 -0.7658  1.1727
  704MOL0     H95002   7.203  10.320   6.296  1.1364  2.5065  2.6420
  704MOL0     H95003   7.096  10.182   6.311 -1.3282 -0.9755  2.8757
  704MOL0     H95004   6.742  10.340   6.481 -0.7736  0.2919  0.6267
  704MOL0     H95005   6.492  10.295   6.526 -2.8659 -1.3005  0.6059
  704MOL0     H95006   6.321  10.256   6.620  2.8368  0.6749 -2.9445
  704MOL0     H95007   6.243  10.171   6.481 -0.4996  1.3254  0.6428
  704MOL0     H95008   6.180  10.002   6.675  0.9563  0.4399  1.9909
  704MOL0     H95009   6.206  10.128   6.784 -1.5138  1.6628 -0.4834
  704MOL0     H95010   6.007  10.163   6.552 -0.3436  2.0189 -0.8656
  704MOL0     H95011   6.090  10.289   6.620  1.5440 -1.2088 -1.9880
  704MOL0     H95012   5.892  10.098   6.744  0.2213 -0.6872  0.0452
  704MOL0     H95013   5.995  10.183   6.858  2.8588  0.1000 -1.2033
  704MOL0     H95014   5.821  10.333   6.645  1.5114 -0.2062 -0.8057
  704MOL0     H95015   5.926  10.400   6.769  3.1364 -0.8250 -1.2185
  704MOL0     H95016   5.688  10.200   6.799 -0.1504  2.2079 -4.2324
  704MOL0     H95017   5.785  10.277   6.936  0.5694  1.7061  0.3076
  704MOL0     H95018   5.609  10.430   6.730 -0.0363 -0.8267  0.6357
  704MOL0     H95019   5.694  10.505   6.866  0.7755  0.5326 -2.1622
  704MOL0     H95020   5.476  10.462   6.939  1.3680  1.8998 -0.2475
  704MOL0     H95021   5.588  10.396   7.044 -2.5258  2.9184  1.2384
  704MOL0     H95022   6.588   9.887   6.642  1.1444  0.6858  1.0974
  704MOL0     H95023   6.813   9.937   6.619 -1.4452 -0.8453  0.3181
  704MOL0     H95024   7.192  10.147   6.827  0.1107  2.2120  1.1607
  704MOL0     H95025   7.430  10.191   6.809 -1.8818  1.3470  1.1271
  704MOL0     H95026   8.483  10.903   6.916 -0.4563 -0.7748 -0.3415
  704MOL0     H95027   8.260  10.792   6.913 -1.4852  0.0547  0.1961
  704MOL0     H95028   7.760  10.932   6.966 -0.5563  2.3736 -1.8423
  704MOL0     H95029   7.533  10.828   6.934 -1.0136  1.3562 -1.7099
  704MOL0     H95030   7.368  10.804   6.835  1.2070 -0.3180  0.3870
  704MOL0     H95031   7.263  10.684   6.768  0.6672 -1.6550  0.0754
  704MOL0     H95032   7.428  10.606   7.001 -0.0756  0.3473  3.6673
  704MOL0     H95033   7.255  10.566   6.967 -1.7540  1.8832  3.5931
  704MOL0     H95034   7.184  10.782   7.048  1.0027  2.9140 -0.3188
  704MOL0     H95035   7.350  10.840   7.061  1.9344 -0.7717 -0.3909
  704MOL0     H95036   7.261  10.791   7.277 -1.3422 -2.2467  2.8832
  704MOL0     H95037   7.393  10.668   7.244 -0.6436  0.0722  2.1782
  704MOL0     H95038   7.016  10.474   7.310  0.1891 -1.8780 -2.1066
  704MOL0     H95039   7.668  10.585   6.613 -1.7191  2.1188 -0.4448
  704MOL0     H95040   7.881  10.692   6.612  0.3359 -0.9100  1.3289
  705MOL0     O95041   1.123  11.097   1.861  0.2952 -0.1783  0.0421
  705MOL0     C95042   1.171  11.021   1.946  0.0803 -0.0567  0.1506
  705MOL0     O95043   1.114  10.908   2.004 -0.0488  0.3073 -0.1607
  705MOL0     C95044   0.991  10.866   1.967  0.0724  0.4075  0.1669
  705MOL0     C95045   0.933  10.868   1.837 -0.7914  0.2901 -0.5976
  705MOL0     C95046   0.804  10.831   1.805  0.6954 -0.5479 -0.3729
  705MOL0     C95047   0.731  10.755   1.895  0.2857 -0.1686  1.6295
  705MOL0     O95048   0.617  10.703   1.835 -0.5054  0.1213 -0.2080
  705MOL0     C95049   0.543  10.610   1.914  0.6431  0.3293 -0.2939
  705MOL0     C95050   0.427  10.555   1.822 -0.3940  0.6922 -0.4550
  705MOL0     C95051   0.310  10.519   1.912 -0.1857 -0.0419  0.1826
  705MOL0     C95052   0.238  10.397   1.847  0.1905  0.1213 -0.1358
  705MOL0     C95053   0.103  10.360   1.905  1.1666 -0.3266  0.1238
  705MOL0     C95054   0.011  10.289   1.809 -0.3287 -0.1244 -0.4819
  705MOL0     C95055  -0.115  10.253   1.881 -0.1519 -0.4711  0.1134
  705MOL0     C95056  -0.208  10.182   1.782  0.7157 -0.4259 -0.5484
  705MOL0     N95057  -0.347  10.178   1.827 -0.8084  0.0266  0.1027
  705MOL0     C95058  -0.404  10.227   1.942 -0.4860 -0.1554 -0.4256
  705MOL0     C95059  -0.537  10.207   1.933  0.0581  0.2232  0.1750
  705MOL0     C95060  -0.640  10.271   2.023 -0.5381  0.2822 -0.6057
  705MOL0     C95061  -0.709  10.170   2.110 -0.1549 -0.1242  1.0601
  705MOL0     C95062  -0.799  10.065   2.040  0.3842  0.5158  0.6273
  705MOL0     C95063  -0.854   9.965   2.143 -0.9530 -0.3870  0.0265
  705MOL0     O95064  -0.938   9.862   2.095  0.3398 -0.3293  0.6146
  705MOL0     C95065  -1.071   9.885   2.085  0.2859  0.4270 -0.2571
  705MOL0     C95066  -1.129  10.008   2.104  0.1825  0.4548  0.6458
  705MOL0     C95067  -1.265  10.033   2.078 -0.5651 -0.6116 -0.1332
  705MOL0     C95068  -1.314  10.175   2.117 -0.9062  0.1812  0.2906
  705MOL0     C95069  -1.353   9.935   2.022  1.3692  0.8618  1.0715
  705MOL0     C95070  -1.500   9.949   1.991  0.7165 -0.0506  0.2913
  705MOL0     O95071  -1.570   9.833   1.966  0.2007  0.0813  0.1010
  705MOL0     C95072  -1.704   9.841   1.930 -0.6300  0.3135  0.3011
  705MOL0     C95073  -1.799   9.876   2.028  0.8908 -0.2972  0.5523
  705MOL0     C95074  -1.930   9.867   2.005  0.0544 -0.5228  0.8164
  705MOL0     C95075  -1.982   9.833   1.884  0.6788  0.3404  0.0331
  705MOL0     O95076  -2.123   9.817   1.882 -0.0133 -0.4880  0.0313
  705MOL0     C95077  -2.199   9.899   1.797  0.4096  0.1241  0.0996
  705MOL0     C95078  -2.178  10.051   1.784  0.1492  0.1641 -1.2993
  705MOL0     C95079  -2.282  10.108   1.690 -0.1483 -0.9887 -0.5138
  705MOL0     C95080  -2.301  10.266   1.705  0.6941  0.1992 -0.0995
  705MOL0     C95081  -2.410  10.315   1.799 -0.2265  1.0118 -0.0532
  705MOL0     C95082  -2.445  10.464   1.768  0.0451 -0.4260 -0.1348
  705MOL0     C95083  -2.534  10.516   1.880  0.8099  0.1848  0.1012
  705MOL0     C95084  -2.644  10.608   1.827 -0.0566  0.7088  0.2800
  705MOL0    Cl95085  -2.767  10.642   1.954 -0.0651  0.2865  0.1859
  705MOL0     C95086  -1.889   9.812   1.779  0.5261 -0.5975 -0.8112
  705MOL0     C95087  -1.750   9.814   1.799  0.9877 -0.4458  1.6396
  705MOL0     O95088  -1.540  10.062   1.977 -0.3676 -0.6459  0.6239
  705MOL0     C95089  -1.291   9.810   2.010 -0.2725  1.0703 -0.3303
  705MOL0     C95090  -1.151   9.784   2.044  0.1565 -0.5439 -0.2991
  705MOL0     N95091  -0.554  10.134   1.815  1.0114  0.7871  0.0739
  705MOL0     N95092  -0.440  10.115   1.752  0.0227 -0.4543 -0.9599
  705MOL0     C95093   0.782  10.747   2.019 -0.8205 -0.3220 -0.1524
  705MOL0     C95094   0.906  10.804   2.055 -0.9794 -0.1301  0.8496
  705MOL0     C95095   1.306  11.072   1.996  0.1229  0.6477 -0.4003
  705MOL0     C95096   1.346  11.205   1.988 -0.1701  0.3865  0.4326
  705MOL0     C95097   1.476  11.240   2.033 -0.4364 -0.4407 -0.4218
  705MOL0     C95098   1.562  11.146   2.094 -0.3391 -0.4661  0.8441
  705MOL0     O95099   1.677  11.185   2.156 -0.5087 -0.2467  0.8564
  705MOL0     C95100   1.677  11.164   2.299  0.3635 -0.4788  0.0115
  705MOL0     C95101   1.811  11.097   2.346  0.3424 -0.0848 -0.0343
  705MOL0     C95102   1.925  11.183   2.318 -1.0704 -0.0574 -0.4161
  705MOL0     C95103   2.055  11.106   2.326  0.1293 -0.4393  0.1080
  705MOL0     C95104   2.178  11.190   2.315 -0.2669 -0.9930 -0.4542
  705MOL0     C95105   2.288  11.247   2.309  0.0940 -0.2106 -0.0858
  705MOL0     C95106   1.525  11.010   2.091  0.3230 -0.4917 -0.2807
  705MOL0     C95107   1.400  10.977   2.042 -0.3936  0.9876 -0.1224
  705MOL0     H95108   0.992  10.905   1.755  0.2262 -1.0116 -0.4782
  705MOL0     H95109   0.763  10.853   1.707  0.3899 -0.6736 -0.2756
  705MOL0     H95110   0.597  10.521   1.944 -2.2971 -1.4889  0.0279
  705MOL0     H95111   0.509  10.649   2.010 -0.5532  1.1273 -1.0094
  705MOL0     H95112   0.408  10.637   1.752  0.8052  1.1816 -0.2447
  705MOL0     H95113   0.452  10.466   1.764 -3.3175 -0.3749 -0.2460
  705MOL0     H95114   0.356  10.491   2.008  3.4306  0.1352 -1.3148
  705MOL0     H95115   0.242  10.604   1.921  0.6053  0.5137  1.2164
  705MOL0     H95116   0.219  10.419   1.742  0.0111 -0.4340 -0.2237
  705MOL0     H95117   0.307  10.312   1.856  0.3296  0.0722 -1.4620
  705MOL0     H95118   0.106  10.317   2.005 -0.7276  0.4456  0.5633
  705MOL0     H95119   0.046  10.450   1.928  0.8301 -0.8680  1.5264
  705MOL0     H95120  -0.004  10.355   1.723  0.9053  0.3682 -0.3355
  705MOL0     H95121   0.060  10.198   1.773  0.8050 -0.6162  2.1232
  705MOL0     H95122  -0.082  10.181   1.957  1.9569  0.7618  0.4338
  705MOL0     H95123  -0.167  10.342   1.916 -0.1694  0.5010 -2.1824
  705MOL0     H95124  -0.163  10.083   1.772 -0.6367 -1.1884  0.5270
  705MOL0     H95125  -0.211  10.231   1.685  1.2125 -0.2724 -0.4906
  705MOL0     H95126  -0.353  10.288   2.016 -0.2685 -1.2966  0.3956
  705MOL0     H95127  -0.580  10.324   2.098  0.2005 -0.6165 -0.5436
  705MOL0     H95128  -0.718  10.327   1.971 -1.1664  0.2696  0.2879
  705MOL0     H95129  -0.770  10.219   2.186 -0.8659  0.0426  0.3907
  705MOL0     H95130  -0.631  10.116   2.163 -1.3820 -3.3601 -0.1539
  705MOL0     H95131  -0.732  10.016   1.968  0.6774 -1.2830  2.0372
  705MOL0     H95132  -0.885  10.109   1.989  1.1293  0.9251 -0.3141
  705MOL0     H95133  -0.911  10.018   2.219 -0.3773  0.2836  0.0009
  705MOL0     H95134  -0.768   9.916   2.191 -0.3384 -0.8781 -1.5264
  705MOL0     H95135  -1.073  10.096   2.134  1.5450 -0.1762  0.0623
  705MOL0     H95136  -1.246  10.218   2.191  2.2863 -0.8417 -1.7954
  705MOL0     H95137  -1.319  10.239   2.028  1.5169 -0.2239 -0.2177
  705MOL0     H95138  -1.412  10.168   2.165 -0.9418 -0.7279  0.1105
  705MOL0     H95139  -1.765   9.899   2.129  2.5604 -2.0985  0.4634
  705MOL0     H95140  -1.991   9.895   2.090  0.4600  0.2694  0.8481
  705MOL0     H95141  -2.184   9.862   1.695  0.9997 -3.3046  1.3021
  705MOL0     H95142  -2.303   9.890   1.829 -0.0039  2.3253 -0.4086
  705MOL0     H95143  -2.179  10.103   1.880 -2.4704 -0.0689 -1.1243
  705MOL0     H95144  -2.077  10.070   1.746  1.9174 -1.5915  2.0668
  705MOL0     H95145  -2.374  10.052   1.705  0.1312 -1.6151 -1.0821
  705MOL0     H95146  -2.260  10.087   1.584 -2.1944 -1.2776 -0.9100
  705MOL0     H95147  -2.204  10.307   1.735  0.4879 -0.4614  1.6123
  705MOL0     H95148  -2.319  10.314   1.609 -0.5112  0.8956  0.4556
  705MOL0     H95149  -2.359  10.310   1.895 -2.0544  0.8424  0.9557
  705MOL0     H95150  -2.497  10.248   1.799  0.7282 -0.2952  1.5063
  705MOL0     H95151  -2.355  10.527   1.766  0.7029 -1.3656 -1.3489
  705MOL0     H95152  -2.498  10.468   1.673 -1.5976 -1.3717  0.7079
  705MOL0     H95153  -2.477  10.582   1.946  1.8173  1.1777 -1.6837
  705MOL0     H95154  -2.586  10.435   1.932  0.1300 -0.0364 -0.8820
  705MOL0     H95155  -2.686  10.568   1.734  0.0882  0.8115  0.1697
  705MOL0     H95156  -2.606  10.707   1.801 -0.8027  0.7203 -0.8698
  705MOL0     H95157  -1.927   9.790   1.679 -0.2010  1.0993 -0.9499
  705MOL0     H95158  -1.676   9.799   1.720 -1.1463  1.4676 -0.9101
  705MOL0     H95159  -1.355   9.724   1.990 -0.9534  0.9132  2.1242
  705MOL0     H95160  -1.116   9.682   2.026  2.9960  0.3474 -0.2126
  705MOL0     H95161   0.735  10.670   2.080  0.7950 -1.3433 -0.1422
  705MOL0     H95162   0.930  10.787   2.159 -3.4872 -0.3934  1.4585
  705MOL0     H95163   1.286  11.282   1.940  1.5233 -0.3010 -3.0997
  705MOL0     H95164   1.516  11.341   2.029 -1.1090 -0.1139  0.7722
  705MOL0     H95165   1.680  11.264   2.342 -1.0916  0.5262 -2.0129
  705MOL0     H95166   1.591  11.108   2.336 -1.2582  0.7636 -1.6593
  705MOL0     H95167   1.816  10.999   2.297 -4.1563 -0.5569  0.0801
  705MOL0     H95168   1.801  11.079   2.453  1.3729  2.0538  0.4824
  705MOL0     H95169   1.937  11.263   2.391  0.1964  0.2419 -0.9349
  705MOL0     H95170   1.924  11.225   2.217 -1.7399  1.2638  0.1199
  705MOL0     H95171   2.050  11.033   2.245  1.5947  3.3859 -3.7968
  705MOL0     H95172   2.066  11.054   2.422  0.0258 -2.2668 -0.8353
  705MOL0     H95173   2.375  11.310   2.307 -0.0468 -0.0140 -0.0764
  705MOL0     H95174   1.582  10.927   2.134 -0.0367  0.1994  1.6516
  705MOL0     H95175   1.368  10.875   2.063 -1.8072  1.0685 -1.6502
  706MOL0     O95176   1.087   7.186   3.579  0.2883  0.0080 -0.1722
  706MOL0     C95177   1.145   7.105   3.655 -1.1347  0.6343  0.3357
  706MOL0     O95178   1.110   7.067   3.778  0.3669  0.0269  0.7177
  706MOL0     C95179   0.973   7.063   3.805  0.1910  0.3771 -0.3817
  706MOL0     C95180   0.884   7.000   3.713  0.7453 -1.1130  0.5059
  706MOL0     C95181   0.752   6.980   3.753  0.3684 -0.8819  0.2516
  706MOL0     C95182   0.712   7.017   3.883  0.5267 -0.6289 -0.2247
  706MOL0     O95183   0.585   7.020   3.922  0.0806 -0.9381  0.2217
  706MOL0     C95184   0.482   6.968   3.839  0.3229 -0.2599  0.0398
  706MOL0     C95185   0.358   6.961   3.919  0.6851 -1.4272 -0.6797
  706MOL0     C95186   0.317   7.100   3.971 -0.1578 -0.3477 -0.7577
  706MOL0     C95187   0.181   7.093   4.030 -0.1849  0.6122  0.6149
  706MOL0     C95188   0.155   7.215   4.116  0.2443  0.5711 -0.2250
  706MOL0     C95189   0.010   7.219   4.163  0.0155  1.0936 -0.2556
  706MOL0     C95190  -0.102   7.228   4.062  0.3958  0.2726  0.0360
  706MOL0     C95191  -0.081   7.311   3.934 -0.5786 -0.2226  0.9835
  706MOL0     N95192  -0.192   7.280   3.845  0.4708 -1.1834  0.8031
  706MOL0     C95193  -0.331   7.298   3.871  0.5607 -0.7378  0.2404
  706MOL0     C95194  -0.385   7.235   3.759 -0.4385  0.4957  0.1457
  706MOL0     C95195  -0.533   7.218   3.737 -0.1269 -0.1960  0.0760
  706MOL0     C95196  -0.613   7.171   3.854 -1.6024 -0.2602  0.4750
  706MOL0     C95197  -0.763   7.168   3.822 -0.4669  0.2747 -1.1110
  706MOL0     C95198  -0.804   7.102   3.687  0.2706 -0.5384  0.0903
  706MOL0     O95199  -0.946   7.124   3.664  0.1562 -0.2016 -0.1840
  706MOL0     C95200  -0.999   7.091   3.539  0.3407  0.3578  0.1668
  706MOL0     C95201  -0.928   7.029   3.435  0.0303  0.1504  0.7017
  706MOL0     C95202  -0.978   7.019   3.305 -0.0380  0.0122  0.4315
  706MOL0     C95203  -0.896   6.941   3.194  1.0857 -1.3914 -0.8475
  706MOL0     C95204  -1.102   7.068   3.274  0.3267 -0.7121 -0.3628
  706MOL0     C95205  -1.159   7.063   3.140  0.0945 -0.4870 -0.3415
  706MOL0     O95206  -1.284   7.007   3.137 -0.1104  0.5619  0.9024
  706MOL0     C95207  -1.356   7.006   3.019  0.7415  0.2680  0.6260
  706MOL0     C95208  -1.298   6.973   2.892  0.6605  1.1362  0.2251
  706MOL0     C95209  -1.372   6.967   2.776  1.3219 -0.6785  1.0320
  706MOL0     C95210  -1.509   6.994   2.767  0.1065  0.5208 -0.2963
  706MOL0     O95211  -1.593   6.973   2.662  0.4249 -0.0560 -0.1707
  706MOL0     C95212  -1.539   6.950   2.529  0.4956  0.9203  0.3327
  706MOL0     C95213  -1.651   6.928   2.421 -0.4651 -0.6616  0.9305
  706MOL0     C95214  -1.617   6.989   2.288 -0.4332 -0.1995  0.1279
  706MOL0     C95215  -1.481   6.943   2.232 -0.3267  0.5804  1.0424
  706MOL0     C95216  -1.413   7.021   2.127 -0.2398  0.0007  0.5668
  706MOL0     C95217  -1.492   7.034   2.001 -0.7297 -0.4760  0.4359
  706MOL0     C95218  -1.406   7.101   1.896  0.5961  0.2589  0.4174
  706MOL0     C95219  -1.403   7.250   1.901  0.0006  0.5382 -0.5437
  706MOL0    Cl95220  -1.545   7.333   1.833 -0.4829  0.1758 -0.0936
  706MOL0     C95221  -1.571   7.018   2.893  0.7677 -0.6904  0.2806
  706MOL0     C95222  -1.495   7.029   3.011  0.2695 -0.5568 -0.0954
  706MOL0     O95223  -1.100   7.120   3.049  0.2633  0.0092  0.0189
  706MOL0     C95224  -1.187   7.120   3.375 -0.1435 -0.3710  0.4212
  706MOL0     C95225  -1.125   7.137   3.503 -0.6814  0.1713 -0.2677
  706MOL0     N95226  -0.283   7.189   3.677  0.6867  0.4419  1.1689
  706MOL0     N95227  -0.175   7.206   3.737 -0.3092  0.4438 -0.3482
  706MOL0     C95228   0.804   7.088   3.963 -0.2552 -0.1493 -0.0812
  706MOL0     C95229   0.934   7.107   3.926  0.2021 -0.3879  0.7397
  706MOL0     C95230   1.271   7.048   3.603 -0.5228 -0.5376 -0.5493
  706MOL0     C95231   1.328   6.948   3.683 -0.8837 -1.0568 -0.1997
  706MOL0     C95232   1.448   6.888   3.657  0.1952 -0.2717  0.1204
  706MOL0     C95233   1.521   6.923   3.537  1.2514 -0.3255 -0.1120
  706MOL0     O95234   1.631   6.864   3.502  0.6838 -0.0138 -0.3305
  706MOL0     C95235   1.624   6.721   3.496 -0.0098 -0.1410 -0.5405
  706MOL0     C95236   1.743   6.667   3.418  0.6561  0.3530 -0.3125
  706MOL0     C95237   1.742   6.706   3.277  0.6795 -0.4901 -0.0755
  706MOL0     C95238   1.823   6.603   3.194 -0.5303  0.2169 -0.2092
  706MOL0     C95239   1.970   6.604   3.216  0.2699 -0.2956  0.0697
  706MOL0     C95240   2.091   6.599   3.233  0.0282 -0.6089 -0.0469
  706MOL0     C95241   1.473   7.033   3.457  0.0156 -0.9443  0.1882
  706MOL0     C95242   1.345   7.091   3.493  0.6838 -0.1519  0.1521
  706MOL0     H95243   0.917   6.988   3.610 -2.7130 -1.6247 -0.6487
  706MOL0     H95244   0.683   6.946   3.676 -0.9814  3.4645 -0.7316
  706MOL0     H95245   0.468   7.028   3.748 -1.5370  0.7099  0.9236
  706MOL0     H95246   0.505   6.862   3.821 -4.2080 -1.6100  1.1245
  706MOL0     H95247   0.286   6.928   3.843 -0.9063  1.5825 -0.6161
  706MOL0     H95248   0.367   6.893   4.005  1.9486 -0.9253 -0.3973
  706MOL0     H95249   0.388   7.132   4.048 -2.2073 -0.8887  1.5065
  706MOL0     H95250   0.312   7.174   3.891  1.4783  0.4117 -0.2161
  706MOL0     H95251   0.108   7.084   3.949  0.2079 -2.6362  0.4969
  706MOL0     H95252   0.186   7.008   4.099  3.8655  0.7702  0.7608
  706MOL0     H95253   0.217   7.204   4.206 -3.3548  0.5523  2.4614
  706MOL0     H95254   0.189   7.305   4.065 -1.5294  0.8254 -1.0184
  706MOL0     H95255   0.005   7.126   4.220  1.1091 -1.7245 -4.3745
  706MOL0     H95256   0.008   7.312   4.222 -2.7407  1.3661 -0.6268
  706MOL0     H95257  -0.124   7.125   4.036  2.2660  0.3640 -2.3177
  706MOL0     H95258  -0.189   7.273   4.110 -0.1380  1.5893 -2.0020
  706MOL0     H95259   0.005   7.272   3.879 -1.8095 -1.0305 -0.4647
  706MOL0     H95260  -0.077   7.419   3.949 -1.5938 -0.0709  0.3030
  706MOL0     H95261  -0.376   7.349   3.955  0.7190  0.4192 -0.3402
  706MOL0     H95262  -0.583   7.307   3.699  1.4905 -0.0527 -1.8856
  706MOL0     H95263  -0.543   7.144   3.658 -0.0354 -1.1893  0.9673
  706MOL0     H95264  -0.578   7.229   3.940 -0.6784 -0.5458  0.2936
  706MOL0     H95265  -0.596   7.064   3.868 -1.4355 -0.2024  0.7216
  706MOL0     H95266  -0.798   7.272   3.830  1.8550  0.9854  2.4418
  706MOL0     H95267  -0.821   7.105   3.890  1.5991 -0.7030 -0.1561
  706MOL0     H95268  -0.779   6.997   3.705  0.5191 -0.7844 -1.5647
  706MOL0     H95269  -0.744   7.139   3.604 -0.6512  0.5093 -0.1356
  706MOL0     H95270  -0.827   7.000   3.463  0.0440  0.6567  1.2070
  706MOL0     H95271  -0.813   6.880   3.230 -0.4070 -2.6538  0.6430
  706MOL0     H95272  -0.966   6.870   3.150 -0.2416  0.2201 -1.4568
  706MOL0     H95273  -0.862   7.008   3.114  0.0533 -2.7792 -2.5325
  706MOL0     H95274  -1.195   6.939   2.899  1.1683  2.0548 -1.9154
  706MOL0     H95275  -1.328   6.931   2.684  0.6876 -2.1469  1.2727
  706MOL0     H95276  -1.474   7.031   2.493 -0.4362  0.1399 -3.5371
  706MOL0     H95277  -1.485   6.854   2.525 -0.5827  0.2895  0.6619
  706MOL0     H95278  -1.663   6.820   2.408 -3.0120 -0.4730  1.2713
  706MOL0     H95279  -1.736   6.978   2.468  1.6333  1.1425  3.0525
  706MOL0     H95280  -1.606   7.097   2.303  1.4947 -0.4193  0.5453
  706MOL0     H95281  -1.694   6.965   2.214 -1.8192 -0.9074  1.7389
  706MOL0     H95282  -1.409   6.934   2.313  1.3434 -0.4966 -0.4878
  706MOL0     H95283  -1.489   6.842   2.191 -0.6855  1.5371 -1.4026
  706MOL0     H95284  -1.325   6.971   2.087 -0.4034  0.2691 -0.1549
  706MOL0     H95285  -1.392   7.119   2.169  2.9289 -1.1286  1.8941
  706MOL0     H95286  -1.532   6.938   1.968 -1.5437  0.2274 -0.6828
  706MOL0     H95287  -1.582   7.092   2.022 -0.3706  0.4198 -0.4336
  706MOL0     H95288  -1.441   7.070   1.797  0.4011 -0.5501  0.7386
  706MOL0     H95289  -1.302   7.067   1.892 -0.0258 -1.6801  0.0825
  706MOL0     H95290  -1.324   7.282   1.832  1.1067  0.6803  0.7518
  706MOL0     H95291  -1.387   7.297   1.999 -0.5528  2.8480 -1.4813
  706MOL0     H95292  -1.679   7.029   2.892  0.8140 -0.1871 -0.8664
  706MOL0     H95293  -1.545   7.034   3.107  1.3492  1.8228  0.3989
  706MOL0     H95294  -1.285   7.159   3.350  0.1992  1.8589  2.2297
  706MOL0     H95295  -1.183   7.188   3.580  3.3379  1.0558  2.4606
  706MOL0     H95296   0.783   7.124   4.063  1.3605 -1.4628  0.7785
  706MOL0     H95297   1.010   7.156   3.987 -0.2087  0.9569  0.2250
  706MOL0     H95298   1.273   6.903   3.765  0.9405 -2.1939  0.4581
  706MOL0     H95299   1.484   6.810   3.722  0.9466  1.2420  1.6083
  706MOL0     H95300   1.632   6.672   3.593 -1.8394  1.7590  0.6471
  706MOL0     H95301   1.525   6.700   3.454 -0.7011  0.9448  0.4787
  706MOL0     H95302   1.739   6.558   3.428 -1.5040  0.4640  0.5116
  706MOL0     H95303   1.837   6.705   3.460 -0.2522  2.6478 -0.2094
  706MOL0     H95304   1.775   6.810   3.268 -0.5897 -0.1951 -1.9158
  706MOL0     H95305   1.646   6.719   3.227  1.1318 -1.4539 -1.2663
  706MOL0     H95306   1.787   6.606   3.090 -0.0214 -0.7795 -0.4337
  706MOL0     H95307   1.789   6.506   3.233  1.3231  1.1400  4.2854
  706MOL0     H95308   2.196   6.594   3.255  0.0209  0.9755  0.4625
  706MOL0     H95309   1.500   7.072   3.360 -2.7502  0.2224 -0.2044
  706MOL0     H95310   1.305   7.176   3.438 -2.2643 -1.2271  0.4824
  707MOL0     O95311  10.601   8.451   4.168 -0.3120  0.0475  0.4799
  707MOL0     C95312  10.704   8.397   4.205 -0.6149  0.2188  0.1119
  707MOL0     O95313  10.728   8.272   4.251  0.4923 -0.0710  0.8134
  707MOL0     C95314  10.630   8.178   4.251  0.4167  0.1326  0.1291
  707MOL0     C95315  10.675   8.069   4.331 -0.1047  0.3198  0.4461
  707MOL0     C95316  10.602   7.952   4.342 -0.1234  0.2152  0.2563
  707MOL0     C95317  10.480   7.939   4.277 -0.1303  0.0950  0.3586
  707MOL0     O95318  10.401   7.826   4.289  0.1648 -0.3929 -0.5159
  707MOL0     C95319  10.458   7.701   4.311  0.6217  0.3511  0.8213
  707MOL0     C95320  10.511   7.652   4.175  0.2739 -1.1556 -0.3311
  707MOL0     C95321  10.575   7.507   4.187 -0.2959  1.3692  0.0576
  707MOL0     C95322  10.491   7.387   4.129  0.2388 -0.5277 -0.3209
  707MOL0     C95323  10.376   7.348   4.216 -0.3433 -0.2867  0.2844
  707MOL0     C95324  10.291   7.247   4.146 -1.0774  0.0449  0.2961
  707MOL0     C95325  10.163   7.209   4.233  0.5133 -0.6595  0.7589
  707MOL0     C95326  10.190   7.124   4.357 -0.0277  0.2966 -0.6431
  707MOL0     N95327  10.183   7.195   4.492  0.4212  0.2494 -0.0005
  707MOL0     C95328  10.078   7.272   4.534  0.2996 -0.5369  0.4698
  707MOL0     C95329  10.103   7.301   4.667 -0.1882  0.0529  0.2050
  707MOL0     C95330  10.015   7.380   4.754 -0.1704  0.6330 -0.5358
  707MOL0     C95331   9.904   7.292   4.821 -0.2545  0.3805  0.2800
  707MOL0     C95332   9.820   7.374   4.912  0.1439 -0.3119 -0.2910
  707MOL0     C95333   9.698   7.293   4.968  0.3552 -0.0472 -0.0564
  707MOL0     O95334   9.648   7.375   5.075  0.2237 -0.1785  0.5699
  707MOL0     C95335   9.523   7.343   5.122  0.4852 -0.2602 -0.1982
  707MOL0     C95336   9.435   7.236   5.079 -0.5297 -0.1953  0.5098
  707MOL0     C95337   9.307   7.216   5.123 -0.1826  0.5591  1.1034
  707MOL0     C95338   9.239   7.100   5.050 -0.5067  0.4351  0.0568
  707MOL0     C95339   9.260   7.304   5.229  0.0346 -0.0823  0.3080
  707MOL0     C95340   9.119   7.298   5.290 -0.6094  0.3377  0.2183
  707MOL0     O95341   9.088   7.369   5.403  0.1030 -0.7021  0.0531
  707MOL0     C95342   8.961   7.354   5.464  0.1699 -0.2988 -0.3471
  707MOL0     C95343   8.953   7.307   5.598  0.6368  0.7050  0.4147
  707MOL0     C95344   8.829   7.288   5.662  0.5159  0.4395 -0.0165
  707MOL0     C95345   8.713   7.323   5.598  0.6442 -0.6880  0.1845
  707MOL0     O95346   8.588   7.304   5.649 -0.1144  0.3202  0.4614
  707MOL0     C95347   8.548   7.188   5.726  0.3672  0.1098 -0.2099
  707MOL0     C95348   8.394   7.169   5.722 -0.2773 -0.2749  0.0288
  707MOL0     C95349   8.348   7.098   5.852 -0.4209  0.3677  0.2181
  707MOL0     C95350   8.198   7.059   5.819 -0.2684  0.2397 -0.2207
  707MOL0     C95351   8.126   7.037   5.948 -0.0217 -0.6328 -0.4053
  707MOL0     C95352   7.981   7.011   5.941  0.6406 -0.3009  1.2416
  707MOL0     C95353   7.911   7.000   6.075  0.6407  0.6702  0.0228
  707MOL0     C95354   7.777   7.070   6.079 -0.1313 -0.4866 -0.2287
  707MOL0    Cl95355   7.718   7.065   6.241 -0.3648 -0.0572  0.1997
  707MOL0     C95356   8.732   7.411   5.489 -0.1286 -0.2111 -0.0131
  707MOL0     C95357   8.849   7.419   5.408 -0.6817  0.4359  0.0371
  707MOL0     O95358   9.029   7.223   5.238 -0.2305 -0.4910 -0.2921
  707MOL0     C95359   9.353   7.392   5.294  0.0804 -0.5323 -0.6111
  707MOL0     C95360   9.479   7.414   5.236  0.8398 -0.5139 -0.3643
  707MOL0     N95361  10.217   7.238   4.705  0.0720  0.2768  0.6415
  707MOL0     N95362  10.262   7.174   4.595 -0.0363  0.1762 -0.1579
  707MOL0     C95363  10.431   8.054   4.210  0.6215  0.0334 -0.4131
  707MOL0     C95364  10.510   8.169   4.194  0.6021  0.3894  0.6146
  707MOL0     C95365  10.827   8.484   4.189 -0.9591  0.3151  0.3928
  707MOL0     C95366  10.954   8.420   4.223 -0.5979 -0.6997  0.7211
  707MOL0     C95367  11.074   8.494   4.208 -1.1038  0.9058  0.4097
  707MOL0     C95368  11.078   8.622   4.150 -0.6945  0.4411 -0.9415
  707MOL0     O95369  11.198   8.678   4.112  0.2891  0.3107 -0.0695
  707MOL0     C95370  11.212   8.797   4.035  0.0899  0.6796  0.6708
  707MOL0     C95371  11.231   8.752   3.893 -0.0966 -0.0480 -0.2225
  707MOL0     C95372  11.269   8.863   3.796  0.8954  0.1181 -0.0701
  707MOL0     C95373  11.288   8.813   3.649  0.2570 -0.4424 -0.5660
  707MOL0     C95374  11.162   8.804   3.580 -0.1662 -0.8280 -0.2682
  707MOL0     C95375  11.058   8.783   3.531 -0.7423 -0.1244  0.5081
  707MOL0     C95376  10.958   8.690   4.137  0.4120 -0.1538 -0.3945
  707MOL0     C95377  10.836   8.623   4.163  0.2033 -0.0849 -0.0869
  707MOL0     H95378  10.774   8.084   4.372 -0.5162  3.6510  0.5062
  707MOL0     H95379  10.648   7.871   4.397  2.6319  1.0412 -0.6987
  707MOL0     H95380  10.537   7.689   4.386  3.5938 -1.0572 -2.2451
  707MOL0     H95381  10.378   7.628   4.331  0.0637  0.3148 -1.2423
  707MOL0     H95382  10.429   7.646   4.103  1.2107 -0.9553 -1.4415
  707MOL0     H95383  10.591   7.720   4.145  1.8109 -1.4674  2.6502
  707MOL0     H95384  10.664   7.512   4.123  0.4527  0.5572  1.0031
  707MOL0     H95385  10.604   7.475   4.288  1.9132 -0.1831 -0.9941
  707MOL0     H95386  10.460   7.401   4.025 -0.5135  0.5318  0.0349
  707MOL0     H95387  10.561   7.303   4.128  1.7861  0.7280 -0.5126
  707MOL0     H95388  10.416   7.315   4.313  0.5752  0.4863  0.1869
  707MOL0     H95389  10.318   7.437   4.241  0.8875  0.5610  0.2563
  707MOL0     H95390  10.263   7.296   4.052 -0.5150  0.3608  0.2911
  707MOL0     H95391  10.348   7.164   4.104  0.6260  0.3697  1.8342
  707MOL0     H95392  10.111   7.298   4.271  0.8161 -0.8575  1.6578
  707MOL0     H95393  10.099   7.153   4.165  2.6323 -1.0977 -1.0028
  707MOL0     H95394  10.294   7.089   4.359 -0.8382 -2.2653  0.1485
  707MOL0     H95395  10.120   7.041   4.359 -1.1288  1.1407  2.7651
  707MOL0     H95396   9.998   7.306   4.469 -1.7308 -0.4387  2.9138
  707MOL0     H95397  10.074   7.440   4.825 -2.9535  2.2856  0.5720
  707MOL0     H95398   9.967   7.459   4.695 -0.8938 -0.8172 -1.9636
  707MOL0     H95399   9.950   7.211   4.878 -0.5325 -0.3721 -0.5402
  707MOL0     H95400   9.846   7.243   4.743  1.0070 -1.3089  0.3586
  707MOL0     H95401   9.773   7.463   4.867  1.0509  0.8188  0.9052
  707MOL0     H95402   9.886   7.404   4.994 -0.3516 -1.5853  0.5927
  707MOL0     H95403   9.718   7.195   5.012 -0.3496 -0.0653  0.2470
  707MOL0     H95404   9.621   7.275   4.893 -0.1913  0.0060  0.4859
  707MOL0     H95405   9.472   7.175   4.997 -1.0559  2.7772 -2.1480
  707MOL0     H95406   9.131   7.112   5.040 -0.4814 -0.0709 -0.9747
  707MOL0     H95407   9.284   7.083   4.952 -1.0507 -1.2105  0.0534
  707MOL0     H95408   9.271   7.014   5.110  3.3621 -0.9609 -3.5019
  707MOL0     H95409   9.043   7.285   5.655  1.2212  0.0955 -0.7011
  707MOL0     H95410   8.815   7.230   5.752  0.8375 -1.5685 -1.1909
  707MOL0     H95411   8.591   7.096   5.687  1.1260 -0.6175  2.2062
  707MOL0     H95412   8.578   7.196   5.831  1.3800  0.3991 -0.5161
  707MOL0     H95413   8.332   7.258   5.716 -1.0702 -0.6725  1.6242
  707MOL0     H95414   8.385   7.101   5.637  1.8624 -1.0143  0.3264
  707MOL0     H95415   8.366   7.163   5.938 -0.0112 -0.7729  1.0297
  707MOL0     H95416   8.405   7.007   5.876  1.5231  0.9577 -1.8369
  707MOL0     H95417   8.158   7.140   5.757 -1.2838  1.9509  2.4415
  707MOL0     H95418   8.198   6.963   5.768  1.9340 -0.2334  0.5404
  707MOL0     H95419   8.150   7.117   6.019 -1.8492 -0.8554  0.5433
  707MOL0     H95420   8.180   6.953   5.993  3.6942  0.8766 -1.6654
  707MOL0     H95421   7.939   7.096   5.887  1.0361 -0.3155  0.9076
  707MOL0     H95422   7.967   6.920   5.881 -0.4462  0.1871  0.7239
  707MOL0     H95423   7.976   7.047   6.149  0.1723  2.0626 -0.4281
  707MOL0     H95424   7.893   6.900   6.116  1.1354  0.3805 -0.4630
  707MOL0     H95425   7.708   7.020   6.011  1.0857 -1.1622 -0.9913
  707MOL0     H95426   7.785   7.173   6.044 -0.4119 -0.7709 -1.1543
  707MOL0     H95427   8.644   7.465   5.455  0.5652  0.7250 -0.3907
  707MOL0     H95428   8.844   7.480   5.319  0.8117  1.7030  0.7551
  707MOL0     H95429   9.326   7.448   5.382 -1.2152 -1.3948 -0.4334
  707MOL0     H95430   9.541   7.482   5.293  0.5562  0.1288 -0.8182
  707MOL0     H95431  10.337   8.049   4.157  0.2240  0.4759  0.2317
  707MOL0     H95432  10.477   8.250   4.130 -0.4831 -0.4515  0.0835
  707MOL0     H95433  10.953   8.318   4.260  1.3000 -1.7086 -1.7758
  707MOL0     H95434  11.171   8.452   4.235 -1.6712 -0.9067 -0.2642
  707MOL0     H95435  11.137   8.877   4.039  1.4689  1.9820  1.7625
  707MOL0     H95436  11.300   8.844   4.079  1.5611 -0.2856 -1.0896
  707MOL0     H95437  11.139   8.703   3.859  1.6654 -2.2087 -2.2261
  707MOL0     H95438  11.315   8.682   3.903 -0.1141 -0.6827 -3.3855
  707MOL0     H95439  11.364   8.906   3.829  1.8825 -1.6821 -0.4072
  707MOL0     H95440  11.187   8.935   3.794  0.8806  0.1800 -3.9007
  707MOL0     H95441  11.344   8.720   3.659  0.5575 -0.1441  0.7036
  707MOL0     H95442  11.352   8.888   3.601  0.3617 -0.2153 -0.0726
  707MOL0     H95443  10.961   8.779   3.486 -0.4394 -0.2476 -0.1516
  707MOL0     H95444  10.951   8.797   4.118  1.2744  0.5415  2.6100
  707MOL0     H95445  10.743   8.677   4.152 -0.3328 -0.8596  0.5518
  708MOL0     O95446   9.720   1.770   7.611  0.6178  0.6645 -0.2941
  708MOL0     C95447   9.765   1.655   7.617 -0.1117 -0.3124  0.1244
  708MOL0     O95448   9.702   1.545   7.555 -0.1937 -0.6012  0.3137
  708MOL0     C95449   9.581   1.564   7.494  0.4441 -0.3464 -1.1887
  708MOL0     C95450   9.467   1.486   7.543 -1.1380 -0.3219  0.3096
  708MOL0     C95451   9.343   1.511   7.483  0.2743  0.4909  0.1421
  708MOL0     C95452   9.330   1.595   7.370  0.9007  0.4612 -0.7686
  708MOL0     O95453   9.199   1.613   7.326  0.6552 -0.1549 -0.4046
  708MOL0     C95454   9.182   1.612   7.182 -0.5535  0.1535 -0.5856
  708MOL0     C95455   9.043   1.658   7.140 -0.4692 -0.7187  0.2593
  708MOL0     C95456   8.942   1.544   7.175 -0.5453 -0.6336  0.1221
  708MOL0     C95457   8.797   1.581   7.133  0.5462 -0.6018  0.1277
  708MOL0     C95458   8.696   1.474   7.176 -0.2437  0.4877  0.0771
  708MOL0     C95459   8.686   1.435   7.327 -0.5935  0.4354  0.1348
  708MOL0     C95460   8.660   1.559   7.423  0.1621  0.3323 -0.5155
  708MOL0     C95461   8.656   1.527   7.579  0.0618 -0.0357 -0.4568
  708MOL0     N95462   8.542   1.428   7.599 -0.6461 -0.2823 -0.0192
  708MOL0     C95463   8.415   1.474   7.594  0.1761 -1.0889  0.1953
  708MOL0     C95464   8.346   1.369   7.636  0.1299 -0.3289  0.3696
  708MOL0     C95465   8.194   1.358   7.671 -0.0412 -0.1644 -0.0214
  708MOL0     C95466   8.143   1.217   7.635 -0.0755 -0.3206  0.6488
  708MOL0     C95467   7.994   1.210   7.658  0.4148  0.7829  0.0833
  708MOL0     C95468   7.942   1.063   7.638 -0.5647  0.2710  0.3754
  708MOL0     O95469   7.956   1.010   7.501  0.4842 -0.7115 -1.0543
  708MOL0     C95470   7.878   0.897   7.473 -0.0599 -0.6588  0.3168
  708MOL0     C95471   7.888   0.836   7.347 -0.7036 -0.2400  0.0062
  708MOL0     C95472   7.831   0.715   7.306 -0.2956  0.9214  0.1619
  708MOL0     C95473   7.846   0.665   7.160 -0.2738  0.8661  0.2044
  708MOL0     C95474   7.758   0.642   7.401 -0.5427  0.1519  0.5676
  708MOL0     C95475   7.688   0.519   7.380  0.5231  0.5542  0.4046
  708MOL0     O95476   7.580   0.499   7.453 -0.1909 -0.6176 -0.4649
  708MOL0     C95477   7.477   0.413   7.413  0.6880  0.4652 -0.4931
  708MOL0     C95478   7.451   0.361   7.281  0.8059  0.2596 -0.0574
  708MOL0     C95479   7.333   0.295   7.249 -0.0818 -0.2264 -0.3650
  708MOL0     C95480   7.238   0.265   7.348  0.1620  0.2678  0.0689
  708MOL0     O95481   7.132   0.189   7.314  0.3135 -0.2510 -0.4074
  708MOL0     C95482   7.004   0.262   7.336 -0.9306 -0.5898 -0.8215
  708MOL0     C95483   6.897   0.182   7.257 -0.0389 -0.1556  0.3432
  708MOL0     C95484   6.938   0.159   7.102  0.0437  0.2958 -0.1825
  708MOL0     C95485   6.825   0.123   7.010  0.3884 -0.3706  0.0009
  708MOL0     C95486   6.881   0.072   6.878 -1.1286  0.3125  0.0685
  708MOL0     C95487   6.774   0.014   6.785 -0.3677  0.5712 -0.4676
  708MOL0     C95488   6.830  -0.057   6.659  0.1117 -0.2429 -0.0469
  708MOL0     C95489   6.719  -0.078   6.556 -0.0260 -0.7957  0.2109
  708MOL0    Cl95490   6.672   0.075   6.475  0.3226  0.3344 -0.1090
  708MOL0     C95491   7.262   0.305   7.474 -0.4077 -0.3004 -0.5860
  708MOL0     C95492   7.384   0.377   7.508 -0.1299  0.4352  0.4923
  708MOL0     O95493   7.739   0.435   7.312  0.0688  0.0788 -0.0058
  708MOL0     C95494   7.755   0.696   7.531  1.3651 -0.7017  0.3978
  708MOL0     C95495   7.818   0.818   7.571 -0.1850 -0.0624 -0.4496
  708MOL0     N95496   8.439   1.271   7.665  0.0405 -0.3872 -0.3232
  708MOL0     N95497   8.563   1.303   7.630 -1.2986  0.0158 -0.1071
  708MOL0     C95498   9.448   1.666   7.320 -0.2279  0.1943  0.2307
  708MOL0     C95499   9.566   1.649   7.389  0.7041  0.4358 -0.3580
  708MOL0     C95500   9.878   1.641   7.712 -0.5079  0.1412 -0.0677
  708MOL0     C95501   9.947   1.519   7.733 -0.2831 -0.4341  0.2608
  708MOL0     C95502  10.056   1.515   7.821  0.2662 -0.5365  0.1610
  708MOL0     C95503  10.101   1.627   7.894  0.2709 -0.3192 -0.6172
  708MOL0     O95504  10.204   1.628   7.991 -0.0559  0.5927  0.1169
  708MOL0     C95505  10.303   1.534   7.962  0.1576 -0.0371 -0.8371
  708MOL0     C95506  10.430   1.579   8.035 -1.0646  0.0585 -0.1730
  708MOL0     C95507  10.480   1.713   7.994  0.1467 -0.3046 -0.3427
  708MOL0     C95508  10.623   1.736   8.051 -0.3043  0.3028  0.4965
  708MOL0     C95509  10.628   1.758   8.191  0.0333  0.6121 -0.0654
  708MOL0     C95510  10.620   1.765   8.314  0.6843  0.2807 -0.0792
  708MOL0     C95511  10.034   1.749   7.877 -0.8760  0.8123  0.0227
  708MOL0     C95512   9.924   1.758   7.785  0.8511 -0.2428 -0.4676
  708MOL0     H95513   9.488   1.401   7.606 -1.4629 -0.9051 -0.3496
  708MOL0     H95514   9.252   1.470   7.526  0.3894  1.4729  1.3766
  708MOL0     H95515   9.259   1.665   7.126  0.3623 -0.1833  0.3356
  708MOL0     H95516   9.193   1.508   7.151  2.4052 -0.5318  2.2336
  708MOL0     H95517   9.033   1.761   7.175  2.7197  0.7079 -2.4758
  708MOL0     H95518   9.036   1.669   7.032 -0.5444  0.0726  0.3439
  708MOL0     H95519   8.952   1.450   7.119 -1.3034 -1.5698  1.4934
  708MOL0     H95520   8.951   1.514   7.279 -1.4597  0.0045  0.4045
  708MOL0     H95521   8.762   1.677   7.173  1.2893  0.9474 -2.7078
  708MOL0     H95522   8.792   1.583   7.024 -0.8837 -1.3797  0.1534
  708MOL0     H95523   8.601   1.513   7.138  0.4356 -0.3412 -2.7145
  708MOL0     H95524   8.705   1.381   7.119 -1.2084 -0.2417  1.0725
  708MOL0     H95525   8.617   1.351   7.340  3.1010 -2.6615  1.4690
  708MOL0     H95526   8.779   1.389   7.359  0.6318  2.9684  0.5076
  708MOL0     H95527   8.739   1.634   7.416  0.5313  0.0877  0.6758
  708MOL0     H95528   8.564   1.600   7.394  0.5271  0.5989 -1.3609
  708MOL0     H95529   8.622   1.618   7.629 -0.0349 -0.1174 -0.3727
  708MOL0     H95530   8.749   1.488   7.623 -0.9069 -0.7753  1.0366
  708MOL0     H95531   8.382   1.570   7.557 -0.6304 -1.4854 -0.1360
  708MOL0     H95532   8.187   1.367   7.780  2.0034 -1.3799  0.2754
  708MOL0     H95533   8.144   1.436   7.613  2.6027 -1.6527 -4.8753
  708MOL0     H95534   8.198   1.148   7.700  3.0821 -0.1520 -1.5717
  708MOL0     H95535   8.168   1.206   7.529  1.5754  4.2573  0.3126
  708MOL0     H95536   7.935   1.262   7.582 -1.9958 -1.0227  0.6140
  708MOL0     H95537   7.978   1.261   7.754  1.3863  0.4256  0.4436
  708MOL0     H95538   7.840   1.062   7.678  0.3915  0.2213  3.0025
  708MOL0     H95539   8.002   1.003   7.707  2.8439  1.6486 -1.2045
  708MOL0     H95540   7.939   0.901   7.277 -1.6843  0.0628 -0.4473
  708MOL0     H95541   7.901   0.735   7.097  3.0261 -1.6711  0.0202
  708MOL0     H95542   7.902   0.571   7.154 -0.3689  0.8949 -1.4629
  708MOL0     H95543   7.752   0.643   7.108  0.6942 -2.6449 -0.2715
  708MOL0     H95544   7.529   0.363   7.206  0.5788 -0.5366 -0.3262
  708MOL0     H95545   7.312   0.250   7.152  1.4302  0.2235 -0.9331
  708MOL0     H95546   6.980   0.274   7.442  2.5710  0.6309 -0.0332
  708MOL0     H95547   7.017   0.361   7.293  2.3261 -0.1664  0.8442
  708MOL0     H95548   6.869   0.088   7.306  1.9476  1.3978  4.9812
  708MOL0     H95549   6.813   0.250   7.270  0.6555  1.0430 -1.1014
  708MOL0     H95550   7.009   0.077   7.104  0.7428  0.9011  0.7897
  708MOL0     H95551   7.002   0.239   7.062  3.0253 -1.1525  1.3725
  708MOL0     H95552   6.767   0.043   7.056  1.5177 -0.1378  1.9559
  708MOL0     H95553   6.766   0.215   6.996 -0.3696 -1.1091 -1.9708
  708MOL0     H95554   6.962   0.001   6.896  2.0398  3.7991  0.8745
  708MOL0     H95555   6.924   0.161   6.831  0.0977  1.1657  2.5901
  708MOL0     H95556   6.714  -0.054   6.846 -1.3989  0.6097 -1.4023
  708MOL0     H95557   6.706   0.092   6.751 -1.6725 -0.9434 -1.4461
  708MOL0     H95558   6.875  -0.151   6.693 -0.3377 -0.6420 -0.5380
  708MOL0     H95559   6.907   0.006   6.614  1.2704 -1.8590 -0.4333
  708MOL0     H95560   6.630  -0.118   6.604  0.3381  0.3516  1.9125
  708MOL0     H95561   6.753  -0.144   6.475  1.7020 -0.6306  0.7646
  708MOL0     H95562   7.200   0.273   7.556 -0.1492  0.6730  0.0097
  708MOL0     H95563   7.395   0.420   7.607 -1.0794 -0.0868  0.8409
  708MOL0     H95564   7.700   0.635   7.602  0.7360 -0.3739  0.1987
  708MOL0     H95565   7.812   0.835   7.678  0.9117  0.0744 -0.4061
  708MOL0     H95566   9.447   1.739   7.240  4.0739  1.1736  0.8472
  708MOL0     H95567   9.643   1.712   7.345 -1.5842  4.6983  1.1667
  708MOL0     H95568   9.919   1.428   7.681 -0.8359  1.2394 -2.5720
  708MOL0     H95569  10.094   1.417   7.846 -0.4103 -0.2579  2.5301
  708MOL0     H95570  10.253   1.445   8.000 -2.4965  1.1716 -1.2684
  708MOL0     H95571  10.322   1.525   7.854 -0.9237 -0.2550 -1.0155
  708MOL0     H95572  10.508   1.505   8.015 -1.4231 -0.2753 -0.3499
  708MOL0     H95573  10.405   1.586   8.141 -2.3240  0.3791 -0.4742
  708MOL0     H95574  10.415   1.796   8.026 -3.9703 -2.1251 -3.0674
  708MOL0     H95575  10.477   1.727   7.886  0.6180  3.3873  0.0090
  708MOL0     H95576  10.669   1.820   8.000 -0.6423 -1.7353 -3.5594
  708MOL0     H95577  10.691   1.651   8.047  0.5786  1.0355 -0.4303
  708MOL0     H95578  10.596   1.764   8.419  1.2868  1.0553  0.0753
  708MOL0     H95579  10.066   1.836   7.934 -1.0629  0.4684  0.6657
  708MOL0     H95580   9.874   1.853   7.772  1.0923 -0.0529 -0.0348
  709MOL0     O95581   3.721   6.849   6.203 -0.2115  0.4634  0.3209
  709MOL0     C95582   3.716   6.778   6.306  0.1503 -0.4293  0.5100
  709MOL0     O95583   3.601   6.744   6.367  0.0596 -0.1955 -0.8067
  709MOL0     C95584   3.486   6.805   6.333  0.1810 -0.5321  0.4014
  709MOL0     C95585   3.457   6.939   6.361 -0.3104 -0.6182  0.3012
  709MOL0     C95586   3.336   7.003   6.344 -0.0135  0.1985  0.5561
  709MOL0     C95587   3.228   6.934   6.284 -1.6116  0.0269 -0.8166
  709MOL0     O95588   3.110   6.989   6.251 -0.7602  0.3723  0.1997
  709MOL0     C95589   3.064   7.104   6.322 -0.0368  0.2222  0.4654
  709MOL0     C95590   3.033   7.075   6.477  0.1195 -0.2053 -0.1881
  709MOL0     C95591   2.897   7.014   6.504 -0.7670 -0.0566 -1.0844
  709MOL0     C95592   2.894   6.857   6.491 -0.0297 -0.3428 -0.1867
  709MOL0     C95593   2.751   6.795   6.517 -0.6858 -0.0946  0.2787
  709MOL0     C95594   2.744   6.642   6.513  0.8687  0.8746 -0.0187
  709MOL0     C95595   2.599   6.597   6.550 -0.3628  0.1217  0.3647
  709MOL0     C95596   2.504   6.582   6.425  0.7476 -0.1238 -0.7543
  709MOL0     N95597   2.372   6.526   6.454 -0.3969 -0.2388  0.8372
  709MOL0     C95598   2.264   6.601   6.422 -0.0640 -0.6188  0.0989
  709MOL0     C95599   2.158   6.519   6.435  0.2894  0.4271  0.3379
  709MOL0     C95600   2.017   6.569   6.419  0.0068  0.0399 -0.6033
  709MOL0     C95601   1.929   6.547   6.549 -0.8758 -0.6100  0.1965
  709MOL0     C95602   1.987   6.647   6.658 -0.0741  0.3371  0.8257
  709MOL0     C95603   1.924   6.629   6.791  0.6109 -0.2820  0.1928
  709MOL0     O95604   1.782   6.608   6.788 -0.1943  0.5738  0.2727
  709MOL0     C95605   1.716   6.661   6.888  0.6425 -0.5880 -0.0852
  709MOL0     C95606   1.733   6.789   6.933  0.5426  0.1149  0.3122
  709MOL0     C95607   1.675   6.843   7.046 -0.6803 -1.1274  0.1068
  709MOL0     C95608   1.712   6.984   7.085  0.6855  0.7456 -0.3491
  709MOL0     C95609   1.568   6.773   7.106 -1.0452 -0.1680  0.2991
  709MOL0     C95610   1.498   6.825   7.226  0.0188  0.2904 -0.2464
  709MOL0     O95611   1.381   6.760   7.262  0.0530 -0.0926  0.1477
  709MOL0     C95612   1.287   6.820   7.339  0.3333 -0.2368 -0.1680
  709MOL0     C95613   1.211   6.744   7.428  0.7389 -0.3797 -0.0154
  709MOL0     C95614   1.117   6.794   7.516  0.6893  0.5483 -0.3815
  709MOL0     C95615   1.081   6.933   7.503  0.1611  0.6743  0.0705
  709MOL0     O95616   0.990   6.988   7.597 -0.3163 -0.2324 -0.2727
  709MOL0     C95617   0.939   7.115   7.573  0.0885 -0.1991 -0.0880
  709MOL0     C95618   0.797   7.144   7.634  0.6252  0.5157  0.2076
  709MOL0     C95619   0.684   7.062   7.561 -0.6678 -0.0240 -0.4242
  709MOL0     C95620   0.552   7.125   7.594 -0.1144  0.3353 -0.1330
  709MOL0     C95621   0.428   7.067   7.526 -0.2134  0.3180  0.5548
  709MOL0     C95622   0.310   7.145   7.574  0.1639  0.1552 -0.4467
  709MOL0     C95623   0.182   7.066   7.562 -0.0954  0.3799 -0.3484
  709MOL0     C95624   0.057   7.136   7.630  0.1101  0.1923 -0.7253
  709MOL0    Cl95625   0.021   7.284   7.544 -0.5329  0.0073 -0.5281
  709MOL0     C95626   1.149   7.004   7.400  0.4039 -0.9043  0.9390
  709MOL0     C95627   1.253   6.957   7.327 -0.2709  0.3661  0.1583
  709MOL0     O95628   1.539   6.928   7.281  0.0906 -0.4531  0.2270
  709MOL0     C95629   1.545   6.641   7.063 -0.3303  0.1612  0.1359
  709MOL0     C95630   1.623   6.584   6.956 -0.8043  0.3478 -0.0184
  709MOL0     N95631   2.201   6.392   6.467 -0.0853 -0.5198  0.1552
  709MOL0     N95632   2.329   6.399   6.477 -0.4124  1.1498  0.6846
  709MOL0     C95633   3.263   6.803   6.240  0.0019  0.0586  0.0986
  709MOL0     C95634   3.385   6.750   6.264  0.2784  1.4780  0.6512
  709MOL0     C95635   3.846   6.725   6.343 -0.3806 -0.3848 -0.4225
  709MOL0     C95636   3.858   6.683   6.476  0.1014  0.0057  0.8679
  709MOL0     C95637   3.978   6.640   6.530  0.3514  0.2978 -0.4812
  709MOL0     C95638   4.096   6.638   6.462  0.1344  0.8541  0.7836
  709MOL0     O95639   4.205   6.581   6.521  0.3089  0.3163  0.2269
  709MOL0     C95640   4.325   6.653   6.495 -0.0205 -0.7145  0.2470
  709MOL0     C95641   4.427   6.656   6.609 -0.3223  0.0769 -0.8262
  709MOL0     C95642   4.558   6.723   6.581 -0.4785  0.0912 -0.4566
  709MOL0     C95643   4.680   6.666   6.655 -0.7881  0.2315  0.4169
  709MOL0     C95644   4.804   6.751   6.650 -0.0447 -0.3428 -0.8815
  709MOL0     C95645   4.916   6.810   6.660  0.1346  0.7973  0.3292
  709MOL0     C95646   4.087   6.681   6.324  0.7996 -0.2220 -0.0364
  709MOL0     C95647   3.965   6.731   6.264  0.2680  0.6642  0.1819
  709MOL0     H95648   3.529   7.004   6.411  0.9997 -2.4122  0.8288
  709MOL0     H95649   3.325   7.105   6.381 -1.1345 -0.1925  1.3889
  709MOL0     H95650   3.132   7.189   6.309 -0.0265  0.1812  0.2554
  709MOL0     H95651   2.978   7.140   6.266  2.2515  1.6602 -2.4048
  709MOL0     H95652   3.101   7.010   6.532 -0.4216 -0.5698  0.0591
  709MOL0     H95653   3.041   7.175   6.519  1.3372 -0.0795 -0.6768
  709MOL0     H95654   2.875   7.031   6.609 -0.3221 -4.0738 -0.1614
  709MOL0     H95655   2.819   7.067   6.448 -0.3993 -1.4917 -3.0811
  709MOL0     H95656   2.942   6.801   6.410 -0.4980 -4.4781  2.0926
  709MOL0     H95657   2.945   6.822   6.582  0.2900  0.0090 -0.2311
  709MOL0     H95658   2.721   6.834   6.614 -0.4520  1.0007 -0.0670
  709MOL0     H95659   2.690   6.838   6.437 -0.4363  0.1143  0.1996
  709MOL0     H95660   2.759   6.605   6.411 -1.6881 -0.5806  0.0381
  709MOL0     H95661   2.820   6.600   6.580  0.6988 -1.0906 -0.9750
  709MOL0     H95662   2.602   6.501   6.603  2.3790  0.7229  1.4571
  709MOL0     H95663   2.546   6.663   6.619 -0.3421 -0.1843  0.6779
  709MOL0     H95664   2.551   6.520   6.349  0.0270  2.2817 -3.3586
  709MOL0     H95665   2.493   6.672   6.363 -1.6303  0.0806 -0.1307
  709MOL0     H95666   2.252   6.707   6.401 -0.1024 -0.6916 -0.2539
  709MOL0     H95667   2.036   6.676   6.405  2.3143 -0.5669 -3.0533
  709MOL0     H95668   1.964   6.520   6.337  0.0179 -1.5561  0.3037
  709MOL0     H95669   1.944   6.444   6.584  0.2990 -0.6626 -0.4057
  709MOL0     H95670   1.822   6.568   6.539 -0.3288  2.3821 -0.2288
  709MOL0     H95671   1.975   6.752   6.630  1.2073  0.8706  2.1755
  709MOL0     H95672   2.095   6.631   6.666  0.2478  1.7722 -0.2085
  709MOL0     H95673   1.959   6.705   6.863 -1.3226 -0.3858  1.3180
  709MOL0     H95674   1.966   6.535   6.827 -1.8082 -0.6737  2.2554
  709MOL0     H95675   1.804   6.853   6.881 -0.6005  0.7344 -0.5501
  709MOL0     H95676   1.755   6.989   7.185  1.0154 -1.8219 -0.2824
  709MOL0     H95677   1.789   7.029   7.021  0.4396 -0.5336 -1.6155
  709MOL0     H95678   1.622   7.043   7.068 -0.3076 -1.0480 -1.7463
  709MOL0     H95679   1.238   6.639   7.440  1.2020 -0.4076 -1.1723
  709MOL0     H95680   1.064   6.739   7.593  1.7636 -0.9308 -0.6637
  709MOL0     H95681   1.016   7.172   7.627 -1.3310  0.3414  1.4438
  709MOL0     H95682   0.950   7.141   7.467  0.2571  2.0820  0.4392
  709MOL0     H95683   0.805   7.124   7.741  2.5877 -0.4696 -0.0832
  709MOL0     H95684   0.773   7.249   7.615 -1.6522  0.2885  1.5211
  709MOL0     H95685   0.689   6.957   7.589 -1.4620 -0.4312 -1.6964
  709MOL0     H95686   0.702   7.069   7.453 -2.0048  0.0978 -0.6624
  709MOL0     H95687   0.550   7.113   7.703  1.4075  1.3213  0.0465
  709MOL0     H95688   0.559   7.231   7.568 -1.6127  0.1515 -1.3870
  709MOL0     H95689   0.430   6.960   7.546  1.7937  0.2301  0.0757
  709MOL0     H95690   0.445   7.068   7.418 -0.4223  0.1157  0.5202
  709MOL0     H95691   0.322   7.177   7.678 -0.7321  1.2219 -0.6512
  709MOL0     H95692   0.292   7.233   7.511  1.1097  0.5887 -0.1397
  709MOL0     H95693   0.195   6.969   7.611 -2.1031 -0.2795 -1.0002
  709MOL0     H95694   0.155   7.056   7.456 -1.5737 -2.6489  0.1987
  709MOL0     H95695   0.060   7.152   7.738 -2.4979  0.2172 -0.5982
  709MOL0     H95696  -0.036   7.079   7.628 -0.7764  1.5728 -3.3377
  709MOL0     H95697   1.139   7.110   7.383  0.3752 -1.1385 -0.6285
  709MOL0     H95698   1.307   7.011   7.250  1.8143  0.7330  1.8003
  709MOL0     H95699   1.462   6.589   7.108  0.5570 -1.6019 -0.1996
  709MOL0     H95700   1.593   6.493   6.905  1.9991  0.8181 -2.8279
  709MOL0     H95701   3.190   6.758   6.173 -3.4834  2.3314  2.0297
  709MOL0     H95702   3.383   6.648   6.227 -2.1842  1.9699 -0.7645
  709MOL0     H95703   3.768   6.685   6.537 -0.9337  2.2244 -0.5847
  709MOL0     H95704   3.983   6.601   6.632 -3.7900 -2.3413 -1.0551
  709MOL0     H95705   4.363   6.598   6.409  0.5711  0.0988 -0.0294
  709MOL0     H95706   4.302   6.756   6.466 -2.7769 -0.7024  2.0474
  709MOL0     H95707   4.453   6.551   6.627 -3.3535 -0.8901 -1.5032
  709MOL0     H95708   4.374   6.695   6.697 -0.0121  1.0172 -1.0466
  709MOL0     H95709   4.560   6.830   6.604  0.8944  0.5290 -2.3630
  709MOL0     H95710   4.569   6.714   6.472 -0.5026  0.1460 -0.4635
  709MOL0     H95711   4.714   6.575   6.606 -1.5877  1.2322 -2.1232
  709MOL0     H95712   4.655   6.650   6.761 -1.2720  1.7071  0.5472
  709MOL0     H95713   5.010   6.862   6.660 -0.0232  1.1089  1.6856
  709MOL0     H95714   4.176   6.678   6.261 -0.4739 -1.7974 -1.8792
  709MOL0     H95715   3.967   6.770   6.163  0.3263 -2.3320 -1.0819
  710MOL0     O95716  11.146   0.010   2.706  0.2483 -0.4070  0.2647
  710MOL0     C95717  11.172   0.129   2.693  0.3058 -0.7116  0.7985
  710MOL0     O95718  11.099   0.226   2.625 -0.0281  0.1937  0.3017
  710MOL0     C95719  10.977   0.190   2.576 -0.9073  0.2401  0.2531
  710MOL0     C95720  10.871   0.274   2.604 -0.6814 -0.6434  0.2018
  710MOL0     C95721  10.738   0.236   2.565  0.1736 -0.1894 -0.3437
  710MOL0     C95722  10.715   0.114   2.497  0.3933  0.7526 -0.0547
  710MOL0     O95723  10.594   0.055   2.469  0.5250  0.0763  0.5761
  710MOL0     C95724  10.472   0.132   2.467 -0.1276  0.9677  0.1915
  710MOL0     C95725  10.356   0.030   2.454  0.1296  0.1514  0.0932
  710MOL0     C95726  10.223   0.113   2.434 -0.4937 -0.1902  0.5288
  710MOL0     C95727  10.109   0.018   2.446 -0.0031 -0.3337 -0.7460
  710MOL0     C95728   9.979   0.094   2.413  0.1657  0.4990 -0.3978
  710MOL0     C95729   9.922   0.169   2.535  0.0287 -0.3250 -0.1795
  710MOL0     C95730   9.772   0.195   2.509 -0.6524 -0.4108 -0.2273
  710MOL0     C95731   9.689   0.072   2.506  0.8162 -0.1961 -0.3143
  710MOL0     N95732   9.546   0.112   2.514  0.0123  0.8783  1.2719
  710MOL0     C95733   9.485   0.208   2.434 -0.1436  0.1135  0.2133
  710MOL0     C95734   9.367   0.232   2.490 -0.5252 -0.0828 -0.1982
  710MOL0     C95735   9.264   0.313   2.424  0.2750 -0.3253 -0.1262
  710MOL0     C95736   9.116   0.299   2.483 -0.4084 -0.2159 -0.4115
  710MOL0     C95737   9.026   0.396   2.400 -0.3919 -0.7775 -0.0140
  710MOL0     C95738   8.879   0.376   2.436  0.2608 -0.0414  0.0308
  710MOL0     O95739   8.803   0.483   2.378  0.5949 -0.5003 -1.2181
  710MOL0     C95740   8.662   0.496   2.390 -0.2818  0.4671 -0.3701
  710MOL0     C95741   8.604   0.589   2.293 -0.0262  0.1163  0.1435
  710MOL0     C95742   8.466   0.610   2.299  0.7479  0.0626  0.3698
  710MOL0     C95743   8.411   0.721   2.204 -0.5527  0.0568  0.2037
  710MOL0     C95744   8.383   0.525   2.383  0.0883 -0.2346  0.0560
  710MOL0     C95745   8.229   0.532   2.389 -0.2356  1.0164  0.0354
  710MOL0     O95746   8.159   0.450   2.472  0.4351 -0.3829 -0.1658
  710MOL0     C95747   8.022   0.465   2.483 -0.5785  0.8778  0.2048
  710MOL0     C95748   7.957   0.352   2.521 -0.8682  0.3485 -0.8858
  710MOL0     C95749   7.816   0.344   2.533 -0.0926  0.1289  0.8603
  710MOL0     C95750   7.740   0.461   2.519  0.6717  0.4990  0.2370
  710MOL0     O95751   7.606   0.455   2.555 -0.0167 -0.2671 -0.7450
  710MOL0     C95752   7.522   0.389   2.465 -0.2847  0.5911 -1.1626
  710MOL0     C95753   7.390   0.463   2.473  0.2012  0.1970  0.5177
  710MOL0     C95754   7.295   0.429   2.359  0.2996  0.4409 -0.4452
  710MOL0     C95755   7.169   0.507   2.347  0.6652 -0.3117 -0.7903
  710MOL0     C95756   7.081   0.454   2.233 -0.3314 -0.0918 -0.6692
  710MOL0     C95757   6.934   0.499   2.232  0.1651 -0.2822  0.5304
  710MOL0     C95758   6.909   0.633   2.164 -0.9554  0.4165 -0.3720
  710MOL0     C95759   6.786   0.698   2.224  1.3430  0.5864 -0.0481
  710MOL0    Cl95760   6.633   0.639   2.153  0.2412  0.2182 -0.1043
  710MOL0     C95761   7.805   0.576   2.478 -0.1671  0.3185 -0.5654
  710MOL0     C95762   7.945   0.577   2.462  0.1709  0.0998  1.0401
  710MOL0     O95763   8.180   0.603   2.304  0.4485  0.9076  0.1209
  710MOL0     C95764   8.444   0.434   2.472  0.2805 -0.5241  0.6858
  710MOL0     C95765   8.583   0.427   2.478  0.0031 -0.6990  0.1236
  710MOL0     N95766   9.359   0.158   2.607  0.4024 -0.1259  0.7904
  710MOL0     N95767   9.465   0.088   2.620 -0.5371 -0.4133  0.2221
  710MOL0     C95768  10.827   0.044   2.451  0.3737  0.0214  0.1731
  710MOL0     C95769  10.953   0.083   2.481 -0.2608 -0.3604 -0.6171
  710MOL0     C95770  11.293   0.177   2.761 -1.2063  0.6405 -0.6183
  710MOL0     C95771  11.357   0.100   2.859  0.5077 -0.6313  0.2883
  710MOL0     C95772  11.475   0.151   2.920 -0.5623  1.1528  0.5602
  710MOL0     C95773  11.523   0.278   2.884 -0.2853  1.3012  0.1700
  710MOL0     O95774  11.645   0.314   2.935 -0.2481 -0.1576 -0.4185
  710MOL0     C95775  11.767   0.241   2.921  0.7270  0.9020  0.1302
  710MOL0     C95776  11.859   0.314   2.829 -0.2461 -1.0459  0.6119
  710MOL0     C95777  11.912   0.443   2.900  0.5205  0.6084  0.6500
  710MOL0     C95778  12.049   0.489   2.852 -0.6772 -0.1366  0.5737
  710MOL0     C95779  12.041   0.564   2.728 -0.0813  0.6141  0.6524
  710MOL0     C95780  12.045   0.635   2.632 -0.2058  0.1152  0.3895
  710MOL0     C95781  11.464   0.357   2.790 -0.0254  0.0925 -0.1083
  710MOL0     C95782  11.354   0.301   2.727 -0.2011  0.0740 -0.8511
  710MOL0     H95783  10.883   0.369   2.655  2.0463  0.9205 -2.9831
  710MOL0     H95784  10.662   0.309   2.588  0.0968  0.0485 -1.2997
  710MOL0     H95785  10.462   0.197   2.554 -1.6747 -2.3584  2.6836
  710MOL0     H95786  10.473   0.188   2.372 -1.1006 -0.1268 -0.4935
  710MOL0     H95787  10.374  -0.038   2.371  1.5508 -0.7459  1.1016
  710MOL0     H95788  10.352  -0.035   2.541  2.6815 -0.9361 -0.5171
  710MOL0     H95789  10.214   0.185   2.516  2.1145 -1.0152  1.6429
  710MOL0     H95790  10.215   0.152   2.332 -0.1239  1.2100  1.0076
  710MOL0     H95791  10.120  -0.064   2.375  1.9522 -0.2218 -0.6330
  710MOL0     H95792  10.109  -0.021   2.548 -1.0531 -1.8601 -1.2940
  710MOL0     H95793   9.980   0.164   2.329 -0.5145 -1.8848 -2.5573
  710MOL0     H95794   9.917   0.007   2.386  0.5104  0.1918 -0.2142
  710MOL0     H95795   9.942   0.118   2.630 -1.8444  0.0460  0.4434
  710MOL0     H95796   9.974   0.264   2.552 -2.0381  0.8338 -0.0631
  710MOL0     H95797   9.739   0.260   2.590  3.4280 -0.7985  2.0108
  710MOL0     H95798   9.759   0.248   2.414  2.0376 -1.0200 -1.0314
  710MOL0     H95799   9.706   0.000   2.587 -0.2581 -1.6547 -1.3217
  710MOL0     H95800   9.700   0.011   2.416 -1.8386  0.2721 -1.0430
  710MOL0     H95801   9.526   0.258   2.347 -4.7104  0.5274 -2.0074
  710MOL0     H95802   9.307   0.414   2.430  0.9554 -0.5780 -0.6216
  710MOL0     H95803   9.253   0.287   2.318  0.2659  2.6921 -0.9857
  710MOL0     H95804   9.119   0.331   2.588 -2.6498  0.2493 -0.4410
  710MOL0     H95805   9.085   0.194   2.477 -2.8702  0.3483  0.9844
  710MOL0     H95806   9.040   0.384   2.292  3.6349  1.9325 -0.0303
  710MOL0     H95807   9.058   0.500   2.413 -3.2228  0.0303  1.3046
  710MOL0     H95808   8.865   0.380   2.545  0.8146  4.9536  0.1837
  710MOL0     H95809   8.838   0.286   2.391  1.1493  0.2364 -1.3909
  710MOL0     H95810   8.681   0.633   2.231  1.3765 -1.2393  0.8370
  710MOL0     H95811   8.353   0.678   2.122  0.5224 -1.3244  0.1295
  710MOL0     H95812   8.357   0.795   2.263 -0.5147 -0.4033  0.8233
  710MOL0     H95813   8.497   0.777   2.167  0.9393 -1.6510  0.9162
  710MOL0     H95814   8.011   0.263   2.551  0.1470  1.0982 -0.4319
  710MOL0     H95815   7.776   0.250   2.569  0.2887 -0.5662 -0.4716
  710MOL0     H95816   7.556   0.381   2.362  3.3575  1.2881 -0.1455
  710MOL0     H95817   7.494   0.290   2.504  1.4503  0.5005 -0.0297
  710MOL0     H95818   7.341   0.430   2.565 -0.7070  1.3593  0.4698
  710MOL0     H95819   7.401   0.572   2.480 -1.7354  0.4707 -0.3578
  710MOL0     H95820   7.270   0.323   2.367  1.8058  0.2054  2.2049
  710MOL0     H95821   7.347   0.443   2.264  2.4406  1.1072  0.7671
  710MOL0     H95822   7.108   0.505   2.438  0.4275  1.3904 -0.8676
  710MOL0     H95823   7.199   0.611   2.332  1.3172 -0.7733 -2.9784
  710MOL0     H95824   7.083   0.347   2.258 -0.5381  0.8794  4.7012
  710MOL0     H95825   7.129   0.470   2.136 -1.2177 -0.0310 -1.1002
  710MOL0     H95826   6.868   0.425   2.187 -2.2225 -0.1854  3.5279
  710MOL0     H95827   6.900   0.502   2.336  1.6862  2.0455  1.0442
  710MOL0     H95828   6.906   0.617   2.056 -1.5243  1.8011 -0.5700
  710MOL0     H95829   6.995   0.697   2.184 -0.7558 -0.9708  4.7015
  710MOL0     H95830   6.777   0.803   2.194 -0.8775  0.7774  1.0391
  710MOL0     H95831   6.774   0.687   2.332  1.5228  0.0810 -0.0779
  710MOL0     H95832   7.748   0.666   2.462  0.2464  0.5491 -0.7563
  710MOL0     H95833   7.982   0.679   2.453  0.3980  0.2548  3.3372
  710MOL0     H95834   8.387   0.369   2.538 -1.1443  0.5140  0.5351
  710MOL0     H95835   8.636   0.352   2.537  0.9681 -0.3774 -0.3137
  710MOL0     H95836  10.814  -0.036   2.379 -0.1307  0.0903  0.1831
  710MOL0     H95837  11.044   0.029   2.455 -0.3751 -0.3147 -1.1106
  710MOL0     H95838  11.318   0.002   2.888  0.9209 -0.4517  1.5322
  710MOL0     H95839  11.514   0.084   2.996  1.6012  0.5482 -0.9598
  710MOL0     H95840  11.807   0.213   3.019 -2.2440 -0.3683  1.0926
  710MOL0     H95841  11.743   0.145   2.875  1.7092  0.3880  0.6715
  710MOL0     H95842  11.810   0.353   2.739 -2.5335 -0.7621  1.9261
  710MOL0     H95843  11.942   0.252   2.792  1.6288  1.4366  0.4114
  710MOL0     H95844  11.913   0.429   3.008 -2.6187 -0.2641  0.6610
  710MOL0     H95845  11.845   0.528   2.885  1.5188  1.1291 -1.2858
  710MOL0     H95846  12.115   0.403   2.838 -2.6825 -1.5213 -1.0245
  710MOL0     H95847  12.091   0.554   2.929 -0.1533 -1.2838  1.2905
  710MOL0     H95848  12.061   0.698   2.547 -1.5727 -0.3169 -0.2134
  710MOL0     H95849  11.519   0.447   2.763  1.0413 -0.4874  0.0813
  710MOL0     H95850  11.296   0.344   2.646 -1.7110 -0.9209 -0.3474
  711MOL0     O95851   3.039   0.621   4.723 -0.1597 -0.4005 -0.8155
  711MOL0     C95852   2.994   0.540   4.641  0.3009 -0.0263 -0.6563
  711MOL0     O95853   2.853   0.506   4.626  0.1863  0.2052  0.3153
  711MOL0     C95854   2.766   0.584   4.699 -0.4015  0.3375  0.3045
  711MOL0     C95855   2.766   0.726   4.685  0.0407 -0.7467  0.2151
  711MOL0     C95856   2.679   0.804   4.762  0.2111 -0.2136 -0.0329
  711MOL0     C95857   2.590   0.748   4.856  0.0796 -0.1713  0.8680
  711MOL0     O95858   2.487   0.822   4.918 -0.4923  0.0017  0.4183
  711MOL0     C95859   2.512   0.967   4.933 -0.2815  0.2401 -0.1285
  711MOL0     C95860   2.388   1.030   4.999  0.3624  0.0647  0.4901
  711MOL0     C95861   2.364   0.993   5.145  0.0070  0.0565  0.2429
  711MOL0     C95862   2.230   1.053   5.202 -0.1726  0.2844 -0.2438
  711MOL0     C95863   2.108   0.993   5.122 -0.2347  0.0191  0.6141
  711MOL0     C95864   1.996   0.948   5.212 -0.2317  0.1362  0.2440
  711MOL0     C95865   1.873   0.911   5.126  0.1616  0.6028 -0.3457
  711MOL0     C95866   1.782   0.811   5.199  0.2432  0.1279 -0.3046
  711MOL0     N95867   1.646   0.804   5.143 -0.2475 -0.1074 -0.1650
  711MOL0     C95868   1.628   0.749   5.016  0.2262 -0.0249 -0.5221
  711MOL0     C95869   1.491   0.752   5.000  0.0486  0.6264 -0.2520
  711MOL0     C95870   1.407   0.679   4.899  0.9596 -0.3943 -0.0054
  711MOL0     C95871   1.361   0.770   4.783  0.0761  0.3347 -0.0497
  711MOL0     C95872   1.275   0.889   4.823  0.9650  0.1947  0.3968
  711MOL0     C95873   1.191   0.947   4.712  0.1045 -1.0384 -0.9110
  711MOL0     O95874   1.077   0.863   4.695 -0.5632 -1.0258  0.5119
  711MOL0     C95875   1.010   0.843   4.580 -0.1129  0.2382  0.4561
  711MOL0     C95876   0.870   0.847   4.579 -0.0172  0.2461 -0.1864
  711MOL0     C95877   0.794   0.830   4.456  0.4928  0.9229  1.2530
  711MOL0     C95878   0.644   0.822   4.468 -0.0429  0.0598 -0.2163
  711MOL0     C95879   0.863   0.807   4.336  0.2845  0.8802  0.1428
  711MOL0     C95880   0.804   0.775   4.199 -0.2416 -0.4858 -0.3485
  711MOL0     O95881   0.690   0.835   4.178  0.0093 -0.5290 -0.7417
  711MOL0     C95882   0.605   0.779   4.087  0.7138  0.5043 -0.6632
  711MOL0     C95883   0.520   0.872   4.031  0.4166  0.1045  0.9148
  711MOL0     C95884   0.411   0.841   3.945 -0.3072 -1.0254 -0.6121
  711MOL0     C95885   0.394   0.703   3.918 -0.5352 -0.5189 -0.0129
  711MOL0     O95886   0.309   0.657   3.830  0.7983 -0.2513  0.4643
  711MOL0     C95887   0.173   0.697   3.854  0.5264  0.8176  0.0186
  711MOL0     C95888   0.096   0.578   3.920  0.5574  0.5085  0.3313
  711MOL0     C95889   0.086   0.455   3.826 -0.5579 -0.2492  0.2327
  711MOL0     C95890   0.037   0.330   3.886 -0.8008  0.8416  0.2605
  711MOL0     C95891  -0.012   0.237   3.785 -0.9007  0.0173  0.1764
  711MOL0     C95892  -0.082   0.116   3.837 -0.0229 -0.6831  0.3878
  711MOL0     C95893  -0.231   0.134   3.858  0.8171  0.5457 -0.8369
  711MOL0     C95894  -0.295   0.012   3.934 -0.1379 -0.6854 -0.7712
  711MOL0    Cl95895  -0.464   0.063   3.984 -0.5434  0.1926 -0.1779
  711MOL0     C95896   0.480   0.604   3.977  0.0004 -0.2705 -0.8033
  711MOL0     C95897   0.580   0.638   4.067  0.1152  0.2863  1.0628
  711MOL0     O95898   0.865   0.710   4.119  0.2433 -0.2121  0.0246
  711MOL0     C95899   1.006   0.812   4.341 -0.0758  0.4857  0.3694
  711MOL0     C95900   1.078   0.826   4.459 -0.6662 -0.9553  0.0164
  711MOL0     N95901   1.436   0.821   5.103  0.4824 -0.1854  0.4752
  711MOL0     N95902   1.532   0.857   5.183 -0.2675 -0.0269  0.5406
  711MOL0     C95903   2.589   0.610   4.861 -0.0889  0.4913 -0.2098
  711MOL0     C95904   2.667   0.522   4.782 -0.1565  0.5987 -0.3234
  711MOL0     C95905   3.087   0.464   4.562 -0.6729 -0.2003 -0.0459
  711MOL0     C95906   3.048   0.405   4.454  0.2514 -0.7631  0.0921
  711MOL0     C95907   3.134   0.323   4.375  0.0848 -0.2422 -1.1805
  711MOL0     C95908   3.261   0.304   4.411 -1.0262  0.2805  0.3632
  711MOL0     O95909   3.345   0.230   4.326 -0.5379 -0.3524  0.0247
  711MOL0     C95910   3.483   0.232   4.345  0.0010 -0.3974 -0.0063
  711MOL0     C95911   3.543   0.367   4.306  0.6203 -0.3881 -0.6940
  711MOL0     C95912   3.577   0.384   4.154  0.1247  0.2185  0.4302
  711MOL0     C95913   3.580   0.531   4.135  0.3524  0.7849  0.8820
  711MOL0     C95914   3.646   0.552   4.005  0.5282 -0.8821 -0.2692
  711MOL0     C95915   3.707   0.576   3.905  0.2549  0.5300  0.4723
  711MOL0     C95916   3.304   0.367   4.528 -0.6542 -0.3805  0.0709
  711MOL0     C95917   3.218   0.449   4.605  0.3207 -0.0657  0.2622
  711MOL0     H95918   2.828   0.770   4.607  1.2265 -1.2234  0.8587
  711MOL0     H95919   2.689   0.911   4.756  0.8101 -0.2882 -0.4997
  711MOL0     H95920   2.595   0.988   5.002 -3.2674 -0.9203  4.2065
  711MOL0     H95921   2.523   1.011   4.833 -1.1947 -1.2245 -0.9152
  711MOL0     H95922   2.410   1.137   5.003  0.9401 -0.0504  0.5790
  711MOL0     H95923   2.302   1.005   4.937 -0.2049 -0.0573  1.3013
  711MOL0     H95924   2.367   0.885   5.156  1.3245  0.1855  1.3300
  711MOL0     H95925   2.444   1.043   5.200 -0.8632  3.2797 -1.1331
  711MOL0     H95926   2.212   1.035   5.309  2.0443 -1.5516 -0.1215
  711MOL0     H95927   2.229   1.161   5.185 -1.1261  0.2869 -0.2366
  711MOL0     H95928   2.064   1.064   5.052  0.6198 -2.7387 -3.0718
  711MOL0     H95929   2.138   0.909   5.057 -0.3739  0.6989 -0.3516
  711MOL0     H95930   2.035   0.869   5.277 -1.9121 -0.1216  0.9960
  711MOL0     H95931   1.981   1.035   5.277  1.4459  0.5270  0.1369
  711MOL0     H95932   1.819   1.004   5.103 -1.7210 -0.3473  0.0718
  711MOL0     H95933   1.915   0.867   5.035  3.6799  0.2418  1.2741
  711MOL0     H95934   1.782   0.822   5.308 -3.0690  3.0813 -0.4307
  711MOL0     H95935   1.829   0.712   5.192  0.1722  0.0907 -0.2666
  711MOL0     H95936   1.692   0.690   4.951 -0.8026 -1.9232  0.1196
  711MOL0     H95937   1.467   0.600   4.853  1.0848 -0.7894  0.8260
  711MOL0     H95938   1.327   0.626   4.952 -0.3918  2.3736  0.9173
  711MOL0     H95939   1.298   0.716   4.712 -0.6576  0.2859  0.6206
  711MOL0     H95940   1.455   0.805   4.739  0.4018 -0.2696  0.1633
  711MOL0     H95941   1.350   0.961   4.856  0.3414  0.1133  2.0815
  711MOL0     H95942   1.217   0.874   4.914  1.9602  2.1429  1.4073
  711MOL0     H95943   1.255   0.967   4.626  1.9649 -1.1486  0.3886
  711MOL0     H95944   1.150   1.041   4.750 -1.5516 -1.9536 -0.3192
  711MOL0     H95945   0.821   0.872   4.673 -0.2939  0.6968 -0.4459
  711MOL0     H95946   0.611   0.880   4.554  0.8665  0.9926 -0.4735
  711MOL0     H95947   0.596   0.875   4.385  0.6593 -0.3836 -0.9191
  711MOL0     H95948   0.602   0.721   4.480  0.5103 -0.0255  1.1767
  711MOL0     H95949   0.536   0.977   4.049  1.7673  0.0123  0.3267
  711MOL0     H95950   0.348   0.921   3.907  0.8772  2.2891  3.5888
  711MOL0     H95951   0.163   0.773   3.931 -1.2148 -0.6961  1.3670
  711MOL0     H95952   0.122   0.723   3.760 -0.6273 -0.0302  0.3891
  711MOL0     H95953   0.141   0.545   4.014  0.9318 -1.1601 -0.3931
  711MOL0     H95954  -0.002   0.623   3.940 -0.1126 -0.8408  0.1750
  711MOL0     H95955   0.181   0.446   3.773 -2.5038 -0.7622 -3.5062
  711MOL0     H95956   0.018   0.484   3.746  1.3655  1.3075 -0.9281
  711MOL0     H95957   0.113   0.284   3.949  0.4862 -0.2843 -2.0073
  711MOL0     H95958  -0.048   0.349   3.953 -1.1235 -0.6302  0.2846
  711MOL0     H95959   0.079   0.200   3.737 -2.4085 -1.5321 -1.6928
  711MOL0     H95960  -0.080   0.287   3.714 -0.4560 -0.8561 -0.8957
  711MOL0     H95961  -0.074   0.033   3.766 -0.3457  0.7882 -1.4338
  711MOL0     H95962  -0.035   0.083   3.930  0.3997 -1.1003  0.0331
  711MOL0     H95963  -0.268   0.136   3.755  0.0145  0.2996 -0.5581
  711MOL0     H95964  -0.254   0.224   3.914  1.2498  0.1355  0.0145
  711MOL0     H95965  -0.229  -0.003   4.020  1.7179  4.0302 -1.0493
  711MOL0     H95966  -0.282  -0.077   3.873  0.5299 -0.4103 -1.0423
  711MOL0     H95967   0.477   0.499   3.948 -0.2160 -0.2363 -0.9103
  711MOL0     H95968   0.639   0.562   4.118  0.7113  0.1813  0.2325
  711MOL0     H95969   1.059   0.791   4.249 -0.1184  3.4830 -0.4144
  711MOL0     H95970   1.186   0.827   4.449 -0.5918  2.5943 -0.1094
  711MOL0     H95971   2.512   0.563   4.923  0.9389  1.4234  1.8837
  711MOL0     H95972   2.666   0.414   4.794  1.5710  0.6505  0.6384
  711MOL0     H95973   2.948   0.434   4.422  0.5090  1.2131  0.9363
  711MOL0     H95974   3.100   0.282   4.281 -2.5731  1.0665 -0.8783
  711MOL0     H95975   3.511   0.209   4.449 -1.2758  0.3612  0.5265
  711MOL0     H95976   3.531   0.158   4.280  2.8579  3.2734 -2.4502
  711MOL0     H95977   3.636   0.377   4.363  0.7757 -0.9158 -0.8510
  711MOL0     H95978   3.480   0.452   4.334  0.4073 -0.2338 -1.6156
  711MOL0     H95979   3.495   0.337   4.099 -1.1426  0.9268  1.6337
  711MOL0     H95980   3.674   0.341   4.129 -0.4411 -2.1292  1.9255
  711MOL0     H95981   3.624   0.592   4.215  3.1729 -1.1146  0.9311
  711MOL0     H95982   3.477   0.566   4.126 -0.8888 -2.6230  0.4366
  711MOL0     H95983   3.761   0.599   3.816 -0.6193 -2.5521 -0.9820
  711MOL0     H95984   3.396   0.340   4.579 -2.0578 -2.5328  1.6449
  711MOL0     H95985   3.257   0.493   4.697  0.3227  2.0693 -0.6927
  712MOL0     O95986  10.438   8.000   5.074 -0.1396  0.2198  0.5679
  712MOL0     C95987  10.514   8.089   5.032  0.0797 -0.4771  0.2767
  712MOL0     O95988  10.473   8.208   4.975  0.2426 -0.3385 -0.3305
  712MOL0     C95989  10.349   8.254   4.962 -0.2724 -0.0654 -0.3290
  712MOL0     C95990  10.235   8.182   4.999  0.5636  0.5319 -0.0681
  712MOL0     C95991  10.114   8.241   4.994 -0.1094 -0.4055 -0.7111
  712MOL0     C95992  10.103   8.378   4.944  0.3512  0.4848  0.4952
  712MOL0     O95993   9.980   8.444   4.939 -1.1315  0.2680 -0.0689
  712MOL0     C95994   9.871   8.404   5.021  0.1229  0.7966 -0.1580
  712MOL0     C95995   9.735   8.462   4.973  0.7521  0.6672  0.2862
  712MOL0     C95996   9.727   8.476   4.815  0.2336 -0.7919  0.3039
  712MOL0     C95997   9.586   8.519   4.766 -0.3874  0.1275 -0.1766
  712MOL0     C95998   9.572   8.566   4.617  0.2021  0.7313 -0.2595
  712MOL0     C95999   9.425   8.570   4.592  0.0598 -0.4126  0.4031
  712MOL0     C96000   9.406   8.600   4.446  0.0509  0.6396  0.2547
  712MOL0     C96001   9.265   8.652   4.423  0.5171 -0.7183  0.9955
  712MOL0     N96002   9.233   8.637   4.281  0.7239  0.3464  0.3708
  712MOL0     C96003   9.310   8.670   4.174 -0.0622  0.6425 -0.2562
  712MOL0     C96004   9.222   8.666   4.063 -0.1362 -0.5512  0.2563
  712MOL0     C96005   9.247   8.664   3.913  1.2170 -0.6373 -0.8669
  712MOL0     C96006   9.322   8.545   3.861 -0.7241  0.0985 -0.1833
  712MOL0     C96007   9.351   8.558   3.711  1.0993 -0.1836 -0.5489
  712MOL0     C96008   9.235   8.604   3.620  0.1816 -0.2842 -0.9256
  712MOL0     O96009   9.122   8.516   3.596  0.6578  0.2696 -0.0792
  712MOL0     C96010   9.002   8.552   3.539  0.2444  0.5433 -0.5659
  712MOL0     C96011   8.884   8.487   3.580 -0.6513 -0.4154  0.1752
  712MOL0     C96012   8.765   8.507   3.506  0.8638 -0.7458 -0.5657
  712MOL0     C96013   8.640   8.439   3.553  0.4933  0.5699 -0.2174
  712MOL0     C96014   8.763   8.597   3.393 -1.0141 -0.5496 -0.3191
  712MOL0     C96015   8.643   8.638   3.315  0.3943  0.3855  0.0298
  712MOL0     O96016   8.652   8.754   3.245 -0.4086  0.1459 -0.8998
  712MOL0     C96017   8.598   8.784   3.121  0.1672  0.7176  0.2176
  712MOL0     C96018   8.483   8.717   3.070 -0.5302 -0.6898  0.2704
  712MOL0     C96019   8.442   8.741   2.941  0.1529 -0.5371 -0.1179
  712MOL0     C96020   8.521   8.821   2.854  1.0189  0.0041 -0.6333
  712MOL0     O96021   8.485   8.812   2.720 -0.2470 -0.6498  0.4849
  712MOL0     C96022   8.504   8.936   2.654  0.8126 -0.4589  0.1485
  712MOL0     C96023   8.419   8.938   2.524  0.0403 -0.0049  0.2510
  712MOL0     C96024   8.439   9.075   2.442 -0.1392 -0.6414 -0.6939
  712MOL0     C96025   8.572   9.108   2.390 -0.4564  0.8146 -0.0901
  712MOL0     C96026   8.570   9.232   2.299  0.3685 -0.1006  0.1670
  712MOL0     C96027   8.716   9.265   2.256  0.6628  0.3529  0.3620
  712MOL0     C96028   8.704   9.382   2.156 -0.3466  0.4020 -0.9906
  712MOL0     C96029   8.840   9.416   2.090 -0.9011 -0.6476 -0.3763
  712MOL0    Cl96030   8.836   9.560   1.983 -0.1356  0.1170  0.0861
  712MOL0     C96031   8.628   8.890   2.906 -0.3417 -0.2268 -0.1941
  712MOL0     C96032   8.661   8.877   3.043  0.1726  0.2461 -0.4104
  712MOL0     O96033   8.541   8.560   3.314 -0.4236  0.9251  0.2525
  712MOL0     C96034   8.882   8.662   3.356  0.4078  0.2292 -0.3141
  712MOL0     C96035   8.998   8.639   3.432 -0.3615  0.4885 -0.1103
  712MOL0     N96036   9.094   8.646   4.116 -1.1098 -0.0239  0.8146
  712MOL0     N96037   9.104   8.620   4.239  0.2737 -0.4103 -1.1109
  712MOL0     C96038  10.216   8.453   4.913 -0.2191  0.4580  0.6708
  712MOL0     C96039  10.336   8.389   4.932  0.0560 -0.4789 -0.2860
  712MOL0     C96040  10.664   8.071   5.035 -0.8090 -0.4719 -0.4437
  712MOL0     C96041  10.754   8.181   5.031 -0.4362 -1.0822  1.1543
  712MOL0     C96042  10.896   8.156   5.035  0.5522  0.3074  0.1345
  712MOL0     C96043  10.939   8.024   5.047  0.0845  0.2121 -0.1509
  712MOL0     O96044  11.077   8.004   5.063 -0.3492  0.1645  0.5407
  712MOL0     C96045  11.136   7.876   5.040 -0.0395  0.0497 -0.0139
  712MOL0     C96046  11.284   7.864   5.054  0.6631 -0.5023  0.4361
  712MOL0     C96047  11.340   7.741   4.976  0.3924 -0.2751  0.4144
  712MOL0     C96048  11.489   7.736   4.964 -0.0893 -0.3386 -0.1251
  712MOL0     C96049  11.536   7.851   4.877  1.1225  0.3228  0.9138
  712MOL0     C96050  11.577   7.941   4.801  0.1190 -0.5972 -0.3795
  712MOL0     C96051  10.853   7.917   5.050 -0.2001  0.5607 -0.2036
  712MOL0     C96052  10.720   7.942   5.047  0.3311 -0.3087 -0.1667
  712MOL0     H96053  10.224   8.076   5.019 -3.2584  0.7612 -0.1300
  712MOL0     H96054  10.021   8.187   5.004 -0.1611 -0.1128  0.5456
  712MOL0     H96055   9.853   8.299   4.998 -0.6202  1.3183 -2.1962
  712MOL0     H96056   9.884   8.412   5.129 -1.0295 -0.0194  0.0594
  712MOL0     H96057   9.659   8.389   5.004 -1.3448  1.8985 -1.6310
  712MOL0     H96058   9.715   8.559   5.018  1.9966  1.7571 -1.3985
  712MOL0     H96059   9.799   8.545   4.772  0.7458 -0.6755  1.3302
  712MOL0     H96060   9.752   8.379   4.769 -2.1073 -1.7100  0.8058
  712MOL0     H96061   9.528   8.428   4.786 -2.7420  1.6786  0.4023
  712MOL0     H96062   9.561   8.603   4.832 -0.3015  0.0372 -0.0266
  712MOL0     H96063   9.619   8.664   4.606  0.1908  0.7054 -0.5503
  712MOL0     H96064   9.620   8.487   4.559  2.0440  1.1590  0.6355
  712MOL0     H96065   9.369   8.477   4.609 -0.3238 -0.1984  0.3281
  712MOL0     H96066   9.372   8.639   4.658 -2.5699 -0.0490 -1.9066
  712MOL0     H96067   9.472   8.684   4.423 -0.0240  1.2123  2.0129
  712MOL0     H96068   9.431   8.511   4.387  0.5234  0.3308  0.9162
  712MOL0     H96069   9.264   8.757   4.454  2.6250 -1.3410  3.5278
  712MOL0     H96070   9.189   8.601   4.484 -0.5273 -0.8747 -0.3803
  712MOL0     H96071   9.418   8.678   4.160  0.0459 -0.1240  0.0723
  712MOL0     H96072   9.148   8.668   3.867  0.4445 -0.0563  0.7750
  712MOL0     H96073   9.303   8.756   3.891  1.2493 -0.0349  1.4505
  712MOL0     H96074   9.252   8.462   3.872 -0.6994  0.0764 -0.1955
  712MOL0     H96075   9.416   8.518   3.911 -1.7779 -1.6667  0.9397
  712MOL0     H96076   9.380   8.459   3.676  2.6257 -1.5242  3.8401
  712MOL0     H96077   9.431   8.632   3.714 -1.7453  3.2096  1.9149
  712MOL0     H96078   9.278   8.613   3.520 -1.9749 -2.5734 -2.1776
  712MOL0     H96079   9.191   8.702   3.646  0.3256 -0.5559  0.4454
  712MOL0     H96080   8.891   8.425   3.669  0.6254  0.5983  0.8087
  712MOL0     H96081   8.655   8.356   3.623 -0.6942  1.0701  0.6775
  712MOL0     H96082   8.576   8.510   3.606 -1.3632 -2.5722  2.1373
  712MOL0     H96083   8.582   8.385   3.477  2.3313  1.8557 -2.6649
  712MOL0     H96084   8.424   8.648   3.130 -0.3213  0.0726  1.3878
  712MOL0     H96085   8.359   8.697   2.887 -0.0543  0.5868 -0.7421
  712MOL0     H96086   8.474   9.021   2.716 -0.3207 -0.8434  0.1455
  712MOL0     H96087   8.611   8.947   2.630  0.3219 -1.9365 -3.3078
  712MOL0     H96088   8.452   8.860   2.454  4.2036  1.6558  0.0728
  712MOL0     H96089   8.314   8.934   2.554 -0.1076 -1.8803 -0.4127
  712MOL0     H96090   8.414   9.155   2.512  1.0177 -1.0136  0.1816
  712MOL0     H96091   8.377   9.074   2.352 -0.9700  0.5577 -0.1668
  712MOL0     H96092   8.635   9.121   2.479 -1.5460 -2.5213  1.3442
  712MOL0     H96093   8.617   9.024   2.337  2.2769  1.0102  1.7231
  712MOL0     H96094   8.522   9.308   2.362  1.4807 -1.2807  2.5702
  712MOL0     H96095   8.508   9.216   2.210  1.2520  1.2793 -0.7286
  712MOL0     H96096   8.773   9.297   2.343 -1.2468  1.1749  1.3546
  712MOL0     H96097   8.769   9.184   2.204  0.4175 -1.4693  2.7651
  712MOL0     H96098   8.667   9.465   2.216 -0.0727  0.1444 -0.4562
  712MOL0     H96099   8.629   9.354   2.081  1.2022 -6.4325 -0.6630
  712MOL0     H96100   8.885   9.330   2.040  1.0641 -0.4350  0.8906
  712MOL0     H96101   8.907   9.435   2.175 -2.6129  1.1672  0.6518
  712MOL0     H96102   8.694   8.950   2.845  0.6131 -1.1327 -0.0630
  712MOL0     H96103   8.757   8.910   3.080  0.9323 -1.9720 -0.2285
  712MOL0     H96104   8.884   8.745   3.287  2.8374  0.3532 -0.1672
  712MOL0     H96105   9.094   8.686   3.415 -0.3777  0.3433 -0.6112
  712MOL0     H96106  10.204   8.553   4.873 -2.8067 -0.1580 -0.2820
  712MOL0     H96107  10.424   8.449   4.906 -0.8212  0.3673 -1.4231
  712MOL0     H96108  10.716   8.282   5.042  5.2984  1.3781  2.5139
  712MOL0     H96109  10.973   8.230   5.016  1.8500 -0.8560  0.6873
  712MOL0     H96110  11.087   7.801   5.103 -1.5279  1.5956  0.7575
  712MOL0     H96111  11.106   7.836   4.942 -0.0933 -2.0839  0.8168
  712MOL0     H96112  11.324   7.852   5.156  0.8047 -1.9807  0.2398
  712MOL0     H96113  11.337   7.950   5.014  2.5266 -1.8629 -0.1708
  712MOL0     H96114  11.306   7.726   4.874  1.0002 -2.7096  0.5080
  712MOL0     H96115  11.318   7.649   5.032 -0.1173 -0.0038  0.6633
  712MOL0     H96116  11.526   7.645   4.916  1.2664 -0.6255  1.3871
  712MOL0     H96117  11.541   7.731   5.060  1.2969  0.3907 -0.8045
  712MOL0     H96118  11.624   8.012   4.736  0.3062  0.7575  1.1537
  712MOL0     H96119  10.888   7.817   5.073 -0.5996  0.2070 -1.0900
  712MOL0     H96120  10.653   7.861   5.072  0.1311  0.4431  1.9462
  713MOL0     O96121   3.969  10.800   2.977  0.5537  0.5824  0.2889
  713MOL0     C96122   3.920  10.882   2.901 -0.5293 -0.3006 -0.1962
  713MOL0     O96123   3.804  10.942   2.917 -0.9236  0.1066  0.2856
  713MOL0     C96124   3.699  10.903   2.990  1.1150 -0.0301 -0.7862
  713MOL0     C96125   3.681  10.777   3.044 -0.0721  0.3945  0.1721
  713MOL0     C96126   3.567  10.744   3.112  0.5874 -1.1796 -0.4141
  713MOL0     C96127   3.460  10.827   3.123  0.6952 -0.2119 -0.4050
  713MOL0     O96128   3.339  10.782   3.179 -0.2320  0.1245  0.4155
  713MOL0     C96129   3.220  10.787   3.089 -0.0396 -0.2678 -0.2802
  713MOL0     C96130   3.143  10.658   3.108  0.1264 -0.5025  0.6351
  713MOL0     C96131   3.021  10.654   3.024  0.2759 -0.7476  0.5043
  713MOL0     C96132   2.889  10.660   3.111 -0.1609  0.7086  0.0599
  713MOL0     C96133   2.763  10.664   3.029 -0.1069  0.2232 -0.7884
  713MOL0     C96134   2.747  10.795   2.946 -0.3177 -1.1038  0.2673
  713MOL0     C96135   2.615  10.809   2.868 -0.7267 -0.4640  0.5076
  713MOL0     C96136   2.533  10.934   2.904  0.0078 -0.5408 -0.1210
  713MOL0     N96137   2.386  10.901   2.875  0.5999  0.5650  0.2551
  713MOL0     C96138   2.282  10.955   2.952  0.9714  0.4438  0.5416
  713MOL0     C96139   2.172  10.947   2.873  0.5287  0.0481  0.0056
  713MOL0     C96140   2.027  10.997   2.910 -0.6612  0.2346 -0.3416
  713MOL0     C96141   2.010  11.108   3.016 -0.5535  0.0269  0.3347
  713MOL0     C96142   1.972  11.047   3.156 -0.1291 -0.6579 -0.0077
  713MOL0     C96143   1.846  10.966   3.168 -0.0591 -0.4096  0.7046
  713MOL0     O96144   1.742  11.049   3.110  0.5099 -0.0061 -0.5179
  713MOL0     C96145   1.622  10.982   3.074 -0.2932 -0.2723 -0.3136
  713MOL0     C96146   1.537  11.058   3.008  0.1216  0.3385  0.0433
  713MOL0     C96147   1.405  11.009   2.993  0.3580  0.0573  0.3830
  713MOL0     C96148   1.307  11.109   2.941  1.1389  0.1472 -0.1644
  713MOL0     C96149   1.370  10.878   3.030 -0.3415  0.2905 -1.0870
  713MOL0     C96150   1.226  10.833   2.999  0.0565 -0.3851  0.4112
  713MOL0     O96151   1.125  10.915   2.953 -0.2466 -0.4304 -0.0461
  713MOL0     C96152   0.998  10.877   2.960  0.4037  0.7277  0.4637
  713MOL0     C96153   0.915  10.928   3.065  0.4094  0.3554  1.2909
  713MOL0     C96154   0.771  10.894   3.067  0.3071 -0.8213 -0.7618
  713MOL0     C96155   0.711  10.827   2.963  0.1058  1.0019  0.9298
  713MOL0     O96156   0.572  10.802   2.970  0.5660  0.3484 -0.2037
  713MOL0     C96157   0.513  10.763   2.850  0.4272  0.0454 -0.0712
  713MOL0     C96158   0.375  10.711   2.875 -0.2093 -0.7875  0.4098
  713MOL0     C96159   0.290  10.675   2.755  0.4542 -0.0372  0.0934
  713MOL0     C96160   0.146  10.634   2.799  0.7606 -0.2204  0.4967
  713MOL0     C96161   0.058  10.615   2.680  0.2236  0.3123  0.1593
  713MOL0     C96162  -0.093  10.608   2.727  0.9258  0.2409  0.2402
  713MOL0     C96163  -0.190  10.561   2.610 -0.2277 -0.3668 -1.8272
  713MOL0     C96164  -0.194  10.413   2.622 -0.3198  0.6399 -0.9589
  713MOL0    Cl96165  -0.337  10.360   2.536 -0.1310  0.3984  0.1068
  713MOL0     C96166   0.802  10.773   2.866 -0.1109 -0.6465 -0.2597
  713MOL0     C96167   0.940  10.795   2.866  0.1197  0.2439  0.1163
  713MOL0     O96168   1.209  10.713   3.020  0.0045  0.6998 -0.5867
  713MOL0     C96169   1.463  10.798   3.086 -0.1174  0.0363  0.3840
  713MOL0     C96170   1.591  10.851   3.113 -0.4804 -0.2884  0.2250
  713MOL0     N96171   2.199  10.878   2.757 -0.4170 -0.1909  1.3079
  713MOL0     N96172   2.328  10.850   2.759  0.2318  0.8966 -0.1769
  713MOL0     C96173   3.474  10.957   3.080  0.2278  1.7875 -0.2346
  713MOL0     C96174   3.596  10.994   3.019  0.3184 -0.5321 -0.4448
  713MOL0     C96175   4.006  10.930   2.795 -0.4420  0.5516  0.8391
  713MOL0     C96176   4.131  10.873   2.767 -0.0891 -0.0164  0.5756
  713MOL0     C96177   4.213  10.935   2.672  0.0086 -0.8112 -0.5674
  713MOL0     C96178   4.174  11.049   2.602 -0.5558  0.5159 -0.8979
  713MOL0     O96179   4.259  11.099   2.514  0.1697  0.0729  0.2909
  713MOL0     C96180   4.210  11.165   2.401 -0.1406  0.9078  0.4680
  713MOL0     C96181   4.283  11.106   2.285  0.1837 -0.5661  0.4483
  713MOL0     C96182   4.433  11.135   2.280  0.1246 -0.1094  0.4110
  713MOL0     C96183   4.524  11.025   2.341 -0.2736  0.3151  0.1456
  713MOL0     C96184   4.667  11.057   2.326 -0.7750 -0.3396  0.1010
  713MOL0     C96185   4.785  11.060   2.303  0.2925 -0.0025 -0.6711
  713MOL0     C96186   4.046  11.098   2.631  0.0089 -0.8243  0.3548
  713MOL0     C96187   3.955  11.039   2.721  0.6399 -0.2667  0.1859
  713MOL0     H96188   3.754  10.702   3.014  0.6836  1.2745 -0.2553
  713MOL0     H96189   3.552  10.645   3.153  0.0619 -1.2947 -0.8792
  713MOL0     H96190   3.167  10.881   3.106 -1.4735 -0.7625 -1.7575
  713MOL0     H96191   3.255  10.781   2.986 -1.8970 -3.4829 -0.8646
  713MOL0     H96192   3.212  10.578   3.081 -0.2240 -0.0761 -1.7432
  713MOL0     H96193   3.112  10.655   3.213 -2.6163  2.8429  0.1092
  713MOL0     H96194   3.033  10.726   2.943  0.3442 -0.9027  0.3751
  713MOL0     H96195   3.021  10.562   2.965 -1.0538  0.0566 -0.8170
  713MOL0     H96196   2.877  10.568   3.168 -0.8365  0.9575  0.3308
  713MOL0     H96197   2.901  10.749   3.175 -0.8319 -0.5572  2.0151
  713MOL0     H96198   2.771  10.574   2.966  2.9180  0.9824 -1.6908
  713MOL0     H96199   2.678  10.669   3.097  1.8395  3.3721  1.6872
  713MOL0     H96200   2.746  10.883   3.011  1.7726 -1.6425  1.1134
  713MOL0     H96201   2.832  10.810   2.880  0.8228 -1.4560  1.6042
  713MOL0     H96202   2.632  10.806   2.759  0.6313 -0.2913  0.6912
  713MOL0     H96203   2.554  10.723   2.896 -0.8057 -1.2599 -1.8391
  713MOL0     H96204   2.562  11.023   2.847 -2.4866  0.2097 -0.3072
  713MOL0     H96205   2.546  10.968   3.007  0.4684 -0.3758 -0.2291
  713MOL0     H96206   2.290  10.991   3.054 -1.8496 -1.0852  1.4098
  713MOL0     H96207   1.983  11.038   2.818  0.2213 -3.3829 -2.5696
  713MOL0     H96208   1.963  10.911   2.931 -1.0990  0.3468 -1.1663
  713MOL0     H96209   1.923  11.169   2.991 -0.0866  1.1247  1.3267
  713MOL0     H96210   2.095  11.176   3.028 -1.0813  0.5241  1.3887
  713MOL0     H96211   1.961  11.122   3.236 -0.7075 -1.7588  0.9662
  713MOL0     H96212   2.049  10.983   3.200  0.8404  0.0602 -0.6166
  713MOL0     H96213   1.829  10.945   3.274  0.6360  0.5456  1.0124
  713MOL0     H96214   1.856  10.869   3.119 -2.0463 -1.3310  1.9789
  713MOL0     H96215   1.571  11.155   2.972 -0.3605 -0.8124 -4.0260
  713MOL0     H96216   1.227  11.139   3.008  0.0831  1.7986 -2.0610
  713MOL0     H96217   1.356  11.203   2.913  0.1751  0.7897  0.2775
  713MOL0     H96218   1.277  11.065   2.845  1.6445  1.1280 -0.7927
  713MOL0     H96219   0.956  11.001   3.134 -1.3547  3.5832 -0.8007
  713MOL0     H96220   0.706  10.920   3.150  2.5446 -1.4322  1.3165
  713MOL0     H96221   0.508  10.848   2.781 -1.8291  1.1679  1.3519
  713MOL0     H96222   0.572  10.682   2.807 -0.7828 -0.6118 -0.5241
  713MOL0     H96223   0.386  10.625   2.941  0.2562 -1.4523 -0.5065
  713MOL0     H96224   0.333  10.799   2.926 -1.3543  1.5365 -4.0039
  713MOL0     H96225   0.330  10.582   2.714 -1.7980 -0.9369 -0.2257
  713MOL0     H96226   0.290  10.754   2.679  0.4607  1.2134  1.3612
  713MOL0     H96227   0.155  10.537   2.848  2.3850 -1.9049 -2.8315
  713MOL0     H96228   0.110  10.719   2.859 -1.2833 -0.7468  0.1114
  713MOL0     H96229   0.084  10.521   2.631 -2.2560 -1.0378  1.2291
  713MOL0     H96230   0.064  10.701   2.612 -0.2034 -1.3388 -2.0872
  713MOL0     H96231  -0.116  10.543   2.812  0.5535 -0.5679 -0.4654
  713MOL0     H96232  -0.125  10.710   2.751 -1.2401 -0.4684  0.5832
  713MOL0     H96233  -0.168  10.591   2.507 -3.9086  0.8661 -2.4022
  713MOL0     H96234  -0.292  10.600   2.618  0.8153  2.3510 -0.5480
  713MOL0     H96235  -0.197  10.387   2.729  2.3070  4.1086  0.1550
  713MOL0     H96236  -0.103  10.373   2.576  0.8342  1.6223  0.3432
  713MOL0     H96237   0.774  10.720   2.775 -2.7826  3.2208 -1.9421
  713MOL0     H96238   1.005  10.755   2.789  0.1787 -0.2177  0.4029
  713MOL0     H96239   1.453  10.692   3.110  1.3060 -0.0669  0.5983
  713MOL0     H96240   1.664  10.786   3.159 -0.3170  0.5173  1.1439
  713MOL0     H96241   3.399  11.033   3.099 -2.1820 -0.2796 -0.9596
  713MOL0     H96242   3.608  11.101   3.007  0.6568 -0.1051  2.9528
  713MOL0     H96243   4.156  10.784   2.823  1.3919  0.0270  0.0407
  713MOL0     H96244   4.316  10.906   2.653  0.4555 -0.1086  0.6542
  713MOL0     H96245   4.102  11.150   2.384  0.0286  0.1025  0.0201
  713MOL0     H96246   4.225  11.273   2.402 -1.4519  1.1006  0.8232
  713MOL0     H96247   4.246  11.155   2.194  2.5663  1.3627  0.4047
  713MOL0     H96248   4.267  10.998   2.274  0.1449 -0.4950 -0.2253
  713MOL0     H96249   4.465  11.216   2.347 -0.0662  0.7389 -0.4941
  713MOL0     H96250   4.461  11.156   2.176  1.6316 -0.8495  0.6361
  713MOL0     H96251   4.504  10.924   2.304  3.6960 -0.3219 -0.7539
  713MOL0     H96252   4.484  11.026   2.443 -1.4822  0.6044 -0.3126
  713MOL0     H96253   4.892  11.058   2.299  0.3801 -1.7914  0.9338
  713MOL0     H96254   4.025  11.192   2.581  1.3136  0.0292  1.3558
  713MOL0     H96255   3.860  11.085   2.744 -0.6288 -1.7401 -1.7948
  714MOL0     O96256   9.117   8.474   0.681 -0.0198 -0.1969 -0.0785
  714MOL0     C96257   9.233   8.521   0.659  0.1684  0.4073 -0.8477
  714MOL0     O96258   9.322   8.564   0.748 -0.2914  0.5787 -0.7154
  714MOL0     C96259   9.303   8.521   0.877  0.2732  0.0882  0.0250
  714MOL0     C96260   9.246   8.614   0.955  0.6012  0.3681 -0.4973
  714MOL0     C96261   9.210   8.592   1.088 -0.7343  1.1349 -0.6864
  714MOL0     C96262   9.216   8.459   1.133  0.3686  0.2231 -0.3664
  714MOL0     O96263   9.150   8.433   1.245 -0.5477 -0.7369  0.4892
  714MOL0     C96264   9.205   8.350   1.347 -0.5040  0.0203 -0.1876
  714MOL0     C96265   9.093   8.282   1.424  0.0871 -0.2147 -0.2717
  714MOL0     C96266   9.154   8.238   1.547 -0.1833 -0.1944  0.4803
  714MOL0     C96267   9.074   8.142   1.621  0.2910  0.5387 -0.3943
  714MOL0     C96268   9.128   8.118   1.765 -0.2586 -1.1923  0.4051
  714MOL0     C96269   9.063   7.991   1.829  0.3360 -0.3603  0.8114
  714MOL0     C96270   9.098   7.967   1.977 -0.0426 -0.1922  0.5068
  714MOL0     C96271   9.072   7.833   2.029 -0.3459 -0.4107 -0.0099
  714MOL0     N96272   8.928   7.815   2.041 -0.4714  0.3849  0.0829
  714MOL0     C96273   8.844   7.784   1.937 -0.1152 -0.4850  1.0080
  714MOL0     C96274   8.724   7.775   1.995 -0.6192  0.4878 -0.7712
  714MOL0     C96275   8.589   7.765   1.925  0.2461 -0.0590 -0.4082
  714MOL0     C96276   8.497   7.893   1.944  0.5224  0.3437  0.7018
  714MOL0     C96277   8.431   7.900   2.078  0.5487 -0.4552 -0.7721
  714MOL0     C96278   8.347   8.035   2.096  0.2659  0.2757 -0.4862
  714MOL0     O96279   8.270   8.028   2.220  0.1796 -0.2603  0.0416
  714MOL0     C96280   8.202   8.137   2.275 -0.3858 -0.0362  0.4339
  714MOL0     C96281   8.092   8.125   2.357 -0.0841 -0.0966 -0.2807
  714MOL0     C96282   8.020   8.236   2.410 -0.7764 -0.2586  0.7802
  714MOL0     C96283   7.915   8.199   2.521 -0.4072  0.2478  0.0804
  714MOL0     C96284   8.056   8.364   2.368  0.3648  0.4595 -0.1490
  714MOL0     C96285   8.005   8.492   2.424  0.6745  0.3294  0.5965
  714MOL0     O96286   8.092   8.599   2.432  0.2468 -1.3484 -0.3974
  714MOL0     C96287   8.030   8.713   2.480  0.2209 -1.2444  0.0244
  714MOL0     C96288   8.074   8.775   2.596 -0.0900  0.2068 -0.7942
  714MOL0     C96289   8.042   8.906   2.639 -0.5989  0.7602 -0.1658
  714MOL0     C96290   7.946   8.969   2.568 -0.0220  0.3351 -0.8637
  714MOL0     O96291   7.911   9.105   2.601 -0.7674 -0.3162  0.2765
  714MOL0     C96292   7.896   9.185   2.480 -0.0911 -0.6702 -0.6013
  714MOL0     C96293   7.934   9.325   2.514 -0.1730 -0.1122  0.0133
  714MOL0     C96294   7.858   9.379   2.633  0.1696  0.4637  0.0916
  714MOL0     C96295   7.706   9.370   2.622 -0.2286  0.6828 -0.3049
  714MOL0     C96296   7.640   9.426   2.498 -0.0537 -0.3025 -0.4362
  714MOL0     C96297   7.491   9.416   2.493  0.6206  0.7456 -0.4633
  714MOL0     C96298   7.427   9.478   2.370 -0.0606  0.9718 -0.3932
  714MOL0     C96299   7.277   9.464   2.373 -0.8040 -0.0351  0.1711
  714MOL0    Cl96300   7.241   9.482   2.204  0.3341  0.1621  0.0850
  714MOL0     C96301   7.890   8.902   2.456  0.2972 -0.3146  0.2934
  714MOL0     C96302   7.937   8.775   2.410  0.6359  0.6583 -0.1232
  714MOL0     O96303   7.895   8.491   2.477 -0.2217  0.1455  0.7377
  714MOL0     C96304   8.159   8.376   2.276  0.4386 -0.4515  0.5703
  714MOL0     C96305   8.223   8.264   2.233 -0.4890  0.1777  0.8471
  714MOL0     N96306   8.745   7.797   2.127 -1.3648 -0.7556 -0.2780
  714MOL0     N96307   8.867   7.804   2.161 -0.1217 -0.1219  0.4683
  714MOL0     C96308   9.270   8.354   1.055  0.3191  0.2426 -0.1706
  714MOL0     C96309   9.310   8.388   0.924  0.3208 -0.6502  0.2423
  714MOL0     C96310   9.276   8.520   0.522  0.6843  0.4709  0.5705
  714MOL0     C96311   9.366   8.614   0.472  1.2437  0.2454 -0.2038
  714MOL0     C96312   9.405   8.609   0.335 -0.0900  1.0492 -1.2341
  714MOL0     C96313   9.354   8.515   0.243  0.5204 -0.7338 -0.4404
  714MOL0     O96314   9.399   8.509   0.115  0.5404 -0.6334  0.0807
  714MOL0     C96315   9.430   8.641   0.054  0.0408  0.2516 -0.3238
  714MOL0     C96316   9.588   8.662   0.059  0.2297  0.5605  0.3228
  714MOL0     C96317   9.642   8.798   0.026 -0.2728  0.0563  0.4476
  714MOL0     C96318   9.611   8.844  -0.113 -0.7294 -0.4176 -0.3645
  714MOL0     C96319   9.654   8.751  -0.218  0.8722  0.1538  0.8931
  714MOL0     C96320   9.712   8.666  -0.287 -0.7614  0.7739  0.3529
  714MOL0     C96321   9.258   8.429   0.295 -0.2078  0.5313 -0.5569
  714MOL0     C96322   9.225   8.421   0.431  0.1871 -0.0220 -0.4388
  714MOL0     H96323   9.238   8.711   0.907  3.4761 -0.5350 -3.0624
  714MOL0     H96324   9.167   8.665   1.156 -2.6338  0.3285 -0.9480
  714MOL0     H96325   9.272   8.271   1.311  1.0048  0.3791  1.6693
  714MOL0     H96326   9.269   8.418   1.404 -2.4086  0.8665  1.0481
  714MOL0     H96327   9.022   8.362   1.443 -0.8314  0.3770 -4.9456
  714MOL0     H96328   9.045   8.207   1.360 -1.6794  0.0568  0.6814
  714MOL0     H96329   9.259   8.211   1.530  0.0431  0.7748  0.2771
  714MOL0     H96330   9.164   8.336   1.596  1.4307 -0.1854  0.2124
  714MOL0     H96331   8.967   8.158   1.633  0.4808  0.4662  1.7308
  714MOL0     H96332   9.081   8.047   1.567  1.0211 -0.9084  2.0876
  714MOL0     H96333   9.237   8.110   1.750 -0.5495  0.8346 -4.8699
  714MOL0     H96334   9.107   8.203   1.830  1.4783  0.2862 -0.8517
  714MOL0     H96335   8.954   7.999   1.827  0.1485 -0.5866  4.0119
  714MOL0     H96336   9.093   7.900   1.776 -0.2912  0.2661 -0.6641
  714MOL0     H96337   9.206   7.983   1.988 -0.4639  1.9728  2.2105
  714MOL0     H96338   9.063   8.041   2.050  1.6814  0.2971  0.8728
  714MOL0     H96339   9.118   7.817   2.127  0.4629  1.1904 -0.0920
  714MOL0     H96340   9.118   7.772   1.952 -1.2856  0.5821 -1.4031
  714MOL0     H96341   8.865   7.765   1.832  2.4112  1.3416  1.1000
  714MOL0     H96342   8.603   7.761   1.817 -0.6253  1.0123 -0.5811
  714MOL0     H96343   8.529   7.684   1.967  1.6263  0.1248  2.1275
  714MOL0     H96344   8.415   7.878   1.873  2.0899 -0.8434 -0.9386
  714MOL0     H96345   8.545   7.988   1.919 -2.0835  1.2778 -1.2165
  714MOL0     H96346   8.516   7.907   2.147  0.5895 -1.3470 -0.7111
  714MOL0     H96347   8.365   7.814   2.091 -1.4604  0.8326 -1.9367
  714MOL0     H96348   8.282   8.056   2.011  1.7117  0.2778 -1.6299
  714MOL0     H96349   8.415   8.121   2.097 -0.1204  0.6162 -2.0209
  714MOL0     H96350   8.052   8.030   2.392 -2.4844  0.9147 -0.0408
  714MOL0     H96351   7.839   8.276   2.538 -2.9164 -1.9309 -0.5990
  714MOL0     H96352   7.861   8.106   2.498  0.3235 -0.7313  2.1334
  714MOL0     H96353   7.973   8.178   2.611 -2.0621  0.1322  1.1640
  714MOL0     H96354   8.146   8.714   2.650  0.0096  0.2151 -0.9175
  714MOL0     H96355   8.081   8.960   2.724 -1.1381  1.8472 -0.5800
  714MOL0     H96356   7.966   9.149   2.404  0.2293 -0.9971 -0.1591
  714MOL0     H96357   7.796   9.171   2.438 -0.1745  0.2652 -0.7271
  714MOL0     H96358   8.041   9.323   2.536 -0.0346 -0.7757 -0.7069
  714MOL0     H96359   7.922   9.390   2.427 -0.1192 -2.1054 -1.5694
  714MOL0     H96360   7.898   9.480   2.649  3.5307 -0.9320  1.5426
  714MOL0     H96361   7.868   9.326   2.728 -0.0702  0.3289  0.0419
  714MOL0     H96362   7.673   9.273   2.659 -1.3384  1.4730  0.8822
  714MOL0     H96363   7.672   9.442   2.697 -1.8644  1.9892 -2.1678
  714MOL0     H96364   7.675   9.392   2.400  2.0125  3.0259 -0.9970
  714MOL0     H96365   7.665   9.532   2.504 -0.5155 -0.2961  2.7383
  714MOL0     H96366   7.471   9.309   2.488 -2.9190  1.3428 -3.2400
  714MOL0     H96367   7.450   9.463   2.584 -1.6351  2.4704 -2.2387
  714MOL0     H96368   7.466   9.411   2.292 -0.8136 -0.6393  0.5592
  714MOL0     H96369   7.462   9.581   2.359  0.7910  0.8606  1.0104
  714MOL0     H96370   7.224   9.540   2.432 -0.0791  0.2830  0.4267
  714MOL0     H96371   7.252   9.362   2.402 -0.4599 -0.2593 -0.3113
  714MOL0     H96372   7.801   8.940   2.405 -0.3175 -0.4910  1.2034
  714MOL0     H96373   7.903   8.735   2.315  2.3087  1.3275 -1.0342
  714MOL0     H96374   8.182   8.470   2.227  1.3380  0.6735  2.9792
  714MOL0     H96375   8.303   8.288   2.163 -1.5329 -1.3586 -0.9859
  714MOL0     H96376   9.293   8.250   1.078  1.0274 -0.1273 -2.2527
  714MOL0     H96377   9.348   8.309   0.861 -1.8484 -0.7755 -1.0146
  714MOL0     H96378   9.390   8.695   0.540 -1.6259  1.6972 -0.7747
  714MOL0     H96379   9.482   8.681   0.308  2.7862 -2.4155 -3.3538
  714MOL0     H96380   9.393   8.648  -0.049 -0.4283 -0.3655 -0.2010
  714MOL0     H96381   9.380   8.722   0.108 -1.3422 -1.3468  0.9049
  714MOL0     H96382   9.632   8.586  -0.005 -0.0091  2.2782 -1.9987
  714MOL0     H96383   9.620   8.645   0.162 -1.8256  0.3196  0.9849
  714MOL0     H96384   9.750   8.793   0.039  0.1128 -0.1399 -2.2300
  714MOL0     H96385   9.603   8.866   0.102  1.8964 -0.0483  1.7155
  714MOL0     H96386   9.664   8.938  -0.126  1.8963 -1.4872  1.5833
  714MOL0     H96387   9.504   8.864  -0.128 -0.6111  1.4612  0.9017
  714MOL0     H96388   9.755   8.581  -0.336 -0.5637 -0.2645  2.2399
  714MOL0     H96389   9.213   8.346   0.242  0.7144 -1.9419  2.2404
  714MOL0     H96390   9.144   8.355   0.461  0.4332  0.1584  0.6566
  715MOL0     O96391   6.999   1.943   7.498  0.5467 -0.1455  0.0469
  715MOL0     C96392   7.030   1.908   7.611 -0.3952  0.3347 -0.1890
  715MOL0     O96393   6.946   1.894   7.721  0.2083  0.3746  0.0342
  715MOL0     C96394   6.807   1.887   7.720 -0.5439  0.0256  0.4783
  715MOL0     C96395   6.721   1.880   7.615  0.6085  0.7652 -0.7041
  715MOL0     C96396   6.577   1.862   7.648 -0.7164  0.3283 -0.2813
  715MOL0     C96397   6.523   1.856   7.777 -0.0935  0.0404 -0.6672
  715MOL0     O96398   6.382   1.834   7.804 -0.3435  0.1371 -0.8417
  715MOL0     C96399   6.343   1.716   7.876 -0.8414  0.0939 -0.5262
  715MOL0     C96400   6.199   1.699   7.836  0.1818 -0.8058  0.1742
  715MOL0     C96401   6.171   1.646   7.692 -0.6180 -0.2600 -0.2919
  715MOL0     C96402   6.038   1.688   7.643  0.1322 -0.9128  0.0865
  715MOL0     C96403   5.923   1.598   7.684  0.3466  0.7244  0.3230
  715MOL0     C96404   5.778   1.663   7.684  0.8480 -0.7251 -0.2771
  715MOL0     C96405   5.681   1.570   7.760 -0.2248  0.0673  0.2632
  715MOL0     C96406   5.534   1.610   7.740  0.0194 -0.0418  0.8747
  715MOL0     N96407   5.447   1.542   7.833  0.0577 -0.4437 -0.2288
  715MOL0     C96408   5.403   1.590   7.953 -0.5584 -0.6947  0.1408
  715MOL0     C96409   5.326   1.494   7.998  0.6932 -0.2282 -0.4202
  715MOL0     C96410   5.260   1.479   8.138  0.1310 -1.1986  0.6960
  715MOL0     C96411   5.148   1.600   8.155  0.4068  0.7955  0.8030
  715MOL0     C96412   5.091   1.617   8.295 -0.7790  0.2118 -0.1984
  715MOL0     C96413   5.047   1.489   8.357  0.8211  0.3190  0.0485
  715MOL0     O96414   5.012   1.509   8.499  0.2248  0.6139 -0.2941
  715MOL0     C96415   4.888   1.463   8.542 -0.2825  0.2696  0.5186
  715MOL0     C96416   4.892   1.383   8.654  0.0933  0.3241 -0.1270
  715MOL0     C96417   4.774   1.325   8.704 -0.0938  0.5750 -0.6272
  715MOL0     C96418   4.800   1.236   8.824  0.5049  0.1908  0.8065
  715MOL0     C96419   4.652   1.374   8.668 -0.0759  0.5844 -0.2741
  715MOL0     C96420   4.522   1.338   8.740  0.7925 -0.9140 -0.0909
  715MOL0     O96421   4.408   1.386   8.678  0.3772  0.4484  0.2031
  715MOL0     C96422   4.287   1.371   8.744 -0.6417  0.4053 -0.1997
  715MOL0     C96423   4.213   1.259   8.711  0.6426  0.0633 -0.2762
  715MOL0     C96424   4.083   1.256   8.762  0.2854  0.8371 -0.3062
  715MOL0     C96425   4.039   1.335   8.854 -0.6100 -0.4960  0.1085
  715MOL0     O96426   3.926   1.327   8.929 -0.1188  0.3048 -0.1130
  715MOL0     C96427   3.868   1.195   8.952 -0.6599 -0.7253  0.5141
  715MOL0     C96428   3.772   1.179   8.838 -0.1266  1.0684 -0.2472
  715MOL0     C96429   3.651   1.102   8.902 -0.5899  0.1265  0.5420
  715MOL0     C96430   3.550   1.043   8.803 -0.4953 -0.3288  0.1921
  715MOL0     C96431   3.421   0.976   8.856  0.2324  0.7891 -0.0775
  715MOL0     C96432   3.341   0.886   8.762 -0.1229 -0.3433 -0.4796
  715MOL0     C96433   3.210   0.827   8.838  0.3309  0.2875  0.1649
  715MOL0     C96434   3.082   0.892   8.792 -0.8258 -0.1774  0.1441
  715MOL0    Cl96435   3.071   0.869   8.607 -0.5466 -0.2022 -0.0151
  715MOL0     C96436   4.122   1.442   8.903 -0.3134 -0.3992  0.4559
  715MOL0     C96437   4.242   1.462   8.838 -0.2514 -0.2504 -0.4907
  715MOL0     O96438   4.521   1.290   8.850  0.2747  0.1099  0.5938
  715MOL0     C96439   4.650   1.466   8.558  0.7882  0.2373  0.0817
  715MOL0     C96440   4.769   1.491   8.487 -0.1348  0.3025 -0.4445
  715MOL0     N96441   5.318   1.387   7.906  0.2645  0.6448  0.8500
  715MOL0     N96442   5.389   1.415   7.802  0.1910  0.1830  0.7193
  715MOL0     C96443   6.627   1.871   7.879 -0.4487 -0.0057  1.0838
  715MOL0     C96444   6.759   1.882   7.849 -0.1150 -0.0238  0.2290
  715MOL0     C96445   7.175   1.875   7.648 -0.3388 -0.3474 -0.7669
  715MOL0     C96446   7.263   1.861   7.535 -0.4342  0.3857 -1.2356
  715MOL0     C96447   7.391   1.802   7.554  0.5656 -0.2773 -1.2392
  715MOL0     C96448   7.444   1.786   7.682 -0.7548 -0.6288 -0.1130
  715MOL0     O96449   7.572   1.733   7.708  0.8155  0.0775 -0.3613
  715MOL0     C96450   7.669   1.744   7.595 -0.5529 -0.0143 -0.8662
  715MOL0     C96451   7.795   1.676   7.649  0.0445 -0.6488 -0.9384
  715MOL0     C96452   7.775   1.525   7.678  1.2499 -0.4781 -1.0134
  715MOL0     C96453   7.773   1.487   7.822 -0.0053 -0.1329 -0.2369
  715MOL0     C96454   7.909   1.529   7.873 -0.3753 -0.1708 -0.0637
  715MOL0     C96455   8.012   1.552   7.936  0.3529 -0.1854  0.4588
  715MOL0     C96456   7.358   1.804   7.788 -1.2484 -0.0529 -0.0708
  715MOL0     C96457   7.230   1.847   7.772  0.6379 -0.3925  0.0505
  715MOL0     H96458   6.763   1.874   7.515  1.6897  2.9695 -0.4316
  715MOL0     H96459   6.512   1.852   7.561 -0.2140  0.3688 -0.6614
  715MOL0     H96460   6.410   1.638   7.838 -0.7762 -0.8715  1.4438
  715MOL0     H96461   6.351   1.727   7.985 -1.7835  1.1706 -0.5466
  715MOL0     H96462   6.159   1.633   7.914  0.9350  0.0094  1.2774
  715MOL0     H96463   6.161   1.801   7.844  0.7222 -0.6339  0.6236
  715MOL0     H96464   6.246   1.682   7.622 -2.1241  4.5549  0.1780
  715MOL0     H96465   6.168   1.537   7.702 -0.8545 -0.4432 -2.0961
  715MOL0     H96466   6.012   1.792   7.667  0.4203 -0.8572  0.1661
  715MOL0     H96467   6.055   1.687   7.535  1.4438 -4.0166  0.2290
  715MOL0     H96468   5.914   1.505   7.628 -2.3946  0.5116  0.9475
  715MOL0     H96469   5.939   1.562   7.786 -0.4357  0.3254  0.3162
  715MOL0     H96470   5.780   1.761   7.734 -1.7979  0.6467 -2.6087
  715MOL0     H96471   5.746   1.675   7.581 -2.8358 -2.2761  0.5382
  715MOL0     H96472   5.713   1.469   7.732  0.4214  0.1237  0.7735
  715MOL0     H96473   5.700   1.576   7.868  0.7568 -1.2730  0.1865
  715MOL0     H96474   5.510   1.582   7.637  1.2639 -0.3820  0.6659
  715MOL0     H96475   5.523   1.718   7.747 -2.3818 -0.1433 -0.3741
  715MOL0     H96476   5.442   1.677   8.005  3.5213 -0.7689 -2.3644
  715MOL0     H96477   5.224   1.377   8.155  1.2328 -1.9073 -0.9769
  715MOL0     H96478   5.342   1.503   8.207  0.6624  1.4925 -0.7603
  715MOL0     H96479   5.068   1.601   8.081  0.7730  4.6276  0.2279
  715MOL0     H96480   5.191   1.699   8.135 -0.6681  1.7214  2.8338
  715MOL0     H96481   5.008   1.681   8.263  0.7516  2.5522  0.3592
  715MOL0     H96482   5.165   1.669   8.357 -0.1255  0.0027 -0.7940
  715MOL0     H96483   5.131   1.418   8.360 -1.3356 -2.4432 -0.6461
  715MOL0     H96484   4.974   1.446   8.288  1.5156  0.7878 -0.9946
  715MOL0     H96485   4.981   1.359   8.710 -0.8478  0.8335  1.6557
  715MOL0     H96486   4.740   1.268   8.909  0.5073  5.2068 -0.8037
  715MOL0     H96487   4.793   1.129   8.800  0.4641  0.2020  0.7682
  715MOL0     H96488   4.905   1.239   8.856  0.7368 -2.1565  0.4605
  715MOL0     H96489   4.253   1.191   8.637 -0.9888  0.0740 -1.1974
  715MOL0     H96490   4.021   1.177   8.720  1.7619  0.2537 -1.4979
  715MOL0     H96491   3.943   1.116   8.962 -1.9507 -2.0860 -0.1864
  715MOL0     H96492   3.807   1.211   9.042 -0.6129  2.5782  0.0728
  715MOL0     H96493   3.751   1.276   8.794  0.3995  0.2025 -2.5232
  715MOL0     H96494   3.814   1.116   8.759  0.7356  0.4564  0.6512
  715MOL0     H96495   3.598   1.176   8.963 -0.7881  1.4710 -1.1751
  715MOL0     H96496   3.683   1.015   8.961 -0.2115 -0.3873 -0.4013
  715MOL0     H96497   3.507   1.126   8.746 -0.5658  0.2733  1.1019
  715MOL0     H96498   3.595   0.970   8.735  1.2056 -0.1296  1.0617
  715MOL0     H96499   3.363   1.057   8.902 -0.1313  0.2177  0.4746
  715MOL0     H96500   3.441   0.913   8.943  1.2371  0.4402 -0.5474
  715MOL0     H96501   3.317   0.958   8.684  1.6342  1.7534  0.7980
  715MOL0     H96502   3.403   0.805   8.720 -0.4408 -0.3052 -1.0248
  715MOL0     H96503   3.211   0.833   8.947 -0.1829  0.1400  0.1800
  715MOL0     H96504   3.207   0.719   8.824  1.4743 -0.0726  2.3610
  715MOL0     H96505   3.077   0.999   8.815 -0.4160 -0.5305  2.0417
  715MOL0     H96506   2.995   0.848   8.841 -0.1468  0.5004  2.0249
  715MOL0     H96507   4.081   1.482   8.995 -1.5483  0.9273 -0.6080
  715MOL0     H96508   4.298   1.551   8.864  0.5946 -1.5793  2.6089
  715MOL0     H96509   4.556   1.508   8.524  0.0509 -1.6440 -0.2946
  715MOL0     H96510   4.765   1.561   8.404 -0.8180 -0.9444 -1.4947
  715MOL0     H96511   6.606   1.870   7.986  1.5849 -0.9740  1.5177
  715MOL0     H96512   6.827   1.879   7.933 -0.4871  2.4036  0.6782
  715MOL0     H96513   7.232   1.886   7.434 -2.0303  0.3074 -0.7902
  715MOL0     H96514   7.456   1.785   7.469  2.1854 -2.3906  0.3140
  715MOL0     H96515   7.640   1.700   7.500 -1.0311  0.0150 -0.7350
  715MOL0     H96516   7.689   1.850   7.573 -0.0481 -0.3035 -1.8418
  715MOL0     H96517   7.822   1.732   7.739 -0.8076  0.8004 -1.5541
  715MOL0     H96518   7.878   1.694   7.580 -0.8228  0.8640 -1.6429
  715MOL0     H96519   7.854   1.466   7.633  1.7304 -1.9562  1.5966
  715MOL0     H96520   7.679   1.494   7.635 -0.1900  0.7034  1.1338
  715MOL0     H96521   7.761   1.379   7.833  0.7392 -0.1518  0.5113
  715MOL0     H96522   7.695   1.539   7.879  0.9211  0.8302  0.1924
  715MOL0     H96523   8.088   1.571   8.010 -0.2238 -0.7049  1.2028
  715MOL0     H96524   7.399   1.780   7.885  0.8979 -1.4325 -1.2487
  715MOL0     H96525   7.169   1.836   7.861 -1.1111 -0.5777 -1.1361
  716MOL0     O96526   9.639   6.984   4.803 -0.7834 -0.1467 -0.1817
  716MOL0     C96527   9.662   6.859   4.801 -0.0517  0.2237  1.0007
  716MOL0     O96528   9.578   6.754   4.786  0.3888 -0.6132 -1.4416
  716MOL0     C96529   9.438   6.764   4.776  1.1339 -0.7144  0.0531
  716MOL0     C96530   9.384   6.868   4.689 -0.5036  0.3228  0.4068
  716MOL0     C96531   9.244   6.892   4.689 -0.2319  0.0312  0.1701
  716MOL0     C96532   9.154   6.800   4.750  0.3259  0.0648 -0.6636
  716MOL0     O96533   9.016   6.825   4.715 -0.0529  0.1626 -0.6470
  716MOL0     C96534   8.909   6.742   4.768  0.5658 -0.1024  0.4713
  716MOL0     C96535   8.860   6.793   4.902 -0.5334 -0.3735  0.1698
  716MOL0     C96536   8.798   6.931   4.902 -0.1790 -0.6374  0.1009
  716MOL0     C96537   8.753   6.968   5.046  0.3079 -1.1190  0.2226
  716MOL0     C96538   8.739   7.122   5.066  0.6174  0.5834  0.1551
  716MOL0     C96539   8.688   7.156   5.214 -0.5516  0.1502 -0.2561
  716MOL0     C96540   8.531   7.127   5.224 -0.1450 -0.2363 -0.0652
  716MOL0     C96541   8.472   7.185   5.353  0.1595 -0.3599 -0.7593
  716MOL0     N96542   8.338   7.142   5.370 -0.0628 -0.4444  0.2888
  716MOL0     C96543   8.287   7.021   5.392 -0.2971  0.1095  0.9982
  716MOL0     C96544   8.158   7.040   5.416 -0.6660 -0.1065 -0.2237
  716MOL0     C96545   8.086   6.914   5.451  0.6305 -0.5717  0.2839
  716MOL0     C96546   7.927   6.934   5.468 -0.5654  0.0163  0.3462
  716MOL0     C96547   7.870   6.806   5.538  0.2122 -0.8514 -0.1196
  716MOL0     C96548   7.729   6.828   5.592  0.2808 -0.5856  0.0579
  716MOL0     O96549   7.673   6.699   5.621  0.2724 -1.1709 -0.0048
  716MOL0     C96550   7.549   6.693   5.673 -0.2305  0.1755 -1.1347
  716MOL0     C96551   7.502   6.568   5.703  0.9398 -0.3205 -0.2270
  716MOL0     C96552   7.368   6.551   5.757 -0.1545 -0.0694 -0.2704
  716MOL0     C96553   7.326   6.407   5.789  0.8030  0.3367 -0.3038
  716MOL0     C96554   7.294   6.665   5.795  0.7215 -0.2583 -0.3817
  716MOL0     C96555   7.160   6.668   5.868  0.0643 -0.3691  0.1987
  716MOL0     O96556   7.100   6.787   5.903 -0.0469 -0.3266 -0.6366
  716MOL0     C96557   7.001   6.785   6.002 -0.3606 -0.1797  0.4628
  716MOL0     C96558   6.865   6.788   5.969  0.1242  0.3836  0.4655
  716MOL0     C96559   6.767   6.771   6.065  0.1347 -0.1163 -0.6065
  716MOL0     C96560   6.796   6.753   6.197  0.4665 -0.3923 -0.5398
  716MOL0     O96561   6.700   6.735   6.296  0.1745  0.0266  0.1497
  716MOL0     C96562   6.581   6.813   6.308 -0.2383  0.0590  0.0021
  716MOL0     C96563   6.492   6.728   6.386  0.4535 -0.3652  0.1656
  716MOL0     C96564   6.340   6.764   6.361  0.6681 -0.2775 -0.2515
  716MOL0     C96565   6.296   6.913   6.371 -0.5219  1.0230  0.8770
  716MOL0     C96566   6.220   6.960   6.252 -0.1994 -0.1320  0.4726
  716MOL0     C96567   6.164   7.102   6.274  0.1533 -0.7914 -0.2903
  716MOL0     C96568   6.061   7.133   6.157 -0.2851  0.3894 -0.3370
  716MOL0     C96569   5.987   7.265   6.177 -0.5717  0.2798  0.2569
  716MOL0    Cl96570   5.896   7.273   6.334 -0.1994  0.2719  0.3568
  716MOL0     C96571   6.925   6.767   6.234  0.1731 -0.4661 -0.0771
  716MOL0     C96572   7.022   6.774   6.135 -1.0738 -0.1417 -0.2000
  716MOL0     O96573   7.114   6.560   5.897  0.3092  0.6223 -0.2634
  716MOL0     C96574   7.352   6.794   5.763 -0.3294 -0.2508 -0.5635
  716MOL0     C96575   7.479   6.809   5.704  0.8730  0.4259 -0.0369
  716MOL0     N96576   8.130   7.170   5.395  0.5923 -0.4372  0.5686
  716MOL0     N96577   8.241   7.233   5.364  0.2679 -0.0653 -0.5556
  716MOL0     C96578   9.204   6.700   4.837  0.3118  0.5767  0.1139
  716MOL0     C96579   9.345   6.683   4.846  1.0912  0.8060 -0.9445
  716MOL0     C96580   9.800   6.817   4.785 -0.5163 -0.2715 -0.2382
  716MOL0     C96581   9.843   6.679   4.798 -0.6908 -0.6492  0.1471
  716MOL0     C96582   9.981   6.638   4.778 -1.1742  0.1820  0.2957
  716MOL0     C96583  10.079   6.734   4.741  1.4367 -1.3432  0.0586
  716MOL0     O96584  10.205   6.690   4.710  0.1912 -0.2194  0.4648
  716MOL0     C96585  10.301   6.768   4.638  0.8430 -0.1490  0.2351
  716MOL0     C96586  10.444   6.710   4.666 -0.0134 -0.4399  0.4608
  716MOL0     C96587  10.545   6.685   4.552 -0.8020 -0.8559  0.2617
  716MOL0     C96588  10.625   6.554   4.582 -0.0979  0.1548  0.1528
  716MOL0     C96589  10.707   6.564   4.701  0.8536 -0.6790  0.0222
  716MOL0     C96590  10.785   6.568   4.791 -0.0756 -0.1594  0.3624
  716MOL0     C96591  10.035   6.867   4.722  0.8103  0.0578  0.1952
  716MOL0     C96592   9.897   6.906   4.743 -0.8765 -0.2824  0.5815
  716MOL0     H96593   9.450   6.923   4.623  0.2086 -0.2297  0.6500
  716MOL0     H96594   9.200   6.975   4.636 -0.8881 -0.7527 -0.5298
  716MOL0     H96595   8.818   6.749   4.707  0.7407  0.5079  0.2779
  716MOL0     H96596   8.939   6.639   4.788  1.5259  0.5569  2.7034
  716MOL0     H96597   8.775   6.731   4.932 -0.1423 -1.4422 -0.8531
  716MOL0     H96598   8.938   6.795   4.980  0.2583  4.5158 -0.4375
  716MOL0     H96599   8.875   7.002   4.872  1.6706 -1.8070  1.8002
  716MOL0     H96600   8.719   6.939   4.828  0.4240  1.6013 -0.3708
  716MOL0     H96601   8.663   6.913   5.074 -0.5708 -0.6124 -1.4411
  716MOL0     H96602   8.835   6.927   5.107  1.8430 -0.1266 -1.0827
  716MOL0     H96603   8.835   7.164   5.036  2.3206 -0.9739  2.9808
  716MOL0     H96604   8.667   7.154   4.990  2.3949  0.8973 -1.4572
  716MOL0     H96605   8.733   7.094   5.291 -0.4974  1.2531  0.6308
  716MOL0     H96606   8.708   7.261   5.236 -0.6429 -0.2088  1.7359
  716MOL0     H96607   8.480   7.172   5.138 -0.0662  3.3076  1.5861
  716MOL0     H96608   8.524   7.018   5.216  0.1642 -0.3073  0.5763
  716MOL0     H96609   8.463   7.294   5.348  0.0360  0.0001  3.5098
  716MOL0     H96610   8.525   7.162   5.446 -1.8423  0.0669  0.5850
  716MOL0     H96611   8.338   6.926   5.402  0.1929  0.2366 -0.1340
  716MOL0     H96612   8.112   6.828   5.388  0.8026  0.6180 -1.3593
  716MOL0     H96613   8.129   6.886   5.547  0.4020 -2.0018 -0.0125
  716MOL0     H96614   7.888   6.953   5.368  3.1775 -0.6394 -1.3804
  716MOL0     H96615   7.908   7.028   5.522  1.6311  1.8880 -1.9229
  716MOL0     H96616   7.934   6.785   5.625 -1.9351  1.7578  2.3165
  716MOL0     H96617   7.867   6.722   5.468 -0.4366 -2.5284  1.8185
  716MOL0     H96618   7.678   6.887   5.515  0.6206 -3.1962 -2.3693
  716MOL0     H96619   7.732   6.885   5.685  1.0838 -2.3965  1.1894
  716MOL0     H96620   7.560   6.480   5.677  0.1847 -0.3126 -2.0952
  716MOL0     H96621   7.392   6.326   5.758  1.3369  0.2648  0.9490
  716MOL0     H96622   7.312   6.400   5.898 -1.3679 -3.0921 -0.6389
  716MOL0     H96623   7.228   6.375   5.752  1.6105 -2.8701  0.0544
  716MOL0     H96624   6.848   6.800   5.862 -1.8099  2.6618  0.9435
  716MOL0     H96625   6.660   6.778   6.047 -0.6869 -0.4025  3.2221
  716MOL0     H96626   6.602   6.898   6.374  1.4575 -1.0950  1.0118
  716MOL0     H96627   6.545   6.845   6.210  2.5506  3.6998 -0.0283
  716MOL0     H96628   6.515   6.628   6.346  1.6573  0.0008 -0.0873
  716MOL0     H96629   6.517   6.722   6.492  1.9151 -0.9625 -0.1926
  716MOL0     H96630   6.286   6.711   6.440  1.4782 -0.0885  0.4445
  716MOL0     H96631   6.323   6.715   6.264  2.1612  0.6924 -1.0499
  716MOL0     H96632   6.223   6.924   6.452 -0.0109  3.0658  1.1118
  716MOL0     H96633   6.377   6.980   6.403 -0.3805 -0.8113  5.1147
  716MOL0     H96634   6.136   6.893   6.229 -1.0725  0.4285  1.8619
  716MOL0     H96635   6.282   6.970   6.163 -2.7570  2.7779 -1.1417
  716MOL0     H96636   6.123   7.108   6.375  1.2050 -1.9869  0.2230
  716MOL0     H96637   6.243   7.178   6.274 -1.8127  1.4349 -2.6543
  716MOL0     H96638   5.998   7.045   6.139  0.4270 -0.8029  2.4332
  716MOL0     H96639   6.115   7.141   6.062  0.0584  1.4758 -0.0651
  716MOL0     H96640   5.911   7.281   6.100  0.1055 -0.2814 -0.5597
  716MOL0     H96641   6.063   7.343   6.186  0.1525 -0.3540 -0.2225
  716MOL0     H96642   6.955   6.762   6.339  1.3094 -0.6035 -0.3918
  716MOL0     H96643   7.124   6.774   6.172 -1.0909  2.1936 -0.0411
  716MOL0     H96644   7.302   6.884   5.796  0.7215 -0.3058  1.3076
  716MOL0     H96645   7.516   6.910   5.692 -1.0706  1.3988  1.6401
  716MOL0     H96646   9.135   6.645   4.901  1.2049  0.0959  0.6737
  716MOL0     H96647   9.387   6.605   4.909  0.7561 -0.1837 -1.9061
  716MOL0     H96648   9.765   6.606   4.815 -0.9784 -0.2526  0.5522
  716MOL0     H96649  10.003   6.531   4.784  0.7689  0.6242  3.0801
  716MOL0     H96650  10.262   6.777   4.536  0.1071  0.4378  0.5582
  716MOL0     H96651  10.298   6.869   4.679  0.5525 -0.6092  1.3726
  716MOL0     H96652  10.435   6.614   4.717  0.7681 -1.0618 -0.5235
  716MOL0     H96653  10.481   6.789   4.732 -1.0987  0.0639  0.4834
  716MOL0     H96654  10.620   6.765   4.545 -0.3550 -1.2681  0.2630
  716MOL0     H96655  10.484   6.682   4.462 -2.1839 -0.6032  1.1496
  716MOL0     H96656  10.691   6.520   4.501 -0.1325 -2.2475  1.0361
  716MOL0     H96657  10.557   6.471   4.605  0.2533  0.5382  2.8301
  716MOL0     H96658  10.869   6.576   4.857  1.0611 -0.2539 -1.0263
  716MOL0     H96659  10.092   6.956   4.698  1.3237 -0.9193 -2.5612
  716MOL0     H96660   9.860   7.007   4.727 -1.9736 -0.9295 -1.3877
  717MOL0     O96661  10.168  11.266   3.920  0.4225 -0.0258 -0.5539
  717MOL0     C96662  10.256  11.212   3.852 -0.5611  0.0942  0.3729
  717MOL0     O96663  10.267  11.199   3.710  0.5589 -0.3505 -0.9302
  717MOL0     C96664  10.170  11.269   3.641  1.0338 -0.6209 -0.6943
  717MOL0     C96665  10.103  11.397   3.670 -0.0224 -0.0396  0.7316
  717MOL0     C96666  10.003  11.448   3.587  0.9575  0.1458 -0.7084
  717MOL0     C96667   9.955  11.374   3.478  0.8671 -0.5134 -0.4077
  717MOL0     O96668   9.851  11.419   3.402 -0.1075  0.0835  0.0216
  717MOL0     C96669   9.801  11.356   3.281  0.2774  0.7369  0.9668
  717MOL0     C96670   9.708  11.243   3.324  0.2432 -0.6610 -0.6813
  717MOL0     C96671   9.571  11.292   3.380 -1.1918 -0.2920  0.4715
  717MOL0     C96672   9.474  11.173   3.382  0.3418 -0.1208  0.2076
  717MOL0     C96673   9.323  11.206   3.408  0.0357  0.3924 -1.0526
  717MOL0     C96674   9.287  11.263   3.547  0.4588  0.7081  0.0613
  717MOL0     C96675   9.138  11.324   3.543  0.9786  0.1453  0.2731
  717MOL0     C96676   9.110  11.349   3.689 -0.0136  0.2626  0.6126
  717MOL0     N96677   8.979  11.398   3.717 -0.2205 -0.2483  0.0777
  717MOL0     C96678   8.867  11.326   3.705  0.1670 -0.6923  0.4290
  717MOL0     C96679   8.770  11.405   3.770 -0.3422 -0.1644  1.0204
  717MOL0     C96680   8.628  11.350   3.776 -0.4252 -0.1473  0.5538
  717MOL0     C96681   8.522  11.454   3.754  0.2063 -0.1223 -0.0468
  717MOL0     C96682   8.499  11.535   3.879  0.6297 -1.1602  0.8616
  717MOL0     C96683   8.399  11.657   3.848  0.1446  0.4083 -0.3842
  717MOL0     O96684   8.280  11.623   3.780  0.0321 -0.3252  0.3701
  717MOL0     C96685   8.188  11.526   3.827  0.2604 -0.1595 -0.1216
  717MOL0     C96686   8.144  11.532   3.964 -0.3040  0.4884  0.2325
  717MOL0     C96687   8.035  11.451   4.012  0.2437  0.2354  0.2858
  717MOL0     C96688   7.997  11.470   4.151  0.0102  0.0197 -0.8354
  717MOL0     C96689   7.980  11.355   3.923  0.2327  0.2192  0.1535
  717MOL0     C96690   7.855  11.279   3.946  0.3229  0.7110  0.1673
  717MOL0     O96691   7.807  11.208   3.850 -0.3386  0.6735  0.3991
  717MOL0     C96692   7.701  11.128   3.871  0.2329 -0.0582 -0.0027
  717MOL0     C96693   7.708  11.016   3.938 -0.0852 -0.2786  0.1138
  717MOL0     C96694   7.606  10.923   3.947  0.1079 -0.8429  0.2572
  717MOL0     C96695   7.491  10.944   3.859  0.4133 -0.3363 -1.6083
  717MOL0     O96696   7.382  10.854   3.849 -0.3220  0.0357 -0.5072
  717MOL0     C96697   7.362  10.780   3.975  0.7648 -0.7376 -0.1843
  717MOL0     C96698   7.215  10.713   3.985 -0.2972 -0.2902  0.1874
  717MOL0     C96699   7.110  10.793   3.905  0.0209  0.5031 -0.3594
  717MOL0     C96700   6.985  10.723   3.916  0.6094 -0.0760  0.4652
  717MOL0     C96701   6.862  10.806   3.866 -0.8915  0.5205  0.1856
  717MOL0     C96702   6.742  10.735   3.921  0.2204 -0.1328  0.0148
  717MOL0     C96703   6.612  10.806   3.871 -0.4094 -0.1475  0.0002
  717MOL0     C96704   6.480  10.722   3.872  0.1259 -0.3565  0.3122
  717MOL0    Cl96705   6.342  10.789   3.769  0.3026 -0.0745 -0.4262
  717MOL0     C96706   7.475  11.063   3.799 -0.5263 -0.2498 -0.0696
  717MOL0     C96707   7.579  11.158   3.803  0.1303  1.0855  0.1358
  717MOL0     O96708   7.796  11.290   4.057  0.3527 -0.6744  0.8538
  717MOL0     C96709   8.040  11.338   3.796  0.5509  0.2500  0.0442
  717MOL0     C96710   8.130  11.434   3.740  0.2367 -0.0147 -0.0441
  717MOL0     N96711   8.831  11.520   3.818 -0.3090 -0.0701  0.4467
  717MOL0     N96712   8.958  11.506   3.791 -0.4906  0.7414  0.5862
  717MOL0     C96713  10.015  11.259   3.445  0.1403  0.1693  0.6356
  717MOL0     C96714  10.115  11.206   3.524 -0.7581 -0.2640  0.7236
  717MOL0     C96715  10.354  11.133   3.926 -0.4900  0.6216 -0.4767
  717MOL0     C96716  10.432  11.033   3.858  0.7749  0.0889 -0.4032
  717MOL0     C96717  10.532  10.953   3.917  0.6171  0.0503 -0.2887
  717MOL0     C96718  10.557  10.967   4.054 -0.6028 -0.2923  0.5764
  717MOL0     O96719  10.661  10.906   4.128 -0.2070  0.8392 -0.1516
  717MOL0     C96720  10.762  10.846   4.059  0.0731 -0.0339 -0.6297
  717MOL0     C96721  10.873  10.949   4.003 -0.1519  0.8073  0.1828
  717MOL0     C96722  10.965  10.878   3.902  0.3485  0.2894 -0.2985
  717MOL0     C96723  11.082  10.958   3.844 -0.0628 -0.2158 -0.7924
  717MOL0     C96724  11.173  11.008   3.949  0.1725  0.0888 -0.6607
  717MOL0     C96725  11.251  11.038   4.041 -0.0860 -0.3675  0.0714
  717MOL0     C96726  10.470  11.057   4.124 -0.3191 -0.2891 -0.3746
  717MOL0     C96727  10.371  11.131   4.065  0.5948  0.0370  0.0551
  717MOL0     H96728  10.159  11.442   3.751  2.2505 -1.2592 -0.0884
  717MOL0     H96729   9.964  11.547   3.609  0.7035 -0.2572  0.7457
  717MOL0     H96730   9.756  11.433   3.218 -0.9886 -1.1774 -0.5940
  717MOL0     H96731   9.882  11.316   3.220 -0.3887  1.3073 -0.3337
  717MOL0     H96732   9.688  11.177   3.240 -0.0849  2.4327 -3.2084
  717MOL0     H96733   9.758  11.188   3.405  0.5967  0.3578 -0.1805
  717MOL0     H96734   9.596  11.326   3.481  1.1580 -0.4802 -0.0069
  717MOL0     H96735   9.526  11.368   3.316 -0.1027 -0.7062 -0.8302
  717MOL0     H96736   9.477  11.130   3.281 -0.3801  0.6086 -0.1343
  717MOL0     H96737   9.502  11.100   3.458  0.2384  0.7605  1.1046
  717MOL0     H96738   9.280  11.279   3.340 -0.9698  0.3060 -0.5228
  717MOL0     H96739   9.261  11.117   3.397  1.5733 -0.9023  0.2833
  717MOL0     H96740   9.299  11.186   3.624 -1.5059  2.8967  2.7445
  717MOL0     H96741   9.351  11.349   3.570 -0.8720  2.5147 -2.5531
  717MOL0     H96742   9.138  11.422   3.494 -2.1293 -0.2234 -0.6474
  717MOL0     H96743   9.060  11.259   3.502  1.1339 -0.8547  1.5088
  717MOL0     H96744   9.184  11.419   3.729  1.2907 -0.4736 -0.3857
  717MOL0     H96745   9.137  11.261   3.748  1.6768  2.3374  3.1555
  717MOL0     H96746   8.853  11.231   3.655 -0.1646  1.3986 -3.9286
  717MOL0     H96747   8.619  11.271   3.700 -0.2222  0.4154 -0.0734
  717MOL0     H96748   8.618  11.294   3.869  2.4739 -1.0224  0.4234
  717MOL0     H96749   8.440  11.385   3.729 -0.7432  1.5389 -1.7490
  717MOL0     H96750   8.537  11.511   3.662 -5.1632 -0.1599 -1.3126
  717MOL0     H96751   8.591  11.572   3.924  0.9735 -0.8689 -0.0476
  717MOL0     H96752   8.454  11.475   3.958 -0.1790 -0.9604  0.5679
  717MOL0     H96753   8.459  11.734   3.799  2.2672 -1.4077 -0.8382
  717MOL0     H96754   8.367  11.694   3.945  2.1807 -2.5892  1.6121
  717MOL0     H96755   8.195  11.599   4.033  1.6949 -1.7242  1.0526
  717MOL0     H96756   7.903  11.524   4.164  0.0769  0.3443 -1.6309
  717MOL0     H96757   7.977  11.367   4.184 -2.2731  0.7715  0.3730
  717MOL0     H96758   8.080  11.519   4.202 -1.5063  1.1911  0.6506
  717MOL0     H96759   7.805  11.001   3.984  0.2468 -1.1264 -0.8290
  717MOL0     H96760   7.617  10.828   3.999 -5.6875 -1.9640  0.1031
  717MOL0     H96761   7.437  10.703   3.996  1.0137 -0.0554  1.5345
  717MOL0     H96762   7.361  10.851   4.058 -1.7971 -2.6842  1.6436
  717MOL0     H96763   7.214  10.608   3.956 -2.4357  0.0678 -1.2154
  717MOL0     H96764   7.199  10.707   4.093  0.4823 -4.3844  0.2439
  717MOL0     H96765   7.138  10.796   3.799  1.3075 -1.8785 -0.1353
  717MOL0     H96766   7.101  10.895   3.945 -0.5630  0.2325  0.2272
  717MOL0     H96767   6.994  10.628   3.861 -2.9264 -0.0536 -0.3777
  717MOL0     H96768   6.979  10.696   4.022  6.1142 -2.2249  0.5524
  717MOL0     H96769   6.861  10.812   3.756 -3.1660 -2.6453 -0.1096
  717MOL0     H96770   6.874  10.903   3.914  2.0872  1.4053 -2.0871
  717MOL0     H96771   6.739  10.630   3.890  1.1542 -0.0138 -0.5101
  717MOL0     H96772   6.752  10.747   4.029  2.1655  0.1779 -0.1622
  717MOL0     H96773   6.630  10.844   3.770 -0.2126 -1.5949 -0.5348
  717MOL0     H96774   6.595  10.891   3.938  1.5640  1.8100 -1.8032
  717MOL0     H96775   6.447  10.724   3.976 -0.2243  3.7036  0.2891
  717MOL0     H96776   6.496  10.621   3.835 -3.9374 -1.3813  0.8586
  717MOL0     H96777   7.384  11.073   3.741 -1.4673  1.3702  1.5813
  717MOL0     H96778   7.572  11.250   3.745 -1.4392  0.3458 -0.9209
  717MOL0     H96779   8.011  11.259   3.727  4.0604 -0.3038 -0.9730
  717MOL0     H96780   8.160  11.430   3.636 -0.5714  1.6270 -0.3692
  717MOL0     H96781   9.983  11.197   3.361 -0.0114 -2.3084  2.4142
  717MOL0     H96782  10.162  11.115   3.486  2.0524  0.4147  2.3068
  717MOL0     H96783  10.411  11.013   3.753  0.4122  1.9266 -0.7180
  717MOL0     H96784  10.593  10.888   3.856  1.1004  0.9887 -0.8226
  717MOL0     H96785  10.805  10.771   4.127 -1.2794  0.8380  1.2882
  717MOL0     H96786  10.717  10.784   3.981  2.4890 -2.3320 -0.3539
  717MOL0     H96787  10.919  10.998   4.090 -2.1227 -0.4984  2.0711
  717MOL0     H96788  10.831  11.033   3.946  0.6215  0.4097 -0.9959
  717MOL0     H96789  10.905  10.835   3.821 -2.2661  3.4442 -0.2227
  717MOL0     H96790  11.008  10.796   3.961 -0.7277  0.4921  0.8027
  717MOL0     H96791  11.051  11.046   3.786  2.9077  0.2128 -1.8675
  717MOL0     H96792  11.142  10.895   3.779  1.8364  1.8804 -1.1991
  717MOL0     H96793  11.315  11.058   4.124  1.1786 -1.2218 -0.6617
  717MOL0     H96794  10.482  11.056   4.232 -0.6868 -3.3454 -0.2897
  717MOL0     H96795  10.299  11.188   4.123 -2.1431 -2.4567 -0.6672
  718MOL0     O96796  10.653   1.853   1.993  0.7942 -0.5889 -0.5922
  718MOL0     C96797  10.646   1.826   2.117  0.3686 -0.5124  0.0443
  718MOL0     O96798  10.525   1.805   2.181  0.5533  0.4380 -0.2401
  718MOL0     C96799  10.415   1.796   2.108 -0.0124  0.1448  1.0971
  718MOL0     C96800  10.378   1.680   2.043  0.9139  1.1715 -0.3459
  718MOL0     C96801  10.254   1.669   1.985 -0.4944  0.1279 -0.1272
  718MOL0     C96802  10.161   1.774   1.976 -0.5600 -0.4551 -0.3993
  718MOL0     O96803  10.041   1.760   1.912 -0.2596 -0.3413  0.3358
  718MOL0     C96804   9.959   1.873   1.879 -0.1816 -0.2058  0.4288
  718MOL0     C96805   9.849   1.834   1.778  0.7688 -0.7318  0.6489
  718MOL0     C96806   9.786   1.948   1.700 -0.2267 -0.8291  0.0783
  718MOL0     C96807   9.717   1.897   1.567  0.3717  0.0083  0.3066
  718MOL0     C96808   9.638   2.012   1.508  0.4096 -0.1585 -0.0375
  718MOL0     C96809   9.502   2.043   1.562 -0.1032 -0.2219  0.2751
  718MOL0     C96810   9.431   2.145   1.472 -0.4924 -0.2423  0.6007
  718MOL0     C96811   9.280   2.161   1.502  0.2237 -0.3585 -0.5095
  718MOL0     N96812   9.220   2.246   1.395  0.5346 -0.1163 -0.4111
  718MOL0     C96813   9.095   2.246   1.348 -0.0369  0.2429 -0.2042
  718MOL0     C96814   9.083   2.349   1.263 -0.2046 -0.2763 -0.1738
  718MOL0     C96815   8.965   2.388   1.184  0.6691  0.0744  0.0492
  718MOL0     C96816   8.831   2.330   1.238 -0.3752  0.4002  0.7791
  718MOL0     C96817   8.712   2.372   1.151  0.9225 -0.6457  0.0683
  718MOL0     C96818   8.590   2.308   1.198  1.1109 -0.2070 -0.9117
  718MOL0     O96819   8.567   2.345   1.342  0.0131  0.4142 -0.0870
  718MOL0     C96820   8.437   2.362   1.373  0.1706  0.1162 -0.7193
  718MOL0     C96821   8.391   2.292   1.484  0.2610 -0.7182  0.4254
  718MOL0     C96822   8.276   2.336   1.548 -1.0914 -0.8430  0.6404
  718MOL0     C96823   8.240   2.245   1.664 -0.7580 -0.0962 -0.4090
  718MOL0     C96824   8.205   2.452   1.498 -0.3397  0.5044 -0.0612
  718MOL0     C96825   8.072   2.493   1.540  0.3979 -0.4952  0.1616
  718MOL0     O96826   8.000   2.573   1.452 -0.4124 -0.0349 -0.1777
  718MOL0     C96827   7.864   2.601   1.481 -0.1904  0.3609 -0.5191
  718MOL0     C96828   7.837   2.690   1.589 -1.0907  0.6742  0.0820
  718MOL0     C96829   7.713   2.729   1.621 -0.0971 -1.0203  0.1998
  718MOL0     C96830   7.600   2.665   1.554  0.3292 -0.4933 -0.7665
  718MOL0     O96831   7.482   2.696   1.614 -0.4909  0.6798  0.1231
  718MOL0     C96832   7.359   2.627   1.574 -0.4314 -0.3081  0.4092
  718MOL0     C96833   7.239   2.700   1.630  0.3725 -0.6594  0.8017
  718MOL0     C96834   7.104   2.628   1.595  0.0396  0.0942  0.2839
  718MOL0     C96835   6.975   2.695   1.658 -0.7848 -0.5357  0.1238
  718MOL0     C96836   6.850   2.612   1.623  0.6983  0.0261  0.3008
  718MOL0     C96837   6.732   2.684   1.693  0.4359  0.5521 -0.4747
  718MOL0     C96838   6.669   2.790   1.600  0.6520  0.1614  0.6174
  718MOL0     C96839   6.537   2.847   1.645 -0.8624  0.0448  0.3421
  718MOL0    Cl96840   6.407   2.732   1.611 -0.0721  0.4099 -0.0401
  718MOL0     C96841   7.625   2.573   1.455 -0.2129 -0.4894  0.9134
  718MOL0     C96842   7.756   2.550   1.407 -0.5948  0.0732 -0.0169
  718MOL0     O96843   8.022   2.435   1.635 -0.2373 -0.3212  0.0111
  718MOL0     C96844   8.260   2.519   1.389  0.6257  0.3293  0.5666
  718MOL0     C96845   8.373   2.477   1.320  0.1267 -0.2736 -0.1905
  718MOL0     N96846   9.209   2.410   1.255  0.2838  0.4413 -0.0867
  718MOL0     N96847   9.287   2.346   1.340 -0.1224  0.7361  0.2606
  718MOL0     C96848  10.193   1.884   2.049  0.2752  0.1160 -0.8808
  718MOL0     C96849  10.320   1.903   2.110 -0.0287 -0.1218 -0.0237
  718MOL0     C96850  10.775   1.820   2.191  0.2541  1.1107 -0.0818
  718MOL0     C96851  10.898   1.836   2.128  0.5029  0.1059 -1.0319
  718MOL0     C96852  11.013   1.810   2.202  0.2685 -0.7027  0.8314
  718MOL0     C96853  11.013   1.776   2.340  0.4823  0.8003 -0.3391
  718MOL0     O96854  11.132   1.746   2.406  0.5882 -1.3528 -0.1500
  718MOL0     C96855  11.251   1.762   2.337 -0.4507  0.0373 -0.2388
  718MOL0     C96856  11.354   1.710   2.428 -0.0354  0.7562 -0.3944
  718MOL0     C96857  11.497   1.770   2.413 -0.6570  0.5078 -0.1210
  718MOL0     C96858  11.587   1.738   2.531  0.8727 -0.5714 -0.4927
  718MOL0     C96859  11.724   1.770   2.505  0.3031  0.6448 -0.4527
  718MOL0     C96860  11.834   1.814   2.492  0.3406  1.1641  1.3564
  718MOL0     C96861  10.891   1.750   2.400 -0.3453 -0.8459 -0.0664
  718MOL0     C96862  10.774   1.771   2.326  0.3034  0.6122 -0.5247
  718MOL0     H96863  10.445   1.595   2.037 -0.0873  0.4084 -0.9949
  718MOL0     H96864  10.236   1.586   1.917  0.7372  0.8310 -1.3636
  718MOL0     H96865   9.904   1.922   1.960 -2.2219  0.2104 -1.0947
  718MOL0     H96866  10.020   1.949   1.829 -1.3552  0.5229  0.0383
  718MOL0     H96867   9.900   1.763   1.712  3.7040 -0.0998  2.0764
  718MOL0     H96868   9.769   1.779   1.828  0.4075 -2.6008 -1.7713
  718MOL0     H96869   9.719   1.995   1.773  1.1239 -0.8395  1.3706
  718MOL0     H96870   9.852   2.029   1.668 -4.6769  2.8219 -1.0609
  718MOL0     H96871   9.789   1.860   1.493  3.0341  3.1140  1.1094
  718MOL0     H96872   9.642   1.820   1.585 -2.3732  2.4150 -0.1378
  718MOL0     H96873   9.704   2.099   1.515  0.5119 -0.3673  2.0704
  718MOL0     H96874   9.623   1.994   1.401 -1.5484  0.0660  0.1750
  718MOL0     H96875   9.442   1.952   1.560  0.2055 -0.4094 -1.6035
  718MOL0     H96876   9.495   2.079   1.665  1.8975 -0.5998  0.5844
  718MOL0     H96877   9.482   2.241   1.484  0.0128 -0.4733  0.3063
  718MOL0     H96878   9.453   2.118   1.368  2.4678 -2.1601  1.5998
  718MOL0     H96879   9.265   2.214   1.597 -2.3273  0.7869 -1.4575
  718MOL0     H96880   9.230   2.064   1.496  0.2396 -0.3954 -0.0667
  718MOL0     H96881   9.017   2.177   1.377  0.7655 -0.8717 -0.6062
  718MOL0     H96882   8.961   2.498   1.181  2.6433  0.1593 -0.9531
  718MOL0     H96883   8.980   2.351   1.082  1.5477  0.4256  0.0421
  718MOL0     H96884   8.813   2.352   1.343 -1.0592  0.0333  0.7474
  718MOL0     H96885   8.842   2.222   1.223 -1.1267  0.6050 -1.7113
  718MOL0     H96886   8.735   2.333   1.051  2.4512  1.1499 -0.3468
  718MOL0     H96887   8.708   2.481   1.144  0.2357 -0.7303 -1.1591
  718MOL0     H96888   8.610   2.201   1.197  0.3920 -0.3419 -1.6592
  718MOL0     H96889   8.506   2.335   1.134 -0.6029 -0.8725  0.9818
  718MOL0     H96890   8.450   2.212   1.527  2.4967 -0.6315 -2.2570
  718MOL0     H96891   8.137   2.209   1.658  0.5347 -3.9552 -3.0401
  718MOL0     H96892   8.293   2.150   1.654  1.9126  0.8771  2.6617
  718MOL0     H96893   8.268   2.293   1.758  2.0968 -0.4591 -0.9841
  718MOL0     H96894   7.925   2.717   1.647 -0.4771  0.1893 -0.6046
  718MOL0     H96895   7.675   2.784   1.707 -0.5813 -1.8371  0.5193
  718MOL0     H96896   7.346   2.648   1.468  1.9227  0.1501  0.1545
  718MOL0     H96897   7.350   2.521   1.601 -0.6576 -0.2847  0.4314
  718MOL0     H96898   7.247   2.697   1.739  1.0598 -1.7153  0.7360
  718MOL0     H96899   7.233   2.805   1.598 -3.3693 -0.5293  1.4523
  718MOL0     H96900   7.110   2.529   1.641  1.7020  0.8736  1.8617
  718MOL0     H96901   7.098   2.608   1.488  0.5400 -1.4366  0.5137
  718MOL0     H96902   6.988   2.717   1.764 -0.6763  2.6699 -0.4637
  718MOL0     H96903   6.971   2.792   1.609 -0.6706 -0.3823  0.4160
  718MOL0     H96904   6.867   2.507   1.649  1.3296  0.3480  1.2538
  718MOL0     H96905   6.845   2.621   1.514  4.6495  1.0621  0.0567
  718MOL0     H96906   6.648   2.616   1.710 -0.3146  0.5677 -3.5339
  718MOL0     H96907   6.763   2.726   1.789  1.6946  1.1547 -1.1186
  718MOL0     H96908   6.664   2.761   1.495 -0.0829  3.8163 -0.4852
  718MOL0     H96909   6.745   2.869   1.610  1.5002 -0.6824  1.0884
  718MOL0     H96910   6.540   2.944   1.595  1.3286  0.9190  1.9668
  718MOL0     H96911   6.551   2.858   1.753 -1.1156 -0.4460  0.4303
  718MOL0     H96912   7.540   2.546   1.394  0.7404  0.4151 -0.8730
  718MOL0     H96913   7.758   2.492   1.315  1.1554  0.2906 -0.1423
  718MOL0     H96914   8.218   2.610   1.347  0.7585 -0.2747 -0.9354
  718MOL0     H96915   8.411   2.520   1.228  1.8992 -0.2258  0.5154
  718MOL0     H96916  10.118   1.962   2.059 -0.2522 -0.1948 -2.2073
  718MOL0     H96917  10.336   1.986   2.178  1.4751 -0.6049  0.2734
  718MOL0     H96918  10.901   1.869   2.025  1.6595  0.4982 -0.8897
  718MOL0     H96919  11.105   1.830   2.148 -0.0098  0.0919  0.6493
  718MOL0     H96920  11.262   1.715   2.238 -1.1614  1.5421 -1.0717
  718MOL0     H96921  11.264   1.869   2.322 -0.3850 -0.1724 -1.9613
  718MOL0     H96922  11.356   1.603   2.405 -0.0957  0.3423  1.3790
  718MOL0     H96923  11.322   1.726   2.531 -0.6463  2.0522 -0.7659
  718MOL0     H96924  11.485   1.878   2.403  3.6453  0.9981 -2.0512
  718MOL0     H96925  11.548   1.743   2.320  1.4552 -0.2370  1.1831
  718MOL0     H96926  11.582   1.630   2.551  0.3338  0.1506  4.5912
  718MOL0     H96927  11.541   1.794   2.613  1.0877  0.8665 -1.3321
  718MOL0     H96928  11.939   1.834   2.483  0.3474  1.3101  1.7664
  718MOL0     H96929  10.885   1.730   2.506  0.0975 -1.0268 -0.0739
  718MOL0     H96930  10.679   1.763   2.378  1.2115 -3.6077  0.8122
  719MOL0     O96931  11.109   1.797   0.637  0.3024 -0.0681 -0.2626
  719MOL0     C96932  11.205   1.860   0.586  0.3780  1.0218 -0.1792
  719MOL0     O96933  11.197   1.983   0.530  0.6024 -0.0962  0.1901
  719MOL0     C96934  11.078   2.034   0.502  0.3781  0.2641  0.5371
  719MOL0     C96935  11.022   2.133   0.576 -0.6836 -0.3366 -0.2045
  719MOL0     C96936  10.889   2.171   0.556  0.6436 -0.0069 -0.1415
  719MOL0     C96937  10.810   2.127   0.451 -0.3763  0.7801 -0.2007
  719MOL0     O96938  10.686   2.158   0.406  0.2718 -0.2581  0.0188
  719MOL0     C96939  10.616   2.242   0.500 -0.3940  0.4886  0.1958
  719MOL0     C96940  10.490   2.308   0.435 -1.4251  0.1245 -0.0892
  719MOL0     C96941  10.442   2.410   0.530  0.0467 -0.4468 -1.0267
  719MOL0     C96942  10.328   2.481   0.479 -0.7375  0.2534  0.3443
  719MOL0     C96943  10.276   2.595   0.559  0.5704 -0.8265 -0.6016
  719MOL0     C96944  10.364   2.726   0.546  0.7316  0.5774 -0.0024
  719MOL0     C96945  10.289   2.858   0.582 -0.2776  0.0684 -0.0571
  719MOL0     C96946  10.376   2.984   0.588 -0.0312 -0.6529 -0.1129
  719MOL0     N96947  10.284   3.102   0.600 -0.1279  0.5650 -0.3932
  719MOL0     C96948  10.208   3.128   0.712  0.4107  0.4780 -0.1732
  719MOL0     C96949  10.142   3.237   0.690  0.1009 -0.2669  0.3845
  719MOL0     C96950  10.060   3.315   0.787 -0.4656  0.1623 -0.4033
  719MOL0     C96951  10.131   3.416   0.877 -0.4420  0.3464  0.6115
  719MOL0     C96952  10.034   3.509   0.949  0.4016  0.7866 -0.5397
  719MOL0     C96953  10.109   3.628   1.009  0.3561  0.5301  0.2499
  719MOL0     O96954  10.034   3.697   1.103 -0.0633 -0.4582 -0.5057
  719MOL0     C96955   9.915   3.760   1.065  0.4103  0.2283 -0.7591
  719MOL0     C96956   9.837   3.817   1.169  0.4086  0.5513  0.2479
  719MOL0     C96957   9.716   3.886   1.140 -0.5143  0.3589  0.1077
  719MOL0     C96958   9.643   3.936   1.268 -0.3682  0.0206 -0.5188
  719MOL0     C96959   9.669   3.899   1.013  0.3904  0.8313 -0.4321
  719MOL0     C96960   9.540   3.952   0.985 -0.0459  0.5628  0.4582
  719MOL0     O96961   9.530   4.039   0.877 -0.0225 -0.1855  0.0431
  719MOL0     C96962   9.400   4.064   0.828  0.0144  0.3494  0.2451
  719MOL0     C96963   9.321   4.146   0.898 -0.2623  0.2246 -0.5392
  719MOL0     C96964   9.193   4.163   0.851 -0.5771 -0.0082  0.7561
  719MOL0     C96965   9.150   4.113   0.730 -0.8992  0.4669 -0.0096
  719MOL0     O96966   9.021   4.140   0.696 -0.2401  0.2070  0.0053
  719MOL0     C96967   8.997   4.145   0.557  0.2577 -0.5446 -0.1326
  719MOL0     C96968   8.870   4.219   0.534  0.7089 -0.1097  0.1705
  719MOL0     C96969   8.747   4.155   0.619 -0.5193 -0.6620 -0.1082
  719MOL0     C96970   8.615   4.231   0.593  0.5447 -0.7968 -0.1281
  719MOL0     C96971   8.512   4.201   0.699 -0.1575 -0.2986  0.4677
  719MOL0     C96972   8.372   4.263   0.664  0.4619 -0.4109  1.6109
  719MOL0     C96973   8.261   4.194   0.739 -0.0836 -0.6775  0.3568
  719MOL0     C96974   8.121   4.212   0.687  0.2267 -1.2248 -0.2455
  719MOL0    Cl96975   8.035   4.363   0.734 -0.2543  0.1144  0.0682
  719MOL0     C96976   9.240   4.034   0.651 -0.1747 -0.6507  0.0821
  719MOL0     C96977   9.366   4.019   0.700 -0.7597  0.1752 -0.6466
  719MOL0     O96978   9.450   3.911   1.056 -0.6421  0.4856 -0.0472
  719MOL0     C96979   9.748   3.849   0.911  0.1573  0.5813 -0.1107
  719MOL0     C96980   9.872   3.779   0.931  0.1254 -0.1408 -0.1628
  719MOL0     N96981  10.165   3.259   0.552 -0.1459  0.0305  0.7363
  719MOL0     N96982  10.253   3.179   0.501 -0.1346  0.1532 -0.4522
  719MOL0     C96983  10.880   2.045   0.364 -0.3809 -0.2484 -0.2181
  719MOL0     C96984  11.008   2.001   0.387  0.6738 -0.7258 -0.2854
  719MOL0     C96985  11.341   1.794   0.598 -0.0509  0.4895  0.8322
  719MOL0     C96986  11.450   1.867   0.552 -0.2144  0.0043 -0.6976
  719MOL0     C96987  11.580   1.809   0.572  0.1815  0.6038 -0.1922
  719MOL0     C96988  11.589   1.675   0.621  0.1805 -0.5904 -0.5492
  719MOL0     O96989  11.718   1.619   0.638  0.3925  0.1432 -0.2832
  719MOL0     C96990  11.735   1.503   0.724 -0.9981 -0.0174 -0.1526
  719MOL0     C96991  11.882   1.489   0.759  0.8475 -1.1954 -0.2057
  719MOL0     C96992  11.877   1.384   0.870 -0.2063  0.2800  0.3461
  719MOL0     C96993  12.020   1.337   0.917 -0.1156 -0.0600  0.9729
  719MOL0     C96994  12.025   1.210   0.991  0.1029 -0.8885  0.5657
  719MOL0     C96995  12.027   1.118   1.072  0.7158 -0.0791  0.7051
  719MOL0     C96996  11.474   1.604   0.666 -0.1967  0.1012 -0.5378
  719MOL0     C96997  11.353   1.666   0.659 -0.0788 -0.7510  1.2064
  719MOL0     H96998  11.083   2.172   0.657  0.2784  2.4822 -2.1404
  719MOL0     H96999  10.860   2.249   0.626  0.3377  1.9489 -2.3139
  719MOL0     H97000  10.575   2.185   0.584  0.1463  1.9789  1.5282
  719MOL0     H97001  10.672   2.330   0.533 -0.8521  1.6962 -2.0961
  719MOL0     H97002  10.503   2.348   0.334 -2.5302  0.4327 -0.1341
  719MOL0     H97003  10.421   2.225   0.418  0.8600 -1.3112 -3.2534
  719MOL0     H97004  10.414   2.355   0.620 -2.7915 -1.5186 -2.4500
  719MOL0     H97005  10.518   2.485   0.554  1.1201 -1.4565 -1.1695
  719MOL0     H97006  10.353   2.519   0.379  0.3253 -0.8081  0.1843
  719MOL0     H97007  10.247   2.412   0.452 -1.6680  2.0098 -1.6846
  719MOL0     H97008  10.177   2.628   0.525  0.4004  0.7269  1.2026
  719MOL0     H97009  10.271   2.569   0.665  1.8153  0.6562 -0.1402
  719MOL0     H97010  10.449   2.710   0.612  1.3940 -3.4867 -1.5418
  719MOL0     H97011  10.408   2.745   0.448 -0.0717  2.2151 -0.0854
  719MOL0     H97012  10.205   2.861   0.511 -0.7528 -0.7907  0.4550
  719MOL0     H97013  10.236   2.837   0.675 -1.5871  1.2492 -0.4936
  719MOL0     H97014  10.428   3.010   0.495  0.5994  0.2135  0.4660
  719MOL0     H97015  10.447   2.976   0.670 -0.9331  0.1543  0.7767
  719MOL0     H97016  10.211   3.066   0.802 -0.1216  0.4293 -0.1854
  719MOL0     H97017   9.971   3.354   0.737 -0.0302  1.9346  0.1466
  719MOL0     H97018  10.015   3.241   0.853  0.5392  0.7275  0.9662
  719MOL0     H97019  10.202   3.475   0.818  0.6019 -1.1629  0.3263
  719MOL0     H97020  10.191   3.370   0.955 -0.1554  1.2782  0.9587
  719MOL0     H97021   9.989   3.445   1.025  0.4197  0.3590 -0.8830
  719MOL0     H97022   9.960   3.545   0.877 -1.0633  3.0813  1.8973
  719MOL0     H97023  10.147   3.695   0.931 -0.9506  1.8166  0.6771
  719MOL0     H97024  10.198   3.583   1.054  0.4601 -0.5892 -0.9790
  719MOL0     H97025   9.877   3.808   1.269  0.2275 -0.8529  0.2113
  719MOL0     H97026   9.594   4.032   1.252  0.9206  0.9373  0.7841
  719MOL0     H97027   9.571   3.862   1.304 -0.6330  0.2715 -0.5251
  719MOL0     H97028   9.714   3.951   1.350 -0.6485  1.7123 -0.5632
  719MOL0     H97029   9.355   4.197   0.987  4.0048 -0.6838 -1.4393
  719MOL0     H97030   9.107   4.214   0.894  0.4775  1.9032  0.6915
  719MOL0     H97031   9.074   4.211   0.516 -1.1289  0.8470 -0.5846
  719MOL0     H97032   8.997   4.045   0.513  0.7481 -0.7528  0.3309
  719MOL0     H97033   8.890   4.325   0.549  3.4132 -0.1175 -2.4714
  719MOL0     H97034   8.840   4.226   0.429  0.8072  4.0150  0.2711
  719MOL0     H97035   8.780   4.155   0.724 -0.0040 -0.4010 -0.2701
  719MOL0     H97036   8.727   4.054   0.584  1.7634 -1.3588  0.4497
  719MOL0     H97037   8.633   4.338   0.587  1.2567 -0.8208  1.1115
  719MOL0     H97038   8.578   4.199   0.496 -0.0504 -0.5005 -0.0040
  719MOL0     H97039   8.540   4.239   0.798 -1.5676  0.0363  0.7553
  719MOL0     H97040   8.502   4.092   0.707 -0.7113 -0.1227  2.7344
  719MOL0     H97041   8.368   4.371   0.682 -3.8237  0.0766 -0.7960
  719MOL0     H97042   8.357   4.262   0.555 -2.0224  1.3680  1.8635
  719MOL0     H97043   8.261   4.220   0.846 -2.7116  1.5382 -0.0432
  719MOL0     H97044   8.267   4.086   0.724 -4.0362 -1.1547  0.9966
  719MOL0     H97045   8.049   4.139   0.727 -0.2473 -1.0668 -0.7950
  719MOL0     H97046   8.126   4.210   0.578  3.1450  2.5692 -0.3982
  719MOL0     H97047   9.208   4.006   0.551  0.0846  1.3492 -0.6107
  719MOL0     H97048   9.429   3.949   0.646  2.7416  2.6718 -0.1756
  719MOL0     H97049   9.717   3.872   0.810 -0.1502 -0.5336 -0.2795
  719MOL0     H97050   9.934   3.747   0.848 -0.3620 -0.4821 -0.4004
  719MOL0     H97051  10.832   2.018   0.271  1.7470  3.8388 -2.7552
  719MOL0     H97052  11.069   1.942   0.320 -1.8023 -1.5633 -1.9109
  719MOL0     H97053  11.447   1.972   0.525  0.2587 -0.2111 -1.6345
  719MOL0     H97054  11.674   1.849   0.536  1.4710 -2.0830 -0.0511
  719MOL0     H97055  11.681   1.523   0.817  1.2948  1.8153  0.8954
  719MOL0     H97056  11.698   1.418   0.667  0.3248 -1.7111  1.3836
  719MOL0     H97057  11.926   1.586   0.785  1.2981 -1.4556  0.0090
  719MOL0     H97058  11.933   1.452   0.669 -0.8708 -0.0267 -1.7381
  719MOL0     H97059  11.825   1.295   0.834  0.9602 -0.9465  1.5986
  719MOL0     H97060  11.829   1.422   0.960 -1.2913 -0.8923  0.2926
  719MOL0     H97061  12.064   1.427   0.959 -1.4030  0.7955  0.5488
  719MOL0     H97062  12.078   1.313   0.827 -0.2564  0.7826  0.6494
  719MOL0     H97063  12.026   1.038   1.143 -0.3398 -0.7430 -0.0270
  719MOL0     H97064  11.479   1.505   0.708 -1.2573 -0.3641 -1.4489
  719MOL0     H97065  11.265   1.615   0.697 -0.5241 -1.7879 -1.0528
  720MOL0     O97066   5.467   2.721   0.941  0.1908 -0.1899  0.2153
  720MOL0     C97067   5.574   2.704   0.885 -0.5166  0.0958 -0.6480
  720MOL0     O97068   5.593   2.700   0.747  0.0797  0.1621 -0.1868
  720MOL0     C97069   5.483   2.702   0.663 -0.5498  0.3770  0.7145
  720MOL0     C97070   5.373   2.620   0.682  0.6699  1.0567  0.4668
  720MOL0     C97071   5.262   2.619   0.596 -0.1510  0.5324  0.0682
  720MOL0     C97072   5.259   2.710   0.492  0.0038 -0.8595  0.1741
  720MOL0     O97073   5.145   2.744   0.424  0.5164 -0.1778 -0.4485
  720MOL0     C97074   5.027   2.664   0.439  0.3636  0.0045  0.4536
  720MOL0     C97075   4.930   2.722   0.339 -0.3502  0.7052 -0.2265
  720MOL0     C97076   4.804   2.635   0.319  0.1667  0.4506  0.6338
  720MOL0     C97077   4.724   2.615   0.452  0.3106 -0.0166  0.1373
  720MOL0     C97078   4.606   2.518   0.424 -0.2026 -0.5355 -0.1696
  720MOL0     C97079   4.505   2.568   0.319  0.4762  0.1946 -0.1177
  720MOL0     C97080   4.378   2.473   0.334 -0.1126 -0.0639 -0.2488
  720MOL0     C97081   4.264   2.528   0.257  0.2006 -0.8554 -0.2891
  720MOL0     N97082   4.145   2.438   0.275  0.3690 -0.7868 -0.6516
  720MOL0     C97083   4.065   2.418   0.393  0.7191 -0.6002  0.9715
  720MOL0     C97084   3.984   2.309   0.359 -0.5192  0.0485 -0.3515
  720MOL0     C97085   3.887   2.237   0.454  0.2182 -0.2753 -0.0595
  720MOL0     C97086   3.751   2.307   0.473 -0.2031  0.1205  0.1197
  720MOL0     C97087   3.679   2.349   0.344 -0.3182  0.3579  0.4096
  720MOL0     C97088   3.610   2.239   0.271 -0.5339  0.3278 -0.2723
  720MOL0     O97089   3.562   2.282   0.146  0.6527 -0.2313  0.0934
  720MOL0     C97090   3.485   2.197   0.074 -0.0646  0.5197 -0.3335
  720MOL0     C97091   3.449   2.239  -0.057  0.2077  0.0046  0.2281
  720MOL0     C97092   3.384   2.163  -0.151 -0.0680 -0.2932 -0.9544
  720MOL0     C97093   3.372   2.233  -0.283 -0.2923  0.4065 -0.3213
  720MOL0     C97094   3.338   2.030  -0.119 -1.1582  0.7343 -0.5383
  720MOL0     C97095   3.282   1.934  -0.222  0.2988  0.2361 -0.5414
  720MOL0     O97096   3.176   1.859  -0.184 -0.3367 -0.4538 -0.0053
  720MOL0     C97097   3.121   1.753  -0.261 -0.4660  0.2631  0.9179
  720MOL0     C97098   3.112   1.761  -0.405 -0.9180 -1.0380  0.0399
  720MOL0     C97099   3.044   1.672  -0.478 -0.2604 -0.5679 -0.2398
  720MOL0     C97100   2.978   1.564  -0.417  0.3262  1.4260 -0.1774
  720MOL0     O97101   2.895   1.470  -0.471 -0.5300  0.9554 -0.2631
  720MOL0     C97102   2.836   1.497  -0.596  0.5781 -0.6548 -0.0291
  720MOL0     C97103   2.769   1.367  -0.660 -0.0768 -0.0742 -0.8203
  720MOL0     C97104   2.872   1.309  -0.762  0.0062 -0.5611  0.7755
  720MOL0     C97105   2.835   1.166  -0.800  0.5160 -0.1690 -0.7511
  720MOL0     C97106   2.952   1.089  -0.866  0.6605  0.0610 -0.9022
  720MOL0     C97107   2.937   0.938  -0.853  0.1787  0.2182  0.1138
  720MOL0     C97108   3.022   0.874  -0.740 -0.2365 -0.3807 -0.0235
  720MOL0     C97109   2.987   0.735  -0.714 -0.0452 -0.3434  0.2402
  720MOL0    Cl97110   2.822   0.737  -0.643  0.0583  0.0143  0.1329
  720MOL0     C97111   3.002   1.540  -0.281  0.3593 -0.4313  0.1781
  720MOL0     C97112   3.069   1.634  -0.201 -0.1757 -0.3168  0.4192
  720MOL0     O97113   3.329   1.951  -0.333  0.8554 -0.3138 -0.3228
  720MOL0     C97114   3.376   1.984   0.015 -0.3495  0.1630 -0.5557
  720MOL0     C97115   3.445   2.058   0.103  0.1596 -1.2579 -0.3713
  720MOL0     N97116   4.021   2.266   0.232  1.1601 -0.4481  0.5187
  720MOL0     N97117   4.099   2.354   0.176  0.5421 -0.0457  0.3931
  720MOL0     C97118   5.375   2.786   0.462 -0.4652  0.4016  0.3758
  720MOL0     C97119   5.484   2.786   0.546 -0.0812  0.3562  0.2178
  720MOL0     C97120   5.687   2.667   0.972 -0.2190 -0.2786 -0.2089
  720MOL0     C97121   5.801   2.618   0.905 -0.5678 -0.4545 -0.1366
  720MOL0     C97122   5.914   2.579   0.985  0.0424 -0.1547  0.3189
  720MOL0     C97123   5.912   2.587   1.119  0.6999  0.6019 -0.5611
  720MOL0     O97124   6.025   2.556   1.190 -0.0481 -0.4552  0.6815
  720MOL0     C97125   6.009   2.452   1.279 -0.6649  0.1103 -0.5367
  720MOL0     C97126   6.004   2.316   1.216  0.2567  0.3579 -0.5770
  720MOL0     C97127   6.143   2.282   1.146  0.5316 -0.1547 -0.1128
  720MOL0     C97128   6.177   2.144   1.134 -0.8255  0.2546 -0.2784
  720MOL0     C97129   6.194   2.071   1.267 -0.4525  0.5964 -0.2262
  720MOL0     C97130   6.209   2.023   1.385 -0.6289  0.4354  0.1685
  720MOL0     C97131   5.797   2.636   1.177 -0.0495  0.5897 -0.3997
  720MOL0     C97132   5.688   2.675   1.107 -0.2615 -0.2077  0.2560
  720MOL0     H97133   5.379   2.554   0.769  1.6076 -0.0828 -0.4255
  720MOL0     H97134   5.173   2.561   0.618  1.3680 -1.2080  2.0382
  720MOL0     H97135   5.046   2.559   0.416 -0.2501 -0.2693  1.1722
  720MOL0     H97136   4.987   2.665   0.540 -2.7439 -5.6396 -0.3061
  720MOL0     H97137   4.895   2.820   0.374 -1.9028  0.8319 -1.9912
  720MOL0     H97138   4.975   2.741   0.241 -0.7443 -0.5669 -0.6618
  720MOL0     H97139   4.747   2.693   0.245  2.4006  0.1844 -1.4029
  720MOL0     H97140   4.827   2.538   0.274 -1.3102 -0.2470  1.2898
  720MOL0     H97141   4.786   2.563   0.526  1.5733 -1.2675 -1.6908
  720MOL0     H97142   4.696   2.713   0.490  0.4397 -0.3761  1.1978
  720MOL0     H97143   4.648   2.423   0.390 -0.6152 -0.6590 -0.3473
  720MOL0     H97144   4.556   2.501   0.520  1.3711  1.1768  1.0180
  720MOL0     H97145   4.465   2.667   0.345 -0.7902 -0.6787  1.4477
  720MOL0     H97146   4.537   2.559   0.215 -4.0475  0.8901 -1.8046
  720MOL0     H97147   4.412   2.373   0.305 -1.1123 -0.6197  0.4602
  720MOL0     H97148   4.342   2.464   0.437 -5.8521  1.0633 -1.7802
  720MOL0     H97149   4.286   2.545   0.151 -0.0269  0.0479 -0.2050
  720MOL0     H97150   4.238   2.625   0.302 -0.0858 -0.6669 -0.8504
  720MOL0     H97151   4.080   2.463   0.490 -0.0103 -1.1396  1.3386
  720MOL0     H97152   3.871   2.135   0.416  0.7302 -1.0471  1.6934
  720MOL0     H97153   3.948   2.231   0.544 -0.9010  1.6852  0.8892
  720MOL0     H97154   3.766   2.395   0.536 -1.9296  1.0296 -0.6792
  720MOL0     H97155   3.678   2.245   0.525 -1.2247  1.2015  0.0202
  720MOL0     H97156   3.749   2.387   0.269  3.3200 -3.2804  1.5671
  720MOL0     H97157   3.600   2.419   0.374 -0.3408  0.7820 -0.6083
  720MOL0     H97158   3.537   2.192   0.336 -0.0239  0.8580  0.6982
  720MOL0     H97159   3.682   2.160   0.248 -0.4957 -0.0519  1.0650
  720MOL0     H97160   3.467   2.344  -0.079  0.6229 -0.4359 -1.7891
  720MOL0     H97161   3.412   2.334  -0.270  0.0323  0.0604  1.6580
  720MOL0     H97162   3.434   2.181  -0.356  0.5671 -0.7408  1.1552
  720MOL0     H97163   3.268   2.242  -0.316  0.2449  2.0150 -1.7208
  720MOL0     H97164   3.162   1.845  -0.452 -3.7162  1.2024  0.7841
  720MOL0     H97165   3.049   1.686  -0.586  0.7472 -0.0893 -0.1390
  720MOL0     H97166   2.770   1.584  -0.587 -1.0734 -1.9533  0.9496
  720MOL0     H97167   2.919   1.536  -0.657  0.7897 -3.2442 -1.5541
  720MOL0     H97168   2.725   1.301  -0.585  0.7267  0.0118 -0.2497
  720MOL0     H97169   2.681   1.387  -0.721 -0.7021 -1.6718 -0.4867
  720MOL0     H97170   2.969   1.308  -0.713  1.0579 -1.6263 -1.1992
  720MOL0     H97171   2.879   1.371  -0.852 -1.2466  1.8619  2.2079
  720MOL0     H97172   2.811   1.122  -0.703 -1.3106 -0.2192 -1.1928
  720MOL0     H97173   2.744   1.169  -0.861  0.6095 -1.9779 -1.0335
  720MOL0     H97174   3.038   1.122  -0.807 -1.0302  2.4310  0.4072
  720MOL0     H97175   2.961   1.112  -0.973  1.3466 -0.7186 -1.0239
  720MOL0     H97176   2.831   0.909  -0.845  1.0812 -2.9362  2.4193
  720MOL0     H97177   2.976   0.887  -0.941 -2.7744 -2.6849  0.2718
  720MOL0     H97178   3.005   0.936  -0.652  1.0732  0.2811 -0.2175
  720MOL0     H97179   3.129   0.873  -0.758 -0.3593 -0.9848 -0.7835
  720MOL0     H97180   3.054   0.704  -0.633 -1.4729 -1.5177  1.0145
  720MOL0     H97181   3.003   0.671  -0.801  0.9632  1.7024 -1.1775
  720MOL0     H97182   2.956   1.453  -0.236  1.1808 -1.6974 -1.3293
  720MOL0     H97183   3.083   1.628  -0.093  1.6782 -3.5610  0.1299
  720MOL0     H97184   3.356   1.878   0.033  1.2452 -0.3946 -1.8428
  720MOL0     H97185   3.472   2.020   0.201 -0.8922  2.0452  1.3457
  720MOL0     H97186   5.370   2.844   0.370 -0.6601  1.2440  0.9066
  720MOL0     H97187   5.565   2.856   0.529  0.1904  0.5366  2.1016
  720MOL0     H97188   5.816   2.616   0.797  1.3725  2.0768 -0.0033
  720MOL0     H97189   6.002   2.529   0.946  1.4659  2.6394 -0.2289
  720MOL0     H97190   6.099   2.443   1.341  0.4725 -2.0086 -2.3398
  720MOL0     H97191   5.927   2.469   1.350  0.9720 -1.0523  1.7669
  720MOL0     H97192   5.920   2.297   1.148  1.2959 -0.7993 -1.5876
  720MOL0     H97193   5.985   2.253   1.304 -3.2934 -2.7106 -3.1851
  720MOL0     H97194   6.227   2.328   1.198 -1.1934 -1.1908  3.9553
  720MOL0     H97195   6.138   2.327   1.046 -1.6243  1.7250  0.7552
  720MOL0     H97196   6.272   2.153   1.081 -1.5630  0.4550 -1.6101
  720MOL0     H97197   6.114   2.086   1.065  1.2500 -2.7958  0.1558
  720MOL0     H97198   6.233   1.980   1.481  3.0939  0.2373 -0.6980
  720MOL0     H97199   5.792   2.648   1.285  0.2029  3.6649 -0.6424
  720MOL0     H97200   5.597   2.711   1.154 -0.1560 -1.2439  1.3252
  721MOL0     O97201   8.018   6.565   7.586  0.1883  0.2679 -0.3789
  721MOL0     C97202   8.082   6.466   7.631 -0.1738  0.8341  0.3341
  721MOL0     O97203   8.026   6.359   7.695  0.0725  0.3057  0.8210
  721MOL0     C97204   7.900   6.355   7.751  0.3349 -0.1828 -0.0440
  721MOL0     C97205   7.829   6.467   7.800  0.2298  1.0018  0.1524
  721MOL0     C97206   7.714   6.443   7.871  0.4775 -0.2882 -0.1675
  721MOL0     C97207   7.656   6.319   7.889  0.1989 -1.0141 -0.3988
  721MOL0     O97208   7.546   6.322   7.968 -0.5086 -0.0364  0.1682
  721MOL0     C97209   7.489   6.199   8.026 -0.1935 -0.0403 -0.0742
  721MOL0     C97210   7.358   6.218   8.101 -0.0888 -0.3829 -0.3379
  721MOL0     C97211   7.251   6.298   8.022 -0.7299  0.2779 -0.1489
  721MOL0     C97212   7.117   6.327   8.095  0.1675 -1.2475 -0.4490
  721MOL0     C97213   7.014   6.427   8.016  0.0829 -0.4402  0.7328
  721MOL0     C97214   6.910   6.488   8.105 -0.5142 -0.4792  0.7982
  721MOL0     C97215   6.794   6.383   8.108  0.0744  0.3182 -0.3557
  721MOL0     C97216   6.669   6.462   8.161 -0.5681  0.6569 -0.2177
  721MOL0     N97217   6.566   6.370   8.214 -0.2842 -0.1061 -1.5075
  721MOL0     C97218   6.439   6.355   8.165  0.6146  0.2627 -0.1003
  721MOL0     C97219   6.368   6.289   8.254 -0.6633 -0.0779 -0.9048
  721MOL0     C97220   6.240   6.210   8.251 -0.5309  0.3088  0.1721
  721MOL0     C97221   6.216   6.165   8.106 -0.9174  0.2337  0.3584
  721MOL0     C97222   6.086   6.089   8.074  0.0558 -0.5420 -0.3749
  721MOL0     C97223   5.957   6.146   8.110  0.0314  0.3884 -0.7489
  721MOL0     O97224   5.929   6.098   8.241  0.6667  0.0883  0.3758
  721MOL0     C97225   5.801   6.065   8.277 -0.5884 -0.0814 -0.3182
  721MOL0     C97226   5.694   6.148   8.255 -0.5649  0.1171 -0.6449
  721MOL0     C97227   5.563   6.099   8.292 -0.5794  0.3185  0.4602
  721MOL0     C97228   5.449   6.201   8.285 -0.2250 -0.2212 -0.1891
  721MOL0     C97229   5.550   5.979   8.374 -0.2796 -0.9888 -0.8800
  721MOL0     C97230   5.428   5.932   8.438 -0.2439  0.7052  0.3190
  721MOL0     O97231   5.427   5.890   8.566 -0.4468  0.0146 -0.7130
  721MOL0     C97232   5.302   5.873   8.630 -0.1879  0.7835 -0.4305
  721MOL0     C97233   5.199   5.965   8.636  0.4040  0.3926  0.7118
  721MOL0     C97234   5.078   5.944   8.705 -0.3083 -0.1978 -0.4414
  721MOL0     C97235   5.066   5.826   8.786  0.2452 -0.7964  0.1151
  721MOL0     O97236   4.955   5.790   8.858  0.3845 -0.1251  0.0188
  721MOL0     C97237   4.849   5.881   8.877  0.5336 -0.4460 -0.8431
  721MOL0     C97238   4.754   5.852   8.999 -0.0462  0.0343  0.7030
  721MOL0     C97239   4.813   5.875   9.133 -0.7301  0.2732  0.1541
  721MOL0     C97240   4.714   5.836   9.244 -0.3667 -0.7166  0.3086
  721MOL0     C97241   4.743   5.909   9.373  0.6969 -0.1813  0.0741
  721MOL0     C97242   4.664   5.856   9.498  0.8065 -0.5888  0.5892
  721MOL0     C97243   4.507   5.885   9.476 -0.5490 -0.4150  0.0742
  721MOL0     C97244   4.420   5.829   9.590 -0.0424 -0.3086 -0.0019
  721MOL0    Cl97245   4.260   5.878   9.549 -0.6126 -0.1449 -0.0722
  721MOL0     C97246   5.173   5.739   8.785 -0.7988  0.4238 -0.7102
  721MOL0     C97247   5.285   5.759   8.710 -0.7182 -0.0166  0.0124
  721MOL0     O97248   5.329   5.948   8.367  0.7148  0.6520 -0.4424
  721MOL0     C97249   5.668   5.902   8.400  0.1690 -0.3056 -0.2960
  721MOL0     C97250   5.795   5.950   8.362 -0.4163  0.5590 -0.2003
  721MOL0     N97251   6.442   6.287   8.372 -0.1965  0.0299  0.2887
  721MOL0     N97252   6.566   6.322   8.342  0.7179 -0.2805 -0.1546
  721MOL0     C97253   7.714   6.207   7.824 -0.9929  0.3589 -0.1889
  721MOL0     C97254   7.841   6.233   7.761  0.9116 -0.3207  0.3985
  721MOL0     C97255   8.231   6.468   7.615  1.1163 -0.0967 -0.0909
  721MOL0     C97256   8.301   6.347   7.648  0.3510 -0.3453 -0.3292
  721MOL0     C97257   8.439   6.345   7.622  0.8257  0.4184 -0.2242
  721MOL0     C97258   8.508   6.455   7.579  0.0594 -0.3160 -0.2496
  721MOL0     O97259   8.641   6.446   7.570 -0.6764  0.0064  0.1692
  721MOL0     C97260   8.721   6.540   7.498 -0.4080 -0.3710  0.1245
  721MOL0     C97261   8.869   6.499   7.510  0.1306  0.2115 -0.6442
  721MOL0     C97262   8.908   6.538   7.654  0.3260  0.8368  0.4111
  721MOL0     C97263   9.050   6.489   7.690  0.5439 -1.2861  0.4155
  721MOL0     C97264   9.079   6.499   7.839 -0.0461  0.2336 -0.8120
  721MOL0     C97265   9.100   6.492   7.956  0.3800 -0.3955 -0.6581
  721MOL0     C97266   8.433   6.568   7.545  0.0749  0.0506 -0.6041
  721MOL0     C97267   8.296   6.576   7.556 -0.1452 -0.6473  0.1434
  721MOL0     H97268   7.859   6.567   7.768  0.0928  0.3259 -2.3207
  721MOL0     H97269   7.671   6.534   7.912  3.2163  1.3702 -0.7480
  721MOL0     H97270   7.463   6.136   7.940  0.6632 -1.4965  0.6942
  721MOL0     H97271   7.558   6.144   8.091 -1.5870 -1.8929 -0.0772
  721MOL0     H97272   7.325   6.116   8.125 -3.2036  0.9072  1.4571
  721MOL0     H97273   7.379   6.276   8.191 -0.7723 -1.2382  0.3911
  721MOL0     H97274   7.286   6.398   7.994 -3.1376  1.9578  2.2919
  721MOL0     H97275   7.237   6.257   7.922 -0.6266 -2.3572  0.8428
  721MOL0     H97276   7.072   6.234   8.131 -2.3734  0.3878  0.8601
  721MOL0     H97277   7.153   6.377   8.186 -1.8841 -1.2693  0.4180
  721MOL0     H97278   7.076   6.497   7.959 -0.8951 -1.2636 -1.4557
  721MOL0     H97279   6.966   6.374   7.934 -0.0117 -0.7637  0.9934
  721MOL0     H97280   6.943   6.525   8.202 -0.5221  2.0585 -0.0930
  721MOL0     H97281   6.869   6.570   8.045  0.3069 -1.8381 -1.7613
  721MOL0     H97282   6.773   6.331   8.014  0.6069 -1.0612  0.2601
  721MOL0     H97283   6.825   6.305   8.178 -1.6018 -1.3711 -1.3724
  721MOL0     H97284   6.625   6.510   8.073 -2.1393  0.8844  0.6449
  721MOL0     H97285   6.705   6.527   8.242  2.2681 -1.0308  0.0023
  721MOL0     H97286   6.411   6.361   8.060  1.0483  2.2837 -0.1350
  721MOL0     H97287   6.246   6.120   8.313  1.8973 -0.4241 -1.0268
  721MOL0     H97288   6.152   6.268   8.282 -1.9115 -1.7743  0.3373
  721MOL0     H97289   6.298   6.098   8.082 -2.0634 -1.5043  1.1384
  721MOL0     H97290   6.228   6.237   8.024  0.7441 -2.2585 -1.7355
  721MOL0     H97291   6.098   5.992   8.123  0.5168  0.4515  1.5805
  721MOL0     H97292   6.076   6.070   7.967 -0.2896  0.2255 -0.4885
  721MOL0     H97293   5.889   6.100   8.037 -0.2847 -0.8188  0.2722
  721MOL0     H97294   5.959   6.255   8.101  1.8567  0.3609 -1.0610
  721MOL0     H97295   5.710   6.238   8.197 -4.8596  1.0736 -0.7199
  721MOL0     H97296   5.474   6.283   8.217 -0.9417  0.2471  0.0950
  721MOL0     H97297   5.356   6.164   8.242 -0.6617  2.0964 -1.4174
  721MOL0     H97298   5.423   6.243   8.383  1.1959 -0.5668  0.3711
  721MOL0     H97299   5.196   6.061   8.586 -2.3285  0.3329  0.6449
  721MOL0     H97300   5.003   6.022   8.705  2.0675  2.1972 -0.4023
  721MOL0     H97301   4.896   5.978   8.896 -0.6359  0.3502 -1.8323
  721MOL0     H97302   4.784   5.882   8.789  0.1464 -1.6945 -0.5885
  721MOL0     H97303   4.671   5.924   8.995 -0.5348 -0.4540 -3.6814
  721MOL0     H97304   4.729   5.746   8.987  1.9124 -0.3615 -0.2476
  721MOL0     H97305   4.850   5.978   9.134 -2.7777  1.0781  2.7722
  721MOL0     H97306   4.896   5.806   9.150 -1.3580  0.0131  2.5307
  721MOL0     H97307   4.618   5.884   9.223 -0.8288 -1.1684  1.3067
  721MOL0     H97308   4.711   5.728   9.259 -1.0651 -0.6276  0.8468
  721MOL0     H97309   4.724   6.015   9.353 -3.4660 -0.5173  1.2158
  721MOL0     H97310   4.850   5.902   9.391  0.6201 -0.3039  0.4866
  721MOL0     H97311   4.681   5.749   9.509  0.0699 -0.4972  3.0911
  721MOL0     H97312   4.697   5.911   9.586 -1.3518  2.4622 -0.3257
  721MOL0     H97313   4.470   5.845   9.381 -1.0417  0.0342  0.0703
  721MOL0     H97314   4.494   5.993   9.483  0.9374 -0.1614 -0.7465
  721MOL0     H97315   4.466   5.862   9.685  0.2310 -2.2497  0.5760
  721MOL0     H97316   4.433   5.721   9.585  1.6893 -0.0689 -1.2818
  721MOL0     H97317   5.162   5.645   8.838  3.1480 -1.1503 -2.2512
  721MOL0     H97318   5.369   5.691   8.707  0.2694  1.2089 -0.8786
  721MOL0     H97319   5.667   5.827   8.478  2.6117  0.4148  0.4954
  721MOL0     H97320   5.884   5.900   8.398 -0.3016  0.2398 -0.9145
  721MOL0     H97321   7.686   6.105   7.844 -1.2441  0.1438 -1.5548
  721MOL0     H97322   7.887   6.155   7.701  2.5657  0.5284  0.5271
  721MOL0     H97323   8.266   6.252   7.686 -1.7785  0.0252 -1.2335
  721MOL0     H97324   8.485   6.249   7.641 -0.0532  0.1354  0.5639
  721MOL0     H97325   8.695   6.543   7.391  3.1732  3.0632 -0.9076
  721MOL0     H97326   8.701   6.643   7.529 -1.1640  0.2114 -2.0895
  721MOL0     H97327   8.927   6.551   7.433 -2.0121  1.1294 -1.7225
  721MOL0     H97328   8.883   6.392   7.495 -0.2363 -0.4494  2.7977
  721MOL0     H97329   8.835   6.485   7.716  0.4915  0.4793  0.3033
  721MOL0     H97330   8.905   6.647   7.646 -0.3201  0.6887 -1.9411
  721MOL0     H97331   9.126   6.547   7.637 -1.2909 -1.1025 -2.1630
  721MOL0     H97332   9.071   6.384   7.669  0.9308 -1.0271 -0.5324
  721MOL0     H97333   9.114   6.495   8.062  1.5684 -0.6919 -0.7890
  721MOL0     H97334   8.483   6.662   7.524  1.1653 -0.1751  0.7840
  721MOL0     H97335   8.241   6.665   7.527  0.0144 -0.8511 -0.8254
  722MOL0     O97336   1.957   0.162  10.630 -0.8849 -0.1830  0.0105
  722MOL0     C97337   1.887   0.155  10.728 -0.1932  0.0702  0.1808
  722MOL0     O97338   1.754   0.152  10.728  0.3521 -0.2684 -0.5955
  722MOL0     C97339   1.692   0.136  10.607 -0.3419  0.4705  0.1923
  722MOL0     C97340   1.721   0.203  10.481 -0.5606  0.3037  0.2285
  722MOL0     C97341   1.647   0.176  10.371 -0.5926  0.3506 -0.4566
  722MOL0     C97342   1.537   0.090  10.373  0.6987 -0.3261  0.2844
  722MOL0     O97343   1.448   0.067  10.275 -0.5433  0.4584  0.0103
  722MOL0     C97344   1.432   0.176  10.186  0.1424 -0.0085 -0.8088
  722MOL0     C97345   1.302   0.170  10.118  0.9450  0.3608  0.5897
  722MOL0     C97346   1.172   0.145  10.193  0.1592  0.4457 -1.0930
  722MOL0     C97347   1.059   0.169  10.099 -0.9398 -0.8120 -0.0696
  722MOL0     C97348   0.929   0.171  10.187  0.8692 -0.6934 -0.6970
  722MOL0     C97349   0.812   0.192  10.080  0.2292 -0.2851  0.0327
  722MOL0     C97350   0.682   0.096  10.109 -0.1152 -1.0747  0.0229
  722MOL0     C97351   0.578   0.087  10.004  0.5963  0.1411  0.1243
  722MOL0     N97352   0.513   0.212   9.967  0.3001  0.5953  1.2123
  722MOL0     C97353   0.408   0.268  10.037 -0.2389 -0.2359  0.3271
  722MOL0     C97354   0.386   0.391   9.982  0.3427 -0.2488 -0.5680
  722MOL0     C97355   0.270   0.486  10.016  0.8159 -0.6850  0.0367
  722MOL0     C97356   0.135   0.415   9.968  0.5517 -0.1035  0.0012
  722MOL0     C97357   0.023   0.452  10.071 -0.0276 -0.1486  0.2732
  722MOL0     C97358  -0.103   0.389  10.035 -0.7973 -0.2515 -0.3527
  722MOL0     O97359  -0.200   0.444  10.127 -0.1272 -0.2376  0.5558
  722MOL0     C97360  -0.337   0.429  10.099 -0.2558 -0.5039 -0.9293
  722MOL0     C97361  -0.385   0.311  10.032 -0.0871  0.9916 -0.3613
  722MOL0     C97362  -0.525   0.282  10.042  0.6360 -0.0636  0.4732
  722MOL0     C97363  -0.573   0.147   9.986 -0.0969  0.4241 -0.2990
  722MOL0     C97364  -0.612   0.380  10.095 -0.1845  0.4438  0.0231
  722MOL0     C97365  -0.757   0.361  10.124 -0.1535  0.7927  0.7736
  722MOL0     O97366  -0.836   0.466  10.165 -0.3716 -0.2667  0.2203
  722MOL0     C97367  -0.968   0.460  10.191  0.2556 -0.1870  0.1129
  722MOL0     C97368  -1.017   0.356  10.266 -0.5301  0.7049  0.3464
  722MOL0     C97369  -1.149   0.361  10.315  0.0334 -0.0447 -0.0413
  722MOL0     C97370  -1.229   0.476  10.310  0.3453  0.9204  0.3969
  722MOL0     O97371  -1.352   0.480  10.375 -0.2742  0.4126  0.2844
  722MOL0     C97372  -1.448   0.588  10.353  0.3586 -0.2551  0.0480
  722MOL0     C97373  -1.588   0.558  10.409 -0.2438 -0.0480 -0.4869
  722MOL0     C97374  -1.677   0.685  10.429 -0.0542  0.4569  0.4140
  722MOL0     C97375  -1.729   0.738  10.298  0.4203  0.0304  0.5563
  722MOL0     C97376  -1.805   0.864  10.306 -0.3681 -0.0510  0.1736
  722MOL0     C97377  -1.815   0.928  10.161  0.0334  0.9960 -0.5525
  722MOL0     C97378  -1.860   1.074  10.169  0.8360  0.3924 -0.2176
  722MOL0     C97379  -1.994   1.097  10.238  0.2325 -0.0772 -0.2862
  722MOL0    Cl97380  -2.082   1.248  10.207 -0.1585 -0.1041  0.0687
  722MOL0     C97381  -1.176   0.580  10.238 -0.4042  0.4341 -0.6100
  722MOL0     C97382  -1.046   0.567  10.179  0.0080  0.2197  0.4592
  722MOL0     O97383  -0.791   0.245  10.116  0.2784 -0.3350  0.3591
  722MOL0     C97384  -0.557   0.510  10.126 -0.2116 -0.1364  0.6489
  722MOL0     C97385  -0.421   0.537  10.124  0.4828 -0.0997  0.5726
  722MOL0     N97386   0.482   0.415   9.882  0.5888  1.1726 -0.7655
  722MOL0     N97387   0.559   0.309   9.880  0.1253 -0.4049 -0.8287
  722MOL0     C97388   1.498   0.037  10.495 -0.1485  0.1411 -1.2698
  722MOL0     C97389   1.574   0.062  10.613 -0.3878 -0.2744 -0.6345
  722MOL0     C97390   1.945   0.176  10.871  0.1195  0.2221  0.1900
  722MOL0     C97391   2.079   0.163  10.901  0.1105  0.0989 -0.6693
  722MOL0     C97392   2.131   0.185  11.030 -0.5843  0.7849  0.3783
  722MOL0     C97393   2.048   0.211  11.134 -0.2703  0.2354  0.2098
  722MOL0     O97394   2.105   0.225  11.260  0.1560 -0.1672  0.3023
  722MOL0     C97395   2.027   0.211  11.380  0.0841 -0.4553  0.2223
  722MOL0     C97396   1.984   0.071  11.424  0.2215  0.5187  1.1057
  722MOL0     C97397   2.112  -0.017  11.432 -0.5241  0.7831  0.1572
  722MOL0     C97398   2.078  -0.165  11.464 -0.1703 -0.1109 -0.3020
  722MOL0     C97399   2.197  -0.231  11.525  0.7141  0.8363  0.2788
  722MOL0     C97400   2.286  -0.302  11.565  0.5982 -0.7188  0.1872
  722MOL0     C97401   1.913   0.221  11.114 -0.2108  1.2776 -0.5491
  722MOL0     C97402   1.863   0.207  10.982 -0.0009 -0.3571 -0.5650
  722MOL0     H97403   1.801   0.275  10.485 -0.7268  0.5502 -0.7186
  722MOL0     H97404   1.675   0.229  10.281  1.0671  2.1508  1.0082
  722MOL0     H97405   1.421   0.270  10.242  0.9221 -0.9689  1.0644
  722MOL0     H97406   1.506   0.184  10.107  0.5671 -2.2419 -0.6880
  722MOL0     H97407   1.281   0.266  10.070 -3.8493 -0.2738  0.9710
  722MOL0     H97408   1.319   0.096  10.039  1.0464  0.2848  0.6830
  722MOL0     H97409   1.180   0.038  10.213 -0.7781  0.3770 -1.0557
  722MOL0     H97410   1.163   0.209  10.281 -0.2056  0.9397 -1.4802
  722MOL0     H97411   1.068   0.260  10.040  1.8570 -1.0128 -0.1285
  722MOL0     H97412   1.065   0.093  10.020  2.2507  0.8734 -1.6571
  722MOL0     H97413   0.913   0.078  10.242  1.4263 -1.0430 -1.1155
  722MOL0     H97414   0.929   0.245  10.268  2.5550 -1.3746 -0.0293
  722MOL0     H97415   0.768   0.292  10.075 -4.2444 -2.0767 -1.3280
  722MOL0     H97416   0.842   0.175   9.976  1.6948  1.5393  0.0958
  722MOL0     H97417   0.700  -0.008  10.138 -1.2374 -2.0264 -2.4746
  722MOL0     H97418   0.650   0.137  10.206  1.7337  1.6245 -0.3971
  722MOL0     H97419   0.503   0.018  10.044  1.2392  0.5995  2.2052
  722MOL0     H97420   0.624   0.046   9.913 -0.0864  0.1833 -0.2546
  722MOL0     H97421   0.340   0.227  10.110 -1.9020  3.6544  1.1951
  722MOL0     H97422   0.264   0.492  10.125  1.1428  2.3361 -0.0209
  722MOL0     H97423   0.278   0.585   9.969 -1.3103 -2.2879 -4.2328
  722MOL0     H97424   0.149   0.307   9.960  0.4815 -0.2509  1.6180
  722MOL0     H97425   0.102   0.456   9.872  1.0773 -0.1406 -0.1979
  722MOL0     H97426   0.005   0.560  10.066 -2.6286 -0.5651 -0.7271
  722MOL0     H97427   0.048   0.438  10.177  0.9923  1.5737  0.3057
  722MOL0     H97428  -0.089   0.281  10.041 -3.0525 -0.5151  1.1637
  722MOL0     H97429  -0.132   0.422   9.935  0.2137  1.6270 -0.0892
  722MOL0     H97430  -0.310   0.235  10.012  0.0201  1.0986 -0.3727
  722MOL0     H97431  -0.582   0.068  10.061 -0.8501  0.0828 -0.7417
  722MOL0     H97432  -0.666   0.154   9.930 -0.2966 -2.6946 -0.5417
  722MOL0     H97433  -0.506   0.107   9.908 -1.1684 -1.8189 -0.1551
  722MOL0     H97434  -0.951   0.276  10.297 -0.1350  1.5490  1.7970
  722MOL0     H97435  -1.183   0.273  10.367 -0.3968  1.7761  2.9888
  722MOL0     H97436  -1.394   0.673  10.397  2.1319 -2.0930  1.6801
  722MOL0     H97437  -1.464   0.610  10.248 -0.6801 -2.0797 -0.2103
  722MOL0     H97438  -1.635   0.486  10.340  1.4687 -1.9796  0.2642
  722MOL0     H97439  -1.588   0.517  10.511 -0.7684 -0.4417 -0.6337
  722MOL0     H97440  -1.624   0.768  10.477  0.9898  0.3564 -0.5346
  722MOL0     H97441  -1.762   0.658  10.493  0.0862 -1.1318 -0.0353
  722MOL0     H97442  -1.637   0.759  10.243  1.1428 -2.8879  0.4736
  722MOL0     H97443  -1.776   0.664  10.233 -1.3006  2.7093 -1.4568
  722MOL0     H97444  -1.731   0.923  10.362  2.6841  0.1114 -3.5777
  722MOL0     H97445  -1.899   0.867  10.363 -1.3930  1.2207 -1.4871
  722MOL0     H97446  -1.716   0.924  10.115 -0.4210 -0.5965 -1.4971
  722MOL0     H97447  -1.881   0.867  10.097 -0.5976  0.7866  0.2709
  722MOL0     H97448  -1.883   1.102  10.066  3.3609 -1.2817 -1.3476
  722MOL0     H97449  -1.778   1.140  10.199  2.9032 -1.3474 -1.7050
  722MOL0     H97450  -1.980   1.088  10.346  3.4054  0.7778 -0.5150
  722MOL0     H97451  -2.061   1.018  10.203 -0.4507 -0.2823  1.3989
  722MOL0     H97452  -1.234   0.670  10.218 -3.3901 -1.3727 -0.5140
  722MOL0     H97453  -1.003   0.648  10.122 -0.4882  2.6336  3.3184
  722MOL0     H97454  -0.621   0.584  10.173 -0.6786 -0.1332  0.0083
  722MOL0     H97455  -0.390   0.639  10.146  1.7386  0.1767 -2.0539
  722MOL0     H97456   1.409  -0.024  10.505 -0.8063  1.4460  2.8859
  722MOL0     H97457   1.537   0.026  10.708 -2.4473  0.4335 -1.1104
  722MOL0     H97458   2.146   0.138  10.820 -0.2818  2.4531 -1.8117
  722MOL0     H97459   2.239   0.183  11.043 -0.7462  0.7392  1.8084
  722MOL0     H97460   2.092   0.236  11.465  0.3200 -1.6376  0.4122
  722MOL0     H97461   1.943   0.280  11.384 -0.4432 -0.7761 -3.0142
  722MOL0     H97462   1.917   0.039  11.344  1.5979  0.6522 -0.1651
  722MOL0     H97463   1.934   0.065  11.521 -1.0702 -0.8189  0.3868
  722MOL0     H97464   2.177   0.040  11.499  1.2279  1.1799 -1.7816
  722MOL0     H97465   2.177  -0.023  11.345  1.1577 -2.9528  1.4768
  722MOL0     H97466   2.043  -0.217  11.375 -1.2454  0.4771 -0.2417
  722MOL0     H97467   1.994  -0.170  11.534  0.1908 -1.4399  0.0702
  722MOL0     H97468   2.362  -0.357  11.616  3.1008  1.7781 -0.5879
  722MOL0     H97469   1.835   0.237  11.187 -1.8543 -1.2782 -1.6122
  722MOL0     H97470   1.760   0.236  10.964  0.5767  1.3940 -1.1728
  723MOL0     O97471   7.649   5.742   8.923 -0.2270  0.0975  0.2824
  723MOL0     C97472   7.689   5.857   8.929 -0.1549 -0.5628  0.0519
  723MOL0     O97473   7.609   5.964   8.964 -1.1409  0.9202  0.0532
  723MOL0     C97474   7.473   5.953   8.960 -0.1507  0.6946  0.0069
  723MOL0     C97475   7.400   5.993   9.066  0.3140 -0.3402 -0.2282
  723MOL0     C97476   7.258   5.986   9.054 -0.0463 -0.9138  0.0166
  723MOL0     C97477   7.192   5.953   8.937 -1.0339  0.7093  0.4568
  723MOL0     O97478   7.055   5.961   8.908 -0.6856  0.7453 -1.3021
  723MOL0     C97479   6.966   5.969   9.023  0.9113 -0.3734  0.5102
  723MOL0     C97480   6.839   5.899   8.995  0.2248  0.6094  0.1672
  723MOL0     C97481   6.869   5.751   9.009 -0.1553  0.1687  0.6293
  723MOL0     C97482   6.756   5.656   8.945  0.2866 -0.7321 -0.1262
  723MOL0     C97483   6.621   5.659   9.022 -0.9471  0.2142  0.0362
  723MOL0     C97484   6.522   5.771   8.976  0.2264  0.2005 -0.0030
  723MOL0     C97485   6.395   5.781   9.059 -0.1654 -0.2293  0.5076
  723MOL0     C97486   6.296   5.888   8.993 -0.0315  0.6803 -0.9127
  723MOL0     N97487   6.171   5.905   9.075 -0.2916  0.3547  0.3885
  723MOL0     C97488   6.131   6.019   9.131 -0.3709 -0.9457 -0.7317
  723MOL0     C97489   6.007   5.995   9.179 -0.8973  0.0198  0.2995
  723MOL0     C97490   5.915   6.084   9.243  0.7680  0.6929 -0.0066
  723MOL0     C97491   5.898   6.209   9.155 -0.7789  0.7462  0.7358
  723MOL0     C97492   5.795   6.305   9.225  0.2266 -0.5751  0.3822
  723MOL0     C97493   5.650   6.261   9.219  1.2711  0.1023  0.3832
  723MOL0     O97494   5.568   6.357   9.286  0.5335 -0.2562 -0.3350
  723MOL0     C97495   5.433   6.337   9.303  0.0151 -0.6758  0.4028
  723MOL0     C97496   5.358   6.263   9.221  0.6515 -0.1642  0.1895
  723MOL0     C97497   5.225   6.247   9.249 -0.3059  0.2216  0.3399
  723MOL0     C97498   5.152   6.168   9.146 -0.1820 -0.2751 -0.0960
  723MOL0     C97499   5.170   6.321   9.355  0.3865 -0.7335  0.8013
  723MOL0     C97500   5.029   6.316   9.381 -0.0339 -0.4603 -0.0064
  723MOL0     O97501   4.979   6.431   9.428 -0.7799 -0.1040 -0.2139
  723MOL0     C97502   4.844   6.457   9.404  0.2949  0.3920 -0.2573
  723MOL0     C97503   4.768   6.406   9.291  0.0272 -0.1007 -0.5955
  723MOL0     C97504   4.639   6.449   9.273  0.1112  0.8142 -0.7251
  723MOL0     C97505   4.581   6.541   9.366  0.1145  0.1673 -0.4119
  723MOL0     O97506   4.456   6.580   9.328  0.6190  0.6577 -0.5810
  723MOL0     C97507   4.380   6.669   9.409 -0.1069  0.5386 -0.4387
  723MOL0     C97508   4.242   6.690   9.334  0.3236  0.4005 -0.1045
  723MOL0     C97509   4.233   6.762   9.202  0.3989 -0.3837  0.8151
  723MOL0     C97510   4.109   6.721   9.117  0.1491 -0.9569  1.0439
  723MOL0     C97511   3.980   6.789   9.165  0.8422  0.6572  0.0924
  723MOL0     C97512   3.863   6.744   9.074 -0.3345  0.5669 -0.2078
  723MOL0     C97513   3.742   6.829   9.099  0.2481  0.1393  0.3237
  723MOL0     C97514   3.640   6.846   8.981  0.0167 -1.0701 -0.5664
  723MOL0    Cl97515   3.580   6.677   8.950 -0.1562 -0.0565  0.2963
  723MOL0     C97516   4.650   6.586   9.482  0.3777  0.9933 -0.2165
  723MOL0     C97517   4.785   6.544   9.498 -0.3066 -0.2832 -0.0624
  723MOL0     O97518   4.970   6.208   9.380  0.7613 -0.2086 -0.6383
  723MOL0     C97519   5.250   6.407   9.429 -0.0428 -0.6820 -0.2059
  723MOL0     C97520   5.385   6.414   9.406  0.0199 -0.8786 -1.2458
  723MOL0     N97521   5.963   5.875   9.143 -0.9024  0.0172  0.0964
  723MOL0     N97522   6.063   5.822   9.077 -0.7504 -0.1800  0.5272
  723MOL0     C97523   7.272   5.926   8.822 -0.2620 -0.2898 -0.4966
  723MOL0     C97524   7.410   5.925   8.835  0.0138 -0.6462 -0.1263
  723MOL0     C97525   7.839   5.870   8.919  0.3876  0.4318  0.0595
  723MOL0     C97526   7.902   5.991   8.937  0.4130 -0.3050  0.6225
  723MOL0     C97527   8.045   5.990   8.944  0.7739  0.0610  0.8118
  723MOL0     C97528   8.120   5.872   8.937 -0.4993 -0.2460  0.5871
  723MOL0     O97529   8.254   5.894   8.951 -0.1666 -0.6599 -0.1318
  723MOL0     C97530   8.333   5.771   8.953 -0.0859 -0.7250  0.2183
  723MOL0     C97531   8.471   5.800   8.989 -0.0649 -1.4134  0.6946
  723MOL0     C97532   8.551   5.664   9.016 -0.0890 -0.3805 -0.1244
  723MOL0     C97533   8.702   5.685   9.028  0.3344 -0.1378 -0.0623
  723MOL0     C97534   8.760   5.731   8.901  0.6255 -0.6341 -0.6801
  723MOL0     C97535   8.812   5.773   8.802  0.1531  0.3220 -0.4463
  723MOL0     C97536   8.050   5.745   8.922 -0.6778 -0.7340 -0.5909
  723MOL0     C97537   7.918   5.750   8.914  0.7693 -0.1278 -0.2221
  723MOL0     H97538   7.461   6.043   9.140  1.4803 -1.4013 -0.4362
  723MOL0     H97539   7.208   6.024   9.142  0.1227 -3.6577  1.4107
  723MOL0     H97540   7.020   5.937   9.112  2.7868  1.3599  0.0847
  723MOL0     H97541   6.942   6.076   9.031  1.3173 -0.1179 -1.3563
  723MOL0     H97542   6.757   5.926   9.062 -0.7405  0.7629 -1.0406
  723MOL0     H97543   6.801   5.928   8.897  0.5310  1.9255  0.4192
  723MOL0     H97544   6.963   5.729   8.958 -0.1946 -0.9216  1.0065
  723MOL0     H97545   6.873   5.732   9.117  0.0439 -1.0314  0.4215
  723MOL0     H97546   6.734   5.685   8.842 -0.7851 -0.5688  0.1333
  723MOL0     H97547   6.792   5.553   8.938  1.5262 -0.4133  1.0090
  723MOL0     H97548   6.574   5.562   9.004  0.6429 -0.6251  0.2473
  723MOL0     H97549   6.633   5.676   9.130 -1.3270  1.8211 -0.1543
  723MOL0     H97550   6.574   5.867   8.981  1.6995 -0.3869 -2.4261
  723MOL0     H97551   6.495   5.763   8.870 -0.8910 -0.5958  0.3222
  723MOL0     H97552   6.351   5.682   9.071 -0.4828  0.0727  1.9794
  723MOL0     H97553   6.419   5.819   9.158 -0.0531 -1.5959  1.0231
  723MOL0     H97554   6.268   5.842   8.898  3.1451  0.3235 -1.7988
  723MOL0     H97555   6.339   5.987   8.974 -1.2133  1.7154  1.3764
  723MOL0     H97556   6.180   6.116   9.131  0.0977 -1.1681 -1.4429
  723MOL0     H97557   5.820   6.031   9.258  0.1993  1.1303 -1.7413
  723MOL0     H97558   5.944   6.114   9.344 -0.0367  1.1610  0.1030
  723MOL0     H97559   5.861   6.182   9.056  0.2794  1.8320  0.0097
  723MOL0     H97560   5.993   6.261   9.136 -1.2776  1.2079 -0.6678
  723MOL0     H97561   5.794   6.403   9.175  0.2494 -0.0283  1.4251
  723MOL0     H97562   5.846   6.315   9.322  2.4628 -0.8791 -0.6951
  723MOL0     H97563   5.629   6.163   9.262 -0.7701 -0.3370 -1.4169
  723MOL0     H97564   5.634   6.272   9.111  0.8240 -1.9117  0.2153
  723MOL0     H97565   5.404   6.201   9.144  1.1888  0.9128 -0.3687
  723MOL0     H97566   5.067   6.228   9.113  0.3940  2.1570  2.4346
  723MOL0     H97567   5.216   6.145   9.060  0.9690  4.0504 -0.6427
  723MOL0     H97568   5.113   6.077   9.191  1.3341  0.1090  2.2047
  723MOL0     H97569   4.809   6.344   9.213 -1.4780 -1.0983 -0.6333
  723MOL0     H97570   4.590   6.405   9.187 -0.3894  0.8571 -0.4653
  723MOL0     H97571   4.371   6.615   9.504 -1.0914  0.1786 -0.7281
  723MOL0     H97572   4.438   6.761   9.415  1.3132 -0.4237  2.1230
  723MOL0     H97573   4.196   6.593   9.314  1.3681 -0.2060  0.3275
  723MOL0     H97574   4.173   6.736   9.406  1.0978 -3.1043  3.2138
  723MOL0     H97575   4.323   6.736   9.146  0.2793 -1.1808  0.9896
  723MOL0     H97576   4.230   6.868   9.229 -0.1617 -0.5938  1.6108
  723MOL0     H97577   4.123   6.766   9.019 -1.7276  3.6332  2.6126
  723MOL0     H97578   4.110   6.612   9.102  1.1761 -0.6782 -1.2521
  723MOL0     H97579   3.995   6.897   9.161  0.4799  0.6756 -1.1527
  723MOL0     H97580   3.953   6.766   9.268 -2.3467  3.1677 -0.0661
  723MOL0     H97581   3.903   6.749   8.972  3.9737 -0.7891  1.1780
  723MOL0     H97582   3.844   6.639   9.098 -3.2010  0.6814 -1.4911
  723MOL0     H97583   3.772   6.932   9.118 -3.6590  1.3406  0.8224
  723MOL0     H97584   3.688   6.794   9.187 -1.9704  0.9634 -0.6545
  723MOL0     H97585   3.683   6.889   8.890 -0.6219 -0.7518 -0.7199
  723MOL0     H97586   3.561   6.912   9.016 -0.8070 -1.1170 -2.2331
  723MOL0     H97587   4.606   6.657   9.551  1.5720  3.8075 -2.1559
  723MOL0     H97588   4.848   6.580   9.578  0.5992  3.7528 -2.2918
  723MOL0     H97589   5.216   6.465   9.515 -0.4677 -1.7241  0.3471
  723MOL0     H97590   5.457   6.471   9.464  0.2945 -0.2452 -2.1682
  723MOL0     H97591   7.227   5.905   8.726  2.5442 -1.4085 -1.6724
  723MOL0     H97592   7.474   5.904   8.750  0.1588  1.8718 -0.7055
  723MOL0     H97593   7.852   6.087   8.948  0.4157 -0.1667 -0.4341
  723MOL0     H97594   8.102   6.077   8.975 -0.6228  0.2339  3.1559
  723MOL0     H97595   8.284   5.714   9.032 -5.7900  0.0798 -2.1801
  723MOL0     H97596   8.338   5.717   8.857  5.0606 -0.0496 -0.1757
  723MOL0     H97597   8.486   5.865   9.076  0.4564  1.6524 -1.5174
  723MOL0     H97598   8.523   5.841   8.902 -0.1218 -0.1586  1.2326
  723MOL0     H97599   8.530   5.585   8.944 -0.0218 -2.2054  1.7532
  723MOL0     H97600   8.511   5.614   9.105 -1.3082 -0.6972 -0.8210
  723MOL0     H97601   8.741   5.583   9.039 -0.8020 -0.7495 -1.4792
  723MOL0     H97602   8.738   5.738   9.118  1.0210 -2.0046  0.8106
  723MOL0     H97603   8.856   5.809   8.711 -0.9902  0.8107 -0.8214
  723MOL0     H97604   8.093   5.646   8.932 -1.7296 -1.2071 -0.5326
  723MOL0     H97605   7.860   5.660   8.892  1.0643 -0.0252 -1.4831
  724MOL0     O97606   4.294   4.699   2.011  0.5533 -0.0116 -0.2992
  724MOL0     C97607   4.343   4.624   2.096 -0.9916  0.0082  0.9395
  724MOL0     O97608   4.275   4.535   2.175 -0.3682  0.2631  0.6986
  724MOL0     C97609   4.136   4.518   2.144 -0.1420 -1.0792  0.7519
  724MOL0     C97610   4.070   4.508   2.017 -0.1279  0.5581 -0.2605
  724MOL0     C97611   3.938   4.484   2.011  0.9122  0.5044  0.2576
  724MOL0     C97612   3.857   4.469   2.131  0.1941  0.0013  0.6399
  724MOL0     O97613   3.724   4.424   2.116 -0.2740 -0.6024 -0.4768
  724MOL0     C97614   3.651   4.376   2.230  0.5672 -0.1656 -0.4125
  724MOL0     C97615   3.496   4.350   2.196 -1.0779 -1.3369  0.1983
  724MOL0     C97616   3.424   4.242   2.279  0.0417 -0.4577  0.4977
  724MOL0     C97617   3.291   4.194   2.212 -0.5984  0.1735 -0.2938
  724MOL0     C97618   3.227   4.088   2.296 -0.5436  0.2279  0.3869
  724MOL0     C97619   3.102   4.034   2.225 -0.2604 -0.8943  0.4127
  724MOL0     C97620   3.053   3.900   2.283 -0.0309  0.4121 -0.8033
  724MOL0     C97621   3.129   3.777   2.235 -0.5584 -0.3164  0.0924
  724MOL0     N97622   3.091   3.653   2.308 -0.0956  0.1487 -0.1034
  724MOL0     C97623   2.970   3.596   2.297 -0.2890  0.7465 -0.9621
  724MOL0     C97624   2.979   3.474   2.352  0.4219  0.7271  0.7538
  724MOL0     C97625   2.864   3.371   2.380 -0.3727 -0.5223  0.3613
  724MOL0     C97626   2.911   3.221   2.379 -0.5196  0.0935  0.2047
  724MOL0     C97627   2.794   3.127   2.354 -0.1524  0.0836 -0.3049
  724MOL0     C97628   2.735   3.131   2.206 -0.8496  0.2382  0.4905
  724MOL0     O97629   2.619   3.048   2.200  0.5525  0.6855  0.2575
  724MOL0     C97630   2.551   3.030   2.082 -0.0241  0.2907  0.3414
  724MOL0     C97631   2.594   3.089   1.958 -0.1295  0.1754 -0.4526
  724MOL0     C97632   2.523   3.072   1.841 -0.5872  0.0781 -0.1122
  724MOL0     C97633   2.585   3.129   1.713  0.1977  0.6077  0.0723
  724MOL0     C97634   2.400   2.996   1.840  0.2124  0.3073  0.2145
  724MOL0     C97635   2.304   2.992   1.729  0.1794 -0.0330 -0.2012
  724MOL0     O97636   2.318   3.070   1.618  0.1675  0.0728 -0.0766
  724MOL0     C97637   2.207   3.087   1.540  0.2555 -0.3111 -0.1997
  724MOL0     C97638   2.179   3.001   1.430  0.4307  0.3074 -0.6910
  724MOL0     C97639   2.082   3.035   1.343  0.4252  0.6688  0.4137
  724MOL0     C97640   2.011   3.162   1.360 -0.2186 -0.2818  1.1320
  724MOL0     O97641   1.926   3.193   1.265 -0.1217 -0.6613 -0.0544
  724MOL0     C97642   1.808   3.259   1.314 -0.4389 -0.2632 -1.0166
  724MOL0     C97643   1.684   3.231   1.227 -0.0660 -0.1045  0.5509
  724MOL0     C97644   1.626   3.097   1.251  0.3292  0.4693  0.4105
  724MOL0     C97645   1.479   3.070   1.208  0.3080 -0.0970 -0.2753
  724MOL0     C97646   1.427   2.922   1.241  0.7667 -0.0235 -0.1661
  724MOL0     C97647   1.284   2.887   1.183 -0.1528 -0.1690 -0.0170
  724MOL0     C97648   1.268   2.930   1.036  0.2003 -0.5627 -0.7030
  724MOL0     C97649   1.148   2.867   0.970 -0.2373 -0.5994 -0.2262
  724MOL0    Cl97650   1.008   2.899   1.077 -0.2569 -0.2720 -0.0464
  724MOL0     C97651   2.038   3.248   1.464 -0.2219 -0.1059 -0.2117
  724MOL0     C97652   2.139   3.207   1.552  0.2771 -1.2254  0.4060
  724MOL0     O97653   2.217   2.901   1.742 -0.1051  0.1991 -0.9789
  724MOL0     C97654   2.362   2.942   1.968  0.2973 -0.9519  1.0897
  724MOL0     C97655   2.432   2.964   2.081  0.1356  0.1892 -1.2097
  724MOL0     N97656   3.112   3.451   2.391 -0.4570 -0.2629 -0.4040
  724MOL0     N97657   3.179   3.561   2.359 -0.7055  0.1395 -0.4344
  724MOL0     C97658   3.922   4.486   2.247 -0.3512 -0.0063 -0.0926
  724MOL0     C97659   4.054   4.511   2.258  0.0145 -0.1689  0.2551
  724MOL0     C97660   4.493   4.640   2.107  0.4223  0.2851 -0.3784
  724MOL0     C97661   4.566   4.547   2.186  0.0850  0.3262  0.7154
  724MOL0     C97662   4.689   4.573   2.231  0.4642 -0.6149  0.1369
  724MOL0     C97663   4.760   4.689   2.191  0.3351  0.2184 -0.3963
  724MOL0     O97664   4.885   4.710   2.237  0.0986  0.1350  0.1869
  724MOL0     C97665   4.977   4.650   2.145  0.1688 -0.6278 -0.4661
  724MOL0     C97666   5.118   4.689   2.183  0.1148  0.3352  0.1544
  724MOL0     C97667   5.158   4.599   2.301  0.3706 -0.5326  0.0378
  724MOL0     C97668   5.288   4.636   2.362 -0.6704 -0.0835  0.4241
  724MOL0     C97669   5.318   4.553   2.477 -0.3345  0.2817 -1.0596
  724MOL0     C97670   5.350   4.486   2.573  0.1717 -0.1777 -0.5587
  724MOL0     C97671   4.696   4.782   2.099  0.2332  0.0833  0.1572
  724MOL0     C97672   4.557   4.759   2.057 -0.0655  0.8332  0.2197
  724MOL0     H97673   4.133   4.503   1.928  0.6792  1.6477  0.2291
  724MOL0     H97674   3.899   4.454   1.915  2.4502  0.3765 -0.3557
  724MOL0     H97675   3.692   4.283   2.271 -0.4348 -0.7138 -0.6251
  724MOL0     H97676   3.643   4.453   2.307 -1.8142 -0.4701 -0.2770
  724MOL0     H97677   3.438   4.442   2.210  1.0104 -0.1511  1.7784
  724MOL0     H97678   3.495   4.329   2.089 -0.9201 -0.7959  0.0854
  724MOL0     H97679   3.495   4.166   2.313  1.4360 -0.0247 -1.3125
  724MOL0     H97680   3.402   4.303   2.367  0.8335  2.9544 -1.5105
  724MOL0     H97681   3.221   4.276   2.196 -1.8602 -1.1786 -2.1048
  724MOL0     H97682   3.311   4.161   2.109 -0.5007  1.5200 -0.7242
  724MOL0     H97683   3.295   4.004   2.308 -0.0556  0.2399 -1.9040
  724MOL0     H97684   3.194   4.123   2.395  0.0061 -1.8152  1.3529
  724MOL0     H97685   3.015   4.099   2.238  0.7579  0.3931  1.1013
  724MOL0     H97686   3.114   4.031   2.116 -1.0716 -1.4748  0.3337
  724MOL0     H97687   3.070   3.903   2.391  0.0045 -0.8354 -0.7563
  724MOL0     H97688   2.949   3.879   2.258 -0.0328 -4.1844  1.9717
  724MOL0     H97689   3.237   3.789   2.250 -0.4173 -2.5322  1.2291
  724MOL0     H97690   3.113   3.765   2.128 -1.8272 -1.7417  0.4108
  724MOL0     H97691   2.882   3.648   2.261 -0.8021  0.5190 -0.0584
  724MOL0     H97692   2.829   3.399   2.479 -2.5314 -1.1712 -0.1708
  724MOL0     H97693   2.783   3.382   2.307 -1.8340 -2.5055  1.6020
  724MOL0     H97694   2.955   3.194   2.475  0.0146  3.3621  0.9866
  724MOL0     H97695   2.988   3.203   2.304 -0.3279  1.1414  0.1344
  724MOL0     H97696   2.715   3.147   2.428  0.4076 -0.7996  0.5606
  724MOL0     H97697   2.829   3.027   2.382  0.8135  0.6931  0.7518
  724MOL0     H97698   2.807   3.096   2.131 -0.5378 -2.4488  1.9320
  724MOL0     H97699   2.701   3.233   2.186 -0.7449  0.3347  0.8020
  724MOL0     H97700   2.686   3.147   1.961 -1.6461  2.6481  1.4789
  724MOL0     H97701   2.527   3.218   1.689 -0.1248  0.6764  1.0661
  724MOL0     H97702   2.683   3.176   1.726  0.5582 -0.4566  1.5653
  724MOL0     H97703   2.588   3.044   1.643  0.7985 -0.2318  1.0844
  724MOL0     H97704   2.235   2.910   1.410  1.5198  1.0509 -1.1183
  724MOL0     H97705   2.076   2.971   1.256  0.3497  3.2660 -1.6140
  724MOL0     H97706   1.776   3.236   1.416  1.9833 -0.1008 -0.1543
  724MOL0     H97707   1.842   3.363   1.310  2.7883 -1.2170 -1.2030
  724MOL0     H97708   1.616   3.312   1.255  1.1977  1.0665  0.3228
  724MOL0     H97709   1.708   3.241   1.121  5.9281 -2.9001  1.1973
  724MOL0     H97710   1.641   3.067   1.355  0.7827 -2.8114 -0.4697
  724MOL0     H97711   1.690   3.031   1.191  1.7894  3.8352 -2.0685
  724MOL0     H97712   1.417   3.145   1.258 -0.1242 -1.4023  1.2284
  724MOL0     H97713   1.459   3.083   1.101  0.2877 -1.5755 -0.4624
  724MOL0     H97714   1.423   2.912   1.350  0.9481 -3.0420 -0.3694
  724MOL0     H97715   1.490   2.844   1.199  0.2671  0.4684 -1.8961
  724MOL0     H97716   1.258   2.782   1.195 -1.3495  0.3758  3.2605
  724MOL0     H97717   1.215   2.932   1.255  2.0345 -1.2085  2.9094
  724MOL0     H97718   1.356   2.908   0.975  0.0691  0.8318 -1.4328
  724MOL0     H97719   1.252   3.038   1.040 -0.2175 -0.5479 -2.3160
  724MOL0     H97720   1.158   2.758   0.968 -2.7829 -0.8844  0.2332
  724MOL0     H97721   1.132   2.906   0.869 -0.8254  0.9283  0.4226
  724MOL0     H97722   1.995   3.347   1.480 -0.2412 -0.1977  0.3104
  724MOL0     H97723   2.166   3.280   1.628  0.4299 -1.4858  0.6008
  724MOL0     H97724   2.266   2.898   1.994 -0.2213  0.1917  1.1636
  724MOL0     H97725   2.395   2.914   2.170  0.2082  0.3195 -1.1065
  724MOL0     H97726   3.860   4.489   2.336  0.1733 -1.0659  0.3249
  724MOL0     H97727   4.099   4.529   2.355  0.8350 -3.5139  0.6146
  724MOL0     H97728   4.510   4.462   2.224 -0.8545 -1.1564 -3.4722
  724MOL0     H97729   4.744   4.513   2.303  4.5482  0.3890 -1.8505
  724MOL0     H97730   4.969   4.541   2.154 -0.8679 -0.5901 -0.7417
  724MOL0     H97731   4.951   4.673   2.042  0.4482 -1.1107 -0.6472
  724MOL0     H97732   5.126   4.794   2.213  0.4471  0.3999 -0.1544
  724MOL0     H97733   5.185   4.682   2.097  0.4285 -0.2690  0.4431
  724MOL0     H97734   5.175   4.498   2.261  2.0646 -0.2823  0.0831
  724MOL0     H97735   5.077   4.604   2.375 -1.6222  2.8267 -2.1121
  724MOL0     H97736   5.277   4.741   2.392  3.7996  0.6770  0.0513
  724MOL0     H97737   5.362   4.631   2.282 -1.7974  3.1494 -0.9927
  724MOL0     H97738   5.366   4.427   2.661  1.6721  1.5543  0.4103
  724MOL0     H97739   4.738   4.878   2.070  0.8908  0.5201  2.3171
  724MOL0     H97740   4.510   4.827   1.986 -1.4826 -0.3997 -0.0802
  725MOL0     O97741   4.673   9.051   7.238 -0.0701 -0.8382  1.2394
  725MOL0     C97742   4.718   8.945   7.282  0.4221 -0.3468  0.0978
  725MOL0     O97743   4.637   8.838   7.306 -0.8507  0.5128 -0.1438
  725MOL0     C97744   4.501   8.843   7.309 -0.5804  0.0605 -0.6543
  725MOL0     C97745   4.432   8.729   7.259 -0.1637  0.4526  0.3047
  725MOL0     C97746   4.293   8.723   7.255  0.3776  1.1783 -0.5036
  725MOL0     C97747   4.220   8.837   7.288 -0.3584 -0.2509  0.0224
  725MOL0     O97748   4.085   8.842   7.292 -0.1712 -0.0615 -0.0483
  725MOL0     C97749   4.016   8.754   7.202  0.9984 -0.9126 -0.1309
  725MOL0     C97750   3.875   8.792   7.180  0.4913  0.4513  0.0349
  725MOL0     C97751   3.849   8.909   7.086 -0.6750 -0.2479 -0.0771
  725MOL0     C97752   3.705   8.965   7.085 -0.0340  0.0662  0.0862
  725MOL0     C97753   3.594   8.850   7.080 -0.2599 -0.1669 -0.2475
  725MOL0     C97754   3.462   8.910   7.055 -0.2428  0.0667  0.7793
  725MOL0     C97755   3.417   9.031   7.139  0.7902  0.0504 -0.2676
  725MOL0     C97756   3.272   9.062   7.119 -1.0249 -0.2352 -0.8482
  725MOL0     N97757   3.180   8.954   7.145 -0.4321  1.1771  0.1304
  725MOL0     C97758   3.122   8.878   7.042  0.8735 -0.0369 -0.1823
  725MOL0     C97759   3.033   8.803   7.108 -0.1534 -0.7981 -0.7911
  725MOL0     C97760   2.943   8.700   7.039 -0.5973  1.0536 -0.0357
  725MOL0     C97761   2.794   8.720   7.060  0.0015 -0.5852 -0.1864
  725MOL0     C97762   2.713   8.615   6.978  0.9320  0.0286  0.3031
  725MOL0     C97763   2.564   8.639   6.991  0.0535 -0.2894  0.5807
  725MOL0     O97764   2.494   8.516   6.956  1.1057  0.5960  0.0652
  725MOL0     C97765   2.358   8.521   6.914  0.6527 -0.5728  0.0334
  725MOL0     C97766   2.266   8.618   6.942 -0.2708  0.6681  0.8768
  725MOL0     C97767   2.132   8.610   6.891  0.2660  0.3869 -0.2750
  725MOL0     C97768   2.036   8.726   6.929  1.1089 -0.4899  0.7684
  725MOL0     C97769   2.095   8.492   6.815  0.9639  0.2954 -0.1943
  725MOL0     C97770   1.955   8.468   6.763 -0.5269  0.2474  0.6213
  725MOL0     O97771   1.932   8.397   6.648  0.3383  0.3604  0.3075
  725MOL0     C97772   1.806   8.380   6.590 -0.2553 -0.2220  0.0749
  725MOL0     C97773   1.679   8.374   6.657  0.7894  0.2692 -0.0809
  725MOL0     C97774   1.560   8.375   6.580  0.7526  0.6043  0.4062
  725MOL0     C97775   1.564   8.387   6.441 -0.7274 -0.1845 -0.5665
  725MOL0     O97776   1.451   8.394   6.372  0.5644  0.6445  0.8038
  725MOL0     C97777   1.441   8.495   6.272  0.5969 -0.0890 -0.2655
  725MOL0     C97778   1.325   8.589   6.293  0.2416 -0.1799  0.3632
  725MOL0     C97779   1.194   8.513   6.256 -0.7331 -0.1020 -0.6253
  725MOL0     C97780   1.074   8.606   6.248 -0.0140 -0.4414  0.6079
  725MOL0     C97781   0.942   8.537   6.226 -0.2552  0.6477  0.0121
  725MOL0     C97782   0.894   8.526   6.082 -0.0763  1.1196  0.6277
  725MOL0     C97783   0.756   8.457   6.080 -0.0675 -0.3714 -0.8560
  725MOL0     C97784   0.695   8.442   5.935  0.4854 -0.1611  0.3302
  725MOL0    Cl97785   0.555   8.333   5.923  0.1868 -0.1261 -0.3166
  725MOL0     C97786   1.690   8.393   6.378  0.3774 -0.1486  0.4822
  725MOL0     C97787   1.808   8.383   6.458  0.0151 -0.7510  0.6719
  725MOL0     O97788   1.863   8.517   6.827  0.8541 -0.4167 -0.0509
  725MOL0     C97789   2.193   8.391   6.790 -0.7345 -0.2576 -0.9970
  725MOL0     C97790   2.321   8.403   6.842 -0.4620  0.0970  0.0976
  725MOL0     N97791   3.059   8.815   7.242 -0.4423  0.0650 -0.0922
  725MOL0     N97792   3.138   8.910   7.264 -0.8743  0.0557  0.0906
  725MOL0     C97793   4.282   8.947   7.338  0.1106 -0.4487  0.2858
  725MOL0     C97794   4.418   8.948   7.354 -0.0376  0.2741 -0.2583
  725MOL0     C97795   4.862   8.924   7.323  0.8567  0.0730  0.7329
  725MOL0     C97796   4.908   8.789   7.329 -0.1265 -0.4531 -0.4987
  725MOL0     C97797   5.048   8.764   7.341 -0.4990  0.6406 -0.4418
  725MOL0     C97798   5.146   8.864   7.356  0.9005 -0.6562  0.3317
  725MOL0     O97799   5.274   8.823   7.356  0.3367  0.3136 -0.5150
  725MOL0     C97800   5.382   8.926   7.364  0.6763 -0.1269  0.4940
  725MOL0     C97801   5.520   8.866   7.332 -0.7112 -0.0386  0.1787
  725MOL0     C97802   5.553   8.763   7.441 -0.4061 -0.6665  0.3105
  725MOL0     C97803   5.706   8.764   7.484 -0.2888 -0.2980  0.6228
  725MOL0     C97804   5.755   8.638   7.544  0.2505 -0.3645 -0.1533
  725MOL0     C97805   5.800   8.526   7.581  0.2529 -0.2774 -0.5897
  725MOL0     C97806   5.097   9.000   7.354  1.0649 -0.3785 -0.0670
  725MOL0     C97807   4.955   9.026   7.342 -1.1571  0.1717  0.2381
  725MOL0     H97808   4.486   8.641   7.226  1.6264  1.8535 -0.6801
  725MOL0     H97809   4.242   8.631   7.229  3.3120 -1.3650  1.8435
  725MOL0     H97810   4.060   8.769   7.103 -0.4361  1.3018 -0.5038
  725MOL0     H97811   4.020   8.646   7.223 -0.5716 -1.3476 -1.8545
  725MOL0     H97812   3.822   8.709   7.130 -1.1052  0.5720  1.4445
  725MOL0     H97813   3.814   8.810   7.269  1.2483 -4.5960  1.8913
  725MOL0     H97814   3.922   8.983   7.121  1.8102 -2.4728 -0.2660
  725MOL0     H97815   3.875   8.876   6.985 -0.4875 -2.8988  0.7683
  725MOL0     H97816   3.684   9.019   7.178 -1.4444  0.3040 -0.3501
  725MOL0     H97817   3.698   9.036   7.002  0.8519  0.8575  0.6641
  725MOL0     H97818   3.629   8.782   7.002 -1.7190 -0.2416 -0.8788
  725MOL0     H97819   3.595   8.800   7.178 -0.7066 -1.1209 -0.7173
  725MOL0     H97820   3.454   8.936   6.949 -0.1824 -0.7239  0.5729
  725MOL0     H97821   3.390   8.831   7.076  0.7268 -1.7623 -2.1735
  725MOL0     H97822   3.433   8.990   7.239 -2.6153 -2.3021 -0.5189
  725MOL0     H97823   3.479   9.122   7.134 -2.8892  2.7219 -1.6746
  725MOL0     H97824   3.262   9.096   7.016 -1.8232  0.2047 -0.6314
  725MOL0     H97825   3.242   9.140   7.190  0.3117 -1.7873  1.5735
  725MOL0     H97826   3.131   8.888   6.935  0.2795 -0.2676 -0.2580
  725MOL0     H97827   2.966   8.684   6.933 -0.0633  0.4200  0.1717
  725MOL0     H97828   2.972   8.604   7.084  1.0901  1.3060 -0.5025
  725MOL0     H97829   2.762   8.823   7.037 -1.9679 -0.8881  0.9255
  725MOL0     H97830   2.778   8.713   7.168 -0.2516  1.2735 -0.0551
  725MOL0     H97831   2.743   8.516   7.013  1.3827  0.1992  0.4003
  725MOL0     H97832   2.745   8.629   6.875 -2.5561  4.4897 -0.5063
  725MOL0     H97833   2.523   8.723   6.935 -3.5608 -2.1487  0.1116
  725MOL0     H97834   2.557   8.640   7.100  3.1404 -3.2222  0.9816
  725MOL0     H97835   2.296   8.703   7.003 -0.1422  0.7677  0.6764
  725MOL0     H97836   2.084   8.817   6.966  1.7903  0.5937 -2.5233
  725MOL0     H97837   1.975   8.765   6.847  2.1118 -1.9969 -0.7574
  725MOL0     H97838   1.969   8.676   7.000 -0.5963 -5.4450 -3.6266
  725MOL0     H97839   1.659   8.368   6.763 -1.0689 -2.4697 -0.4873
  725MOL0     H97840   1.463   8.363   6.627  1.1595 -0.7766  0.9595
  725MOL0     H97841   1.530   8.557   6.281  1.1976 -0.7094 -1.6381
  725MOL0     H97842   1.444   8.461   6.168 -2.3900  3.6790 -1.8263
  725MOL0     H97843   1.309   8.629   6.393 -3.8605 -0.6498  0.0649
  725MOL0     H97844   1.327   8.669   6.219 -2.5001 -2.3511 -2.3641
  725MOL0     H97845   1.180   8.439   6.335 -1.5310  1.4990  0.7904
  725MOL0     H97846   1.208   8.454   6.165  4.3047  0.0574 -0.2763
  725MOL0     H97847   1.063   8.660   6.343  2.0084 -0.0870  0.6809
  725MOL0     H97848   1.098   8.692   6.185 -0.0122 -0.4442  0.6053
  725MOL0     H97849   0.877   8.606   6.280 -0.1468 -1.2087  2.7079
  725MOL0     H97850   0.938   8.439   6.276  2.1982  0.7210  0.4448
  725MOL0     H97851   0.880   8.623   6.034 -1.9994  1.2069  1.2822
  725MOL0     H97852   0.971   8.475   6.023  1.0744  1.2645  1.9725
  725MOL0     H97853   0.685   8.521   6.133 -0.0470 -1.8052  1.0071
  725MOL0     H97854   0.769   8.372   6.147  2.3914  2.6724  2.9607
  725MOL0     H97855   0.776   8.402   5.872  0.1647 -0.8989  0.3789
  725MOL0     H97856   0.656   8.534   5.892 -1.0527 -0.6502  0.6296
  725MOL0     H97857   1.697   8.415   6.272 -0.1237 -1.2126  0.2164
  725MOL0     H97858   1.906   8.399   6.413 -0.2988  1.7986  0.7181
  725MOL0     H97859   2.167   8.306   6.729  0.2616 -2.4912  1.4822
  725MOL0     H97860   2.382   8.316   6.821 -2.1171 -0.8748 -0.9381
  725MOL0     H97861   4.215   9.026   7.372  0.0151  0.4139 -1.7398
  725MOL0     H97862   4.459   9.033   7.407  0.6446 -0.9445  1.2581
  725MOL0     H97863   4.834   8.710   7.314 -0.3976 -0.2935 -0.0187
  725MOL0     H97864   5.076   8.659   7.333  2.1499  1.1361  1.0712
  725MOL0     H97865   5.355   9.001   7.289  0.9218 -2.0683 -1.6503
  725MOL0     H97866   5.384   8.978   7.460  0.3634  1.1314 -0.1580
  725MOL0     H97867   5.598   8.941   7.317 -1.3510  0.6634  0.2993
  725MOL0     H97868   5.515   8.821   7.233  2.3776 -0.0317 -0.0602
  725MOL0     H97869   5.521   8.662   7.414  3.2791 -2.4285  1.8733
  725MOL0     H97870   5.498   8.790   7.531 -2.9625 -2.6279 -0.5514
  725MOL0     H97871   5.718   8.853   7.547 -4.3811  1.3299 -0.5681
  725MOL0     H97872   5.771   8.793   7.401 -0.2129  2.8097  1.6229
  725MOL0     H97873   5.850   8.433   7.599  1.0339  0.6588  2.6578
  725MOL0     H97874   5.155   9.090   7.375  0.0295  0.8274 -2.0577
  725MOL0     H97875   4.904   9.121   7.329 -2.2224 -0.4285 -0.1046
  726MOL0     O97876   7.389   2.492   4.463  0.6585 -0.0206 -0.1499
  726MOL0     C97877   7.406   2.557   4.360  1.2774  0.6722 -0.4144
  726MOL0     O97878   7.309   2.640   4.310  0.2439 -0.4999  0.9211
  726MOL0     C97879   7.183   2.641   4.364 -0.1972 -0.9042 -0.8564
  726MOL0     C97880   7.131   2.751   4.433  0.1729 -0.3962  0.2494
  726MOL0     C97881   7.015   2.754   4.494  0.1098 -0.0410 -0.3730
  726MOL0     C97882   6.925   2.647   4.467 -0.9463 -0.4078 -1.1475
  726MOL0     O97883   6.802   2.622   4.518  0.9820 -0.8312 -0.4602
  726MOL0     C97884   6.733   2.725   4.585 -0.6751 -0.2325 -0.8893
  726MOL0     C97885   6.602   2.659   4.624 -0.3491  0.4060 -0.6209
  726MOL0     C97886   6.617   2.546   4.728  0.3544 -0.5519 -0.0460
  726MOL0     C97887   6.481   2.520   4.794 -1.4089 -0.5159 -0.7228
  726MOL0     C97888   6.392   2.444   4.695  0.3499 -0.9878 -0.2250
  726MOL0     C97889   6.267   2.401   4.768  0.3858 -0.7244 -0.0395
  726MOL0     C97890   6.165   2.314   4.685 -0.2870 -0.4413 -0.2835
  726MOL0     C97891   6.055   2.265   4.767  0.3804  0.2412 -0.4541
  726MOL0     N97892   5.989   2.145   4.714 -0.5095 -0.5659  0.1514
  726MOL0     C97893   5.870   2.098   4.756 -0.1724  0.2575 -0.2793
  726MOL0     C97894   5.851   1.981   4.678 -0.5223  0.4255  0.3031
  726MOL0     C97895   5.730   1.905   4.689  0.8258  0.3689  0.5366
  726MOL0     C97896   5.604   1.991   4.648 -0.6196  1.0271 -0.6581
  726MOL0     C97897   5.544   1.968   4.510 -0.1584  0.9878 -0.6167
  726MOL0     C97898   5.399   2.013   4.504  0.0622  0.3772 -0.3833
  726MOL0     O97899   5.381   2.142   4.562  0.1112  0.1677  0.0699
  726MOL0     C97900   5.263   2.205   4.540 -0.5686  0.5220  0.5163
  726MOL0     C97901   5.244   2.332   4.586  0.0116  1.2409 -0.0095
  726MOL0     C97902   5.125   2.406   4.549  0.2234  0.2821 -0.4906
  726MOL0     C97903   5.117   2.549   4.606  0.2129  0.2430 -0.2627
  726MOL0     C97904   5.014   2.340   4.484  0.6044  0.0685 -0.2662
  726MOL0     C97905   4.873   2.388   4.469  0.1027 -0.5625  0.0915
  726MOL0     O97906   4.801   2.345   4.363 -0.3566 -0.3846  0.2622
  726MOL0     C97907   4.675   2.393   4.334 -0.3385 -0.5519  0.4178
  726MOL0     C97908   4.585   2.457   4.427 -0.1220  0.2943 -0.9684
  726MOL0     C97909   4.474   2.510   4.373 -0.2064 -0.4550  0.5978
  726MOL0     C97910   4.428   2.485   4.237  0.0700 -0.9829 -0.4787
  726MOL0     O97911   4.305   2.528   4.201 -0.7876  0.0373  0.0444
  726MOL0     C97912   4.269   2.533   4.062 -0.3084 -0.1815  0.3708
  726MOL0     C97913   4.126   2.597   4.055 -0.3898  0.4788 -0.1434
  726MOL0     C97914   4.100   2.666   3.920  0.5145 -0.3857 -0.4272
  726MOL0     C97915   3.957   2.733   3.915 -0.0110 -0.3166 -0.1062
  726MOL0     C97916   3.913   2.748   3.767  0.9828  0.7811  0.2368
  726MOL0     C97917   3.776   2.809   3.746  0.1294  0.0941 -0.6294
  726MOL0     C97918   3.741   2.810   3.596 -0.1616  0.5229  0.2761
  726MOL0     C97919   3.592   2.803   3.579  1.1009  0.2004 -0.8594
  726MOL0    Cl97920   3.554   2.747   3.413  0.2588 -0.2643  0.2352
  726MOL0     C97921   4.513   2.410   4.153  0.7310  0.1388  0.0244
  726MOL0     C97922   4.630   2.361   4.206  0.4358  0.2515  0.6395
  726MOL0     O97923   4.840   2.465   4.553  1.1600 -0.0285 -0.0499
  726MOL0     C97924   5.037   2.210   4.441 -0.0100  0.3708 -0.1477
  726MOL0     C97925   5.161   2.149   4.459 -0.1426 -0.0213  0.5856
  726MOL0     N97926   5.956   1.963   4.585  0.0741 -0.0101 -0.5058
  726MOL0     N97927   6.026   2.066   4.608  0.2289 -0.3161 -0.2676
  726MOL0     C97928   6.960   2.547   4.380 -0.8090  0.1959  0.3892
  726MOL0     C97929   7.091   2.543   4.323  0.1838 -0.3704 -0.1869
  726MOL0     C97930   7.547   2.555   4.306 -0.0490 -0.1406  0.1365
  726MOL0     C97931   7.599   2.678   4.262 -0.3695  0.7815  0.4456
  726MOL0     C97932   7.732   2.683   4.216 -0.5688  0.3478 -0.0997
  726MOL0     C97933   7.809   2.565   4.211  0.8746 -0.0908 -0.5000
  726MOL0     O97934   7.939   2.569   4.174  0.0747  0.2814  0.6306
  726MOL0     C97935   7.979   2.677   4.086 -0.9670 -0.0683 -0.1600
  726MOL0     C97936   8.118   2.641   4.024  0.4446  0.3948  0.0492
  726MOL0     C97937   8.227   2.606   4.127  1.0042 -0.6962 -0.6006
  726MOL0     C97938   8.368   2.644   4.062  0.1543  0.3349  0.7069
  726MOL0     C97939   8.456   2.694   4.165 -0.7992  0.6478  0.5409
  726MOL0     C97940   8.531   2.729   4.258 -0.0719  0.4957  0.2127
  726MOL0     C97941   7.759   2.446   4.256 -0.4182  0.2097 -0.3298
  726MOL0     C97942   7.626   2.439   4.306  0.0018  0.2632 -0.1531
  726MOL0     H97943   7.203   2.831   4.452  0.9088 -1.3085  1.5041
  726MOL0     H97944   6.990   2.843   4.551 -0.9388 -0.7764  0.3427
  726MOL0     H97945   6.794   2.753   4.672  0.2803 -1.8000 -1.0007
  726MOL0     H97946   6.722   2.809   4.517 -0.4470  0.1545 -0.4568
  726MOL0     H97947   6.533   2.737   4.657  0.0794  0.9907 -1.0806
  726MOL0     H97948   6.555   2.614   4.536  0.1022  0.4189 -0.8714
  726MOL0     H97949   6.665   2.461   4.679  0.8825 -0.4041  0.2051
  726MOL0     H97950   6.689   2.583   4.802  0.0777 -0.7938  0.3502
  726MOL0     H97951   6.494   2.462   4.886 -1.9394  0.0024 -0.3131
  726MOL0     H97952   6.445   2.620   4.820 -0.5569  0.0829 -1.7603
  726MOL0     H97953   6.366   2.516   4.616 -2.2162 -1.3160  0.2294
  726MOL0     H97954   6.437   2.355   4.651  1.0017 -1.1026  0.6602
  726MOL0     H97955   6.300   2.344   4.855  0.1467 -0.5158  0.1886
  726MOL0     H97956   6.201   2.476   4.812 -1.5905 -2.1071 -0.4831
  726MOL0     H97957   6.117   2.377   4.610  1.8195 -0.4259 -1.7076
  726MOL0     H97958   6.211   2.229   4.634 -1.9615 -1.0965 -0.7570
  726MOL0     H97959   5.981   2.346   4.764 -0.3218 -0.1221  2.9467
  726MOL0     H97960   6.095   2.251   4.868  2.0933  2.9387 -0.6448
  726MOL0     H97961   5.824   2.143   4.843 -1.0626 -1.6257  0.2782
  726MOL0     H97962   5.728   1.811   4.633 -1.2227  0.0923  0.9712
  726MOL0     H97963   5.708   1.881   4.794  0.3284  2.2832  0.8977
  726MOL0     H97964   5.622   2.098   4.660  0.1819  0.7146  1.4794
  726MOL0     H97965   5.538   1.966   4.732 -0.2128  2.3471  0.0961
  726MOL0     H97966   5.562   1.864   4.480 -1.4620  0.6971 -0.4494
  726MOL0     H97967   5.600   2.020   4.433 -1.3869 -0.9126 -2.9254
  726MOL0     H97968   5.347   1.944   4.571  2.8500  0.1900  1.8005
  726MOL0     H97969   5.368   2.003   4.400 -1.9104  0.9609  0.1234
  726MOL0     H97970   5.336   2.372   4.628  0.7896 -0.2055 -0.2925
  726MOL0     H97971   5.222   2.578   4.621  0.3852 -0.9885  1.1662
  726MOL0     H97972   5.065   2.621   4.542  0.4023 -0.8971 -1.7829
  726MOL0     H97973   5.060   2.551   4.699 -0.2216 -1.7551 -0.4472
  726MOL0     H97974   4.614   2.477   4.529 -0.8380  0.7544 -0.8497
  726MOL0     H97975   4.423   2.584   4.434  3.2950  1.5143  1.4263
  726MOL0     H97976   4.342   2.596   4.009 -1.3172  0.0151 -0.8448
  726MOL0     H97977   4.266   2.431   4.022 -1.1043 -0.3906  0.9426
  726MOL0     H97978   4.054   2.519   4.078  0.0893  0.5700  1.8032
  726MOL0     H97979   4.119   2.666   4.140  1.3459  1.6693 -0.9032
  726MOL0     H97980   4.116   2.595   3.839  1.0854  0.0734 -0.7199
  726MOL0     H97981   4.173   2.745   3.901  0.6314 -0.7257 -1.4443
  726MOL0     H97982   3.884   2.683   3.979  0.9041 -0.0687  1.1566
  726MOL0     H97983   3.960   2.832   3.961  2.3706 -1.2596  1.9494
  726MOL0     H97984   3.916   2.646   3.728  3.9424 -0.1679  2.5293
  726MOL0     H97985   3.985   2.811   3.714  0.9047  0.1857 -0.5821
  726MOL0     H97986   3.700   2.747   3.794 -0.3826 -1.8316 -3.6827
  726MOL0     H97987   3.766   2.906   3.796 -1.0912  0.0068 -0.6690
  726MOL0     H97988   3.800   2.742   3.534  0.3808 -1.1315  2.5030
  726MOL0     H97989   3.756   2.909   3.551 -1.7049  1.0824  0.9379
  726MOL0     H97990   3.558   2.907   3.588  0.5007 -0.0255 -0.4892
  726MOL0     H97991   3.530   2.740   3.644 -1.4466  1.9139 -1.4688
  726MOL0     H97992   4.483   2.397   4.050 -1.4804  0.0486  0.6257
  726MOL0     H97993   4.688   2.289   4.151 -0.0628 -0.2386  0.7431
  726MOL0     H97994   4.964   2.157   4.381  0.8202 -0.1672 -0.7185
  726MOL0     H97995   5.173   2.050   4.416  1.1633  0.7345 -0.8630
  726MOL0     H97996   6.894   2.470   4.341 -2.1657  2.2440 -1.5358
  726MOL0     H97997   7.130   2.469   4.254  0.9681  1.7987 -2.2090
  726MOL0     H97998   7.548   2.770   4.288 -0.0661  0.4353  2.3724
  726MOL0     H97999   7.796   2.770   4.216  2.5213 -1.7149 -1.5533
  726MOL0     H98000   7.902   2.686   4.008 -1.0460  0.5581 -0.0114
  726MOL0     H98001   7.984   2.772   4.140  1.7209  0.6969 -1.5816
  726MOL0     H98002   8.136   2.726   3.958 -1.5450  0.4305 -0.5127
  726MOL0     H98003   8.089   2.556   3.962  1.6680 -1.1667  1.5280
  726MOL0     H98004   8.231   2.501   4.158  0.0649 -0.3509  0.8027
  726MOL0     H98005   8.220   2.674   4.212  3.8079  1.2594 -1.7891
  726MOL0     H98006   8.354   2.729   3.995 -2.0259  1.0896  2.0119
  726MOL0     H98007   8.408   2.569   3.994  0.8086  0.5552  0.8382
  726MOL0     H98008   8.607   2.740   4.333  2.0390 -1.4731 -1.4586
  726MOL0     H98009   7.817   2.354   4.257 -0.1217  0.3754  2.0942
  726MOL0     H98010   7.583   2.344   4.335 -0.6488  0.9927  1.4328
  727MOL0     O98011   2.079   4.134   6.105 -0.1834  0.1743  0.6608
  727MOL0     C98012   2.019   4.214   6.029  0.3827  0.1664 -0.8409
  727MOL0     O98013   1.891   4.206   5.994 -0.2525 -0.2101 -0.0239
  727MOL0     C98014   1.815   4.102   6.046 -0.1313  0.4327  0.5270
  727MOL0     C98015   1.751   4.029   5.948 -0.6860  0.3309  0.3901
  727MOL0     C98016   1.658   3.929   5.976  0.1344 -1.2454  0.0381
  727MOL0     C98017   1.629   3.897   6.117  0.0502 -0.0276 -0.3776
  727MOL0     O98018   1.569   3.771   6.162  0.0280 -0.5252 -0.4297
  727MOL0     C98019   1.590   3.651   6.081  0.0393 -0.4684  0.2970
  727MOL0     C98020   1.478   3.631   5.984  0.6652  0.4104  0.6883
  727MOL0     C98021   1.529   3.545   5.867 -0.1550 -0.2810 -0.9212
  727MOL0     C98022   1.416   3.470   5.805 -0.3731 -0.1146 -0.2623
  727MOL0     C98023   1.454   3.374   5.688  0.3054  0.6725 -0.5350
  727MOL0     C98024   1.322   3.336   5.617  0.1732 -0.1300  0.6769
  727MOL0     C98025   1.345   3.245   5.495  0.4928 -0.8365  0.0418
  727MOL0     C98026   1.424   3.118   5.536 -0.0010 -0.1343 -0.4041
  727MOL0     N98027   1.379   3.003   5.456 -0.4311  0.7324  0.3955
  727MOL0     C98028   1.398   3.003   5.317 -0.4203  0.2120 -0.1811
  727MOL0     C98029   1.356   2.887   5.272 -0.0398 -0.3641 -0.0195
  727MOL0     C98030   1.362   2.832   5.131 -0.0334 -0.0413 -0.2000
  727MOL0     C98031   1.255   2.725   5.095 -0.0602 -0.1485  0.4826
  727MOL0     C98032   1.111   2.791   5.121 -0.2245 -0.1001  0.6372
  727MOL0     C98033   0.999   2.764   5.013  0.2923 -0.4443  0.5162
  727MOL0     O98034   0.901   2.857   5.056 -0.0282 -0.0311  0.2081
  727MOL0     C98035   0.795   2.878   4.971 -0.2670 -0.1665 -0.1463
  727MOL0     C98036   0.753   3.006   4.941 -0.3066  0.3913  0.5032
  727MOL0     C98037   0.639   3.037   4.861 -0.9642 -0.2867 -0.5657
  727MOL0     C98038   0.607   3.184   4.858  0.7148  0.6728  0.6205
  727MOL0     C98039   0.552   2.931   4.829  0.1188 -0.9084  0.1559
  727MOL0     C98040   0.423   2.954   4.764  0.7427 -0.4528 -0.4514
  727MOL0     O98041   0.413   3.068   4.688 -0.1476 -0.0482 -0.4493
  727MOL0     C98042   0.299   3.119   4.625  0.0796 -0.2186  0.4002
  727MOL0     C98043   0.321   3.236   4.548 -0.6439 -0.2329 -0.0053
  727MOL0     C98044   0.219   3.318   4.496  0.2894  0.3181 -0.3045
  727MOL0     C98045   0.085   3.274   4.518 -1.2363 -0.6474 -0.1766
  727MOL0     O98046  -0.029   3.332   4.467  0.4138 -0.1577 -0.4176
  727MOL0     C98047  -0.023   3.476   4.455  0.7499 -0.7276 -0.4220
  727MOL0     C98048  -0.148   3.557   4.423  0.5899  0.0952 -0.4009
  727MOL0     C98049  -0.251   3.477   4.338  0.4361  0.1962  0.6546
  727MOL0     C98050  -0.210   3.436   4.194  0.3924  0.2750 -0.1182
  727MOL0     C98051  -0.184   3.284   4.169 -1.0081 -0.1316  0.5494
  727MOL0     C98052  -0.172   3.262   4.022  0.6588  0.3825 -0.6879
  727MOL0     C98053  -0.120   3.131   3.984 -0.6001  1.3498 -0.6039
  727MOL0     C98054  -0.129   3.101   3.828  0.0620  0.6877  0.7298
  727MOL0    Cl98055  -0.047   3.224   3.709  0.1956 -0.2468 -0.2221
  727MOL0     C98056   0.058   3.154   4.574  0.2166  0.3422 -0.3826
  727MOL0     C98057   0.164   3.087   4.637 -0.3700  0.0275 -0.2346
  727MOL0     O98058   0.341   2.859   4.754  0.1672  0.1872 -0.0395
  727MOL0     C98059   0.607   2.800   4.841 -0.1022 -0.9485 -0.0508
  727MOL0     C98060   0.719   2.776   4.921  0.3446  0.4955  0.2210
  727MOL0     N98061   1.296   2.827   5.380  0.5379  0.0088  0.3073
  727MOL0     N98062   1.310   2.889   5.488  0.3750 -0.0067 -0.0204
  727MOL0     C98063   1.703   3.967   6.213 -0.0383 -0.0367 -1.2282
  727MOL0     C98064   1.797   4.072   6.183 -0.6825  0.3004  0.5464
  727MOL0     C98065   2.094   4.321   5.965 -0.1466 -0.1285  0.6985
  727MOL0     C98066   2.238   4.345   5.994 -0.3501 -0.5261  0.4855
  727MOL0     C98067   2.299   4.458   5.937 -0.6283  0.0957  0.7731
  727MOL0     C98068   2.228   4.538   5.848 -0.0562  0.5768  0.3461
  727MOL0     O98069   2.302   4.632   5.779  0.1871  0.2588  0.0792
  727MOL0     C98070   2.266   4.688   5.651  0.2371  0.1506 -0.1122
  727MOL0     C98071   2.385   4.706   5.556  0.2198  0.4564 -0.9584
  727MOL0     C98072   2.489   4.806   5.621 -0.1692  0.9085 -0.2500
  727MOL0     C98073   2.565   4.895   5.527  1.1271  0.0694  0.5305
  727MOL0     C98074   2.494   4.977   5.433  0.6984 -0.0029  0.0211
  727MOL0     C98075   2.434   5.052   5.357 -0.3674  0.4996  0.4392
  727MOL0     C98076   2.090   4.512   5.812 -0.1828  0.0327 -0.7909
  727MOL0     C98077   2.024   4.407   5.881 -0.2281  0.7143  0.1527
  727MOL0     H98078   1.777   4.057   5.847 -0.5159  1.0825  0.6407
  727MOL0     H98079   1.609   3.876   5.895  0.8056 -0.0018 -1.2313
  727MOL0     H98080   1.683   3.663   6.026 -0.6243  2.6083 -0.3056
  727MOL0     H98081   1.597   3.564   6.147 -0.5031  0.7344  1.9993
  727MOL0     H98082   1.401   3.569   6.030  2.1356 -1.1112  1.2367
  727MOL0     H98083   1.433   3.722   5.945  1.0101  0.3081  0.0319
  727MOL0     H98084   1.580   3.603   5.789 -0.9799  0.2242 -1.1025
  727MOL0     H98085   1.612   3.484   5.905 -3.4378 -3.7351  1.4307
  727MOL0     H98086   1.353   3.406   5.868  3.1046 -2.1556  1.4279
  727MOL0     H98087   1.344   3.548   5.776 -2.8300 -1.4835  1.7562
  727MOL0     H98088   1.520   3.416   5.612 -0.7766 -0.1994 -2.0107
  727MOL0     H98089   1.501   3.283   5.726 -1.9341  0.8667  3.2186
  727MOL0     H98090   1.242   3.291   5.677  2.4269 -3.3427  1.5611
  727MOL0     H98091   1.278   3.425   5.571 -1.2601 -0.6119  1.0564
  727MOL0     H98092   1.245   3.205   5.473 -0.3709  1.1317  0.1500
  727MOL0     H98093   1.401   3.300   5.420 -0.4767  0.9794  0.5728
  727MOL0     H98094   1.417   3.090   5.641 -0.2785  1.8672  0.1499
  727MOL0     H98095   1.531   3.129   5.519 -0.1502  2.2517 -0.1559
  727MOL0     H98096   1.432   3.087   5.257  2.7337 -1.7486 -1.3378
  727MOL0     H98097   1.345   2.909   5.055 -0.2488 -1.0941 -1.2564
  727MOL0     H98098   1.461   2.789   5.112  0.9674  0.8073  2.6201
  727MOL0     H98099   1.271   2.631   5.148 -1.4351  0.0198  1.2385
  727MOL0     H98100   1.261   2.703   4.988 -2.1081 -2.5333  0.7444
  727MOL0     H98101   1.133   2.897   5.103  1.0218 -0.4380  0.0656
  727MOL0     H98102   1.068   2.772   5.219 -2.7392  1.1381 -0.1378
  727MOL0     H98103   0.952   2.665   5.014 -0.1504 -0.2378  1.0765
  727MOL0     H98104   1.032   2.786   4.911  0.0471  0.4360  0.6213
  727MOL0     H98105   0.820   3.082   4.980  1.7070  0.4115 -2.6361
  727MOL0     H98106   0.694   3.237   4.899  2.0899 -0.9360 -0.1324
  727MOL0     H98107   0.583   3.226   4.759  2.3388 -2.1770 -1.1170
  727MOL0     H98108   0.509   3.191   4.906 -0.2580  2.4407 -1.4290
  727MOL0     H98109   0.427   3.259   4.544  0.5525 -4.6955  1.1439
  727MOL0     H98110   0.244   3.409   4.442 -1.1772  0.9342 -0.0030
  727MOL0     H98111   0.002   3.508   4.556 -1.5408 -1.4403  0.4282
  727MOL0     H98112   0.050   3.497   4.375  1.7592  0.1362  0.6864
  727MOL0     H98113  -0.190   3.577   4.522 -2.5847 -1.1060 -1.3592
  727MOL0     H98114  -0.123   3.654   4.379  0.8780 -0.9791 -2.7669
  727MOL0     H98115  -0.336   3.544   4.319  1.0917  0.1723 -3.4625
  727MOL0     H98116  -0.285   3.393   4.399 -0.9186 -0.2856 -0.6680
  727MOL0     H98117  -0.293   3.461   4.127  0.9559 -0.5666 -1.1695
  727MOL0     H98118  -0.121   3.490   4.162  0.0735  0.1924 -1.1959
  727MOL0     H98119  -0.257   3.212   4.206 -0.4570  0.3262  2.6706
  727MOL0     H98120  -0.091   3.255   4.220 -2.6379 -1.2772  3.0443
  727MOL0     H98121  -0.264   3.285   3.967  0.0178  3.4882  1.3806
  727MOL0     H98122  -0.101   3.336   3.984  0.2408  0.1560 -1.9683
  727MOL0     H98123  -0.168   3.045   4.031  2.2933  0.7006  1.4564
  727MOL0     H98124  -0.016   3.134   4.018 -1.3897  2.0055  1.9849
  727MOL0     H98125  -0.231   3.071   3.801 -0.1535  2.0294 -0.0302
  727MOL0     H98126  -0.066   3.015   3.804  0.5393  1.6048 -1.5240
  727MOL0     H98127  -0.037   3.109   4.600  0.7109 -0.7510 -0.3775
  727MOL0     H98128   0.135   3.013   4.712 -0.4677  0.2297 -0.0716
  727MOL0     H98129   0.554   2.715   4.801  1.5564 -1.4213 -1.3713
  727MOL0     H98130   0.753   2.675   4.940  2.2946  0.5884 -2.2644
  727MOL0     H98131   1.690   3.933   6.315  2.4253  0.4437 -0.6975
  727MOL0     H98132   1.842   4.130   6.263 -1.0723  0.8849  0.3505
  727MOL0     H98133   2.299   4.277   6.051  1.9378  0.5800 -0.4935
  727MOL0     H98134   2.401   4.484   5.964 -0.2628 -1.8377  1.4661
  727MOL0     H98135   2.203   4.617   5.597  0.2390  1.0970 -1.4200
  727MOL0     H98136   2.217   4.786   5.658 -2.9235 -1.1535 -1.7075
  727MOL0     H98137   2.348   4.753   5.465  0.7947 -0.1673 -1.5328
  727MOL0     H98138   2.417   4.603   5.534 -3.4471 -0.7928 -1.0782
  727MOL0     H98139   2.561   4.745   5.676 -0.0006  0.1940 -1.2420
  727MOL0     H98140   2.432   4.872   5.688 -0.3574  0.1107  0.3942
  727MOL0     H98141   2.639   4.838   5.471  0.4237 -3.4541  2.8380
  727MOL0     H98142   2.623   4.959   5.595 -1.4393 -0.8388  3.8709
  727MOL0     H98143   2.398   5.117   5.281 -1.6078 -0.7034 -0.0450
  727MOL0     H98144   2.028   4.579   5.753 -0.8757 -0.8974 -1.1335
  727MOL0     H98145   1.918   4.393   5.866  0.3027 -1.4870 -2.1547
  728MOL0     O98146   0.034   2.642  10.251 -0.3684  0.0915  0.4798
  728MOL0     C98147   0.092   2.742  10.282  0.4838  0.0576 -0.3936
  728MOL0     O98148   0.050   2.877  10.266  0.7762  0.1959  0.3111
  728MOL0     C98149  -0.077   2.908  10.230 -0.4432 -0.2549 -0.2064
  728MOL0     C98150  -0.137   3.017  10.297 -0.2237 -0.2625 -0.7354
  728MOL0     C98151  -0.255   3.063  10.253 -0.2757 -0.0918  0.0281
  728MOL0     C98152  -0.327   3.001  10.136  0.1876 -0.0254 -1.3577
  728MOL0     O98153  -0.453   3.042  10.098 -0.4419  0.7012 -0.9263
  728MOL0     C98154  -0.499   3.174  10.123  0.8495 -0.1885  0.4223
  728MOL0     C98155  -0.632   3.191  10.062 -0.4591 -0.1272 -0.3201
  728MOL0     C98156  -0.665   3.342  10.062 -0.0879 -0.2304  0.1729
  728MOL0     C98157  -0.784   3.384   9.988  0.8165  0.6582  0.1642
  728MOL0     C98158  -0.806   3.535  10.005  0.0084 -0.6518  0.2655
  728MOL0     C98159  -0.930   3.591   9.936 -0.0809 -0.3940  0.7040
  728MOL0     C98160  -0.930   3.558   9.782 -0.7451  0.1969 -0.0695
  728MOL0     C98161  -1.006   3.672   9.704  0.5966  0.5393  0.1751
  728MOL0     N98162  -1.153   3.670   9.738  0.0733  0.5160 -0.0789
  728MOL0     C98163  -1.238   3.565   9.733  0.2361 -0.0328 -0.2469
  728MOL0     C98164  -1.361   3.613   9.747  0.4538  0.0503  0.8590
  728MOL0     C98165  -1.487   3.545   9.747  0.4510  0.9415  1.0444
  728MOL0     C98166  -1.608   3.630   9.735 -0.1470 -0.2236  0.1427
  728MOL0     C98167  -1.735   3.541   9.714  0.3756  0.0799 -0.1251
  728MOL0     C98168  -1.867   3.622   9.694  0.0622 -1.3812 -0.4176
  728MOL0     O98169  -1.973   3.531   9.728 -0.5539  0.2610 -0.7198
  728MOL0     C98170  -2.095   3.545   9.674  1.0023  0.1346 -0.4730
  728MOL0     C98171  -2.180   3.431   9.686  0.2719 -0.9600 -0.6596
  728MOL0     C98172  -2.316   3.433   9.642  0.1444 -0.3148  0.5010
  728MOL0     C98173  -2.385   3.302   9.665 -0.3473 -0.0542  1.3066
  728MOL0     C98174  -2.364   3.549   9.578 -0.3141  0.3171 -0.1957
  728MOL0     C98175  -2.496   3.558   9.518 -0.4668 -0.7679 -0.0514
  728MOL0     O98176  -2.541   3.688   9.493  0.2075  0.0903 -0.1294
  728MOL0     C98177  -2.665   3.703   9.434  0.1503 -0.6279  0.1509
  728MOL0     C98178  -2.711   3.636   9.321 -0.9898  0.0401 -0.5990
  728MOL0     C98179  -2.832   3.667   9.266  0.3302  0.0680 -0.2053
  728MOL0     C98180  -2.924   3.749   9.340  0.0698  0.5608  0.1706
  728MOL0     O98181  -3.050   3.779   9.296 -0.0555 -0.3507 -0.0391
  728MOL0     C98182  -3.069   3.788   9.154  0.0554  0.1120 -1.0514
  728MOL0     C98183  -3.190   3.877   9.134  0.1730 -0.0500 -0.7156
  728MOL0     C98184  -3.323   3.799   9.165 -0.5206  0.3929 -0.9557
  728MOL0     C98185  -3.443   3.885   9.147  0.6440 -0.7104  0.0275
  728MOL0     C98186  -3.575   3.803   9.173  0.3531 -0.6638 -0.3753
  728MOL0     C98187  -3.698   3.882   9.150 -0.1500 -0.3599  0.4624
  728MOL0     C98188  -3.792   3.882   9.288  0.1959 -0.1764 -0.0351
  728MOL0     C98189  -3.931   3.939   9.248  0.4524  0.2309 -0.5320
  728MOL0    Cl98190  -4.034   3.951   9.391 -0.1011 -0.0147  0.1064
  728MOL0     C98191  -2.869   3.819   9.451 -1.3933  0.3640 -1.0235
  728MOL0     C98192  -2.744   3.794   9.505 -0.1863  0.3739 -0.0755
  728MOL0     O98193  -2.559   3.458   9.482  0.2626  0.4994  0.2858
  728MOL0     C98194  -2.270   3.658   9.555  0.0644  0.3099  0.4901
  728MOL0     C98195  -2.140   3.657   9.598 -0.2647  0.2986 -0.8122
  728MOL0     N98196  -1.349   3.748   9.739 -0.3350 -0.2451 -0.8535
  728MOL0     N98197  -1.228   3.779   9.741 -1.2063 -0.0467  0.8382
  728MOL0     C98198  -0.259   2.903  10.063  0.9129  0.2359  0.3637
  728MOL0     C98199  -0.141   2.846  10.116  0.4332 -0.2878  0.3647
  728MOL0     C98200   0.231   2.728  10.328 -0.0219 -0.5409 -0.5414
  728MOL0     C98201   0.300   2.606  10.327  0.5210 -0.1974 -0.5550
  728MOL0     C98202   0.436   2.593  10.333 -0.4721  0.2323 -0.5297
  728MOL0     C98203   0.512   2.713  10.356 -0.7916  0.5863  0.2462
  728MOL0     O98204   0.650   2.721  10.363 -0.2490 -0.6570  0.6692
  728MOL0     C98205   0.714   2.592  10.341  1.0634  0.5035  0.0608
  728MOL0     C98206   0.864   2.617  10.340 -0.5260  0.6609 -0.5877
  728MOL0     C98207   0.912   2.687  10.474 -0.2240 -0.1306 -0.0809
  728MOL0     C98208   0.894   2.603  10.608 -0.6630 -0.3545 -0.1645
  728MOL0     C98209   0.984   2.659  10.711 -0.4945  0.4147 -0.8660
  728MOL0     C98210   1.053   2.719  10.781  0.2220 -0.0306 -0.0849
  728MOL0     C98211   0.449   2.832  10.361 -0.0181 -0.5152  0.3334
  728MOL0     C98212   0.307   2.846  10.345 -0.1870  0.3244 -0.5325
  728MOL0     H98213  -0.088   3.067  10.380 -1.6080 -1.1534  0.6643
  728MOL0     H98214  -0.309   3.133  10.316  1.1642  2.6288 -1.5655
  728MOL0     H98215  -0.512   3.200  10.228  0.8758 -0.0463  0.3914
  728MOL0     H98216  -0.433   3.250  10.079  0.0303  0.2235 -0.1347
  728MOL0     H98217  -0.619   3.150   9.961 -1.5113  2.6899 -1.7214
  728MOL0     H98218  -0.704   3.148  10.133 -0.2308  1.3427  0.8457
  728MOL0     H98219  -0.678   3.365  10.168  1.0055  2.6242 -0.2138
  728MOL0     H98220  -0.580   3.399  10.023  1.2172 -2.6104 -0.6651
  728MOL0     H98221  -0.771   3.344   9.887  2.1617  0.8320  0.2552
  728MOL0     H98222  -0.877   3.344  10.030  0.8754  0.3847  0.0357
  728MOL0     H98223  -0.813   3.554  10.112 -1.2403  1.0392 -0.0824
  728MOL0     H98224  -0.720   3.591   9.967 -1.1140  2.2859  1.7289
  728MOL0     H98225  -1.009   3.532   9.983 -0.6061 -0.8245 -0.6821
  728MOL0     H98226  -0.962   3.692   9.962  3.1697  0.8380  0.3892
  728MOL0     H98227  -0.826   3.568   9.750 -0.6006  0.1052  0.3612
  728MOL0     H98228  -0.951   3.454   9.756 -0.3495  0.0720  0.0927
  728MOL0     H98229  -0.991   3.653   9.597  3.6784  0.9019  0.4645
  728MOL0     H98230  -0.950   3.763   9.726  0.2903  0.4511  1.4027
  728MOL0     H98231  -1.211   3.460   9.726  0.8325  0.0161  0.9685
  728MOL0     H98232  -1.480   3.479   9.660 -1.4481 -1.3466  2.5295
  728MOL0     H98233  -1.496   3.480   9.834 -3.1787 -2.0244 -1.2219
  728MOL0     H98234  -1.613   3.709   9.660 -3.5794 -0.5851 -0.2003
  728MOL0     H98235  -1.620   3.681   9.831  1.7723  1.3364 -0.3878
  728MOL0     H98236  -1.740   3.476   9.801 -0.2329  1.0604  0.5933
  728MOL0     H98237  -1.731   3.474   9.627 -1.0426 -0.9852  0.5947
  728MOL0     H98238  -1.872   3.637   9.585  0.1741  1.0317 -0.1504
  728MOL0     H98239  -1.863   3.715   9.751  0.9730 -1.4896 -0.2791
  728MOL0     H98240  -2.130   3.350   9.739  2.7635  1.4633  0.9697
  728MOL0     H98241  -2.326   3.240   9.733  0.2559 -2.0951 -0.9280
  728MOL0     H98242  -2.485   3.322   9.704 -0.8981 -1.3337  0.5950
  728MOL0     H98243  -2.392   3.263   9.563  1.9419  1.9747  0.2480
  728MOL0     H98244  -2.648   3.560   9.276 -0.9623 -0.7530  0.7289
  728MOL0     H98245  -2.864   3.614   9.177 -1.4111  4.3754 -2.4602
  728MOL0     H98246  -2.975   3.832   9.120  1.1184 -1.0713  0.2575
  728MOL0     H98247  -3.084   3.693   9.102  0.1810 -1.8401  2.2156
  728MOL0     H98248  -3.165   3.958   9.203  1.5924 -0.2490 -0.9602
  728MOL0     H98249  -3.200   3.927   9.038  0.9517 -0.8393 -1.2187
  728MOL0     H98250  -3.316   3.771   9.271 -0.0574  2.2744 -0.4363
  728MOL0     H98251  -3.335   3.706   9.110 -1.7944  0.4179 -0.7350
  728MOL0     H98252  -3.442   3.963   9.224 -1.4794  0.9764 -1.5090
  728MOL0     H98253  -3.449   3.938   9.052 -4.3654 -2.2017 -0.8338
  728MOL0     H98254  -3.577   3.764   9.275  0.1382 -0.0515 -0.1400
  728MOL0     H98255  -3.573   3.719   9.102  1.8005  0.1232 -1.3250
  728MOL0     H98256  -3.687   3.983   9.110  0.4468 -0.6771 -0.2022
  728MOL0     H98257  -3.761   3.825   9.081  1.1910 -1.3396 -0.0075
  728MOL0     H98258  -3.743   3.948   9.360 -0.5055  0.5251 -0.1920
  728MOL0     H98259  -3.796   3.779   9.325 -0.5762 -0.3321 -0.5339
  728MOL0     H98260  -3.983   3.884   9.169 -0.5818  1.7921 -1.0004
  728MOL0     H98261  -3.920   4.041   9.210 -2.2082  0.9894  0.5186
  728MOL0     H98262  -2.936   3.883   9.508 -1.9855  0.8962 -2.2601
  728MOL0     H98263  -2.705   3.835   9.597  1.9466 -3.2226  0.8223
  728MOL0     H98264  -2.309   3.737   9.492 -0.4940 -2.9456 -3.7057
  728MOL0     H98265  -2.070   3.736   9.574  0.5927  0.5971  2.3241
  728MOL0     H98266  -0.325   2.867   9.985 -1.9751  0.2831  2.6163
  728MOL0     H98267  -0.102   2.757  10.068  0.0569 -0.6148  0.6593
  728MOL0     H98268   0.247   2.516  10.302  1.6827 -0.9792 -0.2886
  728MOL0     H98269   0.466   2.490  10.343 -0.0004  0.5820  3.9996
  728MOL0     H98270   0.689   2.512  10.411 -0.0305  0.7167 -0.0702
  728MOL0     H98271   0.687   2.548  10.244  2.5095 -1.1024  0.3252
  728MOL0     H98272   0.900   2.670  10.251  2.9254  0.8760  0.7909
  728MOL0     H98273   0.913   2.519  10.337 -2.3010 -0.2553 -1.9471
  728MOL0     H98274   0.859   2.782  10.484  0.6154  0.4097 -0.5560
  728MOL0     H98275   1.021   2.701  10.465  0.4140 -1.4380  3.7083
  728MOL0     H98276   0.935   2.502  10.598  0.0817  0.0766 -1.7957
  728MOL0     H98277   0.795   2.584  10.651 -0.6357 -0.6327 -0.2209
  728MOL0     H98278   1.119   2.772  10.847  1.5503  0.7582 -1.9608
  728MOL0     H98279   0.518   2.915  10.371  2.3811 -1.9234 -2.7423
  728MOL0     H98280   0.257   2.942  10.345  1.8683  1.4599 -1.0434
  729MOL0     O98281   5.030   2.241   0.150  0.4683  1.1042 -0.1742
  729MOL0     C98282   5.001   2.237   0.269  0.0593  0.5655  0.3771
  729MOL0     O98283   4.876   2.220   0.329 -1.0344  0.0552 -0.3185
  729MOL0     C98284   4.778   2.182   0.248 -1.2348  0.0603  0.3890
  729MOL0     C98285   4.689   2.082   0.291 -0.1651 -0.5722 -0.6180
  729MOL0     C98286   4.562   2.068   0.230 -0.2748  0.2952 -0.4765
  729MOL0     C98287   4.522   2.151   0.124  0.1757  0.6798  0.4920
  729MOL0     O98288   4.395   2.159   0.069  0.7917  0.3575 -0.0477
  729MOL0     C98289   4.289   2.079   0.123 -0.2031  0.0136 -0.4533
  729MOL0     C98290   4.178   2.051   0.015 -0.2530  0.1579 -0.9851
  729MOL0     C98291   4.086   1.947   0.071 -0.1903 -0.0814 -0.1026
  729MOL0     C98292   3.960   1.944  -0.013  0.2101  0.0029 -0.2764
  729MOL0     C98293   3.850   1.861   0.054 -0.3797  0.2567  0.2031
  729MOL0     C98294   3.724   1.848  -0.039 -0.2263  0.1177  0.0021
  729MOL0     C98295   3.754   1.784  -0.177  0.6274 -0.2315 -0.1836
  729MOL0     C98296   3.626   1.758  -0.259 -0.2261 -0.4682  0.3613
  729MOL0     N98297   3.540   1.660  -0.201 -0.3811  0.2304 -0.6246
  729MOL0     C98298   3.557   1.529  -0.228 -0.0028  0.3700 -0.2773
  729MOL0     C98299   3.434   1.475  -0.191 -0.3320  1.1068 -1.1011
  729MOL0     C98300   3.380   1.339  -0.210  0.0609  0.1381  0.5022
  729MOL0     C98301   3.485   1.223  -0.196 -0.1892 -1.1738  0.2282
  729MOL0     C98302   3.552   1.207  -0.054  0.6318 -0.3097 -0.5869
  729MOL0     C98303   3.700   1.159  -0.073  0.5951  0.0129 -0.3560
  729MOL0     O98304   3.785   1.268  -0.104  0.1820  0.0024  0.2851
  729MOL0     C98305   3.899   1.250  -0.170 -0.3572 -1.0057  0.1215
  729MOL0     C98306   3.966   1.369  -0.205 -0.2102  0.7176  0.4493
  729MOL0     C98307   4.101   1.367  -0.248  0.1952  0.0039 -0.4321
  729MOL0     C98308   4.145   1.503  -0.277  0.1700  0.1044  0.4865
  729MOL0     C98309   4.173   1.244  -0.259  0.2228 -0.0279 -0.6537
  729MOL0     C98310   4.323   1.239  -0.287 -0.7684 -0.0077  0.1082
  729MOL0     O98311   4.378   1.358  -0.299  0.0298 -0.1312 -0.7355
  729MOL0     C98312   4.506   1.358  -0.345 -0.0556 -0.4926 -0.0387
  729MOL0     C98313   4.522   1.334  -0.478 -0.0893  0.3125  0.9098
  729MOL0     C98314   4.647   1.336  -0.536  0.0080  1.0881  0.1782
  729MOL0     C98315   4.757   1.365  -0.453  0.3203 -0.2914 -0.4709
  729MOL0     O98316   4.885   1.365  -0.495  0.2798  0.2633 -0.1889
  729MOL0     C98317   4.910   1.426  -0.625  0.7099  0.0510 -0.2229
  729MOL0     C98318   5.058   1.429  -0.681  0.1881  0.4837  0.0939
  729MOL0     C98319   5.164   1.490  -0.597 -0.5214  0.0763 -0.0679
  729MOL0     C98320   5.300   1.502  -0.667 -0.3870  0.6610 -0.2065
  729MOL0     C98321   5.387   1.577  -0.585 -0.6183 -0.7896  0.7322
  729MOL0     C98322   5.524   1.585  -0.643 -0.3476 -0.3158 -0.6665
  729MOL0     C98323   5.607   1.687  -0.562  1.0504  0.2493 -0.3947
  729MOL0     C98324   5.753   1.694  -0.601 -0.1643  0.2945  0.0867
  729MOL0    Cl98325   5.853   1.776  -0.475 -0.0081  0.3490 -0.1219
  729MOL0     C98326   4.743   1.404  -0.318 -0.1379 -0.1769  0.5271
  729MOL0     C98327   4.617   1.392  -0.262  0.3905  0.2820 -0.1275
  729MOL0     O98328   4.387   1.130  -0.282  0.0209 -0.3014  0.5131
  729MOL0     C98329   4.093   1.131  -0.245 -0.5941  1.2087  0.7513
  729MOL0     C98330   3.969   1.128  -0.195  0.2278 -0.2448 -0.1662
  729MOL0     N98331   3.363   1.566  -0.127  1.8186 -0.1929  0.8059
  729MOL0     N98332   3.423   1.683  -0.136  0.2908 -0.3460  0.3243
  729MOL0     C98333   4.616   2.247   0.078 -0.0799  0.9478  0.3058
  729MOL0     C98334   4.745   2.255   0.136  0.0091 -0.8726 -0.2171
  729MOL0     C98335   5.117   2.259   0.361  0.8013  0.2474 -0.6028
  729MOL0     C98336   5.101   2.258   0.496 -0.0967 -0.2390 -0.1922
  729MOL0     C98337   5.202   2.273   0.594  0.1763  0.1397 -0.2648
  729MOL0     C98338   5.329   2.301   0.548 -0.5457  0.6743  0.3834
  729MOL0     O98339   5.427   2.319   0.642  0.2828 -0.3937  0.4787
  729MOL0     C98340   5.563   2.355   0.602 -0.3505  0.2498  0.0717
  729MOL0     C98341   5.673   2.360   0.713 -0.1142  0.1686  0.3043
  729MOL0     C98342   5.703   2.229   0.786  0.2960  1.0281 -0.3307
  729MOL0     C98343   5.825   2.231   0.885 -0.0424  0.3824  0.1369
  729MOL0     C98344   5.957   2.244   0.827 -0.1771  1.1022 -0.6945
  729MOL0     C98345   6.065   2.263   0.782  0.2043  0.2507  0.2525
  729MOL0     C98346   5.355   2.286   0.411  0.4982 -0.5291 -0.3015
  729MOL0     C98347   5.248   2.275   0.317 -0.5073  0.9405 -0.2472
  729MOL0     H98348   4.710   2.020   0.378  1.5235 -1.5639 -1.6598
  729MOL0     H98349   4.500   1.990   0.272  2.9155 -0.7919  2.7109
  729MOL0     H98350   4.324   1.983   0.161 -0.1023 -0.1443 -0.9392
  729MOL0     H98351   4.247   2.140   0.204 -0.7219  0.6366 -1.1804
  729MOL0     H98352   4.118   2.139  -0.012 -1.5160 -0.0527  0.8953
  729MOL0     H98353   4.228   2.024  -0.078 -1.5584 -0.6226 -1.4901
  729MOL0     H98354   4.124   1.844   0.066 -0.2421 -0.2613  2.3443
  729MOL0     H98355   4.068   1.971   0.176  0.7250 -1.3275  0.3696
  729MOL0     H98356   3.920   2.046  -0.019 -0.5743 -0.2928 -0.2046
  729MOL0     H98357   3.975   1.904  -0.113 -2.3313 -1.4992 -0.1412
  729MOL0     H98358   3.879   1.757   0.066 -2.2321 -0.2572  0.5068
  729MOL0     H98359   3.828   1.900   0.154 -1.1007 -1.7981  0.9015
  729MOL0     H98360   3.665   1.771   0.012  1.6103 -0.3833  1.4840
  729MOL0     H98361   3.671   1.942  -0.056 -0.5639 -0.1272 -0.3322
  729MOL0     H98362   3.827   1.837  -0.239  1.3071 -0.2336  0.6042
  729MOL0     H98363   3.797   1.687  -0.153  1.2725 -0.0746 -0.6813
  729MOL0     H98364   3.659   1.719  -0.356  0.1947  0.6829  0.0298
  729MOL0     H98365   3.570   1.851  -0.273  0.9885  0.7354  2.8309
  729MOL0     H98366   3.644   1.484  -0.275  0.2639 -1.7879  2.0877
  729MOL0     H98367   3.295   1.325  -0.144 -0.6343 -1.9496 -0.7448
  729MOL0     H98368   3.354   1.328  -0.316  3.2843 -2.0990 -0.2041
  729MOL0     H98369   3.562   1.223  -0.273 -1.5395  0.3268 -1.2101
  729MOL0     H98370   3.429   1.130  -0.211 -1.1681 -0.4347 -0.8067
  729MOL0     H98371   3.510   1.125   0.005 -1.3966 -0.5237 -2.1859
  729MOL0     H98372   3.548   1.303  -0.003 -0.0396  0.0729 -1.3334
  729MOL0     H98373   3.706   1.089  -0.157  0.8366  1.0813 -1.2506
  729MOL0     H98374   3.726   1.116   0.025  3.0152  2.1490  0.0328
  729MOL0     H98375   3.909   1.461  -0.195 -2.0403 -0.0232 -2.0361
  729MOL0     H98376   4.176   1.499  -0.382  1.2818 -1.4285  0.8383
  729MOL0     H98377   4.067   1.580  -0.272  1.8988  2.0247 -0.5552
  729MOL0     H98378   4.227   1.527  -0.209 -0.9463  1.2221  1.4911
  729MOL0     H98379   4.440   1.313  -0.546  0.9202  1.3775 -0.7100
  729MOL0     H98380   4.657   1.313  -0.642 -1.7985 -0.1043  0.2197
  729MOL0     H98381   4.851   1.381  -0.705  2.2351 -2.3861 -0.0851
  729MOL0     H98382   4.882   1.531  -0.617 -1.6616 -0.4512 -1.1611
  729MOL0     H98383   5.093   1.327  -0.696  2.8856  1.5313 -1.6154
  729MOL0     H98384   5.055   1.461  -0.786  0.4231  1.3779  0.3481
  729MOL0     H98385   5.181   1.423  -0.512 -1.4922  0.1880  0.2256
  729MOL0     H98386   5.141   1.591  -0.561 -0.1827  0.1988 -0.1914
  729MOL0     H98387   5.350   1.407  -0.686  0.6123  0.7100  1.8383
  729MOL0     H98388   5.299   1.552  -0.764 -0.0368 -1.3233 -1.2860
  729MOL0     H98389   5.381   1.535  -0.484 -1.9256 -2.4927  0.0000
  729MOL0     H98390   5.350   1.680  -0.589 -0.4352 -0.6670  1.8474
  729MOL0     H98391   5.587   1.496  -0.650 -0.8332 -0.9377  1.8589
  729MOL0     H98392   5.510   1.634  -0.740 -2.6598  2.4655  0.9359
  729MOL0     H98393   5.605   1.646  -0.460  1.0284 -0.1558 -0.5559
  729MOL0     H98394   5.563   1.787  -0.565  0.3195 -0.0735 -2.4318
  729MOL0     H98395   5.769   1.750  -0.693 -1.4710 -0.5758 -0.7038
  729MOL0     H98396   5.795   1.595  -0.620  2.1381  1.6079 -2.2124
  729MOL0     H98397   4.825   1.422  -0.249 -0.6134  0.6258  0.8962
  729MOL0     H98398   4.602   1.406  -0.155  0.6406  2.8207 -0.3758
  729MOL0     H98399   4.142   1.034  -0.259 -0.9655  0.7157  2.5794
  729MOL0     H98400   3.923   1.031  -0.182 -0.2708  0.2197  1.9084
  729MOL0     H98401   4.581   2.314   0.001  0.5222  3.0998  1.8132
  729MOL0     H98402   4.811   2.333   0.100 -0.0454  0.7125  2.8050
  729MOL0     H98403   5.001   2.242   0.535 -0.9755  2.7508 -0.9338
  729MOL0     H98404   5.174   2.266   0.699  1.0629  0.6454  0.0159
  729MOL0     H98405   5.606   2.284   0.531  1.8221 -0.0726  1.6041
  729MOL0     H98406   5.564   2.450   0.547  0.8413 -1.1983 -2.6432
  729MOL0     H98407   5.637   2.436   0.783  2.2598  3.5727 -1.8298
  729MOL0     H98408   5.761   2.412   0.673 -1.4763  1.4761 -1.1473
  729MOL0     H98409   5.716   2.151   0.711  2.0947 -0.5934  1.5347
  729MOL0     H98410   5.619   2.204   0.850 -0.0630  1.1560 -0.7511
  729MOL0     H98411   5.830   2.136   0.941  0.8650  0.2819 -0.1013
  729MOL0     H98412   5.808   2.310   0.959  0.3503  1.0322 -0.4550
  729MOL0     H98413   6.160   2.294   0.742 -0.1204  1.6811  0.5421
  729MOL0     H98414   5.458   2.304   0.382  0.4385  1.8345  0.6858
  729MOL0     H98415   5.273   2.264   0.212  1.7095  1.4448  0.1791
  730MOL0     O98416   2.512   5.167   1.733 -0.7522 -0.8693 -0.4912
  730MOL0     C98417   2.520   5.212   1.846  0.8124 -0.8793 -0.5430
  730MOL0     O98418   2.404   5.233   1.923  0.4759  0.0200 -0.7608
  730MOL0     C98419   2.279   5.209   1.866 -0.5406  0.1718 -0.3396
  730MOL0     C98420   2.222   5.293   1.775 -0.0078  0.5619  0.4437
  730MOL0     C98421   2.089   5.263   1.724 -0.0230  0.0708  0.4121
  730MOL0     C98422   2.021   5.146   1.774  0.5171 -0.6730 -0.4423
  730MOL0     O98423   1.889   5.109   1.738 -0.8631  0.3794  0.1559
  730MOL0     C98424   1.818   5.194   1.644 -0.1321 -0.8533 -1.2554
  730MOL0     C98425   1.696   5.119   1.603 -0.4795 -0.6875  0.0058
  730MOL0     C98426   1.594   5.101   1.716  0.3871 -0.5006  0.4315
  730MOL0     C98427   1.463   5.035   1.663  0.7941  0.4106  0.0711
  730MOL0     C98428   1.379   5.119   1.557 -0.2085  0.3460 -0.5649
  730MOL0     C98429   1.254   5.050   1.499  0.3825  0.5197 -0.3628
  730MOL0     C98430   1.154   4.986   1.599 -0.0781  0.3241  0.6570
  730MOL0     C98431   1.019   4.945   1.531 -0.6801 -0.3621  0.1100
  730MOL0     N98432   0.927   4.876   1.619  0.4907  0.0005  0.3691
  730MOL0     C98433   0.892   4.917   1.748 -0.2142 -0.1786 -0.4838
  730MOL0     C98434   0.781   4.845   1.772  0.5211  0.3471 -0.1052
  730MOL0     C98435   0.697   4.876   1.897  0.3724 -0.7820  1.3146
  730MOL0     C98436   0.548   4.860   1.877  0.2645  0.1737 -0.8000
  730MOL0     C98437   0.479   4.934   1.999  0.5910 -0.0009  0.9310
  730MOL0     C98438   0.338   4.887   2.036  0.4637 -0.5048  0.3170
  730MOL0     O98439   0.247   4.948   1.939 -0.0299  0.3933 -0.1816
  730MOL0     C98440   0.115   4.947   1.983  0.1157  0.3272  0.1610
  730MOL0     C98441   0.051   4.890   2.097  0.4270  0.3412 -0.6380
  730MOL0     C98442  -0.085   4.906   2.125  0.1231 -0.7396  0.3839
  730MOL0     C98443  -0.141   4.841   2.247 -0.1582  0.0830  0.1321
  730MOL0     C98444  -0.162   4.991   2.044 -0.1461 -0.6347 -0.7737
  730MOL0     C98445  -0.312   5.017   2.051 -0.1393  0.2185  0.3223
  730MOL0     O98446  -0.359   5.122   1.975  0.5962 -0.2005 -0.0483
  730MOL0     C98447  -0.486   5.123   1.924 -0.6573  0.8393 -0.1041
  730MOL0     C98448  -0.518   5.234   1.852  0.8673  0.2019 -0.1699
  730MOL0     C98449  -0.633   5.229   1.771  0.3495 -0.7752 -1.0287
  730MOL0     C98450  -0.725   5.121   1.760 -0.4823  0.8113 -0.5876
  730MOL0     O98451  -0.844   5.144   1.688 -0.2314  0.3802 -0.2127
  730MOL0     C98452  -0.911   5.033   1.624 -0.2128 -0.4939 -0.6941
  730MOL0     C98453  -1.041   5.074   1.559 -0.2990 -0.9999  0.6548
  730MOL0     C98454  -1.027   5.205   1.474 -0.1653  0.8028 -0.5660
  730MOL0     C98455  -0.905   5.215   1.375  0.2351 -0.2066  0.5392
  730MOL0     C98456  -0.913   5.107   1.270 -0.1010 -0.4165 -0.4743
  730MOL0     C98457  -0.786   5.115   1.189 -0.1176 -0.3447  0.2676
  730MOL0     C98458  -0.808   5.030   1.069 -0.0498 -0.0301  0.2386
  730MOL0     C98459  -0.694   5.028   0.973  0.0052  0.2875 -0.5741
  730MOL0    Cl98460  -0.546   4.967   1.046 -0.3670  0.2043  0.0746
  730MOL0     C98461  -0.684   5.003   1.826 -0.1721  0.9356  0.2083
  730MOL0     C98462  -0.579   5.008   1.923  0.5803  0.3781  0.6382
  730MOL0     O98463  -0.382   4.954   2.131 -0.5951  0.1286  0.3152
  730MOL0     C98464  -0.102   5.053   1.932 -1.1702 -0.4221 -0.3452
  730MOL0     C98465   0.032   5.032   1.908  0.1932 -0.9179  0.4709
  730MOL0     N98466   0.751   4.757   1.669  0.1622  0.2647 -0.4688
  730MOL0     N98467   0.838   4.781   1.575  0.2987  0.0209  0.9509
  730MOL0     C98468   2.075   5.065   1.881 -0.5828 -0.1107 -0.6352
  730MOL0     C98469   2.207   5.099   1.926  0.3608  0.3906 -0.6421
  730MOL0     C98470   2.652   5.257   1.899 -0.2781 -0.2404 -0.5720
  730MOL0     C98471   2.768   5.242   1.817 -1.0709  0.2847  1.0439
  730MOL0     C98472   2.889   5.280   1.876  0.5849  0.8391 -0.5921
  730MOL0     C98473   2.895   5.352   2.001 -0.5637  0.7646  0.0696
  730MOL0     O98474   3.022   5.390   2.033  0.2224  0.2261  0.9583
  730MOL0     C98475   3.036   5.459   2.152 -0.0015 -0.5608 -0.3321
  730MOL0     C98476   3.183   5.512   2.157 -0.0523  0.2313  0.3089
  730MOL0     C98477   3.190   5.613   2.281 -0.1113 -0.9787 -0.3512
  730MOL0     C98478   3.280   5.728   2.241  0.4656 -0.0449 -0.9167
  730MOL0     C98479   3.283   5.830   2.347  0.0173 -0.2170  0.3994
  730MOL0     C98480   3.292   5.900   2.447 -0.0044  1.2569  0.1018
  730MOL0     C98481   2.771   5.382   2.069 -0.3991  0.8470  0.4291
  730MOL0     C98482   2.653   5.334   2.016 -0.0270 -0.2508 -0.3810
  730MOL0     H98483   2.273   5.382   1.739 -1.1323  1.3794  0.8103
  730MOL0     H98484   2.044   5.330   1.651 -0.3882 -0.1757  0.4029
  730MOL0     H98485   1.788   5.286   1.694  0.8240 -0.0469 -2.1393
  730MOL0     H98486   1.877   5.216   1.554  0.7143  1.9839 -0.1032
  730MOL0     H98487   1.648   5.175   1.522  0.0674  1.5835  1.1660
  730MOL0     H98488   1.723   5.020   1.567  1.8956 -0.3928  0.8253
  730MOL0     H98489   1.641   5.029   1.783  2.1159  1.4147  1.4001
  730MOL0     H98490   1.568   5.195   1.766  3.0218  0.0142  0.9498
  730MOL0     H98491   1.487   4.937   1.619 -0.0792 -0.0596  0.6103
  730MOL0     H98492   1.386   5.020   1.739  0.3446 -1.2345 -0.6567
  730MOL0     H98493   1.357   5.214   1.606  1.7839  0.9491 -0.7459
  730MOL0     H98494   1.439   5.151   1.471  2.0314 -1.4506  0.2224
  730MOL0     H98495   1.203   5.128   1.442 -0.7056 -0.1098 -0.2986
  730MOL0     H98496   1.279   4.972   1.426  1.1134 -0.0766  0.5027
  730MOL0     H98497   1.197   4.893   1.638  1.5195  0.0557 -1.5385
  730MOL0     H98498   1.126   5.058   1.677  0.3423  1.7890 -0.4975
  730MOL0     H98499   1.037   4.873   1.451 -1.7287  0.3086 -0.7454
  730MOL0     H98500   0.972   5.040   1.504  2.3069  1.2437  0.0513
  730MOL0     H98501   0.919   5.001   1.812 -1.3206  0.4195 -0.7701
  730MOL0     H98502   0.737   4.808   1.972  2.9644 -1.9868 -0.9842
  730MOL0     H98503   0.731   4.976   1.926  1.1748 -0.5785 -0.2365
  730MOL0     H98504   0.510   4.757   1.872  0.8412 -0.2968  2.4408
  730MOL0     H98505   0.523   4.909   1.783  0.9123  0.7035 -0.6986
  730MOL0     H98506   0.475   5.041   1.974 -0.8996 -0.3146 -0.3875
  730MOL0     H98507   0.544   4.922   2.086  0.0691 -2.1284  1.0715
  730MOL0     H98508   0.317   4.912   2.140  2.0129 -1.9093  1.0010
  730MOL0     H98509   0.334   4.778   2.038  3.1624 -0.6609  2.0042
  730MOL0     H98510   0.108   4.829   2.166  0.2734  2.4911  1.4916
  730MOL0     H98511  -0.066   4.806   2.320 -0.4140  0.2720  0.4883
  730MOL0     H98512  -0.203   4.908   2.306 -0.1132 -1.0627  1.5345
  730MOL0     H98513  -0.194   4.750   2.217 -0.8627 -0.4468  2.7291
  730MOL0     H98514  -0.444   5.311   1.834  1.3620 -0.2004  0.1312
  730MOL0     H98515  -0.647   5.320   1.713 -0.7667  0.6162  1.2724
  730MOL0     H98516  -0.833   4.986   1.564  4.4288  1.7789  2.9283
  730MOL0     H98517  -0.949   4.960   1.697 -1.4780  0.5660 -0.2517
  730MOL0     H98518  -1.074   4.987   1.500 -0.5339  0.2190 -1.0866
  730MOL0     H98519  -1.107   5.102   1.642 -1.3442 -3.1467  0.6300
  730MOL0     H98520  -1.024   5.292   1.540 -0.8399  1.1400 -0.9620
  730MOL0     H98521  -1.121   5.208   1.417  0.7518 -1.7334 -2.4317
  730MOL0     H98522  -0.900   5.315   1.332  0.6426 -0.3309  0.2862
  730MOL0     H98523  -0.810   5.204   1.428  2.1901  0.9979 -2.4720
  730MOL0     H98524  -1.001   5.127   1.208 -0.4105  1.5067  0.4906
  730MOL0     H98525  -0.927   5.006   1.309 -0.8713 -0.8454 -1.8254
  730MOL0     H98526  -0.768   5.216   1.149  0.3175 -0.9067 -1.0137
  730MOL0     H98527  -0.695   5.081   1.239  1.0284  1.9216 -0.1500
  730MOL0     H98528  -0.905   5.048   1.021  0.7257  2.3199 -0.5713
  730MOL0     H98529  -0.814   4.927   1.105  0.8997 -0.6366 -1.2690
  730MOL0     H98530  -0.669   5.128   0.937  1.9526 -0.0454 -0.2731
  730MOL0     H98531  -0.738   4.967   0.893 -2.2194 -0.3534  1.0433
  730MOL0     H98532  -0.745   4.914   1.815 -2.9360  2.5657  1.4449
  730MOL0     H98533  -0.562   4.925   1.991 -3.9047 -0.9051  0.5170
  730MOL0     H98534  -0.156   5.126   1.873 -0.5348 -1.1359 -1.8859
  730MOL0     H98535   0.076   5.086   1.825  3.3095  0.3541  2.7435
  730MOL0     H98536   2.018   4.982   1.919  2.7910 -2.8922 -1.1813
  730MOL0     H98537   2.248   5.034   2.004 -3.3515 -0.6287  0.6735
  730MOL0     H98538   2.766   5.193   1.721 -2.6054  0.9573  0.6953
  730MOL0     H98539   2.974   5.271   1.809  0.0414 -0.5625 -1.1154
  730MOL0     H98540   2.967   5.544   2.163  2.3809  1.4043  0.3158
  730MOL0     H98541   3.016   5.392   2.236  1.5853  1.0606  1.4415
  730MOL0     H98542   3.190   5.569   2.064  1.1345  1.2811  0.9936
  730MOL0     H98543   3.255   5.430   2.162  2.2409  2.1527  0.7484
  730MOL0     H98544   3.228   5.558   2.367 -1.8719  0.1411  1.2071
  730MOL0     H98545   3.089   5.644   2.307  0.3888  0.8547 -0.4584
  730MOL0     H98546   3.247   5.765   2.143 -0.5507 -0.6386 -0.8100
  730MOL0     H98547   3.384   5.696   2.227 -0.4962 -2.2476 -4.0558
  730MOL0     H98548   3.272   5.953   2.538  2.1607 -0.8049  1.9002
  730MOL0     H98549   2.776   5.437   2.162  0.5659 -0.6789  1.3236
  730MOL0     H98550   2.558   5.355   2.063  0.3218  1.6737 -0.4700
  731MOL0     O98551  11.157   1.715  10.976 -0.2315  0.1337  0.6293
  731MOL0     C98552  11.205   1.633  10.893 -0.2922 -0.4789 -1.0137
  731MOL0     O98553  11.127   1.569  10.800 -0.2879 -0.5198  0.4899
  731MOL0     C98554  10.987   1.595  10.806  0.0982 -0.0792  0.7871
  731MOL0     C98555  10.922   1.638  10.687  0.6390  1.0354 -0.2873
  731MOL0     C98556  10.780   1.661  10.690  0.4293 -0.4845 -0.8757
  731MOL0     C98557  10.706   1.642  10.812 -0.4781 -0.4592  0.1823
  731MOL0     O98558  10.576   1.686  10.809 -0.4751  0.4421 -0.1683
  731MOL0     C98559  10.487   1.577  10.770 -0.3563 -0.3302 -0.2536
  731MOL0     C98560  10.345   1.626  10.797 -0.8782 -0.1155  0.0076
  731MOL0     C98561  10.321   1.618  10.942  0.6157 -0.1991 -0.6130
  731MOL0     C98562  10.168   1.630  10.961 -0.2720  0.0522 -0.2045
  731MOL0     C98563  10.128   1.627  11.113  0.9496 -0.1878  0.3056
  731MOL0     C98564   9.974   1.608  11.121  0.2194 -0.2439 -0.2597
  731MOL0     C98565   9.922   1.586  11.253 -0.1422 -0.4396 -0.0986
  731MOL0     C98566   9.940   1.703  11.348 -0.1248  0.6329 -0.1858
  731MOL0     N98567   9.821   1.790  11.350 -0.6532 -0.4607 -0.3019
  731MOL0     C98568   9.703   1.791  11.278  0.6950  0.0263 -0.2382
  731MOL0     C98569   9.620   1.871  11.340  0.2795  0.2372  0.3921
  731MOL0     C98570   9.491   1.911  11.275 -0.2688 -0.2187  0.2634
  731MOL0     C98571   9.381   1.817  11.322 -0.6956  0.5267 -0.1576
  731MOL0     C98572   9.250   1.869  11.272  0.6565 -0.4960  0.2285
  731MOL0     C98573   9.122   1.799  11.325 -0.0875 -0.5223  0.3551
  731MOL0     O98574   9.086   1.876  11.441  0.3909 -0.0018  0.0104
  731MOL0     C98575   8.965   1.938  11.463  0.5812  0.1432  0.0857
  731MOL0     C98576   8.944   1.990  11.591  0.5767 -0.2491 -0.9169
  731MOL0     C98577   8.838   2.078  11.621  0.2743 -0.4213  0.5159
  731MOL0     C98578   8.831   2.129  11.757 -0.0022 -0.5441  0.7370
  731MOL0     C98579   8.746   2.114  11.516 -0.3777  0.0392 -0.4500
  731MOL0     C98580   8.648   2.223  11.530 -0.0811  0.1163  0.5242
  731MOL0     O98581   8.599   2.266  11.407 -0.4377  0.5803  0.6487
  731MOL0     C98582   8.471   2.320  11.394 -0.0695 -0.2362  0.5037
  731MOL0     C98583   8.371   2.261  11.460  0.2517  0.5739 -0.4723
  731MOL0     C98584   8.238   2.313  11.458  0.1558  0.0138  0.8072
  731MOL0     C98585   8.214   2.422  11.377 -0.1603  0.0590  0.8415
  731MOL0     O98586   8.093   2.480  11.352  0.2987 -0.4874  0.0693
  731MOL0     C98587   7.980   2.398  11.354 -0.5215 -0.3100  0.5203
  731MOL0     C98588   7.886   2.444  11.236 -0.1802  1.0851 -0.7700
  731MOL0     C98589   7.743   2.379  11.257  0.8037  0.1181 -0.9038
  731MOL0     C98590   7.669   2.390  11.122 -0.4477  0.1708 -0.3620
  731MOL0     C98591   7.525   2.333  11.119  0.0383  0.3739 -0.4451
  731MOL0     C98592   7.437   2.428  11.200  0.2915  0.2927 -0.5967
  731MOL0     C98593   7.291   2.387  11.183 -0.0126  0.7825 -0.5601
  731MOL0     C98594   7.201   2.504  11.217  0.2402  0.2218 -0.6933
  731MOL0    Cl98595   7.212   2.532  11.394 -0.0126  0.5178  0.0069
  731MOL0     C98596   8.319   2.484  11.304  1.1783  0.7552 -0.2403
  731MOL0     C98597   8.443   2.437  11.323 -0.2295 -0.5634  0.1924
  731MOL0     O98598   8.606   2.253  11.640  1.4931 -0.1125  0.2207
  731MOL0     C98599   8.755   2.049  11.389 -0.4564  0.0667 -0.6578
  731MOL0     C98600   8.861   1.958  11.371 -0.0561 -0.3444  0.2607
  731MOL0     N98601   9.683   1.928  11.444 -0.6067  0.4467  0.0421
  731MOL0     N98602   9.804   1.881  11.447  0.2521  0.0306  0.4478
  731MOL0     C98603  10.771   1.597  10.925 -0.9161  0.6595 -0.6633
  731MOL0     C98604  10.910   1.580  10.924 -0.1840 -0.0903 -0.5968
  731MOL0     C98605  11.360   1.604  10.897 -0.6303 -0.7849  0.7875
  731MOL0     C98606  11.409   1.514  10.801 -0.1222  1.0063  0.0833
  731MOL0     C98607  11.547   1.488  10.810  0.1710  0.4378 -0.6488
  731MOL0     C98608  11.634   1.538  10.901  0.3404 -0.0564 -0.3656
  731MOL0     O98609  11.765   1.489  10.895  0.6948  0.3965  0.7036
  731MOL0     C98610  11.871   1.550  10.959 -0.0156 -0.7266 -0.1353
  731MOL0     C98611  11.943   1.449  11.046 -0.0319  0.2599  0.2000
  731MOL0     C98612  12.035   1.360  10.982 -0.8605  1.5624 -0.1443
  731MOL0     C98613  11.959   1.241  10.917  0.9011 -0.3502  0.2911
  731MOL0     C98614  12.054   1.178  10.815 -0.0331 -0.0033  0.8321
  731MOL0     C98615  12.144   1.141  10.740  0.2492 -0.1957 -0.0266
  731MOL0     C98616  11.582   1.635  10.992 -0.5062  0.2737  0.5864
  731MOL0     C98617  11.440   1.660  10.992 -0.2240  0.1687 -0.1405
  731MOL0     H98618  10.979   1.654  10.595 -0.7086  1.4849 -1.0785
  731MOL0     H98619  10.724   1.709  10.610 -0.6409  0.6570  0.5221
  731MOL0     H98620  10.499   1.556  10.663  2.5550  0.2357 -0.1410
  731MOL0     H98621  10.494   1.486  10.830 -0.1228  1.0115  1.8797
  731MOL0     H98622  10.340   1.732  10.769  3.4342  0.0110 -0.9051
  731MOL0     H98623  10.272   1.567  10.741 -1.6863  0.3513  0.5409
  731MOL0     H98624  10.354   1.525  10.989 -0.4202  0.9284  2.6501
  731MOL0     H98625  10.367   1.703  10.994  1.2531 -0.6063 -0.5091
  731MOL0     H98626  10.136   1.731  10.934  0.7014  1.2102  2.6057
  731MOL0     H98627  10.127   1.545  10.905  1.2986 -0.6719 -0.3060
  731MOL0     H98628  10.177   1.547  11.169 -0.4337 -0.8522  0.6240
  731MOL0     H98629  10.160   1.717  11.166  1.1056 -1.3228  2.2538
  731MOL0     H98630   9.929   1.697  11.074  1.0669  0.0355 -0.5527
  731MOL0     H98631   9.940   1.520  11.066 -1.7059  0.5495 -0.4471
  731MOL0     H98632   9.816   1.561  11.265  0.0745 -0.4176  2.3214
  731MOL0     H98633   9.983   1.510  11.303 -0.2227  1.5489  3.3341
  731MOL0     H98634  10.035   1.748  11.319 -0.5704  0.7599 -1.5109
  731MOL0     H98635   9.959   1.669  11.450  1.0966  0.9420 -0.2941
  731MOL0     H98636   9.674   1.732  11.191  0.7477 -1.0271  0.4484
  731MOL0     H98637   9.465   2.011  11.310  0.8443 -0.2563  1.2930
  731MOL0     H98638   9.506   1.901  11.167  1.8142 -0.5169  0.5322
  731MOL0     H98639   9.374   1.822  11.431  1.8249  2.2626 -0.0047
  731MOL0     H98640   9.403   1.716  11.286 -0.5267  1.1549 -1.9017
  731MOL0     H98641   9.259   1.873  11.163 -0.9306  1.9922  0.1142
  731MOL0     H98642   9.241   1.974  11.302  2.8291  0.1002 -0.9612
  731MOL0     H98643   9.144   1.695  11.350 -0.0227 -0.5560  0.1642
  731MOL0     H98644   9.049   1.803  11.244  0.3823 -1.4992 -0.1300
  731MOL0     H98645   9.008   1.959  11.673  0.3449  1.6667  0.0399
  731MOL0     H98646   8.910   2.097  11.826 -0.9272 -1.0724  1.5823
  731MOL0     H98647   8.837   2.238  11.752 -1.0703 -0.4649  0.8742
  731MOL0     H98648   8.733   2.104  11.799 -1.0065  3.7978  1.4118
  731MOL0     H98649   8.389   2.167  11.511 -0.4829  0.5805 -0.1790
  731MOL0     H98650   8.155   2.265  11.508 -0.1474 -2.2414 -1.6232
  731MOL0     H98651   7.998   2.294  11.327 -1.2034 -0.6811  1.4216
  731MOL0     H98652   7.925   2.405  11.449 -1.4269  3.1353 -0.1348
  731MOL0     H98653   7.873   2.553  11.232 -1.7948  0.9599  0.0672
  731MOL0     H98654   7.931   2.408  11.143 -0.6567  1.8025 -1.2899
  731MOL0     H98655   7.689   2.428  11.339  0.9664  2.9585 -2.3660
  731MOL0     H98656   7.755   2.274  11.285 -2.0243  0.2579  1.3386
  731MOL0     H98657   7.682   2.492  11.085 -0.0040 -0.0598 -0.8680
  731MOL0     H98658   7.729   2.335  11.049  2.0971  0.4096  1.4173
  731MOL0     H98659   7.518   2.233  11.162  2.0216  0.3790 -0.0145
  731MOL0     H98660   7.489   2.315  11.017 -3.0053 -0.5248  0.6927
  731MOL0     H98661   7.464   2.434  11.306 -1.6688  0.1121 -0.0634
  731MOL0     H98662   7.454   2.529  11.160 -2.4521  1.1246  0.1409
  731MOL0     H98663   7.262   2.304  11.248  1.6726  0.4376 -0.2097
  731MOL0     H98664   7.277   2.359  11.078  2.4555 -3.0101 -0.0590
  731MOL0     H98665   7.099   2.474  11.194 -0.7028  0.2814  2.7768
  731MOL0     H98666   7.222   2.596  11.162  0.4110 -0.2281 -1.3821
  731MOL0     H98667   8.294   2.567  11.238  0.6656  1.2648  0.5714
  731MOL0     H98668   8.526   2.495  11.283 -1.4825 -0.0514 -1.8461
  731MOL0     H98669   8.684   2.064  11.309 -1.5273  3.1548  0.7229
  731MOL0     H98670   8.867   1.899  11.280  3.0021 -0.9913  0.7647
  731MOL0     H98671  10.716   1.576  11.016 -2.4809 -2.8829 -2.2391
  731MOL0     H98672  10.947   1.549  11.022 -3.2837 -0.9881  0.4313
  731MOL0     H98673  11.346   1.467  10.727 -0.5005  1.5146  0.0807
  731MOL0     H98674  11.570   1.422  10.728 -0.8746  0.3294 -0.8731
  731MOL0     H98675  11.935   1.595  10.882 -3.1792  0.5123 -2.2710
  731MOL0     H98676  11.844   1.633  11.026  1.6024 -2.8624  3.4680
  731MOL0     H98677  11.880   1.382  11.105  0.3753  0.2165  0.5942
  731MOL0     H98678  12.003   1.500  11.122 -0.6730 -1.1141  1.6858
  731MOL0     H98679  12.092   1.322  11.067 -0.9584  0.1650 -0.6731
  731MOL0     H98680  12.091   1.402  10.898  0.7422 -1.6331 -0.8446
  731MOL0     H98681  11.861   1.261  10.874  1.2651 -1.4861 -1.1306
  731MOL0     H98682  11.940   1.161  10.989 -0.1452 -0.4872 -0.1221
  731MOL0     H98683  12.219   1.100  10.675  0.9497  1.5067 -0.3610
  731MOL0     H98684  11.651   1.668  11.068 -0.1895  1.2362 -0.0928
  731MOL0     H98685  11.393   1.727  11.063  0.3658 -1.6079  2.0152
  732MOL0     O98686   9.249   3.884  10.281 -0.2655  0.4176 -0.9892
  732MOL0     C98687   9.309   3.895  10.173  0.4330  0.0928 -0.1879
  732MOL0     O98688   9.248   3.896  10.054 -0.7630  0.6677 -1.0986
  732MOL0     C98689   9.120   3.852  10.041  0.5461  0.0579  0.6183
  732MOL0     C98690   9.020   3.908  10.126 -0.2275  0.2240 -0.4080
  732MOL0     C98691   8.890   3.879  10.108  0.0535  1.2301  0.1590
  732MOL0     C98692   8.848   3.782  10.009 -0.0651  0.1903 -0.2036
  732MOL0     O98693   8.721   3.752  10.001  0.6510  0.1857 -0.4590
  732MOL0     C98694   8.677   3.637   9.935  0.1974  0.1276 -0.0508
  732MOL0     C98695   8.528   3.649   9.891  0.1327  0.0493  0.1447
  732MOL0     C98696   8.483   3.510   9.815 -0.1071 -0.0454 -0.2975
  732MOL0     C98697   8.331   3.535   9.788 -0.7205  0.0256  0.3021
  732MOL0     C98698   8.238   3.406   9.799 -0.5121 -0.0522 -0.4831
  732MOL0     C98699   8.090   3.443   9.785  0.3694  0.2867  0.1935
  732MOL0     C98700   8.004   3.323   9.788 -0.6847 -0.3982  0.0841
  732MOL0     C98701   7.863   3.356   9.762  0.7033 -0.4994  0.0501
  732MOL0     N98702   7.765   3.248   9.761  0.3845  0.0617  0.9383
  732MOL0     C98703   7.787   3.117   9.737  0.5648  0.4747 -1.1249
  732MOL0     C98704   7.670   3.064   9.702  0.5127  0.7465  0.0348
  732MOL0     C98705   7.644   2.921   9.662 -0.0951  0.5852 -0.5834
  732MOL0     C98706   7.535   2.891   9.563 -0.3542  0.2388 -0.7265
  732MOL0     C98707   7.543   2.743   9.521  0.0105  1.1314 -0.2167
  732MOL0     C98708   7.403   2.688   9.494  0.3417 -0.4341  0.2518
  732MOL0     O98709   7.335   2.761   9.392  0.4340  0.0940 -0.1169
  732MOL0     C98710   7.202   2.729   9.368 -0.6218 -0.4670 -0.0941
  732MOL0     C98711   7.124   2.646   9.442 -0.4209  0.2765 -0.0498
  732MOL0     C98712   6.987   2.645   9.415  0.7575 -0.3567  1.2912
  732MOL0     C98713   6.904   2.547   9.493  0.5811  0.1921  0.1702
  732MOL0     C98714   6.930   2.729   9.308  1.3270  0.9016  0.3471
  732MOL0     C98715   6.786   2.735   9.290 -0.1734  0.5413 -0.5951
  732MOL0     O98716   6.703   2.686   9.383 -1.3387 -0.1620  1.0608
  732MOL0     C98717   6.575   2.678   9.361  0.4776 -0.7028  0.4708
  732MOL0     C98718   6.500   2.792   9.380 -1.1967 -1.0063 -0.3336
  732MOL0     C98719   6.364   2.795   9.344 -0.1626 -0.6364 -0.2469
  732MOL0     C98720   6.308   2.688   9.278 -0.0193 -0.1817  0.1163
  732MOL0     O98721   6.179   2.691   9.228  0.1285 -0.1348 -0.7033
  732MOL0     C98722   6.095   2.799   9.251  0.1554  0.1187  0.4202
  732MOL0     C98723   5.969   2.754   9.172  0.7423 -0.2256 -0.5803
  732MOL0     C98724   5.857   2.852   9.204 -0.0954 -0.2053 -1.2842
  732MOL0     C98725   5.717   2.814   9.153 -0.7198  0.5902 -0.5197
  732MOL0     C98726   5.601   2.887   9.223  0.1068  0.8496 -0.0417
  732MOL0     C98727   5.466   2.855   9.165 -0.6679 -1.7116  0.3857
  732MOL0     C98728   5.358   2.935   9.246  0.4411  0.3034 -0.6054
  732MOL0     C98729   5.218   2.893   9.206 -0.1941 -0.3432  0.4542
  732MOL0    Cl98730   5.176   2.729   9.252  0.3349  0.0584 -0.3002
  732MOL0     C98731   6.381   2.577   9.241  0.2985  0.5576 -0.5135
  732MOL0     C98732   6.519   2.571   9.284  1.2603  0.5458 -0.0373
  732MOL0     O98733   6.744   2.798   9.194 -0.0740  0.0335  0.8450
  732MOL0     C98734   7.015   2.818   9.239  0.5940  0.4622  0.7182
  732MOL0     C98735   7.147   2.819   9.274  0.6753 -0.1848  0.4611
  732MOL0     N98736   7.572   3.166   9.712 -0.3204  0.0747 -0.0133
  732MOL0     N98737   7.638   3.276   9.724 -0.1491 -0.2266  0.3799
  732MOL0     C98738   8.951   3.738   9.922  0.2357  1.1048  0.2393
  732MOL0     C98739   9.089   3.772   9.939  0.4145 -0.7041 -0.6309
  732MOL0     C98740   9.460   3.882  10.185 -0.2729 -0.9398 -0.8769
  732MOL0     C98741   9.541   3.903  10.067 -0.0615  0.7257  0.3316
  732MOL0     C98742   9.682   3.896  10.059  0.4802 -0.7297 -0.3181
  732MOL0     C98743   9.744   3.856  10.178 -0.1250  0.5775 -0.6191
  732MOL0     O98744   9.881   3.849  10.183 -0.0286  1.0731 -0.7659
  732MOL0     C98745   9.971   3.896  10.084 -0.0130 -0.1590 -0.3464
  732MOL0     C98746  10.086   3.966  10.166  0.3489 -0.3333 -0.5354
  732MOL0     C98747  10.181   4.021  10.061 -0.2730 -0.3008 -0.3223
  732MOL0     C98748  10.318   3.960  10.086  0.1310  0.7265  0.3214
  732MOL0     C98749  10.419   3.981   9.983 -0.3733 -1.2436  0.2936
  732MOL0     C98750  10.509   3.989   9.900  0.1996  0.2441  0.3646
  732MOL0     C98751   9.665   3.816  10.292 -0.1568  0.9992  0.3453
  732MOL0     C98752   9.527   3.835  10.297 -0.0323  0.3982 -0.1274
  732MOL0     H98753   9.038   3.980  10.205 -2.3775 -0.4360  0.7745
  732MOL0     H98754   8.813   3.929  10.167 -0.7477 -1.6199  1.7003
  732MOL0     H98755   8.737   3.605   9.850 -1.4553 -3.6294 -0.0047
  732MOL0     H98756   8.683   3.546   9.995 -0.9180 -1.1998 -1.8235
  732MOL0     H98757   8.483   3.670   9.989  1.8528  0.0435  0.9782
  732MOL0     H98758   8.527   3.730   9.817  3.0372 -0.7534 -0.8784
  732MOL0     H98759   8.543   3.495   9.725 -0.6591 -2.3646 -0.3338
  732MOL0     H98760   8.493   3.420   9.876  0.0486 -0.1471 -0.4698
  732MOL0     H98761   8.299   3.614   9.857  1.6750  1.0488  0.3422
  732MOL0     H98762   8.317   3.581   9.690 -1.5901  0.4569  0.6136
  732MOL0     H98763   8.265   3.332   9.723 -0.4573 -1.2504  0.6656
  732MOL0     H98764   8.268   3.362   9.894  1.9866 -0.2779 -1.3184
  732MOL0     H98765   8.054   3.513   9.861  0.3907 -0.6578  1.0924
  732MOL0     H98766   8.087   3.499   9.691 -0.7840  0.8209  0.5264
  732MOL0     H98767   8.041   3.243   9.724  1.6117  2.2518 -2.1611
  732MOL0     H98768   8.002   3.272   9.884  1.0136 -0.9835 -0.1676
  732MOL0     H98769   7.855   3.407   9.665 -1.5505  1.2683  1.0574
  732MOL0     H98770   7.816   3.414   9.843  1.3860 -0.7894  0.6601
  732MOL0     H98771   7.885   3.070   9.737  0.1724 -0.4262  0.7537
  732MOL0     H98772   7.728   2.875   9.610 -0.3710 -2.1883  1.2044
  732MOL0     H98773   7.627   2.856   9.748  0.2016  0.3661 -0.6874
  732MOL0     H98774   7.549   2.954   9.475  2.0468  1.0915  0.1772
  732MOL0     H98775   7.440   2.917   9.612 -0.6458  0.7102 -1.5187
  732MOL0     H98776   7.571   2.671   9.598 -5.1536 -2.1257 -0.9041
  732MOL0     H98777   7.602   2.731   9.430  2.5128 -1.0482  1.5710
  732MOL0     H98778   7.355   2.698   9.591 -0.8107 -1.3319 -0.2049
  732MOL0     H98779   7.422   2.583   9.467  2.6180 -0.0187 -0.0070
  732MOL0     H98780   7.180   2.584   9.511  1.3527 -1.4385 -2.7917
  732MOL0     H98781   6.969   2.474   9.541 -0.2223 -1.1903 -0.7666
  732MOL0     H98782   6.846   2.591   9.574  2.2297  0.7728  1.0891
  732MOL0     H98783   6.844   2.481   9.430  0.1091  1.8905 -1.2432
  732MOL0     H98784   6.543   2.874   9.436 -1.3517 -0.3853 -1.1027
  732MOL0     H98785   6.311   2.886   9.372 -0.7197 -0.7431 -0.9124
  732MOL0     H98786   6.060   2.815   9.353 -1.3912  1.7363 -0.3214
  732MOL0     H98787   6.136   2.894   9.213 -0.4134  0.5395  0.8533
  732MOL0     H98788   5.994   2.753   9.065 -2.4982 -1.4562 -1.4559
  732MOL0     H98789   5.930   2.656   9.199 -0.1278  0.4173  0.5834
  732MOL0     H98790   5.883   2.952   9.170 -2.3010  0.6297 -0.6997
  732MOL0     H98791   5.853   2.854   9.313 -2.8084 -2.6414 -1.2142
  732MOL0     H98792   5.717   2.827   9.044 -0.9765 -1.9656 -0.8976
  732MOL0     H98793   5.712   2.705   9.165  0.1698  0.5353 -0.5513
  732MOL0     H98794   5.605   2.993   9.194  0.5858  1.6340  2.5583
  732MOL0     H98795   5.604   2.865   9.330 -0.1579  1.3637  0.0780
  732MOL0     H98796   5.471   2.878   9.058  1.2965 -1.9906  0.3744
  732MOL0     H98797   5.449   2.748   9.173  1.4658 -2.2430 -1.1475
  732MOL0     H98798   5.366   3.043   9.230  0.8137  1.3279  4.6188
  732MOL0     H98799   5.364   2.917   9.354 -4.2510  1.7962  0.1459
  732MOL0     H98800   5.223   2.900   9.097  1.8288  1.0915  0.5908
  732MOL0     H98801   5.151   2.976   9.232  1.1417  1.6951 -2.1173
  732MOL0     H98802   6.350   2.487   9.189  0.8303 -1.1291  1.8897
  732MOL0     H98803   6.572   2.481   9.255  1.0091  0.1616  0.6556
  732MOL0     H98804   6.978   2.886   9.163  3.2237 -1.5138 -2.6228
  732MOL0     H98805   7.198   2.903   9.228 -1.5211  1.4107  0.7404
  732MOL0     H98806   8.920   3.679   9.836  1.1347  0.7060  0.1824
  732MOL0     H98807   9.168   3.740   9.872  0.5817 -2.7919  0.4969
  732MOL0     H98808   9.501   3.941   9.974  1.3005 -0.1510 -0.6544
  732MOL0     H98809   9.733   3.930   9.969  1.9646 -0.4389  0.5923
  732MOL0     H98810  10.018   3.809  10.037  3.8758  2.0899 -0.9882
  732MOL0     H98811   9.924   3.957  10.006 -1.4372 -0.3987  0.2883
  732MOL0     H98812  10.132   3.884  10.222 -1.6685  1.5309  4.3620
  732MOL0     H98813  10.047   4.040  10.236 -0.6096  0.1421 -1.5477
  732MOL0     H98814  10.198   4.125  10.088 -0.4622  0.0029 -1.3452
  732MOL0     H98815  10.148   3.999   9.959  2.8209 -1.6181 -1.1874
  732MOL0     H98816  10.317   3.852  10.105  0.6834  0.6305 -0.1360
  732MOL0     H98817  10.355   4.011  10.176  0.6429  2.3274 -0.7412
  732MOL0     H98818  10.584   4.007   9.826 -2.2943  0.8387 -2.1757
  732MOL0     H98819   9.722   3.764  10.368  0.1262 -2.4264 -1.9649
  732MOL0     H98820   9.476   3.817  10.391  2.4122  2.9431  1.9005
  733MOL0     O98821  10.271   5.200   4.627 -0.4224 -0.3624 -0.5194
  733MOL0     C98822  10.357   5.140   4.570 -0.6909 -0.3410 -1.0915
  733MOL0     O98823  10.358   5.129   4.431 -0.2647 -0.1208 -0.0726
  733MOL0     C98824  10.253   5.163   4.345 -0.0160  0.1841 -0.2502
  733MOL0     C98825  10.255   5.110   4.215  0.4148 -0.1158 -0.4809
  733MOL0     C98826  10.159   5.130   4.123  0.2038  0.1228  0.5726
  733MOL0     C98827  10.047   5.215   4.149 -0.0399  0.1537  0.1184
  733MOL0     O98828   9.941   5.209   4.056  0.5410 -0.9564 -0.4283
  733MOL0     C98829   9.814   5.252   4.118  0.2935 -0.9810 -1.0461
  733MOL0     C98830   9.755   5.130   4.191  0.5802  1.2001  0.2011
  733MOL0     C98831   9.611   5.157   4.241 -0.4007 -0.1784 -0.2609
  733MOL0     C98832   9.553   5.053   4.341 -0.3057  0.0577 -0.7692
  733MOL0     C98833   9.403   5.068   4.371  0.5321 -0.1986 -0.4371
  733MOL0     C98834   9.319   5.021   4.249 -0.0417 -0.3945 -0.1470
  733MOL0     C98835   9.169   5.027   4.283 -0.1532 -0.3205  0.5827
  733MOL0     C98836   9.129   4.969   4.415 -0.4211  0.5088  0.3949
  733MOL0     N98837   8.981   4.964   4.438  0.8535 -0.1495  0.1158
  733MOL0     C98838   8.906   4.855   4.396  0.8086  0.4782 -0.0724
  733MOL0     C98839   8.778   4.879   4.429 -0.5281 -1.1263  0.1479
  733MOL0     C98840   8.650   4.813   4.399  0.1893  0.5870  0.0117
  733MOL0     C98841   8.547   4.790   4.514 -0.0595 -0.5176  0.0635
  733MOL0     C98842   8.407   4.771   4.460 -0.0697  0.5471  0.3366
  733MOL0     C98843   8.297   4.762   4.569  0.4011 -0.2055 -0.7611
  733MOL0     O98844   8.165   4.743   4.498 -0.2467  0.8879  0.5039
  733MOL0     C98845   8.047   4.750   4.563  0.5341 -0.6733 -0.7364
  733MOL0     C98846   7.942   4.721   4.491  0.6907  0.1884 -0.0763
  733MOL0     C98847   7.804   4.728   4.542 -0.7525 -0.0895  0.0270
  733MOL0     C98848   7.686   4.681   4.458 -1.6011 -0.2111 -0.1055
  733MOL0     C98849   7.791   4.761   4.681 -0.3657  0.7709  0.4794
  733MOL0     C98850   7.668   4.742   4.755  0.5519  0.3528 -0.0792
  733MOL0     O98851   7.575   4.641   4.707  0.0275  0.7187  0.3667
  733MOL0     C98852   7.471   4.611   4.792 -0.0550  0.1772 -0.0529
  733MOL0     C98853   7.460   4.481   4.843  0.1590  0.4092 -0.2657
  733MOL0     C98854   7.349   4.451   4.930  0.1548 -0.2832 -0.0668
  733MOL0     C98855   7.252   4.544   4.950  0.7231  1.1484 -0.1395
  733MOL0     O98856   7.145   4.508   5.034  0.0747 -0.1170  0.2959
  733MOL0     C98857   7.045   4.614   5.071  0.1297  0.2096 -0.0895
  733MOL0     C98858   6.966   4.548   5.181 -0.3413  1.0524 -0.1706
  733MOL0     C98859   6.878   4.642   5.260  1.4436 -0.4922  0.3892
  733MOL0     C98860   6.797   4.733   5.167  0.3023  0.0131 -0.8754
  733MOL0     C98861   6.685   4.822   5.229  0.1452 -0.4133  0.2207
  733MOL0     C98862   6.614   4.885   5.113 -0.5579  0.1705  0.0548
  733MOL0     C98863   6.494   4.959   5.160  0.0151  0.0846  0.6172
  733MOL0     C98864   6.412   5.032   5.055 -0.3500  0.6199 -0.0511
  733MOL0    Cl98865   6.351   5.186   5.110  0.2280  0.4572  0.1780
  733MOL0     C98866   7.266   4.672   4.893 -0.0936 -0.5576 -0.2561
  733MOL0     C98867   7.368   4.701   4.810 -0.2549  0.6705  0.5065
  733MOL0     O98868   7.649   4.810   4.854  0.3268  0.2386 -0.0220
  733MOL0     C98869   7.904   4.795   4.758  0.2456 -0.1172  0.3463
  733MOL0     C98870   8.027   4.779   4.705 -0.5621 -0.2121  0.3663
  733MOL0     N98871   8.782   4.997   4.507  0.8620 -0.4842  0.1809
  733MOL0     N98872   8.897   5.049   4.502  0.1371  0.0997  0.5457
  733MOL0     C98873  10.058   5.281   4.276  0.3524  0.5632 -0.1848
  733MOL0     C98874  10.166   5.263   4.366  1.1672  0.1903  0.5090
  733MOL0     C98875  10.473   5.103   4.647  0.1561 -0.3176 -0.7168
  733MOL0     C98876  10.472   5.084   4.786 -0.4690  0.2122 -0.9630
  733MOL0     C98877  10.590   5.040   4.862  0.1081 -1.3712 -0.5418
  733MOL0     C98878  10.712   5.027   4.800  0.9040 -0.8416  0.4399
  733MOL0     O98879  10.825   5.005   4.863  0.8357 -0.2415 -0.0335
  733MOL0     C98880  10.874   5.116   4.939  1.0636  0.0585  0.5883
  733MOL0     C98881  10.918   5.234   4.849 -0.0047 -0.1121  0.3299
  733MOL0     C98882  10.998   5.335   4.934 -0.4291 -0.2281 -0.0980
  733MOL0     C98883  11.063   5.422   4.829  0.0542  0.3278  0.2576
  733MOL0     C98884  11.116   5.540   4.907 -0.0106  0.5461 -0.9011
  733MOL0     C98885  11.188   5.626   4.960 -0.1390  0.0581 -0.4325
  733MOL0     C98886  10.715   5.054   4.657 -0.2438 -0.4150 -0.2184
  733MOL0     C98887  10.601   5.089   4.591  0.0360  0.5310  1.0751
  733MOL0     H98888  10.338   5.040   4.205  1.6891  0.8817  2.0943
  733MOL0     H98889  10.164   5.068   4.034  0.5618 -0.7300  1.1781
  733MOL0     H98890   9.825   5.338   4.185  1.0513 -3.7079  2.6234
  733MOL0     H98891   9.745   5.281   4.038  0.8593  1.2350 -0.7889
  733MOL0     H98892   9.748   5.048   4.119 -1.0607  1.8463 -0.4347
  733MOL0     H98893   9.818   5.091   4.271  1.3655  0.4760 -0.7284
  733MOL0     H98894   9.616   5.253   4.294  0.3526  1.5546 -3.2676
  733MOL0     H98895   9.544   5.170   4.155  0.2485 -1.7691 -1.0408
  733MOL0     H98896   9.569   4.951   4.305 -0.0762 -0.1973  0.0340
  733MOL0     H98897   9.605   5.056   4.437  1.5175 -2.8308 -1.5563
  733MOL0     H98898   9.384   5.010   4.461 -0.4822  2.2961  1.0611
  733MOL0     H98899   9.362   5.166   4.394 -0.9797 -0.6861 -0.9250
  733MOL0     H98900   9.338   5.080   4.159 -3.5109 -1.0821 -1.5117
  733MOL0     H98901   9.343   4.919   4.218 -0.0095 -0.0268 -1.4120
  733MOL0     H98902   9.137   5.131   4.291 -2.0815 -0.7576 -0.7010
  733MOL0     H98903   9.119   4.972   4.202  1.8886 -0.7594 -0.4359
  733MOL0     H98904   9.163   5.038   4.492 -2.5103 -0.3369  2.1980
  733MOL0     H98905   9.166   4.866   4.415 -0.0439  0.5477 -2.9044
  733MOL0     H98906   8.944   4.766   4.345 -2.2958 -0.5193 -0.9299
  733MOL0     H98907   8.604   4.874   4.321 -0.9511 -2.6901 -2.1072
  733MOL0     H98908   8.657   4.716   4.347 -1.6111 -0.7241  2.0543
  733MOL0     H98909   8.544   4.873   4.585 -3.9026  0.7764 -1.3413
  733MOL0     H98910   8.564   4.703   4.579  0.8359 -0.7361 -0.4635
  733MOL0     H98911   8.406   4.675   4.408 -2.2633  0.3250  0.7010
  733MOL0     H98912   8.382   4.852   4.391 -1.0844  1.3289  1.5598
  733MOL0     H98913   8.293   4.856   4.625 -1.8076 -0.8031  0.1792
  733MOL0     H98914   8.324   4.686   4.644 -0.6898 -0.5268 -0.6848
  733MOL0     H98915   7.944   4.688   4.387 -3.6156  0.6678 -0.4955
  733MOL0     H98916   7.715   4.667   4.353  1.3440  1.3896  0.3856
  733MOL0     H98917   7.658   4.585   4.503 -0.0245 -0.7602 -0.2370
  733MOL0     H98918   7.606   4.755   4.464 -2.3982 -0.9955 -0.7247
  733MOL0     H98919   7.531   4.402   4.822  1.4721  1.5917 -0.4660
  733MOL0     H98920   7.340   4.355   4.980 -1.6315  0.2316  0.6622
  733MOL0     H98921   7.088   4.704   5.115 -4.3750  0.6859  4.3419
  733MOL0     H98922   6.991   4.615   4.976  2.7515 -2.7410 -1.8143
  733MOL0     H98923   6.902   4.467   5.146  0.5865 -0.3000  1.1048
  733MOL0     H98924   7.038   4.502   5.249 -0.0801 -0.0611 -1.1747
  733MOL0     H98925   6.932   4.697   5.339  0.4975  0.1284  0.6206
  733MOL0     H98926   6.806   4.573   5.305 -0.2869  0.0201 -1.4597
  733MOL0     H98927   6.863   4.795   5.105  0.5362  2.1142  1.3325
  733MOL0     H98928   6.756   4.667   5.090  1.9667 -1.0775 -0.8683
  733MOL0     H98929   6.720   4.896   5.302 -1.0036 -1.7227  2.1604
  733MOL0     H98930   6.616   4.756   5.282 -2.0093  2.3272  1.0759
  733MOL0     H98931   6.684   4.957   5.068 -0.2358  0.0813  0.4174
  733MOL0     H98932   6.597   4.813   5.032  0.4539 -0.4071  0.3336
  733MOL0     H98933   6.521   5.039   5.229 -3.2325  1.2592  0.6821
  733MOL0     H98934   6.422   4.898   5.214  0.5451 -1.8510 -0.7499
  733MOL0     H98935   6.329   4.966   5.027  1.6017 -2.2496  0.4451
  733MOL0     H98936   6.471   5.053   4.965  0.4443 -0.7471  0.1249
  733MOL0     H98937   7.178   4.730   4.920  0.2465 -0.9942  2.0174
  733MOL0     H98938   7.362   4.789   4.747  2.7227  0.6439  0.0321
  733MOL0     H98939   7.893   4.814   4.864  1.2743  3.6908 -0.0645
  733MOL0     H98940   8.106   4.803   4.776 -0.9005  0.1232  0.6343
  733MOL0     H98941   9.979   5.339   4.323 -1.2954 -2.4222  0.9461
  733MOL0     H98942  10.154   5.317   4.460  1.4170 -0.9848  1.2384
  733MOL0     H98943  10.377   5.084   4.838  0.9873 -1.7573  1.9721
  733MOL0     H98944  10.580   5.011   4.967  1.0327 -2.2270 -0.6844
  733MOL0     H98945  10.793   5.136   5.009 -0.5932 -0.2984 -1.1395
  733MOL0     H98946  10.962   5.087   4.997 -0.3034 -0.3740  2.5157
  733MOL0     H98947  10.837   5.282   4.795 -1.4019 -2.1160  0.5267
  733MOL0     H98948  10.989   5.190   4.777  0.6458 -2.2960  2.1768
  733MOL0     H98949  11.076   5.297   5.000 -0.9362 -0.8927  0.1291
  733MOL0     H98950  10.923   5.394   4.988  1.1601  3.9294 -1.9583
  733MOL0     H98951  10.994   5.459   4.754  1.9234  2.6260 -0.4457
  733MOL0     H98952  11.147   5.375   4.777 -2.5447 -1.4279 -2.6637
  733MOL0     H98953  11.235   5.701   5.020  0.0151 -0.5276  0.2005
  733MOL0     H98954  10.799   5.024   4.596 -1.1534  0.0530 -1.7351
  733MOL0     H98955  10.608   5.083   4.483  2.3230 -2.7283  1.2508
  734MOL0     O98956   1.808   3.590   3.617 -0.6379 -0.0167 -0.4414
  734MOL0     C98957   1.904   3.527   3.665  0.1397 -0.2698  0.0417
  734MOL0     O98958   1.936   3.395   3.645  1.0721 -0.6657 -0.7809
  734MOL0     C98959   1.858   3.311   3.572  1.0116 -1.1159 -0.4481
  734MOL0     C98960   1.932   3.210   3.508 -0.0557  0.0738 -0.2368
  734MOL0     C98961   1.861   3.117   3.430  0.1748  0.0565 -0.3048
  734MOL0     C98962   1.728   3.136   3.407  0.3350  0.8487  0.3399
  734MOL0     O98963   1.658   3.033   3.339  0.3121 -0.9233 -0.5139
  734MOL0     C98964   1.511   3.029   3.343 -0.6200 -0.2043 -0.1978
  734MOL0     C98965   1.466   2.924   3.235 -0.4203  0.0619 -0.1815
  734MOL0     C98966   1.498   2.773   3.277  0.1881  0.0033  0.3431
  734MOL0     C98967   1.430   2.722   3.408  0.2025  0.0909 -0.0151
  734MOL0     C98968   1.477   2.580   3.444 -0.9201  0.8574 -0.9499
  734MOL0     C98969   1.458   2.475   3.334 -0.2075 -0.7587  0.4734
  734MOL0     C98970   1.439   2.342   3.402 -0.7459  0.2852  0.7516
  734MOL0     C98971   1.422   2.233   3.289 -0.0025 -0.2890  0.0960
  734MOL0     N98972   1.541   2.205   3.202  0.1149 -0.8846 -0.3498
  734MOL0     C98973   1.671   2.250   3.220 -0.5070  0.9806 -0.2686
  734MOL0     C98974   1.724   2.245   3.102 -0.1894  0.2318 -0.8884
  734MOL0     C98975   1.857   2.280   3.066 -0.1155  0.1372  0.0929
  734MOL0     C98976   1.885   2.428   3.111 -0.0700  0.0567 -0.4358
  734MOL0     C98977   1.785   2.533   3.054 -0.6991  0.3736  0.6315
  734MOL0     C98978   1.799   2.540   2.900  0.8194  0.0919 -0.1613
  734MOL0     O98979   1.722   2.636   2.824 -0.4503 -0.3872  0.0670
  734MOL0     C98980   1.589   2.674   2.857 -0.3853  0.2556  0.0764
  734MOL0     C98981   1.550   2.802   2.832 -0.4742 -1.0479 -0.0994
  734MOL0     C98982   1.418   2.842   2.866 -0.7175  0.4518 -1.2210
  734MOL0     C98983   1.390   2.987   2.847 -0.2706 -0.4307  0.2877
  734MOL0     C98984   1.322   2.753   2.910 -0.1677 -0.7050 -0.0744
  734MOL0     C98985   1.180   2.792   2.946  0.0952 -0.3239 -0.0674
  734MOL0     O98986   1.129   2.703   3.034 -0.2124  0.6251 -0.1897
  734MOL0     C98987   0.996   2.704   3.071 -0.4547 -0.0780  0.3176
  734MOL0     C98988   0.887   2.775   3.008  0.1271  1.0188  0.8427
  734MOL0     C98989   0.757   2.778   3.061 -0.2056  0.8623 -0.2961
  734MOL0     C98990   0.731   2.710   3.176  0.3470  0.9261  0.0674
  734MOL0     O98991   0.609   2.718   3.239 -0.3697  0.6497  0.0841
  734MOL0     C98992   0.519   2.602   3.211  0.3161 -0.5925 -0.5473
  734MOL0     C98993   0.423   2.643   3.093 -0.1755  0.3883 -0.9989
  734MOL0     C98994   0.299   2.556   3.091 -0.1122 -0.2513 -0.1436
  734MOL0     C98995   0.184   2.583   3.191  0.4090  0.4733 -0.6864
  734MOL0     C98996   0.080   2.473   3.183  0.0326 -0.3077  0.2453
  734MOL0     C98997  -0.016   2.471   3.299  0.5902  0.4556 -1.0404
  734MOL0     C98998   0.043   2.421   3.438  0.7962 -0.0472  0.6067
  734MOL0     C98999  -0.044   2.478   3.550 -0.3520 -0.1471  0.0115
  734MOL0    Cl99000  -0.019   2.659   3.552 -0.2592 -0.2035 -0.1633
  734MOL0     C99001   0.826   2.626   3.228  0.1505 -0.8220 -0.4309
  734MOL0     C99002   0.964   2.630   3.181  0.1078  0.7058 -0.0260
  734MOL0     O99003   1.131   2.890   2.897  0.0018  0.8072 -0.6318
  734MOL0     C99004   1.371   2.621   2.917 -0.6731 -0.4934  1.0707
  734MOL0     C99005   1.500   2.577   2.903  0.8112  0.6938  0.2886
  734MOL0     N99006   1.632   2.203   3.014 -0.0825 -0.7738  0.4152
  734MOL0     N99007   1.516   2.191   3.070  0.1805  0.4705 -0.1378
  734MOL0     C99008   1.653   3.243   3.465 -0.2246 -0.0735  0.1861
  734MOL0     C99009   1.719   3.321   3.552  0.2578 -0.3012 -0.5424
  734MOL0     C99010   1.997   3.617   3.749  0.4318 -0.1314  1.2373
  734MOL0     C99011   2.120   3.570   3.805  0.4730  0.5735  0.1638
  734MOL0     C99012   2.198   3.652   3.887 -0.3817 -0.9245 -0.9774
  734MOL0     C99013   2.158   3.787   3.915  0.2860 -0.8036 -0.4844
  734MOL0     O99014   2.234   3.862   3.999  0.0567  0.0276 -0.0403
  734MOL0     C99015   2.189   3.995   4.039  0.4277 -0.1533 -0.0484
  734MOL0     C99016   2.279   4.058   4.138  0.1929 -0.1573 -0.0275
  734MOL0     C99017   2.379   4.150   4.068 -1.0054  0.2037  0.4006
  734MOL0     C99018   2.491   4.191   4.166 -0.1377 -0.5569  0.1315
  734MOL0     C99019   2.443   4.298   4.257  0.7793 -0.1824  0.6221
  734MOL0     C99020   2.405   4.391   4.320 -0.3153  0.3966  0.7348
  734MOL0     C99021   2.037   3.832   3.859 -0.7069 -0.7069  0.3293
  734MOL0     C99022   1.958   3.749   3.781 -0.0658 -0.7392  0.1169
  734MOL0     H99023   2.038   3.186   3.508 -0.4497 -1.9246 -1.4724
  734MOL0     H99024   1.910   3.033   3.383  2.5040 -1.0974  3.6761
  734MOL0     H99025   1.469   3.008   3.442 -0.2053  0.8649  0.2238
  734MOL0     H99026   1.472   3.126   3.311  1.1410  0.5385 -0.2129
  734MOL0     H99027   1.361   2.947   3.214  0.0700  1.7534 -0.9918
  734MOL0     H99028   1.514   2.951   3.140 -0.7603  0.0373 -0.3609
  734MOL0     H99029   1.477   2.710   3.191  0.5007  0.4928 -0.0988
  734MOL0     H99030   1.605   2.758   3.296  0.0834  0.0613  1.0062
  734MOL0     H99031   1.449   2.785   3.495  0.8572 -0.6559  0.4003
  734MOL0     H99032   1.322   2.710   3.397 -0.1460  0.4671  2.4759
  734MOL0     H99033   1.582   2.587   3.471 -1.3619 -1.8074  2.0617
  734MOL0     H99034   1.432   2.553   3.541  0.4427  2.1112  0.0632
  734MOL0     H99035   1.367   2.504   3.280  1.1669 -0.4610 -1.7897
  734MOL0     H99036   1.540   2.481   3.262 -1.3650  1.1852 -0.7673
  734MOL0     H99037   1.517   2.311   3.471 -1.8579  0.0457  1.9366
  734MOL0     H99038   1.346   2.346   3.460 -0.5450 -0.2488  1.1142
  734MOL0     H99039   1.342   2.275   3.226  2.5258 -2.3347 -5.0254
  734MOL0     H99040   1.388   2.139   3.334 -0.1114  0.6249  2.0318
  734MOL0     H99041   1.703   2.282   3.319 -2.7116  1.6822  0.2748
  734MOL0     H99042   1.925   2.206   3.110 -0.4080 -1.2417 -1.6519
  734MOL0     H99043   1.875   2.254   2.961  1.6424  2.2098 -0.1921
  734MOL0     H99044   1.987   2.463   3.095  0.6900 -1.0948  1.5823
  734MOL0     H99045   1.885   2.424   3.220 -0.1670 -0.4986 -0.4529
  734MOL0     H99046   1.799   2.632   3.099  0.4314  0.5197 -0.0103
  734MOL0     H99047   1.682   2.502   3.077 -0.0327 -1.3983  1.3336
  734MOL0     H99048   1.782   2.444   2.850 -0.6495  0.8010 -1.0963
  734MOL0     H99049   1.898   2.582   2.881  0.5008  1.7535  1.5769
  734MOL0     H99050   1.613   2.866   2.772 -0.0753 -0.8099  0.5627
  734MOL0     H99051   1.346   3.015   2.943  0.6399  3.5313 -0.2654
  734MOL0     H99052   1.485   3.041   2.846 -0.9335  0.9542  3.0276
  734MOL0     H99053   1.326   3.012   2.762  0.0708  1.6323  0.5651
  734MOL0     H99054   0.901   2.820   2.910 -0.7660 -1.2626 -0.4240
  734MOL0     H99055   0.676   2.839   3.021 -0.8674  0.7615  0.8562
  734MOL0     H99056   0.582   2.515   3.189  2.0408  0.9269 -2.0120
  734MOL0     H99057   0.463   2.586   3.303  1.0832  0.0914  0.0621
  734MOL0     H99058   0.403   2.750   3.099 -1.1300  0.3171 -2.4520
  734MOL0     H99059   0.484   2.632   3.003  2.0512  2.8366  0.0928
  734MOL0     H99060   0.327   2.451   3.104  0.2023 -0.0705  0.6818
  734MOL0     H99061   0.255   2.558   2.990 -0.5959 -2.7197 -0.0315
  734MOL0     H99062   0.224   2.596   3.292  0.5273 -0.4070 -0.6071
  734MOL0     H99063   0.151   2.686   3.174  2.9898  1.2566 -1.4401
  734MOL0     H99064   0.117   2.371   3.170  1.7701  0.1875  0.9869
  734MOL0     H99065   0.025   2.496   3.092  0.9804 -2.7608 -1.0476
  734MOL0     H99066  -0.046   2.575   3.312  0.3512  0.1012  1.9029
  734MOL0     H99067  -0.102   2.413   3.266  0.2931 -0.1770  0.7243
  734MOL0     H99068   0.146   2.458   3.441  0.2571  1.4890  1.0972
  734MOL0     H99069   0.058   2.313   3.440  0.2436 -0.1553 -0.4151
  734MOL0     H99070  -0.005   2.433   3.642 -0.9981  0.3662  0.5561
  734MOL0     H99071  -0.148   2.447   3.537 -0.7297  0.9125  0.3682
  734MOL0     H99072   0.801   2.588   3.326 -2.3292 -0.4365 -0.8562
  734MOL0     H99073   1.035   2.572   3.238 -1.8158 -1.6096  0.1902
  734MOL0     H99074   1.294   2.547   2.935 -3.4996  1.2999 -2.4938
  734MOL0     H99075   1.526   2.473   2.921 -2.8863 -1.1975 -3.5344
  734MOL0     H99076   1.546   3.252   3.449 -0.0313 -1.5735 -2.8450
  734MOL0     H99077   1.658   3.392   3.606  0.7063  0.6694 -1.2850
  734MOL0     H99078   2.143   3.468   3.778 -0.5504  0.4807 -0.4377
  734MOL0     H99079   2.291   3.611   3.925 -1.1530 -1.9220 -0.1086
  734MOL0     H99080   2.163   4.067   3.962 -0.6216  1.5336  1.7919
  734MOL0     H99081   2.094   3.976   4.088  1.0829 -0.1178  1.2839
  734MOL0     H99082   2.333   3.979   4.192  0.4841  0.2495  0.2776
  734MOL0     H99083   2.230   4.118   4.215  0.5381  0.1515 -0.0437
  734MOL0     H99084   2.332   4.243   4.033  0.5204  1.5263  1.6994
  734MOL0     H99085   2.409   4.095   3.978 -1.5986 -1.3239  1.1127
  734MOL0     H99086   2.585   4.231   4.126  0.3782 -1.4621  0.4026
  734MOL0     H99087   2.531   4.107   4.223 -0.9429  0.4091  2.2446
  734MOL0     H99088   2.362   4.469   4.380 -1.7621 -0.8897  1.4488
  734MOL0     H99089   1.998   3.933   3.867 -0.3009 -0.5203 -0.0614
  734MOL0     H99090   1.869   3.793   3.738  0.3147  0.7989  0.8481
  735MOL0     O99091   6.562   6.379   7.342 -0.0438 -0.1551  0.2898
  735MOL0     C99092   6.646   6.285   7.349 -0.0248 -0.8591 -0.1442
  735MOL0     O99093   6.619   6.155   7.370  0.5840 -0.2260 -0.1095
  735MOL0     C99094   6.498   6.121   7.423 -0.2868 -0.2030  0.8466
  735MOL0     C99095   6.437   6.191   7.530 -0.1108  0.4975 -0.4108
  735MOL0     C99096   6.309   6.152   7.578 -0.0325  0.6090  0.5804
  735MOL0     C99097   6.255   6.032   7.529  0.8554  0.0745  0.2704
  735MOL0     O99098   6.123   6.010   7.579 -1.5132 -0.5158  0.5478
  735MOL0     C99099   6.077   5.881   7.563  0.0227  0.3561 -0.5146
  735MOL0     C99100   6.002   5.851   7.697  0.6182  0.0152  0.1088
  735MOL0     C99101   5.899   5.949   7.731  0.1246  0.5809 -0.0413
  735MOL0     C99102   5.797   5.890   7.833 -0.0992  0.0622 -0.7552
  735MOL0     C99103   5.688   5.996   7.843  0.4138  0.7938  0.3021
  735MOL0     C99104   5.598   5.978   7.962  0.0618  1.2499 -0.0129
  735MOL0     C99105   5.476   5.888   7.925 -0.4094 -0.0185  0.1534
  735MOL0     C99106   5.363   5.905   8.019  0.3364 -0.4706 -0.1211
  735MOL0     N99107   5.238   5.837   7.976 -0.1683  0.3147 -0.0216
  735MOL0     C99108   5.219   5.724   7.900 -0.2889  0.1822  0.2073
  735MOL0     C99109   5.085   5.703   7.885 -0.1776 -0.7015 -0.4582
  735MOL0     C99110   5.005   5.593   7.830  0.5440  0.3509  0.4701
  735MOL0     C99111   4.934   5.496   7.938 -0.0453  0.2377  0.0474
  735MOL0     C99112   4.831   5.565   8.029  0.1410 -0.0398 -0.2959
  735MOL0     C99113   4.731   5.644   7.953 -0.2682 -0.2377  0.0578
  735MOL0     O99114   4.662   5.568   7.854  0.5762 -0.5091  0.1387
  735MOL0     C99115   4.529   5.536   7.881  0.4362  0.0397  0.1386
  735MOL0     C99116   4.494   5.401   7.884 -0.4320 -0.5144  0.1496
  735MOL0     C99117   4.365   5.355   7.908  0.6089 -0.7126  0.6068
  735MOL0     C99118   4.356   5.204   7.898  0.4410  0.1637 -0.5474
  735MOL0     C99119   4.265   5.455   7.932  0.4834 -0.5239 -0.5752
  735MOL0     C99120   4.128   5.428   7.971 -0.0218  0.1833  0.0582
  735MOL0     O99121   4.039   5.525   7.978 -0.4371  0.1666  0.3566
  735MOL0     C99122   3.916   5.482   8.023 -0.0019  0.5761  0.7889
  735MOL0     C99123   3.869   5.503   8.150 -0.5402  0.5486 -0.2297
  735MOL0     C99124   3.751   5.451   8.188 -0.2650 -0.8922  0.2759
  735MOL0     C99125   3.672   5.380   8.093 -0.3244 -0.3567 -0.3068
  735MOL0     O99126   3.554   5.321   8.131  0.2270  0.0858  0.1857
  735MOL0     C99127   3.469   5.385   8.231 -0.1337 -0.3981 -0.1488
  735MOL0     C99128   3.327   5.321   8.241 -1.0137 -0.6353  0.5562
  735MOL0     C99129   3.228   5.435   8.266 -0.1002  0.6057 -0.7772
  735MOL0     C99130   3.090   5.380   8.276 -0.0303 -0.4436  0.8712
  735MOL0     C99131   3.030   5.339   8.140 -0.0358  0.7631 -0.5496
  735MOL0     C99132   2.869   5.344   8.153 -0.6435 -0.3969  0.2410
  735MOL0     C99133   2.819   5.233   8.252  0.4215  0.3343  0.0550
  735MOL0     C99134   2.690   5.264   8.319  0.8579  0.1174 -0.4148
  735MOL0    Cl99135   2.549   5.305   8.199 -0.0684  0.3523 -0.2920
  735MOL0     C99136   3.720   5.352   7.967 -1.2396 -0.7273 -0.7185
  735MOL0     C99137   3.846   5.409   7.934  0.2541 -0.0204  0.5965
  735MOL0     O99138   4.111   5.313   8.009 -0.1460 -0.1813 -0.5321
  735MOL0     C99139   4.304   5.591   7.936  0.0830 -0.1906 -0.0473
  735MOL0     C99140   4.430   5.631   7.910  0.1358  0.3539  0.3299
  735MOL0     N99141   5.025   5.811   7.955  0.7590  0.5307  0.5978
  735MOL0     N99142   5.112   5.891   8.006  0.7107  0.1406 -0.6290
  735MOL0     C99143   6.308   5.963   7.423  0.2545 -0.0436  0.1274
  735MOL0     C99144   6.437   6.002   7.379  0.0187 -0.1122  0.4228
  735MOL0     C99145   6.783   6.315   7.303  0.3266  0.6542  0.7982
  735MOL0     C99146   6.836   6.439   7.294  0.2664  0.4099 -0.4949
  735MOL0     C99147   6.969   6.472   7.262  1.0079  0.1133 -1.1923
  735MOL0     C99148   7.057   6.368   7.231 -0.0663  0.6306  0.5069
  735MOL0     O99149   7.186   6.371   7.181  0.1572 -0.1741  0.0197
  735MOL0     C99150   7.240   6.498   7.140 -0.5379 -0.0431 -0.5649
  735MOL0     C99151   7.377   6.475   7.067 -0.7697  0.7170  0.3995
  735MOL0     C99152   7.469   6.602   7.092  1.0806  0.0802 -0.6648
  735MOL0     C99153   7.618   6.577   7.054  0.0493 -1.0652 -0.2115
  735MOL0     C99154   7.630   6.569   6.908 -0.0561  0.1674  0.0640
  735MOL0     C99155   7.621   6.553   6.789 -0.5094 -0.1993 -0.4635
  735MOL0     C99156   7.009   6.240   7.241  0.4337 -0.0176 -0.3739
  735MOL0     C99157   6.874   6.213   7.274  0.5665 -0.8486 -0.1505
  735MOL0     H99158   6.483   6.277   7.577 -1.0811  0.1243  1.3174
  735MOL0     H99159   6.268   6.197   7.668  0.3730  2.3732 -0.0626
  735MOL0     H99160   6.012   5.877   7.476 -0.5254 -0.2942 -0.0818
  735MOL0     H99161   6.148   5.800   7.545  0.8284  1.0467 -0.5281
  735MOL0     H99162   5.957   5.752   7.685  2.8354 -1.1749  0.9724
  735MOL0     H99163   6.072   5.845   7.781 -0.2485 -0.8445  0.7994
  735MOL0     H99164   5.950   6.041   7.760  0.3534  0.5155 -0.2289
  735MOL0     H99165   5.846   5.974   7.639 -0.8378  2.3431  0.9379
  735MOL0     H99166   5.755   5.794   7.801  2.8116 -0.8583 -2.1679
  735MOL0     H99167   5.852   5.879   7.927 -0.5153  1.1581 -0.3699
  735MOL0     H99168   5.743   6.088   7.862  2.7624 -0.5270  0.2920
  735MOL0     H99169   5.632   6.001   7.749  1.9348 -3.2503 -1.0547
  735MOL0     H99170   5.645   5.932   8.049 -1.3446  3.7880  2.2268
  735MOL0     H99171   5.550   6.068   8.001  0.9106  1.0082  1.6827
  735MOL0     H99172   5.442   5.919   7.826 -0.2610  1.0880  0.4307
  735MOL0     H99173   5.511   5.785   7.911  1.5191  0.9936 -4.2879
  735MOL0     H99174   5.337   6.012   8.024 -1.5204 -0.9150  0.3362
  735MOL0     H99175   5.383   5.865   8.118 -2.7471 -0.9381  0.4323
  735MOL0     H99176   5.292   5.665   7.845 -0.7526  1.3489 -1.7917
  735MOL0     H99177   4.926   5.625   7.762 -1.6111 -2.7252  1.2796
  735MOL0     H99178   5.079   5.532   7.777  0.7504  0.1748  0.9515
  735MOL0     H99179   5.014   5.464   8.005 -1.9686 -1.3187  1.7072
  735MOL0     H99180   4.898   5.402   7.896 -1.0614  0.6720 -0.0872
  735MOL0     H99181   4.887   5.634   8.091  0.3566 -0.3740 -0.1147
  735MOL0     H99182   4.773   5.496   8.091 -1.3201  1.7462  0.4122
  735MOL0     H99183   4.771   5.737   7.911 -0.6968  1.4106  2.9688
  735MOL0     H99184   4.669   5.670   8.039 -0.5728 -0.1708 -0.1818
  735MOL0     H99185   4.577   5.333   7.868  1.2808  0.8049  2.5907
  735MOL0     H99186   4.446   5.149   7.867  0.3879 -1.2735  1.6539
  735MOL0     H99187   4.320   5.162   7.993  2.8407  0.9337  0.7813
  735MOL0     H99188   4.293   5.184   7.811  2.0295 -2.0573 -1.3049
  735MOL0     H99189   3.924   5.568   8.217  1.3701  1.0620 -2.1844
  735MOL0     H99190   3.719   5.458   8.291  1.4519 -3.2875  1.0425
  735MOL0     H99191   3.511   5.383   8.332  1.2477  1.9702 -0.5805
  735MOL0     H99192   3.457   5.492   8.213 -1.5003 -0.3972  0.6832
  735MOL0     H99193   3.305   5.270   8.147 -2.4163  1.1020 -0.1227
  735MOL0     H99194   3.324   5.251   8.325  1.3860 -1.2551  0.2107
  735MOL0     H99195   3.241   5.513   8.190 -0.1040 -0.1818 -1.5960
  735MOL0     H99196   3.253   5.479   8.363 -0.2618 -1.3147  0.1833
  735MOL0     H99197   3.094   5.292   8.341 -0.5111 -0.2816  1.1235
  735MOL0     H99198   3.022   5.445   8.332 -3.5610 -0.5675 -2.7721
  735MOL0     H99199   3.052   5.233   8.124 -0.0046  0.7401 -0.3503
  735MOL0     H99200   3.063   5.402   8.057 -0.5594  2.0733  0.2132
  735MOL0     H99201   2.835   5.437   8.200 -1.0660  0.2567 -1.3033
  735MOL0     H99202   2.829   5.336   8.052 -0.5825  0.4713  0.1446
  735MOL0     H99203   2.896   5.224   8.329  0.4363  1.5356  0.1923
  735MOL0     H99204   2.811   5.133   8.207  2.4616 -0.6201  1.6565
  735MOL0     H99205   2.700   5.350   8.385 -0.8886  0.0785 -0.0594
  735MOL0     H99206   2.652   5.182   8.381 -0.3154  1.7479  1.1405
  735MOL0     H99207   3.672   5.281   7.899 -0.1660 -1.5783 -0.6069
  735MOL0     H99208   3.881   5.383   7.835  2.0666 -1.1721  1.4889
  735MOL0     H99209   4.236   5.674   7.953 -1.5329 -1.1817 -1.3009
  735MOL0     H99210   4.446   5.738   7.911 -1.1404  0.5548  1.9171
  735MOL0     H99211   6.255   5.888   7.364  0.6076  0.0127 -0.2698
  735MOL0     H99212   6.497   5.937   7.316 -0.8301  0.3390 -0.9007
  735MOL0     H99213   6.768   6.521   7.313  0.4200  1.0915 -2.6282
  735MOL0     H99214   7.009   6.572   7.253  0.8173  0.2705 -0.3185
  735MOL0     H99215   7.164   6.548   7.078  0.3092  1.5326 -0.3825
  735MOL0     H99216   7.244   6.572   7.220 -1.5820 -0.0625 -0.4728
  735MOL0     H99217   7.360   6.446   6.962 -1.3062  0.6380  0.5045
  735MOL0     H99218   7.427   6.388   7.111 -1.6259  1.0563  2.0800
  735MOL0     H99219   7.473   6.618   7.200  1.0121  0.9369 -0.7811
  735MOL0     H99220   7.424   6.690   7.046 -1.1534  0.9637  2.7847
  735MOL0     H99221   7.635   6.477   7.094 -1.5368 -0.6543  1.6423
  735MOL0     H99222   7.688   6.655   7.085 -0.2151 -1.1347  0.5608
  735MOL0     H99223   7.615   6.522   6.687 -1.4621 -2.8027  0.3190
  735MOL0     H99224   7.071   6.161   7.198 -0.7287 -0.6712 -0.9021
  735MOL0     H99225   6.845   6.108   7.276 -0.6774 -0.5145  0.5162
  736MOL0     O99226   9.143   7.258   8.903  0.0520 -0.2115  0.5726
  736MOL0     C99227   9.171   7.226   9.016  0.6592 -0.1673 -0.0600
  736MOL0     O99228   9.085   7.195   9.114  0.2500  0.1645  0.3107
  736MOL0     C99229   8.951   7.203   9.097 -0.1920 -0.5683  0.1945
  736MOL0     C99230   8.881   7.322   9.060  0.2110  0.3642 -0.4904
  736MOL0     C99231   8.741   7.331   9.065  0.8371  0.2573 -0.1434
  736MOL0     C99232   8.678   7.222   9.126  0.0078 -0.1633  0.5840
  736MOL0     O99233   8.548   7.246   9.153  0.1044 -0.1074 -0.4390
  736MOL0     C99234   8.469   7.149   9.232  0.1659 -0.2001 -0.1363
  736MOL0     C99235   8.341   7.210   9.281 -0.3637  0.8504  1.4092
  736MOL0     C99236   8.241   7.259   9.166 -1.1733 -0.5479  0.1319
  736MOL0     C99237   8.120   7.330   9.230  0.2075  1.2838 -0.3393
  736MOL0     C99238   7.990   7.330   9.158 -0.2878 -0.1326 -0.4952
  736MOL0     C99239   7.918   7.188   9.115 -0.2752 -0.7155  0.4035
  736MOL0     C99240   7.776   7.232   9.092  0.6920 -0.3844 -0.5135
  736MOL0     C99241   7.698   7.122   9.020  0.3336 -0.3387  0.1894
  736MOL0     N99242   7.558   7.140   9.001 -0.0168  0.3280 -0.1144
  736MOL0     C99243   7.488   7.146   8.884  0.5225 -0.4747 -0.4981
  736MOL0     C99244   7.359   7.139   8.935  0.2380  0.5657  1.1675
  736MOL0     C99245   7.230   7.125   8.851  0.4504 -0.7064 -0.1152
  736MOL0     C99246   7.106   7.080   8.931 -0.4002 -0.1501  0.2466
  736MOL0     C99247   6.988   7.125   8.843 -0.1983  0.0846 -0.8696
  736MOL0     C99248   6.855   7.072   8.887  0.4199 -0.5931 -0.4546
  736MOL0     O99249   6.761   7.177   8.870 -0.5526 -0.5328 -0.3745
  736MOL0     C99250   6.621   7.164   8.872  0.1504 -0.2012  0.2004
  736MOL0     C99251   6.568   7.048   8.918 -0.0214 -0.3364 -0.1903
  736MOL0     C99252   6.431   7.021   8.902 -0.8699  0.5248  0.5157
  736MOL0     C99253   6.382   6.875   8.945 -0.1259 -0.0149  0.6815
  736MOL0     C99254   6.348   7.122   8.854 -0.2912  0.3012 -0.2426
  736MOL0     C99255   6.204   7.109   8.822 -0.1814 -1.4897 -0.5145
  736MOL0     O99256   6.157   7.195   8.724 -0.1485  0.4203  0.2298
  736MOL0     C99257   6.027   7.185   8.675 -0.2125 -0.4151  0.3663
  736MOL0     C99258   5.972   7.060   8.643  0.6722 -0.3532  0.6484
  736MOL0     C99259   5.843   7.052   8.588 -0.1211 -0.0974 -0.0692
  736MOL0     C99260   5.760   7.167   8.571 -0.9479  0.1263  0.9589
  736MOL0     O99261   5.634   7.167   8.519  0.2002 -0.2948 -0.4791
  736MOL0     C99262   5.549   7.068   8.591  0.2384  0.0357  0.4702
  736MOL0     C99263   5.396   7.091   8.559  0.3862 -0.0883  0.3999
  736MOL0     C99264   5.374   7.128   8.409 -0.0413  0.3179  0.8005
  736MOL0     C99265   5.222   7.140   8.385 -0.4695  0.0172 -0.4573
  736MOL0     C99266   5.183   7.190   8.248  0.2494 -0.1347 -0.6548
  736MOL0     C99267   5.041   7.141   8.232 -0.3237 -0.5212  0.0969
  736MOL0     C99268   4.966   7.200   8.110 -0.4361  0.9160 -0.2368
  736MOL0     C99269   5.027   7.185   7.973 -0.4675  0.8858  0.1625
  736MOL0    Cl99270   4.928   7.281   7.863 -0.4189 -0.1935 -0.6005
  736MOL0     C99271   5.821   7.295   8.604  0.0654 -0.1000  1.8448
  736MOL0     C99272   5.952   7.298   8.659 -0.4115  0.3310  0.4624
  736MOL0     O99273   6.140   7.025   8.882  0.1547 -0.6775  0.5745
  736MOL0     C99274   6.403   7.249   8.808 -0.6421  0.4359 -0.1362
  736MOL0     C99275   6.539   7.266   8.817 -0.0158 -0.3124 -1.0477
  736MOL0     N99276   7.357   7.145   9.073  0.3554 -0.0132  0.3775
  736MOL0     N99277   7.477   7.126   9.111  0.3077  0.0678  0.0463
  736MOL0     C99278   8.747   7.110   9.176 -0.2334  0.8251  0.7302
  736MOL0     C99279   8.881   7.103   9.166 -0.0418 -0.3706 -0.6183
  736MOL0     C99280   9.306   7.185   9.046 -1.2809  1.0179  0.2647
  736MOL0     C99281   9.345   7.119   9.163  1.1316  0.7219  1.1029
  736MOL0     C99282   9.476   7.074   9.183  0.2823 -0.4982 -0.1011
  736MOL0     C99283   9.570   7.090   9.093 -0.4569 -0.5374  0.5323
  736MOL0     O99284   9.688   7.039   9.133  0.0590 -0.5963  0.2396
  736MOL0     C99285   9.806   7.050   9.059 -0.3941  0.3371 -0.1338
  736MOL0     C99286   9.904   6.958   9.134 -0.2892 -0.3637 -0.4675
  736MOL0     C99287  10.028   6.937   9.059 -0.7264  0.5164 -0.6076
  736MOL0     C99288  10.106   6.833   9.128  0.0456 -0.1339 -1.1735
  736MOL0     C99289  10.231   6.803   9.056 -0.0289 -0.6318  0.4022
  736MOL0     C99290  10.337   6.760   9.009  0.2797  0.7212  0.1951
  736MOL0     C99291   9.541   7.162   8.976 -0.1132 -0.4321 -0.2368
  736MOL0     C99292   9.421   7.224   8.955 -0.2584  0.4493  0.2116
  736MOL0     H99293   8.935   7.409   9.026 -1.6642  1.3593 -1.0338
  736MOL0     H99294   8.690   7.421   9.030  1.0149  0.4915  0.1906
  736MOL0     H99295   8.447   7.075   9.155  0.9489  2.3400 -3.0284
  736MOL0     H99296   8.528   7.117   9.318 -0.8392 -0.4919  0.4585
  736MOL0     H99297   8.291   7.130   9.336 -1.9563  0.6879 -0.1678
  736MOL0     H99298   8.352   7.298   9.345  0.6958 -0.6432  3.3771
  736MOL0     H99299   8.294   7.336   9.111 -0.1225 -0.2970  1.4308
  736MOL0     H99300   8.222   7.183   9.090 -2.1670 -0.9152  0.7213
  736MOL0     H99301   8.095   7.265   9.314  0.1339 -0.5252 -1.6944
  736MOL0     H99302   8.146   7.426   9.275 -0.4270  1.5954 -0.6344
  736MOL0     H99303   7.919   7.398   9.207 -0.5990  1.8887 -3.4673
  736MOL0     H99304   7.998   7.392   9.068 -0.3853  1.3999  0.5127
  736MOL0     H99305   7.971   7.148   9.029  0.0767 -0.3090  0.4260
  736MOL0     H99306   7.917   7.113   9.195 -1.7548  0.5571  1.6436
  736MOL0     H99307   7.730   7.239   9.191 -0.0407 -3.2782 -0.5398
  736MOL0     H99308   7.765   7.327   9.039 -0.2343  0.6933  1.4932
  736MOL0     H99309   7.709   7.031   9.079  1.3509  0.5667  1.4356
  736MOL0     H99310   7.762   7.108   8.932  3.2803  0.4530  2.0576
  736MOL0     H99311   7.522   7.144   8.780  2.1494 -0.4456  0.0081
  736MOL0     H99312   7.223   7.229   8.818  1.1278 -0.4285  0.5832
  736MOL0     H99313   7.232   7.063   8.761  0.6831  1.9059 -2.0099
  736MOL0     H99314   7.102   7.124   9.031  1.4475 -1.8137  1.1273
  736MOL0     H99315   7.108   6.972   8.945  0.0773 -0.2637 -0.6132
  736MOL0     H99316   6.998   7.089   8.741  0.3012 -2.3585 -0.0284
  736MOL0     H99317   6.977   7.234   8.842 -2.3657 -0.0532  1.0232
  736MOL0     H99318   6.864   7.043   8.992 -2.2178  0.6668  0.1980
  736MOL0     H99319   6.819   6.987   8.829  1.0958 -2.3605  1.5987
  736MOL0     H99320   6.633   6.972   8.959  2.5505  0.9742 -1.5745
  736MOL0     H99321   6.461   6.807   8.978 -0.6538 -0.7890  0.3697
  736MOL0     H99322   6.306   6.873   9.024  0.2932 -0.8147  1.0744
  736MOL0     H99323   6.339   6.822   8.860 -0.3392 -0.1430  0.8683
  736MOL0     H99324   6.024   6.969   8.674 -0.7916 -1.4726 -0.0194
  736MOL0     H99325   5.804   6.954   8.565  0.3376 -0.4143  0.4721
  736MOL0     H99326   5.567   6.967   8.554  2.7384  0.5148  0.2408
  736MOL0     H99327   5.561   7.069   8.700 -1.6179 -3.0588  0.8211
  736MOL0     H99328   5.331   7.006   8.584 -2.6856  0.7616 -3.6585
  736MOL0     H99329   5.359   7.172   8.623 -1.3994 -2.4603  2.5706
  736MOL0     H99330   5.392   7.037   8.353 -2.5084 -1.5655  2.8211
  736MOL0     H99331   5.435   7.207   8.364 -1.4564 -0.4101 -2.7155
  736MOL0     H99332   5.176   7.042   8.401  3.0079 -1.8934 -1.1526
  736MOL0     H99333   5.184   7.211   8.459 -0.6065  0.8301 -1.2861
  736MOL0     H99334   5.249   7.155   8.168  3.4092 -0.7970  2.0075
  736MOL0     H99335   5.195   7.298   8.243  0.6906 -0.1659 -0.3932
  736MOL0     H99336   5.034   7.032   8.220  2.8220 -0.7577 -0.4139
  736MOL0     H99337   4.982   7.181   8.316 -0.5031  2.3726 -1.2789
  736MOL0     H99338   4.966   7.307   8.132  0.4040  1.3975 -2.3179
  736MOL0     H99339   4.861   7.168   8.106 -0.1400 -0.6751  2.3417
  736MOL0     H99340   5.013   7.086   7.928 -1.6803  2.4879 -3.3786
  736MOL0     H99341   5.133   7.205   7.961  0.0344 -0.7122  1.6190
  736MOL0     H99342   5.765   7.388   8.600  1.8081  0.9965 -2.0448
  736MOL0     H99343   5.994   7.394   8.686 -0.2248  0.3892 -0.0322
  736MOL0     H99344   6.349   7.337   8.775  0.5339  1.2416  0.0050
  736MOL0     H99345   6.577   7.359   8.776  0.5780  0.4858  1.1684
  736MOL0     H99346   8.705   7.024   9.227 -1.2274  0.9375  0.1126
  736MOL0     H99347   8.933   7.018   9.209 -0.9704 -2.2228 -2.9420
  736MOL0     H99348   9.271   7.112   9.243  1.4135  2.2543  1.5440
  736MOL0     H99349   9.487   7.018   9.276  0.7717 -1.9384 -1.0045
  736MOL0     H99350   9.788   7.017   8.956  1.2878  2.2297 -1.0873
  736MOL0     H99351   9.846   7.150   9.040 -0.7225  0.6784  0.9097
  736MOL0     H99352   9.866   6.858   9.158  0.4872 -1.0620 -2.0320
  736MOL0     H99353   9.932   7.004   9.229 -2.5217 -0.9348  0.5534
  736MOL0     H99354  10.088   7.027   9.069 -1.1842  1.1464 -2.9342
  736MOL0     H99355  10.005   6.913   8.954 -1.6409 -3.0543  0.2440
  736MOL0     H99356  10.054   6.739   9.143  0.1816 -0.3374 -1.9543
  736MOL0     H99357  10.124   6.883   9.225  0.2849 -0.2676 -1.1476
  736MOL0     H99358  10.425   6.707   8.980 -1.0776 -1.6027  0.0632
  736MOL0     H99359   9.624   7.190   8.912  1.9520 -2.8468  1.1839
  736MOL0     H99360   9.406   7.282   8.864 -0.5681  1.1553  0.7009
  737MOL0     O99361  10.051   7.084   9.714  0.4516  0.2268 -0.0654
  737MOL0     C99362  10.104   7.189   9.684 -0.4392 -0.2639  0.3167
  737MOL0     O99363  10.051   7.289   9.609 -0.7183 -0.2894  0.0368
  737MOL0     C99364   9.919   7.267   9.567  0.1797  0.3039  0.4462
  737MOL0     C99365   9.875   7.153   9.491  0.3326 -0.2221  0.4855
  737MOL0     C99366   9.737   7.148   9.465  0.6800  1.1232 -0.3423
  737MOL0     C99367   9.642   7.245   9.513 -1.1183  0.7418  0.1448
  737MOL0     O99368   9.512   7.218   9.481 -0.2076  1.0455  0.1720
  737MOL0     C99369   9.421   7.327   9.511  0.4359  0.9719  0.4774
  737MOL0     C99370   9.290   7.302   9.441  0.2188  0.1801 -0.6439
  737MOL0     C99371   9.187   7.397   9.509 -0.3987  0.6197 -0.8299
  737MOL0     C99372   9.046   7.359   9.460 -0.3188 -0.9158 -0.4141
  737MOL0     C99373   8.940   7.456   9.520  0.1276 -0.6388  0.8828
  737MOL0     C99374   8.791   7.443   9.471 -0.2305 -0.2800  0.4912
  737MOL0     C99375   8.698   7.544   9.546 -0.3053 -0.2323  0.5780
  737MOL0     C99376   8.557   7.544   9.503 -0.0948  0.2279 -0.0001
  737MOL0     N99377   8.489   7.646   9.578 -0.5505  0.2455  1.0387
  737MOL0     C99378   8.404   7.642   9.686 -0.0125 -0.1431 -0.3455
  737MOL0     C99379   8.350   7.767   9.694 -0.8232 -0.4607 -0.0216
  737MOL0     C99380   8.260   7.815   9.801  0.5070  0.1998 -0.5964
  737MOL0     C99381   8.137   7.729   9.826 -0.4342 -0.1345 -0.8102
  737MOL0     C99382   8.044   7.715   9.705 -0.8062 -0.4274  0.5897
  737MOL0     C99383   7.897   7.654   9.745  0.2353 -0.6988  0.2188
  737MOL0     O99384   7.796   7.759   9.732 -0.3778  0.1615 -0.3002
  737MOL0     C99385   7.679   7.719   9.781 -0.2129 -0.2763 -0.5134
  737MOL0     C99386   7.661   7.650   9.904  0.3613 -0.3985 -0.6192
  737MOL0     C99387   7.536   7.605   9.943 -0.1896  0.3172  0.5865
  737MOL0     C99388   7.523   7.548  10.084 -0.9829 -0.7450  0.1504
  737MOL0     C99389   7.425   7.613   9.850  0.1181  0.4946 -0.1951
  737MOL0     C99390   7.291   7.557   9.875  0.0367  0.1139 -0.7476
  737MOL0     O99391   7.203   7.570   9.780 -1.0638 -0.3773  0.8218
  737MOL0     C99392   7.065   7.552   9.792 -1.0670 -0.7453 -0.4786
  737MOL0     C99393   7.011   7.444   9.866 -0.3689 -0.3943  0.3336
  737MOL0     C99394   6.873   7.422   9.883 -0.4854 -0.4409 -0.5935
  737MOL0     C99395   6.788   7.508   9.825  0.0190  0.4489  0.1740
  737MOL0     O99396   6.658   7.487   9.841  1.0396  0.5373 -0.1943
  737MOL0     C99397   6.561   7.544   9.744  0.2528 -0.9437 -0.0465
  737MOL0     C99398   6.418   7.478   9.751 -0.6565 -0.0912  0.5208
  737MOL0     C99399   6.320   7.553   9.664  0.6129 -0.4971  0.4419
  737MOL0     C99400   6.191   7.455   9.652 -0.5145 -1.0568 -0.2057
  737MOL0     C99401   6.080   7.514   9.569  0.6461 -0.1046  0.0252
  737MOL0     C99402   5.966   7.420   9.560  0.5064  0.0755  0.5512
  737MOL0     C99403   5.838   7.487   9.515 -0.2950  0.3948 -0.0499
  737MOL0     C99404   5.737   7.371   9.514  0.6751  0.1521  0.2771
  737MOL0    Cl99405   5.591   7.399   9.414  0.0715  0.4653 -0.0795
  737MOL0     C99406   6.838   7.615   9.752  0.2026  0.5268 -0.2185
  737MOL0     C99407   6.977   7.639   9.736 -0.5298 -0.8228  0.3400
  737MOL0     O99408   7.256   7.509   9.986  0.2235  0.2280 -1.1599
  737MOL0     C99409   7.446   7.690   9.733  0.5281  0.3023 -0.9433
  737MOL0     C99410   7.569   7.737   9.697 -0.7482  0.7555  0.1125
  737MOL0     N99411   8.397   7.844   9.596  0.3945  1.0164  0.3215
  737MOL0     N99412   8.472   7.768   9.519 -0.7027 -0.1398 -0.3689
  737MOL0     C99413   9.693   7.346   9.602 -0.7815 -0.7092  0.0506
  737MOL0     C99414   9.831   7.362   9.621 -0.4259  0.7644  0.0259
  737MOL0     C99415  10.249   7.202   9.720  0.1760  0.0981  0.5761
  737MOL0     C99416  10.335   7.101   9.769 -0.2187  0.1815 -0.0255
  737MOL0     C99417  10.470   7.118   9.788 -0.2627 -0.4780 -0.2669
  737MOL0     C99418  10.530   7.249   9.768 -0.0830 -0.0628 -0.0064
  737MOL0     O99419  10.667   7.279   9.784  0.1156 -0.8889 -0.5711
  737MOL0     C99420  10.755   7.166   9.795  0.2311  0.1551 -1.0103
  737MOL0     C99421  10.895   7.207   9.776  0.6331  0.3396 -0.0912
  737MOL0     C99422  10.912   7.299   9.645 -0.2202  0.2800 -0.4132
  737MOL0     C99423  10.867   7.210   9.522  0.3607  0.1846  0.0621
  737MOL0     C99424  10.884   7.266   9.397 -0.0608 -0.4204 -0.0473
  737MOL0     C99425  10.894   7.326   9.292  0.4784 -0.6454 -0.0155
  737MOL0     C99426  10.443   7.350   9.722  0.4408 -0.1446 -0.2964
  737MOL0     C99427  10.306   7.327   9.698 -0.2498 -0.4731  0.3810
  737MOL0     H99428   9.935   7.071   9.452  4.6786  2.6090  0.5508
  737MOL0     H99429   9.699   7.075   9.394  0.2762  2.8052 -1.9384
  737MOL0     H99430   9.410   7.334   9.619  0.4568 -2.6323  0.8396
  737MOL0     H99431   9.469   7.415   9.467  1.7042  0.5837  1.0428
  737MOL0     H99432   9.304   7.321   9.334  0.2540 -0.3994 -0.7456
  737MOL0     H99433   9.253   7.200   9.460  0.7285  0.1589  0.2475
  737MOL0     H99434   9.200   7.395   9.617 -0.4719 -0.0725 -0.8254
  737MOL0     H99435   9.205   7.497   9.468  1.0523 -0.0537 -1.9646
  737MOL0     H99436   9.047   7.382   9.353  1.6299 -0.3962 -0.3370
  737MOL0     H99437   9.022   7.254   9.480  2.5336 -1.4343  0.8004
  737MOL0     H99438   8.935   7.433   9.627  0.0797 -2.4097  0.5225
  737MOL0     H99439   8.984   7.555   9.505 -5.0899  1.7715 -1.3082
  737MOL0     H99440   8.787   7.456   9.362  0.8538  2.0872  0.6750
  737MOL0     H99441   8.759   7.341   9.496  3.4458 -1.6393  0.2935
  737MOL0     H99442   8.704   7.525   9.654  0.4185 -0.7660  0.4535
  737MOL0     H99443   8.742   7.642   9.521 -2.1932  1.0845  2.1349
  737MOL0     H99444   8.516   7.449   9.538  1.3261 -0.5797 -0.4733
  737MOL0     H99445   8.544   7.554   9.394  0.9872  2.9006  0.0496
  737MOL0     H99446   8.391   7.560   9.756  1.0411 -1.2578 -1.4095
  737MOL0     H99447   8.304   7.800   9.900 -1.4004  0.4720  0.3356
  737MOL0     H99448   8.227   7.919   9.790 -1.9298 -0.4884 -0.1578
  737MOL0     H99449   8.087   7.778   9.910  0.3858  4.4666 -2.7568
  737MOL0     H99450   8.174   7.628   9.850 -1.3510 -0.1691  0.5971
  737MOL0     H99451   8.078   7.641   9.631  1.8415  0.0402  1.2270
  737MOL0     H99452   8.039   7.809   9.650  1.2093  1.3345  3.1696
  737MOL0     H99453   7.911   7.602   9.841  1.2516  0.2973  0.6288
  737MOL0     H99454   7.876   7.579   9.668 -0.0229  1.3122 -1.7667
  737MOL0     H99455   7.739   7.621   9.974  2.0961  2.1256 -1.3382
  737MOL0     H99456   7.451   7.610  10.138 -1.2688  0.3941 -1.4617
  737MOL0     H99457   7.492   7.443  10.081 -1.5498 -0.5733 -0.0689
  737MOL0     H99458   7.612   7.546  10.148 -0.0652 -2.9792 -1.0692
  737MOL0     H99459   7.075   7.374   9.920  0.1282  0.7825  1.3077
  737MOL0     H99460   6.845   7.337   9.945  0.8533 -1.1717 -0.9455
  737MOL0     H99461   6.546   7.652   9.754 -0.5125 -1.1110  0.7882
  737MOL0     H99462   6.609   7.531   9.647 -1.2264 -1.0802 -0.7996
  737MOL0     H99463   6.433   7.375   9.716  3.0293  0.1447  1.0334
  737MOL0     H99464   6.387   7.465   9.855  0.9309 -3.1037  0.7134
  737MOL0     H99465   6.360   7.574   9.564 -1.5989  0.3850 -0.3213
  737MOL0     H99466   6.298   7.652   9.706 -1.1047 -0.5199 -0.3281
  737MOL0     H99467   6.216   7.354   9.618  0.8288 -1.3586  1.5715
  737MOL0     H99468   6.154   7.448   9.755 -0.0267 -2.5705 -0.1110
  737MOL0     H99469   6.120   7.544   9.472  2.3324  2.9440  1.4982
  737MOL0     H99470   6.046   7.611   9.608 -1.2676 -0.8700  0.3516
  737MOL0     H99471   5.995   7.334   9.499  1.2939  0.7260 -0.0164
  737MOL0     H99472   5.951   7.379   9.661 -1.0493  0.1827  0.3883
  737MOL0     H99473   5.853   7.535   9.418 -0.7772  0.7455  0.0407
  737MOL0     H99474   5.792   7.558   9.585 -2.6246 -0.2177 -0.8471
  737MOL0     H99475   5.705   7.358   9.617 -0.1388  0.5292  0.0816
  737MOL0     H99476   5.770   7.271   9.486  1.6350  0.0543  1.6568
  737MOL0     H99477   6.764   7.688   9.720  1.0956  1.5282 -0.0648
  737MOL0     H99478   7.008   7.731   9.688  2.2024 -0.8257  1.8892
  737MOL0     H99479   7.361   7.709   9.667 -1.8935  0.0847  1.9152
  737MOL0     H99480   7.583   7.779   9.598 -0.3140 -0.3846 -0.3125
  737MOL0     H99481   9.632   7.425   9.645  1.1192  1.2263 -0.6677
  737MOL0     H99482   9.869   7.437   9.690 -1.2153  1.4060 -0.2192
  737MOL0     H99483  10.293   7.005   9.801 -0.3084 -0.8513 -2.9686
  737MOL0     H99484  10.540   7.038   9.808 -0.5318 -1.3606 -2.5951
  737MOL0     H99485  10.744   7.122   9.895  1.9533 -1.7921 -1.6186
  737MOL0     H99486  10.733   7.089   9.721 -2.2013  1.0521 -1.3262
  737MOL0     H99487  10.957   7.118   9.787  1.4332  1.0838  2.0554
  737MOL0     H99488  10.907   7.270   9.865 -2.1463  2.0123 -0.7606
  737MOL0     H99489  11.015   7.333   9.632 -0.5835  1.9092  0.6500
  737MOL0     H99490  10.853   7.391   9.652  1.1049  1.3498 -2.2850
  737MOL0     H99491  10.758   7.200   9.526  0.3799 -0.2231 -0.3496
  737MOL0     H99492  10.912   7.111   9.511 -1.4169 -0.4409 -2.5869
  737MOL0     H99493  10.908   7.368   9.195 -1.7906  0.8891  0.2455
  737MOL0     H99494  10.489   7.446   9.704 -2.5875  1.3470 -0.5315
  737MOL0     H99495  10.250   7.412   9.661  0.3368  0.1443  0.8901
  738MOL0     O99496   9.478  10.526   2.903  0.1465  0.3794 -1.0293
  738MOL0     C99497   9.450  10.630   2.855  0.2122 -0.0128  0.1889
  738MOL0     O99498   9.542  10.712   2.788 -0.0075  0.4122  0.2274
  738MOL0     C99499   9.676  10.689   2.792  0.6426 -0.1989  0.9188
  738MOL0     C99500   9.747  10.721   2.678 -0.0133  0.9984  0.7350
  738MOL0     C99501   9.881  10.718   2.667  0.1709  0.0929  0.4050
  738MOL0     C99502   9.962  10.680   2.769 -0.5811 -0.8408  0.0493
  738MOL0     O99503  10.095  10.709   2.751  0.2156  0.1697 -0.0011
  738MOL0     C99504  10.177  10.734   2.868 -0.7387 -0.2775 -0.1406
  738MOL0     C99505  10.262  10.610   2.918  0.1330 -0.9804  0.2659
  738MOL0     C99506  10.342  10.558   2.798  0.0271  0.2080 -0.8179
  738MOL0     C99507  10.465  10.639   2.779 -0.2826 -0.2482  0.5161
  738MOL0     C99508  10.545  10.574   2.669 -0.2210 -0.6131 -0.4025
  738MOL0     C99509  10.503  10.622   2.528 -0.7162 -0.3746  0.3478
  738MOL0     C99510  10.604  10.563   2.417  0.4787 -0.4065  0.1762
  738MOL0     C99511  10.594  10.413   2.397  0.3058 -0.0773 -0.1029
  738MOL0     N99512  10.454  10.378   2.375 -0.5961  0.4286  0.6737
  738MOL0     C99513  10.371  10.315   2.465  1.0620 -0.1904 -0.7943
  738MOL0     C99514  10.248  10.313   2.409 -0.2314  0.4209  0.5534
  738MOL0     C99515  10.129  10.258   2.486  0.3575 -0.1693 -0.1015
  738MOL0     C99516  10.046  10.376   2.546  0.5497 -0.2386  0.3429
  738MOL0     C99517   9.934  10.332   2.642  0.4226  0.0507 -0.5795
  738MOL0     C99518   9.840  10.212   2.599 -0.2250  0.0924  0.4099
  738MOL0     O99519   9.820  10.210   2.456 -0.0548 -0.8660  0.0570
  738MOL0     C99520   9.691  10.234   2.417  0.0303  0.4503  0.1265
  738MOL0     C99521   9.665  10.304   2.302 -0.4413 -0.4531  0.9353
  738MOL0     C99522   9.542  10.335   2.246 -0.0623  1.0982  0.2521
  738MOL0     C99523   9.528  10.436   2.131 -0.6153  0.9166  0.3179
  738MOL0     C99524   9.435  10.265   2.308  0.2465 -0.7322  0.2721
  738MOL0     C99525   9.297  10.282   2.252  0.1323 -0.1522  0.3393
  738MOL0     O99526   9.217  10.197   2.308  1.1106  0.0211  0.2297
  738MOL0     C99527   9.091  10.200   2.257  0.0424  0.4972  0.1795
  738MOL0     C99528   9.041  10.119   2.151 -1.0390  0.3937  0.7254
  738MOL0     C99529   8.908  10.117   2.101 -0.3752  0.9661 -0.1142
  738MOL0     C99530   8.821  10.217   2.150 -0.8017 -0.1829 -0.3796
  738MOL0     O99531   8.696  10.240   2.099 -0.0294 -0.5814  0.0332
  738MOL0     C99532   8.646  10.136   2.016  0.3418  0.1689 -0.5607
  738MOL0     C99533   8.505  10.158   1.967  0.4908 -0.1049 -0.1818
  738MOL0     C99534   8.481  10.294   1.891 -0.3594  0.9277 -0.1160
  738MOL0     C99535   8.336  10.306   1.855  0.2731 -0.2980  0.1288
  738MOL0     C99536   8.320  10.435   1.768  0.2127 -0.5578  0.0017
  738MOL0     C99537   8.176  10.450   1.715  0.8980 -0.2482 -0.4314
  738MOL0     C99538   8.145  10.598   1.685 -0.2718  0.5111  0.6392
  738MOL0     C99539   8.112  10.675   1.809 -0.5009 -0.4319  0.2538
  738MOL0    Cl99540   8.069  10.845   1.766  0.0026 -0.4762 -0.5257
  738MOL0     C99541   8.872  10.315   2.245  0.7359  0.5529  0.1490
  738MOL0     C99542   9.003  10.292   2.305 -0.1973 -0.7082  0.1201
  738MOL0     O99543   9.262  10.359   2.157 -0.2644  0.6047 -0.2015
  738MOL0     C99544   9.456  10.177   2.418  0.3583 -0.2240 -0.1746
  738MOL0     C99545   9.582  10.161   2.473 -0.6158 -0.2360 -0.0259
  738MOL0     N99546  10.266  10.370   2.279  0.3632  0.0101  0.4440
  738MOL0     N99547  10.381  10.407   2.262 -0.5783 -0.2922  0.2577
  738MOL0     C99548   9.898  10.631   2.884  0.3907 -0.1691 -0.0275
  738MOL0     C99549   9.750  10.634   2.896 -0.8132 -0.4161  0.9340
  738MOL0     C99550   9.312  10.683   2.891 -1.0573 -0.3474  0.1216
  738MOL0     C99551   9.267  10.813   2.872  0.2749  0.0103  0.7026
  738MOL0     C99552   9.142  10.849   2.902  0.0688  0.1892 -0.2994
  738MOL0     C99553   9.044  10.756   2.952 -0.1367  0.3004 -0.4143
  738MOL0     O99554   8.910  10.778   2.968  0.0093  0.5015 -0.4250
  738MOL0     C99555   8.858  10.906   2.981 -0.1783 -0.1071  0.2647
  738MOL0     C99556   8.722  10.909   3.034 -0.3830 -0.7921  0.1305
  738MOL0     C99557   8.610  10.866   2.931 -0.2795 -0.3648 -0.1367
  738MOL0     C99558   8.571  10.989   2.838  0.9961 -0.3937 -0.6957
  738MOL0     C99559   8.438  10.956   2.796 -0.0123  0.0613  0.3826
  738MOL0     C99560   8.327  10.914   2.760  0.0077 -0.1416 -0.2270
  738MOL0     C99561   9.093  10.626   2.978 -0.0599  0.0727  0.6847
  738MOL0     C99562   9.221  10.592   2.950  0.3475 -0.4890 -0.1519
  738MOL0     H99563   9.692  10.751   2.590  2.0222  1.2000 -0.5346
  738MOL0     H99564   9.924  10.751   2.573 -0.4280  2.2901  0.8453
  738MOL0     H99565  10.255  10.806   2.839 -0.3584 -0.6663 -0.0831
  738MOL0     H99566  10.129  10.785   2.952  2.8194 -1.4172  2.8439
  738MOL0     H99567  10.326  10.640   3.001 -0.2367 -1.6906  0.8135
  738MOL0     H99568  10.195  10.528   2.943 -0.3866 -1.1265 -1.4272
  738MOL0     H99569  10.370  10.456   2.828  2.4217  1.1951  0.6507
  738MOL0     H99570  10.292  10.549   2.702 -0.3451 -0.7223 -0.5532
  738MOL0     H99571  10.443  10.740   2.744 -0.3805 -0.3714  0.2225
  738MOL0     H99572  10.531  10.633   2.866  1.3480 -1.4444 -0.7437
  738MOL0     H99573  10.645  10.608   2.696  0.7020 -1.6441 -2.3190
  738MOL0     H99574  10.548  10.466   2.678  1.6344 -0.5464  0.0791
  738MOL0     H99575  10.398  10.606   2.500 -1.2555  1.0606  1.3831
  738MOL0     H99576  10.521  10.730   2.519  0.0625 -0.5820 -0.7262
  738MOL0     H99577  10.588  10.609   2.319  2.1574  0.2717  0.1808
  738MOL0     H99578  10.708  10.584   2.444  0.6824 -0.1027 -0.7939
  738MOL0     H99579  10.626  10.363   2.489 -1.6140  2.3011  2.0290
  738MOL0     H99580  10.657  10.387   2.312 -1.6228 -0.0841 -1.6163
  738MOL0     H99581  10.385  10.292   2.570 -2.5245 -1.6651 -0.4714
  738MOL0     H99582  10.070  10.201   2.413  1.0157  0.2646 -1.0004
  738MOL0     H99583  10.166  10.187   2.561  0.7452 -0.0108 -0.1353
  738MOL0     H99584  10.006  10.436   2.464  1.3832 -0.7891 -0.4850
  738MOL0     H99585  10.117  10.437   2.603 -0.2718 -0.8318  2.0542
  738MOL0     H99586   9.876  10.421   2.667  1.3058 -0.1626  2.6233
  738MOL0     H99587   9.975  10.314   2.741 -0.2654  1.4034 -0.0253
  738MOL0     H99588   9.751  10.226   2.661  0.5649  1.0711  1.3756
  738MOL0     H99589   9.894  10.119   2.618 -0.2126  0.1446  0.6409
  738MOL0     H99590   9.749  10.356   2.258 -0.8478 -0.0502  0.6180
  738MOL0     H99591   9.474  10.527   2.160 -1.5305  0.1874  0.9596
  738MOL0     H99592   9.631  10.464   2.111 -0.7735 -0.0216 -2.0569
  738MOL0     H99593   9.468  10.393   2.051 -0.3669 -0.1033  0.6707
  738MOL0     H99594   9.109  10.057   2.093  0.1556  2.3772 -0.0902
  738MOL0     H99595   8.865  10.041   2.037 -2.5088  2.0532 -0.0667
  738MOL0     H99596   8.706  10.116   1.927  2.5204  0.9272  0.6764
  738MOL0     H99597   8.652  10.040   2.068  0.7378 -0.8257 -2.3552
  738MOL0     H99598   8.477  10.092   1.884 -0.2540 -2.6013  1.9562
  738MOL0     H99599   8.428  10.152   2.045 -0.1218  0.5937 -0.7072
  738MOL0     H99600   8.535  10.296   1.796 -0.4311 -0.4986 -0.2037
  738MOL0     H99601   8.519  10.370   1.961  1.2965 -1.8085  2.1484
  738MOL0     H99602   8.301  10.217   1.804 -0.0486 -0.0413 -0.1013
  738MOL0     H99603   8.275  10.313   1.945 -0.6938 -1.1260 -0.4503
  738MOL0     H99604   8.384  10.426   1.680 -0.2686 -0.9862 -0.3103
  738MOL0     H99605   8.344  10.525   1.827 -2.3933 -1.4473  2.6827
  738MOL0     H99606   8.168  10.394   1.622 -2.4569  1.3005 -1.2150
  738MOL0     H99607   8.103  10.411   1.787  0.7941  0.4052 -0.1752
  738MOL0     H99608   8.055  10.600   1.623 -0.7706  3.1275  1.3241
  738MOL0     H99609   8.217  10.644   1.616 -1.3425 -1.6894 -2.1402
  738MOL0     H99610   8.204  10.682   1.867  0.0423  1.2416 -0.7243
  738MOL0     H99611   8.029  10.629   1.863 -0.0310 -4.9331 -2.3735
  738MOL0     H99612   8.816  10.404   2.269 -2.3624 -1.3833  0.5848
  738MOL0     H99613   9.038  10.366   2.376  0.7395 -2.7338  1.9015
  738MOL0     H99614   9.374  10.126   2.468 -1.6926  2.7203 -0.2559
  738MOL0     H99615   9.602  10.088   2.550  2.5375  0.0619 -0.4153
  738MOL0     H99616   9.953  10.601   2.972 -0.7642 -4.0263 -0.4087
  738MOL0     H99617   9.697  10.594   2.981  0.0188 -1.4462  0.9899
  738MOL0     H99618   9.335  10.890   2.837 -1.9884  2.8114  2.0389
  738MOL0     H99619   9.116  10.954   2.892  2.0695  0.5761 -2.4345
  738MOL0     H99620   8.929  10.959   3.045  1.8385 -0.7065 -1.3633
  738MOL0     H99621   8.850  10.953   2.883 -3.8831 -2.2367 -0.6227
  738MOL0     H99622   8.697  11.008   3.073 -1.4295 -0.1650 -1.9802
  738MOL0     H99623   8.720  10.848   3.126  1.3366  0.1306  0.8380
  738MOL0     H99624   8.520  10.829   2.980 -1.1072  1.7279  0.0116
  738MOL0     H99625   8.644  10.790   2.860  0.2788 -1.9429  1.7484
  738MOL0     H99626   8.652  10.999   2.765  1.4814  1.8619  0.0732
  738MOL0     H99627   8.562  11.087   2.886  2.0595 -0.7453  0.2552
  738MOL0     H99628   8.238  10.875   2.714 -0.7637 -0.4519  1.4431
  738MOL0     H99629   9.029  10.541   2.998 -1.6188  1.4671  1.8699
  738MOL0     H99630   9.247  10.488   2.969 -0.1708 -0.5834  0.0634
  739MOL0     O99631  11.213   6.746   8.189 -0.0189 -0.1147  0.7551
  739MOL0     C99632  11.261   6.722   8.300  1.0048  0.1557 -0.2360
  739MOL0     O99633  11.180   6.660   8.397 -1.0533 -0.5093 -0.5082
  739MOL0     C99634  11.044   6.669   8.386  0.2597  0.0237  0.1221
  739MOL0     C99635  10.971   6.699   8.501  0.0589  0.8933  0.3470
  739MOL0     C99636  10.831   6.695   8.497  0.2972  0.0001 -0.0990
  739MOL0     C99637  10.762   6.677   8.378 -0.2627  0.2619 -1.0293
  739MOL0     O99638  10.626   6.673   8.390 -0.5292 -0.1308  0.1438
  739MOL0     C99639  10.550   6.604   8.286 -0.3684  0.6014  1.3592
  739MOL0     C99640  10.401   6.585   8.326 -0.4636 -0.0866 -0.5150
  739MOL0     C99641  10.318   6.540   8.211  1.1722 -0.2015 -0.1627
  739MOL0     C99642  10.182   6.484   8.258 -0.2156 -0.5436 -0.1667
  739MOL0     C99643  10.103   6.419   8.150 -0.6420 -0.8596 -0.1831
  739MOL0     C99644  10.026   6.517   8.064  0.1118  0.1477 -0.2119
  739MOL0     C99645   9.899   6.452   8.018 -0.0338  0.4044 -0.4503
  739MOL0     C99646   9.923   6.327   7.940 -0.1187  0.0759  0.2511
  739MOL0     N99647   9.792   6.274   7.901 -0.5467  0.6972 -0.1074
  739MOL0     C99648   9.664   6.324   7.934  0.1531  0.8066 -0.4117
  739MOL0     C99649   9.572   6.232   7.907  0.3964  0.2840 -1.1634
  739MOL0     C99650   9.415   6.227   7.919  0.3548 -0.7686 -0.2628
  739MOL0     C99651   9.350   6.097   7.864 -1.1517 -0.7811 -0.4059
  739MOL0     C99652   9.192   6.086   7.873 -0.2884  0.5265 -0.1442
  739MOL0     C99653   9.155   6.085   8.024 -0.0885 -0.5710  0.8549
  739MOL0     O99654   9.043   5.989   8.046 -0.3043  0.0999  0.1036
  739MOL0     C99655   8.917   6.025   8.032  0.1023  0.2055  0.0887
  739MOL0     C99656   8.868   6.156   7.997  1.0570 -0.1748 -0.9628
  739MOL0     C99657   8.736   6.187   7.989  0.1025 -0.9189  0.2680
  739MOL0     C99658   8.702   6.330   7.947  0.3173  0.1900 -0.0256
  739MOL0     C99659   8.644   6.074   8.001  0.5149 -0.5647 -0.1031
  739MOL0     C99660   8.493   6.101   7.980  0.0703  0.3071 -1.4396
  739MOL0     O99661   8.417   5.986   8.015  0.2018  0.0763  0.0763
  739MOL0     C99662   8.282   5.976   8.014  0.6381 -1.0758  0.6502
  739MOL0     C99663   8.224   5.917   8.126  0.0434  0.4618 -0.2950
  739MOL0     C99664   8.090   5.876   8.110  0.2466 -0.5879 -0.5600
  739MOL0     C99665   8.011   5.918   8.003  0.4161 -0.0780 -0.6246
  739MOL0     O99666   7.873   5.885   7.984 -0.7421 -0.4482 -0.4079
  739MOL0     C99667   7.818   5.796   8.088 -0.4384  0.4761  0.6143
  739MOL0     C99668   7.676   5.764   8.054  0.5422 -0.7593  1.0591
  739MOL0     C99669   7.591   5.705   8.158 -0.7829  0.1263 -0.6211
  739MOL0     C99670   7.637   5.568   8.199 -0.3177 -0.5326  0.1352
  739MOL0     C99671   7.516   5.481   8.260 -0.2680  0.5673  0.3477
  739MOL0     C99672   7.467   5.372   8.161  0.3316 -0.5719 -0.5690
  739MOL0     C99673   7.335   5.318   8.214  0.1524 -0.2937  0.9186
  739MOL0     C99674   7.280   5.183   8.154 -0.1903 -0.2527  0.1922
  739MOL0    Cl99675   7.134   5.133   8.242 -0.5228  0.1150 -0.0661
  739MOL0     C99676   8.073   5.996   7.907  0.9049  0.1033 -1.1143
  739MOL0     C99677   8.212   6.024   7.903  0.4239  0.1294  0.2412
  739MOL0     O99678   8.448   6.213   7.962  0.0161  0.2985  0.0215
  739MOL0     C99679   8.687   5.942   8.027  0.4188 -0.0657 -0.0478
  739MOL0     C99680   8.823   5.922   8.044 -1.0901 -0.5738 -0.1574
  739MOL0     N99681   9.647   6.126   7.856  0.2028 -0.3269  0.0518
  739MOL0     N99682   9.772   6.148   7.848 -0.4709  0.2579 -0.5559
  739MOL0     C99683  10.833   6.663   8.261 -0.5694  0.0951  0.5310
  739MOL0     C99684  10.966   6.656   8.265  0.3712  0.0081  0.4741
  739MOL0     C99685  11.401   6.750   8.319  0.0314  0.1438  0.6947
  739MOL0     C99686  11.461   6.728   8.442  0.2158 -0.3693 -0.1122
  739MOL0     C99687  11.599   6.746   8.450 -0.3172 -0.5809  0.4000
  739MOL0     C99688  11.682   6.773   8.343  0.7307 -0.4894 -0.1543
  739MOL0     O99689  11.815   6.770   8.341  0.3155  0.1647 -0.3560
  739MOL0     C99690  11.885   6.792   8.464  0.4030  0.0313 -0.4241
  739MOL0     C99691  12.021   6.724   8.464  0.1630 -0.0928 -0.2239
  739MOL0     C99692  12.019   6.578   8.474 -0.0583  0.7881  0.6107
  739MOL0     C99693  12.160   6.515   8.478 -0.0140  0.1884 -0.2316
  739MOL0     C99694  12.152   6.372   8.478 -0.0449 -0.0346  0.8556
  739MOL0     C99695  12.142   6.245   8.456  0.0627 -0.2811  0.6401
  739MOL0     C99696  11.621   6.791   8.217  0.7281 -0.5310  0.3773
  739MOL0     C99697  11.480   6.783   8.208  0.6532 -0.4626  0.4237
  739MOL0     H99698  11.021   6.718   8.596 -0.7677 -1.7759  1.4157
  739MOL0     H99699  10.770   6.702   8.586 -1.4454 -0.3260 -1.2351
  739MOL0     H99700  10.552   6.646   8.185  1.4435 -2.1429  0.1207
  739MOL0     H99701  10.596   6.505   8.276  0.3483  0.7724  2.7125
  739MOL0     H99702  10.406   6.500   8.395 -1.1356  0.1490 -0.1745
  739MOL0     H99703  10.351   6.665   8.382  0.5038 -1.0650  1.8822
  739MOL0     H99704  10.304   6.624   8.143  0.6990 -0.4170 -0.3402
  739MOL0     H99705  10.369   6.459   8.158  0.1027  0.3010 -2.0830
  739MOL0     H99706  10.196   6.405   8.331  1.9190 -1.6326 -1.6348
  739MOL0     H99707  10.128   6.570   8.298 -1.7218 -0.9067 -1.3427
  739MOL0     H99708  10.177   6.363   8.092 -0.7845 -3.3427  1.8195
  739MOL0     H99709  10.032   6.351   8.197 -1.9918 -1.4303 -2.8515
  739MOL0     H99710  10.005   6.610   8.118  0.7957  0.0675  0.2051
  739MOL0     H99711  10.078   6.548   7.973 -1.0680  0.0588 -0.9395
  739MOL0     H99712   9.841   6.429   8.107 -1.4474 -0.1100 -1.4730
  739MOL0     H99713   9.833   6.526   7.972 -1.6436  0.4406  1.7772
  739MOL0     H99714   9.979   6.248   7.991 -3.1688 -3.5830 -1.5539
  739MOL0     H99715   9.992   6.351   7.859  1.1123 -0.7870  1.0036
  739MOL0     H99716   9.652   6.424   7.975 -1.4112  1.2362 -1.7928
  739MOL0     H99717   9.383   6.231   8.023 -1.8933  1.3832 -0.9590
  739MOL0     H99718   9.376   6.314   7.865 -0.9820 -1.7360 -0.9123
  739MOL0     H99719   9.405   6.020   7.919 -0.1940  0.2232  0.1020
  739MOL0     H99720   9.373   6.093   7.757  0.4762 -1.5244 -0.0567
  739MOL0     H99721   9.155   5.995   7.826 -0.2255  0.2535  0.3365
  739MOL0     H99722   9.144   6.171   7.823 -2.9054 -1.1465 -0.6374
  739MOL0     H99723   9.134   6.184   8.064  0.5162 -0.9389  2.1240
  739MOL0     H99724   9.242   6.062   8.086  0.9956  0.3124 -0.2810
  739MOL0     H99725   8.945   6.231   7.983  2.0297 -1.0958 -0.6863
  739MOL0     H99726   8.643   6.388   8.018 -1.3901 -0.6391 -0.7113
  739MOL0     H99727   8.796   6.383   7.933  0.5809 -0.3512 -0.3427
  739MOL0     H99728   8.644   6.314   7.856 -0.4933 -2.1410  0.8147
  739MOL0     H99729   8.282   5.886   8.212  1.4751  2.3584 -0.5166
  739MOL0     H99730   8.065   5.816   8.197  4.0279 -0.2417  0.9845
  739MOL0     H99731   7.881   5.706   8.091  1.7523  1.8676 -0.6672
  739MOL0     H99732   7.819   5.848   8.184  3.3172 -1.7667  1.9982
  739MOL0     H99733   7.627   5.852   8.013 -0.2432 -1.2989  0.8145
  739MOL0     H99734   7.678   5.707   7.961 -2.1062  0.4677  0.1490
  739MOL0     H99735   7.492   5.691   8.113 -0.2198 -0.6542 -1.6534
  739MOL0     H99736   7.586   5.775   8.242 -0.2184 -1.1827  0.5546
  739MOL0     H99737   7.697   5.505   8.133 -0.8635 -2.4783  1.4061
  739MOL0     H99738   7.704   5.576   8.285  1.2346 -4.8655 -0.4115
  739MOL0     H99739   7.434   5.547   8.289 -2.1238 -1.2560 -0.5710
  739MOL0     H99740   7.545   5.424   8.348 -0.5361 -2.6251 -1.4768
  739MOL0     H99741   7.456   5.422   8.065  2.6478  1.8064  0.2720
  739MOL0     H99742   7.540   5.292   8.146  0.7744  0.0045 -1.5507
  739MOL0     H99743   7.260   5.395   8.192 -0.4640 -0.8545  0.9999
  739MOL0     H99744   7.339   5.294   8.320 -1.8237 -1.8821  0.6957
  739MOL0     H99745   7.354   5.105   8.174  0.4944  0.0702 -0.9887
  739MOL0     H99746   7.272   5.201   8.046  0.2935  2.5536  0.5557
  739MOL0     H99747   8.025   6.016   7.812  3.7403  1.9637 -2.2913
  739MOL0     H99748   8.254   6.080   7.820 -2.1581  0.1858 -1.1429
  739MOL0     H99749   8.622   5.857   8.047 -1.5576  1.1155 -1.0421
  739MOL0     H99750   8.863   5.823   8.062 -1.6572 -0.5214  1.5177
  739MOL0     H99751  10.780   6.646   8.168 -0.7594  0.9311  0.4763
  739MOL0     H99752  11.011   6.654   8.166  1.2036  1.8217  0.7853
  739MOL0     H99753  11.391   6.699   8.519  0.3053 -0.8058 -0.1943
  739MOL0     H99754  11.636   6.726   8.551 -2.4772 -0.8757  1.1864
  739MOL0     H99755  11.902   6.899   8.481  0.9256 -0.4856  3.0502
  739MOL0     H99756  11.838   6.758   8.556  2.9037  1.4605  1.4996
  739MOL0     H99757  12.065   6.767   8.555  0.2892 -0.8228  0.0644
  739MOL0     H99758  12.076   6.738   8.371  3.5630  0.8892  1.7493
  739MOL0     H99759  11.960   6.525   8.398  1.1973 -2.8914  1.9533
  739MOL0     H99760  11.977   6.550   8.571 -1.3827 -2.0017 -0.6341
  739MOL0     H99761  12.215   6.544   8.568 -1.0435  1.5210 -0.0020
  739MOL0     H99762  12.220   6.552   8.394  2.3304 -2.0631  0.3097
  739MOL0     H99763  12.135   6.140   8.438  0.3269 -0.0319 -1.0470
  739MOL0     H99764  11.676   6.822   8.129 -0.3738  0.1125 -0.1123
  739MOL0     H99765  11.431   6.786   8.111  2.9267 -0.5361 -0.7986
  740MOL0     O99766   1.852   4.228  11.019 -0.8360 -0.6845 -0.2335
  740MOL0     C99767   1.934   4.195  10.929  0.5534  0.3339  0.2587
  740MOL0     O99768   1.912   4.084  10.835  0.3442 -0.3858  0.0350
  740MOL0     C99769   1.793   4.024  10.845 -0.5967  0.1701 -0.7866
  740MOL0     C99770   1.678   4.096  10.824  0.7513 -0.1674 -0.2630
  740MOL0     C99771   1.551   4.045  10.844 -0.4643 -0.0804 -0.4955
  740MOL0     C99772   1.536   3.905  10.864 -0.3270  0.1880  1.4658
  740MOL0     O99773   1.411   3.857  10.868 -0.5661  0.1615  0.2382
  740MOL0     C99774   1.400   3.711  10.875 -0.3373 -0.1740 -0.0599
  740MOL0     C99775   1.260   3.655  10.854 -0.6366 -0.2295 -0.0837
  740MOL0     C99776   1.169   3.689  10.981 -0.1297  0.6185 -1.4024
  740MOL0     C99777   1.025   3.639  10.945 -0.7283 -0.0375 -0.5707
  740MOL0     C99778   0.919   3.632  11.057 -0.1130  0.7394 -0.3455
  740MOL0     C99779   0.801   3.545  11.012  0.1590 -0.2336  0.2273
  740MOL0     C99780   0.678   3.540  11.102  0.9048 -0.2139  0.2572
  740MOL0     C99781   0.607   3.672  11.107  0.5670 -0.7256  0.0113
  740MOL0     N99782   0.490   3.644  11.187 -0.2089  0.5025 -0.2366
  740MOL0     C99783   0.489   3.621  11.324  0.2122 -0.0632 -0.2975
  740MOL0     C99784   0.353   3.625  11.350  0.0398 -0.8409 -0.0161
  740MOL0     C99785   0.297   3.654  11.484 -0.2913 -0.8078 -0.0465
  740MOL0     C99786   0.371   3.759  11.573  0.7214  0.5081  0.5450
  740MOL0     C99787   0.306   3.808  11.702 -0.3569  0.2324 -0.4022
  740MOL0     C99788   0.152   3.818  11.705  0.8800 -0.4218 -0.0450
  740MOL0     O99789   0.096   3.694  11.746  0.1050 -0.6921  0.1076
  740MOL0     C99790  -0.048   3.686  11.724  0.6798  0.9795  0.2853
  740MOL0     C99791  -0.128   3.624  11.822  0.2540 -0.7811 -0.2283
  740MOL0     C99792  -0.267   3.604  11.815 -0.9953 -0.5126  0.0977
  740MOL0     C99793  -0.340   3.541  11.928 -0.4674 -0.2589  0.1963
  740MOL0     C99794  -0.336   3.655  11.704  1.0668 -0.7041  0.3482
  740MOL0     C99795  -0.487   3.653  11.673 -1.0467  0.5093 -1.3269
  740MOL0     O99796  -0.533   3.720  11.561 -0.1914  1.0121 -0.1303
  740MOL0     C99797  -0.665   3.723  11.535 -0.3631  0.6155  0.6413
  740MOL0     C99798  -0.760   3.768  11.623 -0.7577  0.6324 -1.1584
  740MOL0     C99799  -0.897   3.771  11.581  0.6417 -0.2431  0.3686
  740MOL0     C99800  -0.938   3.736  11.453  0.8557 -0.7291 -0.0428
  740MOL0     O99801  -1.073   3.745  11.415 -0.2271 -0.1307 -0.2611
  740MOL0     C99802  -1.100   3.695  11.280  0.2100 -0.2846  0.2089
  740MOL0     C99803  -1.258   3.692  11.267 -0.4354  0.3648 -0.2255
  740MOL0     C99804  -1.316   3.826  11.218  0.2305 -0.4083  0.3793
  740MOL0     C99805  -1.477   3.830  11.212 -0.2730  0.0725 -1.1074
  740MOL0     C99806  -1.529   3.967  11.154  0.3731  0.2412  0.6610
  740MOL0     C99807  -1.683   3.991  11.144  0.1060 -0.1612 -0.6145
  740MOL0     C99808  -1.718   4.138  11.138  0.3247  0.2800  0.5700
  740MOL0     C99809  -1.860   4.165  11.201  0.0913  0.1539  0.6595
  740MOL0    Cl99810  -1.995   4.127  11.088  0.0868 -0.2650  0.3443
  740MOL0     C99811  -0.840   3.685  11.367 -0.6449 -0.9794  0.1785
  740MOL0     C99812  -0.708   3.688  11.406 -0.9469 -0.6055 -0.6733
  740MOL0     O99813  -0.556   3.594  11.750  0.4982  0.2452  0.0509
  740MOL0     C99814  -0.256   3.718  11.606 -0.6952  0.0683  1.0160
  740MOL0     C99815  -0.117   3.722  11.612 -0.9922  0.6143 -0.0364
  740MOL0     N99816   0.278   3.636  11.228  0.2012  0.6312 -0.1610
  740MOL0     N99817   0.365   3.638  11.126  0.6679 -1.0573 -0.2537
  740MOL0     C99818   1.657   3.830  10.881  0.4042  0.1504 -0.3784
  740MOL0     C99819   1.782   3.888  10.871 -0.4432  0.2136  0.0612
  740MOL0     C99820   2.064   4.265  10.941  0.4767 -0.7478 -0.6671
  740MOL0     C99821   2.151   4.239  10.836 -0.3637 -0.7225  0.1251
  740MOL0     C99822   2.283   4.288  10.852 -0.4148 -0.4377 -0.2272
  740MOL0     C99823   2.338   4.352  10.967  0.8145 -0.2590  1.4664
  740MOL0     O99824   2.472   4.363  10.976 -0.3583  0.0046  0.5542
  740MOL0     C99825   2.534   4.460  11.071  0.4466 -0.0933 -0.3691
  740MOL0     C99826   2.651   4.516  10.996  0.1154  0.1481  0.1504
  740MOL0     C99827   2.743   4.416  10.915  0.2360 -0.7131 -0.1850
  740MOL0     C99828   2.852   4.490  10.831  0.8371 -0.0306  0.2900
  740MOL0     C99829   2.961   4.542  10.918  0.2070 -0.7251  0.1180
  740MOL0     C99830   3.047   4.577  10.995  1.2764 -0.9745 -0.5519
  740MOL0     C99831   2.242   4.391  11.065 -1.1540  0.8254 -0.0202
  740MOL0     C99832   2.105   4.349  11.055  0.1914  0.5856 -0.6046
  740MOL0     H99833   1.692   4.202  10.807  0.8921 -0.3246 -1.1555
  740MOL0     H99834   1.466   4.112  10.842  0.5865  1.2882 -1.3567
  740MOL0     H99835   1.467   3.666  10.801  1.1296 -3.9863  3.1982
  740MOL0     H99836   1.437   3.665  10.968  0.9493  0.0423 -0.4417
  740MOL0     H99837   1.214   3.706  10.770  2.5429  2.0444 -0.6489
  740MOL0     H99838   1.272   3.549  10.830 -0.5022 -0.7954  2.2082
  740MOL0     H99839   1.213   3.631  11.062 -0.4667  0.1934 -1.5199
  740MOL0     H99840   1.159   3.796  11.002 -2.1461  0.3848 -0.9375
  740MOL0     H99841   0.994   3.705  10.863 -1.8966 -0.8439 -0.8094
  740MOL0     H99842   1.039   3.537  10.910 -1.4874  0.3673 -2.1748
  740MOL0     H99843   0.958   3.592  11.151 -0.7054 -1.9230 -1.1382
  740MOL0     H99844   0.883   3.733  11.079  1.5119  0.5588  4.2885
  740MOL0     H99845   0.771   3.592  10.918 -1.5301 -0.1379  0.7982
  740MOL0     H99846   0.831   3.440  10.998 -2.4599 -1.0129 -0.0540
  740MOL0     H99847   0.606   3.467  11.065  0.3534  1.2373 -1.6965
  740MOL0     H99848   0.711   3.507  11.201  1.7758  0.7178  0.2853
  740MOL0     H99849   0.579   3.701  11.005 -0.3674  2.9369  1.1425
  740MOL0     H99850   0.669   3.747  11.158  1.2388 -2.6294  2.1880
  740MOL0     H99851   0.570   3.609  11.395 -1.6051 -3.0176  1.4979
  740MOL0     H99852   0.199   3.701  11.468  0.3051  0.3989 -0.2675
  740MOL0     H99853   0.290   3.559  11.538 -1.0521 -1.0165 -0.5032
  740MOL0     H99854   0.384   3.850  11.513  0.1557 -1.1611 -2.2819
  740MOL0     H99855   0.467   3.711  11.593  0.3994 -0.0714  0.7286
  740MOL0     H99856   0.354   3.906  11.712  2.0205 -0.7350 -1.4061
  740MOL0     H99857   0.339   3.750  11.789  0.4453  2.6311  0.9926
  740MOL0     H99858   0.111   3.849  11.609  1.1812  1.8641  0.5147
  740MOL0     H99859   0.116   3.890  11.780  0.2465  2.0701 -2.5864
  740MOL0     H99860  -0.074   3.587  11.908  1.8990  0.2679 -0.7591
  740MOL0     H99861  -0.420   3.604  11.967 -1.1983  0.7687 -2.7102
  740MOL0     H99862  -0.388   3.447  11.900 -0.6324 -0.6057  1.5597
  740MOL0     H99863  -0.272   3.527  12.012 -1.4627  0.1702  1.0920
  740MOL0     H99864  -0.724   3.801  11.720 -2.5537  2.5936 -1.0995
  740MOL0     H99865  -0.974   3.795  11.654  0.4898  1.0006 -0.1796
  740MOL0     H99866  -1.060   3.765  11.207  1.9716 -1.7800 -0.3307
  740MOL0     H99867  -1.069   3.591  11.264  0.1177 -0.3659  0.5444
  740MOL0     H99868  -1.293   3.608  11.205 -2.5997  0.0049  1.3628
  740MOL0     H99869  -1.298   3.678  11.367 -0.2536 -0.9222 -0.3092
  740MOL0     H99870  -1.282   3.838  11.114  0.3248 -0.2047  0.4345
  740MOL0     H99871  -1.267   3.902  11.279 -0.4899  0.7028 -0.3935
  740MOL0     H99872  -1.514   3.742  11.159  1.7638 -2.5789  1.4861
  740MOL0     H99873  -1.514   3.818  11.314 -1.9511 -0.7072 -1.7787
  740MOL0     H99874  -1.492   3.985  11.053  2.3613  1.1327  1.4816
  740MOL0     H99875  -1.481   4.041  11.219  0.3846  0.5192  0.3376
  740MOL0     H99876  -1.734   3.941  11.061  0.4248 -0.4069 -0.6652
  740MOL0     H99877  -1.730   3.942  11.230 -0.0550 -0.5717 -0.9330
  740MOL0     H99878  -1.711   4.171  11.034 -1.4387  0.2861  0.4145
  740MOL0     H99879  -1.640   4.195  11.189 -0.0374 -0.2544  1.7570
  740MOL0     H99880  -1.868   4.269  11.234 -1.6574  0.2789 -0.0777
  740MOL0     H99881  -1.865   4.097  11.287  1.3024 -2.1679 -0.9717
  740MOL0     H99882  -0.854   3.659  11.262 -2.1061 -4.2889  1.0427
  740MOL0     H99883  -0.632   3.658  11.334 -1.6957  1.2819 -2.3453
  740MOL0     H99884  -0.305   3.761  11.519 -2.6958  0.4735  2.2804
  740MOL0     H99885  -0.062   3.750  11.523 -0.9028 -0.2538 -0.2709
  740MOL0     H99886   1.658   3.722  10.893  3.7763  0.0272 -0.7763
  740MOL0     H99887   1.874   3.834  10.890  1.1812  2.9347  0.6395
  740MOL0     H99888   2.110   4.189  10.750  0.2210  0.3811 -0.8208
  740MOL0     H99889   2.353   4.268  10.772 -1.6019  0.2244 -1.4610
  740MOL0     H99890   2.468   4.546  11.085  0.1715 -0.4449  0.6133
  740MOL0     H99891   2.560   4.410  11.165  0.1673 -0.6741 -0.5953
  740MOL0     H99892   2.702   4.576  11.072  0.5604  0.8118 -0.6578
  740MOL0     H99893   2.606   4.586  10.924 -0.5210  0.2944  0.6765
  740MOL0     H99894   2.693   4.364  10.833 -1.0453  0.7690 -0.3728
  740MOL0     H99895   2.793   4.339  10.975 -0.3558 -0.9060  0.0725
  740MOL0     H99896   2.807   4.573  10.776  2.6868 -0.7794 -2.5871
  740MOL0     H99897   2.899   4.430  10.753 -1.7004 -0.6013 -0.9092
  740MOL0     H99898   3.112   4.596  11.078 -1.8356 -1.5078  2.1993
  740MOL0     H99899   2.278   4.435  11.158 -1.4913  3.0465 -0.8680
  740MOL0     H99900   2.045   4.370  11.143  2.1342 -2.4906  1.6389
  741MOL0     O99901   5.322  10.080   4.593  0.3128 -0.0903  0.6999
  741MOL0     C99902   5.402  10.060   4.682  0.4599  0.3779 -0.5423
  741MOL0     O99903   5.377  10.076   4.817 -0.2114 -0.2446  0.1258
  741MOL0     C99904   5.264  10.135   4.860  0.5782  1.2414  0.2547
  741MOL0     C99905   5.265  10.210   4.975  0.8464  0.4223 -0.3914
  741MOL0     C99906   5.153  10.286   5.017  0.3733  0.0470  0.0636
  741MOL0     C99907   5.028  10.281   4.961 -0.0600  0.0692  0.5344
  741MOL0     O99908   4.929  10.362   5.009  0.4086  0.5176  0.0468
  741MOL0     C99909   4.816  10.283   5.057 -0.0209  0.2869  0.4424
  741MOL0     C99910   4.689  10.373   5.076  0.0031 -0.8410  0.4610
  741MOL0     C99911   4.570  10.295   5.134  0.0159  0.8538  0.1655
  741MOL0     C99912   4.444  10.377   5.172 -0.1934 -0.2513  0.2810
  741MOL0     C99913   4.352  10.416   5.053 -0.9391 -0.0740  0.2914
  741MOL0     C99914   4.236  10.508   5.088 -0.2850 -1.0926 -0.0078
  741MOL0     C99915   4.152  10.557   4.965 -0.6511  0.1838 -1.5260
  741MOL0     C99916   4.071  10.445   4.890  0.0336 -0.4914 -0.0807
  741MOL0     N99917   4.025  10.502   4.757 -0.0380 -0.1040  0.2715
  741MOL0     C99918   3.959  10.434   4.657 -0.7436  0.3306 -0.8225
  741MOL0     C99919   3.928  10.528   4.567 -0.2122 -0.4584  0.3793
  741MOL0     C99920   3.867  10.513   4.429  0.0340 -0.2331  0.3294
  741MOL0     C99921   3.724  10.570   4.414 -0.7575  0.6620 -0.4001
  741MOL0     C99922   3.706  10.607   4.268  0.4414  0.4944 -0.0358
  741MOL0     C99923   3.555  10.637   4.248  0.2586  0.4605 -1.1971
  741MOL0     O99924   3.534  10.732   4.140  0.2535 -0.5054  0.1120
  741MOL0     C99925   3.412  10.748   4.085  0.1693 -0.4180  0.0777
  741MOL0     C99926   3.292  10.717   4.151 -0.5072  0.1324  0.4849
  741MOL0     C99927   3.165  10.746   4.100 -0.1512 -0.3116 -0.5851
  741MOL0     C99928   3.053  10.706   4.190 -0.1513 -0.1693  0.7002
  741MOL0     C99929   3.152  10.808   3.974  0.2954  0.6928 -0.5758
  741MOL0     C99930   3.019  10.848   3.913 -0.1052 -0.4626 -0.6480
  741MOL0     O99931   2.908  10.848   3.996 -0.0515 -0.0139  0.8455
  741MOL0     C99932   2.772  10.849   3.950 -0.3372  0.2372 -0.6965
  741MOL0     C99933   2.669  10.876   4.051 -0.5655 -0.0314 -0.0014
  741MOL0     C99934   2.535  10.882   4.007  0.4554  0.0582  0.7466
  741MOL0     C99935   2.491  10.844   3.878 -0.4778 -0.1830 -1.2780
  741MOL0     O99936   2.368  10.846   3.820  0.5009  1.2163 -0.4129
  741MOL0     C99937   2.255  10.836   3.911  0.6258  0.0969 -0.0652
  741MOL0     C99938   2.132  10.819   3.832  0.1531  0.3937  0.1206
  741MOL0     C99939   1.999  10.814   3.911  0.0443 -0.6431  0.5018
  741MOL0     C99940   1.888  10.854   3.812 -0.4611  0.4980  0.5128
  741MOL0     C99941   1.751  10.804   3.866  0.4110  1.2211 -0.2962
  741MOL0     C99942   1.625  10.842   3.776 -0.8878  0.0934 -0.4345
  741MOL0     C99943   1.487  10.776   3.805  0.5581  1.2531 -0.0540
  741MOL0     C99944   1.361  10.842   3.752  0.0081  1.3715 -0.4954
  741MOL0    Cl99945   1.210  10.753   3.787  0.1335  0.5751 -0.0359
  741MOL0     C99946   2.594  10.818   3.791 -0.3526 -0.2477  0.5215
  741MOL0     C99947   2.726  10.828   3.815 -0.0737  0.5217 -0.0809
  741MOL0     O99948   3.015  10.888   3.799  0.2033  0.1920 -0.6174
  741MOL0     C99949   3.275  10.839   3.907  0.3297  0.3931 -0.3546
  741MOL0     C99950   3.398  10.819   3.968 -0.4628 -0.0906 -0.2111
  741MOL0     N99951   3.964  10.651   4.613  0.5466  0.1432  0.5280
  741MOL0     N99952   4.018  10.636   4.734  0.1104  0.5106  0.3087
  741MOL0     C99953   5.022  10.192   4.856  0.0402  0.6864 -0.0651
  741MOL0     C99954   5.134  10.121   4.797  0.3390  0.8055 -0.2371
  741MOL0     C99955   5.538  10.030   4.650 -0.6513  0.4927 -0.6964
  741MOL0     C99956   5.643  10.015   4.743  0.1454  0.0298 -0.0231
  741MOL0     C99957   5.770   9.980   4.693 -0.8338  0.2570 -0.1993
  741MOL0     C99958   5.796   9.958   4.554 -0.1875  0.1834  0.9988
  741MOL0     O99959   5.911   9.903   4.493  0.6983  0.2277 -0.2038
  741MOL0     C99960   6.031   9.916   4.561 -0.6588 -0.3608  0.2530
  741MOL0     C99961   6.119   9.790   4.538 -0.0527 -0.1963 -0.2694
  741MOL0     C99962   6.045   9.661   4.576  0.4364 -0.8825 -0.5629
  741MOL0     C99963   6.118   9.535   4.571 -0.5362 -0.0996 -0.8593
  741MOL0     C99964   6.168   9.487   4.441  0.4062 -0.1216 -0.3892
  741MOL0     C99965   6.215   9.428   4.350 -0.3908  0.1078 -0.2274
  741MOL0     C99966   5.690   9.980   4.464  0.3776 -0.1871 -0.0881
  741MOL0     C99967   5.563  10.010   4.511  0.0131 -0.4309 -0.2684
  741MOL0     H99968   5.355  10.225   5.033  0.7318 -0.0129 -0.0895
  741MOL0     H99969   5.153  10.356   5.100 -0.7678  2.1594 -1.6426
  741MOL0     H99970   4.785  10.201   4.991  0.1831  0.5309  0.0421
  741MOL0     H99971   4.840  10.231   5.150 -1.3503  0.7121  1.0479
  741MOL0     H99972   4.720  10.462   5.131  0.5921  0.2871 -1.5974
  741MOL0     H99973   4.659  10.424   4.983  0.6033  0.2654  0.8586
  741MOL0     H99974   4.533  10.213   5.072 -0.7076  0.4372  1.1176
  741MOL0     H99975   4.605  10.233   5.217  1.4521 -1.5475 -2.0733
  741MOL0     H99976   4.387  10.330   5.252 -2.0946 -0.4913 -1.1421
  741MOL0     H99977   4.479  10.474   5.209  0.0189  1.3152 -3.4976
  741MOL0     H99978   4.415  10.458   4.974 -1.4347 -0.8053 -0.5167
  741MOL0     H99979   4.312  10.324   5.010 -0.6994  0.7850 -1.8853
  741MOL0     H99980   4.169  10.457   5.158  0.4454 -0.1602  1.4095
  741MOL0     H99981   4.275  10.600   5.131  0.2044 -1.0586 -0.5110
  741MOL0     H99982   4.092  10.643   4.996 -0.9904 -0.2751 -0.8814
  741MOL0     H99983   4.224  10.591   4.890  0.5553  2.1023  0.3856
  741MOL0     H99984   3.988  10.421   4.957 -0.5707 -1.7113 -1.2428
  741MOL0     H99985   4.133  10.357   4.875  0.4582 -0.3583  0.8148
  741MOL0     H99986   3.946  10.326   4.654 -1.3244  0.2221  2.3656
  741MOL0     H99987   3.930  10.576   4.366  0.8274 -0.2412  1.0953
  741MOL0     H99988   3.856  10.409   4.398 -2.1899  0.1498 -0.3866
  741MOL0     H99989   3.721  10.652   4.486  0.0509 -1.0326  1.6776
  741MOL0     H99990   3.652  10.495   4.449  0.8458 -2.6561 -3.5130
  741MOL0     H99991   3.735  10.535   4.192 -1.5031 -1.0462  0.5947
  741MOL0     H99992   3.762  10.696   4.238  1.7361 -1.1529 -2.8240
  741MOL0     H99993   3.505  10.672   4.339 -0.2841  1.4025 -1.8388
  741MOL0     H99994   3.506  10.542   4.225 -2.6219  0.7407  2.7490
  741MOL0     H99995   3.298  10.662   4.245  1.5040 -0.9104 -0.1893
  741MOL0     H99996   2.985  10.653   4.123  0.7374 -0.7197  0.2170
  741MOL0     H99997   3.084  10.632   4.265  0.6106  0.3320  0.8881
  741MOL0     H99998   3.018  10.798   4.237 -1.1514 -0.3405  0.3161
  741MOL0     H99999   2.690  10.886   4.157  1.3602 -2.0420 -0.1162
  741MOL0     H    0   2.461  10.903   4.083  2.0430  2.9892  1.6358
  741MOL0     H    1   2.267  10.744   3.969  1.8907  0.9579  1.0962
  741MOL0     H    2   2.257  10.924   3.976  2.5612  0.3809 -0.4507
  741MOL0     H    3   2.119  10.903   3.763 -3.0591 -0.0983 -0.0529
  741MOL0     H    4   2.143  10.738   3.759 -2.6079  1.3261 -1.4871
  741MOL0     H    5   2.008  10.897   3.981 -1.4492  2.2303 -2.4171
  741MOL0     H    6   1.978  10.712   3.946  0.4741 -0.9606 -0.1425
  741MOL0     H    7   1.897  10.963   3.804  0.2686  0.4063  0.0032
  741MOL0     H    8   1.904  10.807   3.715 -1.1634  2.8948 -0.8445
  741MOL0     H    9   1.726  10.841   3.965 -1.1638 -0.3286 -0.0568
  741MOL0     H   10   1.753  10.695   3.871  2.4465  1.1113 -1.8610
  741MOL0     H   11   1.599  10.947   3.793  0.4762  0.3323  0.2552
  741MOL0     H   12   1.641  10.828   3.668  1.3092 -3.4721  0.1993
  741MOL0     H   13   1.468  10.755   3.910 -0.6317  1.6402 -0.1852
  741MOL0     H   14   1.500  10.679   3.756  1.0455  2.4806 -2.5022
  741MOL0     H   15   1.374  10.850   3.644 -0.4595  0.5422 -0.6191
  741MOL0     H   16   1.352  10.939   3.801 -1.4232  1.2269 -0.4399
  741MOL0     H   17   2.557  10.785   3.694 -0.7063  1.0230  0.2096
  741MOL0     H   18   2.794  10.812   3.732 -2.0817  0.5793 -1.8105
  741MOL0     H   19   3.283  10.885   3.810  1.2637 -0.7712 -0.8558
  741MOL0     H   20   3.485  10.868   3.925 -1.1916  0.8754 -0.6127
  741MOL0     H   21   4.929  10.155   4.814  0.6552  0.1829 -1.0042
  741MOL0     H   22   5.128  10.057   4.709 -0.8563 -1.0132  1.0904
  741MOL0     H   23   5.611  10.026   4.846 -0.4855  0.4338 -0.2576
  741MOL0     H   24   5.853   9.983   4.762 -0.9845 -2.5313  0.2197
  741MOL0     H   25   6.085  10.001   4.517  2.0551 -1.8117  0.5522
  741MOL0     H   26   6.034   9.947   4.666  1.0889  0.3558  0.0370
  741MOL0     H   27   6.205   9.805   4.603 -0.1893  3.9009 -0.7745
  741MOL0     H   28   6.147   9.789   4.432  0.5641  4.2138 -0.3340
  741MOL0     H   29   5.964   9.660   4.503 -1.0312 -1.4881  1.0184
  741MOL0     H   30   6.009   9.676   4.678  0.8193 -0.1192 -0.5278
  741MOL0     H   31   6.061   9.458   4.625 -1.5708  1.1722 -0.0981
  741MOL0     H   32   6.209   9.560   4.626  0.3710 -2.4011 -1.1727
  741MOL0     H   33   6.241   9.370   4.264 -0.0522 -0.9224  0.5564
  741MOL0     H   34   5.699   9.978   4.356 -0.8770  2.6547 -0.3250
  741MOL0     H   35   5.478  10.029   4.446  0.6424 -0.0433 -1.0035
  742MOL0     O   36   3.417   9.408   3.149 -0.7831 -0.0583 -0.3918
  742MOL0     C   37   3.486   9.361   3.053  0.0257 -0.1910 -0.5602
  742MOL0     O   38   3.436   9.322   2.931 -0.4790  0.0884  0.3020
  742MOL0     C   39   3.299   9.301   2.924 -0.1440 -1.3186  0.6742
  742MOL0     C   40   3.216   9.395   2.849 -0.6556  0.4817 -0.5798
  742MOL0     C   41   3.080   9.370   2.836  0.7195 -0.0778 -0.7535
  742MOL0     C   42   3.020   9.268   2.899  0.4881 -0.0502 -0.0537
  742MOL0     O   43   2.890   9.226   2.877 -0.0954 -0.3234 -0.0591
  742MOL0     C   44   2.789   9.319   2.846 -0.0937  0.5994  1.1304
  742MOL0     C   45   2.652   9.299   2.905  0.0073  0.5291 -0.5291
  742MOL0     C   46   2.534   9.371   2.830 -0.3712 -0.5813  0.2516
  742MOL0     C   47   2.393   9.328   2.860 -0.5568  0.5238  0.2345
  742MOL0     C   48   2.271   9.400   2.795  0.2140  0.3419 -0.3077
  742MOL0     C   49   2.137   9.323   2.811  0.2843 -0.0010 -0.2326
  742MOL0     C   50   2.132   9.178   2.754 -0.5607  0.3963 -0.2169
  742MOL0     C   51   2.134   9.175   2.600 -0.3689  0.6596 -0.3424
  742MOL0     N   52   1.999   9.208   2.557  0.9285  0.2029 -0.3418
  742MOL0     C   53   1.969   9.333   2.494 -0.2539  1.4095 -0.4538
  742MOL0     C   54   1.846   9.313   2.449  0.3257 -0.3174 -0.1697
  742MOL0     C   55   1.753   9.413   2.385 -0.3614  0.0742  0.2822
  742MOL0     C   56   1.693   9.505   2.502  0.0982  0.4001  0.5679
  742MOL0     C   57   1.579   9.597   2.454 -0.2860  1.4642 -0.1948
  742MOL0     C   58   1.449   9.540   2.410  1.0212  0.1075  0.2370
  742MOL0     O   59   1.373   9.653   2.347  0.3749  0.5448 -0.3817
  742MOL0     C   60   1.239   9.618   2.337  0.0524 -0.6591  0.1343
  742MOL0     C   61   1.195   9.506   2.277  1.3221  0.2879  0.0890
  742MOL0     C   62   1.062   9.458   2.287  0.2005 -0.1828  0.2205
  742MOL0     C   63   1.037   9.326   2.200 -0.8472 -1.0140 -0.2616
  742MOL0     C   64   0.967   9.527   2.369 -0.1022  0.0637 -0.3233
  742MOL0     C   65   0.826   9.483   2.397  0.3285  0.1846  0.2512
  742MOL0     O   66   0.784   9.367   2.335 -0.1169  0.1837 -0.2921
  742MOL0     C   67   0.659   9.317   2.373 -0.0740  0.2504  0.0411
  742MOL0     C   68   0.643   9.181   2.403  0.6197  0.4938 -0.5122
  742MOL0     C   69   0.515   9.139   2.450 -0.8975  0.3520 -0.1694
  742MOL0     C   70   0.401   9.225   2.435  0.2816 -0.4954  1.2403
  742MOL0     O   71   0.273   9.182   2.468  0.0175 -0.9033  0.2017
  742MOL0     C   72   0.258   9.046   2.476  0.9339 -0.3100  0.7777
  742MOL0     C   73   0.110   9.018   2.470 -0.2873  0.1522  0.1458
  742MOL0     C   74   0.034   9.056   2.597  0.1702  0.1165 -0.7630
  742MOL0     C   75  -0.111   9.019   2.601  0.9093 -0.3656  0.2646
  742MOL0     C   76  -0.197   9.125   2.678 -0.8094 -0.3910  0.0839
  742MOL0     C   77  -0.356   9.117   2.666 -0.1057 -0.4553 -0.2605
  742MOL0     C   78  -0.407   8.984   2.725  0.2364  0.8754  0.5128
  742MOL0     C   79  -0.515   9.003   2.832  0.1251  0.2679 -0.1857
  742MOL0    Cl   80  -0.660   9.052   2.738 -0.4855 -0.3860 -0.1470
  742MOL0     C   81   0.420   9.350   2.393 -0.0555  0.1210  0.1605
  742MOL0     C   82   0.548   9.396   2.361  0.1675 -0.0606 -0.0062
  742MOL0     O   83   0.766   9.555   2.477  0.2439 -0.4296 -0.4122
  742MOL0     C   84   1.015   9.649   2.428  0.3948  0.2491  0.6625
  742MOL0     C   85   1.145   9.695   2.406 -0.8977  0.1429 -0.1156
  742MOL0     N   86   1.806   9.191   2.491  0.3847 -0.0162  0.3976
  742MOL0     N   87   1.892   9.123   2.553 -0.2375 -0.4825 -0.1802
  742MOL0     C   88   3.095   9.183   2.979 -0.6504  0.4197  0.1670
  742MOL0     C   89   3.235   9.197   2.988 -0.4146 -1.0739  0.3724
  742MOL0     C   90   3.632   9.401   3.044  0.9479  0.3060 -0.4561
  742MOL0     C   91   3.680   9.501   3.136  0.4792  0.4585  0.1302
  742MOL0     C   92   3.816   9.549   3.117  0.5103  0.1729 -0.3501
  742MOL0     C   93   3.901   9.503   3.016 -0.5349  0.2929  0.1834
  742MOL0     O   94   4.027   9.545   2.983  0.6315 -0.6668  0.2833
  742MOL0     C   95   4.098   9.581   3.101 -0.2081  0.2635 -1.4589
  742MOL0     C   96   4.248   9.572   3.063  0.6305 -0.7016  0.1105
  742MOL0     C   97   4.297   9.649   2.937  0.4213  0.7774 -0.3691
  742MOL0     C   98   4.446   9.624   2.906  0.7352  0.1305 -0.3195
  742MOL0     C   99   4.534   9.667   3.016 -1.1193  0.1512 -0.6856
  742MOL0     C  100   4.605   9.703   3.109  0.5695  0.2493 -0.4579
  742MOL0     C  101   3.848   9.404   2.932  0.6792  0.1626 -0.0905
  742MOL0     C  102   3.716   9.352   2.943 -0.3989  0.3899  0.1705
  742MOL0     H  103   3.274   9.475   2.803  1.9781  1.1932  3.4460
  742MOL0     H  104   3.015   9.430   2.772 -3.8984 -2.5393  1.1574
  742MOL0     H  105   2.815   9.422   2.872  0.1302  1.1914 -1.1967
  742MOL0     H  106   2.782   9.318   2.737  2.6491 -0.2923  0.8829
  742MOL0     H  107   2.625   9.193   2.906  4.8102 -0.9005  0.2973
  742MOL0     H  108   2.649   9.334   3.009  1.9646 -0.0726 -0.2381
  742MOL0     H  109   2.538   9.475   2.863 -2.6738 -0.4885  0.4051
  742MOL0     H  110   2.548   9.374   2.722 -0.5842  0.6167  0.2433
  742MOL0     H  111   2.398   9.225   2.825  0.7551  0.4609  0.5417
  742MOL0     H  112   2.376   9.311   2.967  2.4742  0.5977  0.7992
  742MOL0     H  113   2.257   9.497   2.843  0.7943  0.4036 -0.2540
  742MOL0     H  114   2.291   9.418   2.689 -0.2207 -3.0947 -1.0849
  742MOL0     H  115   2.114   9.326   2.918 -0.3199  1.3226 -0.3746
  742MOL0     H  116   2.050   9.372   2.767 -0.0636 -1.4383 -1.1943
  742MOL0     H  117   2.219   9.123   2.793  0.1078  0.4874 -1.5277
  742MOL0     H  118   2.036   9.139   2.788  0.0341 -1.3525 -0.4524
  742MOL0     H  119   2.147   9.069   2.576  1.3796 -0.5030  4.5324
  742MOL0     H  120   2.203   9.243   2.550 -0.2348 -0.7942 -2.2574
  742MOL0     H  121   2.038   9.416   2.489  1.6416 -0.1817 -3.0073
  742MOL0     H  122   1.819   9.475   2.323  0.5159  1.2667  2.3131
  742MOL0     H  123   1.679   9.366   2.318  0.3189 -0.7196  0.0715
  742MOL0     H  124   1.766   9.573   2.548  0.0757  0.7524  0.0911
  742MOL0     H  125   1.649   9.439   2.577  0.3249 -1.3818 -0.8082
  742MOL0     H  126   1.624   9.649   2.369 -0.7367  0.7535 -0.8894
  742MOL0     H  127   1.565   9.662   2.540 -0.6818  1.7571 -0.4771
  742MOL0     H  128   1.393   9.499   2.494 -2.7744  2.2235 -1.0256
  742MOL0     H  129   1.466   9.458   2.339 -0.3182 -1.3146  1.4977
  742MOL0     H  130   1.267   9.448   2.220 -0.0777 -0.5514 -0.8915
  742MOL0     H  131   0.956   9.264   2.240  0.0122 -2.3417 -0.5114
  742MOL0     H  132   1.011   9.350   2.097  0.7051 -1.2776 -0.7415
  742MOL0     H  133   1.118   9.252   2.194 -2.0956 -2.4847  0.4511
  742MOL0     H  134   0.729   9.115   2.409  2.4397  2.8349  1.0332
  742MOL0     H  135   0.525   9.035   2.480 -0.6698  0.0787 -1.1630
  742MOL0     H  136   0.317   8.988   2.405 -0.2804  0.1342 -0.6386
  742MOL0     H  137   0.297   9.023   2.576  2.4886  0.8427  0.4673
  742MOL0     H  138   0.065   9.067   2.383 -0.2999 -0.9242 -0.4646
  742MOL0     H  139   0.094   8.912   2.451 -0.2285 -0.0922  1.3859
  742MOL0     H  140   0.035   9.165   2.605 -1.7075  0.1223 -0.0803
  742MOL0     H  141   0.087   9.010   2.680  1.8052 -0.5198 -2.1029
  742MOL0     H  142  -0.136   9.019   2.494  1.0620 -1.7749  0.2070
  742MOL0     H  143  -0.126   8.920   2.645  0.0058 -1.5524 -2.4413
  742MOL0     H  144  -0.160   9.227   2.659 -0.0789  0.3600  4.3281
  742MOL0     H  145  -0.164   9.116   2.782  0.0716  0.3256 -0.1173
  742MOL0     H  146  -0.398   9.207   2.712  2.8661 -0.2196  2.3878
  742MOL0     H  147  -0.379   9.117   2.560 -2.0445  0.9062  0.1243
  742MOL0     H  148  -0.332   8.915   2.765  1.0083  1.0041 -0.6503
  742MOL0     H  149  -0.453   8.925   2.645  0.8523  0.5138  0.4163
  742MOL0     H  150  -0.486   9.077   2.907  0.8466 -1.5457  1.4260
  742MOL0     H  151  -0.531   8.909   2.887  0.8420 -0.2830 -0.8918
  742MOL0     H  152   0.331   9.412   2.391 -1.4844 -1.6850  2.3367
  742MOL0     H  153   0.556   9.498   2.326 -2.4339 -0.2129 -1.2932
  742MOL0     H  154   0.948   9.707   2.491  1.0419  2.4089 -0.5240
  742MOL0     H  155   1.182   9.786   2.451 -0.3674 -0.3285  0.4220
  742MOL0     H  156   3.040   9.102   3.026  1.1685 -1.2343 -0.4516
  742MOL0     H  157   3.287   9.127   3.053  1.5380  1.8272  2.1774
  742MOL0     H  158   3.614   9.529   3.217 -1.6671  0.0986 -1.3907
  742MOL0     H  159   3.843   9.642   3.165 -2.8428  0.6961  0.8083
  742MOL0     H  160   4.081   9.686   3.129 -0.1570 -0.3543  1.0869
  742MOL0     H  161   4.086   9.512   3.185 -0.3001  1.4154 -0.5014
  742MOL0     H  162   4.266   9.466   3.043 -1.0338 -0.5289 -2.7246
  742MOL0     H  163   4.305   9.614   3.147 -0.1127  2.4909 -0.8507
  742MOL0     H  164   4.289   9.755   2.964  0.8649  0.5872  0.5590
  742MOL0     H  165   4.228   9.623   2.857 -0.8331  0.7180  0.6859
  742MOL0     H  166   4.472   9.696   2.827  2.3459 -0.0776 -0.0233
  742MOL0     H  167   4.465   9.519   2.880  0.9681  0.0151  0.2965
  742MOL0     H  168   4.679   9.734   3.179 -0.7665  1.4621  0.4742
  742MOL0     H  169   3.916   9.377   2.851  0.6989 -3.6735  0.9905
  742MOL0     H  170   3.672   9.299   2.859  1.8079  2.4921 -2.5155
  743MOL0     O  171   6.004   7.075   4.523 -0.0917  0.9823 -0.0739
  743MOL0     C  172   5.975   6.957   4.538 -0.5498  0.8369 -0.2060
  743MOL0     O  173   5.853   6.909   4.569  0.0762 -0.0773 -0.9437
  743MOL0     C  174   5.740   6.992   4.571  0.3140  0.1366  0.8311
  743MOL0     C  175   5.639   6.973   4.665  0.2800 -0.3217  0.5980
  743MOL0     C  176   5.516   7.051   4.665  0.3015 -1.4011 -0.0745
  743MOL0     C  177   5.494   7.154   4.571 -0.3186  0.1156 -0.0276
  743MOL0     O  178   5.366   7.223   4.574 -0.0869  0.1079 -0.2725
  743MOL0     C  179   5.367   7.348   4.507  0.2617  0.4317 -0.0115
  743MOL0     C  180   5.237   7.433   4.527 -0.2399  0.4523  0.0872
  743MOL0     C  181   5.113   7.359   4.497 -1.5406  0.1369 -0.0681
  743MOL0     C  182   5.007   7.460   4.451 -0.5854  0.2409 -0.0301
  743MOL0     C  183   4.878   7.386   4.394 -0.7513 -0.0843 -0.5851
  743MOL0     C  184   4.777   7.491   4.350 -0.1305 -0.0550 -0.0724
  743MOL0     C  185   4.641   7.429   4.307  0.4686 -0.2358  0.4639
  743MOL0     C  186   4.607   7.483   4.164  0.1885 -0.2249  0.0023
  743MOL0     N  187   4.599   7.629   4.164  0.3394 -1.0032 -0.0969
  743MOL0     C  188   4.490   7.701   4.219 -0.0876 -0.9838  0.6391
  743MOL0     C  189   4.512   7.830   4.170 -0.8197  0.5316 -0.4933
  743MOL0     C  190   4.439   7.947   4.209 -0.3290 -0.7790  0.1019
  743MOL0     C  191   4.374   7.935   4.342  0.7654 -0.5628 -0.5433
  743MOL0     C  192   4.316   8.074   4.375  0.4671  0.0674  1.1888
  743MOL0     C  193   4.192   8.116   4.292 -0.3656 -0.3735  0.6559
  743MOL0     O  194   4.092   8.015   4.294  0.2159 -0.0460 -0.1974
  743MOL0     C  195   3.985   8.021   4.369  0.2480  0.6404 -0.4838
  743MOL0     C  196   3.878   7.941   4.333  0.6879  0.0723 -0.2541
  743MOL0     C  197   3.755   7.936   4.405  0.5686  0.9399  0.4061
  743MOL0     C  198   3.647   7.865   4.331 -0.4048  0.6958  0.1842
  743MOL0     C  199   3.742   8.011   4.525 -0.5548 -0.0209  0.3551
  743MOL0     C  200   3.629   7.998   4.633 -0.5649  0.0194  0.4252
  743MOL0     O  201   3.619   8.091   4.734 -0.0661  1.0982  0.6025
  743MOL0     C  202   3.509   8.088   4.814  0.2663 -0.7082  0.1136
  743MOL0     C  203   3.518   8.060   4.950 -0.5261  0.3599 -0.4476
  743MOL0     C  204   3.411   8.087   5.037  0.5372  0.1029  0.3761
  743MOL0     C  205   3.291   8.142   4.993  0.2822  0.7573 -0.0708
  743MOL0     O  206   3.195   8.169   5.099 -0.1860 -0.4040  0.2658
  743MOL0     C  207   3.113   8.280   5.090  0.6544 -0.1566  0.4006
  743MOL0     C  208   2.982   8.233   5.023 -0.1067  0.0866  0.2016
  743MOL0     C  209   2.870   8.333   5.004  0.2012 -0.4136 -0.7455
  743MOL0     C  210   2.745   8.274   4.939 -0.7629  0.3771 -0.0562
  743MOL0     C  211   2.634   8.375   4.916  0.0981  0.6303 -0.7042
  743MOL0     C  212   2.498   8.313   4.883 -1.4355  0.6130 -0.2600
  743MOL0     C  213   2.394   8.422   4.855  0.2118  0.0297 -0.3078
  743MOL0     C  214   2.385   8.481   4.706  0.1307 -0.0597 -0.4080
  743MOL0    Cl  215   2.215   8.518   4.663  0.1594 -0.2076  0.1046
  743MOL0     C  216   3.279   8.176   4.858  0.7448 -0.0450  0.1802
  743MOL0     C  217   3.386   8.153   4.772  0.2322 -0.3210  0.3805
  743MOL0     O  218   3.561   7.899   4.624  0.1261  0.2037  0.3915
  743MOL0     C  219   3.856   8.078   4.569 -0.8622  0.9339 -1.1894
  743MOL0     C  220   3.973   8.093   4.489  0.7658  0.7243 -0.4888
  743MOL0     N  221   4.627   7.830   4.084  0.5942  0.7382 -0.2865
  743MOL0     N  222   4.678   7.707   4.084  0.1444 -0.1148 -0.4054
  743MOL0     C  223   5.594   7.167   4.475  1.2412 -0.3723  0.1459
  743MOL0     C  224   5.709   7.094   4.480 -1.4904 -0.6474  0.6136
  743MOL0     C  225   6.085   6.857   4.539  0.0635 -0.2879 -0.4353
  743MOL0     C  226   6.058   6.720   4.516  0.1161 -0.3594  0.4546
  743MOL0     C  227   6.158   6.621   4.498  0.5269 -0.4319 -0.4667
  743MOL0     C  228   6.291   6.665   4.497 -0.1853 -1.0363  0.5160
  743MOL0     O  229   6.409   6.593   4.487 -0.0829  0.2252 -0.7277
  743MOL0     C  230   6.410   6.467   4.418  0.0358 -0.3842 -0.1025
  743MOL0     C  231   6.543   6.453   4.338  0.2867  0.7718 -0.4182
  743MOL0     C  232   6.559   6.308   4.285 -0.0211  0.0245 -0.7954
  743MOL0     C  233   6.685   6.271   4.213  0.1557 -0.8937 -0.4230
  743MOL0     C  234   6.679   6.322   4.079 -0.1613  0.8128  0.4635
  743MOL0     C  235   6.689   6.347   3.960 -0.1834 -0.1588 -0.0349
  743MOL0     C  236   6.319   6.799   4.533 -0.3461 -0.7623  0.5421
  743MOL0     C  237   6.219   6.890   4.550  0.7351 -0.1583 -0.3775
  743MOL0     H  238   5.638   6.891   4.736 -2.8749  1.3006  2.6841
  743MOL0     H  239   5.440   7.025   4.738 -2.7972  0.4945 -2.3879
  743MOL0     H  240   5.455   7.405   4.538 -0.2042  1.7567 -1.0268
  743MOL0     H  241   5.383   7.319   4.402  4.0387 -1.6629  0.9374
  743MOL0     H  242   5.232   7.467   4.630 -2.2107  1.8288 -0.4144
  743MOL0     H  243   5.241   7.528   4.472  0.6015  0.8019  0.7371
  743MOL0     H  244   5.138   7.283   4.423  1.7015  0.9453  0.0391
  743MOL0     H  245   5.069   7.301   4.578  0.0513 -2.3054 -0.8601
  743MOL0     H  246   4.985   7.520   4.539  0.9260 -0.6486  0.9998
  743MOL0     H  247   5.059   7.515   4.371  1.0663 -1.3840 -0.1593
  743MOL0     H  248   4.911   7.313   4.320  0.5444 -1.1310  0.9545
  743MOL0     H  249   4.824   7.327   4.469  1.2467 -2.9379 -1.2117
  743MOL0     H  250   4.761   7.562   4.431 -0.5803 -2.2345  1.8776
  743MOL0     H  251   4.826   7.551   4.274  1.0614  0.3592  0.9896
  743MOL0     H  252   4.635   7.319   4.307 -0.5960 -0.2211 -1.6661
  743MOL0     H  253   4.558   7.464   4.368 -0.4139 -1.7566  0.1947
  743MOL0     H  254   4.506   7.444   4.147  0.6518 -0.8157 -1.6248
  743MOL0     H  255   4.680   7.449   4.090 -0.7452 -1.1598 -0.5165
  743MOL0     H  256   4.416   7.660   4.287  1.8525 -2.7229  1.8562
  743MOL0     H  257   4.517   8.023   4.224 -0.4336 -1.1353  3.1094
  743MOL0     H  258   4.363   7.969   4.134  1.1609 -3.6244 -2.4503
  743MOL0     H  259   4.447   7.920   4.422  1.5006 -3.4517 -1.6418
  743MOL0     H  260   4.302   7.853   4.341  3.3513 -3.0419 -2.6810
  743MOL0     H  261   4.388   8.155   4.371 -1.5110  1.9521  1.9204
  743MOL0     H  262   4.287   8.069   4.481  0.1921 -0.0509  1.1092
  743MOL0     H  263   4.228   8.129   4.190  0.3933 -1.4873  0.7661
  743MOL0     H  264   4.147   8.209   4.328 -1.3389 -1.1559  1.4995
  743MOL0     H  265   3.892   7.880   4.245 -0.6582 -1.0554  0.2816
  743MOL0     H  266   3.672   7.759   4.319  2.1072  1.3258 -0.7441
  743MOL0     H  267   3.548   7.884   4.374  0.6053  1.6381  2.2257
  743MOL0     H  268   3.641   7.900   4.227 -0.7060 -0.9802 -0.3956
  743MOL0     H  269   3.601   8.009   4.999 -0.4510  0.2412 -0.6999
  743MOL0     H  270   3.406   8.057   5.141 -0.8305  1.6971  0.8209
  743MOL0     H  271   3.092   8.319   5.191  1.0793  0.2221  0.3471
  743MOL0     H  272   3.156   8.366   5.038  0.5302  0.4648  1.2989
  743MOL0     H  273   3.006   8.201   4.922  0.3240 -0.4262  0.4590
  743MOL0     H  274   2.941   8.150   5.082 -3.3482 -0.4871 -2.5732
  743MOL0     H  275   2.908   8.422   4.953 -0.5103  1.3445  1.6025
  743MOL0     H  276   2.842   8.370   5.103  1.4135 -0.3955 -0.3971
  743MOL0     H  277   2.777   8.248   4.838  0.1079 -0.9052  0.5345
  743MOL0     H  278   2.698   8.196   5.000  1.5440 -0.6155  0.5343
  743MOL0     H  279   2.672   8.444   4.840  3.0217  1.5595  1.4281
  743MOL0     H  280   2.613   8.424   5.011 -0.5629 -1.3801  0.2415
  743MOL0     H  281   2.503   8.238   4.804 -2.3676  0.3614 -0.1005
  743MOL0     H  282   2.469   8.254   4.970 -0.2433 -1.7916 -1.3980
  743MOL0     H  283   2.418   8.508   4.919 -0.9252 -0.6561  1.0813
  743MOL0     H  284   2.295   8.388   4.886  0.1823  0.8915  0.5981
  743MOL0     H  285   2.408   8.406   4.629 -0.3691  0.5587 -1.1806
  743MOL0     H  286   2.447   8.567   4.679 -1.3452  0.9090 -0.8335
  743MOL0     H  287   3.185   8.219   4.824  0.4425 -0.2250  0.7839
  743MOL0     H  288   3.376   8.195   4.672 -0.9562 -2.6755 -0.5854
  743MOL0     H  289   3.843   8.117   4.670  1.3909 -0.1032 -0.4262
  743MOL0     H  290   4.055   8.141   4.542  1.1758 -1.3414  0.8539
  743MOL0     H  291   5.592   7.247   4.402  2.7404 -0.0869  0.3924
  743MOL0     H  292   5.779   7.111   4.399 -1.6198 -3.0059 -0.0823
  743MOL0     H  293   5.957   6.680   4.518  0.4822 -1.3083  0.5531
  743MOL0     H  294   6.138   6.514   4.499 -2.2079 -0.0082 -1.0858
  743MOL0     H  295   6.401   6.380   4.484  2.7002  0.6453  1.8048
  743MOL0     H  296   6.322   6.476   4.354 -0.2185 -1.0883  0.1432
  743MOL0     H  297   6.620   6.475   4.412 -2.6968  0.6907  3.0142
  743MOL0     H  298   6.550   6.532   4.262 -1.9162  4.4449  2.8473
  743MOL0     H  299   6.474   6.274   4.226  0.1826 -0.2807 -0.9144
  743MOL0     H  300   6.555   6.247   4.376 -1.4562  0.7677 -0.3454
  743MOL0     H  301   6.706   6.164   4.217  1.9828 -0.5294  1.5971
  743MOL0     H  302   6.771   6.325   4.255 -2.5717  2.7012  1.1146
  743MOL0     H  303   6.706   6.340   3.854 -2.2115 -3.1928 -0.2848
  743MOL0     H  304   6.422   6.835   4.535 -0.3816 -0.6144 -0.0959
  743MOL0     H  305   6.237   6.997   4.554 -0.7211  0.3037 -3.2407
  744MOL0     O  306   7.615   7.664   9.348  0.3436  0.0320  0.1384
  744MOL0     C  307   7.651   7.689   9.234 -0.6547  0.6810  0.6449
  744MOL0     O  308   7.570   7.689   9.116 -0.6596 -0.1760 -0.4897
  744MOL0     C  309   7.444   7.638   9.120  0.1179  1.1831 -0.3463
  744MOL0     C  310   7.420   7.497   9.155  0.5317  0.7038  0.0926
  744MOL0     C  311   7.286   7.464   9.150  0.0130 -0.3996 -1.0288
  744MOL0     C  312   7.185   7.550   9.133 -0.5954  0.6371 -0.1794
  744MOL0     O  313   7.064   7.506   9.131 -0.1035 -0.7005  0.2744
  744MOL0     C  314   6.964   7.577   9.210 -1.0751  0.8325 -1.0008
  744MOL0     C  315   6.823   7.514   9.198 -0.5431  0.0722  0.0961
  744MOL0     C  316   6.717   7.609   9.233  0.6904 -0.9649  0.4054
  744MOL0     C  317   6.586   7.531   9.239  0.7892 -0.9917  0.0761
  744MOL0     C  318   6.463   7.621   9.270  0.6229 -0.0118  0.2242
  744MOL0     C  319   6.445   7.730   9.167  0.1100 -0.5028 -0.5803
  744MOL0     C  320   6.310   7.794   9.179  0.0752 -0.0869  0.0627
  744MOL0     C  321   6.291   7.906   9.075  0.0393 -0.8072  0.8559
  744MOL0     N  322   6.158   7.965   9.069 -0.9624  0.1846 -0.1481
  744MOL0     C  323   6.116   8.081   9.144  0.4793  1.5697  0.7283
  744MOL0     C  324   5.988   8.105   9.111  0.4033  0.6985  0.0540
  744MOL0     C  325   5.906   8.213   9.162 -0.5188 -0.1571  1.3261
  744MOL0     C  326   5.794   8.152   9.239  0.5890 -0.0385 -0.1789
  744MOL0     C  327   5.722   8.266   9.308 -0.1475 -0.1513 -0.3357
  744MOL0     C  328   5.630   8.210   9.425 -0.2303  0.3586 -0.0732
  744MOL0     O  329   5.532   8.306   9.469  0.1820  0.1150  0.4647
  744MOL0     C  330   5.411   8.315   9.404 -0.2983  0.3908 -0.1749
  744MOL0     C  331   5.314   8.392   9.466 -0.0053 -0.1177 -0.2916
  744MOL0     C  332   5.185   8.408   9.417 -0.0249 -0.4357 -0.0204
  744MOL0     C  333   5.086   8.486   9.500 -0.2588 -0.0129 -0.2479
  744MOL0     C  334   5.147   8.363   9.288  0.2815  0.3579 -0.0852
  744MOL0     C  335   5.015   8.386   9.219  0.1327  0.1776 -0.5821
  744MOL0     O  336   5.018   8.447   9.098  0.5816 -0.1040  0.1805
  744MOL0     C  337   4.917   8.432   9.008 -0.2135 -0.6536  0.2322
  744MOL0     C  338   4.798   8.358   9.019 -0.2982  0.6235 -0.0892
  744MOL0     C  339   4.699   8.373   8.922 -0.3982  0.5172 -0.0626
  744MOL0     C  340   4.707   8.472   8.829  0.0720  0.8991 -0.2448
  744MOL0     O  341   4.605   8.493   8.739  0.6946  0.2150 -0.2880
  744MOL0     C  342   4.541   8.381   8.677  0.2833 -0.2059 -0.8841
  744MOL0     C  343   4.423   8.423   8.580 -0.2914 -0.0594 -0.1196
  744MOL0     C  344   4.327   8.528   8.638  1.0532  0.3108  0.3636
  744MOL0     C  345   4.232   8.457   8.734  0.2190  0.1915 -0.0973
  744MOL0     C  346   4.131   8.540   8.799 -0.4543 -1.1307  0.5590
  744MOL0     C  347   4.006   8.472   8.857 -0.0010  0.1178 -0.8299
  744MOL0     C  348   3.898   8.560   8.922  0.5700  0.1647 -0.0694
  744MOL0     C  349   3.796   8.470   8.980 -0.5797 -0.0210  0.9502
  744MOL0    Cl  350   3.673   8.568   9.068  0.4953  0.3558  0.0922
  744MOL0     C  351   4.825   8.542   8.813 -0.0935  0.1601 -0.6219
  744MOL0     C  352   4.919   8.534   8.905 -0.3174 -0.5725 -0.8046
  744MOL0     O  353   4.921   8.370   9.288  0.4088 -0.0469 -0.0481
  744MOL0     C  354   5.248   8.285   9.218 -0.1910  0.0859  0.3145
  744MOL0     C  355   5.377   8.261   9.279 -0.1460 -1.0056 -0.1079
  744MOL0     N  356   5.949   8.010   9.017 -0.0667  1.2263 -0.3846
  744MOL0     N  357   6.052   7.924   9.003 -0.0526 -1.0233  0.9301
  744MOL0     C  358   7.211   7.685   9.097  0.1832  0.6799  0.0260
  744MOL0     C  359   7.341   7.725   9.097 -0.3364  0.9414  0.0688
  744MOL0     C  360   7.795   7.703   9.201  0.5056  0.0567 -0.0910
  744MOL0     C  361   7.894   7.694   9.302 -0.2637  0.4038  0.2165
  744MOL0     C  362   8.031   7.698   9.267  0.3391 -0.5673 -0.4659
  744MOL0     C  363   8.063   7.725   9.138 -0.5173 -0.3302 -0.1267
  744MOL0     O  364   8.191   7.752   9.096 -0.1350  0.1558  0.3895
  744MOL0     C  365   8.302   7.695   9.176 -0.0102 -0.6151  0.1758
  744MOL0     C  366   8.428   7.760   9.112 -0.0576  0.1633 -0.5017
  744MOL0     C  367   8.462   7.694   8.982 -0.2326  0.6258 -0.8467
  744MOL0     C  368   8.587   7.753   8.919  0.6249 -0.6738  0.3245
  744MOL0     C  369   8.718   7.730   8.996  0.2802  0.2020  0.0928
  744MOL0     C  370   8.815   7.705   9.052  0.5133  0.7459 -0.2183
  744MOL0     C  371   7.969   7.734   9.037 -0.5487  0.2608 -0.3585
  744MOL0     C  372   7.837   7.717   9.066  0.0700  0.1523  0.3861
  744MOL0     H  373   7.496   7.424   9.178 -1.5895 -0.8733  2.5863
  744MOL0     H  374   7.260   7.359   9.157 -3.3982  0.3464 -0.6942
  744MOL0     H  375   6.986   7.567   9.317 -3.1725  0.7614 -0.5437
  744MOL0     H  376   6.961   7.684   9.190 -0.9134  0.6658 -1.9721
  744MOL0     H  377   6.823   7.491   9.090  1.2789 -0.1314  0.1190
  744MOL0     H  378   6.816   7.426   9.263 -0.2856  0.7725  1.0838
  744MOL0     H  379   6.740   7.658   9.328 -2.1122 -1.0115  1.1949
  744MOL0     H  380   6.716   7.691   9.160 -1.5724  0.2374  1.6964
  744MOL0     H  381   6.576   7.474   9.146  2.0697  1.0350 -1.3796
  744MOL0     H  382   6.588   7.455   9.318 -0.2465 -2.5390 -1.3213
  744MOL0     H  383   6.370   7.562   9.273  0.1111  0.7219 -0.6308
  744MOL0     H  384   6.471   7.671   9.367  1.3908  1.6086 -0.6498
  744MOL0     H  385   6.519   7.809   9.174 -0.1015 -0.2566 -1.0634
  744MOL0     H  386   6.464   7.678   9.072  1.1367 -2.4212  0.6136
  744MOL0     H  387   6.238   7.713   9.161  2.2569 -1.3950 -3.8946
  744MOL0     H  388   6.297   7.825   9.283 -0.4174 -0.8512  0.2366
  744MOL0     H  389   6.312   7.855   8.981  4.0342 -0.2384  1.2553
  744MOL0     H  390   6.372   7.978   9.089 -0.3735 -0.4529  1.4491
  744MOL0     H  391   6.179   8.153   9.196  5.8867 -1.0779 -1.3952
  744MOL0     H  392   5.970   8.282   9.218 -2.0066  0.1853  2.7041
  744MOL0     H  393   5.862   8.262   9.075 -1.4144 -2.2899  0.5165
  744MOL0     H  394   5.839   8.084   9.312 -1.1016 -2.3316 -1.1534
  744MOL0     H  395   5.725   8.097   9.175  0.1987  0.3614 -0.1088
  744MOL0     H  396   5.663   8.322   9.236 -0.2972  1.3578  0.9120
  744MOL0     H  397   5.796   8.324   9.364 -0.2148  0.2391 -0.6533
  744MOL0     H  398   5.695   8.193   9.511  0.0976 -0.4695 -0.4743
  744MOL0     H  399   5.589   8.110   9.410 -1.0906  0.4672  1.3891
  744MOL0     H  400   5.332   8.424   9.568 -2.0501 -1.6912  0.6473
  744MOL0     H  401   5.138   8.548   9.574  0.2777  0.0283 -0.6605
  744MOL0     H  402   5.036   8.568   9.449  1.1607  1.4571  0.6213
  744MOL0     H  403   5.015   8.414   9.541 -0.0584 -0.7817 -1.2031
  744MOL0     H  404   4.788   8.290   9.102  1.7464  0.5425  0.1260
  744MOL0     H  405   4.599   8.331   8.923 -0.5014  0.2344 -4.4118
  744MOL0     H  406   4.622   8.337   8.619  1.2709 -1.2406  1.1752
  744MOL0     H  407   4.508   8.303   8.745  0.0848  0.3679 -0.3082
  744MOL0     H  408   4.473   8.479   8.501  2.5659 -0.8038  1.0316
  744MOL0     H  409   4.372   8.336   8.537  1.2884 -1.5208  0.8391
  744MOL0     H  410   4.268   8.560   8.551 -0.6391 -1.0741  0.9375
  744MOL0     H  411   4.381   8.612   8.682  2.2542  0.9556 -2.1575
  744MOL0     H  412   4.193   8.367   8.686 -1.0233  0.1699  0.9016
  744MOL0     H  413   4.286   8.415   8.820  0.2841  2.3686  0.9826
  744MOL0     H  414   4.106   8.617   8.725 -0.0667 -0.0352  1.5348
  744MOL0     H  415   4.192   8.599   8.869  0.7109 -0.9851 -0.5303
  744MOL0     H  416   3.968   8.398   8.786  3.1731 -1.3278 -1.1883
  744MOL0     H  417   4.046   8.408   8.937  0.2490  1.7872  0.4597
  744MOL0     H  418   3.850   8.627   8.850  0.3376  0.2878  0.1973
  744MOL0     H  419   3.932   8.619   9.007  1.3716 -0.9893  0.4349
  744MOL0     H  420   3.841   8.391   9.040  3.0433 -0.9831 -2.6134
  744MOL0     H  421   3.751   8.418   8.895  0.8713  0.5394 -0.2110
  744MOL0     H  422   4.825   8.621   8.738  3.4880  1.7494  0.8141
  744MOL0     H  423   4.998   8.608   8.901 -0.6446 -0.0299  1.2398
  744MOL0     H  424   5.235   8.244   9.118 -0.4199 -1.8684  1.1077
  744MOL0     H  425   5.459   8.209   9.230  2.6879  1.9582  1.1153
  744MOL0     H  426   7.130   7.754   9.074 -3.2589 -3.6391 -2.6058
  744MOL0     H  427   7.383   7.823   9.072  0.8852  0.8032  1.4233
  744MOL0     H  428   7.849   7.661   9.395 -0.9541 -0.0432 -0.2616
  744MOL0     H  429   8.088   7.690   9.359 -0.5895 -2.2900  0.0222
  744MOL0     H  430   8.300   7.723   9.281  2.4282  0.4162  0.0071
  744MOL0     H  431   8.297   7.587   9.166  0.7789 -0.6986  0.6671
  744MOL0     H  432   8.507   7.755   9.187 -2.0630 -1.2548  1.6824
  744MOL0     H  433   8.421   7.869   9.101  0.2774  0.1199 -1.2003
  744MOL0     H  434   8.381   7.705   8.909 -0.1288 -1.5522 -1.3874
  744MOL0     H  435   8.477   7.587   9.000  0.3716  1.0412  1.4282
  744MOL0     H  436   8.573   7.860   8.902  2.1334 -0.3748  0.8321
  744MOL0     H  437   8.600   7.712   8.818  0.2175  1.1258 -0.5044
  744MOL0     H  438   8.902   7.683   9.111  0.0557  0.1286  0.2489
  744MOL0     H  439   8.005   7.737   8.935 -2.0788  0.6916 -0.9138
  744MOL0     H  440   7.768   7.724   8.984  0.3487 -1.4107 -0.0111
  745MOL0     O  441   6.146   4.779   5.170  0.0844  0.9228  0.2467
  745MOL0     C  442   6.169   4.731   5.060  0.7588 -0.0608  0.9508
  745MOL0     O  443   6.084   4.746   4.951 -0.1349 -0.1498  0.3973
  745MOL0     C  444   5.971   4.830   4.946  0.0177 -0.0772  0.9299
  745MOL0     C  445   5.864   4.780   4.867  0.6770 -0.6512  0.3053
  745MOL0     C  446   5.742   4.850   4.871 -0.0415 -0.5428  0.0704
  745MOL0     C  447   5.728   4.967   4.946 -0.0129  0.5235 -0.0954
  745MOL0     O  448   5.615   5.044   4.955 -0.1778 -0.2299 -0.2592
  745MOL0     C  449   5.497   4.967   4.924  0.4316  0.1492 -0.4123
  745MOL0     C  450   5.368   5.037   4.954  0.2356  0.0155  0.8672
  745MOL0     C  451   5.247   4.943   4.944  0.2356 -0.0848  0.7935
  745MOL0     C  452   5.128   5.027   4.917 -0.2099  0.3164  0.2579
  745MOL0     C  453   5.000   4.947   4.913 -0.3251 -0.2969  0.1647
  745MOL0     C  454   4.922   4.970   4.784 -0.3235  0.1808  0.2922
  745MOL0     C  455   4.791   4.887   4.766  0.6558 -0.5051 -0.6794
  745MOL0     C  456   4.805   4.734   4.773 -0.5238 -0.4528 -0.1139
  745MOL0     N  457   4.672   4.687   4.748  0.6412 -0.2391  0.9045
  745MOL0     C  458   4.614   4.645   4.629  0.6505  0.6528  0.6000
  745MOL0     C  459   4.484   4.606   4.651 -0.1049 -0.0589 -0.5678
  745MOL0     C  460   4.377   4.574   4.550  0.1427  0.5889 -0.7924
  745MOL0     C  461   4.278   4.469   4.594  0.9521 -0.0347  0.2407
  745MOL0     C  462   4.152   4.475   4.500 -0.2598 -0.9374 -0.5345
  745MOL0     C  463   4.021   4.435   4.566 -0.1580 -0.0898 -0.1037
  745MOL0     O  464   3.904   4.449   4.477  0.0847 -0.7681 -0.4836
  745MOL0     C  465   3.774   4.457   4.527 -0.0773  0.4870  0.5787
  745MOL0     C  466   3.685   4.506   4.431 -0.5950 -0.3005  0.2289
  745MOL0     C  467   3.549   4.510   4.458  0.1972 -0.2926  0.6005
  745MOL0     C  468   3.454   4.551   4.347  0.1645 -0.2846 -0.1729
  745MOL0     C  469   3.500   4.481   4.590 -0.0325 -0.3214 -0.7521
  745MOL0     C  470   3.354   4.463   4.624 -0.4682 -0.7295  0.4240
  745MOL0     O  471   3.322   4.414   4.750  0.4142 -0.1566  0.2046
  745MOL0     C  472   3.196   4.389   4.796 -0.8959 -0.6371  0.0103
  745MOL0     C  473   3.076   4.455   4.773  0.1742 -0.2571  0.2196
  745MOL0     C  474   2.960   4.413   4.837 -0.3156 -0.1308  0.4059
  745MOL0     C  475   2.961   4.301   4.917  0.1388  0.4284 -0.6226
  745MOL0     O  476   2.836   4.268   4.958 -0.8306 -0.2628 -0.0560
  745MOL0     C  477   2.805   4.157   5.037 -0.2244  0.7435 -0.1839
  745MOL0     C  478   2.654   4.127   5.033 -0.3103 -0.3911 -0.2352
  745MOL0     C  479   2.573   4.240   5.101  0.2996 -0.0695 -0.0288
  745MOL0     C  480   2.435   4.179   5.140 -0.5851 -0.0682 -0.0397
  745MOL0     C  481   2.334   4.287   5.162  0.0382 -0.3403 -0.0540
  745MOL0     C  482   2.303   4.313   5.301 -0.6204 -0.2262  0.4154
  745MOL0     C  483   2.193   4.215   5.361  0.6253  0.3879  0.6388
  745MOL0     C  484   2.166   4.253   5.499 -0.0308 -0.1480 -0.9119
  745MOL0    Cl  485   2.051   4.133   5.571 -0.0678  0.2588  0.1024
  745MOL0     C  486   3.082   4.248   4.965 -0.9795  0.4104  0.4285
  745MOL0     C  487   3.204   4.283   4.892  0.5135  0.3719 -1.2779
  745MOL0     O  488   3.271   4.507   4.551  0.1745  0.2713  0.2316
  745MOL0     C  489   3.603   4.439   4.687  1.0918  0.3958 -0.4145
  745MOL0     C  490   3.736   4.422   4.656  0.2833 -0.2617 -0.0209
  745MOL0     N  491   4.477   4.609   4.791 -0.1679  0.5142 -0.3449
  745MOL0     N  492   4.584   4.653   4.841  0.6134 -0.2312 -0.6170
  745MOL0     C  493   5.842   5.025   5.009  0.3714  0.4378 -0.8748
  745MOL0     C  494   5.964   4.948   5.019  0.2365  0.2213 -0.1406
  745MOL0     C  495   6.291   4.657   5.037 -0.1134 -0.4381  0.2390
  745MOL0     C  496   6.330   4.613   4.899 -0.0923  0.1405 -0.0814
  745MOL0     C  497   6.443   4.538   4.871  0.7621  0.0493 -0.3698
  745MOL0     C  498   6.529   4.501   4.973 -0.3508 -0.0559 -0.0791
  745MOL0     O  499   6.645   4.433   4.950  0.9062 -0.0625 -0.6838
  745MOL0     C  500   6.669   4.373   4.821 -0.6606  0.1451 -0.2126
  745MOL0     C  501   6.792   4.287   4.827 -0.1890 -0.1324  0.9470
  745MOL0     C  502   6.779   4.172   4.933 -0.9018  0.7368  0.1226
  745MOL0     C  503   6.891   4.061   4.931  1.4448  0.2057  0.1020
  745MOL0     C  504   6.896   3.971   4.819  0.4586  0.0423  0.6492
  745MOL0     C  505   6.892   3.894   4.728  0.3137 -0.2512 -1.2950
  745MOL0     C  506   6.494   4.540   5.099  0.1542  0.3727  0.6318
  745MOL0     C  507   6.383   4.617   5.135 -0.6502 -1.1899  0.2465
  745MOL0     H  508   5.886   4.692   4.807 -0.1205 -0.3347 -0.4692
  745MOL0     H  509   5.656   4.810   4.818  1.0182 -1.0920 -1.3163
  745MOL0     H  510   5.492   4.935   4.819  0.5129  2.5625 -1.2169
  745MOL0     H  511   5.499   4.876   4.985  3.2456  1.0802  1.0453
  745MOL0     H  512   5.371   5.067   5.059 -2.1869  0.8607  0.7460
  745MOL0     H  513   5.351   5.124   4.890 -2.6268 -0.5905  0.7066
  745MOL0     H  514   5.263   4.872   4.862  0.8035 -0.6697  1.4039
  745MOL0     H  515   5.232   4.879   5.030  0.6121 -0.1200  0.8343
  745MOL0     H  516   5.118   5.113   4.984 -2.3036 -0.8813  1.6175
  745MOL0     H  517   5.136   5.080   4.822  0.2790  1.1635  0.7620
  745MOL0     H  518   5.024   4.841   4.911  0.3285 -0.1521 -1.3849
  745MOL0     H  519   4.941   4.966   5.003 -2.3114 -5.6410  0.2958
  745MOL0     H  520   4.888   5.074   4.775  0.4634  0.3659 -0.7795
  745MOL0     H  521   4.991   4.948   4.702  0.3337 -0.9148  1.1276
  745MOL0     H  522   4.721   4.918   4.844  0.3050  2.7160 -2.1091
  745MOL0     H  523   4.750   4.930   4.674 -0.2706  1.1262  0.4543
  745MOL0     H  524   4.834   4.713   4.877 -0.0464 -1.0972 -0.3757
  745MOL0     H  525   4.880   4.699   4.702  1.0311 -0.6695  1.5758
  745MOL0     H  526   4.650   4.657   4.527 -0.7251 -2.3118 -0.3558
  745MOL0     H  527   4.321   4.667   4.534  2.3596  1.8910 -1.3929
  745MOL0     H  528   4.425   4.546   4.456  1.1302 -0.9886  0.1332
  745MOL0     H  529   4.249   4.493   4.697 -1.5505 -0.7006 -0.2325
  745MOL0     H  530   4.326   4.371   4.590  1.0084  0.0345 -1.4073
  745MOL0     H  531   4.168   4.410   4.414  0.0489 -0.8074 -0.5794
  745MOL0     H  532   4.144   4.580   4.471  1.6187 -0.1484  1.5216
  745MOL0     H  533   4.011   4.505   4.649  1.1977  0.0560 -0.0461
  745MOL0     H  534   4.024   4.333   4.606  1.8558 -0.5589 -1.3358
  745MOL0     H  535   3.726   4.537   4.336  0.7341 -2.3965  0.0461
  745MOL0     H  536   3.506   4.568   4.252  2.3746 -0.3584  0.9634
  745MOL0     H  537   3.387   4.469   4.320  0.0971  0.7234 -3.5660
  745MOL0     H  538   3.398   4.638   4.385  0.3704 -0.3897  0.3841
  745MOL0     H  539   3.072   4.529   4.693 -2.5798 -2.3208 -1.7497
  745MOL0     H  540   2.874   4.468   4.800  0.5179  1.6312  1.0015
  745MOL0     H  541   2.846   4.067   4.989 -0.1083  2.0355 -2.7169
  745MOL0     H  542   2.850   4.167   5.136  0.7538  0.3283 -0.5735
  745MOL0     H  543   2.622   4.126   4.928 -3.4717 -0.8517  0.6437
  745MOL0     H  544   2.622   4.031   5.073 -1.2799 -0.0861 -0.2732
  745MOL0     H  545   2.566   4.335   5.048  3.0320  2.4369  3.6145
  745MOL0     H  546   2.622   4.262   5.196 -3.0786  0.7838  1.7067
  745MOL0     H  547   2.399   4.109   5.065 -1.2985 -0.0265  0.2586
  745MOL0     H  548   2.447   4.117   5.230 -1.7606  1.1648  1.0214
  745MOL0     H  549   2.248   4.258   5.102  1.0968 -0.0978 -1.7645
  745MOL0     H  550   2.369   4.376   5.108  1.4387 -1.1128 -0.4816
  745MOL0     H  551   2.389   4.310   5.368 -2.4740  1.3508  3.0526
  745MOL0     H  552   2.263   4.414   5.306 -0.3293 -0.0712 -0.2074
  745MOL0     H  553   2.216   4.109   5.347 -0.5086  0.2568 -0.2883
  745MOL0     H  554   2.106   4.228   5.298  1.4867 -2.2432 -1.2693
  745MOL0     H  555   2.112   4.349   5.496  2.7047  1.6198  1.3747
  745MOL0     H  556   2.258   4.261   5.558  0.9392  0.6008 -2.4389
  745MOL0     H  557   3.092   4.164   5.034  2.1121  0.5614  0.3069
  745MOL0     H  558   3.298   4.235   4.920 -0.3723 -0.6291  0.1237
  745MOL0     H  559   3.574   4.392   4.780  0.8341  0.2404 -0.5700
  745MOL0     H  560   3.799   4.387   4.737 -1.1808  0.6472  1.5885
  745MOL0     H  561   5.834   5.121   5.059  2.1189 -0.2874  0.9197
  745MOL0     H  562   6.045   4.977   5.084 -0.3635 -2.7302  2.1587
  745MOL0     H  563   6.268   4.638   4.814 -1.3386 -1.4673  0.3161
  745MOL0     H  564   6.454   4.504   4.769 -1.7530 -3.2506  0.2665
  745MOL0     H  565   6.588   4.303   4.800  0.4129 -1.9581  2.1091
  745MOL0     H  566   6.661   4.446   4.740  0.8992  2.8718  1.9226
  745MOL0     H  567   6.880   4.350   4.838 -0.7340  1.6031 -3.0054
  745MOL0     H  568   6.804   4.248   4.726 -0.3566  2.1844 -0.0296
  745MOL0     H  569   6.683   4.129   4.901 -1.2044  3.3312 -3.0210
  745MOL0     H  570   6.774   4.216   5.033  2.2658 -0.5379  0.9354
  745MOL0     H  571   6.879   4.008   5.026 -1.3095 -0.8777 -0.7471
  745MOL0     H  572   6.992   4.102   4.930  1.0098  1.2864 -0.5846
  745MOL0     H  573   6.882   3.823   4.647 -0.7809 -1.1779 -0.3931
  745MOL0     H  574   6.570   4.514   5.172  1.0649 -0.9299 -0.7232
  745MOL0     H  575   6.386   4.645   5.240 -1.4889 -0.8389  0.1878
  746MOL0     O  576   2.881   8.801   0.245  0.1060  0.1758 -0.7092
  746MOL0     C  577   2.928   8.742   0.337  0.3353  0.8436 -0.4622
  746MOL0     O  578   2.875   8.739   0.460  0.2229 -0.3672 -0.3116
  746MOL0     C  579   2.760   8.814   0.502 -0.5293  0.3219 -0.8449
  746MOL0     C  580   2.636   8.749   0.522 -0.5402 -0.5760  0.1285
  746MOL0     C  581   2.529   8.813   0.570  0.5819 -0.8850 -0.2268
  746MOL0     C  582   2.542   8.951   0.615 -1.0393  0.3048  0.4133
  746MOL0     O  583   2.443   9.027   0.672  0.2656  0.1100  0.3003
  746MOL0     C  584   2.315   8.964   0.679 -0.1301 -0.0984  0.3229
  746MOL0     C  585   2.216   9.075   0.727  0.2894  0.2507 -1.1229
  746MOL0     C  586   2.063   9.033   0.720 -0.8085 -0.0921  0.5900
  746MOL0     C  587   1.979   9.137   0.808 -0.3072 -0.1136  0.1645
  746MOL0     C  588   1.833   9.107   0.785  0.2825 -0.1172 -0.4796
  746MOL0     C  589   1.747   9.147   0.907  0.0460 -0.7308  0.5967
  746MOL0     C  590   1.591   9.118   0.879  0.1296 -0.0994 -0.1825
  746MOL0     C  591   1.547   8.979   0.830  0.1936 -0.0774  0.2819
  746MOL0     N  592   1.401   8.957   0.822 -0.2733 -0.6265  0.4171
  746MOL0     C  593   1.315   8.987   0.924 -0.2200 -0.2011 -0.1900
  746MOL0     C  594   1.191   8.976   0.866 -0.6233  0.2713  0.7368
  746MOL0     C  595   1.059   9.009   0.944  0.0214 -0.1337  0.9733
  746MOL0     C  596   1.067   8.935   1.083  0.4682  0.4626  0.0560
  746MOL0     C  597   1.089   8.782   1.080  0.6069  0.2897  0.2831
  746MOL0     C  598   0.956   8.710   1.055  0.4686  0.0633  0.5357
  746MOL0     O  599   0.881   8.705   1.178 -0.5756 -0.4701  0.2506
  746MOL0     C  600   0.748   8.671   1.163  0.5381  0.3101  0.8562
  746MOL0     C  601   0.671   8.721   1.268 -0.7002  0.3351 -0.3502
  746MOL0     C  602   0.541   8.688   1.278  0.6031  0.5594  0.1985
  746MOL0     C  603   0.469   8.733   1.406  0.0050 -0.8800 -0.0674
  746MOL0     C  604   0.478   8.615   1.172 -0.3046 -0.4785  0.0494
  746MOL0     C  605   0.340   8.561   1.177 -0.1545  0.6180 -0.3272
  746MOL0     O  606   0.260   8.577   1.065 -0.1408  0.7508  0.1885
  746MOL0     C  607   0.132   8.530   1.061  0.4850  0.9451 -0.1698
  746MOL0     C  608   0.041   8.604   1.132  0.4626  0.5425 -0.2295
  746MOL0     C  609  -0.087   8.564   1.162  0.2783 -0.1795 -0.4853
  746MOL0     C  610  -0.138   8.446   1.114  0.4690  0.1584  0.0743
  746MOL0     O  611  -0.262   8.412   1.153  0.1221  0.3513  0.4610
  746MOL0     C  612  -0.371   8.412   1.052  0.1632 -0.3039 -0.0319
  746MOL0     C  613  -0.510   8.404   1.132 -0.3244  0.5694 -0.7323
  746MOL0     C  614  -0.527   8.509   1.239 -0.9020 -0.4614 -0.6911
  746MOL0     C  615  -0.673   8.532   1.291 -0.5198 -0.3509 -0.4509
  746MOL0     C  616  -0.738   8.401   1.330 -0.8764  0.1477 -0.0021
  746MOL0     C  617  -0.874   8.423   1.392  0.2913 -0.2695 -0.6655
  746MOL0     C  618  -0.939   8.288   1.425  0.1126  0.0133 -0.0329
  746MOL0     C  619  -1.076   8.296   1.488 -0.7731  0.6155  0.7556
  746MOL0    Cl  620  -1.141   8.130   1.485  0.4330 -0.4449 -0.2609
  746MOL0     C  621  -0.055   8.365   1.036 -0.0135 -0.1871 -0.0981
  746MOL0     C  622   0.084   8.407   1.010 -1.4613  0.7426 -0.4987
  746MOL0     O  623   0.306   8.501   1.276 -0.3624  0.1504  0.3103
  746MOL0     C  624   0.557   8.580   1.058  0.5318  0.8163 -0.3726
  746MOL0     C  625   0.694   8.597   1.057 -0.5847 -0.1303 -0.6678
  746MOL0     N  626   1.205   8.934   0.737 -0.1021  0.4666  0.0330
  746MOL0     N  627   1.332   8.922   0.715 -0.3153  0.1474  0.0304
  746MOL0     C  628   2.666   9.021   0.602 -0.1529  0.0326 -0.6686
  746MOL0     C  629   2.770   8.947   0.536 -0.7698  0.3322 -0.4869
  746MOL0     C  630   3.061   8.673   0.314 -0.4662  0.2255 -0.0360
  746MOL0     C  631   3.136   8.630   0.429 -0.1922  0.5565 -0.1405
  746MOL0     C  632   3.252   8.563   0.412  0.5829 -0.8532  0.1607
  746MOL0     C  633   3.304   8.536   0.282  0.3053  0.6965  1.2691
  746MOL0     O  634   3.408   8.456   0.269  0.0980 -0.3563 -0.1208
  746MOL0     C  635   3.532   8.536   0.244  0.6505 -0.5209  0.4343
  746MOL0     C  636   3.649   8.437   0.208  0.5026 -0.0784 -0.7068
  746MOL0     C  637   3.738   8.488   0.095  0.5990  0.0924 -0.2435
  746MOL0     C  638   3.878   8.523   0.138  0.9201 -0.2518  0.4236
  746MOL0     C  639   3.944   8.598   0.024  0.2821 -0.0889  0.9909
  746MOL0     C  640   3.994   8.653  -0.067 -0.1459  0.5006  0.4031
  746MOL0     C  641   3.229   8.584   0.168 -0.4372  0.2467 -0.3460
  746MOL0     C  642   3.113   8.654   0.188  0.0875 -0.0555  0.0571
  746MOL0     H  643   2.643   8.641   0.509  1.5870 -0.8175  2.6022
  746MOL0     H  644   2.434   8.760   0.570 -0.8399  1.3144  2.9708
  746MOL0     H  645   2.288   8.929   0.578 -0.1780  0.5962  0.0915
  746MOL0     H  646   2.328   8.876   0.743  3.6456 -0.7256 -1.0326
  746MOL0     H  647   2.250   9.107   0.826 -0.6159 -1.3208 -0.2697
  746MOL0     H  648   2.225   9.164   0.663 -2.6713  2.2513  1.0153
  746MOL0     H  649   2.035   9.033   0.614  0.1262 -2.1891  0.3020
  746MOL0     H  650   2.042   8.930   0.751  0.8979 -1.3045 -1.9115
  746MOL0     H  651   2.010   9.126   0.913 -3.1385  2.5085  1.4367
  746MOL0     H  652   1.988   9.240   0.773  1.7617 -1.0570 -2.3671
  746MOL0     H  653   1.798   9.162   0.697 -0.5919 -0.8937 -0.6343
  746MOL0     H  654   1.824   9.000   0.768 -0.5413  0.0462 -1.1467
  746MOL0     H  655   1.782   9.088   0.993 -0.3414  0.3398  1.5133
  746MOL0     H  656   1.763   9.254   0.921 -0.2980 -0.5335 -0.4262
  746MOL0     H  657   1.542   9.140   0.974  1.0657 -3.3159  1.1825
  746MOL0     H  658   1.556   9.195   0.810 -0.0225  0.7411  0.8237
  746MOL0     H  659   1.606   8.908   0.888 -0.3653  0.1966  1.2038
  746MOL0     H  660   1.577   8.972   0.725 -1.7256 -0.1782 -0.2898
  746MOL0     H  661   1.336   9.011   1.027 -0.2129  2.6808 -0.7710
  746MOL0     H  662   1.038   9.116   0.947  1.7735  0.5277 -3.2802
  746MOL0     H  663   0.973   8.967   0.891 -0.4679  0.6653  1.1178
  746MOL0     H  664   0.968   8.949   1.128 -0.5492  1.0003 -2.2031
  746MOL0     H  665   1.139   8.984   1.149  0.1280  2.1754 -0.7893
  746MOL0     H  666   1.118   8.759   1.184 -0.4676  3.8587  1.4962
  746MOL0     H  667   1.174   8.754   1.016  1.2350  1.2118  0.6894
  746MOL0     H  668   0.987   8.607   1.037  0.7419 -0.1309  1.9966
  746MOL0     H  669   0.893   8.754   0.977 -1.7850  0.4682  2.4919
  746MOL0     H  670   0.731   8.768   1.344 -0.4501  0.0421 -0.3624
  746MOL0     H  671   0.369   8.756   1.368  0.8184  1.6162 -0.8791
  746MOL0     H  672   0.466   8.653   1.481 -0.7697  0.4744  1.3988
  746MOL0     H  673   0.523   8.819   1.446 -1.6220  0.6771 -1.0948
  746MOL0     H  674   0.065   8.698   1.180 -0.7490  2.3206 -2.8542
  746MOL0     H  675  -0.156   8.617   1.226 -0.8393 -1.4212 -0.6117
  746MOL0     H  676  -0.361   8.503   0.990 -2.1130 -0.4853 -0.7456
  746MOL0     H  677  -0.358   8.324   0.989  1.4662  2.1985 -3.6045
  746MOL0     H  678  -0.592   8.393   1.061  1.1862 -2.5676 -2.1983
  746MOL0     H  679  -0.503   8.306   1.181 -0.5978 -0.1917 -2.1401
  746MOL0     H  680  -0.472   8.601   1.217  0.4235 -0.5429  1.8733
  746MOL0     H  681  -0.479   8.461   1.325 -2.9379 -1.0807  0.1595
  746MOL0     H  682  -0.670   8.602   1.376  2.9151 -1.1316  0.2262
  746MOL0     H  683  -0.739   8.581   1.219  1.7349  1.1117 -1.6627
  746MOL0     H  684  -0.672   8.351   1.403 -1.5731  0.1582  0.6472
  746MOL0     H  685  -0.749   8.344   1.238 -2.1024  0.6959 -0.2183
  746MOL0     H  686  -0.871   8.482   1.484  2.7628 -0.2352 -0.7013
  746MOL0     H  687  -0.926   8.479   1.313  1.6151 -0.5945 -1.7999
  746MOL0     H  688  -0.871   8.242   1.498  0.8858 -0.3386 -0.9602
  746MOL0     H  689  -0.948   8.212   1.347 -0.8140 -3.1183  2.8578
  746MOL0     H  690  -1.134   8.350   1.413  0.8558 -0.8164 -1.6712
  746MOL0     H  691  -1.089   8.353   1.580 -0.0511  0.1650  1.1504
  746MOL0     H  692  -0.086   8.270   0.993 -1.1677 -0.3013  0.9322
  746MOL0     H  693   0.152   8.352   0.946  0.7024  1.9067  0.6523
  746MOL0     H  694   0.513   8.513   0.984 -0.9622 -0.7229  1.7531
  746MOL0     H  695   0.750   8.559   0.972 -0.3677 -0.4216 -0.3946
  746MOL0     H  696   2.670   9.122   0.643  1.0015 -0.9740  1.9548
  746MOL0     H  697   2.860   9.002   0.508  1.4331 -2.5603  0.3533
  746MOL0     H  698   3.106   8.644   0.533 -0.3408 -1.5247  0.1405
  746MOL0     H  699   3.315   8.528   0.493  1.2647  1.9360  0.9456
  746MOL0     H  700   3.527   8.609   0.163  0.8184  2.1513  2.6842
  746MOL0     H  701   3.557   8.592   0.334  0.5224  0.6990 -0.2733
  746MOL0     H  702   3.606   8.343   0.172 -2.8072 -0.3332  3.2675
  746MOL0     H  703   3.700   8.422   0.304 -0.8829  1.6517  0.3739
  746MOL0     H  704   3.690   8.572   0.043 -0.8010  0.4492  1.5334
  746MOL0     H  705   3.738   8.407   0.021  2.8935 -0.4016  0.2420
  746MOL0     H  706   3.926   8.431   0.172  0.8895 -0.8842 -1.1499
  746MOL0     H  707   3.868   8.596   0.218 -0.2192  4.1248 -3.2578
  746MOL0     H  708   4.034   8.700  -0.155 -0.8852 -2.0858 -1.4170
  746MOL0     H  709   3.252   8.570   0.063  2.2497 -0.2300  0.2363
  746MOL0     H  710   3.054   8.697   0.108 -0.9770  0.7374  1.2282
  747MOL0     O  711   2.510  10.472   0.276  0.2888  0.5774 -0.1094
  747MOL0     C  712   2.542  10.473   0.401  0.0136  0.6034 -0.1622
  747MOL0     O  713   2.467  10.522   0.506  1.0798  0.5651 -0.2621
  747MOL0     C  714   2.330  10.559   0.493  0.0779  0.3636 -0.0069
  747MOL0     C  715   2.242  10.482   0.420 -0.5270  0.5960  0.0246
  747MOL0     C  716   2.110  10.523   0.411  0.1220  0.2253 -0.2063
  747MOL0     C  717   2.063  10.643   0.458  0.6317  0.0060 -0.3340
  747MOL0     O  718   1.935  10.691   0.442 -0.2289  0.2273  0.1233
  747MOL0     C  719   1.832  10.588   0.412 -0.7619 -1.4611  0.1006
  747MOL0     C  720   1.824  10.551   0.261  0.1057 -0.0281  0.2502
  747MOL0     C  721   1.766  10.673   0.180  0.6423 -0.2768  0.9031
  747MOL0     C  722   1.613  10.689   0.183 -0.6175  0.1025 -0.3167
  747MOL0     C  723   1.552  10.805   0.112  0.1966 -0.5617 -0.3396
  747MOL0     C  724   1.603  10.943   0.151 -0.2012  0.3366 -0.6504
  747MOL0     C  725   1.531  11.052   0.078 -0.5823 -0.4750  0.1656
  747MOL0     C  726   1.572  11.191   0.135  0.4130  0.1494 -0.2860
  747MOL0     N  727   1.535  11.297   0.043 -0.5775 -0.5165  0.1300
  747MOL0     C  728   1.408  11.343   0.005 -0.7344  0.3647 -0.8255
  747MOL0     C  729   1.422  11.432  -0.093 -0.2798  0.5951  0.1463
  747MOL0     C  730   1.327  11.487  -0.199 -0.0399  0.9611 -0.2812
  747MOL0     C  731   1.186  11.444  -0.159 -0.5771  0.4483  0.6195
  747MOL0     C  732   1.087  11.460  -0.275  0.6840  0.8755  0.1026
  747MOL0     C  733   0.943  11.431  -0.230  0.7187  0.0797  0.2724
  747MOL0     O  734   0.866  11.456  -0.347 -0.0151 -0.2141  1.0511
  747MOL0     C  735   0.732  11.479  -0.338  0.1882 -0.8400  0.6928
  747MOL0     C  736   0.667  11.473  -0.219  1.5926  0.1354  0.6680
  747MOL0     C  737   0.528  11.500  -0.213  0.3805 -0.0780  0.1713
  747MOL0     C  738   0.469  11.461  -0.076 -1.0758 -0.1486  0.3446
  747MOL0     C  739   0.455  11.539  -0.329  0.7118  0.5420 -0.8331
  747MOL0     C  740   0.301  11.553  -0.327 -0.0177  0.1488 -0.8796
  747MOL0     O  741   0.238  11.546  -0.443  0.0724 -0.0780 -0.4381
  747MOL0     C  742   0.103  11.551  -0.436 -0.4260 -0.1197 -0.0879
  747MOL0     C  743   0.028  11.654  -0.375  0.3700  0.3209  0.7551
  747MOL0     C  744  -0.112  11.649  -0.373  0.7216  0.4584 -0.2239
  747MOL0     C  745  -0.181  11.547  -0.442  0.0944  1.2173 -0.4640
  747MOL0     O  746  -0.320  11.528  -0.454 -0.2066 -0.4813  0.3540
  747MOL0     C  747  -0.392  11.471  -0.350  0.6406 -0.8206 -0.4340
  747MOL0     C  748  -0.534  11.459  -0.413  0.4986 -0.4571 -0.5949
  747MOL0     C  749  -0.613  11.370  -0.308  0.4151  0.3361  0.2964
  747MOL0     C  750  -0.761  11.386  -0.338  0.3073 -0.2642 -0.5306
  747MOL0     C  751  -0.835  11.348  -0.204 -0.1615  0.0953 -0.0011
  747MOL0     C  752  -0.837  11.202  -0.184 -0.2829 -0.3501  0.1382
  747MOL0     C  753  -0.918  11.160  -0.059 -0.7787  0.2542  1.3231
  747MOL0     C  754  -0.901  11.005  -0.028 -0.0786 -0.0526 -0.5048
  747MOL0    Cl  755  -0.940  10.910  -0.167 -0.4858 -0.0993 -0.1633
  747MOL0     C  756  -0.102  11.460  -0.520  1.0834  0.3991  0.7517
  747MOL0     C  757   0.038  11.454  -0.513  0.2038 -0.2264 -0.6608
  747MOL0     O  758   0.249  11.558  -0.218 -0.2925  0.0900  0.0716
  747MOL0     C  759   0.529  11.552  -0.448 -0.2926 -0.1912  0.1892
  747MOL0     C  760   0.671  11.527  -0.456  0.0652 -0.4365 -1.2859
  747MOL0     N  761   1.556  11.459  -0.099 -0.8158 -0.5770 -0.1199
  747MOL0     N  762   1.617  11.375  -0.028 -0.7406 -0.2537 -0.7951
  747MOL0     C  763   2.156  10.719   0.536  0.8055 -0.5476 -0.3920
  747MOL0     C  764   2.287  10.678   0.553  0.2182 -0.6970 -1.1393
  747MOL0     C  765   2.675  10.417   0.434 -0.4922 -0.0549  0.9353
  747MOL0     C  766   2.749  10.473   0.539  0.1268  0.6649  0.0700
  747MOL0     C  767   2.879  10.425   0.577 -0.1878  0.2814  0.5186
  747MOL0     C  768   2.943  10.331   0.495 -0.2439 -0.0033  0.0076
  747MOL0     O  769   3.068  10.282   0.518  0.0048 -0.2271  0.4004
  747MOL0     C  770   3.145  10.336   0.627 -0.8907 -0.0513 -0.2947
  747MOL0     C  771   3.293  10.341   0.603 -0.7818  0.3325  0.8638
  747MOL0     C  772   3.368  10.382   0.729 -0.5245 -0.5572  0.2791
  747MOL0     C  773   3.511  10.425   0.725 -0.4438 -1.1650  0.0503
  747MOL0     C  774   3.598  10.318   0.660 -0.8870 -0.7351 -0.3295
  747MOL0     C  775   3.661  10.232   0.599  0.2312 -1.2454  0.7571
  747MOL0     C  776   2.869  10.273   0.391 -0.1988 -0.2964 -0.4923
  747MOL0     C  777   2.742  10.323   0.357  0.4590 -0.0710 -0.3077
  747MOL0     H  778   2.278  10.392   0.370  0.9144  0.3737  1.3793
  747MOL0     H  779   2.046  10.457   0.354  0.5951 -0.4763  0.0649
  747MOL0     H  780   1.841  10.497   0.472 -1.1026 -2.1604 -0.8726
  747MOL0     H  781   1.742  10.633   0.454  1.3549  5.4394 -1.5442
  747MOL0     H  782   1.919  10.517   0.220  0.4035  1.4319 -0.3089
  747MOL0     H  783   1.759  10.463   0.256 -2.2398  1.4992  1.9545
  747MOL0     H  784   1.811  10.767   0.214 -2.9266  2.4352 -1.1773
  747MOL0     H  785   1.792  10.660   0.075  0.6941 -0.0609  0.8882
  747MOL0     H  786   1.574  10.591   0.152 -0.5028 -0.4199  1.0959
  747MOL0     H  787   1.590  10.689   0.290 -0.0307  0.5240 -0.1819
  747MOL0     H  788   1.567  10.795   0.004  1.1468 -1.7366 -0.1147
  747MOL0     H  789   1.447  10.814   0.142  0.4082 -0.1568  0.2962
  747MOL0     H  790   1.595  10.961   0.259  1.8191 -0.8983 -0.2433
  747MOL0     H  791   1.711  10.943   0.135 -0.1959 -2.9195 -1.2433
  747MOL0     H  792   1.565  11.043  -0.026 -1.0654 -1.1407  0.0529
  747MOL0     H  793   1.422  11.040   0.085 -0.7366  1.0944  0.6597
  747MOL0     H  794   1.678  11.179   0.156  0.1225 -1.4608  0.3925
  747MOL0     H  795   1.515  11.205   0.227 -1.3493 -1.3220 -1.0904
  747MOL0     H  796   1.318  11.291   0.036 -2.1583  0.6931 -3.9962
  747MOL0     H  797   1.333  11.596  -0.203  3.0972  0.9425  1.3072
  747MOL0     H  798   1.360  11.443  -0.294  2.5363  2.6910 -0.2905
  747MOL0     H  799   1.165  11.500  -0.067  1.3093  0.8384  0.8474
  747MOL0     H  800   1.185  11.341  -0.123 -3.5262  0.0713 -0.2789
  747MOL0     H  801   1.111  11.386  -0.352 -0.2154  2.3247 -1.6538
  747MOL0     H  802   1.101  11.556  -0.325  0.1341  1.4563  1.0469
  747MOL0     H  803   0.921  11.510  -0.158  0.7015  0.7338 -0.4325
  747MOL0     H  804   0.933  11.334  -0.182 -0.7558 -1.7199 -3.2858
  747MOL0     H  805   0.715  11.433  -0.130 -1.2927 -5.2011  0.2563
  747MOL0     H  806   0.537  11.396  -0.021 -1.0525 -2.5094 -2.2927
  747MOL0     H  807   0.447  11.545  -0.009 -0.4791 -1.7942  2.7216
  747MOL0     H  808   0.377  11.402  -0.077 -0.3770 -1.3204 -2.1322
  747MOL0     H  809   0.081  11.745  -0.347 -2.4673  2.3076  0.1183
  747MOL0     H  810  -0.165  11.730  -0.325  1.7499  1.0832 -0.1017
  747MOL0     H  811  -0.370  11.365  -0.332 -1.1476 -0.8286  2.1880
  747MOL0     H  812  -0.393  11.529  -0.258  0.1076 -2.0808  0.3775
  747MOL0     H  813  -0.584  11.550  -0.448  0.5141  0.1093  0.7979
  747MOL0     H  814  -0.523  11.400  -0.505  0.1835 -0.5924 -0.5455
  747MOL0     H  815  -0.587  11.411  -0.210  0.2796 -3.6988  2.2244
  747MOL0     H  816  -0.576  11.267  -0.309  2.5953  1.0065 -2.8599
  747MOL0     H  817  -0.780  11.490  -0.366  0.4845 -0.2297 -0.5263
  747MOL0     H  818  -0.795  11.322  -0.419  0.3458  1.2341 -1.7810
  747MOL0     H  819  -0.939  11.382  -0.204 -1.0211 -2.3551  1.4892
  747MOL0     H  820  -0.790  11.401  -0.120 -0.4546  0.6446 -0.1845
  747MOL0     H  821  -0.892  11.164  -0.270 -1.2633 -1.0493  1.0382
  747MOL0     H  822  -0.736  11.160  -0.187  0.1594  0.7383 -0.6883
  747MOL0     H  823  -1.023  11.188  -0.073 -0.9852  0.5974  3.2805
  747MOL0     H  824  -0.872  11.217   0.023  2.4838 -1.8733  1.1596
  747MOL0     H  825  -0.961  10.978   0.060  3.2208 -0.4100  1.8119
  747MOL0     H  826  -0.798  10.994   0.006 -0.4654 -0.3609  0.6178
  747MOL0     H  827  -0.149  11.388  -0.586  3.0267  0.2165 -0.5198
  747MOL0     H  828   0.096  11.374  -0.559  3.2674  1.5519 -0.1513
  747MOL0     H  829   0.484  11.584  -0.541  0.0740  2.8199  0.9555
  747MOL0     H  830   0.727  11.534  -0.549  1.2149  1.2457 -0.5323
  747MOL0     H  831   2.112  10.791   0.605 -2.0277 -2.5176  0.0393
  747MOL0     H  832   2.355  10.727   0.623 -1.0586 -0.4590 -0.0201
  747MOL0     H  833   2.706  10.547   0.605 -2.1987 -0.6987  0.1924
  747MOL0     H  834   2.932  10.466   0.663 -1.3184  0.4302  1.1627
  747MOL0     H  835   3.125  10.442   0.647  1.7229  0.7261 -1.4189
  747MOL0     H  836   3.120  10.280   0.718 -1.0520 -1.9594 -1.4702
  747MOL0     H  837   3.324  10.404   0.518  1.1536  1.4148  2.2883
  747MOL0     H  838   3.325  10.238   0.581 -0.9316  0.9516 -3.0838
  747MOL0     H  839   3.363  10.297   0.798  2.7026 -2.6222 -1.7531
  747MOL0     H  840   3.319  10.461   0.785 -0.5713 -0.7244  0.4757
  747MOL0     H  841   3.530  10.442   0.831  0.9181  1.1730 -0.5017
  747MOL0     H  842   3.514  10.521   0.673 -0.6032  0.4509  2.8785
  747MOL0     H  843   3.732  10.168   0.551  1.9950 -0.9141  2.7746
  747MOL0     H  844   2.917  10.197   0.330  3.0133  1.1315  0.0741
  747MOL0     H  845   2.689  10.290   0.268  0.9416  0.6788 -0.8829
  748MOL0     O  846   3.521   3.881   7.065 -0.1393 -0.5027 -0.2476
  748MOL0     C  847   3.555   3.984   7.011 -0.1096 -0.3243  0.5170
  748MOL0     O  848   3.478   4.099   7.011  0.0297  0.0116  0.4270
  748MOL0     C  849   3.353   4.087   7.053  0.1819 -0.1875  0.4795
  748MOL0     C  850   3.317   4.183   7.145 -0.0011  0.6422  0.9601
  748MOL0     C  851   3.181   4.185   7.183  0.1260 -0.7403  0.0702
  748MOL0     C  852   3.076   4.108   7.122  0.2760  0.4828 -0.3923
  748MOL0     O  853   2.949   4.131   7.160  0.1659  0.1183 -0.3975
  748MOL0     C  854   2.842   4.108   7.062  0.5282  0.1852 -0.1053
  748MOL0     C  855   2.703   4.113   7.122 -0.5086 -0.3303 -0.1272
  748MOL0     C  856   2.599   4.103   7.008  0.0364 -0.0776 -0.7648
  748MOL0     C  857   2.462   4.129   7.069 -0.3426  0.2027  0.7400
  748MOL0     C  858   2.354   4.110   6.959  0.0011  0.5154  0.0993
  748MOL0     C  859   2.217   4.126   7.015  0.8950  0.3178  0.2008
  748MOL0     C  860   2.108   4.087   6.908  0.1131  0.0452  0.2618
  748MOL0     C  861   1.965   4.107   6.963  0.8123 -0.4264  0.5291
  748MOL0     N  862   1.867   4.077   6.856  0.0700  0.5784 -0.1435
  748MOL0     C  863   1.817   4.162   6.767 -0.1295 -0.8505 -0.0421
  748MOL0     C  864   1.723   4.095   6.689  0.0885 -0.5238 -0.5613
  748MOL0     C  865   1.627   4.152   6.583 -0.7232 -0.0374 -0.3831
  748MOL0     C  866   1.474   4.150   6.604  1.3861 -0.3344 -0.2239
  748MOL0     C  867   1.420   4.061   6.706  0.7837 -0.3247 -0.3075
  748MOL0     C  868   1.274   4.073   6.723 -0.3926  0.0827 -0.6855
  748MOL0     O  869   1.200   4.025   6.611  0.5960  0.0718  0.1997
  748MOL0     C  870   1.064   4.026   6.613  0.3223 -0.0164 -0.7717
  748MOL0     C  871   1.004   3.931   6.533  0.6457 -0.0681 -0.6228
  748MOL0     C  872   0.866   3.913   6.535 -0.1834 -0.1944 -0.0405
  748MOL0     C  873   0.810   3.787   6.478  0.4403  0.2279  0.0779
  748MOL0     C  874   0.788   3.991   6.617  0.7750 -0.2543 -0.1698
  748MOL0     C  875   0.643   3.972   6.635 -0.5128  0.4171 -0.6024
  748MOL0     O  876   0.585   4.014   6.752  0.4465 -0.0268 -0.2020
  748MOL0     C  877   0.453   3.999   6.770 -0.3149  0.3799  0.3621
  748MOL0     C  878   0.389   4.099   6.852  0.7732 -0.3111 -0.2630
  748MOL0     C  879   0.250   4.090   6.874  0.1087 -0.3622 -0.0295
  748MOL0     C  880   0.169   3.984   6.825 -0.0071  0.8611  0.0483
  748MOL0     O  881   0.037   3.987   6.845 -0.0763 -0.2549 -0.9710
  748MOL0     C  882  -0.040   3.861   6.823  1.3993 -0.9909 -0.5840
  748MOL0     C  883  -0.099   3.840   6.689 -0.0298 -0.4106  0.0440
  748MOL0     C  884  -0.249   3.886   6.674  1.1035 -0.4052  0.1499
  748MOL0     C  885  -0.288   3.880   6.531  0.8156  0.4461 -0.0090
  748MOL0     C  886  -0.301   3.737   6.485  0.2575 -0.9092 -0.1252
  748MOL0     C  887  -0.399   3.715   6.368 -0.2222 -0.0524 -1.8407
  748MOL0     C  888  -0.406   3.574   6.308 -0.2599 -0.2714  0.4470
  748MOL0     C  889  -0.465   3.574   6.179 -0.3059 -0.1406 -0.2806
  748MOL0    Cl  890  -0.643   3.595   6.203 -0.2004 -0.0565 -0.0497
  748MOL0     C  891   0.232   3.883   6.745  0.5940 -0.0458 -0.3335
  748MOL0     C  892   0.373   3.884   6.726  0.2771 -0.1512  0.2152
  748MOL0     O  893   0.590   3.918   6.536  0.2247 -0.3229 -0.6472
  748MOL0     C  894   0.847   4.092   6.698 -0.1395 -0.1390  0.3904
  748MOL0     C  895   0.989   4.114   6.688  0.5450  0.5147  0.0434
  748MOL0     N  896   1.732   3.960   6.722  0.4470 -0.4746 -0.3254
  748MOL0     N  897   1.808   3.953   6.832  0.2154 -0.1181 -0.3050
  748MOL0     C  898   3.120   4.012   7.030 -0.6374  0.5497  0.2547
  748MOL0     C  899   3.256   4.007   6.994  0.1073 -0.0673 -0.1679
  748MOL0     C  900   3.701   3.988   6.999  1.1370  0.4236  0.8272
  748MOL0     C  901   3.767   4.102   6.956  1.0886 -0.1978  1.1357
  748MOL0     C  902   3.908   4.107   6.938  0.4397 -0.8554 -0.0275
  748MOL0     C  903   3.985   3.989   6.953  0.9574 -1.3511  0.2297
  748MOL0     O  904   4.119   4.003   6.940  0.0130  0.3211 -0.4456
  748MOL0     C  905   4.190   3.888   6.900 -0.2613 -0.2371 -0.2004
  748MOL0     C  906   4.316   3.937   6.820 -0.2220 -0.4190 -0.1325
  748MOL0     C  907   4.409   4.029   6.905 -0.4203 -0.0784 -0.1485
  748MOL0     C  908   4.486   4.143   6.823 -0.7202  0.5642 -0.4061
  748MOL0     C  909   4.591   4.067   6.748  0.4548  0.0406 -0.3291
  748MOL0     C  910   4.681   4.006   6.704 -0.3580 -0.0279  0.2572
  748MOL0     C  911   3.920   3.877   6.995  0.5740  1.1241 -0.8796
  748MOL0     C  912   3.776   3.874   7.014  0.2753  0.3682  0.4526
  748MOL0     H  913   3.386   4.252   7.193  1.0147 -0.4381  1.1001
  748MOL0     H  914   3.160   4.258   7.260  1.0676  1.2643 -1.4869
  748MOL0     H  915   2.844   4.178   6.978 -3.1385 -0.1202 -0.6073
  748MOL0     H  916   2.859   4.007   7.022 -0.2903  0.1695 -0.4246
  748MOL0     H  917   2.687   4.019   7.177 -1.3387 -0.3635 -0.4051
  748MOL0     H  918   2.704   4.201   7.186  1.4740 -0.9013  0.6993
  748MOL0     H  919   2.616   4.174   6.926  0.1510  0.5894 -0.1712
  748MOL0     H  920   2.598   4.000   6.972  2.3429 -0.1310 -0.8146
  748MOL0     H  921   2.436   4.057   7.148  0.8185 -3.8089 -2.1758
  748MOL0     H  922   2.461   4.233   7.102 -0.4533  1.9548 -4.0686
  748MOL0     H  923   2.379   4.174   6.873 -0.8333  1.7688  0.7614
  748MOL0     H  924   2.373   4.009   6.920  1.8153  0.5278  0.8504
  748MOL0     H  925   2.196   4.061   7.100 -0.2362  1.1348  0.5681
  748MOL0     H  926   2.201   4.231   7.041 -0.6067  0.2320 -0.2618
  748MOL0     H  927   2.129   4.148   6.820  0.9413 -1.5475 -0.6726
  748MOL0     H  928   2.122   3.982   6.880 -0.1300  0.0024  0.2949
  748MOL0     H  929   1.942   4.207   7.004 -0.6867 -0.9105  0.9403
  748MOL0     H  930   1.952   4.028   7.037 -0.0924 -3.0957 -2.3113
  748MOL0     H  931   1.838   4.268   6.765 -2.0296 -0.4448 -1.6296
  748MOL0     H  932   1.654   4.257   6.566  0.1503  0.2276  2.2302
  748MOL0     H  933   1.643   4.088   6.496 -0.4070  0.0708 -0.4043
  748MOL0     H  934   1.433   4.124   6.506 -2.2357  0.0906  1.0243
  748MOL0     H  935   1.445   4.255   6.614 -0.8213 -0.9153  0.1194
  748MOL0     H  936   1.465   4.081   6.804  0.9207 -3.4013  0.3488
  748MOL0     H  937   1.446   3.956   6.692  2.1878 -0.7049  3.7116
  748MOL0     H  938   1.247   4.177   6.744 -0.3262  0.0318 -0.3468
  748MOL0     H  939   1.250   4.016   6.813  1.9564  0.1806  0.0693
  748MOL0     H  940   1.066   3.861   6.478  2.6149  1.8940 -1.0320
  748MOL0     H  941   0.756   3.738   6.560 -0.7512 -1.1294 -1.4541
  748MOL0     H  942   0.738   3.797   6.396  0.6020 -0.2681 -0.1302
  748MOL0     H  943   0.888   3.719   6.443  0.2687  1.0820 -2.1536
  748MOL0     H  944   0.448   4.183   6.887  2.7766 -1.2128 -1.3112
  748MOL0     H  945   0.187   4.168   6.916 -1.3761 -0.9637 -1.0426
  748MOL0     H  946   0.022   3.777   6.859  2.4256 -0.0946 -0.1890
  748MOL0     H  947  -0.124   3.866   6.893  0.2309  1.8375 -2.0362
  748MOL0     H  948  -0.036   3.903   6.625  3.2580  0.0895  3.4312
  748MOL0     H  949  -0.093   3.734   6.663  0.6406  0.2910 -3.0181
  748MOL0     H  950  -0.256   3.990   6.707 -0.2148 -0.3253 -0.3390
  748MOL0     H  951  -0.319   3.824   6.732 -1.2831  2.5009  0.6002
  748MOL0     H  952  -0.384   3.932   6.536  1.3408  1.4518 -0.1922
  748MOL0     H  953  -0.225   3.927   6.456 -1.7929 -0.5159 -3.0196
  748MOL0     H  954  -0.347   3.678   6.565  0.1568  1.6513  1.8256
  748MOL0     H  955  -0.201   3.702   6.457  0.1824 -1.0946 -0.1635
  748MOL0     H  956  -0.499   3.732   6.411  0.0540  0.4937 -1.3960
  748MOL0     H  957  -0.379   3.787   6.288 -0.6670 -0.2917 -2.1693
  748MOL0     H  958  -0.458   3.502   6.372  0.6257 -1.6178 -0.2966
  748MOL0     H  959  -0.303   3.536   6.302 -0.5096 -0.9365  0.3056
  748MOL0     H  960  -0.447   3.484   6.119 -1.1141 -0.1677 -0.5000
  748MOL0     H  961  -0.421   3.654   6.120 -1.3810 -0.0816 -1.0338
  748MOL0     H  962   0.178   3.796   6.709  2.4315 -2.2238  1.8236
  748MOL0     H  963   0.414   3.799   6.673 -2.2373  0.2235 -2.5662
  748MOL0     H  964   0.780   4.145   6.765 -1.6168 -1.0343 -0.3367
  748MOL0     H  965   1.036   4.194   6.744 -0.5909  1.0809  0.2116
  748MOL0     H  966   3.052   3.940   6.985 -0.0596 -1.2868  2.1220
  748MOL0     H  967   3.277   3.936   6.915 -2.3419 -0.2552 -0.7236
  748MOL0     H  968   3.709   4.192   6.939  1.3716 -0.3498 -0.8813
  748MOL0     H  969   3.949   4.205   6.917 -0.0825 -0.5112  0.5153
  748MOL0     H  970   4.231   3.840   6.989  2.4883  0.9105 -0.7284
  748MOL0     H  971   4.130   3.816   6.844  1.7192  0.4109 -3.4319
  748MOL0     H  972   4.285   3.987   6.728 -0.4176  1.2568  0.7945
  748MOL0     H  973   4.373   3.854   6.778 -1.4111  0.6596 -4.3785
  748MOL0     H  974   4.477   3.964   6.962  0.7545  1.6160  0.4583
  748MOL0     H  975   4.357   4.081   6.985  3.0556 -0.8368  2.9207
  748MOL0     H  976   4.525   4.212   6.898  0.5300  1.5762 -1.9397
  748MOL0     H  977   4.413   4.189   6.756  0.0915  2.9728  0.2578
  748MOL0     H  978   4.762   3.951   6.661 -2.0948  0.4238 -4.0877
  748MOL0     H  979   3.976   3.793   7.035  2.0853  3.1987  1.7351
  748MOL0     H  980   3.733   3.780   7.046 -1.0303  1.4539  2.0654
  749MOL0     O  981   5.903   8.700   0.865 -0.7528  0.1549  0.4293
  749MOL0     C  982   5.880   8.819   0.855 -0.5306 -0.1678  0.1951
  749MOL0     O  983   5.757   8.874   0.819  0.0127  0.9788 -0.2582
  749MOL0     C  984   5.639   8.803   0.832 -0.3982 -0.2764 -0.4549
  749MOL0     C  985   5.611   8.733   0.950  0.3770  0.0217 -0.2558
  749MOL0     C  986   5.490   8.660   0.959 -0.0272  0.1145 -0.4942
  749MOL0     C  987   5.385   8.667   0.864 -0.5775 -0.0787  0.5323
  749MOL0     O  988   5.271   8.604   0.869  0.8096 -0.3583  0.2564
  749MOL0     C  989   5.221   8.565   1.001 -0.2209  0.0433  0.0009
  749MOL0     C  990   5.185   8.686   1.084 -0.1052  0.3975 -0.3512
  749MOL0     C  991   5.067   8.763   1.036  0.7696  0.1307  0.7462
  749MOL0     C  992   5.076   8.900   1.109 -0.5655 -0.0263 -0.3072
  749MOL0     C  993   4.998   9.002   1.023 -0.1656  0.7220  0.4255
  749MOL0     C  994   4.846   8.994   1.032  0.1083  0.1181  0.3743
  749MOL0     C  995   4.772   9.124   1.065  0.5574 -0.4466  1.2921
  749MOL0     C  996   4.627   9.119   1.030 -0.2768  0.0627 -0.0421
  749MOL0     N  997   4.540   9.228   1.088 -0.2281  0.4118  0.3046
  749MOL0     C  998   4.437   9.190   1.171  0.5612 -0.2798  0.1399
  749MOL0     C  999   4.377   9.312   1.189 -0.3031 -1.0629 -0.5644
  749MOL0     C 1000   4.253   9.322   1.270 -0.2629  0.9188 -0.1886
  749MOL0     C 1001   4.128   9.314   1.180 -0.4351 -0.4758 -0.4335
  749MOL0     C 1002   4.011   9.334   1.266  0.3138 -0.2361 -0.8811
  749MOL0     C 1003   3.874   9.298   1.201 -0.6294 -0.6762 -0.3053
  749MOL0     O 1004   3.771   9.327   1.302  0.0794 -0.5751  0.3968
  749MOL0     C 1005   3.634   9.315   1.280 -0.8845 -0.2266 -0.6243
  749MOL0     C 1006   3.580   9.255   1.168 -1.4098 -0.1371  0.0191
  749MOL0     C 1007   3.437   9.266   1.145  1.1712  0.2001 -0.0928
  749MOL0     C 1008   3.386   9.178   1.024 -0.8503  0.2294  0.4593
  749MOL0     C 1009   3.348   9.315   1.239  0.4050 -0.2028 -0.3975
  749MOL0     C 1010   3.199   9.320   1.217  0.0302 -0.2913 -0.0766
  749MOL0     O 1011   3.134   9.354   1.333  0.8731  0.6928  0.0453
  749MOL0     C 1012   2.998   9.354   1.343 -0.0249  0.0356  0.1959
  749MOL0     C 1013   2.896   9.282   1.276 -0.6137  0.8909  0.6616
  749MOL0     C 1014   2.767   9.278   1.307 -0.7438  0.5400 -0.2256
  749MOL0     C 1015   2.715   9.360   1.406  0.4537 -0.8210 -0.4237
  749MOL0     O 1016   2.576   9.357   1.420  0.4077 -0.6547 -0.3129
  749MOL0     C 1017   2.528   9.437   1.531  0.1961 -0.0773 -0.1396
  749MOL0     C 1018   2.530   9.366   1.663 -0.0060 -0.0369  0.1103
  749MOL0     C 1019   2.487   9.222   1.650 -0.0187 -0.5599 -0.1623
  749MOL0     C 1020   2.343   9.206   1.612  0.7227  0.8169 -0.0174
  749MOL0     C 1021   2.283   9.062   1.629 -0.6053  0.0038 -0.0937
  749MOL0     C 1022   2.130   9.050   1.619 -0.5154  0.0205 -0.2415
  749MOL0     C 1023   2.068   9.119   1.498 -1.0833  0.1878 -0.5923
  749MOL0     C 1024   2.126   9.066   1.363  0.1926  0.0810 -0.4929
  749MOL0    Cl 1025   2.053   9.148   1.216  0.1557 -0.1419 -0.5127
  749MOL0     C 1026   2.807   9.443   1.472  1.0791  0.0097 -0.5908
  749MOL0     C 1027   2.941   9.436   1.448  0.5708  0.6782  0.2929
  749MOL0     O 1028   3.140   9.294   1.109 -0.0715  0.7598  0.0200
  749MOL0     C 1029   3.406   9.376   1.356 -0.0351  0.5494  0.6256
  749MOL0     C 1030   3.545   9.371   1.375 -0.1674 -0.3158  0.2279
  749MOL0     N 1031   4.430   9.407   1.103 -0.2271  0.2128  0.6339
  749MOL0     N 1032   4.529   9.356   1.041  0.3025  0.6544  0.0349
  749MOL0     C 1033   5.415   8.743   0.745 -0.4413  0.8074  0.2021
  749MOL0     C 1034   5.544   8.801   0.725 -0.2731 -0.4097 -0.8073
  749MOL0     C 1035   6.005   8.905   0.854  0.3010  0.4861  0.0017
  749MOL0     C 1036   6.017   9.007   0.750 -0.1742  0.0491  0.2576
  749MOL0     C 1037   6.135   9.082   0.742 -0.0328  0.4661  1.1254
  749MOL0     C 1038   6.242   9.064   0.823 -0.5014 -0.8951  1.1663
  749MOL0     O 1039   6.355   9.139   0.794  0.3716 -0.2631  0.1166
  749MOL0     C 1040   6.357   9.266   0.851  0.2493  0.1259 -0.6948
  749MOL0     C 1041   6.502   9.302   0.857 -0.2862 -1.4892 -0.1766
  749MOL0     C 1042   6.530   9.432   0.935  0.1631 -0.1444  0.3568
  749MOL0     C 1043   6.555   9.552   0.834 -0.0884  0.0496 -0.4836
  749MOL0     C 1044   6.432   9.573   0.752  0.6147  0.0800 -0.4494
  749MOL0     C 1045   6.338   9.592   0.680  0.1373  0.2535 -0.2043
  749MOL0     C 1046   6.240   8.957   0.909 -0.8531  0.2523 -1.0476
  749MOL0     C 1047   6.123   8.877   0.927 -0.1201  0.8051  0.9387
  749MOL0     H 1048   5.679   8.719   1.033  0.1123  0.6457  0.0763
  749MOL0     H 1049   5.485   8.613   1.057  2.8147  1.9574  0.6800
  749MOL0     H 1050   5.128   8.508   0.993 -1.6745  2.3910 -1.2124
  749MOL0     H 1051   5.286   8.504   1.064 -0.0873  0.6849  0.4969
  749MOL0     H 1052   5.165   8.651   1.186 -1.4906 -1.4979 -1.2103
  749MOL0     H 1053   5.274   8.750   1.089  0.4383 -0.2927 -0.9307
  749MOL0     H 1054   5.065   8.761   0.927 -2.5649 -2.8842  0.6629
  749MOL0     H 1055   4.971   8.724   1.071  1.5852 -1.5787  1.2164
  749MOL0     H 1056   5.043   8.892   1.213 -0.3217  0.1491 -0.2168
  749MOL0     H 1057   5.176   8.944   1.104 -2.0407  4.5586  3.0528
  749MOL0     H 1058   5.034   9.094   1.069 -0.5608 -0.6837  3.8228
  749MOL0     H 1059   5.025   8.999   0.917  0.2755 -0.2716  0.5514
  749MOL0     H 1060   4.798   8.950   0.945 -1.8349  0.8044  1.0386
  749MOL0     H 1061   4.815   8.924   1.110  1.9191 -1.0081  0.1480
  749MOL0     H 1062   4.780   9.153   1.170 -0.1148  2.6687  0.5752
  749MOL0     H 1063   4.817   9.205   1.007  1.3625  0.8907  3.6711
  749MOL0     H 1064   4.586   9.028   1.073  1.4810 -0.8455 -0.2176
  749MOL0     H 1065   4.615   9.113   0.921  0.9147  1.7238 -0.3010
  749MOL0     H 1066   4.405   9.101   1.223  2.1034 -1.2208 -0.4679
  749MOL0     H 1067   4.253   9.241   1.345  0.1453  0.6288 -0.4951
  749MOL0     H 1068   4.246   9.405   1.341  0.6352 -0.1145  1.1868
  749MOL0     H 1069   4.125   9.214   1.137  0.3082 -1.0055  0.7178
  749MOL0     H 1070   4.139   9.389   1.101 -1.6279  1.5135  1.1989
  749MOL0     H 1071   4.008   9.440   1.291 -1.0419 -0.2758 -0.7773
  749MOL0     H 1072   4.012   9.277   1.360 -0.2311 -0.8161 -1.2156
  749MOL0     H 1073   3.869   9.193   1.171 -1.5115 -0.8359  0.3625
  749MOL0     H 1074   3.858   9.362   1.113 -2.0440 -0.3170  0.1920
  749MOL0     H 1075   3.646   9.210   1.095  1.7081  0.4029  2.3010
  749MOL0     H 1076   3.477   9.145   0.973  0.4880  1.6379  1.8307
  749MOL0     H 1077   3.318   9.095   1.040 -0.3128 -0.2516  0.2806
  749MOL0     H 1078   3.337   9.244   0.951 -0.2595 -0.8906 -0.9938
  749MOL0     H 1079   2.931   9.222   1.193 -0.2959  1.0025  0.7136
  749MOL0     H 1080   2.707   9.208   1.251  2.9203 -3.4957  0.4072
  749MOL0     H 1081   2.579   9.534   1.529  1.2783 -0.6444 -0.5269
  749MOL0     H 1082   2.423   9.463   1.516  0.1333  0.1099  0.5600
  749MOL0     H 1083   2.632   9.353   1.702 -0.0695  1.1200  0.7168
  749MOL0     H 1084   2.470   9.421   1.735  1.9734  0.8303  1.1952
  749MOL0     H 1085   2.501   9.164   1.742 -1.9245 -0.1790  0.4230
  749MOL0     H 1086   2.550   9.168   1.580 -1.7713 -1.1920 -1.3243
  749MOL0     H 1087   2.284   9.265   1.681  0.0449  1.4797 -1.1430
  749MOL0     H 1088   2.323   9.249   1.513  2.3401  0.1076 -0.6952
  749MOL0     H 1089   2.310   9.019   1.726  0.5520  1.5830  0.3323
  749MOL0     H 1090   2.338   9.007   1.552  1.6878  0.4572  1.1052
  749MOL0     H 1091   2.117   8.942   1.626  1.1812 -0.1970 -0.0621
  749MOL0     H 1092   2.078   9.084   1.709 -2.4598 -4.0642  0.3759
  749MOL0     H 1093   2.078   9.228   1.494  0.6422  0.4323  4.2587
  749MOL0     H 1094   1.963   9.091   1.497 -1.3933  1.2743 -2.2334
  749MOL0     H 1095   2.097   8.960   1.362 -0.8183  0.3039  1.3028
  749MOL0     H 1096   2.236   9.060   1.366  0.1765 -0.3530  2.7423
  749MOL0     H 1097   2.775   9.513   1.548  1.3951  0.5915 -0.9837
  749MOL0     H 1098   3.010   9.501   1.501 -0.8171  1.6338  0.9659
  749MOL0     H 1099   3.350   9.425   1.435 -0.4159 -0.8695  1.2755
  749MOL0     H 1100   3.591   9.414   1.463  0.0264  0.3356 -0.1820
  749MOL0     H 1101   5.337   8.758   0.671 -0.5480  1.7093  0.4799
  749MOL0     H 1102   5.551   8.846   0.626 -1.7330  0.9440 -0.3359
  749MOL0     H 1103   5.941   9.034   0.678  0.1291 -1.1063 -0.5284
  749MOL0     H 1104   6.140   9.159   0.665 -0.3602  0.6085  1.2458
  749MOL0     H 1105   6.300   9.340   0.795 -0.1082  0.9918  0.7881
  749MOL0     H 1106   6.322   9.266   0.954 -0.5010  0.8165 -0.9424
  749MOL0     H 1107   6.555   9.300   0.761 -1.7828  0.3636 -1.0949
  749MOL0     H 1108   6.546   9.211   0.900  0.6112 -2.3974 -2.8208
  749MOL0     H 1109   6.621   9.409   0.991  1.9681  1.7281 -1.6359
  749MOL0     H 1110   6.450   9.464   1.003 -1.3317 -0.2471 -1.2791
  749MOL0     H 1111   6.641   9.527   0.771  1.7621 -1.3306  2.4116
  749MOL0     H 1112   6.576   9.645   0.887  0.8158 -1.0223  1.0929
  749MOL0     H 1113   6.258   9.613   0.611  1.4775  1.1732 -1.5432
  749MOL0     H 1114   6.328   8.937   0.968 -1.4202  0.6628 -0.0401
  749MOL0     H 1115   6.128   8.794   0.997 -1.8728  2.1572  2.7682
  750MOL0     O 1116  11.173   0.550   8.234  0.2313  0.8966  0.9857
  750MOL0     C 1117  11.249   0.511   8.317 -0.7006  0.2208  0.1678
  750MOL0     O 1118  11.219   0.471   8.447  0.2692 -0.2739  0.6954
  750MOL0     C 1119  11.091   0.501   8.500  0.3678 -0.4702  0.4576
  750MOL0     C 1120  11.044   0.421   8.604  0.0545  0.1409  0.4819
  750MOL0     C 1121  10.929   0.456   8.680  0.7765 -0.3227  0.1317
  750MOL0     C 1122  10.844   0.561   8.649 -0.1342  0.3600 -0.0666
  750MOL0     O 1123  10.733   0.587   8.726 -0.3480  0.9641 -0.0408
  750MOL0     C 1124  10.702   0.728   8.733  0.8034 -0.3171 -0.2485
  750MOL0     C 1125  10.582   0.746   8.837  0.6732 -0.0333 -0.2028
  750MOL0     C 1126  10.464   0.643   8.811 -0.1012  0.2005  1.0967
  750MOL0     C 1127  10.332   0.670   8.883  0.2558 -0.3344  0.9533
  750MOL0     C 1128  10.214   0.573   8.866  0.3791 -0.3653  0.4414
  750MOL0     C 1129  10.178   0.569   8.712  0.4856  0.1508 -0.4665
  750MOL0     C 1130  10.197   0.438   8.637  0.1343  0.7292 -1.2882
  750MOL0     C 1131  10.210   0.456   8.484 -0.4414 -0.5203 -1.0098
  750MOL0     N 1132  10.083   0.463   8.412 -0.4544 -0.0424 -0.3133
  750MOL0     C 1133  10.053   0.401   8.298 -0.2059 -0.3306  0.0356
  750MOL0     C 1134   9.925   0.443   8.281  1.0896  0.9901  0.9425
  750MOL0     C 1135   9.828   0.381   8.178  0.7899  0.0283 -0.6332
  750MOL0     C 1136   9.761   0.268   8.263 -0.3254  0.5650 -0.4928
  750MOL0     C 1137   9.664   0.179   8.188  0.8682 -0.1899  0.2773
  750MOL0     C 1138   9.520   0.242   8.196 -0.4939  0.6535 -0.1587
  750MOL0     O 1139   9.422   0.142   8.168 -0.1983  0.9605  0.6331
  750MOL0     C 1140   9.288   0.182   8.177  0.2073 -0.1665  0.6968
  750MOL0     C 1141   9.237   0.315   8.210 -0.2662 -0.4126 -0.0394
  750MOL0     C 1142   9.098   0.344   8.205 -0.0028  1.5866 -1.1208
  750MOL0     C 1143   9.056   0.485   8.205  0.5829 -0.4859 -0.2858
  750MOL0     C 1144   9.002   0.236   8.197  0.3772 -0.5894  0.0505
  750MOL0     C 1145   8.859   0.262   8.217 -1.1206 -0.5082 -0.6118
  750MOL0     O 1146   8.783   0.203   8.117  0.4685 -0.1224 -0.1113
  750MOL0     C 1147   8.652   0.248   8.111  0.2986 -0.3940  0.9128
  750MOL0     C 1148   8.619   0.360   8.032  0.3372 -0.1748  0.3128
  750MOL0     C 1149   8.483   0.391   8.023 -0.0662 -0.5380  0.2430
  750MOL0     C 1150   8.381   0.319   8.093 -0.2522 -0.8153 -0.1603
  750MOL0     O 1151   8.254   0.371   8.091 -0.0304  0.1706  0.6143
  750MOL0     C 1152   8.153   0.264   8.088  0.9493  0.5761 -0.1044
  750MOL0     C 1153   8.036   0.318   8.000 -0.6441 -0.1740  0.1101
  750MOL0     C 1154   8.072   0.382   7.863 -0.1994  0.4353  0.4732
  750MOL0     C 1155   8.095   0.270   7.762 -0.3413  0.1295 -0.2569
  750MOL0     C 1156   8.078   0.318   7.619  0.3787  0.2744  0.8564
  750MOL0     C 1157   8.060   0.195   7.530  0.2063  0.3159 -0.3166
  750MOL0     C 1158   8.030   0.220   7.378  0.4842 -0.1489 -0.1798
  750MOL0     C 1159   8.154   0.249   7.292  0.6670 -0.3019  0.1837
  750MOL0    Cl 1160   8.258   0.381   7.347  0.2912 -0.0116  0.1242
  750MOL0     C 1161   8.423   0.218   8.175  0.8052  0.0442  1.0368
  750MOL0     C 1162   8.557   0.177   8.179 -0.1183  0.1959 -0.2520
  750MOL0     O 1163   8.809   0.336   8.306 -0.1218  0.2781 -0.2391
  750MOL0     C 1164   9.059   0.109   8.165  0.6914 -0.1264 -0.0395
  750MOL0     C 1165   9.196   0.083   8.149 -0.8986  0.2394  0.2342
  750MOL0     N 1166   9.880   0.539   8.373 -0.6387  0.5436 -0.2437
  750MOL0     N 1167   9.979   0.541   8.449  0.3163  0.4751  0.3535
  750MOL0     C 1168  10.884   0.629   8.532  0.4597  0.0614  0.2900
  750MOL0     C 1169  11.001   0.605   8.461  0.1986 -0.6292  0.9197
  750MOL0     C 1170  11.399   0.515   8.285 -0.7441 -0.3588  0.2695
  750MOL0     C 1171  11.452   0.531   8.153 -0.5530  0.4368 -0.0523
  750MOL0     C 1172  11.589   0.548   8.130 -0.4511 -0.8255 -0.4365
  750MOL0     C 1173  11.675   0.547   8.240 -0.2092 -0.0432  0.0448
  750MOL0     O 1174  11.805   0.569   8.204  0.2976 -0.8674 -0.8485
  750MOL0     C 1175  11.901   0.505   8.289  0.0583  0.3065  1.0626
  750MOL0     C 1176  12.037   0.485   8.216  0.2544 -0.2371  0.1103
  750MOL0     C 1177  12.041   0.397   8.090 -0.3646  0.1576 -0.2333
  750MOL0     C 1178  11.918   0.395   8.003  0.2868 -0.1144  0.4545
  750MOL0     C 1179  11.928   0.309   7.884  0.7658  0.7714  0.3588
  750MOL0     C 1180  11.924   0.213   7.803  0.1493 -0.0609 -0.2704
  750MOL0     C 1181  11.633   0.522   8.372  0.0170 -1.1122  0.1778
  750MOL0     C 1182  11.500   0.503   8.388  0.8416 -0.5345 -0.0095
  750MOL0     H 1183  11.113   0.341   8.629  0.4386 -1.1690 -3.9585
  750MOL0     H 1184  10.916   0.385   8.761 -1.6300 -2.1127 -1.6672
  750MOL0     H 1185  10.787   0.778   8.781  0.1084  2.7967 -1.9758
  750MOL0     H 1186  10.679   0.783   8.642  3.7706  1.8111  0.1210
  750MOL0     H 1187  10.615   0.741   8.941 -0.3512  1.7253  0.2406
  750MOL0     H 1188  10.544   0.848   8.825 -0.3997 -0.5207 -1.1329
  750MOL0     H 1189  10.452   0.640   8.702  0.1827  1.3467  1.0205
  750MOL0     H 1190  10.500   0.543   8.836 -0.9405  0.3573  3.1142
  750MOL0     H 1191  10.361   0.662   8.988 -1.8680  0.3710  1.6416
  750MOL0     H 1192  10.301   0.773   8.866  0.8108 -0.3966 -0.6076
  750MOL0     H 1193  10.253   0.478   8.903  0.8522 -1.0340 -1.6182
  750MOL0     H 1194  10.133   0.623   8.919  1.8290  0.3241  2.1019
  750MOL0     H 1195  10.070   0.588   8.710  0.0841 -1.8364  0.1128
  750MOL0     H 1196  10.233   0.650   8.662  0.3085  0.0239 -0.8668
  750MOL0     H 1197  10.277   0.383   8.687 -2.2129 -0.7130  1.1456
  750MOL0     H 1198  10.107   0.379   8.661 -1.5470  2.0155 -3.9371
  750MOL0     H 1199  10.278   0.376   8.450  2.4969  0.6036  1.6643
  750MOL0     H 1200  10.264   0.546   8.454  1.0425 -2.2001 -3.9182
  750MOL0     H 1201  10.111   0.331   8.239  1.1259  1.1164 -0.4308
  750MOL0     H 1202   9.751   0.453   8.151  0.6317 -0.0084 -0.2817
  750MOL0     H 1203   9.887   0.337   8.097  1.8491 -0.3047  0.2815
  750MOL0     H 1204   9.714   0.305   8.354  1.4633 -2.0534  1.6732
  750MOL0     H 1205   9.841   0.202   8.300 -0.2883 -0.1668 -1.8247
  750MOL0     H 1206   9.656   0.081   8.237 -0.6316  0.2643  0.9982
  750MOL0     H 1207   9.677   0.160   8.081 -2.8697 -2.2484  0.0098
  750MOL0     H 1208   9.501   0.309   8.112  0.3783  0.9284 -0.1443
  750MOL0     H 1209   9.495   0.278   8.296 -2.9650 -0.6587 -0.2106
  750MOL0     H 1210   9.308   0.397   8.214 -0.9668  0.1632  2.4360
  750MOL0     H 1211   9.014   0.487   8.306  2.6640 -1.1575  0.6499
  750MOL0     H 1212   9.135   0.559   8.192 -0.3838  0.5511 -0.4293
  750MOL0     H 1213   8.977   0.504   8.131 -1.7075  1.1134  2.3443
  750MOL0     H 1214   8.700   0.412   7.982  0.8943 -1.0036  0.3358
  750MOL0     H 1215   8.441   0.475   7.969  1.6700  0.3841  0.2497
  750MOL0     H 1216   8.181   0.166   8.047  1.3173  0.4875  0.3547
  750MOL0     H 1217   8.111   0.246   8.187 -2.5890  3.2292 -0.9120
  750MOL0     H 1218   7.954   0.247   7.988 -0.9613  0.2766 -0.4687
  750MOL0     H 1219   7.993   0.388   8.072 -0.9533 -0.0856 -0.1592
  750MOL0     H 1220   8.163   0.441   7.880  2.7108 -3.6594  0.5870
  750MOL0     H 1221   7.988   0.443   7.827 -0.6237  1.2691  2.7225
  750MOL0     H 1222   8.195   0.228   7.775 -0.5908 -0.5935 -0.5792
  750MOL0     H 1223   8.026   0.187   7.779 -0.8310 -0.1625 -3.1614
  750MOL0     H 1224   8.166   0.378   7.594  1.2512 -1.6588 -1.1484
  750MOL0     H 1225   7.995   0.386   7.598 -2.2607 -3.0984 -0.7387
  750MOL0     H 1226   8.148   0.131   7.530 -1.2120 -1.7874  1.0705
  750MOL0     H 1227   7.981   0.139   7.582  0.9069  1.0501  1.6064
  750MOL0     H 1228   7.971   0.312   7.366 -0.1878 -0.6172 -0.5659
  750MOL0     H 1229   7.989   0.129   7.334  0.9119 -0.9585  1.0688
  750MOL0     H 1230   8.115   0.285   7.196 -1.1949  0.7301  1.2748
  750MOL0     H 1231   8.209   0.156   7.277 -0.4257 -1.3504  2.2820
  750MOL0     H 1232   8.359   0.155   8.235 -2.4603 -0.0604 -2.1563
  750MOL0     H 1233   8.582   0.090   8.239 -3.7248 -1.1831 -0.4689
  750MOL0     H 1234   8.986   0.029   8.159  0.8215 -0.3804  1.3369
  750MOL0     H 1235   9.232  -0.015   8.120  1.7441 -0.0734  3.8410
  750MOL0     H 1236  10.838   0.720   8.493  1.1857  0.2477 -0.1423
  750MOL0     H 1237  11.031   0.677   8.385 -1.2410  0.5255  1.4023
  750MOL0     H 1238  11.381   0.548   8.071  0.4324  2.3697 -0.5803
  750MOL0     H 1239  11.628   0.579   8.033 -3.1186 -0.6318 -1.5370
  750MOL0     H 1240  11.911   0.562   8.382 -1.0114 -0.8947  1.9515
  750MOL0     H 1241  11.878   0.401   8.314  0.8651  0.2246  1.5138
  750MOL0     H 1242  12.105   0.438   8.288 -0.1532 -2.4089 -0.8352
  750MOL0     H 1243  12.073   0.583   8.183  0.0247 -0.2886 -0.2996
  750MOL0     H 1244  12.067   0.295   8.122  0.4028  0.6687  0.8367
  750MOL0     H 1245  12.125   0.432   8.029  0.9626 -0.5440  1.1205
  750MOL0     H 1246  11.893   0.493   7.961 -0.9103  0.3379  2.1084
  750MOL0     H 1247  11.833   0.361   8.063  0.0016  1.4163  0.9684
  750MOL0     H 1248  11.947   0.139   7.729  0.0114  0.6332 -1.0294
  750MOL0     H 1249  11.703   0.527   8.454 -0.5162 -0.9833  0.6341
  750MOL0     H 1250  11.459   0.495   8.488 -0.8521  3.9918 -0.1261
  751MOL0     O 1251   9.376   2.861   6.062 -0.6269  0.0135  0.5676
  751MOL0     C 1252   9.380   2.914   5.952  0.9034 -0.5026  0.1611
  751MOL0     O 1253   9.284   2.991   5.896  1.0117  0.1377 -0.4906
  751MOL0     C 1254   9.153   2.982   5.933  0.0608  0.2155 -0.3607
  751MOL0     C 1255   9.101   2.951   6.064  0.4732 -0.1373  1.5242
  751MOL0     C 1256   8.963   2.949   6.082 -0.0440 -0.2948 -0.1106
  751MOL0     C 1257   8.876   2.958   5.976 -0.6931 -0.3915 -0.3037
  751MOL0     O 1258   8.737   2.961   5.984 -0.0133  1.0799  0.0940
  751MOL0     C 1259   8.681   2.895   6.104 -0.2603  0.0064 -0.3472
  751MOL0     C 1260   8.536   2.893   6.109  0.4935  0.0122  0.0870
  751MOL0     C 1261   8.465   3.026   6.137  0.3088 -0.1531  0.5364
  751MOL0     C 1262   8.486   3.069   6.289  0.0631  0.1282 -0.1933
  751MOL0     C 1263   8.391   3.196   6.311 -0.3918  0.1260 -0.0045
  751MOL0     C 1264   8.409   3.237   6.455  0.3217  0.0393  0.6689
  751MOL0     C 1265   8.304   3.339   6.517  0.2611  0.5657  1.0250
  751MOL0     C 1266   8.316   3.473   6.438  0.3599 -0.2526 -0.6154
  751MOL0     N 1267   8.196   3.557   6.471 -0.0739  0.0547  0.3465
  751MOL0     C 1268   8.130   3.564   6.592  0.0295 -0.1882 -0.6679
  751MOL0     C 1269   8.035   3.660   6.569 -0.2427 -0.0718  0.1515
  751MOL0     C 1270   7.923   3.711   6.661  0.1663 -0.0474  0.6442
  751MOL0     C 1271   7.785   3.658   6.609 -0.2600 -0.7007  0.6458
  751MOL0     C 1272   7.678   3.707   6.707 -0.4079 -0.3280  0.5386
  751MOL0     C 1273   7.540   3.674   6.659  0.5150 -0.4572  0.3747
  751MOL0     O 1274   7.487   3.785   6.586  0.3592 -0.2802 -0.3485
  751MOL0     C 1275   7.352   3.800   6.574  0.2069  0.0715  1.3098
  751MOL0     C 1276   7.306   3.918   6.515  0.7179 -0.1598  0.1285
  751MOL0     C 1277   7.168   3.939   6.478  0.0665 -0.2961  0.0689
  751MOL0     C 1278   7.133   4.052   6.378 -0.4553 -0.1508 -0.0311
  751MOL0     C 1279   7.074   3.839   6.517  0.0506 -0.5636  0.8071
  751MOL0     C 1280   6.927   3.847   6.490 -0.7933 -0.1603  0.2485
  751MOL0     O 1281   6.867   3.732   6.434  0.0901  0.2760 -0.6828
  751MOL0     C 1282   6.728   3.744   6.424 -0.6507  0.1839  0.0330
  751MOL0     C 1283   6.641   3.735   6.538  0.0443  0.2999 -0.0060
  751MOL0     C 1284   6.504   3.708   6.516 -0.1818  0.0864  0.6039
  751MOL0     C 1285   6.446   3.709   6.379  0.5874  0.0992 -0.9965
  751MOL0     O 1286   6.310   3.698   6.369 -0.6667 -0.0851  0.6566
  751MOL0     C 1287   6.261   3.781   6.257 -0.2490 -0.1135 -0.1143
  751MOL0     C 1288   6.111   3.811   6.268 -0.4150  0.1555 -0.0311
  751MOL0     C 1289   6.021   3.690   6.252  0.0252  0.7332 -0.6055
  751MOL0     C 1290   5.883   3.716   6.299  0.6990 -0.4377  0.4426
  751MOL0     C 1291   5.792   3.597   6.277  0.6379  0.1515  0.6642
  751MOL0     C 1292   5.652   3.617   6.352 -0.3646  0.2955 -0.6114
  751MOL0     C 1293   5.566   3.732   6.302 -0.4611  0.1818 -0.1014
  751MOL0     C 1294   5.433   3.762   6.367  0.1938 -0.2949 -0.9942
  751MOL0    Cl 1295   5.380   3.917   6.304  0.2586 -0.3073  0.2968
  751MOL0     C 1296   6.539   3.720   6.273 -0.5553 -0.0407 -0.2690
  751MOL0     C 1297   6.677   3.727   6.298  0.1984  0.3444  0.1467
  751MOL0     O 1298   6.869   3.950   6.515 -0.5324  0.8406  0.3628
  751MOL0     C 1299   7.111   3.721   6.575  0.0490  1.1730 -0.2757
  751MOL0     C 1300   7.253   3.703   6.604  0.0954 -0.0274  0.7900
  751MOL0     N 1301   8.061   3.719   6.450 -0.1834 -0.7011  0.1682
  751MOL0     N 1302   8.158   3.659   6.397  0.2481  0.2146 -0.2212
  751MOL0     C 1303   8.926   2.987   5.849 -0.6319  1.8428  0.2884
  751MOL0     C 1304   9.061   2.990   5.824 -0.4126 -0.2013 -0.0134
  751MOL0     C 1305   9.508   2.912   5.883 -0.3386  0.7419  0.1460
  751MOL0     C 1306   9.615   2.832   5.925 -0.4473  0.2503 -0.3787
  751MOL0     C 1307   9.739   2.843   5.858  0.1585  0.5568 -0.9271
  751MOL0     C 1308   9.764   2.925   5.752 -0.0202 -0.2798 -0.3586
  751MOL0     O 1309   9.889   2.922   5.699 -0.4274 -0.7096 -0.5195
  751MOL0     C 1310   9.906   2.949   5.560 -0.5233 -0.5738 -0.8536
  751MOL0     C 1311  10.058   2.910   5.522  0.8841 -0.5004 -0.5277
  751MOL0     C 1312  10.070   2.753   5.502  0.1382 -0.0516 -0.5643
  751MOL0     C 1313  10.117   2.687   5.632 -0.9489  0.0364  0.4369
  751MOL0     C 1314  10.264   2.707   5.659  0.0239 -1.0423 -0.6014
  751MOL0     C 1315  10.377   2.720   5.678 -0.2554  0.3249 -0.2023
  751MOL0     C 1316   9.659   3.009   5.712  0.5601  1.0687  0.8028
  751MOL0     C 1317   9.533   2.992   5.769  0.2128 -0.2138  0.8706
  751MOL0     H 1318   9.164   2.945   6.152  1.3581 -1.6480  0.8345
  751MOL0     H 1319   8.922   2.923   6.179 -1.4173  1.8758 -0.0419
  751MOL0     H 1320   8.712   2.791   6.112 -0.9844 -0.1248  1.0921
  751MOL0     H 1321   8.715   2.944   6.195 -1.4004  0.6152 -0.2261
  751MOL0     H 1322   8.512   2.851   6.011  1.4198  0.4667 -0.3396
  751MOL0     H 1323   8.506   2.812   6.176 -1.9574 -3.0888 -4.2303
  751MOL0     H 1324   8.484   3.107   6.066  0.8745  0.8315  1.7704
  751MOL0     H 1325   8.356   3.014   6.133  0.3105 -0.0720  0.1556
  751MOL0     H 1326   8.462   2.992   6.363  0.7586  0.3556  0.2842
  751MOL0     H 1327   8.587   3.105   6.315 -0.7339  1.1050  1.7595
  751MOL0     H 1328   8.433   3.279   6.253  1.5331 -0.6470  0.2164
  751MOL0     H 1329   8.286   3.175   6.292 -0.3347 -0.2499  0.0834
  751MOL0     H 1330   8.403   3.151   6.523 -3.9320 -1.4780 -1.2554
  751MOL0     H 1331   8.508   3.282   6.464  1.9343 -3.0338 -0.3294
  751MOL0     H 1332   8.205   3.300   6.492  1.3539 -1.9149  0.2360
  751MOL0     H 1333   8.315   3.352   6.625  0.2739  1.2447  0.9514
  751MOL0     H 1334   8.324   3.461   6.329  2.7929 -3.1291 -0.2455
  751MOL0     H 1335   8.398   3.530   6.483  1.7162 -1.4112 -1.5217
  751MOL0     H 1336   8.148   3.504   6.681  2.1265  1.0758 -0.1514
  751MOL0     H 1337   7.942   3.667   6.759  0.7940 -0.9590  0.1320
  751MOL0     H 1338   7.914   3.820   6.661  2.4278  0.1976  1.9362
  751MOL0     H 1339   7.801   3.550   6.613 -0.2551 -0.7978 -1.2029
  751MOL0     H 1340   7.760   3.694   6.508 -1.0704  0.9757  1.4087
  751MOL0     H 1341   7.693   3.815   6.722  1.3742 -0.6822  1.4887
  751MOL0     H 1342   7.700   3.662   6.804  1.2219  2.3573  1.5215
  751MOL0     H 1343   7.476   3.640   6.742  0.4198 -2.8592 -0.6075
  751MOL0     H 1344   7.551   3.597   6.582  1.9887  1.9543 -2.0035
  751MOL0     H 1345   7.373   3.997   6.484  0.1952  0.1940 -0.1172
  751MOL0     H 1346   7.054   4.109   6.429 -2.7909 -1.4483 -1.9486
  751MOL0     H 1347   7.216   4.120   6.362  0.0860 -0.1263  2.4500
  751MOL0     H 1348   7.090   4.017   6.283  0.0084 -0.4932 -0.1192
  751MOL0     H 1349   6.688   3.729   6.636  0.5039 -1.5319 -0.3170
  751MOL0     H 1350   6.438   3.698   6.602  0.6643  1.5090  1.4634
  751MOL0     H 1351   6.309   3.880   6.260 -3.8739  1.7778  2.1702
  751MOL0     H 1352   6.284   3.730   6.163  0.0345  1.5430 -0.9943
  751MOL0     H 1353   6.093   3.860   6.364  0.0386  0.1057  0.0806
  751MOL0     H 1354   6.071   3.877   6.190 -4.8603 -3.0006 -0.7821
  751MOL0     H 1355   6.058   3.596   6.294 -4.0227  0.0652  1.9899
  751MOL0     H 1356   6.026   3.673   6.144  1.0108 -2.3887 -0.1681
  751MOL0     H 1357   5.886   3.733   6.407  1.4518 -0.8620  0.4984
  751MOL0     H 1358   5.848   3.808   6.252  1.4813  0.0003  0.6980
  751MOL0     H 1359   5.840   3.503   6.304 -0.0547 -0.8894 -1.4471
  751MOL0     H 1360   5.768   3.583   6.171  1.0055 -0.4761  0.6602
  751MOL0     H 1361   5.589   3.532   6.324 -0.3056  0.8124 -2.4386
  751MOL0     H 1362   5.665   3.621   6.461  1.5828  0.4464 -0.8152
  751MOL0     H 1363   5.547   3.720   6.195  1.4789  1.4442 -0.6458
  751MOL0     H 1364   5.628   3.821   6.318  0.3572 -0.3146 -0.4085
  751MOL0     H 1365   5.438   3.770   6.476 -2.8797 -0.6064 -0.7655
  751MOL0     H 1366   5.368   3.676   6.349  2.3603 -2.4428  0.6876
  751MOL0     H 1367   6.511   3.742   6.170  0.2643 -0.1938 -0.5333
  751MOL0     H 1368   6.730   3.740   6.205 -1.4838 -0.8482 -1.0409
  751MOL0     H 1369   7.053   3.636   6.608  3.3579 -1.9578 -1.8284
  751MOL0     H 1370   7.285   3.603   6.632  2.8927  0.9507  1.4263
  751MOL0     H 1371   8.852   2.990   5.770  0.2356 -0.5739 -0.7280
  751MOL0     H 1372   9.091   3.011   5.722 -1.3868 -0.2401 -0.3155
  751MOL0     H 1373   9.611   2.751   5.998  1.1831 -0.0911 -0.6305
  751MOL0     H 1374   9.814   2.773   5.896 -1.8263 -0.8033  0.7639
  751MOL0     H 1375   9.838   2.911   5.483 -0.8137 -0.7957 -0.4860
  751MOL0     H 1376   9.886   3.056   5.555 -2.5000 -0.9346 -1.6735
  751MOL0     H 1377  10.115   2.942   5.610 -0.1141 -0.9539  0.3027
  751MOL0     H 1378  10.100   2.964   5.436 -0.6923 -0.4466 -1.2858
  751MOL0     H 1379  10.145   2.756   5.422  1.6644  2.4452  0.8676
  751MOL0     H 1380   9.976   2.713   5.460  0.1294 -0.2097 -0.3970
  751MOL0     H 1381  10.106   2.579   5.622 -3.3828  0.3525 -1.0945
  751MOL0     H 1382  10.057   2.723   5.716  0.3845  0.6232  1.1699
  751MOL0     H 1383  10.483   2.738   5.684 -0.0667 -0.1852 -1.6532
  751MOL0     H 1384   9.656   3.084   5.633 -0.8031 -0.3608 -0.5567
  751MOL0     H 1385   9.451   3.051   5.731 -1.8531  0.0672  5.2645
  752MOL0     O 1386   3.544  10.270   3.340  0.5275  0.2512  0.3190
  752MOL0     C 1387   3.631  10.321   3.272 -0.4944 -0.0337 -0.6402
  752MOL0     O 1388   3.609  10.362   3.141 -0.1454 -0.0380 -0.1768
  752MOL0     C 1389   3.488  10.341   3.070 -0.4568 -0.0899  0.1727
  752MOL0     C 1390   3.359  10.297   3.118  0.5016  0.2488  0.1651
  752MOL0     C 1391   3.247  10.319   3.029  0.2147  0.0570 -0.2880
  752MOL0     C 1392   3.256  10.352   2.901 -0.1743 -0.9598  0.5827
  752MOL0     O 1393   3.140  10.367   2.827  1.3321 -0.4748 -0.3374
  752MOL0     C 1394   3.142  10.323   2.692 -0.1566 -1.1073  0.1669
  752MOL0     C 1395   3.131  10.447   2.603 -1.2466  0.4245 -1.0290
  752MOL0     C 1396   3.004  10.533   2.622  0.1375 -0.3895 -0.9031
  752MOL0     C 1397   2.882  10.486   2.546 -0.1411 -0.0126 -0.0438
  752MOL0     C 1398   2.814  10.371   2.616  0.2421  0.3357  0.2393
  752MOL0     C 1399   2.660  10.394   2.614  0.7433  0.7512  0.1749
  752MOL0     C 1400   2.612  10.493   2.718 -0.4474  0.6286  0.1479
  752MOL0     C 1401   2.464  10.521   2.701 -0.1901 -0.5975  0.4074
  752MOL0     N 1402   2.384  10.397   2.705 -0.2581  0.5115 -0.8568
  752MOL0     C 1403   2.308  10.343   2.605  0.5087 -0.4940 -0.2677
  752MOL0     C 1404   2.249  10.235   2.660  0.3463  0.4364  0.3886
  752MOL0     C 1405   2.137  10.166   2.584  0.1346  0.4495 -0.6821
  752MOL0     C 1406   2.006  10.242   2.626 -0.2244 -0.3635  0.1486
  752MOL0     C 1407   1.885  10.190   2.545  0.2800 -0.2188 -0.5516
  752MOL0     C 1408   1.766  10.282   2.569  0.1612  1.1564  0.6045
  752MOL0     O 1409   1.658  10.259   2.471 -0.5268 -0.1242 -0.2851
  752MOL0     C 1410   1.533  10.315   2.496 -0.1976 -0.2160 -0.5195
  752MOL0     C 1411   1.492  10.379   2.618  0.1792  1.2391 -0.0843
  752MOL0     C 1412   1.364  10.423   2.640 -0.7498 -0.7949 -0.0482
  752MOL0     C 1413   1.346  10.490   2.776  0.6753 -0.1457  0.0557
  752MOL0     C 1414   1.263  10.412   2.542 -0.8454  0.1613 -0.5309
  752MOL0     C 1415   1.117  10.452   2.567  0.3522 -0.3309 -0.1862
  752MOL0     O 1416   1.040  10.443   2.454 -0.6899  0.6916 -0.3873
  752MOL0     C 1417   0.918  10.504   2.458 -0.5126  0.8426  0.0705
  752MOL0     C 1418   0.810  10.427   2.444  0.1067  0.2716  0.1909
  752MOL0     C 1419   0.683  10.487   2.437  0.1045 -0.3490  0.3328
  752MOL0     C 1420   0.673  10.627   2.436 -0.4851 -0.3106  0.0445
  752MOL0     O 1421   0.546  10.667   2.423  0.2720  0.0209  0.0562
  752MOL0     C 1422   0.521  10.795   2.375  0.6437  0.0390 -0.0402
  752MOL0     C 1423   0.375  10.828   2.346  0.0449 -0.8725 -0.9101
  752MOL0     C 1424   0.295  10.706   2.293  0.1785 -0.2605 -0.0696
  752MOL0     C 1425   0.151  10.737   2.241  0.0525  0.7954 -0.2113
  752MOL0     C 1426   0.078  10.604   2.236  0.7460  0.0783  0.8475
  752MOL0     C 1427  -0.072  10.629   2.203 -0.0409 -0.1037  0.2644
  752MOL0     C 1428  -0.150  10.496   2.212 -0.7764 -0.3712 -0.9949
  752MOL0     C 1429  -0.293  10.515   2.174  0.1408  0.0083  0.3195
  752MOL0    Cl 1430  -0.370  10.674   2.239  0.3261 -0.2051 -0.2366
  752MOL0     C 1431   0.788  10.706   2.471  1.0392  0.2933  0.3334
  752MOL0     C 1432   0.912  10.644   2.463 -0.7675 -0.2099 -0.8488
  752MOL0     O 1433   1.074  10.492   2.678 -0.3910  0.2358  0.3341
  752MOL0     C 1434   1.303  10.355   2.417  0.3634  0.2423  0.0296
  752MOL0     C 1435   1.433  10.309   2.393 -0.9996  0.0367 -0.5746
  752MOL0     N 1436   2.285  10.226   2.794 -0.2047 -0.8792  0.1114
  752MOL0     N 1437   2.358  10.326   2.819 -0.0580  0.0696 -0.6336
  752MOL0     C 1438   3.385  10.363   2.854  0.3079 -0.3508  0.7927
  752MOL0     C 1439   3.495  10.364   2.937  0.6954 -0.1280  0.5119
  752MOL0     C 1440   3.762  10.343   3.335  0.3058  0.7423  0.4050
  752MOL0     C 1441   3.797  10.320   3.470 -0.6048 -0.2764 -0.2860
  752MOL0     C 1442   3.938  10.332   3.512 -0.4209  0.1215  0.4788
  752MOL0     C 1443   4.036  10.387   3.427  0.1739  0.2848  0.1282
  752MOL0     O 1444   4.170  10.402   3.467  0.4901 -0.5486 -0.0724
  752MOL0     C 1445   4.227  10.293   3.552 -0.9426 -0.1132 -0.2392
  752MOL0     C 1446   4.375  10.268   3.522  0.5141 -0.5995 -0.5837
  752MOL0     C 1447   4.439  10.182   3.628 -1.2456 -0.0510 -0.5508
  752MOL0     C 1448   4.579  10.128   3.593  0.8857  0.1328 -0.4565
  752MOL0     C 1449   4.624  10.059   3.710  0.6873 -0.1003 -0.7934
  752MOL0     C 1450   4.660   9.994   3.803 -0.7088 -1.1201 -0.8550
  752MOL0     C 1451   3.998  10.413   3.298 -0.2315  0.0041  0.1022
  752MOL0     C 1452   3.863  10.386   3.256 -1.0936  0.4675  0.1886
  752MOL0     H 1453   3.340  10.249   3.214  0.9210 -0.6046 -0.1719
  752MOL0     H 1454   3.147  10.289   3.060  0.4352  1.2571  1.7993
  752MOL0     H 1455   3.234  10.275   2.659  0.8691  0.1281  1.1493
  752MOL0     H 1456   3.064  10.247   2.679 -1.4626 -0.2612  2.5114
  752MOL0     H 1457   3.215  10.511   2.632 -0.2333 -1.8876  1.6999
  752MOL0     H 1458   3.143  10.421   2.498 -2.0872 -0.4857 -0.9174
  752MOL0     H 1459   2.977  10.552   2.727 -0.2255  0.6082 -1.1588
  752MOL0     H 1460   3.029  10.634   2.590  2.0648 -0.4689  0.2067
  752MOL0     H 1461   2.825  10.578   2.533 -0.4024 -0.1065  0.4195
  752MOL0     H 1462   2.902  10.456   2.443 -0.8303  3.6600 -1.3960
  752MOL0     H 1463   2.839  10.275   2.572 -0.8874 -0.3711  1.0698
  752MOL0     H 1464   2.834  10.362   2.724 -3.5443  1.1429  1.1776
  752MOL0     H 1465   2.636  10.431   2.514 -0.5021 -0.3391  0.0486
  752MOL0     H 1466   2.622  10.293   2.628  1.2969  0.7463  1.8278
  752MOL0     H 1467   2.614  10.456   2.821 -1.3968 -1.0449 -0.3919
  752MOL0     H 1468   2.669  10.586   2.707  1.2682 -0.3191  0.8371
  752MOL0     H 1469   2.456  10.573   2.605  0.2149 -1.4388 -0.0894
  752MOL0     H 1470   2.437  10.595   2.777  3.3262  2.1926 -0.7669
  752MOL0     H 1471   2.287  10.379   2.505 -0.6728 -1.2703 -0.3078
  752MOL0     H 1472   2.141  10.163   2.475 -0.7811  0.4787 -0.7248
  752MOL0     H 1473   2.133  10.063   2.620 -1.5469  0.9419  0.7091
  752MOL0     H 1474   2.019  10.349   2.607 -0.6463 -0.3234  0.0767
  752MOL0     H 1475   1.996  10.236   2.734 -1.7831  2.0760  0.2144
  752MOL0     H 1476   1.848  10.093   2.576  0.4619 -0.0644  0.1808
  752MOL0     H 1477   1.914  10.184   2.440  0.6880  5.6710 -1.1284
  752MOL0     H 1478   1.807  10.383   2.564  1.4119  0.6225 -1.4107
  752MOL0     H 1479   1.728  10.271   2.670 -3.1128 -0.7363 -0.6735
  752MOL0     H 1480   1.555  10.372   2.707 -2.3979 -1.8513  1.7360
  752MOL0     H 1481   1.310  10.592   2.761 -1.1743 -0.8375 -0.4553
  752MOL0     H 1482   1.261  10.447   2.831 -0.3100  2.5201  0.7532
  752MOL0     H 1483   1.436  10.495   2.839  0.2931 -1.8761  0.8000
  752MOL0     H 1484   0.823  10.320   2.431 -0.6017  0.0439  1.2400
  752MOL0     H 1485   0.596  10.422   2.437  0.6147 -1.0665 -0.9168
  752MOL0     H 1486   0.553  10.871   2.447 -0.7296  0.7089 -0.1033
  752MOL0     H 1487   0.572  10.808   2.279  0.3764  0.8050 -0.0799
  752MOL0     H 1488   0.334  10.861   2.442  2.3119  1.3655 -0.5911
  752MOL0     H 1489   0.369  10.908   2.272  0.8255  0.9298  0.8658
  752MOL0     H 1490   0.289  10.631   2.372 -0.3741 -2.4156 -2.0642
  752MOL0     H 1491   0.351  10.667   2.208 -0.9502 -1.3011 -0.3636
  752MOL0     H 1492   0.101  10.806   2.310 -0.1579 -0.8098  1.3301
  752MOL0     H 1493   0.147  10.784   2.142 -0.9232  0.4283 -0.3584
  752MOL0     H 1494   0.102  10.545   2.324  5.0011  1.3732  0.7593
  752MOL0     H 1495   0.124  10.538   2.162  0.6798  1.2725 -0.2935
  752MOL0     H 1496  -0.111  10.706   2.271  1.2399  0.0397  0.8574
  752MOL0     H 1497  -0.089  10.666   2.101  0.9660  0.8482  0.4242
  752MOL0     H 1498  -0.140  10.454   2.313  0.2581 -1.2327 -1.4294
  752MOL0     H 1499  -0.104  10.414   2.156  1.6317  1.0862 -1.2585
  752MOL0     H 1500  -0.356  10.427   2.189  1.5192 -1.2824 -1.1345
  752MOL0     H 1501  -0.292  10.531   2.065 -1.9275  2.8394  0.6047
  752MOL0     H 1502   0.787  10.810   2.502  0.7963 -0.7683  4.6342
  752MOL0     H 1503   1.010  10.689   2.470 -0.2423 -0.9678 -2.7123
  752MOL0     H 1504   1.231  10.350   2.335  2.8677  0.8939 -2.3888
  752MOL0     H 1505   1.462  10.277   2.294  0.0875 -0.4503 -0.1135
  752MOL0     H 1506   3.396  10.384   2.748  1.1654 -2.1625  0.4973
  752MOL0     H 1507   3.588  10.381   2.883 -0.9291 -0.2062 -2.5472
  752MOL0     H 1508   3.722  10.284   3.540 -1.7128  0.4554 -1.0692
  752MOL0     H 1509   3.964  10.327   3.617 -1.5056  1.6453  0.8524
  752MOL0     H 1510   4.214  10.327   3.655 -1.4793  1.5462 -0.8275
  752MOL0     H 1511   4.169  10.200   3.540  2.3980 -2.7047  1.8100
  752MOL0     H 1512   4.432  10.361   3.516  1.3187 -1.0273  0.1871
  752MOL0     H 1513   4.381  10.222   3.423  2.2490 -1.4661 -0.1193
  752MOL0     H 1514   4.375  10.096   3.647 -3.3030  1.7875  1.5479
  752MOL0     H 1515   4.444  10.242   3.719  0.5956  1.2718 -1.4577
  752MOL0     H 1516   4.655  10.203   3.567  1.2569  0.6346  1.8773
  752MOL0     H 1517   4.581  10.066   3.502  1.2558  0.2180 -0.5091
  752MOL0     H 1518   4.694   9.938   3.888 -1.1459 -1.2626 -0.7756
  752MOL0     H 1519   4.077  10.442   3.229  3.2654 -0.1325  3.7082
  752MOL0     H 1520   3.847  10.416   3.153  3.0296  0.3708 -0.6584
  753MOL0     O 1521   7.199   8.172   3.922  0.0451  0.9542  0.4585
  753MOL0     C 1522   7.246   8.189   3.808 -0.6489  0.5924  0.5628
  753MOL0     O 1523   7.170   8.199   3.699  0.1109 -0.3667 -0.4470
  753MOL0     C 1524   7.047   8.255   3.723  0.1682  0.0427 -0.8789
  753MOL0     C 1525   6.924   8.187   3.743 -0.6429  0.6539  0.1222
  753MOL0     C 1526   6.806   8.258   3.746 -0.3012 -0.1629  0.7991
  753MOL0     C 1527   6.795   8.397   3.721  0.5044 -0.5177  0.7752
  753MOL0     O 1528   6.683   8.472   3.711 -0.1517 -0.4773 -0.4108
  753MOL0     C 1529   6.550   8.410   3.708 -0.6251 -0.3857  0.3586
  753MOL0     C 1530   6.437   8.505   3.661  0.0742 -0.1373 -0.3046
  753MOL0     C 1531   6.305   8.452   3.710 -0.0321  0.2706 -1.2138
  753MOL0     C 1532   6.186   8.517   3.641  0.4007  0.4658 -1.6522
  753MOL0     C 1533   6.059   8.438   3.675 -0.6376 -0.4612 -0.5978
  753MOL0     C 1534   5.997   8.458   3.814 -0.5573 -0.3516 -0.6785
  753MOL0     C 1535   5.916   8.595   3.818  0.2177 -0.0199  0.2741
  753MOL0     C 1536   5.885   8.624   3.969 -0.6134 -0.0832  1.1679
  753MOL0     N 1537   5.792   8.739   3.993 -0.2401  0.8388 -0.0088
  753MOL0     C 1538   5.659   8.719   4.005  0.7860  0.0090 -0.0723
  753MOL0     C 1539   5.603   8.844   4.018 -0.9629 -0.6396 -0.0865
  753MOL0     C 1540   5.455   8.855   4.054 -1.4037 -0.7507 -0.3693
  753MOL0     C 1541   5.430   8.993   4.121  0.2647 -0.7641  0.0113
  753MOL0     C 1542   5.285   9.019   4.173  0.7590 -0.3237 -0.3810
  753MOL0     C 1543   5.267   9.152   4.246  0.3970  0.5654  0.1583
  753MOL0     O 1544   5.117   9.164   4.260 -0.8555 -0.4358  0.1153
  753MOL0     C 1545   5.064   9.273   4.323  0.5713 -0.4647 -1.1167
  753MOL0     C 1546   4.950   9.259   4.404 -0.1087  0.6488  0.0236
  753MOL0     C 1547   4.900   9.362   4.487  0.2825 -0.6111 -0.2289
  753MOL0     C 1548   4.795   9.317   4.595 -0.9406 -0.9493  0.0280
  753MOL0     C 1549   4.963   9.484   4.490 -0.7024  0.0829  0.1485
  753MOL0     C 1550   4.924   9.598   4.574 -0.3127  0.3747  0.4994
  753MOL0     O 1551   4.818   9.581   4.670 -0.6837 -0.7014  0.3080
  753MOL0     C 1552   4.789   9.679   4.755 -0.1177  0.5314 -0.7913
  753MOL0     C 1553   4.660   9.721   4.780  0.2247  0.5206  0.1808
  753MOL0     C 1554   4.621   9.797   4.890 -0.6806 -0.2503 -0.4111
  753MOL0     C 1555   4.724   9.859   4.968  0.1870 -1.0927 -0.2734
  753MOL0     O 1556   4.680   9.948   5.060  0.2641  0.2719 -0.0624
  753MOL0     C 1557   4.757   9.967   5.184  0.7386  0.7561  0.0778
  753MOL0     C 1558   4.742   9.841   5.267  0.0534  0.2374  0.0912
  753MOL0     C 1559   4.603   9.826   5.315  0.1227  0.9338 -0.0760
  753MOL0     C 1560   4.585   9.699   5.400 -0.0318 -0.0898  0.2624
  753MOL0     C 1561   4.448   9.702   5.460  0.1413  0.0575  0.3254
  753MOL0     C 1562   4.425   9.585   5.554 -0.2236  0.1520  0.2186
  753MOL0     C 1563   4.277   9.565   5.580  0.7503 -0.3052  0.5008
  753MOL0     C 1564   4.198   9.677   5.642  1.1789 -0.3775 -0.3066
  753MOL0    Cl 1565   4.279   9.727   5.787 -0.2208 -0.4925 -0.2341
  753MOL0     C 1566   4.858   9.823   4.940  0.1523  0.3924 -0.9356
  753MOL0     C 1567   4.890   9.729   4.838  0.7425 -0.6221 -0.6373
  753MOL0     O 1568   5.008   9.687   4.572 -0.3827  0.6153  0.5126
  753MOL0     C 1569   5.074   9.499   4.401  0.5744  0.2509  0.2988
  753MOL0     C 1570   5.120   9.396   4.316  0.4900  0.1941 -0.2088
  753MOL0     N 1571   5.700   8.937   4.005 -0.0528 -0.6000 -0.1226
  753MOL0     N 1572   5.810   8.873   3.986 -0.1421 -0.6873  0.4311
  753MOL0     C 1573   6.917   8.468   3.703 -0.8457  0.1779  0.7740
  753MOL0     C 1574   7.040   8.395   3.702 -0.6670 -1.1114  0.8296
  753MOL0     C 1575   7.396   8.181   3.775  1.5162 -0.2110 -0.1969
  753MOL0     C 1576   7.492   8.153   3.872  0.7869  1.1501 -0.3875
  753MOL0     C 1577   7.620   8.132   3.832 -0.4369  0.1410 -0.0713
  753MOL0     C 1578   7.658   8.150   3.698  0.2135  0.2170 -0.0310
  753MOL0     O 1579   7.788   8.129   3.666 -0.0354  0.1499  0.8889
  753MOL0     C 1580   7.862   8.246   3.647 -0.7077 -0.4035  0.1311
  753MOL0     C 1581   7.993   8.209   3.592 -0.0144  0.5071  0.4901
  753MOL0     C 1582   7.986   8.109   3.476  0.3455 -0.2141  0.9079
  753MOL0     C 1583   8.125   8.069   3.438  0.0320  0.0789 -0.5330
  753MOL0     C 1584   8.207   8.177   3.388 -0.2097 -0.2680  0.3599
  753MOL0     C 1585   8.291   8.251   3.339  0.0136  0.0616 -0.7315
  753MOL0     C 1586   7.564   8.180   3.602  0.0259 -0.2906  0.0934
  753MOL0     C 1587   7.430   8.191   3.641 -0.6514 -0.4884  0.3315
  753MOL0     H 1588   6.936   8.080   3.750  0.9171  0.8887  2.0017
  753MOL0     H 1589   6.715   8.200   3.763 -0.8021  0.6400  0.9099
  753MOL0     H 1590   6.552   8.324   3.641 -4.8217 -0.5637  0.2308
  753MOL0     H 1591   6.538   8.365   3.807  1.1873 -2.4562 -0.2997
  753MOL0     H 1592   6.449   8.608   3.697 -3.6772  0.6216 -0.7743
  753MOL0     H 1593   6.436   8.499   3.552 -2.2752  1.5556 -0.4660
  753MOL0     H 1594   6.305   8.344   3.692  0.7561 -0.4088  2.1162
  753MOL0     H 1595   6.299   8.452   3.819  2.1381 -0.2660 -1.0527
  753MOL0     H 1596   6.178   8.622   3.669  1.4224  0.2535 -0.4229
  753MOL0     H 1597   6.191   8.518   3.532 -0.6897 -2.9683 -1.8550
  753MOL0     H 1598   5.982   8.468   3.603  0.1633  0.2417 -1.1781
  753MOL0     H 1599   6.081   8.331   3.663  3.0993  0.2205 -0.9368
  753MOL0     H 1600   5.929   8.372   3.826 -1.0407 -0.2796 -2.6148
  753MOL0     H 1601   6.073   8.457   3.893 -2.0792  3.6745  1.0888
  753MOL0     H 1602   5.968   8.677   3.768  1.2901 -0.4152  0.7219
  753MOL0     H 1603   5.827   8.568   3.761 -0.3835  1.1579  0.6245
  753MOL0     H 1604   5.972   8.631   4.034 -0.9691 -2.0259  1.9390
  753MOL0     H 1605   5.831   8.536   4.007 -1.6585  0.0585  0.0924
  753MOL0     H 1606   5.616   8.619   4.015  2.3989 -0.8849 -1.5706
  753MOL0     H 1607   5.383   8.838   3.973 -0.7081 -0.2722 -1.1142
  753MOL0     H 1608   5.434   8.763   4.110 -1.1204 -0.5415  0.0870
  753MOL0     H 1609   5.452   9.075   4.052 -2.1821 -0.1274 -0.1144
  753MOL0     H 1610   5.501   8.994   4.204  0.0212 -0.4837  0.2180
  753MOL0     H 1611   5.254   8.940   4.242 -1.1868  1.0194  0.3446
  753MOL0     H 1612   5.225   9.017   4.081  0.7154  0.0151 -0.3616
  753MOL0     H 1613   5.318   9.232   4.192  0.0876  0.5889 -0.0999
  753MOL0     H 1614   5.312   9.150   4.346  0.5328  0.5265  0.0969
  753MOL0     H 1615   4.920   9.156   4.419  1.6766  0.2274  0.9594
  753MOL0     H 1616   4.768   9.213   4.577 -0.6600 -0.9534 -0.3779
  753MOL0     H 1617   4.833   9.328   4.697  1.4309  0.6405 -0.9309
  753MOL0     H 1618   4.698   9.367   4.592  0.8737  2.9212 -0.5798
  753MOL0     H 1619   4.584   9.686   4.711  0.4217  3.2300 -1.5668
  753MOL0     H 1620   4.518   9.823   4.912 -0.0412  1.4288  0.7843
  753MOL0     H 1621   4.863   9.992   5.172  1.0738 -0.1185  1.0746
  753MOL0     H 1622   4.714  10.048   5.244  3.6475  1.1625  1.8055
  753MOL0     H 1623   4.781   9.756   5.209 -0.9639 -0.9643  1.1354
  753MOL0     H 1624   4.806   9.851   5.355 -0.6412  1.7945  0.4633
  753MOL0     H 1625   4.525   9.842   5.239  0.6636 -0.1017 -0.8793
  753MOL0     H 1626   4.584   9.915   5.375 -0.7813  1.1096 -0.5938
  753MOL0     H 1627   4.590   9.615   5.330 -1.5852  1.2748 -1.6221
  753MOL0     H 1628   4.672   9.688   5.465  0.4134 -0.3356 -0.3543
  753MOL0     H 1629   4.372   9.715   5.383 -0.4051  3.5039  1.2779
  753MOL0     H 1630   4.431   9.786   5.528 -0.2832  0.8121 -0.6929
  753MOL0     H 1631   4.460   9.486   5.523 -2.2693 -2.2663  4.7434
  753MOL0     H 1632   4.483   9.609   5.644  1.9677 -2.5253 -0.3295
  753MOL0     H 1633   4.267   9.480   5.649 -0.2054  1.4445  2.6578
  753MOL0     H 1634   4.226   9.544   5.486  1.4266 -0.1618  0.0989
  753MOL0     H 1635   4.093   9.650   5.661  0.7698  2.2454  1.8044
  753MOL0     H 1636   4.193   9.762   5.574 -1.8347 -0.7964 -0.7741
  753MOL0     H 1637   4.947   9.859   4.991  1.1022 -0.2034 -2.1111
  753MOL0     H 1638   4.995   9.709   4.821  0.6671 -1.8985  0.2718
  753MOL0     H 1639   5.117   9.597   4.388 -0.7710  0.8249  0.0652
  753MOL0     H 1640   5.199   9.416   4.244  1.2869 -0.1823  0.5445
  753MOL0     H 1641   6.923   8.576   3.695  1.1578  0.3059  3.0174
  753MOL0     H 1642   7.131   8.447   3.673 -0.7713 -1.9550 -1.2091
  753MOL0     H 1643   7.466   8.149   3.977  1.1556 -1.0334 -0.3143
  753MOL0     H 1644   7.693   8.102   3.907 -2.1848 -1.5230  1.0833
  753MOL0     H 1645   7.816   8.299   3.563  1.2917 -1.9737 -2.1168
  753MOL0     H 1646   7.867   8.300   3.742 -2.0790 -2.7369  1.6008
  753MOL0     H 1647   8.058   8.164   3.668  0.4412 -0.4984 -0.4651
  753MOL0     H 1648   8.038   8.306   3.573 -0.7052  0.9023  0.8201
  753MOL0     H 1649   7.926   8.153   3.396  1.9102  1.6179  0.6772
  753MOL0     H 1650   7.930   8.018   3.503 -1.7700  0.2058 -1.6344
  753MOL0     H 1651   8.136   7.987   3.367  5.0783  0.0014 -0.0548
  753MOL0     H 1652   8.176   8.033   3.528  0.0666  1.4757  0.0389
  753MOL0     H 1653   8.362   8.317   3.293  1.5170  0.2393  1.6529
  753MOL0     H 1654   7.594   8.189   3.498  1.2837 -2.1992  0.2477
  753MOL0     H 1655   7.357   8.218   3.565 -1.1281  0.0084  0.9511
  754MOL0     O 1656   8.712   6.963  11.285 -0.6961  0.1162  0.2822
  754MOL0     C 1657   8.789   7.062  11.303  0.0396  0.7441 -0.5816
  754MOL0     O 1658   8.784   7.137  11.409 -0.7107 -0.6906 -0.1364
  754MOL0     C 1659   8.673   7.130  11.487  0.1544 -0.1519 -1.1910
  754MOL0     C 1660   8.583   7.235  11.524 -0.7467  0.0182 -0.4261
  754MOL0     C 1661   8.470   7.231  11.609 -0.5908  0.2403  0.7732
  754MOL0     C 1662   8.435   7.101  11.663  0.0777 -0.2442  0.0034
  754MOL0     O 1663   8.328   7.071  11.736  0.3800 -0.6058 -0.3603
  754MOL0     C 1664   8.210   7.160  11.733  0.4697 -0.1511  0.1096
  754MOL0     C 1665   8.099   7.091  11.804  0.0185 -0.0562  0.3216
  754MOL0     C 1666   7.967   7.169  11.811  0.2044 -0.2101 -0.6427
  754MOL0     C 1667   7.968   7.277  11.915  0.3348 -0.6754  0.1696
  754MOL0     C 1668   7.835   7.306  11.979  0.2398 -0.0356 -0.1835
  754MOL0     C 1669   7.840   7.374  12.110 -0.5829  0.3499 -0.3015
  754MOL0     C 1670   7.917   7.506  12.088 -0.2515  0.1697 -0.3650
  754MOL0     C 1671   7.938   7.584  12.211 -0.2697  0.4532 -0.3568
  754MOL0     N 1672   7.812   7.635  12.263 -1.0090  0.9063 -0.1080
  754MOL0     C 1673   7.729   7.725  12.200  1.0619  0.8302 -0.0901
  754MOL0     C 1674   7.647   7.771  12.295 -0.2716 -0.3164  0.1717
  754MOL0     C 1675   7.565   7.898  12.288 -0.0506 -0.0966  0.2209
  754MOL0     C 1676   7.501   7.932  12.153 -0.4630  0.0710 -0.6144
  754MOL0     C 1677   7.392   7.836  12.101 -0.1994 -0.4087 -0.0950
  754MOL0     C 1678   7.253   7.870  12.169 -0.2419 -0.5608  0.1751
  754MOL0     O 1679   7.240   7.804  12.294  0.7449 -0.1421  0.7583
  754MOL0     C 1680   7.121   7.831  12.352 -0.0803  0.3642 -0.4938
  754MOL0     C 1681   7.115   7.912  12.470  0.6611 -0.4662  0.1607
  754MOL0     C 1682   6.987   7.935  12.537  0.8554  0.4273 -0.2358
  754MOL0     C 1683   6.985   8.024  12.652 -0.0563  0.0541 -0.2800
  754MOL0     C 1684   6.869   7.877  12.482  0.6962  0.6038  0.6394
  754MOL0     C 1685   6.725   7.895  12.531  0.4935 -0.3412  0.5248
  754MOL0     O 1686   6.626   7.819  12.470 -0.1220  0.5038 -0.3561
  754MOL0     C 1687   6.490   7.842  12.489 -0.3198 -0.2678  0.6395
  754MOL0     C 1688   6.425   7.921  12.587  0.4121  0.2809 -0.8716
  754MOL0     C 1689   6.292   7.942  12.585 -0.1530 -0.1250  0.4076
  754MOL0     C 1690   6.212   7.867  12.491 -0.1691 -0.5121 -1.0050
  754MOL0     O 1691   6.075   7.879  12.468 -0.2153  0.0990 -1.1167
  754MOL0     C 1692   6.012   7.982  12.562 -0.0626  0.6040 -0.0495
  754MOL0     C 1693   5.868   7.980  12.525  0.8492 -0.3216  0.0799
  754MOL0     C 1694   5.775   8.081  12.590 -0.4528 -0.5575 -0.0339
  754MOL0     C 1695   5.625   8.047  12.578  0.2051 -0.0639  0.3072
  754MOL0     C 1696   5.536   8.168  12.618  0.6307 -0.2868  0.1490
  754MOL0     C 1697   5.506   8.255  12.492  0.4257 -0.8905  0.1169
  754MOL0     C 1698   5.440   8.182  12.374  0.4602 -0.2551  0.1202
  754MOL0     C 1699   5.324   8.093  12.412  0.3975  0.0386 -0.3812
  754MOL0    Cl 1700   5.175   8.213  12.439 -0.4288 -0.0383 -0.1072
  754MOL0     C 1701   6.269   7.774  12.407  0.4174  0.5001  0.0730
  754MOL0     C 1702   6.406   7.769  12.402 -0.1847 -0.0129 -0.7466
  754MOL0     O 1703   6.703   7.988  12.604 -0.6200 -0.0405 -0.4273
  754MOL0     C 1704   6.881   7.799  12.375 -0.3726  0.0675  0.1542
  754MOL0     C 1705   7.008   7.770  12.304 -0.7517  0.3260 -0.4476
  754MOL0     N 1706   7.665   7.691  12.401  1.2869 -0.5748 -0.6115
  754MOL0     N 1707   7.767   7.622  12.389 -0.0969  0.5972 -0.1669
  754MOL0     C 1708   8.523   6.998  11.649  0.5135  0.3278 -1.8104
  754MOL0     C 1709   8.638   7.018  11.570  0.4805  0.7902  0.3272
  754MOL0     C 1710   8.898   7.090  11.210 -0.7383 -0.3378 -0.6047
  754MOL0     C 1711   8.913   7.011  11.103 -0.3355  0.9486  0.0196
  754MOL0     C 1712   9.017   7.018  11.007 -0.0902  0.0938 -0.0740
  754MOL0     C 1713   9.107   7.126  11.026 -0.5107  0.5704  0.2721
  754MOL0     O 1714   9.203   7.139  10.928 -0.3632  0.4368 -0.4826
  754MOL0     C 1715   9.290   7.260  10.929 -0.1476 -0.1625 -0.1115
  754MOL0     C 1716   9.359   7.272  10.792  0.6375 -0.4319  0.4107
  754MOL0     C 1717   9.474   7.165  10.772  0.1992 -0.4302 -0.2870
  754MOL0     C 1718   9.496   7.164  10.619 -0.6070  0.0774  0.2539
  754MOL0     C 1719   9.608   7.075  10.576 -0.2200 -0.4133  0.0856
  754MOL0     C 1720   9.699   7.001  10.552 -0.2050  0.6319 -0.7910
  754MOL0     C 1721   9.096   7.211  11.140  0.2118 -0.3049  0.5565
  754MOL0     C 1722   8.994   7.192  11.229 -0.1968 -0.1183 -0.4466
  754MOL0     H 1723   8.606   7.330  11.478 -1.3543  0.3011 -0.1507
  754MOL0     H 1724   8.429   7.328  11.634 -0.1687  0.5773  0.1829
  754MOL0     H 1725   8.235   7.245  11.797  3.0464 -2.1945  2.0984
  754MOL0     H 1726   8.185   7.179  11.629  3.2547  0.5539 -0.5053
  754MOL0     H 1727   8.074   7.001  11.748  0.6693  0.5174 -0.9383
  754MOL0     H 1728   8.126   7.054  11.903  0.4923 -3.5595 -0.9880
  754MOL0     H 1729   7.936   7.213  11.715 -0.8201 -1.8184 -1.0813
  754MOL0     H 1730   7.888   7.099  11.837 -2.1203  2.9574  1.6079
  754MOL0     H 1731   8.041   7.247  11.991  1.2069  4.1751  1.5493
  754MOL0     H 1732   8.002   7.372  11.872 -1.5630 -0.8936 -2.0146
  754MOL0     H 1733   7.779   7.372  11.912  1.6877  0.1276 -1.2804
  754MOL0     H 1734   7.775   7.216  11.994 -0.5917  0.6813  1.0139
  754MOL0     H 1735   7.737   7.396  12.140 -1.1547 -0.1255 -1.8225
  754MOL0     H 1736   7.888   7.323  12.193  0.6032  1.8360 -0.0250
  754MOL0     H 1737   8.019   7.481  12.057  0.3421  3.3709 -1.3490
  754MOL0     H 1738   7.874   7.570  12.010  0.3832  1.3708  0.2301
  754MOL0     H 1739   8.005   7.668  12.190 -0.7319  0.9258  0.0396
  754MOL0     H 1740   7.977   7.512  12.284 -3.6924 -0.2093  1.0089
  754MOL0     H 1741   7.729   7.761  12.097 -1.4201 -1.1330 -0.8698
  754MOL0     H 1742   7.499   7.917  12.373 -0.1688  1.5996 -0.2008
  754MOL0     H 1743   7.640   7.977  12.298 -0.2600  0.1517 -0.1228
  754MOL0     H 1744   7.575   7.926  12.073 -0.3213  0.2420 -0.4946
  754MOL0     H 1745   7.463   8.033  12.140  0.2330  0.5296  0.7527
  754MOL0     H 1746   7.422   7.732  12.115  0.9432 -0.9011 -4.6990
  754MOL0     H 1747   7.390   7.842  11.992  2.0737 -4.1522 -0.4983
  754MOL0     H 1748   7.185   7.823  12.098 -0.3187 -0.0257 -0.1106
  754MOL0     H 1749   7.244   7.979  12.181  1.3942 -0.4525  0.8307
  754MOL0     H 1750   7.202   7.955  12.516  2.2032 -1.0216 -2.0408
  754MOL0     H 1751   6.927   7.981  12.734 -0.1247  2.2807  0.9555
  754MOL0     H 1752   7.086   8.041  12.691  0.7447 -1.5583 -1.5353
  754MOL0     H 1753   6.939   8.118  12.620 -0.3377 -0.3370 -1.0498
  754MOL0     H 1754   6.484   7.986  12.651  0.6427 -0.7194 -0.0516
  754MOL0     H 1755   6.252   8.020  12.648 -0.5626 -0.2201  0.2716
  754MOL0     H 1756   6.043   7.948  12.661  0.7445  0.8525 -0.2109
  754MOL0     H 1757   6.056   8.082  12.557 -0.8056  0.9669  0.3993
  754MOL0     H 1758   5.862   7.987  12.416 -2.0144  4.9141  0.2267
  754MOL0     H 1759   5.826   7.882  12.550  0.2471 -1.0434 -3.2447
  754MOL0     H 1760   5.804   8.176  12.543  1.0652 -1.0545 -0.1471
  754MOL0     H 1761   5.800   8.092  12.696  2.1169 -1.5601 -0.4713
  754MOL0     H 1762   5.611   8.007  12.477  2.8815 -2.2593  0.6887
  754MOL0     H 1763   5.611   7.964  12.647 -0.4010  0.8007  1.2449
  754MOL0     H 1764   5.588   8.239  12.684 -0.7176  0.7195  0.1598
  754MOL0     H 1765   5.440   8.140  12.662 -1.0369  1.1537 -2.4006
  754MOL0     H 1766   5.439   8.331  12.533 -0.3505  0.5921 -3.5486
  754MOL0     H 1767   5.589   8.302  12.439 -1.3324 -0.4333 -2.3922
  754MOL0     H 1768   5.514   8.111  12.336  2.1622 -0.7782  3.9651
  754MOL0     H 1769   5.415   8.257  12.299  3.5143  0.3084 -0.4382
  754MOL0     H 1770   5.347   8.031  12.499  4.7000  2.5059  0.5288
  754MOL0     H 1771   5.293   8.024  12.333 -0.0216  2.3624 -2.3788
  754MOL0     H 1772   6.205   7.707  12.351 -0.6980  0.2755  1.5503
  754MOL0     H 1773   6.445   7.694  12.334 -1.6857 -0.0222 -1.6518
  754MOL0     H 1774   6.791   7.754  12.332  0.3133 -0.9910 -0.2121
  754MOL0     H 1775   7.018   7.708  12.216 -0.6853 -1.1636  0.5751
  754MOL0     H 1776   8.495   6.907  11.701  2.2863  0.4977 -0.4637
  754MOL0     H 1777   8.700   6.929  11.559 -0.6746  0.0948 -0.8869
  754MOL0     H 1778   8.848   6.926  11.089 -0.4933  0.4804  2.9924
  754MOL0     H 1779   9.046   6.939  10.938  0.8170  0.1208  0.2560
  754MOL0     H 1780   9.235   7.353  10.947  1.0824  0.8170 -1.2118
  754MOL0     H 1781   9.372   7.247  11.001 -0.2031  0.4619  0.0699
  754MOL0     H 1782   9.396   7.375  10.783 -0.7476  0.0420 -0.1258
  754MOL0     H 1783   9.290   7.263  10.707 -1.7138 -2.1944  2.3546
  754MOL0     H 1784   9.452   7.068  10.817  0.8241  0.4321  2.0201
  754MOL0     H 1785   9.557   7.210  10.828 -1.1224  2.1991 -0.2923
  754MOL0     H 1786   9.518   7.264  10.580  1.2418 -0.6944 -0.8453
  754MOL0     H 1787   9.401   7.133  10.575 -1.5560  2.7680  0.2316
  754MOL0     H 1788   9.788   6.951  10.517  0.2977  2.2558 -1.9551
  754MOL0     H 1789   9.177   7.282  11.154 -0.6469  0.6261  0.8938
  754MOL0     H 1790   8.983   7.257  11.316  2.5075  2.0124 -1.5627
  755MOL0     O 1791   5.583   7.325   3.941  0.5912  0.1145  0.6155
  755MOL0     C 1792   5.635   7.319   4.050  0.6028 -0.9522  0.0609
  755MOL0     O 1793   5.594   7.369   4.166  0.2146 -0.2969 -0.7543
  755MOL0     C 1794   5.471   7.443   4.174 -1.4972  0.8728 -0.3933
  755MOL0     C 1795   5.484   7.570   4.227  0.1388  0.0079  0.6311
  755MOL0     C 1796   5.381   7.659   4.252  0.7909 -0.2217  0.4644
  755MOL0     C 1797   5.257   7.611   4.218  0.4301  0.0769 -0.0787
  755MOL0     O 1798   5.150   7.692   4.239  0.4942 -0.3833  0.6461
  755MOL0     C 1799   5.142   7.819   4.174 -0.3137 -0.2886 -0.7154
  755MOL0     C 1800   5.067   7.826   4.043 -0.1999  0.2544  0.2466
  755MOL0     C 1801   4.961   7.942   4.035 -0.1381  0.4282 -0.4907
  755MOL0     C 1802   4.909   7.957   3.886 -0.3079 -0.6685 -0.5643
  755MOL0     C 1803   4.796   8.060   3.884  0.2824 -0.0650 -0.1870
  755MOL0     C 1804   4.712   8.028   3.755 -0.3616  0.4075 -0.1139
  755MOL0     C 1805   4.588   8.106   3.736 -0.0027 -0.7125 -0.5785
  755MOL0     C 1806   4.487   8.054   3.842 -0.7120 -0.7833 -0.8960
  755MOL0     N 1807   4.348   8.103   3.821 -0.4658 -0.1299  0.0880
  755MOL0     C 1808   4.260   8.062   3.724 -0.2237  1.6766 -0.4241
  755MOL0     C 1809   4.144   8.134   3.738 -0.1599  0.7669 -0.0513
  755MOL0     C 1810   4.022   8.110   3.644 -0.0263  0.2825 -0.5014
  755MOL0     C 1811   3.938   8.233   3.641  0.1411  0.0797  0.4556
  755MOL0     C 1812   3.814   8.212   3.552  0.2869 -0.4893  0.0411
  755MOL0     C 1813   3.697   8.125   3.594  0.1428  0.8053 -0.2870
  755MOL0     O 1814   3.601   8.128   3.490 -0.1757 -0.2044 -0.5286
  755MOL0     C 1815   3.485   8.057   3.484  0.2135  0.6817 -0.6026
  755MOL0     C 1816   3.427   7.997   3.596  0.2345 -0.1299 -0.1064
  755MOL0     C 1817   3.309   7.927   3.586  0.4254 -1.3303  0.5667
  755MOL0     C 1818   3.255   7.868   3.718 -0.4983 -0.0002  0.7221
  755MOL0     C 1819   3.244   7.914   3.458 -0.0673  0.0698 -0.6699
  755MOL0     C 1820   3.109   7.848   3.426 -0.2951  0.1824  0.4349
  755MOL0     O 1821   3.061   7.841   3.294 -0.5833  0.1092 -0.1759
  755MOL0     C 1822   2.933   7.800   3.283  0.5629 -1.1562  0.1368
  755MOL0     C 1823   2.919   7.683   3.211 -0.2574 -0.0087 -0.9027
  755MOL0     C 1824   2.795   7.624   3.190  0.0593  0.2857  0.2492
  755MOL0     C 1825   2.684   7.700   3.230 -0.9002  0.6691  0.3596
  755MOL0     O 1826   2.551   7.664   3.233 -0.0900 -0.6635  0.1135
  755MOL0     C 1827   2.512   7.532   3.203 -0.3451 -0.7817  0.3829
  755MOL0     C 1828   2.356   7.521   3.205 -0.5743 -0.2907  0.2096
  755MOL0     C 1829   2.299   7.384   3.176  0.2906 -0.1855 -0.4381
  755MOL0     C 1830   2.156   7.401   3.167 -0.8578 -0.3632  0.3015
  755MOL0     C 1831   2.104   7.270   3.111  0.0040 -1.3147 -0.2684
  755MOL0     C 1832   1.954   7.280   3.090 -0.1474  0.5203 -0.4263
  755MOL0     C 1833   1.889   7.159   3.034 -0.9159  0.5923  0.1055
  755MOL0     C 1834   1.979   7.038   2.990  0.0243  0.9755 -0.3217
  755MOL0    Cl 1835   1.877   6.888   2.944  0.1624  0.0185  0.2136
  755MOL0     C 1836   2.694   7.823   3.292 -0.3865  0.3412 -0.7099
  755MOL0     C 1837   2.823   7.872   3.323  0.9667 -0.4353  0.4780
  755MOL0     O 1838   3.045   7.808   3.522 -0.0721 -0.5308 -0.1666
  755MOL0     C 1839   3.304   7.975   3.349 -0.6145 -0.2031 -0.7272
  755MOL0     C 1840   3.428   8.039   3.361 -0.9170 -0.3041  0.6727
  755MOL0     N 1841   4.171   8.219   3.848  0.4191  0.2318  0.0876
  755MOL0     N 1842   4.288   8.198   3.892 -0.0686 -0.2147  0.2948
  755MOL0     C 1843   5.237   7.486   4.164 -0.4586  0.0798  1.1182
  755MOL0     C 1844   5.346   7.403   4.140 -0.1767  0.0449 -0.0796
  755MOL0     C 1845   5.751   7.240   4.061 -0.8515 -0.1788  0.3775
  755MOL0     C 1846   5.838   7.244   4.170 -0.7302  0.3512 -1.1211
  755MOL0     C 1847   5.952   7.171   4.176 -0.1146  0.5617 -0.4514
  755MOL0     C 1848   5.989   7.085   4.068  1.0466  0.0219 -0.6178
  755MOL0     O 1849   6.107   7.015   4.054  0.4777 -0.1993  0.2064
  755MOL0     C 1850   6.192   6.999   4.167  0.4174  0.3281  1.2983
  755MOL0     C 1851   6.324   6.913   4.127 -0.6029  0.8295  0.2600
  755MOL0     C 1852   6.289   6.781   4.057  0.3608  0.0287  0.4969
  755MOL0     C 1853   6.333   6.668   4.139  0.1213 -0.7541  1.4525
  755MOL0     C 1854   6.351   6.558   4.044 -0.1175  1.1270  0.1627
  755MOL0     C 1855   6.367   6.471   3.962 -0.8606 -0.3171  0.1218
  755MOL0     C 1856   5.901   7.078   3.955 -1.4041  0.2224 -0.4600
  755MOL0     C 1857   5.788   7.154   3.955 -0.1009  0.3030  0.5922
  755MOL0     H 1858   5.588   7.601   4.236  0.3967 -0.9442  1.1003
  755MOL0     H 1859   5.405   7.757   4.291 -1.0156 -0.5323  2.5262
  755MOL0     H 1860   5.109   7.893   4.247 -0.4987 -1.4229  0.3842
  755MOL0     H 1861   5.237   7.871   4.155 -0.6646  2.2099  3.2635
  755MOL0     H 1862   5.147   7.838   3.969  0.2081  0.1238  0.6590
  755MOL0     H 1863   5.009   7.733   4.042 -4.7005  2.7928 -0.3597
  755MOL0     H 1864   4.881   7.912   4.103  0.3271 -0.4477 -0.3267
  755MOL0     H 1865   5.007   8.040   4.056 -1.3773  0.9924 -0.3448
  755MOL0     H 1866   4.985   7.988   3.813 -2.0945  1.3586 -1.6812
  755MOL0     H 1867   4.875   7.858   3.852 -0.3503 -0.2319 -1.8650
  755MOL0     H 1868   4.729   8.055   3.971 -0.2964  0.1688 -0.6122
  755MOL0     H 1869   4.837   8.161   3.876  0.9650 -0.0715  2.3882
  755MOL0     H 1870   4.761   8.045   3.658 -3.0028  0.7492 -1.4831
  755MOL0     H 1871   4.693   7.921   3.746  0.9490  0.2414 -1.2649
  755MOL0     H 1872   4.603   8.212   3.762 -0.0987 -1.1640  1.4410
  755MOL0     H 1873   4.546   8.095   3.635 -1.8773  1.8907 -0.2096
  755MOL0     H 1874   4.526   8.090   3.937  0.1545  3.5897 -2.6587
  755MOL0     H 1875   4.492   7.945   3.829  1.2561 -1.3732  3.2159
  755MOL0     H 1876   4.284   7.992   3.644 -1.9815 -0.8604  1.1272
  755MOL0     H 1877   4.053   8.073   3.546  0.8029  0.8881 -0.4770
  755MOL0     H 1878   3.964   8.037   3.701 -1.4309  1.0601 -0.8743
  755MOL0     H 1879   4.001   8.317   3.611  0.5671 -1.1581 -2.4277
  755MOL0     H 1880   3.894   8.252   3.740 -0.0280  0.4179  0.3165
  755MOL0     H 1881   3.850   8.178   3.454 -1.2888  0.6804 -0.9975
  755MOL0     H 1882   3.788   8.316   3.530  2.1825 -0.6041 -3.5932
  755MOL0     H 1883   3.659   8.157   3.691  2.1293 -0.8280  1.1136
  755MOL0     H 1884   3.751   8.031   3.609  2.0836  1.8292 -0.4888
  755MOL0     H 1885   3.475   8.015   3.692  0.7877  2.6379 -0.7977
  755MOL0     H 1886   3.323   7.879   3.803  1.0776 -0.8770 -0.3673
  755MOL0     H 1887   3.158   7.917   3.733  0.0579  1.0108  1.1555
  755MOL0     H 1888   3.239   7.761   3.708  1.2198 -0.5048  2.6263
  755MOL0     H 1889   3.006   7.637   3.166  1.4438  1.7237  0.4597
  755MOL0     H 1890   2.787   7.529   3.138 -0.5051  0.7449 -0.5343
  755MOL0     H 1891   2.544   7.501   3.103 -0.5508  1.8887 -0.5911
  755MOL0     H 1892   2.560   7.464   3.274  0.8338  0.0201  0.3968
  755MOL0     H 1893   2.325   7.538   3.309 -0.7799 -0.9792  0.2660
  755MOL0     H 1894   2.316   7.587   3.128  1.9876 -0.3493 -1.2895
  755MOL0     H 1895   2.326   7.316   3.257  1.1519  1.0906  0.3958
  755MOL0     H 1896   2.339   7.341   3.083 -0.3797  0.0885 -0.8585
  755MOL0     H 1897   2.100   7.429   3.256  0.8081  2.0216  0.7073
  755MOL0     H 1898   2.137   7.483   3.098 -0.2972  0.6559  1.3290
  755MOL0     H 1899   2.134   7.191   3.180  0.0720 -1.0464  0.0156
  755MOL0     H 1900   2.147   7.248   3.014 -2.0725 -1.9670 -1.1016
  755MOL0     H 1901   1.913   7.308   3.188  1.3474 -1.3718  0.7993
  755MOL0     H 1902   1.931   7.365   3.024  1.2542  0.7508 -0.6499
  755MOL0     H 1903   1.812   7.176   2.957 -0.3534  1.5788 -0.2647
  755MOL0     H 1904   1.825   7.118   3.112 -1.8073  2.3665  0.3557
  755MOL0     H 1905   2.046   6.991   3.062  0.0912 -0.9751 -1.5811
  755MOL0     H 1906   2.047   7.070   2.911  1.8948 -1.2295  0.2984
  755MOL0     H 1907   2.602   7.877   3.310 -0.9176 -0.3760 -1.2476
  755MOL0     H 1908   2.844   7.970   3.364 -1.5165  1.2057 -1.8526
  755MOL0     H 1909   3.263   7.964   3.250 -0.0231  3.0692 -1.4641
  755MOL0     H 1910   3.480   8.084   3.277  0.5593  2.1219  2.7377
  755MOL0     H 1911   5.133   7.454   4.155 -0.5775  0.8006 -0.6885
  755MOL0     H 1912   5.341   7.303   4.097  2.5326  0.4455 -1.5550
  755MOL0     H 1913   5.830   7.324   4.244 -0.3129 -0.9771  0.4239
  755MOL0     H 1914   6.026   7.189   4.253  2.7412 -2.0001 -2.3194
  755MOL0     H 1915   6.216   7.097   4.209 -2.6126  2.3152 -1.1724
  755MOL0     H 1916   6.132   6.942   4.239 -0.4042 -0.2546  0.1868
  755MOL0     H 1917   6.377   6.896   4.222 -0.4650  1.2811  0.2673
  755MOL0     H 1918   6.389   6.976   4.065 -0.8607 -0.4753 -1.4079
  755MOL0     H 1919   6.350   6.781   3.966  1.9542  1.1876  1.4995
  755MOL0     H 1920   6.181   6.771   4.041  0.2910 -3.2362  2.2372
  755MOL0     H 1921   6.255   6.640   4.210  0.0298 -1.7394  0.9777
  755MOL0     H 1922   6.421   6.687   4.201 -1.1029  1.4711  2.6459
  755MOL0     H 1923   6.396   6.398   3.889  2.0532  1.0533 -0.2415
  755MOL0     H 1924   5.935   6.999   3.889  2.9781  0.5993  1.0580
  755MOL0     H 1925   5.723   7.150   3.869  0.4094 -2.3337  0.2639
  756MOL0     O 1926   9.375   2.618   7.286 -0.2137  0.3716 -0.1840
  756MOL0     C 1927   9.470   2.673   7.332  0.4004  0.6873 -0.4680
  756MOL0     O 1928   9.484   2.806   7.321 -0.6863  0.2032  0.7733
  756MOL0     C 1929   9.390   2.880   7.247 -0.4513 -1.0672  0.2797
  756MOL0     C 1930   9.307   2.974   7.311  0.2398  0.2601 -0.3473
  756MOL0     C 1931   9.228   3.055   7.233  0.4990  0.8815  0.4040
  756MOL0     C 1932   9.223   3.039   7.092 -0.0506  0.9777 -0.3321
  756MOL0     O 1933   9.139   3.106   7.006  0.0436 -0.4518 -0.3163
  756MOL0     C 1934   9.029   3.172   7.059 -0.5479 -0.2332  0.5079
  756MOL0     C 1935   9.085   3.313   7.094  0.2377  0.1474 -0.3053
  756MOL0     C 1936   8.993   3.386   7.187 -0.1295  0.1415 -1.0592
  756MOL0     C 1937   8.876   3.449   7.115  0.0952 -0.4954 -0.8171
  756MOL0     C 1938   8.790   3.528   7.214 -0.1065  0.2897  0.7753
  756MOL0     C 1939   8.700   3.622   7.128 -0.0307  0.3687 -0.3962
  756MOL0     C 1940   8.645   3.733   7.211 -0.4240  0.5265 -0.0148
  756MOL0     C 1941   8.728   3.863   7.193  0.9878  0.0342 -0.1801
  756MOL0     N 1942   8.670   3.974   7.277  0.8871 -0.1680  0.7069
  756MOL0     C 1943   8.585   4.072   7.239 -0.3280  0.3879  0.5009
  756MOL0     C 1944   8.552   4.138   7.349  0.2718 -0.4365  0.0435
  756MOL0     C 1945   8.470   4.270   7.366  0.5069  0.5230 -0.5800
  756MOL0     C 1946   8.322   4.254   7.371 -0.5945 -0.0654  1.1768
  756MOL0     C 1947   8.261   4.183   7.237  0.2975 -0.6400 -0.5663
  756MOL0     C 1948   8.115   4.141   7.270  0.2049  0.0283 -0.6642
  756MOL0     O 1949   8.048   4.104   7.144 -0.1597  0.0964 -0.0328
  756MOL0     C 1950   7.911   4.123   7.123 -0.9912 -0.4021 -0.2080
  756MOL0     C 1951   7.855   4.118   6.995 -0.4348 -0.1043 -0.0848
  756MOL0     C 1952   7.724   4.136   6.960  0.6233  0.9414  0.2967
  756MOL0     C 1953   7.695   4.126   6.814  1.3502 -0.1021  0.9108
  756MOL0     C 1954   7.635   4.175   7.060  0.6168  0.3014  0.0978
  756MOL0     C 1955   7.502   4.220   7.034 -0.0025  0.5066 -0.0108
  756MOL0     O 1956   7.415   4.210   7.134  0.4661  0.0793  0.2006
  756MOL0     C 1957   7.286   4.247   7.120 -0.0047  0.1146  0.1274
  756MOL0     C 1958   7.184   4.153   7.139  0.1498 -0.0868  0.0448
  756MOL0     C 1959   7.051   4.197   7.144  1.1688  0.0201 -0.2166
  756MOL0     C 1960   7.025   4.332   7.124  0.3729 -0.3110  0.8337
  756MOL0     O 1961   6.893   4.370   7.127  0.8027 -0.2347  0.3195
  756MOL0     C 1962   6.839   4.441   7.008  0.1147  1.0149 -0.0793
  756MOL0     C 1963   6.773   4.340   6.909 -0.2127  0.1678  0.4000
  756MOL0     C 1964   6.666   4.249   6.968 -0.5156 -0.4711  0.1940
  756MOL0     C 1965   6.541   4.237   6.879  0.3129 -0.1549 -0.6920
  756MOL0     C 1966   6.584   4.166   6.752  0.9493 -0.2316  0.5403
  756MOL0     C 1967   6.458   4.156   6.663  0.4350  0.0090  0.5307
  756MOL0     C 1968   6.376   4.034   6.696 -0.2055  0.0872  0.3455
  756MOL0     C 1969   6.263   4.016   6.602  0.9769 -0.3913 -0.4369
  756MOL0    Cl 1970   6.130   4.148   6.612 -0.2262  0.5219 -0.1806
  756MOL0     C 1971   7.125   4.422   7.105 -0.1165 -0.1210  0.4335
  756MOL0     C 1972   7.262   4.382   7.103 -0.2812  0.3211  0.2934
  756MOL0     O 1973   7.489   4.298   6.938  0.1739 -0.0134 -0.6388
  756MOL0     C 1974   7.684   4.164   7.194  1.0647  0.2826  0.5309
  756MOL0     C 1975   7.815   4.141   7.222 -0.1893 -0.2566 -0.3442
  756MOL0     N 1976   8.604   4.067   7.458  0.4970  0.1341 -0.4103
  756MOL0     N 1977   8.680   3.976   7.410  0.8210  0.1416 -0.0089
  756MOL0     C 1978   9.299   2.939   7.028  0.0362  0.2970  0.5105
  756MOL0     C 1979   9.387   2.860   7.105  0.4520  0.2652 -0.4479
  756MOL0     C 1980   9.559   2.599   7.435 -0.3332  0.6500 -0.3243
  756MOL0     C 1981   9.675   2.665   7.483 -0.2497  0.4208 -0.6915
  756MOL0     C 1982   9.767   2.608   7.568 -0.4359 -0.4686  0.3036
  756MOL0     C 1983   9.748   2.473   7.615 -0.3892 -0.4379 -0.1821
  756MOL0     O 1984   9.832   2.406   7.703  0.5901 -0.4718 -0.0518
  756MOL0     C 1985   9.881   2.497   7.808  0.0075  0.2275  0.2014
  756MOL0     C 1986   9.855   2.443   7.943 -0.5706 -0.1562 -0.4737
  756MOL0     C 1987   9.935   2.506   8.061 -0.0093 -0.0892  0.3638
  756MOL0     C 1988   9.902   2.649   8.105 -0.5591 -0.3346  0.2150
  756MOL0     C 1989   9.749   2.669   8.118 -0.5490 -0.2058  0.0694
  756MOL0     C 1990   9.637   2.707   8.137  0.5962  0.1844  0.2295
  756MOL0     C 1991   9.644   2.404   7.566  0.3094  0.3953  0.3012
  756MOL0     C 1992   9.551   2.467   7.480 -0.9537  0.7120  0.6013
  756MOL0     H 1993   9.303   2.967   7.419  5.0648 -4.5112 -0.0783
  756MOL0     H 1994   9.164   3.123   7.288  0.7947  0.8903  0.7423
  756MOL0     H 1995   8.951   3.182   6.983  0.9957  1.2442 -0.9600
  756MOL0     H 1996   8.990   3.113   7.143 -0.9943  1.9722  1.9648
  756MOL0     H 1997   9.172   3.320   7.161  0.8935 -1.4494 -0.9568
  756MOL0     H 1998   9.107   3.366   7.001 -0.2250  0.2604 -0.3500
  756MOL0     H 1999   8.970   3.322   7.272  0.8913  0.6680 -0.3555
  756MOL0     H 2000   9.046   3.471   7.233 -2.0686  0.8190  0.0249
  756MOL0     H 2001   8.916   3.515   7.037  1.3681 -1.5536 -1.0948
  756MOL0     H 2002   8.809   3.373   7.074  0.6083  0.2658 -3.2620
  756MOL0     H 2003   8.731   3.452   7.267 -1.2773  0.0872 -0.7231
  756MOL0     H 2004   8.853   3.579   7.286 -0.2493  1.1295  0.3243
  756MOL0     H 2005   8.768   3.651   7.048  3.1419 -6.5212 -0.9587
  756MOL0     H 2006   8.622   3.559   7.084 -0.1925  0.1392  0.2071
  756MOL0     H 2007   8.546   3.749   7.168 -0.2162 -0.6692 -0.9789
  756MOL0     H 2008   8.632   3.703   7.315  0.7423 -0.1269 -0.0443
  756MOL0     H 2009   8.723   3.904   7.092 -0.5825  0.6209  0.1047
  756MOL0     H 2010   8.832   3.840   7.220  0.1442 -3.4469  0.6630
  756MOL0     H 2011   8.556   4.076   7.135 -1.6732 -2.6034  0.6569
  756MOL0     H 2012   8.499   4.316   7.461  0.4887  1.2293 -0.9104
  756MOL0     H 2013   8.502   4.341   7.289  0.7750  0.3759 -0.6033
  756MOL0     H 2014   8.272   4.349   7.391 -0.8260  0.7762 -2.5868
  756MOL0     H 2015   8.305   4.195   7.462  0.0464 -1.7141  0.2589
  756MOL0     H 2016   8.327   4.104   7.199  1.9840  1.0867 -1.4612
  756MOL0     H 2017   8.263   4.254   7.154  0.0339  0.7624  0.5929
  756MOL0     H 2018   8.055   4.219   7.318 -2.4271 -2.1164 -0.2029
  756MOL0     H 2019   8.122   4.054   7.335  0.0448  0.3757 -0.1788
  756MOL0     H 2020   7.942   4.093   6.934  0.0432 -1.1007  0.9393
  756MOL0     H 2021   7.771   4.070   6.759 -0.5590 -0.7293 -1.2884
  756MOL0     H 2022   7.598   4.079   6.792  1.8972 -0.8163 -0.0738
  756MOL0     H 2023   7.688   4.229   6.777  0.1152 -0.6025 -0.3716
  756MOL0     H 2024   7.213   4.049   7.149  2.6477  0.6389  1.0829
  756MOL0     H 2025   6.968   4.134   7.175  1.3486  0.4424  1.1822
  756MOL0     H 2026   6.760   4.511   7.037 -1.4735 -0.3950 -0.8465
  756MOL0     H 2027   6.923   4.491   6.960 -0.4625  2.8998  0.7687
  756MOL0     H 2028   6.727   4.399   6.829 -1.2113 -2.2427 -0.9162
  756MOL0     H 2029   6.852   4.279   6.864 -0.2836 -2.1611  3.1493
  756MOL0     H 2030   6.642   4.302   7.061  1.5865  1.0526 -0.0506
  756MOL0     H 2031   6.704   4.148   6.985 -1.6081 -0.8211  0.6979
  756MOL0     H 2032   6.460   4.182   6.927  0.3147 -0.6754 -1.2839
  756MOL0     H 2033   6.511   4.341   6.858  0.0070  0.2812  1.6243
  756MOL0     H 2034   6.631   4.068   6.767 -1.7130 -1.4009  1.8719
  756MOL0     H 2035   6.651   4.229   6.692 -0.4546 -0.4245 -1.3246
  756MOL0     H 2036   6.387   4.239   6.669 -2.6933 -2.0159 -3.3990
  756MOL0     H 2037   6.483   4.155   6.557 -0.0684  2.3837  0.3195
  756MOL0     H 2038   6.339   4.046   6.798 -1.3604 -1.6355  0.1686
  756MOL0     H 2039   6.447   3.952   6.692  0.9425  1.1036 -2.8917
  756MOL0     H 2040   6.218   3.919   6.627  0.3249 -0.6716 -2.5107
  756MOL0     H 2041   6.296   4.010   6.498 -2.3888  1.7949 -1.7889
  756MOL0     H 2042   7.103   4.528   7.102 -0.4287 -0.1218  2.1118
  756MOL0     H 2043   7.339   4.457   7.094  1.1603 -0.9972  1.2586
  756MOL0     H 2044   7.605   4.172   7.268 -1.2537  3.0894 -1.9779
  756MOL0     H 2045   7.852   4.143   7.324 -0.8994 -2.0975 -0.0149
  756MOL0     H 2046   9.281   2.919   6.923  1.4074  1.4627  0.0258
  756MOL0     H 2047   9.446   2.785   7.056 -0.3596 -0.6442 -0.0615
  756MOL0     H 2048   9.701   2.764   7.446  0.6181 -0.4096 -2.4661
  756MOL0     H 2049   9.850   2.670   7.600 -0.2780  0.0658 -1.0730
  756MOL0     H 2050   9.988   2.512   7.795  0.0691  0.6636  1.1566
  756MOL0     H 2051   9.832   2.595   7.805 -0.4235  0.0126  0.0934
  756MOL0     H 2052   9.871   2.336   7.924 -1.7214  0.0154 -2.7120
  756MOL0     H 2053   9.747   2.445   7.960 -0.6156 -1.2608 -0.5551
  756MOL0     H 2054  10.038   2.473   8.047 -0.4565 -1.2845 -0.2148
  756MOL0     H 2055   9.911   2.455   8.155  1.5864 -3.1664 -0.7812
  756MOL0     H 2056   9.951   2.719   8.037  1.4460  0.6345  2.5262
  756MOL0     H 2057   9.953   2.662   8.201 -0.3878 -0.1683  0.1023
  756MOL0     H 2058   9.543   2.752   8.161 -0.0757 -0.8833 -0.3216
  756MOL0     H 2059   9.650   2.301   7.599 -0.4226  0.7630  1.6672
  756MOL0     H 2060   9.471   2.399   7.454 -1.9651  1.5564  1.4290
  757MOL0     O 2061   3.405   5.212   8.617 -0.3314 -0.0624  0.1250
  757MOL0     C 2062   3.409   5.327   8.659 -0.8320  0.5540 -0.3870
  757MOL0     O 2063   3.307   5.402   8.709 -0.0730  0.3883  0.2653
  757MOL0     C 2064   3.172   5.358   8.700 -0.5386 -0.5674 -0.6459
  757MOL0     C 2065   3.135   5.230   8.755  0.8361 -0.2061 -0.1246
  757MOL0     C 2066   3.000   5.187   8.760 -0.1473 -0.1592  0.0974
  757MOL0     C 2067   2.906   5.264   8.687  0.7921 -0.6866  0.5320
  757MOL0     O 2068   2.774   5.244   8.672  0.2443  0.0040  0.5816
  757MOL0     C 2069   2.700   5.186   8.783  0.1682  1.4186  0.8265
  757MOL0     C 2070   2.544   5.210   8.757 -0.0547  0.0957 -0.4398
  757MOL0     C 2071   2.466   5.188   8.884  0.1107  0.8965 -0.5681
  757MOL0     C 2072   2.321   5.188   8.839  0.3795  0.4063  0.4502
  757MOL0     C 2073   2.231   5.217   8.968 -0.3480 -0.3029  0.1982
  757MOL0     C 2074   2.088   5.203   8.916  0.0010  0.1459  0.3146
  757MOL0     C 2075   1.981   5.207   9.024 -0.4618  0.8281 -0.0320
  757MOL0     C 2076   1.856   5.162   8.962  0.4230  0.2526 -0.2037
  757MOL0     N 2077   1.768   5.108   9.070  0.1714 -0.0005  0.6476
  757MOL0     C 2078   1.792   4.984   9.114  0.3646  0.3874 -0.4738
  757MOL0     C 2079   1.697   4.956   9.209 -0.6822  0.2993  0.4730
  757MOL0     C 2080   1.661   4.842   9.299 -0.1258 -0.0226 -0.0022
  757MOL0     C 2081   1.514   4.811   9.294 -0.0191  0.0819 -0.7800
  757MOL0     C 2082   1.485   4.739   9.162 -0.0736 -0.0849 -0.2990
  757MOL0     C 2083   1.348   4.685   9.145 -0.2067  0.1425  0.0467
  757MOL0     O 2084   1.321   4.591   9.245  0.4212 -0.2168 -0.0309
  757MOL0     C 2085   1.190   4.578   9.288  0.3078  0.3515  0.1792
  757MOL0     C 2086   1.174   4.523   9.416  0.1821 -0.4626  0.3474
  757MOL0     C 2087   1.047   4.490   9.464 -0.1937  0.0993 -0.6465
  757MOL0     C 2088   1.050   4.425   9.599 -0.2369  0.3453  0.3551
  757MOL0     C 2089   0.930   4.511   9.395 -0.3983  0.5140  0.2420
  757MOL0     C 2090   0.790   4.479   9.441 -0.0598  0.6928 -0.2878
  757MOL0     O 2091   0.685   4.550   9.391 -0.0805 -1.0753  0.3060
  757MOL0     C 2092   0.557   4.520   9.415  0.0669  0.4444  0.1866
  757MOL0     C 2093   0.460   4.626   9.432 -0.4644  0.2449 -0.6065
  757MOL0     C 2094   0.328   4.589   9.456  0.0414  0.4572  0.2216
  757MOL0     C 2095   0.289   4.454   9.460 -0.0053  0.2329 -0.2717
  757MOL0     O 2096   0.158   4.423   9.474 -0.0549  0.0888  0.4580
  757MOL0     C 2097   0.067   4.521   9.533  0.1514 -0.5272 -1.0960
  757MOL0     C 2098  -0.074   4.461   9.511 -0.1860 -0.1719 -0.0608
  757MOL0     C 2099  -0.175   4.539   9.588 -0.1966 -0.7556 -0.0974
  757MOL0     C 2100  -0.303   4.465   9.613  0.1245 -0.4613  0.9384
  757MOL0     C 2101  -0.430   4.561   9.655 -0.5041  0.1002 -0.1563
  757MOL0     C 2102  -0.559   4.483   9.656  0.3520 -0.1172 -0.3386
  757MOL0     C 2103  -0.663   4.570   9.717 -0.8524  0.0291  0.4419
  757MOL0     C 2104  -0.800   4.514   9.716 -0.4537  0.7086  0.1108
  757MOL0    Cl 2105  -0.825   4.346   9.789 -0.2459 -0.2437 -0.4857
  757MOL0     C 2106   0.382   4.350   9.440 -0.8284  0.0888  0.3656
  757MOL0     C 2107   0.518   4.387   9.425 -0.3480  0.4920  0.4486
  757MOL0     O 2108   0.780   4.381   9.519  0.8989 -0.8790 -0.2864
  757MOL0     C 2109   0.947   4.571   9.268  1.2523 -0.3552 -0.0580
  757MOL0     C 2110   1.068   4.597   9.216 -0.2030 -0.1231 -0.3936
  757MOL0     N 2111   1.627   5.070   9.223  0.3779 -0.4665  0.6360
  757MOL0     N 2112   1.663   5.161   9.128  0.6007 -0.4204 -0.7708
  757MOL0     C 2113   2.946   5.375   8.617 -0.2919  0.2293  0.1314
  757MOL0     C 2114   3.070   5.427   8.636  0.3512  0.5339  0.5794
  757MOL0     C 2115   3.539   5.396   8.661  0.5002  0.7762 -0.2269
  757MOL0     C 2116   3.544   5.528   8.707 -1.2877 -0.2053  0.1492
  757MOL0     C 2117   3.667   5.590   8.721 -0.5267  0.2443 -0.4920
  757MOL0     C 2118   3.784   5.527   8.680  0.9138 -0.3344 -0.1069
  757MOL0     O 2119   3.894   5.597   8.686 -0.6062 -0.3574  0.7036
  757MOL0     C 2120   4.004   5.553   8.609 -0.3095  0.1164  0.1759
  757MOL0     C 2121   4.081   5.684   8.585 -0.4830 -1.3895  0.5292
  757MOL0     C 2122   4.217   5.658   8.505  1.0291  0.9280 -0.2898
  757MOL0     C 2123   4.187   5.616   8.362  0.0247 -0.0657  0.4355
  757MOL0     C 2124   4.286   5.680   8.276 -0.0885 -0.3256 -0.0941
  757MOL0     C 2125   4.372   5.738   8.218  0.5053 -0.1816  0.8159
  757MOL0     C 2126   3.775   5.389   8.640 -0.6461 -0.2486 -0.5109
  757MOL0     C 2127   3.656   5.324   8.625  0.5809  0.3626  0.5374
  757MOL0     H 2128   3.204   5.167   8.810 -0.1854 -0.6612  0.6877
  757MOL0     H 2129   2.973   5.109   8.830  0.8036 -0.7521 -0.1680
  757MOL0     H 2130   2.731   5.082   8.800  1.3203  1.7903  1.0479
  757MOL0     H 2131   2.723   5.251   8.868  0.7363  1.7174  0.4517
  757MOL0     H 2132   2.524   5.310   8.717 -2.9484 -0.6808 -1.1550
  757MOL0     H 2133   2.509   5.138   8.683  0.0309 -1.4736  0.9839
  757MOL0     H 2134   2.490   5.099   8.943 -0.0405  0.9362 -0.4430
  757MOL0     H 2135   2.472   5.269   8.957 -3.3642  1.9057 -1.1918
  757MOL0     H 2136   2.313   5.261   8.758  2.4884 -2.0118 -2.1245
  757MOL0     H 2137   2.294   5.090   8.800 -1.3984  1.2395 -0.5084
  757MOL0     H 2138   2.247   5.137   9.041 -1.6229  0.7805  1.7229
  757MOL0     H 2139   2.260   5.309   9.019  1.9978 -1.7728  1.7420
  757MOL0     H 2140   2.061   5.271   8.836 -0.3779 -0.5622 -0.1702
  757MOL0     H 2141   2.086   5.100   8.880  1.4257  1.2002 -3.1648
  757MOL0     H 2142   2.020   5.155   9.112  0.5183  1.2748 -0.1903
  757MOL0     H 2143   1.977   5.313   9.049 -0.9208  0.9203 -0.4750
  757MOL0     H 2144   1.876   5.094   8.879 -0.9276  0.6083 -0.8410
  757MOL0     H 2145   1.817   5.249   8.910  1.0855  0.5838 -0.1560
  757MOL0     H 2146   1.850   4.906   9.066 -1.3942 -0.7771 -0.7980
  757MOL0     H 2147   1.727   4.759   9.274 -0.0133 -1.0073  3.1690
  757MOL0     H 2148   1.674   4.871   9.404 -1.6615 -1.8564  0.7641
  757MOL0     H 2149   1.451   4.900   9.301  1.0887  0.7301  2.0938
  757MOL0     H 2150   1.522   4.747   9.383  2.9773  0.8426 -0.4081
  757MOL0     H 2151   1.554   4.654   9.157 -1.4080 -1.1474 -1.3828
  757MOL0     H 2152   1.509   4.800   9.074  1.1304  0.7919  0.6012
  757MOL0     H 2153   1.334   4.638   9.047 -3.7337 -1.7909  1.2814
  757MOL0     H 2154   1.277   4.767   9.156 -0.1387 -0.0051  1.8619
  757MOL0     H 2155   1.263   4.496   9.472 -0.7859 -1.7015  1.3589
  757MOL0     H 2156   1.145   4.446   9.648  0.2432 -0.2229 -0.3201
  757MOL0     H 2157   0.972   4.469   9.662  0.1224  1.0777  0.3057
  757MOL0     H 2158   1.024   4.319   9.587 -1.4884  0.0025  4.5477
  757MOL0     H 2159   0.505   4.724   9.419  1.6053 -0.4216  1.0319
  757MOL0     H 2160   0.270   4.678   9.476  2.4534  2.0907  0.3661
  757MOL0     H 2161   0.091   4.537   9.639 -1.5484 -4.1521 -0.0150
  757MOL0     H 2162   0.063   4.619   9.483  0.4265  0.6766  1.1090
  757MOL0     H 2163  -0.104   4.457   9.406 -2.8971  1.2206  0.5714
  757MOL0     H 2164  -0.073   4.363   9.559 -1.6083 -0.4497 -0.5336
  757MOL0     H 2165  -0.182   4.632   9.530  1.3519  0.9300  2.2133
  757MOL0     H 2166  -0.143   4.580   9.684 -0.6877  1.0611 -0.6593
  757MOL0     H 2167  -0.334   4.412   9.522 -1.3465  0.7350  0.6981
  757MOL0     H 2168  -0.281   4.379   9.677  2.4404 -0.9642 -0.4148
  757MOL0     H 2169  -0.445   4.642   9.583 -1.0457 -1.1102 -1.4477
  757MOL0     H 2170  -0.408   4.602   9.754  2.5891  0.2627 -0.7910
  757MOL0     H 2171  -0.598   4.451   9.559 -0.2037 -1.0642  0.1751
  757MOL0     H 2172  -0.552   4.390   9.713  0.2400 -0.1740 -0.4171
  757MOL0     H 2173  -0.656   4.670   9.675  0.4579 -0.5118 -0.7261
  757MOL0     H 2174  -0.627   4.596   9.817 -1.3770  2.0125  0.1527
  757MOL0     H 2175  -0.841   4.513   9.615  1.0950 -1.0939 -0.5664
  757MOL0     H 2176  -0.868   4.583   9.766 -0.3301  0.5473  0.5089
  757MOL0     H 2177   0.341   4.249   9.444 -1.2548  0.2340 -0.2076
  757MOL0     H 2178   0.582   4.306   9.392 -1.7591  0.0415 -1.4033
  757MOL0     H 2179   0.859   4.598   9.209  1.1895 -1.8759 -0.6935
  757MOL0     H 2180   1.076   4.632   9.113 -1.2465  1.3240 -0.0180
  757MOL0     H 2181   2.879   5.442   8.564  1.8295  2.7209  0.3965
  757MOL0     H 2182   3.097   5.521   8.589  2.1011  1.0164  2.3842
  757MOL0     H 2183   3.462   5.586   8.748 -0.2048 -0.3371  2.6961
  757MOL0     H 2184   3.685   5.694   8.744  1.5359 -0.5384  1.8791
  757MOL0     H 2185   4.061   5.474   8.658  2.6815  1.4309 -0.9647
  757MOL0     H 2186   3.960   5.507   8.520 -3.6728 -4.0260  3.5034
  757MOL0     H 2187   4.110   5.717   8.686  1.4993 -2.4379  0.3517
  757MOL0     H 2188   4.021   5.760   8.535  2.0466 -0.1196 -0.7632
  757MOL0     H 2189   4.260   5.570   8.555  1.4419  0.6380 -1.1340
  757MOL0     H 2190   4.280   5.746   8.514  0.6725  1.2674 -1.0226
  757MOL0     H 2191   4.096   5.673   8.338  0.8271  1.1352  0.1428
  757MOL0     H 2192   4.165   5.513   8.335 -1.2701 -0.1351  1.6443
  757MOL0     H 2193   4.448   5.785   8.160 -1.1414  0.1462 -1.1805
  757MOL0     H 2194   3.872   5.339   8.640  0.2293  1.3104  0.7574
  757MOL0     H 2195   3.652   5.220   8.593 -0.5107  0.7894 -0.8401
  758MOL0     O 2196   9.826   0.511   5.475 -0.2438  0.1457  0.4841
  758MOL0     C 2197   9.783   0.602   5.543 -0.0285 -0.4939  0.4260
  758MOL0     O 2198   9.819   0.635   5.668  0.3369  0.0596 -0.2674
  758MOL0     C 2199   9.924   0.565   5.732  0.2902  0.1591 -0.9093
  758MOL0     C 2200   9.899   0.552   5.868 -0.2138 -0.4328 -0.9687
  758MOL0     C 2201  10.007   0.515   5.954  0.7643  0.3085  0.8570
  758MOL0     C 2202  10.130   0.483   5.902 -0.4019  0.0454 -0.5148
  758MOL0     O 2203  10.225   0.446   5.998  0.1207  0.2008 -0.5939
  758MOL0     C 2204  10.347   0.390   5.945  0.7077  0.6233  0.3632
  758MOL0     C 2205  10.427   0.341   6.062 -0.4875  0.2635  0.3817
  758MOL0     C 2206  10.352   0.235   6.150  0.2927 -0.1756 -0.0331
  758MOL0     C 2207  10.341   0.098   6.081 -0.2408 -0.4947 -1.0031
  758MOL0     C 2208  10.288   0.002   6.183  0.7205 -0.1614  0.9559
  758MOL0     C 2209  10.142   0.034   6.199 -0.1248  1.0699  0.1472
  758MOL0     C 2210  10.100  -0.046   6.327  0.8725  0.7811  0.8143
  758MOL0     C 2211   9.973   0.013   6.388 -0.1979  0.1808 -0.1492
  758MOL0     N 2212   9.842  -0.029   6.344 -0.9160 -0.5385  0.3923
  758MOL0     C 2213   9.762  -0.121   6.404  0.3369 -0.4671 -0.1047
  758MOL0     C 2214   9.668  -0.149   6.311 -0.7520 -0.8282 -0.6492
  758MOL0     C 2215   9.546  -0.240   6.331  0.1864 -0.0132  0.6541
  758MOL0     C 2216   9.420  -0.155   6.345 -0.4038  1.3020 -0.1699
  758MOL0     C 2217   9.296  -0.238   6.341 -0.1059  0.6422 -0.0715
  758MOL0     C 2218   9.176  -0.166   6.399  0.6531 -0.5782  0.6017
  758MOL0     O 2219   9.056  -0.242   6.366 -0.0591 -0.0666 -0.3991
  758MOL0     C 2220   8.939  -0.178   6.352  0.5270  0.9380 -0.4012
  758MOL0     C 2221   8.911  -0.046   6.383  1.3201 -0.5423  0.3038
  758MOL0     C 2222   8.782   0.004   6.369  0.3648 -0.4832 -0.2390
  758MOL0     C 2223   8.771   0.148   6.405 -0.2521  0.3266  0.5761
  758MOL0     C 2224   8.675  -0.071   6.303  0.2675  0.3275 -0.2270
  758MOL0     C 2225   8.538  -0.026   6.285 -0.6780  0.8917 -0.8384
  758MOL0     O 2226   8.470   0.010   6.401 -0.6283 -0.9611  0.4159
  758MOL0     C 2227   8.349   0.072   6.384 -0.1304  1.3879 -0.7470
  758MOL0     C 2228   8.239  -0.002   6.336 -0.3646 -0.8593  0.4196
  758MOL0     C 2229   8.110   0.060   6.346  0.4147 -0.4459  0.7459
  758MOL0     C 2230   8.094   0.191   6.387 -0.8154  0.0373  0.5761
  758MOL0     O 2231   7.963   0.232   6.389  0.0369 -0.1318  0.3063
  758MOL0     C 2232   7.927   0.360   6.449  0.0727  0.0393  0.0851
  758MOL0     C 2233   7.778   0.403   6.447  0.1932  0.7244 -0.3310
  758MOL0     C 2234   7.690   0.303   6.530  0.4611  0.2691 -0.2336
  758MOL0     C 2235   7.547   0.354   6.531 -0.6874 -0.3159 -0.3499
  758MOL0     C 2236   7.466   0.260   6.617  0.3023  0.5407 -0.3982
  758MOL0     C 2237   7.352   0.336   6.688 -0.3207 -0.5479 -0.7439
  758MOL0     C 2238   7.245   0.384   6.597 -0.1169  1.0795 -0.1872
  758MOL0     C 2239   7.104   0.388   6.667 -0.7353 -1.0329  0.0085
  758MOL0    Cl 2240   6.986   0.483   6.564  0.1347 -0.5039  0.2527
  758MOL0     C 2241   8.207   0.268   6.428  0.5179  0.2939 -0.2564
  758MOL0     C 2242   8.333   0.199   6.433  0.4573 -0.4314  0.2857
  758MOL0     O 2243   8.496  -0.014   6.171  0.1958  0.0273  0.2949
  758MOL0     C 2244   8.704  -0.206   6.282  0.2658  0.5975 -0.6736
  758MOL0     C 2245   8.832  -0.264   6.295  0.6092 -0.6803 -0.0542
  758MOL0     N 2246   9.691  -0.067   6.200  0.6929 -1.1367  0.2580
  758MOL0     N 2247   9.795   0.014   6.222  0.7239  0.4725 -0.5536
  758MOL0     C 2248  10.155   0.500   5.763  0.1709  0.7449 -0.7500
  758MOL0     C 2249  10.053   0.537   5.681  0.7227  0.2594 -0.3106
  758MOL0     C 2250   9.670   0.675   5.485  0.1477  0.5411 -0.2430
  758MOL0     C 2251   9.595   0.766   5.557  1.0960  0.0511  0.6544
  758MOL0     C 2252   9.481   0.837   5.506  1.0020  1.4497 -0.1548
  758MOL0     C 2253   9.443   0.801   5.377  0.6134  0.2932  0.2176
  758MOL0     O 2254   9.332   0.865   5.325  0.3193 -0.3475 -0.2157
  758MOL0     C 2255   9.283   0.842   5.193 -0.8047 -0.3259  0.6530
  758MOL0     C 2256   9.385   0.906   5.087  0.2805  0.6179  0.3762
  758MOL0     C 2257   9.394   1.057   5.100 -0.9672 -0.0448  0.4801
  758MOL0     C 2258   9.478   1.123   4.987  0.0136 -0.4720  1.0328
  758MOL0     C 2259   9.610   1.074   4.953 -0.4388  0.7636 -0.4611
  758MOL0     C 2260   9.717   1.031   4.916  0.6291  0.4430  0.5180
  758MOL0     C 2261   9.505   0.696   5.310 -0.7082  0.6171  0.4658
  758MOL0     C 2262   9.622   0.635   5.358  0.5636  0.7793  0.2387
  758MOL0     H 2263   9.799   0.582   5.900  0.0028 -1.3464  0.6755
  758MOL0     H 2264   9.998   0.511   6.062 -2.3334  0.5502  0.6915
  758MOL0     H 2265  10.319   0.308   5.879  1.6028 -1.7932  2.8144
  758MOL0     H 2266  10.406   0.450   5.876 -0.5358 -2.6640 -3.9941
  758MOL0     H 2267  10.514   0.291   6.019 -0.6618  0.2144  0.0819
  758MOL0     H 2268  10.460   0.411   6.139  1.9421 -1.5873  1.1533
  758MOL0     H 2269  10.418   0.235   6.237  0.7627  0.1401 -0.3877
  758MOL0     H 2270  10.257   0.281   6.181  0.4414  0.2692 -0.2193
  758MOL0     H 2271  10.270   0.111   5.999  0.4062  0.6508 -1.3974
  758MOL0     H 2272  10.435   0.078   6.030 -0.5680  1.2973 -2.4304
  758MOL0     H 2273  10.303  -0.096   6.138  0.4527  0.0456  0.4062
  758MOL0     H 2274  10.346  -0.013   6.275 -3.7003 -2.3879  3.7473
  758MOL0     H 2275  10.126   0.138   6.227  2.0394  1.5453 -0.2550
  758MOL0     H 2276  10.084   0.002   6.111  2.5366 -1.7833 -0.7735
  758MOL0     H 2277  10.088  -0.151   6.300  0.8057  1.1307 -0.5641
  758MOL0     H 2278  10.177  -0.036   6.404  0.5026 -0.8832  1.4496
  758MOL0     H 2279   9.977   0.122   6.391  2.4777  0.1833  3.5355
  758MOL0     H 2280   9.984  -0.010   6.494  2.4360  1.8070  0.0058
  758MOL0     H 2281   9.769  -0.175   6.498 -3.1142  1.5518  1.5121
  758MOL0     H 2282   9.522  -0.305   6.246 -1.4600  2.1062 -0.6068
  758MOL0     H 2283   9.551  -0.293   6.426  0.0219  2.7925  2.3452
  758MOL0     H 2284   9.412  -0.081   6.265  0.6346 -1.8430 -3.4385
  758MOL0     H 2285   9.417  -0.113   6.446 -3.6625 -0.4293  0.5590
  758MOL0     H 2286   9.312  -0.332   6.393  0.5534  1.8220  1.9528
  758MOL0     H 2287   9.268  -0.263   6.238 -1.1277 -0.2540  0.4085
  758MOL0     H 2288   9.175  -0.063   6.363 -2.3979 -0.2275  1.4354
  758MOL0     H 2289   9.197  -0.164   6.507  0.6512 -0.6819  0.6041
  758MOL0     H 2290   8.982   0.022   6.429  2.7103 -2.1389  0.6009
  758MOL0     H 2291   8.671   0.192   6.394 -1.4824 -1.3265  3.8520
  758MOL0     H 2292   8.793   0.159   6.512 -2.4210  0.6388  1.0404
  758MOL0     H 2293   8.842   0.207   6.346 -0.5929  1.9109  1.6807
  758MOL0     H 2294   8.243  -0.100   6.290  1.6199  0.9683 -3.8211
  758MOL0     H 2295   8.020   0.012   6.308  1.1047 -0.4942 -0.9003
  758MOL0     H 2296   7.962   0.351   6.552  0.2415 -1.1056 -0.0544
  758MOL0     H 2297   7.985   0.445   6.414 -0.6229  0.7133  0.5238
  758MOL0     H 2298   7.772   0.500   6.497  0.1460  0.3918  0.3212
  758MOL0     H 2299   7.749   0.404   6.342  3.1243  0.0576 -1.2395
  758MOL0     H 2300   7.736   0.307   6.630  2.9466 -0.8850 -1.2429
  758MOL0     H 2301   7.701   0.202   6.490  0.8020  0.7374 -1.3668
  758MOL0     H 2302   7.546   0.449   6.585  1.6452 -0.8736  0.7847
  758MOL0     H 2303   7.510   0.365   6.428  0.5120  0.5979 -0.7032
  758MOL0     H 2304   7.534   0.220   6.693 -2.6990 -1.0777  1.6357
  758MOL0     H 2305   7.435   0.178   6.551 -1.5910  0.6649  0.2637
  758MOL0     H 2306   7.309   0.261   6.756  1.2596 -0.3982  0.4950
  758MOL0     H 2307   7.382   0.408   6.764 -1.8644 -1.3207  0.6779
  758MOL0     H 2308   7.243   0.317   6.510  1.7437 -0.9702  1.2370
  758MOL0     H 2309   7.256   0.485   6.557  2.1482  1.5240  1.3700
  758MOL0     H 2310   7.109   0.443   6.762 -3.1803  0.7174 -0.7701
  758MOL0     H 2311   7.073   0.288   6.698 -0.8649 -1.0174 -0.0718
  758MOL0     H 2312   8.182   0.368   6.461 -0.3592  0.0723 -0.2486
  758MOL0     H 2313   8.416   0.259   6.470 -1.3204  2.0252  0.5254
  758MOL0     H 2314   8.630  -0.272   6.239  0.5540  0.3207 -0.7464
  758MOL0     H 2315   8.850  -0.366   6.264  0.1220 -0.6943 -0.2949
  758MOL0     H 2316  10.258   0.502   5.729  0.1388  0.4865 -0.8609
  758MOL0     H 2317  10.081   0.542   5.577 -1.1154  3.0093 -0.7790
  758MOL0     H 2318   9.625   0.778   5.661 -1.4636 -2.4502  1.8236
  758MOL0     H 2319   9.424   0.907   5.566  0.1676  0.4060  0.3041
  758MOL0     H 2320   9.260   0.737   5.173 -0.2015 -0.1200 -1.3012
  758MOL0     H 2321   9.188   0.895   5.188 -2.5908 -3.4308 -0.6488
  758MOL0     H 2322   9.347   0.885   4.987  0.3756 -2.0020  0.8194
  758MOL0     H 2323   9.488   0.869   5.088  0.0400 -0.1148  1.7501
  758MOL0     H 2324   9.440   1.076   5.197  1.4991 -1.9989 -0.1951
  758MOL0     H 2325   9.295   1.104   5.099 -1.5577 -1.1964  1.7522
  758MOL0     H 2326   9.481   1.228   5.018 -2.6440 -0.5229  1.6994
  758MOL0     H 2327   9.421   1.125   4.894  2.5035  3.3424 -0.6645
  758MOL0     H 2328   9.814   1.005   4.879  0.3923  0.6756 -0.2874
  758MOL0     H 2329   9.463   0.660   5.217  2.9383 -1.5802 -0.5232
  758MOL0     H 2330   9.678   0.556   5.309  1.2859  1.0085  0.6775
  759MOL0     O 2331   3.291   5.760   9.177 -0.1678 -0.5733  0.1796
  759MOL0     C 2332   3.366   5.753   9.078  0.9960 -0.1901 -0.3920
  759MOL0     O 2333   3.318   5.733   8.949 -0.4693  0.0873  0.1401
  759MOL0     C 2334   3.188   5.727   8.931  0.5417 -0.4108 -0.1639
  759MOL0     C 2335   3.114   5.610   8.904 -0.4483  0.0671 -0.7634
  759MOL0     C 2336   2.979   5.625   8.877  0.2183  0.6011 -0.2847
  759MOL0     C 2337   2.910   5.753   8.895 -0.4414  0.6144  0.4640
  759MOL0     O 2338   2.782   5.777   8.853 -0.1437 -0.0538 -0.2097
  759MOL0     C 2339   2.693   5.665   8.859  1.0358  0.1728 -0.0709
  759MOL0     C 2340   2.553   5.723   8.879 -0.2665  0.0703  0.9802
  759MOL0     C 2341   2.444   5.617   8.848 -0.4863  0.9046 -0.1559
  759MOL0     C 2342   2.301   5.675   8.863  0.1901  0.4445  0.2187
  759MOL0     C 2343   2.192   5.573   8.863 -0.1595 -0.3979 -0.2386
  759MOL0     C 2344   2.058   5.642   8.848  1.3015  0.9384 -0.6768
  759MOL0     C 2345   1.998   5.704   8.978 -0.0418 -0.7865 -0.6995
  759MOL0     C 2346   1.878   5.794   8.947  1.1949  0.1632 -1.0663
  759MOL0     N 2347   1.763   5.733   8.875  0.3057 -0.2084 -0.6341
  759MOL0     C 2348   1.665   5.808   8.811 -0.3120 -1.0521 -0.6932
  759MOL0     C 2349   1.608   5.723   8.727  0.4358 -0.1684 -1.0095
  759MOL0     C 2350   1.536   5.769   8.597 -1.3376  0.7069 -0.0715
  759MOL0     C 2351   1.411   5.685   8.562 -0.5596 -0.1212 -0.7904
  759MOL0     C 2352   1.314   5.647   8.676  0.3528  0.3298  0.8276
  759MOL0     C 2353   1.184   5.576   8.616 -1.2873  0.1098 -0.2291
  759MOL0     O 2354   1.094   5.617   8.713  1.0858  0.1093  0.0950
  759MOL0     C 2355   0.971   5.559   8.694  0.1982 -0.3668  0.2007
  759MOL0     C 2356   0.860   5.643   8.731  0.3059  0.8163  0.0555
  759MOL0     C 2357   0.725   5.599   8.706 -0.5698  0.1375  0.4393
  759MOL0     C 2358   0.610   5.687   8.772 -0.5552  0.2307 -0.0490
  759MOL0     C 2359   0.698   5.473   8.633 -0.3743  0.3677 -0.4245
  759MOL0     C 2360   0.570   5.446   8.565 -0.1064 -0.1059 -0.2430
  759MOL0     O 2361   0.472   5.545   8.556 -0.1782 -0.7504 -0.0076
  759MOL0     C 2362   0.344   5.500   8.533 -0.7510  0.6954  0.2199
  759MOL0     C 2363   0.255   5.436   8.621 -0.3023  0.4270 -0.4669
  759MOL0     C 2364   0.128   5.406   8.588  0.5470 -0.3709 -0.6398
  759MOL0     C 2365   0.077   5.435   8.468 -0.0143 -0.1414 -0.2802
  759MOL0     O 2366  -0.056   5.428   8.452  0.6467  0.5157 -0.1216
  759MOL0     C 2367  -0.112   5.406   8.322  0.2036  0.5608  0.9093
  759MOL0     C 2368  -0.070   5.279   8.247  0.0479  0.4817 -0.3413
  759MOL0     C 2369  -0.107   5.295   8.096 -0.9389 -0.4200  0.0769
  759MOL0     C 2370  -0.019   5.404   8.019 -0.2059  0.3308  0.1204
  759MOL0     C 2371   0.128   5.358   8.011  0.1695  0.3422 -0.4373
  759MOL0     C 2372   0.228   5.440   7.922 -0.3445  0.8226  1.0191
  759MOL0     C 2373   0.371   5.396   7.948  0.1708 -0.7830 -0.0020
  759MOL0     C 2374   0.472   5.464   7.843  0.0887  0.7432  0.2598
  759MOL0    Cl 2375   0.638   5.416   7.873  0.4421  0.2688  0.0697
  759MOL0     C 2376   0.165   5.498   8.375  0.2608  0.5597 -0.8563
  759MOL0     C 2377   0.302   5.531   8.405  0.5575 -0.0912 -0.3099
  759MOL0     O 2378   0.555   5.333   8.535  1.2554 -0.0205  0.1173
  759MOL0     C 2379   0.814   5.393   8.610  0.2512  0.3360  0.1359
  759MOL0     C 2380   0.945   5.433   8.650  0.5740  0.5708 -0.5948
  759MOL0     N 2381   1.633   5.595   8.775 -0.8685 -0.2710 -0.0632
  759MOL0     N 2382   1.728   5.600   8.859 -0.1304 -0.6659 -0.5244
  759MOL0     C 2383   2.980   5.858   8.942 -0.0219 -0.0118  0.5473
  759MOL0     C 2384   3.113   5.850   8.961 -1.8142  0.8603  0.2729
  759MOL0     C 2385   3.514   5.772   9.100 -0.0274  0.3957  1.0904
  759MOL0     C 2386   3.604   5.768   8.990  0.1294 -1.0133  0.1632
  759MOL0     C 2387   3.737   5.766   9.021 -0.3540 -0.1774  0.1225
  759MOL0     C 2388   3.790   5.768   9.152 -0.0154  0.6303 -0.2748
  759MOL0     O 2389   3.924   5.791   9.158 -0.6473 -0.0843 -0.5324
  759MOL0     C 2390   3.991   5.756   9.281  1.0529 -0.0467  0.1356
  759MOL0     C 2391   4.128   5.721   9.230 -0.6226  0.2617 -0.8552
  759MOL0     C 2392   4.198   5.824   9.142  0.9496  0.0821  0.2386
  759MOL0     C 2393   4.322   5.776   9.071 -0.0533  0.2167  0.2834
  759MOL0     C 2394   4.283   5.683   8.961 -1.2743  0.4394  0.0398
  759MOL0     C 2395   4.263   5.604   8.873 -0.4725 -0.2860 -0.4154
  759MOL0     C 2396   3.698   5.776   9.257 -0.0123 -0.2209  0.0689
  759MOL0     C 2397   3.567   5.785   9.233 -0.1570  0.1588 -0.6376
  759MOL0     H 2398   3.159   5.512   8.897  0.9990  0.5902  0.4794
  759MOL0     H 2399   2.930   5.538   8.833 -0.6285  1.5829 -1.3373
  759MOL0     H 2400   2.695   5.611   8.765 -2.0923  0.2673 -0.3185
  759MOL0     H 2401   2.721   5.597   8.940  0.3601 -0.4055 -0.3077
  759MOL0     H 2402   2.547   5.761   8.982  1.5438 -1.5714  1.7686
  759MOL0     H 2403   2.535   5.805   8.809  2.3449  0.3413  0.5591
  759MOL0     H 2404   2.467   5.583   8.747  3.6842 -1.2868  1.2702
  759MOL0     H 2405   2.456   5.536   8.921 -1.0875  0.2618 -0.7599
  759MOL0     H 2406   2.294   5.725   8.960  0.5490  0.3884  0.2763
  759MOL0     H 2407   2.288   5.761   8.797  1.9949 -0.2031 -1.0673
  759MOL0     H 2408   2.198   5.506   8.777 -2.9602 -2.4584  1.0333
  759MOL0     H 2409   2.188   5.518   8.957 -0.3076  3.3331  2.1420
  759MOL0     H 2410   2.067   5.716   8.769  0.7272  1.8317  0.0790
  759MOL0     H 2411   1.982   5.569   8.815  1.0748 -0.3830  2.3755
  759MOL0     H 2412   1.968   5.624   9.045 -0.6099 -0.9269 -1.1145
  759MOL0     H 2413   2.064   5.771   9.034  0.1212  0.2695 -2.0763
  759MOL0     H 2414   1.908   5.884   8.891 -0.9520  0.7234 -1.4042
  759MOL0     H 2415   1.833   5.831   9.039 -0.5436 -3.1244 -0.4778
  759MOL0     H 2416   1.664   5.915   8.792 -1.2119 -0.8385  0.4227
  759MOL0     H 2417   1.508   5.873   8.616 -1.6839  0.4226  1.0656
  759MOL0     H 2418   1.605   5.757   8.513 -0.7350  0.3240  0.4661
  759MOL0     H 2419   1.437   5.592   8.511  1.3494  0.0416 -0.2085
  759MOL0     H 2420   1.361   5.745   8.485  0.7145 -0.1481 -1.6636
  759MOL0     H 2421   1.293   5.743   8.725 -0.4985  1.3502 -1.3925
  759MOL0     H 2422   1.355   5.580   8.752  0.4132 -0.7755 -0.1511
  759MOL0     H 2423   1.215   5.473   8.635  2.2833  1.0414 -0.2931
  759MOL0     H 2424   1.159   5.600   8.513 -1.0010 -2.3438 -0.9224
  759MOL0     H 2425   0.881   5.735   8.785  1.5632  0.0685  0.8704
  759MOL0     H 2426   0.568   5.753   8.697  3.6488  1.4506 -1.6547
  759MOL0     H 2427   0.525   5.624   8.801 -0.9128  1.3670  1.4805
  759MOL0     H 2428   0.650   5.745   8.856 -1.8308  0.9914  0.0418
  759MOL0     H 2429   0.285   5.418   8.724 -1.7240  0.9606  0.0712
  759MOL0     H 2430   0.063   5.377   8.670  2.0340  2.2158  1.6555
  759MOL0     H 2431  -0.222   5.412   8.326  0.1612  1.1850 -0.5705
  759MOL0     H 2432  -0.085   5.498   8.268 -1.7148  3.9941  5.1896
  759MOL0     H 2433   0.034   5.247   8.256 -0.3164 -1.0189 -1.0999
  759MOL0     H 2434  -0.130   5.195   8.282  1.2193 -0.3850 -0.3628
  759MOL0     H 2435  -0.212   5.314   8.070 -0.2957  0.4606 -2.1249
  759MOL0     H 2436  -0.085   5.199   8.047 -1.0480 -1.1231  1.3584
  759MOL0     H 2437  -0.066   5.422   7.923 -0.9684 -3.1671 -0.2947
  759MOL0     H 2438  -0.024   5.502   8.068 -0.1157 -0.1059  1.0307
  759MOL0     H 2439   0.144   5.254   7.982  2.2916  0.9400 -1.6558
  759MOL0     H 2440   0.178   5.358   8.108  2.4840  3.3415 -1.4640
  759MOL0     H 2441   0.194   5.420   7.821  0.8579 -1.3288  0.9625
  759MOL0     H 2442   0.224   5.548   7.937  1.2448  1.2842 -1.3205
  759MOL0     H 2443   0.367   5.288   7.931 -0.3353 -0.7368 -0.1996
  759MOL0     H 2444   0.389   5.423   8.053 -0.5737  3.4959 -0.7972
  759MOL0     H 2445   0.471   5.574   7.844 -2.4873  0.7883 -0.8050
  759MOL0     H 2446   0.447   5.423   7.745  2.7286 -0.2902 -0.0726
  759MOL0     H 2447   0.126   5.515   8.275 -0.3206  0.0462 -0.7233
  759MOL0     H 2448   0.369   5.572   8.330  0.0480 -0.9811 -1.2733
  759MOL0     H 2449   0.815   5.302   8.551  0.7553  0.7861 -0.5728
  759MOL0     H 2450   1.028   5.367   8.626  1.8236  1.4078  1.2157
  759MOL0     H 2451   2.934   5.955   8.958  1.3587  0.5125  1.5024
  759MOL0     H 2452   3.171   5.932   9.003 -0.7277  0.0318  0.4162
  759MOL0     H 2453   3.563   5.764   8.889  0.9523  1.7666 -0.3627
  759MOL0     H 2454   3.805   5.779   8.937  0.2980 -1.0365  0.5043
  759MOL0     H 2455   3.979   5.851   9.334  4.1840  1.0759 -0.9091
  759MOL0     H 2456   3.943   5.668   9.324  0.2844  0.0060 -0.5931
  759MOL0     H 2457   4.127   5.628   9.173  1.3564  2.0204 -4.0412
  759MOL0     H 2458   4.195   5.693   9.312 -1.8262 -2.9607 -0.7965
  759MOL0     H 2459   4.224   5.904   9.213 -1.8056  0.5355  0.8518
  759MOL0     H 2460   4.131   5.868   9.068  0.7828 -0.0386  0.3193
  759MOL0     H 2461   4.391   5.735   9.144 -0.1966  1.2947  1.0493
  759MOL0     H 2462   4.371   5.865   9.030 -1.3159  0.3345 -1.0800
  759MOL0     H 2463   4.252   5.537   8.790  1.7176 -0.0094 -0.9931
  759MOL0     H 2464   3.740   5.786   9.357  1.6223 -1.5565 -0.4355
  759MOL0     H 2465   3.494   5.787   9.314 -1.4485 -0.0149 -1.7734
  760MOL0     O 2466  11.167   6.257   9.244 -0.6524 -0.0109  0.0157
  760MOL0     C 2467  11.206   6.367   9.273 -0.1510  1.1330  0.3361
  760MOL0     O 2468  11.132   6.480   9.278  1.0669 -0.1210 -0.8153
  760MOL0     C 2469  11.000   6.457   9.254 -0.5096 -0.2481  0.1159
  760MOL0     C 2470  10.912   6.503   9.346  0.6770  0.1604  0.1166
  760MOL0     C 2471  10.766   6.484   9.335 -1.1642 -0.1291  0.2469
  760MOL0     C 2472  10.717   6.401   9.234 -0.4434  0.3450  0.6934
  760MOL0     O 2473  10.576   6.376   9.217 -0.3138 -0.0680  1.1532
  760MOL0     C 2474  10.475   6.433   9.309  0.4848  0.0197 -0.4521
  760MOL0     C 2475  10.345   6.405   9.248 -1.4139 -0.1371 -0.0576
  760MOL0     C 2476  10.211   6.462   9.300 -0.0897 -0.5175 -0.2084
  760MOL0     C 2477  10.092   6.356   9.274 -0.1410  0.0186 -0.7926
  760MOL0     C 2478   9.962   6.437   9.295  0.5684 -0.6640  0.2008
  760MOL0     C 2479   9.934   6.476   9.440 -0.6321  0.0018  0.3118
  760MOL0     C 2480   9.784   6.525   9.457 -0.4628  0.1316  1.1443
  760MOL0     C 2481   9.760   6.645   9.364  0.3792  0.2620  0.3147
  760MOL0     N 2482   9.623   6.684   9.381 -0.1968  0.1657 -0.9154
  760MOL0     C 2483   9.573   6.778   9.475  0.0246 -0.2573 -0.2158
  760MOL0     C 2484   9.444   6.789   9.463  0.1422  0.8858 -0.1596
  760MOL0     C 2485   9.355   6.874   9.552  0.4642  0.2492  0.3871
  760MOL0     C 2486   9.205   6.860   9.515 -1.1232  1.3938  0.0160
  760MOL0     C 2487   9.112   6.937   9.612  0.6232  0.8588 -0.9924
  760MOL0     C 2488   8.968   6.904   9.581 -0.5080  0.3781 -0.1779
  760MOL0     O 2489   8.880   6.999   9.636  0.2259 -0.6412  0.2103
  760MOL0     C 2490   8.745   6.996   9.608 -0.5796  0.3450  0.9302
  760MOL0     C 2491   8.664   7.087   9.673 -0.4127  0.0792 -0.0771
  760MOL0     C 2492   8.528   7.099   9.648  1.1980  0.6249  0.3678
  760MOL0     C 2493   8.450   7.216   9.701  0.6911 -0.0961  0.7149
  760MOL0     C 2494   8.464   6.988   9.590  0.7795 -0.1056  0.2410
  760MOL0     C 2495   8.315   6.970   9.573  0.4290  0.4190 -0.1793
  760MOL0     O 2496   8.266   6.865   9.492  0.0576  0.5963 -0.8606
  760MOL0     C 2497   8.138   6.819   9.501  0.8564 -0.7286  0.4810
  760MOL0     C 2498   8.081   6.808   9.375  0.5182 -0.1449 -0.5527
  760MOL0     C 2499   7.949   6.765   9.362  0.5979  0.1439  0.8186
  760MOL0     C 2500   7.869   6.739   9.481  0.1346 -0.9408 -0.2741
  760MOL0     O 2501   7.735   6.703   9.464 -0.4366 -0.1515 -0.4308
  760MOL0     C 2502   7.632   6.784   9.396 -1.2360  0.0683 -0.6170
  760MOL0     C 2503   7.544   6.869   9.489 -0.2645 -0.3864  0.1859
  760MOL0     C 2504   7.496   6.793   9.618  0.1549 -0.3322  0.7094
  760MOL0     C 2505   7.372   6.875   9.682  0.2597  0.2129  1.1665
  760MOL0     C 2506   7.322   6.846   9.818 -0.6577 -0.5983  0.2166
  760MOL0     C 2507   7.265   6.704   9.821  0.2727  0.0330 -0.0934
  760MOL0     C 2508   7.104   6.720   9.817 -0.1844  0.1819  0.5379
  760MOL0     C 2509   7.060   6.762   9.677  0.3374  0.2856 -0.0396
  760MOL0    Cl 2510   6.887   6.726   9.661 -0.1767  0.2163 -0.1596
  760MOL0     C 2511   7.935   6.746   9.605  0.1096  0.2764  0.0328
  760MOL0     C 2512   8.065   6.785   9.616 -0.1373 -0.1788  0.4299
  760MOL0     O 2513   8.242   7.038   9.643  0.3850 -0.9808 -0.0969
  760MOL0     C 2514   8.539   6.886   9.533  0.2066  0.1619  0.5092
  760MOL0     C 2515   8.682   6.892   9.529 -0.2475  0.5746  0.0290
  760MOL0     N 2516   9.405   6.698   9.366  0.3274 -0.4439  0.4356
  760MOL0     N 2517   9.509   6.631   9.329 -0.9112 -0.2348 -0.5257
  760MOL0     C 2518  10.802   6.363   9.132  0.6949  0.5673 -0.4739
  760MOL0     C 2519  10.939   6.383   9.149 -0.3885 -0.0713 -0.2563
  760MOL0     C 2520  11.353   6.387   9.300  0.0432  0.2497  0.3905
  760MOL0     C 2521  11.399   6.516   9.313  0.5067  0.1207 -0.7135
  760MOL0     C 2522  11.533   6.541   9.308 -0.6754 -0.7958  0.0538
  760MOL0     C 2523  11.624   6.441   9.292 -0.6564  0.3403  0.1954
  760MOL0     O 2524  11.757   6.457   9.282 -0.2472  0.0160  0.4088
  760MOL0     C 2525  11.796   6.576   9.214 -0.1771  0.7508 -0.1124
  760MOL0     C 2526  11.921   6.560   9.128 -0.1203  0.9439  0.2384
  760MOL0     C 2527  11.894   6.506   8.987 -0.7210  0.3194 -0.3796
  760MOL0     C 2528  12.019   6.452   8.917 -0.2693  0.0835  0.5976
  760MOL0     C 2529  12.114   6.554   8.884 -0.7090 -0.1777 -0.5158
  760MOL0     C 2530  12.181   6.650   8.844 -0.3178 -0.4374 -0.0805
  760MOL0     C 2531  11.584   6.307   9.301 -0.1142  0.1152 -0.1025
  760MOL0     C 2532  11.445   6.282   9.300 -0.2495  0.3308 -0.8644
  760MOL0     H 2533  10.952   6.552   9.434 -2.4035 -2.7303  3.4072
  760MOL0     H 2534  10.707   6.531   9.413  1.5689  2.7133  0.7926
  760MOL0     H 2535  10.485   6.381   9.404  0.6143  1.1564  0.1797
  760MOL0     H 2536  10.488   6.539   9.336  3.2655 -0.6603  1.3331
  760MOL0     H 2537  10.357   6.438   9.144 -0.3831 -1.6593 -0.4731
  760MOL0     H 2538  10.338   6.295   9.246 -1.9735 -0.1098  0.3434
  760MOL0     H 2539  10.224   6.468   9.408 -0.6399  2.6027 -0.2328
  760MOL0     H 2540  10.195   6.563   9.261  1.0905 -0.0631  0.4193
  760MOL0     H 2541  10.097   6.321   9.170  1.5036  1.9250 -1.4206
  760MOL0     H 2542  10.105   6.281   9.352  2.1143  0.8807 -0.2521
  760MOL0     H 2543   9.960   6.528   9.233  0.4524  1.0514  2.5734
  760MOL0     H 2544   9.883   6.368   9.265  0.1353  0.2124 -0.7265
  760MOL0     H 2545   9.932   6.388   9.505 -2.7601  0.5742  1.1042
  760MOL0     H 2546  10.012   6.546   9.471  0.5769 -0.8250 -0.7623
  760MOL0     H 2547   9.712   6.447   9.434 -0.5380  0.5928 -0.3202
  760MOL0     H 2548   9.767   6.554   9.561 -0.1157 -1.3619  1.6416
  760MOL0     H 2549   9.776   6.609   9.262 -1.4427 -1.1900  0.4928
  760MOL0     H 2550   9.823   6.731   9.390  0.4153  0.4388 -0.3279
  760MOL0     H 2551   9.637   6.844   9.533  0.7469  0.4978 -1.8096
  760MOL0     H 2552   9.379   6.839   9.653 -0.5689 -0.4964  0.3875
  760MOL0     H 2553   9.387   6.978   9.538  0.3001  0.2842  0.2708
  760MOL0     H 2554   9.182   6.753   9.522 -0.7491  1.3084 -0.0697
  760MOL0     H 2555   9.188   6.892   9.412  1.0386 -0.7722 -1.0903
  760MOL0     H 2556   9.124   7.046   9.621  1.4181  0.8408 -1.7414
  760MOL0     H 2557   9.132   6.895   9.711 -0.0408  2.0016 -0.3554
  760MOL0     H 2558   8.945   6.802   9.615 -1.8143  0.9019  0.5894
  760MOL0     H 2559   8.945   6.923   9.476  1.8509  0.5310 -0.7081
  760MOL0     H 2560   8.716   7.158   9.737  0.8389 -2.0716  1.3848
  760MOL0     H 2561   8.378   7.253   9.628 -1.0464 -0.1550  2.3119
  760MOL0     H 2562   8.400   7.183   9.793  1.3836 -2.2399  0.3735
  760MOL0     H 2563   8.514   7.303   9.715  0.1632  0.4368 -0.0978
  760MOL0     H 2564   8.145   6.823   9.288 -0.3752  1.3997 -0.9739
  760MOL0     H 2565   7.909   6.752   9.262  0.7677 -2.5708  1.0382
  760MOL0     H 2566   7.676   6.855   9.325 -2.5963  0.0385 -1.5331
  760MOL0     H 2567   7.562   6.722   9.338 -2.0261  2.0087 -1.8439
  760MOL0     H 2568   7.597   6.962   9.513 -2.6975  1.2032 -0.3088
  760MOL0     H 2569   7.456   6.899   9.431 -0.4248 -0.6190  0.3099
  760MOL0     H 2570   7.571   6.785   9.697 -1.2706 -1.4943  2.0366
  760MOL0     H 2571   7.468   6.689   9.599  2.5107 -1.0392  0.8162
  760MOL0     H 2572   7.398   6.981   9.686  1.6372  0.1341 -2.1802
  760MOL0     H 2573   7.293   6.858   9.608 -0.2048 -2.1472  2.1121
  760MOL0     H 2574   7.252   6.917   9.864 -0.1890 -0.1184  0.2007
  760MOL0     H 2575   7.413   6.853   9.878  0.8489  0.3098 -2.0234
  760MOL0     H 2576   7.282   6.647   9.729 -1.6185  0.5907 -0.8447
  760MOL0     H 2577   7.301   6.645   9.906  2.0253  3.4448  1.7436
  760MOL0     H 2578   7.070   6.792   9.892  0.0348  3.3080 -2.1450
  760MOL0     H 2579   7.056   6.629   9.856  1.0378  0.5036  3.0144
  760MOL0     H 2580   7.116   6.705   9.602 -0.2643  0.8878 -0.9619
  760MOL0     H 2581   7.082   6.868   9.664  1.3470 -0.2320 -3.3581
  760MOL0     H 2582   7.890   6.718   9.700  2.2186  1.6446  1.5391
  760MOL0     H 2583   8.100   6.800   9.718 -1.0859 -2.0732  1.0942
  760MOL0     H 2584   8.505   6.797   9.482  1.2643  0.3600 -0.5898
  760MOL0     H 2585   8.738   6.814   9.478  0.9598 -0.7647  3.1803
  760MOL0     H 2586  10.760   6.317   9.043 -0.3441 -0.4735  0.5177
  760MOL0     H 2587  10.999   6.338   9.071 -0.1965  0.4659 -0.4240
  760MOL0     H 2588  11.343   6.608   9.297  2.1530  0.7112 -3.9381
  760MOL0     H 2589  11.562   6.646   9.302  3.7182 -1.9011 -2.1240
  760MOL0     H 2590  11.710   6.611   9.157 -1.4773  0.8043  1.7804
  760MOL0     H 2591  11.813   6.657   9.285 -2.2789  0.9500  0.2316
  760MOL0     H 2592  11.993   6.502   9.186 -3.4161 -0.5304  3.2995
  760MOL0     H 2593  11.971   6.658   9.130  0.0321  0.8766  1.8901
  760MOL0     H 2594  11.857   6.588   8.924 -0.6300 -1.8190 -3.4317
  760MOL0     H 2595  11.816   6.431   9.002 -2.2559  2.4929  4.5171
  760MOL0     H 2596  11.999   6.393   8.827 -0.2523  0.7559  0.1474
  760MOL0     H 2597  12.067   6.386   8.990 -0.5514 -1.5176 -0.6225
  760MOL0     H 2598  12.230   6.741   8.814 -0.8833  0.4831  1.7023
  760MOL0     H 2599  11.657   6.226   9.300  2.6590  2.3944  1.1683
  760MOL0     H 2600  11.414   6.178   9.291  1.0906 -0.1765  0.1151
  761MOL0     O 2601   5.272   5.521   4.276 -0.0459 -0.3373  0.4442
  761MOL0     C 2602   5.258   5.618   4.347 -0.2106 -0.6620 -0.0839
  761MOL0     O 2603   5.150   5.699   4.362  1.0263  0.0988  0.0490
  761MOL0     C 2604   5.045   5.659   4.285  0.4137  0.0422  0.5397
  761MOL0     C 2605   5.038   5.671   4.140 -0.3528  0.4080 -0.3137
  761MOL0     C 2606   4.940   5.622   4.067  0.4834 -0.2028  0.1206
  761MOL0     C 2607   4.831   5.569   4.135 -0.3476  0.1739 -0.2395
  761MOL0     O 2608   4.718   5.534   4.067  0.5452 -0.4148 -0.1166
  761MOL0     C 2609   4.597   5.541   4.134 -1.4366  0.0235  0.3651
  761MOL0     C 2610   4.486   5.526   4.031  0.1064 -0.7293  0.2084
  761MOL0     C 2611   4.342   5.537   4.099  0.1218  0.3203  1.1358
  761MOL0     C 2612   4.223   5.543   3.999 -0.1622  0.1650 -0.6720
  761MOL0     C 2613   4.097   5.518   4.079 -0.0747 -0.2570 -0.2112
  761MOL0     C 2614   3.984   5.515   3.973 -0.1012  1.0661 -0.3831
  761MOL0     C 2615   3.849   5.473   4.021 -0.2254 -0.0720  1.2608
  761MOL0     C 2616   3.791   5.560   4.134 -0.1533 -0.0544  0.4175
  761MOL0     N 2617   3.651   5.555   4.141  0.0891 -0.9656 -0.0034
  761MOL0     C 2618   3.565   5.554   4.034  0.1738  0.5756  0.4126
  761MOL0     C 2619   3.442   5.549   4.082 -1.0178  0.0043  0.7578
  761MOL0     C 2620   3.319   5.549   4.003  0.6048  0.2584  0.1641
  761MOL0     C 2621   3.251   5.678   4.020  0.7022 -0.1162  0.7751
  761MOL0     C 2622   3.328   5.794   3.943 -0.2844  0.3641 -0.2213
  761MOL0     C 2623   3.255   5.925   3.970  0.1155  0.5464  0.3557
  761MOL0     O 2624   3.324   6.026   3.899  0.0087  0.1034 -0.3603
  761MOL0     C 2625   3.268   6.154   3.899  0.2409  0.4511 -1.5698
  761MOL0     C 2626   3.134   6.190   3.903 -0.3950 -0.1752  0.3118
  761MOL0     C 2627   3.087   6.322   3.913 -0.5017  0.0763 -0.1141
  761MOL0     C 2628   2.942   6.337   3.915  0.8487 -0.6224 -0.0538
  761MOL0     C 2629   3.184   6.425   3.927  0.5358 -0.1451 -0.5834
  761MOL0     C 2630   3.150   6.569   3.943  0.2563 -0.7936 -0.1273
  761MOL0     O 2631   3.040   6.601   4.014  0.1863 -0.1653  0.3836
  761MOL0     C 2632   3.007   6.736   4.021 -0.2229  0.1670  0.3246
  761MOL0     C 2633   2.902   6.782   3.940  0.3291 -0.8374 -0.0939
  761MOL0     C 2634   2.855   6.913   3.942  0.5821 -0.1798 -0.3222
  761MOL0     C 2635   2.914   7.004   4.025 -0.3662 -0.3564  0.0174
  761MOL0     O 2636   2.846   7.128   4.039  0.0294  0.3561  0.5396
  761MOL0     C 2637   2.821   7.177   4.171 -0.4447  0.0933  0.3186
  761MOL0     C 2638   2.667   7.175   4.200 -1.3615  0.1860  0.4370
  761MOL0     C 2639   2.598   7.043   4.170 -0.1307 -0.1016  0.7829
  761MOL0     C 2640   2.465   7.048   4.245  0.2084 -0.4812  0.2890
  761MOL0     C 2641   2.379   6.920   4.265  0.3912 -0.4671 -0.5276
  761MOL0     C 2642   2.260   6.973   4.347 -0.2317 -1.9295 -0.4094
  761MOL0     C 2643   2.159   6.872   4.364 -0.3015  0.1915 -0.8930
  761MOL0     C 2644   2.030   6.931   4.422  0.4220  0.5331  0.5093
  761MOL0    Cl 2645   1.888   6.818   4.412 -0.2878  0.1772  0.0567
  761MOL0     C 2646   3.026   6.969   4.101  0.5798 -0.5117  0.2581
  761MOL0     C 2647   3.065   6.835   4.106 -0.0935  0.5979  0.0940
  761MOL0     O 2648   3.226   6.648   3.891  0.9697  0.2426  0.2478
  761MOL0     C 2649   3.316   6.390   3.906  0.6720  0.4806  0.1231
  761MOL0     C 2650   3.357   6.254   3.892  0.0538  0.5405 -0.3811
  761MOL0     N 2651   3.453   5.542   4.219 -0.5506 -0.3973  0.8219
  761MOL0     N 2652   3.577   5.543   4.255 -0.2632 -0.1811  0.0420
  761MOL0     C 2653   4.833   5.560   4.278  0.9631 -0.0405  0.1825
  761MOL0     C 2654   4.936   5.605   4.356 -0.4983 -0.8522  0.1818
  761MOL0     C 2655   5.376   5.670   4.423  0.1216  0.1767  0.3733
  761MOL0     C 2656   5.485   5.585   4.458 -0.0972  0.4404 -0.2295
  761MOL0     C 2657   5.597   5.640   4.504 -0.3071  0.3025  0.1636
  761MOL0     C 2658   5.613   5.778   4.536 -0.2860 -0.2693  0.3339
  761MOL0     O 2659   5.727   5.849   4.567 -0.4293  0.6558 -0.0407
  761MOL0     C 2660   5.842   5.786   4.612  0.2159  0.5381 -0.0447
  761MOL0     C 2661   5.962   5.870   4.635 -0.1310  0.2174  0.2812
  761MOL0     C 2662   5.925   5.996   4.722 -0.5070  0.1827 -0.3196
  761MOL0     C 2663   5.934   5.976   4.874  0.9270 -0.1185 -0.5627
  761MOL0     C 2664   5.836   6.051   4.952  0.0106  0.1572 -0.2066
  761MOL0     C 2665   5.750   6.110   5.014 -0.4726 -0.0760 -0.2957
  761MOL0     C 2666   5.498   5.855   4.516  0.7761 -0.1711 -0.8439
  761MOL0     C 2667   5.383   5.806   4.456 -0.4456  0.5632 -0.3712
  761MOL0     H 2668   5.116   5.721   4.084  0.8591  0.2490  1.1765
  761MOL0     H 2669   4.944   5.623   3.959  3.0580  3.8052  0.0665
  761MOL0     H 2670   4.584   5.458   4.204  3.1255 -1.9122 -0.6810
  761MOL0     H 2671   4.587   5.642   4.174 -0.5834  0.7092 -1.0549
  761MOL0     H 2672   4.497   5.607   3.958  1.2522 -0.3729  0.7652
  761MOL0     H 2673   4.496   5.431   3.978 -1.5955 -0.2824 -1.0457
  761MOL0     H 2674   4.330   5.439   4.147  1.5446  1.1507  3.3542
  761MOL0     H 2675   4.341   5.617   4.174 -0.1418 -0.7405  2.3113
  761MOL0     H 2676   4.220   5.641   3.950 -1.8406  0.5949  0.2070
  761MOL0     H 2677   4.223   5.461   3.928 -1.8659 -0.3653 -0.0949
  761MOL0     H 2678   4.102   5.427   4.139  1.1132 -0.8780 -1.2179
  761MOL0     H 2679   4.072   5.603   4.143 -0.9812 -1.1102  0.6059
  761MOL0     H 2680   3.966   5.618   3.939 -0.9723  0.7903 -0.7853
  761MOL0     H 2681   3.998   5.461   3.879 -4.4631  2.6935 -2.2386
  761MOL0     H 2682   3.780   5.481   3.936 -0.2128  0.5372  1.3067
  761MOL0     H 2683   3.847   5.367   4.047  0.5197 -0.5471 -0.4410
  761MOL0     H 2684   3.832   5.661   4.132 -2.1903  0.8267  0.7979
  761MOL0     H 2685   3.820   5.505   4.224 -1.4117 -0.7260  0.4394
  761MOL0     H 2686   3.585   5.568   3.928 -2.4196  0.4380 -0.1719
  761MOL0     H 2687   3.339   5.531   3.897 -0.2093  0.9542 -0.1227
  761MOL0     H 2688   3.255   5.465   4.032 -0.0281  1.0540  1.1700
  761MOL0     H 2689   3.237   5.699   4.127 -1.3173  0.9280  0.3644
  761MOL0     H 2690   3.152   5.684   3.973  0.3416  3.3272  1.6748
  761MOL0     H 2691   3.310   5.774   3.837 -2.1051 -0.9202  0.2788
  761MOL0     H 2692   3.434   5.810   3.967 -0.5153  2.3625 -0.4161
  761MOL0     H 2693   3.248   5.946   4.077  0.1257 -0.1132  0.4961
  761MOL0     H 2694   3.154   5.914   3.930 -0.1601  2.4325  0.4407
  761MOL0     H 2695   3.055   6.116   3.911 -1.5712  1.2274  3.0807
  761MOL0     H 2696   2.897   6.329   4.014 -0.9566  0.1680 -0.7815
  761MOL0     H 2697   2.916   6.431   3.866  2.2922 -1.1794 -2.0214
  761MOL0     H 2698   2.898   6.258   3.853  2.7501 -1.1905 -0.7755
  761MOL0     H 2699   2.851   6.707   3.881  1.2264 -2.0462  0.6154
  761MOL0     H 2700   2.766   6.936   3.883  1.1742 -2.9723 -2.4874
  761MOL0     H 2701   2.864   7.113   4.248  1.2668  1.4532  0.5496
  761MOL0     H 2702   2.852   7.282   4.179 -0.7139  0.5593 -3.2733
  761MOL0     H 2703   2.657   7.216   4.301  0.0489  1.0683  0.2388
  761MOL0     H 2704   2.618   7.253   4.142 -1.1342  0.6064  0.8010
  761MOL0     H 2705   2.663   6.963   4.207  1.0404  0.1179 -0.6873
  761MOL0     H 2706   2.585   7.016   4.065  0.5005 -0.9577  0.9129
  761MOL0     H 2707   2.493   7.085   4.344 -1.0893  1.4564 -0.0101
  761MOL0     H 2708   2.397   7.122   4.201 -1.7950 -0.1221  3.6747
  761MOL0     H 2709   2.426   6.851   4.336  0.0230  0.2734  0.4640
  761MOL0     H 2710   2.348   6.879   4.168 -1.6872  2.2424 -1.1433
  761MOL0     H 2711   2.302   7.012   4.441 -0.4410 -1.1430 -0.6377
  761MOL0     H 2712   2.227   7.047   4.273  1.2862 -2.3519 -1.5565
  761MOL0     H 2713   2.196   6.795   4.433 -1.4091  2.3293  2.3196
  761MOL0     H 2714   2.141   6.832   4.264  0.8118 -2.7876  0.0004
  761MOL0     H 2715   2.001   7.027   4.378 -1.2171 -0.8341 -1.5644
  761MOL0     H 2716   2.042   6.958   4.527 -0.6881  0.3896  0.6931
  761MOL0     H 2717   3.072   7.051   4.154  0.7924 -0.8709  0.6337
  761MOL0     H 2718   3.153   6.807   4.163  0.4388  0.8104 -0.6006
  761MOL0     H 2719   3.387   6.472   3.907 -1.8312  2.7882  1.4657
  761MOL0     H 2720   3.464   6.236   3.886  0.1446  0.7242  0.5659
  761MOL0     H 2721   4.744   5.521   4.326  0.8078 -2.4815 -1.8610
  761MOL0     H 2722   4.945   5.611   4.464  3.6680  0.9192 -0.0717
  761MOL0     H 2723   5.495   5.477   4.446 -0.5398 -0.0503  2.8823
  761MOL0     H 2724   5.687   5.580   4.509  1.2406  2.5077  0.3069
  761MOL0     H 2725   5.823   5.731   4.704  0.7001  0.1970 -0.1458
  761MOL0     H 2726   5.869   5.711   4.537 -1.5028  0.3757 -0.5284
  761MOL0     H 2727   5.994   5.906   4.537  1.0621  0.3257  0.7025
  761MOL0     H 2728   6.050   5.820   4.675 -0.6328 -0.5040  0.5075
  761MOL0     H 2729   5.820   6.014   4.697 -0.7665 -3.0269 -2.0759
  761MOL0     H 2730   5.994   6.077   4.699 -0.9741  0.5947 -0.2793
  761MOL0     H 2731   6.034   6.005   4.905  0.9419 -1.3558  0.6198
  761MOL0     H 2732   5.921   5.870   4.899  1.6304 -0.9740 -3.4015
  761MOL0     H 2733   5.673   6.158   5.071  0.6358 -1.5880  2.6721
  761MOL0     H 2734   5.513   5.956   4.553  2.2676 -0.9855  0.9668
  761MOL0     H 2735   5.305   5.876   4.427 -0.2196  0.8291 -0.3378
  762MOL0     O 2736   8.565   2.859   7.520 -0.4511  0.2264 -0.0516
  762MOL0     C 2737   8.509   2.813   7.614  0.7696  0.2105  0.3882
  762MOL0     O 2738   8.376   2.835   7.638 -0.9745  0.4679  0.0501
  762MOL0     C 2739   8.287   2.905   7.545 -0.9752  0.8406  0.4533
  762MOL0     C 2740   8.329   3.026   7.473  0.8421  0.3350 -0.3856
  762MOL0     C 2741   8.238   3.086   7.386  0.0236 -0.7311  0.3555
  762MOL0     C 2742   8.108   3.039   7.365 -0.7511 -0.1336 -0.5861
  762MOL0     O 2743   8.027   3.118   7.291 -0.4502 -0.4125 -0.8766
  762MOL0     C 2744   7.906   3.070   7.226  0.2416  0.0625 -0.2708
  762MOL0     C 2745   7.787   3.093   7.312  0.9853 -0.1948 -0.1246
  762MOL0     C 2746   7.658   3.076   7.239 -0.0380 -0.1561 -0.3780
  762MOL0     C 2747   7.602   3.211   7.177  0.2159 -0.1258  0.5308
  762MOL0     C 2748   7.477   3.197   7.083  0.7033  0.9149 -0.0301
  762MOL0     C 2749   7.333   3.189   7.144 -0.1969 -0.1263  0.2820
  762MOL0     C 2750   7.304   3.329   7.203 -1.1590 -0.1333  0.0232
  762MOL0     C 2751   7.157   3.334   7.254 -0.1260 -0.0841  0.3943
  762MOL0     N 2752   7.053   3.278   7.165  0.0247 -0.0434  0.8072
  762MOL0     C 2753   6.979   3.358   7.074 -0.6064  0.5235 -0.0816
  762MOL0     C 2754   6.879   3.274   7.038  0.3432  0.4351  0.7949
  762MOL0     C 2755   6.777   3.322   6.944 -0.4703 -0.5377  0.3917
  762MOL0     C 2756   6.684   3.423   7.002 -0.3075  0.6397 -0.1808
  762MOL0     C 2757   6.604   3.489   6.892 -0.5425  0.7871 -0.0451
  762MOL0     C 2758   6.506   3.578   6.952 -0.1634 -0.1441 -0.2089
  762MOL0     O 2759   6.402   3.591   6.856  0.7065  0.0192 -0.2062
  762MOL0     C 2760   6.292   3.506   6.856 -0.5051  0.1718 -0.3152
  762MOL0     C 2761   6.204   3.545   6.755 -0.3302  0.5538  0.4405
  762MOL0     C 2762   6.092   3.463   6.728  0.0596 -0.0946  0.6476
  762MOL0     C 2763   6.003   3.495   6.601 -0.9267 -0.5747 -0.7120
  762MOL0     C 2764   6.063   3.355   6.816 -0.6553  0.9368 -0.6617
  762MOL0     C 2765   5.939   3.276   6.808 -0.4769  0.0259  0.0881
  762MOL0     O 2766   5.932   3.168   6.893  1.0204 -0.4180  0.8671
  762MOL0     C 2767   5.807   3.116   6.899 -0.9233 -0.2732 -1.1257
  762MOL0     C 2768   5.722   3.174   6.992  0.5783  0.4759 -0.8039
  762MOL0     C 2769   5.591   3.130   6.999 -0.7332  0.6756  0.1797
  762MOL0     C 2770   5.552   3.014   6.928  0.6252  0.7013 -0.2495
  762MOL0     O 2771   5.422   2.978   6.929  0.0390  0.4962  0.2920
  762MOL0     C 2772   5.342   3.023   6.820  0.9233  0.5577  0.3768
  762MOL0     C 2773   5.204   2.960   6.853 -0.0019 -0.3627 -0.0295
  762MOL0     C 2774   5.200   2.806   6.854  0.6178  0.1841  0.0474
  762MOL0     C 2775   5.058   2.757   6.888 -0.4332  0.3420  0.0936
  762MOL0     C 2776   5.059   2.603   6.872 -0.7550 -0.8288  0.1568
  762MOL0     C 2777   4.917   2.545   6.846 -0.0820  0.2266  0.1747
  762MOL0     C 2778   4.920   2.393   6.846 -0.0272 -0.0396 -0.1203
  762MOL0     C 2779   4.781   2.344   6.792  0.7562 -0.2955 -0.1150
  762MOL0    Cl 2780   4.647   2.382   6.900  0.0046 -0.6910  0.1456
  762MOL0     C 2781   5.637   2.951   6.842  0.1522  0.2276 -0.3494
  762MOL0     C 2782   5.766   3.004   6.824  0.2531  0.1645 -0.2165
  762MOL0     O 2783   5.853   3.291   6.720  0.2559  0.2362  0.4596
  762MOL0     C 2784   6.156   3.323   6.920  0.5501 -0.5075 -0.1186
  762MOL0     C 2785   6.276   3.392   6.934 -0.4585 -0.5502 -0.8055
  762MOL0     N 2786   6.878   3.157   7.112  0.5499 -0.0906 -0.1744
  762MOL0     N 2787   6.985   3.163   7.184  0.6254  0.8336 -0.1068
  762MOL0     C 2788   8.064   2.925   7.433  0.2654  0.3346  0.8746
  762MOL0     C 2789   8.154   2.856   7.519  0.9038  0.9216  0.3046
  762MOL0     C 2790   8.585   2.764   7.736  0.7915 -0.2797 -0.4600
  762MOL0     C 2791   8.725   2.779   7.740  0.1882 -1.1673  0.4394
  762MOL0     C 2792   8.799   2.720   7.842 -0.4282 -0.1676  0.3490
  762MOL0     C 2793   8.734   2.659   7.952  0.6066  0.1719  0.1678
  762MOL0     O 2794   8.800   2.605   8.060 -0.4024 -0.0119  0.8172
  762MOL0     C 2795   8.939   2.592   8.066 -0.3386 -0.7633  0.1895
  762MOL0     C 2796   8.978   2.459   8.004 -0.0682  0.3766 -0.2489
  762MOL0     C 2797   8.949   2.341   8.096  0.3620 -0.4226 -0.1368
  762MOL0     C 2798   8.911   2.228   8.003  0.8254  0.1586  0.3739
  762MOL0     C 2799   8.882   2.106   8.078 -0.3979  0.0545 -0.1517
  762MOL0     C 2800   8.870   1.996   8.135 -0.3634 -0.2709  0.1697
  762MOL0     C 2801   8.591   2.659   7.954  0.3464 -0.1201 -0.0797
  762MOL0     C 2802   8.519   2.713   7.848 -0.2216  0.8479  0.5347
  762MOL0     H 2803   8.421   3.069   7.510  0.6658 -0.3414  0.8889
  762MOL0     H 2804   8.261   3.185   7.349 -1.3691 -0.7689 -0.7199
  762MOL0     H 2805   7.886   3.111   7.126 -0.7930 -1.1777 -0.5948
  762MOL0     H 2806   7.908   2.964   7.201 -0.3454 -0.8774  3.1792
  762MOL0     H 2807   7.792   3.045   7.411 -0.5482 -1.1586 -0.4952
  762MOL0     H 2808   7.788   3.197   7.345 -3.7180 -0.3864  1.2946
  762MOL0     H 2809   7.668   3.014   7.149 -1.0452  1.5622 -1.7242
  762MOL0     H 2810   7.572   3.037   7.295  1.3595 -0.0748  1.9316
  762MOL0     H 2811   7.592   3.282   7.259 -0.0350 -0.5677  0.8906
  762MOL0     H 2812   7.687   3.253   7.123  0.7424  1.7082  2.6750
  762MOL0     H 2813   7.470   3.278   7.010  2.9014  2.1696  1.0539
  762MOL0     H 2814   7.507   3.106   7.031  2.6103  2.1926 -1.3332
  762MOL0     H 2815   7.257   3.164   7.069  0.8714 -3.0056  0.0379
  762MOL0     H 2816   7.332   3.113   7.222 -2.2814 -2.4024 -1.7864
  762MOL0     H 2817   7.363   3.334   7.295 -1.1526  0.7474 -0.0155
  762MOL0     H 2818   7.336   3.414   7.141  2.5186 -1.6475 -0.4482
  762MOL0     H 2819   7.133   3.433   7.293  1.1299 -0.0898  1.2297
  762MOL0     H 2820   7.173   3.273   7.343  0.6117 -0.0796  0.2741
  762MOL0     H 2821   7.015   3.454   7.037  3.3308 -1.8261 -3.1212
  762MOL0     H 2822   6.836   3.385   6.877 -0.1131  0.8742  1.9838
  762MOL0     H 2823   6.736   3.234   6.893  2.0722 -2.1046  0.8712
  762MOL0     H 2824   6.748   3.491   7.059 -1.5527  2.6108 -1.0396
  762MOL0     H 2825   6.625   3.357   7.066  2.0649 -2.6757 -1.1190
  762MOL0     H 2826   6.555   3.402   6.846 -0.4186  0.8917 -0.3753
  762MOL0     H 2827   6.665   3.541   6.818  0.1631  0.2016  0.1110
  762MOL0     H 2828   6.556   3.675   6.960 -0.8739  0.4109 -1.9414
  762MOL0     H 2829   6.467   3.543   7.048  0.0324 -0.8010 -0.3633
  762MOL0     H 2830   6.234   3.628   6.692 -1.0405 -0.4832 -1.3244
  762MOL0     H 2831   6.005   3.409   6.535 -0.0669 -0.4915 -0.8013
  762MOL0     H 2832   5.899   3.516   6.629 -1.2262 -0.5138 -1.8151
  762MOL0     H 2833   6.044   3.580   6.545  1.4796 -0.8609  0.4742
  762MOL0     H 2834   5.741   3.253   7.063 -2.4972  1.0994 -0.5054
  762MOL0     H 2835   5.525   3.180   7.069 -1.9197 -1.4903  0.6828
  762MOL0     H 2836   5.345   3.132   6.817  4.3013  0.5519 -0.0736
  762MOL0     H 2837   5.368   2.981   6.722 -0.1536  1.0505 -0.1457
  762MOL0     H 2838   5.166   3.008   6.943 -0.4974  1.6691 -1.2551
  762MOL0     H 2839   5.132   2.989   6.775 -0.6137 -1.9299 -0.0761
  762MOL0     H 2840   5.258   2.768   6.938 -0.0721 -0.6242  0.1706
  762MOL0     H 2841   5.244   2.765   6.762 -0.8175  1.9461 -1.5104
  762MOL0     H 2842   5.041   2.773   6.995  0.5043  1.6066  0.0764
  762MOL0     H 2843   4.983   2.800   6.821 -0.7032  0.2484  0.3317
  762MOL0     H 2844   5.105   2.557   6.960  0.2935 -2.4604 -1.1927
  762MOL0     H 2845   5.125   2.566   6.794  0.8288 -1.4506  1.7232
  762MOL0     H 2846   4.845   2.577   6.922  0.6635  1.0863  0.5351
  762MOL0     H 2847   4.880   2.585   6.751  0.8164  1.5191  0.3541
  762MOL0     H 2848   4.936   2.352   6.947  1.7942 -3.2705 -1.5507
  762MOL0     H 2849   4.999   2.352   6.782  0.2732  0.6249 -0.1862
  762MOL0     H 2850   4.773   2.235   6.783 -2.5319 -0.1042 -0.4207
  762MOL0     H 2851   4.771   2.388   6.692  0.6520  1.2813  0.5755
  762MOL0     H 2852   5.605   2.868   6.780  2.1900  0.1197 -1.3179
  762MOL0     H 2853   5.823   2.958   6.744  2.6540 -0.5489  1.7569
  762MOL0     H 2854   6.144   3.235   6.981 -0.4611 -0.7903 -0.6939
  762MOL0     H 2855   6.341   3.359   7.015 -1.5067 -1.6449 -0.3805
  762MOL0     H 2856   7.962   2.892   7.415  0.2262  0.3037  1.1530
  762MOL0     H 2857   8.121   2.768   7.572  2.8691  0.1492  0.3261
  762MOL0     H 2858   8.775   2.840   7.665  0.3985 -0.9667  0.7391
  762MOL0     H 2859   8.906   2.733   7.842 -0.4855  0.3761 -0.2559
  762MOL0     H 2860   8.993   2.676   8.022  1.0648  0.3934  3.8427
  762MOL0     H 2861   8.977   2.601   8.168 -1.0043  1.6681  0.2804
  762MOL0     H 2862   9.083   2.445   7.979 -0.7586 -0.2279 -3.2140
  762MOL0     H 2863   8.940   2.451   7.901 -2.6978 -0.8043  0.7268
  762MOL0     H 2864   8.854   2.358   8.147  0.0039  0.7936 -1.1420
  762MOL0     H 2865   9.030   2.317   8.165 -0.6106 -4.5689 -0.1956
  762MOL0     H 2866   8.999   2.199   7.945 -0.1249  0.8442 -1.4932
  762MOL0     H 2867   8.826   2.258   7.941  0.0995 -1.0507  0.7456
  762MOL0     H 2868   8.852   1.896   8.168 -0.5064 -0.6163 -0.9326
  762MOL0     H 2869   8.535   2.630   8.042  0.6006  0.9397  0.4434
  762MOL0     H 2870   8.411   2.723   7.849 -0.5076 -1.4349 -0.7952
  763MOL0     O 2871   5.132   5.107   9.135  0.7340 -0.0145  0.1485
  763MOL0     C 2872   5.162   5.021   9.221  0.7008 -1.0926  0.6685
  763MOL0     O 2873   5.098   4.904   9.240  1.0839  0.7922  0.0066
  763MOL0     C 2874   4.967   4.884   9.215  0.4150 -0.7225 -0.8538
  763MOL0     C 2875   4.923   4.750   9.201 -0.5136 -0.4811 -0.1394
  763MOL0     C 2876   4.787   4.714   9.191 -0.4164 -0.2691  0.6797
  763MOL0     C 2877   4.692   4.819   9.188 -0.5603 -0.9733  1.1369
  763MOL0     O 2878   4.554   4.810   9.190  0.5955 -0.5612  0.3002
  763MOL0     C 2879   4.502   4.688   9.136  0.2684 -0.7433 -0.1361
  763MOL0     C 2880   4.351   4.704   9.118 -0.2849  0.4422 -0.3581
  763MOL0     C 2881   4.276   4.779   9.234 -0.2290 -0.0000 -0.4648
  763MOL0     C 2882   4.125   4.784   9.191 -0.9197  0.4968  0.0408
  763MOL0     C 2883   4.050   4.880   9.288  0.3802  0.7555 -0.0205
  763MOL0     C 2884   3.895   4.884   9.252 -0.1304 -0.1418 -0.1981
  763MOL0     C 2885   3.827   4.997   9.337  0.1893  0.3147 -0.2847
  763MOL0     C 2886   3.671   4.987   9.339  0.7004  0.3673 -0.0452
  763MOL0     N 2887   3.611   4.907   9.446 -0.0142  0.0775 -0.1618
  763MOL0     C 2888   3.552   4.959   9.559 -0.8175  0.3007 -0.3466
  763MOL0     C 2889   3.540   4.849   9.631  0.0978 -0.7008  0.1424
  763MOL0     C 2890   3.491   4.862   9.776  0.6558  0.0425  0.0589
  763MOL0     C 2891   3.345   4.911   9.789  0.5796  0.1844 -0.0097
  763MOL0     C 2892   3.336   5.047   9.857 -0.3509 -0.5636  0.6636
  763MOL0     C 2893   3.193   5.096   9.892 -0.0145  0.7416 -0.0768
  763MOL0     O 2894   3.100   4.987   9.885 -0.5679 -0.2299 -1.0972
  763MOL0     C 2895   2.965   5.007   9.919 -0.1828 -0.1816  0.3924
  763MOL0     C 2896   2.919   5.118   9.992 -0.0564  0.2639  0.0844
  763MOL0     C 2897   2.786   5.140  10.006 -0.0214  0.8337 -0.2119
  763MOL0     C 2898   2.751   5.266  10.071 -0.1577 -1.0505 -1.4407
  763MOL0     C 2899   2.697   5.034   9.986 -0.1377  0.5405 -0.4467
  763MOL0     C 2900   2.556   5.018  10.027  0.3070 -0.2079 -0.1674
  763MOL0     O 2901   2.478   5.131  10.030 -0.3370  0.7579 -0.0197
  763MOL0     C 2902   2.359   5.119  10.098 -0.2874  0.3055 -0.0362
  763MOL0     C 2903   2.246   5.046  10.043  0.5315  0.2829 -1.3180
  763MOL0     C 2904   2.129   5.028  10.120 -0.4959  0.2798 -0.3608
  763MOL0     C 2905   2.122   5.071  10.252 -0.8007 -1.0336  0.7573
  763MOL0     O 2906   2.017   5.037  10.328  0.2238 -0.2395  0.0680
  763MOL0     C 2907   2.014   5.052  10.469  0.0570 -0.0794  0.4765
  763MOL0     C 2908   1.880   5.027  10.517 -0.4002  0.3037  0.1418
  763MOL0     C 2909   1.836   4.875  10.485  0.2088  0.1178 -0.4106
  763MOL0     C 2910   1.718   4.830  10.561 -0.4758  0.9328 -0.0209
  763MOL0     C 2911   1.593   4.909  10.537  0.6339 -0.2616 -0.3889
  763MOL0     C 2912   1.471   4.831  10.598  0.0238  0.6601 -0.3087
  763MOL0     C 2913   1.343   4.913  10.603 -0.3166  0.0141 -0.1024
  763MOL0     C 2914   1.243   4.855  10.700  0.6738  0.0581 -0.1383
  763MOL0    Cl 2915   1.093   4.946  10.703 -0.2613  0.0693  0.0900
  763MOL0     C 2916   2.231   5.153  10.298  0.8303 -0.1288  0.2667
  763MOL0     C 2917   2.346   5.172  10.223  0.4848 -0.3830 -0.2415
  763MOL0     O 2918   2.514   4.908  10.058 -0.2452  0.2794  0.1594
  763MOL0     C 2919   2.739   4.929   9.903 -0.0280  0.8664  0.1377
  763MOL0     C 2920   2.871   4.916   9.867 -0.8189 -0.5854 -0.1157
  763MOL0     N 2921   3.573   4.730   9.565 -0.2968  0.2428  0.3626
  763MOL0     N 2922   3.620   4.772   9.456  0.8676 -0.4476 -0.2715
  763MOL0     C 2923   4.733   4.948   9.199  0.7733 -0.2681 -0.5331
  763MOL0     C 2924   4.863   4.982   9.224 -0.0974  0.5231 -0.5203
  763MOL0     C 2925   5.277   5.049   9.304 -1.1878  0.3530  0.5134
  763MOL0     C 2926   5.292   5.000   9.435 -0.0821  0.5080  0.3200
  763MOL0     C 2927   5.409   5.014   9.504  0.1217 -0.1766  0.6520
  763MOL0     C 2928   5.517   5.086   9.455 -0.3837  0.3099 -0.7094
  763MOL0     O 2929   5.627   5.070   9.535 -0.6002 -0.2373  0.0649
  763MOL0     C 2930   5.748   5.140   9.494 -0.0814  0.0174 -0.7394
  763MOL0     C 2931   5.858   5.100   9.582  0.0445 -0.3968  0.4300
  763MOL0     C 2932   5.856   5.160   9.724 -0.4845  0.8837 -0.1145
  763MOL0     C 2933   5.819   5.303   9.740 -0.9234 -0.0821  0.0173
  763MOL0     C 2934   5.920   5.392   9.690 -0.2132  0.7466 -0.0107
  763MOL0     C 2935   6.007   5.455   9.631 -0.6352  0.3757 -0.6571
  763MOL0     C 2936   5.513   5.139   9.328  1.6090 -0.4001 -0.0773
  763MOL0     C 2937   5.390   5.118   9.255 -1.0908 -0.5121  0.4036
  763MOL0     H 2938   5.012   4.688   9.188 -1.0329 -0.8206 -2.5114
  763MOL0     H 2939   4.761   4.609   9.184  1.7556 -0.8148  0.0551
  763MOL0     H 2940   4.546   4.684   9.035 -0.4276  2.6381 -0.7002
  763MOL0     H 2941   4.519   4.604   9.204 -1.3842 -1.2914 -0.3758
  763MOL0     H 2942   4.343   4.771   9.031  1.9175  0.6751 -0.4422
  763MOL0     H 2943   4.309   4.608   9.086 -0.1164  0.4925 -0.7414
  763MOL0     H 2944   4.301   4.735   9.331 -0.1018 -2.4920 -1.5382
  763MOL0     H 2945   4.306   4.884   9.234  0.2834 -0.1436 -0.7203
  763MOL0     H 2946   4.106   4.820   9.089  0.0313  3.3129  0.7701
  763MOL0     H 2947   4.080   4.685   9.201  0.9364 -0.4448 -0.4854
  763MOL0     H 2948   4.079   4.857   9.391  2.9838 -2.2401 -1.2371
  763MOL0     H 2949   4.088   4.981   9.270 -0.6483  1.1078 -0.2441
  763MOL0     H 2950   3.892   4.912   9.147 -0.6185  2.9513  0.5439
  763MOL0     H 2951   3.838   4.795   9.280  0.9930 -0.2072  2.2180
  763MOL0     H 2952   3.860   5.004   9.441  0.2816 -1.1908 -0.1819
  763MOL0     H 2953   3.849   5.096   9.297  0.9832  0.0269 -0.5884
  763MOL0     H 2954   3.638   4.950   9.241 -0.5250 -0.3071  0.5989
  763MOL0     H 2955   3.630   5.088   9.347 -0.2910  0.0075 -0.3256
  763MOL0     H 2956   3.527   5.057   9.600 -0.0667  1.9762 -3.5335
  763MOL0     H 2957   3.514   4.773   9.835  0.2859  0.7238  1.2426
  763MOL0     H 2958   3.560   4.933   9.822  0.3846  0.1009  0.3786
  763MOL0     H 2959   3.297   4.833   9.849  3.4051 -1.4904  0.2741
  763MOL0     H 2960   3.300   4.918   9.689  2.4853  0.7776 -0.8868
  763MOL0     H 2961   3.373   5.127   9.792  0.8402 -2.7389 -1.5179
  763MOL0     H 2962   3.395   5.047   9.949 -0.8775 -1.7014  1.0260
  763MOL0     H 2963   3.159   5.168   9.817 -0.2835 -0.7405 -1.4407
  763MOL0     H 2964   3.199   5.148   9.988 -0.5391  0.8761 -0.1128
  763MOL0     H 2965   2.987   5.194  10.029 -1.4950 -0.0410  3.7577
  763MOL0     H 2966   2.656   5.311  10.042 -0.5747 -1.3201 -0.5145
  763MOL0     H 2967   2.733   5.244  10.176  0.9980 -0.3300 -1.0783
  763MOL0     H 2968   2.830   5.341  10.067 -1.2448  0.3982  1.7091
  763MOL0     H 2969   2.247   5.009   9.941 -0.9087  1.5577 -1.8288
  763MOL0     H 2970   2.038   4.983  10.080  0.2135 -0.0700 -1.6370
  763MOL0     H 2971   2.088   4.985  10.513  1.1378  0.5961 -0.2523
  763MOL0     H 2972   2.032   5.159  10.487  0.2862  0.0666 -0.5381
  763MOL0     H 2973   1.879   5.051  10.623 -1.1288  0.3279  0.1366
  763MOL0     H 2974   1.819   5.096  10.458 -1.8501 -0.5109  0.6372
  763MOL0     H 2975   1.916   4.809  10.521 -1.4243 -2.1555 -0.7274
  763MOL0     H 2976   1.826   4.857  10.377  0.6409  1.3946 -0.6759
  763MOL0     H 2977   1.702   4.723  10.549  0.9139  0.4692  1.8616
  763MOL0     H 2978   1.740   4.837  10.668 -2.7868  1.5969  0.4801
  763MOL0     H 2979   1.586   4.914  10.428  1.8089 -1.0530 -0.5167
  763MOL0     H 2980   1.604   5.008  10.582 -1.0637 -1.3293  2.6234
  763MOL0     H 2981   1.458   4.735  10.546 -1.0472 -0.3000  1.6216
  763MOL0     H 2982   1.491   4.809  10.703  1.0099  2.4507 -0.0850
  763MOL0     H 2983   1.296   4.911  10.504  2.5257 -0.4121 -1.5363
  763MOL0     H 2984   1.358   5.020  10.616  0.9897 -0.0043 -1.2260
  763MOL0     H 2985   1.268   4.860  10.806 -1.5745  0.6505  0.4316
  763MOL0     H 2986   1.213   4.755  10.667 -3.0190  0.7484  0.6971
  763MOL0     H 2987   2.219   5.188  10.401 -0.8246 -0.3204  0.1691
  763MOL0     H 2988   2.432   5.225  10.265  1.6363 -0.5711 -2.2335
  763MOL0     H 2989   2.674   4.844   9.884  0.2141  0.9446 -1.0941
  763MOL0     H 2990   2.896   4.825   9.812 -0.0991 -0.2751 -0.3062
  763MOL0     H 2991   4.651   5.018   9.206 -0.6868 -1.9756  0.2575
  763MOL0     H 2992   4.900   5.084   9.234  0.8764  0.4509 -2.8407
  763MOL0     H 2993   5.208   4.954   9.488 -1.9655  0.5125 -2.4424
  763MOL0     H 2994   5.412   4.975   9.605 -2.6226 -4.7014 -0.7151
  763MOL0     H 2995   5.765   5.094   9.396  0.7375 -0.8814 -0.1853
  763MOL0     H 2996   5.729   5.248   9.488 -0.5518 -0.0215 -0.0689
  763MOL0     H 2997   5.948   5.138   9.534  0.6496 -0.1907  1.6816
  763MOL0     H 2998   5.862   4.991   9.580 -0.8999 -0.4351 -1.2134
  763MOL0     H 2999   5.957   5.151   9.765  0.5866  3.7732 -1.7533
  763MOL0     H 3000   5.790   5.100   9.787 -4.7161  1.7171 -3.3328
  763MOL0     H 3001   5.799   5.320   9.846  3.1547  1.1366  0.7566
  763MOL0     H 3002   5.724   5.321   9.690 -0.4742 -0.1789 -0.8888
  763MOL0     H 3003   6.086   5.509   9.583 -0.2937 -0.5964 -1.2277
  763MOL0     H 3004   5.590   5.204   9.285  1.2916  0.1280  0.1396
  763MOL0     H 3005   5.388   5.161   9.155  0.7923 -1.4514 -0.0962
  764MOL0     O 3006   0.236  10.247   1.266 -0.4737  0.0457  0.3509
  764MOL0     C 3007   0.245  10.324   1.362  0.3223  0.0810  0.0965
  764MOL0     O 3008   0.152  10.346   1.457 -0.0234  0.5291 -0.2980
  764MOL0     C 3009   0.019  10.328   1.418 -0.8565  0.6601 -0.9395
  764MOL0     C 3010  -0.053  10.432   1.358 -0.1116 -1.4190  0.1727
  764MOL0     C 3011  -0.192  10.438   1.351 -0.4041  0.0705 -0.9211
  764MOL0     C 3012  -0.260  10.317   1.377  0.1907 -0.0392  0.4768
  764MOL0     O 3013  -0.399  10.331   1.359 -0.0976 -0.8438  0.0753
  764MOL0     C 3014  -0.479  10.219   1.412 -0.0203 -0.1125 -0.0368
  764MOL0     C 3015  -0.620  10.265   1.439 -0.2973 -0.6935 -0.7065
  764MOL0     C 3016  -0.627  10.392   1.533 -0.2892 -0.2606 -0.2079
  764MOL0     C 3017  -0.775  10.448   1.544 -0.2981 -0.3651  0.1759
  764MOL0     C 3018  -0.847  10.365   1.642  0.9318 -0.3322 -0.1097
  764MOL0     C 3019  -0.988  10.430   1.679 -0.1991  0.5299  0.9391
  764MOL0     C 3020  -1.078  10.358   1.779 -0.5036 -0.0569 -0.8766
  764MOL0     C 3021  -1.098  10.205   1.754 -0.3550  0.1163  0.3103
  764MOL0     N 3022  -1.199  10.175   1.650 -0.3853 -0.3456  0.0716
  764MOL0     C 3023  -1.330  10.118   1.662 -0.2284 -1.0724 -0.2881
  764MOL0     C 3024  -1.370  10.106   1.535  0.1858  1.1843  0.4645
  764MOL0     C 3025  -1.504  10.050   1.488 -0.4424 -0.4365 -0.2322
  764MOL0     C 3026  -1.616  10.156   1.493  0.5063  0.1793 -0.6167
  764MOL0     C 3027  -1.669  10.193   1.634 -0.1888  0.4646  0.1845
  764MOL0     C 3028  -1.800  10.267   1.626 -0.3848 -0.3706 -0.2927
  764MOL0     O 3029  -1.779  10.381   1.548 -0.1424 -0.7515  0.1682
  764MOL0     C 3030  -1.889  10.435   1.489  0.0972  0.2131 -0.5342
  764MOL0     C 3031  -1.988  10.501   1.564  0.6591 -1.0704 -0.1887
  764MOL0     C 3032  -2.105  10.543   1.504  0.2629 -0.0195 -0.5082
  764MOL0     C 3033  -2.190  10.643   1.587 -0.3341 -0.0212  1.1430
  764MOL0     C 3034  -2.132  10.516   1.369 -0.8824  0.6051 -0.3257
  764MOL0     C 3035  -2.250  10.538   1.293  0.6452 -0.6306 -0.1172
  764MOL0     O 3036  -2.230  10.557   1.158  0.0734  0.3139  0.2696
  764MOL0     C 3037  -2.346  10.586   1.087  0.1432 -0.5391 -0.4413
  764MOL0     C 3038  -2.391  10.719   1.081 -0.5318  0.0822  0.6559
  764MOL0     C 3039  -2.512  10.748   1.004 -0.4269  0.5778 -0.3230
  764MOL0     C 3040  -2.578  10.641   0.945  0.5050  0.3297  1.1358
  764MOL0     O 3041  -2.702  10.654   0.885  0.0184  0.5342  0.0104
  764MOL0     C 3042  -2.785  10.773   0.922 -0.9632  0.0312  0.3574
  764MOL0     C 3043  -2.924  10.751   0.866 -0.3684 -0.4509  0.3642
  764MOL0     C 3044  -2.997  10.886   0.856  0.3843  0.5880 -0.0987
  764MOL0     C 3045  -3.142  10.849   0.815  0.6002 -0.3107 -0.4144
  764MOL0     C 3046  -3.223  10.985   0.825  0.4379 -0.2300 -0.3771
  764MOL0     C 3047  -3.361  10.968   0.759 -0.7649  0.1044  0.0948
  764MOL0     C 3048  -3.453  11.093   0.790 -0.7877  0.3138 -0.3342
  764MOL0     C 3049  -3.535  11.065   0.907 -0.7777  0.8579  0.2544
  764MOL0    Cl 3050  -3.583  11.209   0.993 -0.1064 -0.1272 -0.1665
  764MOL0     C 3051  -2.530  10.509   0.955 -0.2493 -1.0250  0.4872
  764MOL0     C 3052  -2.415  10.478   1.036  0.3262  0.3381 -0.2432
  764MOL0     O 3053  -2.360  10.529   1.349 -0.7600 -0.9064 -0.5744
  764MOL0     C 3054  -2.036  10.440   1.304  0.7244 -0.3095  0.5864
  764MOL0     C 3055  -1.919  10.407   1.357 -0.4196 -0.3300 -0.8061
  764MOL0     N 3056  -1.272  10.149   1.446 -0.5770 -0.0072 -0.0262
  764MOL0     N 3057  -1.172  10.191   1.519  0.5692 -0.7392 -0.2186
  764MOL0     C 3058  -0.184  10.204   1.413  0.3026  0.0333 -0.0820
  764MOL0     C 3059  -0.050  10.205   1.444  0.0493 -0.8132  0.1228
  764MOL0     C 3060   0.373  10.393   1.373 -0.5055 -0.3192 -0.1685
  764MOL0     C 3061   0.388  10.512   1.446 -0.2760  0.5424  0.0549
  764MOL0     C 3062   0.505  10.584   1.463 -0.0686  0.6312  0.5765
  764MOL0     C 3063   0.628  10.538   1.407 -0.8645 -0.3824 -0.6094
  764MOL0     O 3064   0.744  10.606   1.416 -0.1474 -1.1114  0.3329
  764MOL0     C 3065   0.832  10.568   1.523 -0.1528 -0.2023 -0.6138
  764MOL0     C 3066   0.964  10.645   1.516  0.2898  0.0204  0.6868
  764MOL0     C 3067   1.092  10.583   1.580 -0.6000  0.2697  0.1968
  764MOL0     C 3068   1.135  10.451   1.519  0.8433 -0.4246 -0.9555
  764MOL0     C 3069   1.259  10.396   1.572  0.5126  0.5046  0.5511
  764MOL0     C 3070   1.355  10.333   1.606  0.3018 -0.2573 -0.0573
  764MOL0     C 3071   0.618  10.416   1.338  0.0037 -0.9932  0.3283
  764MOL0     C 3072   0.496  10.338   1.314  0.3641 -0.7630  0.1679
  764MOL0     H 3073   0.004  10.523   1.341  0.2700 -1.2961  1.9351
  764MOL0     H 3074  -0.250  10.528   1.332 -3.1205 -1.2495  0.5824
  764MOL0     H 3075  -0.491  10.142   1.335 -1.3886 -2.2091  2.1133
  764MOL0     H 3076  -0.435  10.178   1.503 -2.2939  2.4203  2.3750
  764MOL0     H 3077  -0.661  10.285   1.339  1.3408 -3.7102 -2.1276
  764MOL0     H 3078  -0.670  10.178   1.482 -1.9880 -0.3092 -1.7793
  764MOL0     H 3079  -0.583  10.364   1.629  2.4591 -2.0540 -1.8391
  764MOL0     H 3080  -0.558  10.468   1.494  0.8238 -1.0908  0.0857
  764MOL0     H 3081  -0.766  10.551   1.580  2.1487 -0.7097  0.7544
  764MOL0     H 3082  -0.823  10.451   1.446  1.1396  3.4466 -0.5766
  764MOL0     H 3083  -0.867  10.264   1.607 -1.6315  0.7254 -2.0846
  764MOL0     H 3084  -0.793  10.360   1.737  0.1643  0.0887  0.3617
  764MOL0     H 3085  -0.969  10.531   1.717  0.9970 -0.6430  3.7757
  764MOL0     H 3086  -1.042  10.421   1.585  1.4511  1.5189 -0.1497
  764MOL0     H 3087  -1.033  10.361   1.879 -1.6435 -2.9125 -0.1705
  764MOL0     H 3088  -1.175  10.405   1.796 -0.2886  0.4358 -1.0036
  764MOL0     H 3089  -1.140  10.171   1.849 -1.2808  0.7447  0.1328
  764MOL0     H 3090  -1.003  10.156   1.729 -0.8658  1.0835 -4.4523
  764MOL0     H 3091  -1.384  10.101   1.755 -1.8284 -3.0475 -1.5087
  764MOL0     H 3092  -1.489  10.018   1.384  1.0931 -0.6823  0.0392
  764MOL0     H 3093  -1.533   9.961   1.545  0.2719 -0.5705 -0.0657
  764MOL0     H 3094  -1.700  10.112   1.439  1.1450 -0.0707 -1.4279
  764MOL0     H 3095  -1.577  10.246   1.443  0.7903  0.6385  0.3988
  764MOL0     H 3096  -1.586  10.244   1.684  0.6051  0.5928 -1.2209
  764MOL0     H 3097  -1.691  10.104   1.693  0.4496  0.1777  0.0081
  764MOL0     H 3098  -1.824  10.297   1.728  0.1921  1.5164 -0.6877
  764MOL0     H 3099  -1.877  10.198   1.588 -2.0135  1.5216 -0.5925
  764MOL0     H 3100  -1.987  10.514   1.672  0.4417 -0.6790 -0.2301
  764MOL0     H 3101  -2.162  10.741   1.548  2.2434 -2.1529 -3.1766
  764MOL0     H 3102  -2.296  10.636   1.561  0.0303  0.0007 -0.5057
  764MOL0     H 3103  -2.162  10.636   1.692 -0.1896 -1.5413  1.0281
  764MOL0     H 3104  -2.333  10.795   1.131 -1.5444  1.3133  0.0449
  764MOL0     H 3105  -2.551  10.849   1.005 -1.4697  0.1962  0.8445
  764MOL0     H 3106  -2.793  10.781   1.031  2.0902 -0.5130  0.7192
  764MOL0     H 3107  -2.753  10.874   0.893  0.1595  0.4035  2.6221
  764MOL0     H 3108  -2.915  10.717   0.762 -1.2927  1.4417 -0.3813
  764MOL0     H 3109  -2.972  10.677   0.931  0.3391 -1.3422 -0.0986
  764MOL0     H 3110  -2.929  10.946   0.795  4.1617 -1.0094  2.2071
  764MOL0     H 3111  -3.001  10.931   0.956 -2.1519 -0.4565  0.3682
  764MOL0     H 3112  -3.143  10.801   0.717 -3.6376 -1.7480  0.1145
  764MOL0     H 3113  -3.179  10.776   0.888  1.6576  0.5356  1.0398
  764MOL0     H 3114  -3.174  11.076   0.791  0.9103 -0.2341  0.2606
  764MOL0     H 3115  -3.245  11.005   0.931  0.1248 -1.3041 -0.2265
  764MOL0     H 3116  -3.329  10.961   0.654 -2.9514 -1.3535 -0.5420
  764MOL0     H 3117  -3.409  10.870   0.767  1.8892 -1.2599  0.3134
  764MOL0     H 3118  -3.511  11.121   0.702  0.6003  0.5825 -1.2035
  764MOL0     H 3119  -3.396  11.185   0.808 -1.4345  0.3782  1.6694
  764MOL0     H 3120  -3.476  11.005   0.976 -0.7175 -0.0118 -0.5415
  764MOL0     H 3121  -3.622  11.005   0.880 -0.0772  1.0449 -2.7693
  764MOL0     H 3122  -2.570  10.424   0.901  1.0666  0.4258 -3.0783
  764MOL0     H 3123  -2.383  10.376   1.056 -2.3796  0.0209  3.5333
  764MOL0     H 3124  -2.050  10.401   1.203 -0.3392 -5.8349  2.5035
  764MOL0     H 3125  -1.831  10.363   1.310  0.2136  0.0791 -0.0212
  764MOL0     H 3126  -0.247  10.115   1.420 -0.6454  0.6691 -0.3370
  764MOL0     H 3127  -0.008  10.116   1.489  1.0085  0.5893  2.1532
  764MOL0     H 3128   0.301  10.559   1.492 -0.7735 -0.2032 -0.1089
  764MOL0     H 3129   0.500  10.669   1.531  3.2302  1.2420  0.2504
  764MOL0     H 3130   0.789  10.583   1.623  3.1218  0.6549  0.8086
  764MOL0     H 3131   0.842  10.460   1.510 -2.3798 -0.2692 -2.2795
  764MOL0     H 3132   0.949  10.748   1.551  0.2776 -0.1603  1.2260
  764MOL0     H 3133   0.980  10.655   1.408 -1.2980  0.5919  0.4856
  764MOL0     H 3134   1.093  10.568   1.689 -1.5751 -0.3425  0.1398
  764MOL0     H 3135   1.173  10.654   1.560  0.0432 -0.9389 -1.8257
  764MOL0     H 3136   1.154  10.462   1.412  2.2414 -1.5719 -0.8517
  764MOL0     H 3137   1.066  10.368   1.533  0.1765  0.3860  0.8060
  764MOL0     H 3138   1.440  10.274   1.633  0.3405 -0.3100 -0.2910
  764MOL0     H 3139   0.703  10.387   1.277  1.8067  0.3100  2.1187
  764MOL0     H 3140   0.492  10.253   1.247  2.0147 -1.4681  0.9290
  765MOL0     O 3141  10.614   5.091   9.055  0.0362  0.1986 -0.1112
  765MOL0     C 3142  10.511   5.155   9.038  0.2186 -0.9291  0.4896
  765MOL0     O 3143  10.502   5.288   9.052 -0.2279 -0.9462 -0.4286
  765MOL0     C 3144  10.603   5.377   9.098  0.6405  0.5808  0.3536
  765MOL0     C 3145  10.750   5.350   9.102  0.0849 -0.0044  0.3808
  765MOL0     C 3146  10.826   5.462   9.147 -0.2669 -0.4920 -0.0117
  765MOL0     C 3147  10.768   5.572   9.211  0.5409  0.7439  0.2090
  765MOL0     O 3148  10.830   5.681   9.267  0.1988  0.0076 -0.3257
  765MOL0     C 3149  10.938   5.743   9.189  0.4060  0.1816 -0.0509
  765MOL0     C 3150  11.081   5.709   9.233  0.0960  0.4821 -0.2167
  765MOL0     C 3151  11.107   5.773   9.368 -0.5427  0.0629 -0.7279
  765MOL0     C 3152  11.238   5.728   9.432  0.5471 -0.6479  0.4776
  765MOL0     C 3153  11.358   5.799   9.375  0.2335  0.8422  0.3147
  765MOL0     C 3154  11.488   5.744   9.450 -0.3661 -0.1360  0.0277
  765MOL0     C 3155  11.626   5.777   9.390  0.1063 -0.6576 -0.4947
  765MOL0     C 3156  11.749   5.718   9.465  0.3052  0.8515  0.7202
  765MOL0     N 3157  11.886   5.746   9.410  0.0407  0.4965  0.4474
  765MOL0     C 3158  11.983   5.812   9.477 -0.4960  0.0647 -0.3350
  765MOL0     C 3159  12.086   5.799   9.383 -0.7181  0.5189  0.4957
  765MOL0     C 3160  12.228   5.846   9.396 -0.1132  0.1189 -0.7053
  765MOL0     C 3161  12.284   5.858   9.535  0.7079  0.1770 -0.3269
  765MOL0     C 3162  12.289   5.729   9.610 -0.2787  0.0721  1.2536
  765MOL0     C 3163  12.322   5.758   9.754  0.5157 -0.4308 -0.5763
  765MOL0     O 3164  12.321   5.632   9.829  0.1946 -0.4902 -0.0808
  765MOL0     C 3165  12.202   5.568   9.867 -1.1685 -0.2685 -0.0566
  765MOL0     C 3166  12.075   5.621   9.842  0.1257  0.3330 -0.1540
  765MOL0     C 3167  11.953   5.563   9.890 -0.0752  0.0356 -0.2081
  765MOL0     C 3168  11.817   5.618   9.834  0.4470  0.1945  0.4384
  765MOL0     C 3169  11.967   5.442   9.962 -0.3927  0.0850 -0.2886
  765MOL0     C 3170  11.846   5.362  10.001  0.4545  1.1666 -0.5034
  765MOL0     O 3171  11.859   5.228   9.992 -0.8014  0.0899 -0.0667
  765MOL0     C 3172  11.754   5.141  10.023  0.2673 -0.1931  0.6632
  765MOL0     C 3173  11.783   5.015  10.084  0.5716  1.2142  0.3622
  765MOL0     C 3174  11.686   4.916  10.112 -0.1871  0.4868  0.0116
  765MOL0     C 3175  11.551   4.940  10.079  0.5214 -0.2636 -0.5958
  765MOL0     O 3176  11.448   4.858  10.100 -0.4057  0.3568  0.6670
  765MOL0     C 3177  11.465   4.740  10.183 -0.1763 -0.6453  0.0788
  765MOL0     C 3178  11.333   4.661  10.179  0.5385 -0.1901 -0.4725
  765MOL0     C 3179  11.219   4.739  10.236 -0.3419  0.3148  0.3530
  765MOL0     C 3180  11.099   4.639  10.262  0.0171  0.4981  0.0650
  765MOL0     C 3181  10.971   4.703  10.316  0.0317  0.0508 -0.2004
  765MOL0     C 3182  10.862   4.604  10.337  0.7174  1.1007 -0.2029
  765MOL0     C 3183  10.727   4.650  10.402 -0.4050  0.1557  0.3168
  765MOL0     C 3184  10.632   4.746  10.328  0.8007 -0.0722 -0.0043
  765MOL0    Cl 3185  10.684   4.913  10.359 -0.0673 -0.6233  0.2196
  765MOL0     C 3186  11.522   5.071  10.031 -0.5881  0.3932  0.7461
  765MOL0     C 3187  11.621   5.167  10.006  0.1268  0.0005  0.2899
  765MOL0     O 3188  11.743   5.417  10.048 -0.0794  0.3219  0.3663
  765MOL0     C 3189  12.090   5.391   9.986 -0.3617  0.0247  0.9704
  765MOL0     C 3190  12.209   5.457   9.950 -0.0412 -0.6436 -0.3195
  765MOL0     N 3191  12.054   5.729   9.274 -0.4423  0.1717 -0.1385
  765MOL0     N 3192  11.929   5.707   9.286  0.1882  0.1316 -0.4180
  765MOL0     C 3193  10.629   5.585   9.211 -0.2469  0.0151  0.3796
  765MOL0     C 3194  10.553   5.495   9.140  0.6953  0.3241  0.3317
  765MOL0     C 3195  10.393   5.086   8.981 -0.9300 -0.3367  0.4202
  765MOL0     C 3196  10.265   5.140   9.003 -0.8339 -0.4874 -0.4183
  765MOL0     C 3197  10.155   5.067   8.961  0.6461  0.1018  0.0543
  765MOL0     C 3198  10.165   4.944   8.885  0.0960 -0.1940  0.2159
  765MOL0     O 3199  10.042   4.885   8.851 -0.8892 -0.1635  0.0794
  765MOL0     C 3200  10.048   4.770   8.763 -0.1075 -0.2365  0.6678
  765MOL0     C 3201   9.918   4.761   8.681  0.5792 -0.3463 -0.3686
  765MOL0     C 3202   9.802   4.741   8.786  0.6284  0.4894 -0.2362
  765MOL0     C 3203   9.670   4.712   8.725 -0.2531  0.8936  0.0860
  765MOL0     C 3204   9.624   4.836   8.670  0.5172 -0.6688 -0.3410
  765MOL0     C 3205   9.587   4.940   8.626 -0.0138 -0.4996 -0.1264
  765MOL0     C 3206  10.298   4.899   8.855 -0.4595 -0.5644  0.1638
  765MOL0     C 3207  10.406   4.964   8.909  0.3341 -0.0399  0.0243
  765MOL0     H 3208  10.783   5.257   9.057 -1.3632 -0.4574  0.2061
  765MOL0     H 3209  10.934   5.464   9.153 -0.1377  2.0195 -1.7109
  765MOL0     H 3210  10.929   5.712   9.084  0.3913  0.5231 -0.1505
  765MOL0     H 3211  10.935   5.851   9.201 -0.6592  0.5811 -3.1189
  765MOL0     H 3212  11.081   5.599   9.233  0.8634  0.2991 -4.1410
  765MOL0     H 3213  11.160   5.731   9.160  1.1824 -3.9644 -0.7179
  765MOL0     H 3214  11.116   5.880   9.346 -1.3717 -0.1817 -2.4352
  765MOL0     H 3215  11.026   5.747   9.436  0.1667 -2.0007 -0.6249
  765MOL0     H 3216  11.224   5.763   9.535 -0.5249  0.3433  0.0180
  765MOL0     H 3217  11.244   5.619   9.422  3.5159 -0.4818 -0.6058
  765MOL0     H 3218  11.383   5.780   9.270  2.1427  1.0158  0.7011
  765MOL0     H 3219  11.340   5.907   9.376  1.1307  1.0909 -2.1875
  765MOL0     H 3220  11.489   5.774   9.555  2.2853 -1.2772  0.4339
  765MOL0     H 3221  11.483   5.635   9.452  0.0505 -0.1668  2.9281
  765MOL0     H 3222  11.633   5.757   9.283 -0.3591  0.6622 -0.7891
  765MOL0     H 3223  11.633   5.886   9.387  0.3440 -0.6893 -1.2756
  765MOL0     H 3224  11.744   5.609   9.467 -1.6465  0.8777 -0.3798
  765MOL0     H 3225  11.735   5.752   9.568  2.2605  3.4513  0.2323
  765MOL0     H 3226  11.981   5.858   9.576  1.5580  2.5916 -1.3419
  765MOL0     H 3227  12.290   5.777   9.337  0.6965  0.9078 -0.8007
  765MOL0     H 3228  12.234   5.946   9.353 -0.8860  0.8721  0.8887
  765MOL0     H 3229  12.225   5.933   9.590  0.9421  0.2904 -0.2309
  765MOL0     H 3230  12.385   5.898   9.523  1.5731 -1.4455  1.1405
  765MOL0     H 3231  12.365   5.665   9.566  0.3886  1.4645  0.3090
  765MOL0     H 3232  12.199   5.668   9.601  0.9488 -2.2146  3.3164
  765MOL0     H 3233  12.251   5.830   9.796 -0.2835  0.4358 -3.1976
  765MOL0     H 3234  12.421   5.805   9.767 -1.3896  3.7697  0.6311
  765MOL0     H 3235  12.063   5.713   9.785  4.7014  0.7715 -0.7833
  765MOL0     H 3236  11.834   5.698   9.762  2.0119 -1.1164 -0.7084
  765MOL0     H 3237  11.764   5.538   9.781 -1.9514  1.7273  0.3550
  765MOL0     H 3238  11.757   5.659   9.916  0.5939  0.1884  0.5484
  765MOL0     H 3239  11.883   4.989  10.118 -0.9161 -1.0164  3.6658
  765MOL0     H 3240  11.723   4.823  10.154  0.8333  1.3771  1.1373
  765MOL0     H 3241  11.535   4.667  10.142  2.6646  0.7972  2.0359
  765MOL0     H 3242  11.492   4.771  10.285 -0.4192  0.1742 -0.0922
  765MOL0     H 3243  11.304   4.632  10.078  1.1485  0.8960 -0.9696
  765MOL0     H 3244  11.361   4.569  10.233 -0.1128 -0.3762 -0.4461
  765MOL0     H 3245  11.184   4.813  10.163  0.3645  2.2105  1.8413
  765MOL0     H 3246  11.243   4.777  10.336 -0.5638 -0.2849  0.6399
  765MOL0     H 3247  11.074   4.593  10.166  0.5010  1.1218 -0.3642
  765MOL0     H 3248  11.130   4.566  10.338 -2.2708 -1.3683 -0.6757
  765MOL0     H 3249  10.951   4.784  10.245  1.4236 -2.0960 -3.2564
  765MOL0     H 3250  11.004   4.740  10.413  0.7649  1.0448 -0.8071
  765MOL0     H 3251  10.841   4.556  10.241  2.6572  1.3274 -0.7758
  765MOL0     H 3252  10.906   4.523  10.395  0.8579 -1.0907 -3.1203
  765MOL0     H 3253  10.739   4.680  10.507 -1.7281  0.4084  0.4108
  765MOL0     H 3254  10.663   4.562  10.410 -1.5277  0.8512 -0.7646
  765MOL0     H 3255  10.527   4.730  10.356  0.5644 -0.0942 -0.8524
  765MOL0     H 3256  10.634   4.721  10.221 -0.4736 -0.0817 -0.0451
  765MOL0     H 3257  11.424   5.103  10.000 -0.7909 -0.1019  0.8686
  765MOL0     H 3258  11.594   5.261   9.958  1.9709 -0.0286 -0.9327
  765MOL0     H 3259  12.115   5.302  10.043  0.0750 -0.0623  0.6461
  765MOL0     H 3260  12.308   5.424   9.978 -0.2317  0.0598  1.3091
  765MOL0     H 3261  10.574   5.672   9.245 -0.8261  0.1098 -0.7369
  765MOL0     H 3262  10.447   5.516   9.128  0.2214 -2.0846 -0.2057
  765MOL0     H 3263  10.251   5.235   9.053  3.6157 -0.0044  0.2792
  765MOL0     H 3264  10.062   5.114   8.992  0.9489  3.0765 -2.8729
  765MOL0     H 3265  10.127   4.790   8.691  0.1544  0.0010  1.0150
  765MOL0     H 3266  10.076   4.677   8.815 -0.8390 -1.2570 -0.6977
  765MOL0     H 3267   9.909   4.678   8.610 -1.8763  0.8147 -1.5601
  765MOL0     H 3268   9.894   4.856   8.633 -0.8557 -0.3422  0.2790
  765MOL0     H 3269   9.797   4.832   8.845  0.4991 -0.2612  0.9436
  765MOL0     H 3270   9.829   4.658   8.852 -0.7176  1.2960  1.3843
  765MOL0     H 3271   9.593   4.675   8.793  1.0556 -2.3625  0.0019
  765MOL0     H 3272   9.679   4.639   8.644 -1.9792  0.9124 -0.1590
  765MOL0     H 3273   9.571   5.030   8.569  0.1633 -1.5816 -1.9628
  765MOL0     H 3274  10.311   4.802   8.807  0.4652  0.0427 -0.8350
  765MOL0     H 3275  10.501   4.913   8.898  0.1142 -1.7481  4.0563
  766MOL0     O 3276   7.815  11.122  10.102  0.3356 -0.0768 -0.9489
  766MOL0     C 3277   7.768  11.071   9.999 -0.4014 -0.8699  0.7699
  766MOL0     O 3278   7.632  11.066   9.971  0.4537  0.0263  0.5489
  766MOL0     C 3279   7.540  11.120  10.062 -1.0463 -0.1064  0.3792
  766MOL0     C 3280   7.547  11.100  10.197  0.2642  0.2743  0.0799
  766MOL0     C 3281   7.456  11.171  10.279  0.2089  0.1212  0.0578
  766MOL0     C 3282   7.339  11.229  10.225  0.4404  0.0552 -0.5378
  766MOL0     O 3283   7.257  11.297  10.312 -0.5604 -0.2281  0.2495
  766MOL0     C 3284   7.141  11.367  10.264  0.2546  0.5801 -0.2245
  766MOL0     C 3285   7.066  11.420  10.381 -0.0892  0.3026 -0.4166
  766MOL0     C 3286   6.937  11.489  10.323 -0.1950 -0.4186  0.1032
  766MOL0     C 3287   6.889  11.604  10.412  0.1368 -0.2642 -0.0088
  766MOL0     C 3288   6.849  11.565  10.566  0.4745 -0.0030 -0.8204
  766MOL0     C 3289   6.972  11.581  10.661  0.4107 -0.4075 -0.2181
  766MOL0     C 3290   7.030  11.720  10.688 -0.6257 -0.3838 -0.4146
  766MOL0     C 3291   7.153  11.719  10.783  0.1996  0.2775  0.0848
  766MOL0     N 3292   7.207  11.858  10.795 -0.1601 -0.0101 -0.0587
  766MOL0     C 3293   7.151  11.958  10.873  0.3294  0.2130 -0.0761
  766MOL0     C 3294   7.245  12.035  10.919 -0.1637 -0.2105  0.4390
  766MOL0     C 3295   7.222  12.155  11.005 -0.8068  0.1605  0.4597
  766MOL0     C 3296   7.198  12.282  10.925 -0.4202  0.0477 -0.8579
  766MOL0     C 3297   7.153  12.400  11.027  0.2943 -0.0325 -0.0022
  766MOL0     C 3298   7.086  12.520  10.971 -0.2674 -0.4278  0.3860
  766MOL0     O 3299   7.182  12.603  10.899  0.2640  0.2284 -0.4541
  766MOL0     C 3300   7.125  12.684  10.810 -0.6786 -0.1747  0.7315
  766MOL0     C 3301   7.193  12.711  10.697  0.4673 -0.3933 -0.2076
  766MOL0     C 3302   7.151  12.808  10.605 -0.4455  0.2113 -0.2384
  766MOL0     C 3303   7.234  12.791  10.479 -0.1823 -1.0492 -0.3748
  766MOL0     C 3304   7.035  12.893  10.632 -0.4247  0.0488  0.5521
  766MOL0     C 3305   6.979  12.996  10.538 -0.5988  0.3025  0.1358
  766MOL0     O 3306   6.859  13.046  10.561  0.2204 -0.2685  0.2806
  766MOL0     C 3307   6.802  13.138  10.476  0.0115 -0.3350 -0.0836
  766MOL0     C 3308   6.686  13.092  10.413  0.2573  0.6708 -0.1862
  766MOL0     C 3309   6.622  13.173  10.319 -0.7430  0.1038  0.3332
  766MOL0     C 3310   6.677  13.302  10.289  0.2451  0.1555 -0.3894
  766MOL0     O 3311   6.629  13.388  10.191 -0.7340  0.3620  0.0321
  766MOL0     C 3312   6.504  13.356  10.125 -0.1235 -0.0808 -0.3671
  766MOL0     C 3313   6.460  13.480  10.029 -0.1714  0.4244 -0.1054
  766MOL0     C 3314   6.329  13.460   9.944 -0.9635  0.1389  0.1625
  766MOL0     C 3315   6.205  13.462  10.026  0.2914  0.6554 -0.4687
  766MOL0     C 3316   6.094  13.435   9.927 -0.6440  0.3214 -0.8663
  766MOL0     C 3317   5.949  13.470   9.982 -0.6203  0.1079 -0.4488
  766MOL0     C 3318   5.853  13.474   9.868  0.3487 -0.1376  0.1922
  766MOL0     C 3319   5.709  13.481   9.917  0.5246 -0.4353 -0.3640
  766MOL0    Cl 3320   5.642  13.330   9.984  0.2372  0.3275  0.0075
  766MOL0     C 3321   6.796  13.335  10.349  0.2538  0.2128 -0.8426
  766MOL0     C 3322   6.862  13.255  10.445 -0.0217  0.8242  0.0509
  766MOL0     O 3323   7.042  13.007  10.436 -0.5922  0.2169 -0.7266
  766MOL0     C 3324   6.978  12.873  10.762  0.0086 -0.0264 -0.4067
  766MOL0     C 3325   7.016  12.775  10.847 -0.0638  1.0627  0.1349
  766MOL0     N 3326   7.367  12.003  10.854  0.4890 -0.3482  0.0567
  766MOL0     N 3327   7.342  11.890  10.790 -0.5745  0.5712 -0.4366
  766MOL0     C 3328   7.320  11.219  10.086  0.1438  0.2019 -0.2135
  766MOL0     C 3329   7.421  11.169  10.008 -0.0207  0.0417 -0.1414
  766MOL0     C 3330   7.858  11.003   9.905 -0.1823  0.5034  0.0626
  766MOL0     C 3331   7.993  11.035   9.902 -0.1307  0.4386  0.8566
  766MOL0     C 3332   8.085  10.976   9.813 -0.1650 -0.2841  0.4000
  766MOL0     C 3333   8.041  10.878   9.721 -0.0719  0.1038  0.5396
  766MOL0     O 3334   8.135  10.822   9.631 -0.3889 -0.0240  0.7545
  766MOL0     C 3335   8.099  10.702   9.561 -0.4831 -0.7556 -0.4496
  766MOL0     C 3336   8.222  10.638   9.495  1.0329 -0.6517  0.3021
  766MOL0     C 3337   8.186  10.507   9.425 -0.6626 -0.6850  1.1104
  766MOL0     C 3338   8.317  10.439   9.370 -0.0679 -0.5397 -0.0914
  766MOL0     C 3339   8.352  10.488   9.239 -0.2591 -0.3767 -0.1978
  766MOL0     C 3340   8.373  10.538   9.128  0.3970 -0.0137  1.3089
  766MOL0     C 3341   7.907  10.847   9.720 -0.5410 -0.3811 -0.0490
  766MOL0     C 3342   7.818  10.899   9.814 -0.7188 -0.3536 -0.6079
  766MOL0     H 3343   7.621  11.040  10.249 -0.8463  0.0495  1.4442
  766MOL0     H 3344   7.476  11.170  10.386  3.1532 -0.7852 -0.4037
  766MOL0     H 3345   7.141  11.445  10.188 -0.9146 -2.5343 -3.7580
  766MOL0     H 3346   7.079  11.292  10.213  1.4225 -0.6252  0.0762
  766MOL0     H 3347   7.036  11.346  10.456  0.3195  0.4810 -0.0716
  766MOL0     H 3348   7.135  11.495  10.420  0.9395 -1.6888  1.8872
  766MOL0     H 3349   6.945  11.533  10.224 -1.7340  2.3042  1.0883
  766MOL0     H 3350   6.854  11.419  10.313 -0.6798  0.4785 -4.1779
  766MOL0     H 3351   6.964  11.684  10.410 -0.7928  0.6234 -2.5146
  766MOL0     H 3352   6.804  11.650  10.361  0.6269 -0.7892 -1.3432
  766MOL0     H 3353   6.775  11.633  10.608 -0.5017 -0.1046 -2.3005
  766MOL0     H 3354   6.817  11.461  10.580  2.2777 -0.2813  2.1474
  766MOL0     H 3355   6.941  11.543  10.759 -1.3236 -0.5586 -0.7880
  766MOL0     H 3356   7.046  11.510  10.623  0.1069 -1.6391  1.3668
  766MOL0     H 3357   7.050  11.767  10.591 -1.0530 -2.3106 -1.4844
  766MOL0     H 3358   6.958  11.791  10.729  0.1930 -0.3832  1.1103
  766MOL0     H 3359   7.229  11.648  10.749 -0.3094  0.0970 -0.7037
  766MOL0     H 3360   7.124  11.687  10.883  0.2590 -0.9989 -0.2955
  766MOL0     H 3361   7.045  11.960  10.897  0.3523 -0.5331  0.1088
  766MOL0     H 3362   7.134  12.153  11.070 -0.1695 -0.2493  1.3403
  766MOL0     H 3363   7.304  12.148  11.078 -0.3456 -1.6805 -0.1598
  766MOL0     H 3364   7.126  12.240  10.855 -1.0564 -3.0810  1.4474
  766MOL0     H 3365   7.292  12.309  10.876  1.3203  0.3742  2.3994
  766MOL0     H 3366   7.244  12.433  11.078  0.2766  1.1860 -0.7113
  766MOL0     H 3367   7.090  12.354  11.104  0.5652 -0.1155  0.1697
  766MOL0     H 3368   7.042  12.576  11.054 -2.4607 -1.5352  0.0618
  766MOL0     H 3369   7.004  12.490  10.904  0.8566 -0.7831 -0.8665
  766MOL0     H 3370   7.273  12.639  10.682  2.5239  1.9321 -1.1477
  766MOL0     H 3371   7.292  12.877  10.444  0.2750 -1.1323  0.1508
  766MOL0     H 3372   7.318  12.722  10.494  2.4486  1.6963 -1.5212
  766MOL0     H 3373   7.176  12.764  10.391  2.3764  1.9975 -3.2249
  766MOL0     H 3374   6.667  12.985  10.421  0.0662  0.8529  2.6285
  766MOL0     H 3375   6.535  13.143  10.262 -0.3616 -0.2343 -0.0729
  766MOL0     H 3376   6.514  13.266  10.063 -1.7090  0.1742 -1.0434
  766MOL0     H 3377   6.428  13.329  10.199  1.0784  0.6148  1.1623
  766MOL0     H 3378   6.458  13.568  10.094  1.4273  2.4991 -2.6381
  766MOL0     H 3379   6.538  13.478   9.952 -0.0360  0.0998  0.0363
  766MOL0     H 3380   6.330  13.364   9.892 -0.5332  0.3984 -0.3176
  766MOL0     H 3381   6.337  13.548   9.880 -0.1784  1.0221  1.4146
  766MOL0     H 3382   6.199  13.395  10.112 -0.5104  0.8490 -0.3650
  766MOL0     H 3383   6.189  13.565  10.060 -0.0833  0.4179  0.0899
  766MOL0     H 3384   6.091  13.331   9.892  1.3839 -0.4124  0.9324
  766MOL0     H 3385   6.108  13.504   9.843 -0.2696  0.6573 -0.5338
  766MOL0     H 3386   5.909  13.390  10.045 -0.7414  0.3377 -0.2323
  766MOL0     H 3387   5.945  13.563  10.038 -2.6642  0.0663 -0.4683
  766MOL0     H 3388   5.863  13.390   9.799  1.9602 -1.0193  1.4114
  766MOL0     H 3389   5.884  13.565   9.816 -1.6639 -0.6670 -2.1358
  766MOL0     H 3390   5.644  13.494   9.830 -1.2891  0.7860  1.0997
  766MOL0     H 3391   5.694  13.567   9.983 -0.2762  0.2014 -1.3333
  766MOL0     H 3392   6.843  13.427  10.315  0.5877  0.1945 -0.4437
  766MOL0     H 3393   6.956  13.288  10.489 -0.6078 -1.1177  3.0872
  766MOL0     H 3394   6.894  12.935  10.790 -1.6391 -1.7594 -1.3239
  766MOL0     H 3395   6.965  12.757  10.942  1.8890 -0.8666  0.8902
  766MOL0     H 3396   7.228  11.258  10.043 -0.1852 -2.3717 -2.0515
  766MOL0     H 3397   7.416  11.177   9.900 -1.8116 -0.6636 -0.1570
  766MOL0     H 3398   8.037  11.102   9.975 -3.5867  1.7608  1.9014
  766MOL0     H 3399   8.188  11.008   9.827 -0.2417  0.3538 -0.4235
  766MOL0     H 3400   8.052  10.622   9.619 -2.3745 -0.0487 -0.9281
  766MOL0     H 3401   8.023  10.727   9.487 -3.2189 -3.5652  1.1850
  766MOL0     H 3402   8.301  10.615   9.566  1.4158  1.4897  0.6530
  766MOL0     H 3403   8.260  10.703   9.415  0.0541 -0.2694  0.1190
  766MOL0     H 3404   8.114  10.521   9.344 -0.0302  0.9634  0.7874
  766MOL0     H 3405   8.155  10.446   9.511 -1.9123 -2.6266 -0.6492
  766MOL0     H 3406   8.288  10.334   9.362 -1.6120 -0.0029 -4.7415
  766MOL0     H 3407   8.398  10.456   9.442  0.2846 -0.5428 -0.4788
  766MOL0     H 3408   8.381  10.581   9.030  0.6338  0.2213  1.4327
  766MOL0     H 3409   7.884  10.770   9.648 -0.0725 -0.5841  0.0171
  766MOL0     H 3410   7.717  10.863   9.828 -0.9442  1.0392  1.8372
  767MOL0     O 3411   8.786   2.471  10.491 -0.5108  0.5067  0.6599
  767MOL0     C 3412   8.802   2.520  10.603 -0.1562 -0.8418 -0.5267
  767MOL0     O 3413   8.703   2.553  10.685 -0.2230 -0.1308 -0.5177
  767MOL0     C 3414   8.582   2.488  10.675 -0.0546 -0.5386 -0.9239
  767MOL0     C 3415   8.468   2.556  10.666  0.3071  0.6565  0.0884
  767MOL0     C 3416   8.339   2.495  10.666 -0.5961 -0.7180  0.2936
  767MOL0     C 3417   8.322   2.357  10.673 -0.2708  0.2155  1.0271
  767MOL0     O 3418   8.199   2.299  10.651  0.1669 -0.1019  0.3087
  767MOL0     C 3419   8.125   2.260  10.771  0.5819 -0.0345 -1.1572
  767MOL0     C 3420   7.976   2.215  10.766  0.3173  0.2320 -0.2301
  767MOL0     C 3421   7.882   2.343  10.757  0.4226  0.2011 -0.8406
  767MOL0     C 3422   7.735   2.304  10.746  0.2195  0.5168  0.5326
  767MOL0     C 3423   7.638   2.416  10.728 -1.2825  0.1652 -0.1177
  767MOL0     C 3424   7.507   2.359  10.686  0.3026  0.4506 -0.0142
  767MOL0     C 3425   7.397   2.470  10.682  0.1804 -0.2764 -0.6139
  767MOL0     C 3426   7.355   2.499  10.830  0.6934 -0.0806  0.8089
  767MOL0     N 3427   7.222   2.559  10.830 -0.1392 -0.2044  0.8487
  767MOL0     C 3428   7.104   2.487  10.849 -0.1290  0.2240 -0.2402
  767MOL0     C 3429   7.006   2.581  10.841 -0.0266 -0.8432  0.9057
  767MOL0     C 3430   6.856   2.562  10.841  1.1737 -0.8620 -0.2575
  767MOL0     C 3431   6.824   2.512  10.979  1.0420 -0.0848  0.6815
  767MOL0     C 3432   6.838   2.604  11.095  0.5254 -0.1433 -0.6799
  767MOL0     C 3433   6.792   2.526  11.222  0.6514 -0.1397 -0.1609
  767MOL0     O 3434   6.886   2.412  11.236  0.3081 -0.3459  0.1193
  767MOL0     C 3435   6.852   2.314  11.323  0.0757 -0.7094  0.0533
  767MOL0     C 3436   6.745   2.321  11.413  0.9383 -0.2121 -0.3124
  767MOL0     C 3437   6.718   2.217  11.496  1.0895  0.0973  0.1398
  767MOL0     C 3438   6.583   2.248  11.573 -0.6617  0.1874 -0.2472
  767MOL0     C 3439   6.804   2.104  11.517  0.4366 -0.3642 -0.2226
  767MOL0     C 3440   6.775   2.000  11.612 -0.9913  0.1187  0.2264
  767MOL0     O 3441   6.648   1.985  11.659 -0.3277 -0.1088 -0.1412
  767MOL0     C 3442   6.626   1.920  11.782 -1.0016  0.4206  0.1828
  767MOL0     C 3443   6.511   1.842  11.795  0.0715 -0.6099 -0.2735
  767MOL0     C 3444   6.494   1.765  11.906  0.2031 -0.6769 -1.2237
  767MOL0     C 3445   6.588   1.770  12.014  0.2100  0.4994  0.1791
  767MOL0     O 3446   6.568   1.687  12.118  0.4510  0.2147 -0.0669
  767MOL0     C 3447   6.452   1.710  12.201  0.0015  0.6829  0.0426
  767MOL0     C 3448   6.481   1.790  12.322  1.1692 -0.3103 -0.0060
  767MOL0     C 3449   6.351   1.804  12.408  0.7790 -0.0026  0.5091
  767MOL0     C 3450   6.288   1.677  12.472  1.0577 -0.2927 -0.1340
  767MOL0     C 3451   6.144   1.706  12.525 -0.5243  0.1619  0.5065
  767MOL0     C 3452   6.094   1.603  12.629 -0.1495  0.8268 -0.2101
  767MOL0     C 3453   5.958   1.644  12.692  0.1397  0.3378 -0.9046
  767MOL0     C 3454   5.842   1.629  12.591  0.1837  0.3018 -0.0990
  767MOL0    Cl 3455   5.698   1.706  12.675  0.2845 -0.0990 -0.2606
  767MOL0     C 3456   6.697   1.853  12.009  0.4375  0.2470  0.3206
  767MOL0     C 3457   6.710   1.926  11.893  0.7449  0.0360 -0.7268
  767MOL0     O 3458   6.876   1.934  11.641  0.7925 -0.0939  0.7276
  767MOL0     C 3459   6.915   2.096  11.423  0.1096 -0.3296 -0.0986
  767MOL0     C 3460   6.933   2.199  11.320  1.0378 -0.3841 -0.1327
  767MOL0     N 3461   7.070   2.701  10.817 -1.1806  0.7681 -0.4744
  767MOL0     N 3462   7.198   2.696  10.809 -0.4490  0.4331  0.4365
  767MOL0     C 3463   8.443   2.280  10.680 -0.4286 -0.8914  0.7935
  767MOL0     C 3464   8.570   2.346  10.691 -0.8801  0.2925  0.0309
  767MOL0     C 3465   8.937   2.575  10.647  0.6863 -0.1025 -0.5737
  767MOL0     C 3466   8.945   2.650  10.766  0.6230 -0.1142 -0.2829
  767MOL0     C 3467   9.062   2.712  10.806 -0.5013  0.0991  0.1679
  767MOL0     C 3468   9.175   2.706  10.714  1.7106 -0.0351  0.6869
  767MOL0     O 3469   9.297   2.757  10.738 -0.0828  0.2533 -0.5788
  767MOL0     C 3470   9.325   2.833  10.857  0.5950 -0.2659 -0.3669
  767MOL0     C 3471   9.462   2.909  10.827  0.2515 -0.0014 -0.5621
  767MOL0     C 3472   9.577   2.824  10.767  0.9455  0.0653 -0.5438
  767MOL0     C 3473   9.615   2.704  10.863  0.2076 -0.1933 -0.5816
  767MOL0     C 3474   9.721   2.622  10.795 -0.0317  0.4918 -1.0305
  767MOL0     C 3475   9.819   2.553  10.760 -0.4570  0.2046  0.3531
  767MOL0     C 3476   9.167   2.635  10.593 -0.3003  0.9569  0.3517
  767MOL0     C 3477   9.044   2.563  10.557  0.8867 -0.3638 -0.5275
  767MOL0     H 3478   8.478   2.664  10.672  1.3837  0.5005  1.6908
  767MOL0     H 3479   8.250   2.557  10.655  2.1425  3.5483 -0.0216
  767MOL0     H 3480   8.185   2.173  10.801  1.0968  0.6226 -0.2233
  767MOL0     H 3481   8.134   2.340  10.845 -0.3589  1.1889 -2.3243
  767MOL0     H 3482   7.968   2.145  10.683 -0.7391 -1.2436  1.0648
  767MOL0     H 3483   7.945   2.173  10.862 -1.7148  2.5676  0.2586
  767MOL0     H 3484   7.894   2.402  10.849 -0.3750 -1.8039  0.6096
  767MOL0     H 3485   7.917   2.416  10.683  0.6443  0.5455 -0.4076
  767MOL0     H 3486   7.723   2.231  10.665  0.6885  0.6839  0.3103
  767MOL0     H 3487   7.718   2.244  10.836  1.3789 -1.0520 -0.2433
  767MOL0     H 3488   7.635   2.455  10.830  1.2709  3.5587 -1.1451
  767MOL0     H 3489   7.662   2.496  10.657 -1.3175 -1.2799 -1.8498
  767MOL0     H 3490   7.514   2.317  10.585 -0.0252  2.2334 -0.8029
  767MOL0     H 3491   7.484   2.280  10.759  3.8015  0.6549  1.5082
  767MOL0     H 3492   7.437   2.553  10.623  2.6927  0.4801  1.9363
  767MOL0     H 3493   7.304   2.436  10.636 -0.1028 -1.7173  0.9056
  767MOL0     H 3494   7.426   2.564  10.882  1.6193 -0.0898 -0.4003
  767MOL0     H 3495   7.343   2.400  10.875  0.0665 -1.3667 -2.0151
  767MOL0     H 3496   7.092   2.381  10.869  0.5023 -0.0942 -1.4771
  767MOL0     H 3497   6.799   2.654  10.824  2.6561  0.7879  2.7937
  767MOL0     H 3498   6.824   2.496  10.760  0.0339  0.5291 -0.9888
  767MOL0     H 3499   6.874   2.417  11.002  1.0619 -0.0973  0.5846
  767MOL0     H 3500   6.717   2.488  10.981  1.0344 -0.0437  0.8103
  767MOL0     H 3501   6.781   2.695  11.076  3.2495  2.1095  1.1872
  767MOL0     H 3502   6.941   2.639  11.102  0.5527  0.4061 -2.9257
  767MOL0     H 3503   6.690   2.492  11.205  0.9662 -0.0679 -2.4913
  767MOL0     H 3504   6.801   2.592  11.309  1.2701  1.1587 -1.1729
  767MOL0     H 3505   6.689   2.414  11.413  0.4170 -0.5242 -0.4334
  767MOL0     H 3506   6.595   2.296  11.671 -0.5020  1.0371 -0.6779
  767MOL0     H 3507   6.516   2.318  11.522 -1.4054 -1.5885 -1.8131
  767MOL0     H 3508   6.518   2.162  11.593  0.1314 -0.3059  0.3041
  767MOL0     H 3509   6.453   1.833  11.703 -0.0668  0.0837 -0.2599
  767MOL0     H 3510   6.404   1.707  11.922 -1.1515  1.8016  0.8624
  767MOL0     H 3511   6.375   1.758  12.140  0.9670  0.9757 -0.9906
  767MOL0     H 3512   6.425   1.612  12.243 -1.4062  1.6850  1.6105
  767MOL0     H 3513   6.564   1.752  12.383  1.3936  1.6387  1.0119
  767MOL0     H 3514   6.510   1.891  12.291  1.5853 -0.3775  0.1558
  767MOL0     H 3515   6.275   1.856  12.349 -0.0801 -0.1395  1.4703
  767MOL0     H 3516   6.359   1.874  12.491 -0.3842  0.4146  0.2853
  767MOL0     H 3517   6.291   1.592  12.404  2.7213 -0.2770 -0.1334
  767MOL0     H 3518   6.351   1.644  12.555  1.8655 -2.1818 -1.4235
  767MOL0     H 3519   6.079   1.704  12.437 -0.7662  1.8870  0.6169
  767MOL0     H 3520   6.137   1.805  12.572  0.7273  2.4053 -3.5499
  767MOL0     H 3521   6.097   1.501  12.589 -0.0469  0.8398 -0.2362
  767MOL0     H 3522   6.169   1.603  12.709  0.8376 -0.7774 -1.0851
  767MOL0     H 3523   5.963   1.748  12.727  2.3221 -0.2681  0.8286
  767MOL0     H 3524   5.930   1.574  12.771  0.0164  0.9907 -0.3643
  767MOL0     H 3525   5.825   1.526  12.557 -2.8180  0.2588  1.2143
  767MOL0     H 3526   5.861   1.691  12.504 -1.3077  0.9244 -0.0144
  767MOL0     H 3527   6.761   1.876  12.093 -0.3769 -1.6455  1.5152
  767MOL0     H 3528   6.802   1.983  11.888 -1.0352  3.4087  1.3172
  767MOL0     H 3529   6.972   2.003  11.419  0.4482 -0.0956 -1.4017
  767MOL0     H 3530   7.026   2.195  11.264  2.7283  1.9886  2.2415
  767MOL0     H 3531   8.441   2.172  10.669 -0.2461 -0.7419 -0.9174
  767MOL0     H 3532   8.661   2.288  10.699 -0.4529  1.0175  0.6184
  767MOL0     H 3533   8.860   2.671  10.832  1.7950  2.4875  0.5517
  767MOL0     H 3534   9.058   2.761  10.902  1.1538 -2.9949  1.9805
  767MOL0     H 3535   9.238   2.895  10.880  0.5700 -0.7565  0.9099
  767MOL0     H 3536   9.321   2.762  10.940 -1.8322  1.5052  1.1744
  767MOL0     H 3537   9.493   2.948  10.925 -0.8874  0.8330 -0.5086
  767MOL0     H 3538   9.438   2.992  10.760 -0.1968  0.3422  0.0097
  767MOL0     H 3539   9.667   2.887  10.758  1.7281 -1.0230 -0.5263
  767MOL0     H 3540   9.550   2.788  10.668  3.3925 -1.0266 -0.9011
  767MOL0     H 3541   9.527   2.648  10.895  0.9430 -1.0485  0.0103
  767MOL0     H 3542   9.657   2.749  10.954 -2.8894  0.4197  0.6750
  767MOL0     H 3543   9.899   2.489  10.729  1.3386  2.7392 -0.5145
  767MOL0     H 3544   9.253   2.629  10.527 -1.9218  1.0221 -1.9104
  767MOL0     H 3545   9.038   2.502  10.467  0.5844 -0.5480 -0.3830
  768MOL0     O 3546   3.338   7.629   0.382 -0.0950  0.2044  0.5492
  768MOL0     C 3547   3.374   7.683   0.483 -0.1247  0.4129 -1.0388
  768MOL0     O 3548   3.299   7.768   0.572 -0.1427  0.0973  0.7420
  768MOL0     C 3549   3.171   7.800   0.554  1.2549  0.4797 -0.0728
  768MOL0     C 3550   3.098   7.801   0.673  1.0269 -0.8339  0.0645
  768MOL0     C 3551   2.958   7.829   0.669  0.1458 -0.1791 -1.1503
  768MOL0     C 3552   2.892   7.857   0.552  0.8828 -0.7191  0.9012
  768MOL0     O 3553   2.756   7.887   0.557 -0.2762 -0.9198 -0.3103
  768MOL0     C 3554   2.693   7.944   0.436 -0.5979 -0.0484 -0.2300
  768MOL0     C 3555   2.565   8.018   0.467 -0.0311 -0.9312 -0.4961
  768MOL0     C 3556   2.472   8.051   0.345  0.1058 -0.0057 -0.8217
  768MOL0     C 3557   2.343   8.108   0.416 -0.6966  0.5375  0.4097
  768MOL0     C 3558   2.251   8.179   0.316 -0.1628  0.0183  0.7051
  768MOL0     C 3559   2.320   8.305   0.249 -0.7938  0.4460  0.0073
  768MOL0     C 3560   2.298   8.429   0.339 -0.2651 -0.0735 -0.2707
  768MOL0     C 3561   2.378   8.544   0.280 -0.4513  0.2036  0.3692
  768MOL0     N 3562   2.281   8.651   0.264  0.2390 -0.4951 -0.1018
  768MOL0     C 3563   2.208   8.669   0.151  0.0220  0.4787 -0.6615
  768MOL0     C 3564   2.135   8.782   0.190  0.3316 -0.3555 -0.1472
  768MOL0     C 3565   2.051   8.855   0.088  0.1168 -0.8524  0.9578
  768MOL0     C 3566   1.908   8.810   0.084 -0.4017  0.2938  0.1052
  768MOL0     C 3567   1.824   8.882   0.185  0.2136  0.0954 -0.1096
  768MOL0     C 3568   1.705   8.783   0.204 -0.1086 -0.2926 -0.5451
  768MOL0     O 3569   1.619   8.836   0.303 -0.0675 -0.3205 -0.2657
  768MOL0     C 3570   1.485   8.822   0.288  0.3485  0.2027 -0.3519
  768MOL0     C 3571   1.412   8.760   0.181  0.6675  0.3504 -0.1221
  768MOL0     C 3572   1.265   8.749   0.183 -0.0810  0.9316 -0.0647
  768MOL0     C 3573   1.209   8.672   0.071  0.1297 -0.4683  0.3855
  768MOL0     C 3574   1.192   8.808   0.292 -0.1973  0.1626  0.4318
  768MOL0     C 3575   1.043   8.823   0.301  0.4098  0.3824  0.0218
  768MOL0     O 3576   0.984   8.886   0.405  0.8957 -0.2422 -0.3590
  768MOL0     C 3577   0.850   8.883   0.447 -0.7023  0.4199 -0.3150
  768MOL0     C 3578   0.744   8.826   0.379  0.0150 -0.4523  0.5376
  768MOL0     C 3579   0.613   8.824   0.429  0.4718 -0.5863  0.7642
  768MOL0     C 3580   0.587   8.895   0.546  0.0553  0.3432  0.0833
  768MOL0     O 3581   0.461   8.891   0.609 -1.3627  0.5813  0.2404
  768MOL0     C 3582   0.364   8.790   0.578 -0.0274 -0.5452 -0.3810
  768MOL0     C 3583   0.229   8.842   0.619 -0.2742  0.0371 -0.1785
  768MOL0     C 3584   0.107   8.766   0.565  0.1555 -0.1064  0.3644
  768MOL0     C 3585   0.077   8.819   0.417  0.5274  0.6318  0.5187
  768MOL0     C 3586  -0.035   8.726   0.353  0.2366  0.7597 -0.1138
  768MOL0     C 3587  -0.161   8.722   0.444 -0.3543  0.2634 -0.5610
  768MOL0     C 3588  -0.272   8.641   0.373 -0.9699  0.1085 -0.2070
  768MOL0     C 3589  -0.392   8.624   0.464 -0.3700  0.4087 -0.3667
  768MOL0    Cl 3590  -0.550   8.626   0.368 -0.1424 -0.1139  0.1041
  768MOL0     C 3591   0.692   8.960   0.618  0.6422  0.3583 -0.0945
  768MOL0     C 3592   0.817   8.960   0.559  0.1132  0.3029 -0.2394
  768MOL0     O 3593   0.983   8.759   0.214 -0.2105 -0.2981  0.2104
  768MOL0     C 3594   1.271   8.869   0.392  0.6351 -0.3902 -0.0306
  768MOL0     C 3595   1.406   8.874   0.386  0.1014  0.1038 -0.0202
  768MOL0     N 3596   2.161   8.815   0.314 -0.3149  0.3048  0.4322
  768MOL0     N 3597   2.255   8.744   0.363  0.0759 -0.6648 -0.1144
  768MOL0     C 3598   2.968   7.851   0.435  0.1509 -0.2611  0.8176
  768MOL0     C 3599   3.104   7.817   0.432 -0.4599  0.0193 -0.5060
  768MOL0     C 3600   3.515   7.670   0.519 -0.2488 -0.7311 -0.0183
  768MOL0     C 3601   3.558   7.728   0.643 -0.4300 -0.6009  1.0334
  768MOL0     C 3602   3.694   7.748   0.675 -0.6566 -0.4454 -0.3968
  768MOL0     C 3603   3.792   7.690   0.593 -0.2035  0.8977  0.1200
  768MOL0     O 3604   3.915   7.725   0.632  0.4455 -0.5831 -0.2339
  768MOL0     C 3605   4.019   7.736   0.521 -0.1536 -0.0913 -0.7413
  768MOL0     C 3606   4.147   7.788   0.581 -0.0089  0.0092 -0.5407
  768MOL0     C 3607   4.228   7.683   0.652 -0.3522  0.7995  0.0354
  768MOL0     C 3608   4.367   7.733   0.703 -0.6964  1.0428  0.5809
  768MOL0     C 3609   4.454   7.621   0.741  0.7770 -0.0968  0.1609
  768MOL0     C 3610   4.515   7.527   0.783 -0.4335 -0.7163 -0.2913
  768MOL0     C 3611   3.749   7.606   0.487 -0.3725 -0.1795  0.2269
  768MOL0     C 3612   3.613   7.597   0.455 -0.2759 -0.1106 -0.3039
  768MOL0     H 3613   3.147   7.777   0.767 -1.4505 -0.4439  1.5285
  768MOL0     H 3614   2.905   7.816   0.763  1.7790  0.9756 -0.0031
  768MOL0     H 3615   2.765   8.000   0.375  0.4545 -1.4710 -0.3765
  768MOL0     H 3616   2.661   7.864   0.368  0.2971 -0.3358 -0.3308
  768MOL0     H 3617   2.504   7.963   0.539 -0.6936  2.3664  1.6763
  768MOL0     H 3618   2.600   8.107   0.521  1.6142 -1.2742 -0.9338
  768MOL0     H 3619   2.526   8.118   0.279  1.9769  0.2715  0.8753
  768MOL0     H 3620   2.456   7.957   0.291  1.9794  0.0236 -1.4918
  768MOL0     H 3621   2.296   8.023   0.467  1.0114 -0.9020 -0.2952
  768MOL0     H 3622   2.379   8.182   0.489  0.2930  0.5026 -0.0226
  768MOL0     H 3623   2.233   8.108   0.234 -0.4887 -1.1727  1.7850
  768MOL0     H 3624   2.161   8.219   0.362  1.1413  0.7496  2.7392
  768MOL0     H 3625   2.426   8.283   0.237 -0.7626  0.2354  0.6273
  768MOL0     H 3626   2.269   8.322   0.154  0.5980  0.2670 -0.7935
  768MOL0     H 3627   2.192   8.455   0.342  0.3148  2.4293  1.1647
  768MOL0     H 3628   2.345   8.404   0.434 -0.5214  1.8827  0.4104
  768MOL0     H 3629   2.420   8.515   0.184  0.4558 -0.8054  1.0351
  768MOL0     H 3630   2.461   8.557   0.351  1.1083  0.0457 -1.3690
  768MOL0     H 3631   2.219   8.631   0.050  1.6059  1.8558 -1.0542
  768MOL0     H 3632   2.063   8.962   0.110 -1.8481 -0.3820 -0.0723
  768MOL0     H 3633   2.085   8.834  -0.014 -1.3360 -0.3292  0.3401
  768MOL0     H 3634   1.893   8.702   0.092 -0.8942  0.4015  0.7511
  768MOL0     H 3635   1.876   8.845  -0.014  2.0435 -0.5799 -1.0690
  768MOL0     H 3636   1.780   8.973   0.142 -2.0580 -1.2889 -0.9229
  768MOL0     H 3637   1.875   8.904   0.279  1.1961  2.0181 -1.0266
  768MOL0     H 3638   1.743   8.684   0.233 -1.3876 -0.3695  1.0183
  768MOL0     H 3639   1.651   8.771   0.110 -0.8558  0.6228 -0.2513
  768MOL0     H 3640   1.470   8.704   0.108  0.1385 -0.3183 -0.0352
  768MOL0     H 3641   1.128   8.612   0.115 -0.1650  0.9555  1.8813
  768MOL0     H 3642   1.161   8.734  -0.005 -0.7851 -0.1855  1.1631
  768MOL0     H 3643   1.278   8.601   0.025 -1.5082 -1.6324 -0.3685
  768MOL0     H 3644   0.761   8.773   0.286 -1.1934 -0.0406  0.0663
  768MOL0     H 3645   0.533   8.785   0.367  0.9756  0.6683 -0.7671
  768MOL0     H 3646   0.367   8.754   0.475  2.4664 -1.2527 -0.1057
  768MOL0     H 3647   0.384   8.702   0.638 -0.1590 -0.8190 -0.7343
  768MOL0     H 3648   0.224   8.837   0.728 -1.2797  1.7197 -0.1132
  768MOL0     H 3649   0.214   8.947   0.592  1.4796  0.3767  0.0482
  768MOL0     H 3650   0.030   8.804   0.633  0.0791  0.7243 -0.1706
  768MOL0     H 3651   0.108   8.657   0.563  2.5059 -0.1466 -2.1786
  768MOL0     H 3652   0.041   8.922   0.417  0.7102  0.6959 -0.2465
  768MOL0     H 3653   0.167   8.819   0.355  2.0765 -0.0864  2.6282
  768MOL0     H 3654  -0.013   8.620   0.342 -0.4682  0.6669 -0.6746
  768MOL0     H 3655  -0.058   8.766   0.254  0.0508  3.4226  0.9171
  768MOL0     H 3656  -0.140   8.659   0.531  1.6009  0.1464 -1.0624
  768MOL0     H 3657  -0.190   8.824   0.473 -0.2839  0.2626 -0.4834
  768MOL0     H 3658  -0.229   8.543   0.346 -0.0271 -0.0325  1.5920
  768MOL0     H 3659  -0.300   8.702   0.287  0.8830  1.9811  0.4185
  768MOL0     H 3660  -0.384   8.699   0.543  0.1747 -0.1293  0.0894
  768MOL0     H 3661  -0.389   8.527   0.514 -0.8955  1.4379  1.7790
  768MOL0     H 3662   0.676   9.009   0.713  0.6393 -1.8506  1.1272
  768MOL0     H 3663   0.901   9.002   0.614 -0.8057  1.0563  0.6065
  768MOL0     H 3664   1.223   8.928   0.469 -0.7230 -0.8017 -0.5354
  768MOL0     H 3665   1.457   8.942   0.454 -1.0502  2.2103 -1.1561
  768MOL0     H 3666   2.917   7.860   0.340  1.3073 -1.3280  0.0647
  768MOL0     H 3667   3.162   7.811   0.341 -0.6310 -0.4201 -0.5855
  768MOL0     H 3668   3.480   7.780   0.699 -0.9635  1.1104 -1.1479
  768MOL0     H 3669   3.725   7.803   0.762  2.3688  1.0497 -2.2731
  768MOL0     H 3670   4.043   7.644   0.469  0.5278 -0.4192  0.1204
  768MOL0     H 3671   3.979   7.801   0.443 -0.0162 -1.8747 -2.3458
  768MOL0     H 3672   4.123   7.882   0.632  0.0238  2.1045 -4.0615
  768MOL0     H 3673   4.214   7.819   0.500  1.7210 -1.2641  0.3400
  768MOL0     H 3674   4.253   7.609   0.575  0.9537 -0.4380  1.5591
  768MOL0     H 3675   4.167   7.640   0.732 -0.8234  2.2760  0.5134
  768MOL0     H 3676   4.346   7.794   0.792 -1.1112  2.3590 -0.3896
  768MOL0     H 3677   4.431   7.786   0.632 -0.4719  0.6345  0.4802
  768MOL0     H 3678   4.562   7.447   0.837 -1.8055 -3.2425 -2.5989
  768MOL0     H 3679   3.817   7.547   0.426 -4.1364 -1.0787 -3.5547
  768MOL0     H 3680   3.595   7.551   0.358  1.2316 -0.2172 -0.5685
  769MOL0     O 3681   9.623   6.410   5.178  0.4689  0.1310  0.5507
  769MOL0     C 3682   9.697   6.314   5.171 -0.2842  0.0708  1.0789
  769MOL0     O 3683   9.664   6.182   5.180  0.2408 -0.3847 -0.3993
  769MOL0     C 3684   9.532   6.146   5.168  0.2050  0.5768 -0.0950
  769MOL0     C 3685   9.476   6.049   5.249  0.5930  0.8033  0.8614
  769MOL0     C 3686   9.341   6.002   5.221 -0.3593  0.3417 -0.2383
  769MOL0     C 3687   9.267   6.052   5.114 -1.5072 -1.0446 -0.0223
  769MOL0     O 3688   9.138   6.027   5.074  0.2740 -0.4846 -0.0294
  769MOL0     C 3689   9.088   5.898   5.100  0.0427 -0.3485  0.5116
  769MOL0     C 3690   9.001   5.880   5.226  0.0719 -0.0330 -0.0196
  769MOL0     C 3691   8.915   6.011   5.254  0.5529  0.1590 -0.1986
  769MOL0     C 3692   8.858   6.010   5.397  0.9262 -0.5143 -0.0627
  769MOL0     C 3693   8.758   6.117   5.419 -0.2212 -0.2102  0.3844
  769MOL0     C 3694   8.686   6.126   5.554 -0.4635  0.0373 -0.1731
  769MOL0     C 3695   8.568   6.220   5.553  0.6234 -0.4457 -0.2851
  769MOL0     C 3696   8.479   6.188   5.672 -0.5431 -0.2982 -0.1796
  769MOL0     N 3697   8.370   6.282   5.680  0.4401 -0.2377 -0.0945
  769MOL0     C 3698   8.380   6.407   5.738  0.4628 -0.1107 -0.1506
  769MOL0     C 3699   8.260   6.464   5.703 -0.2010 -0.1231  0.1258
  769MOL0     C 3700   8.219   6.607   5.717  0.8863 -0.7781 -0.9292
  769MOL0     C 3701   8.117   6.626   5.839 -1.1139  0.1364  0.3236
  769MOL0     C 3702   7.989   6.545   5.824 -0.1922  0.2395 -0.2813
  769MOL0     C 3703   7.874   6.593   5.920  0.1440 -0.3115 -0.9431
  769MOL0     O 3704   7.899   6.572   6.060 -0.3487  0.1104 -0.1189
  769MOL0     C 3705   7.797   6.616   6.148 -0.2111 -0.4305 -0.4034
  769MOL0     C 3706   7.665   6.659   6.107 -1.1362 -0.6353  0.0342
  769MOL0     C 3707   7.582   6.721   6.204 -0.9059  0.3717 -0.2916
  769MOL0     C 3708   7.464   6.801   6.158 -0.6950  0.4216  0.5249
  769MOL0     C 3709   7.612   6.724   6.344 -0.1434 -0.5343  0.7842
  769MOL0     C 3710   7.522   6.777   6.439  0.0154 -0.2490  0.7179
  769MOL0     O 3711   7.399   6.737   6.429  0.3265 -0.8375  0.4960
  769MOL0     C 3712   7.294   6.800   6.494 -0.7329 -0.4124 -0.0901
  769MOL0     C 3713   7.242   6.748   6.611 -0.2942 -0.1542  0.2958
  769MOL0     C 3714   7.118   6.802   6.650 -0.4860  0.0612  0.2117
  769MOL0     C 3715   7.047   6.894   6.579 -0.7910  0.1802  0.1033
  769MOL0     O 3716   6.913   6.924   6.610 -1.1041  1.0857  0.3006
  769MOL0     C 3717   6.839   6.838   6.692  0.0780  0.1685 -0.7960
  769MOL0     C 3718   6.699   6.880   6.685  1.1156 -0.0094 -0.2054
  769MOL0     C 3719   6.611   6.806   6.784  0.5633  0.2387  0.1857
  769MOL0     C 3720   6.486   6.886   6.812  1.3053 -0.3876  0.6377
  769MOL0     C 3721   6.363   6.800   6.850  0.1708 -0.1924  1.1547
  769MOL0     C 3722   6.234   6.885   6.842 -0.5709  0.3278 -0.1894
  769MOL0     C 3723   6.134   6.837   6.953  0.0628  0.2100 -0.1875
  769MOL0     C 3724   6.015   6.924   6.956 -0.0917  1.2222 -0.3307
  769MOL0    Cl 3725   5.884   6.807   6.957  0.0121 -0.3461  0.1260
  769MOL0     C 3726   7.115   6.947   6.464  0.9499  0.5724 -1.0515
  769MOL0     C 3727   7.233   6.901   6.418  0.4847 -0.6210  0.0993
  769MOL0     O 3728   7.570   6.854   6.522 -0.0510 -0.4500  0.3709
  769MOL0     C 3729   7.735   6.675   6.380  0.0812  0.0626 -0.3799
  769MOL0     C 3730   7.824   6.633   6.285 -0.2480  0.7692 -0.2257
  769MOL0     N 3731   8.184   6.373   5.638  0.0385 -0.2963  0.3240
  769MOL0     N 3732   8.245   6.264   5.617 -0.3850  0.1489 -0.5109
  769MOL0     C 3733   9.322   6.159   5.041 -0.0423 -0.0964  0.4876
  769MOL0     C 3734   9.451   6.202   5.070  0.6114  0.3874  0.2847
  769MOL0     C 3735   9.840   6.340   5.153  0.8739  0.0008  0.0904
  769MOL0     C 3736   9.882   6.468   5.120  0.0487  0.7062  0.5816
  769MOL0     C 3737  10.014   6.485   5.079  0.2910  0.2733  0.0880
  769MOL0     C 3738  10.109   6.383   5.096  0.1004  0.6369 -0.1570
  769MOL0     O 3739  10.245   6.401   5.072 -0.1632 -0.3097 -0.1037
  769MOL0     C 3740  10.292   6.527   5.001  0.7903  0.1071 -0.4497
  769MOL0     C 3741  10.439   6.529   5.007 -0.9199 -0.3967  0.4350
  769MOL0     C 3742  10.503   6.514   5.144  1.1040  0.6351  0.2761
  769MOL0     C 3743  10.656   6.529   5.150 -0.1037 -0.1091  0.5929
  769MOL0     C 3744  10.705   6.402   5.091  0.7351  0.4570 -0.2952
  769MOL0     C 3745  10.751   6.296   5.049  0.6337 -1.0265 -0.0159
  769MOL0     C 3746  10.066   6.263   5.149 -0.3992  0.2741  0.3075
  769MOL0     C 3747   9.933   6.248   5.182  0.4750 -0.0232 -0.1293
  769MOL0     H 3748   9.533   5.992   5.321  0.2663 -1.2487 -0.4259
  769MOL0     H 3749   9.296   5.916   5.271 -0.4968  0.4739 -0.1317
  769MOL0     H 3750   9.031   5.861   5.014 -1.0283 -0.2967  1.1828
  769MOL0     H 3751   9.166   5.822   5.104  0.9298  0.5701  1.3246
  769MOL0     H 3752   8.949   5.784   5.229 -2.1936  1.1334  3.5850
  769MOL0     H 3753   9.075   5.882   5.306  0.1092  0.7838 -0.0697
  769MOL0     H 3754   8.976   6.101   5.245  2.0620 -0.7573  0.4889
  769MOL0     H 3755   8.835   6.011   5.179  0.8270 -1.1121 -0.5193
  769MOL0     H 3756   8.814   5.911   5.412  2.1268 -1.2079 -0.8693
  769MOL0     H 3757   8.942   6.028   5.465  0.1244  0.4002  0.7066
  769MOL0     H 3758   8.809   6.213   5.413 -0.9222  0.0859 -1.4610
  769MOL0     H 3759   8.677   6.116   5.346  0.4549 -2.6023 -0.4445
  769MOL0     H 3760   8.645   6.030   5.586 -0.3795  0.5166  1.4801
  769MOL0     H 3761   8.757   6.153   5.633  0.9102 -1.5551 -0.8260
  769MOL0     H 3762   8.602   6.324   5.557  1.1952 -0.6574  0.8438
  769MOL0     H 3763   8.510   6.225   5.460 -0.2269 -0.0858  0.2490
  769MOL0     H 3764   8.533   6.182   5.767 -0.3892 -2.2140 -0.3599
  769MOL0     H 3765   8.437   6.090   5.650  1.3251 -0.3271 -4.5885
  769MOL0     H 3766   8.461   6.457   5.791 -2.5365  1.3357  3.5688
  769MOL0     H 3767   8.303   6.672   5.745 -0.8293  2.0460 -1.9625
  769MOL0     H 3768   8.179   6.646   5.623 -0.1173 -1.2859 -0.7198
  769MOL0     H 3769   8.090   6.732   5.835 -0.4673  0.2763 -3.0738
  769MOL0     H 3770   8.174   6.599   5.928  3.3089  1.9557 -1.6764
  769MOL0     H 3771   8.013   6.438   5.827 -0.8763  0.0951  0.4472
  769MOL0     H 3772   7.951   6.565   5.724 -1.7056 -1.6396 -0.1330
  769MOL0     H 3773   7.783   6.543   5.884  0.9439 -1.9907 -0.7121
  769MOL0     H 3774   7.859   6.697   5.891  0.0302 -0.0601  0.0084
  769MOL0     H 3775   7.633   6.652   6.004 -1.2790 -1.9374  0.1495
  769MOL0     H 3776   7.374   6.746   6.187  0.4272 -1.3235  0.8786
  769MOL0     H 3777   7.461   6.904   6.195 -1.5715  0.6153 -0.0683
  769MOL0     H 3778   7.447   6.797   6.050 -1.0370 -0.4576  0.6031
  769MOL0     H 3779   7.283   6.662   6.663  2.1898  1.5406  1.3100
  769MOL0     H 3780   7.072   6.760   6.739  0.5390 -3.6956 -0.8528
  769MOL0     H 3781   6.840   6.737   6.651 -0.1395 -0.7362  1.3157
  769MOL0     H 3782   6.874   6.839   6.795 -0.9704 -0.6268 -0.4186
  769MOL0     H 3783   6.693   6.987   6.704  1.0823  0.2920 -1.7793
  769MOL0     H 3784   6.651   6.881   6.587 -0.5825  0.1646  0.5793
  769MOL0     H 3785   6.664   6.795   6.879 -0.5350  1.0177  0.9064
  769MOL0     H 3786   6.603   6.704   6.743  1.8231  0.2965 -0.2693
  769MOL0     H 3787   6.501   6.958   6.893 -0.2593  0.2403  0.4182
  769MOL0     H 3788   6.467   6.941   6.719  2.5274  0.9239  1.1244
  769MOL0     H 3789   6.373   6.760   6.951  3.3615  0.5744  1.2280
  769MOL0     H 3790   6.362   6.718   6.778 -0.7031  1.5975 -0.9909
  769MOL0     H 3791   6.267   6.986   6.867  1.5790 -0.6147  1.0796
  769MOL0     H 3792   6.188   6.874   6.744  0.0444 -1.7499 -0.2931
  769MOL0     H 3793   6.193   6.845   7.045  2.8129  1.6820 -1.9251
  769MOL0     H 3794   6.110   6.730   6.945  2.1481 -0.4433  1.2592
  769MOL0     H 3795   6.000   6.981   6.864  0.7674 -0.2591 -1.4416
  769MOL0     H 3796   6.010   6.983   7.047 -1.9500 -0.7575  0.9728
  769MOL0     H 3797   7.060   7.019   6.405 -0.9426  0.6244  0.6569
  769MOL0     H 3798   7.251   6.940   6.319 -0.0226 -0.8473 -0.0851
  769MOL0     H 3799   7.749   6.676   6.487  0.7963 -2.1640 -0.3906
  769MOL0     H 3800   7.924   6.603   6.316 -0.6350  0.6731  0.9716
  769MOL0     H 3801   9.281   6.207   4.953 -0.9670 -1.9514 -0.1390
  769MOL0     H 3802   9.497   6.276   5.005  0.4634 -1.3867 -1.9873
  769MOL0     H 3803   9.814   6.553   5.119 -1.1688 -0.2284 -0.0563
  769MOL0     H 3804  10.036   6.571   5.018 -1.9848 -1.7870 -4.0841
  769MOL0     H 3805  10.269   6.515   4.895  0.2945 -0.9784 -0.2375
  769MOL0     H 3806  10.248   6.618   5.043  2.5145  0.7598  0.0325
  769MOL0     H 3807  10.467   6.628   4.971  0.3018 -1.0713 -0.5580
  769MOL0     H 3808  10.480   6.458   4.934 -2.1660 -1.2510  0.5320
  769MOL0     H 3809  10.474   6.416   5.185 -1.6657  1.3148  0.1636
  769MOL0     H 3810  10.453   6.594   5.199  0.5507  0.4839  0.0057
  769MOL0     H 3811  10.698   6.545   5.250  1.4888 -0.5656  0.0266
  769MOL0     H 3812  10.690   6.609   5.085 -0.8575  0.0338  0.3575
  769MOL0     H 3813  10.797   6.208   5.008  0.4185 -0.6194 -1.1690
  769MOL0     H 3814  10.129   6.176   5.160 -0.4422  0.1403 -0.4218
  769MOL0     H 3815   9.910   6.151   5.226 -0.1395  0.2508  0.1593
  770MOL0     O 3816   2.661   1.834   8.652  0.2412 -0.7626  0.2780
  770MOL0     C 3817   2.661   1.922   8.739 -0.4912  0.0972  0.2778
  770MOL0     O 3818   2.557   1.958   8.822  0.1161 -0.0630  0.0235
  770MOL0     C 3819   2.453   1.874   8.813  0.5920  0.4372  0.9919
  770MOL0     C 3820   2.457   1.751   8.879  0.1354  0.7380 -0.9298
  770MOL0     C 3821   2.340   1.675   8.890 -0.1527 -0.6256 -0.8607
  770MOL0     C 3822   2.217   1.720   8.838  0.3882  0.5957 -0.1880
  770MOL0     O 3823   2.099   1.653   8.835  0.7713 -1.0536  0.5634
  770MOL0     C 3824   2.084   1.526   8.906  0.9330  0.2220 -0.3977
  770MOL0     C 3825   1.961   1.448   8.846 -1.0775 -0.2846  0.6883
  770MOL0     C 3826   1.822   1.493   8.894 -0.4688 -0.3708 -0.6006
  770MOL0     C 3827   1.700   1.415   8.844  0.5142 -0.1077 -0.3967
  770MOL0     C 3828   1.710   1.270   8.890 -0.3295 -0.6263  0.0024
  770MOL0     C 3829   1.566   1.193   8.895 -0.3760  0.0147 -0.4991
  770MOL0     C 3830   1.588   1.052   8.938 -0.2969  0.0330 -0.6496
  770MOL0     C 3831   1.592   0.958   8.813 -0.8867  0.1454  1.0843
  770MOL0     N 3832   1.466   0.943   8.740  0.5092  0.3681 -0.2322
  770MOL0     C 3833   1.336   0.974   8.783  0.8962  0.3145 -0.0174
  770MOL0     C 3834   1.250   0.930   8.687 -0.3505 -0.2157  0.7979
  770MOL0     C 3835   1.103   0.950   8.702  0.4428 -0.2245  1.1622
  770MOL0     C 3836   1.044   0.933   8.848  0.1428 -0.1095  0.2792
  770MOL0     C 3837   1.088   0.804   8.913 -0.6029 -0.2729 -0.2292
  770MOL0     C 3838   1.095   0.798   9.074  0.3532 -0.2214  0.1395
  770MOL0     O 3839   1.040   0.674   9.127  0.5861  0.5881 -0.6784
  770MOL0     C 3840   0.904   0.663   9.156 -0.0618  0.4112 -0.1320
  770MOL0     C 3841   0.812   0.745   9.096  0.5024 -0.6626  0.3971
  770MOL0     C 3842   0.674   0.728   9.114  0.2516  0.8954 -0.7427
  770MOL0     C 3843   0.592   0.842   9.066  0.5678  0.1669 -0.7099
  770MOL0     C 3844   0.627   0.607   9.172  0.0888  0.9959  0.4473
  770MOL0     C 3845   0.487   0.562   9.188  0.1500 -0.7252 -0.6336
  770MOL0     O 3846   0.462   0.463   9.281 -0.9195  0.5645 -0.0232
  770MOL0     C 3847   0.340   0.413   9.319 -1.1813 -0.0735  0.1619
  770MOL0     C 3848   0.331   0.374   9.455 -0.2710 -0.3082 -0.3179
  770MOL0     C 3849   0.210   0.320   9.506 -0.4946 -0.3494  0.1448
  770MOL0     C 3850   0.107   0.294   9.423  0.7234 -0.8409 -0.2042
  770MOL0     O 3851  -0.016   0.280   9.487 -0.4720 -1.1538  0.3359
  770MOL0     C 3852  -0.143   0.263   9.420  0.0605  0.5460 -1.0557
  770MOL0     C 3853  -0.252   0.180   9.512 -0.9965  0.4952  0.6106
  770MOL0     C 3854  -0.393   0.213   9.467 -0.9274  0.2774 -0.3610
  770MOL0     C 3855  -0.498   0.153   9.560 -0.5674  0.8030  1.2007
  770MOL0     C 3856  -0.633   0.161   9.501  0.7273 -0.1640 -0.2158
  770MOL0     C 3857  -0.733   0.125   9.622 -0.3512 -0.3802  0.5426
  770MOL0     C 3858  -0.873   0.180   9.607 -0.5315  0.3765  0.0114
  770MOL0     C 3859  -0.940   0.186   9.744  0.0145 -0.4665  0.4133
  770MOL0    Cl 3860  -1.098   0.262   9.736  0.0674 -0.3059 -0.2082
  770MOL0     C 3861   0.124   0.314   9.284  0.2666  0.1638  0.1269
  770MOL0     C 3862   0.233   0.376   9.229  0.3871 -0.4914 -0.9711
  770MOL0     O 3863   0.397   0.612   9.117  0.0840 -0.2248 -0.2610
  770MOL0     C 3864   0.722   0.515   9.221 -0.1395 -0.1519  0.3731
  770MOL0     C 3865   0.862   0.541   9.217 -0.5063 -0.0663 -0.4006
  770MOL0     N 3866   1.323   0.878   8.581 -0.4252  0.5394 -0.3069
  770MOL0     N 3867   1.452   0.876   8.621 -0.0400 -0.3073  0.4889
  770MOL0     C 3868   2.216   1.843   8.765  0.4625  0.5508  0.5995
  770MOL0     C 3869   2.330   1.921   8.750  0.2912 -0.1770 -0.0033
  770MOL0     C 3870   2.789   1.989   8.770  0.2503 -0.1128  0.4433
  770MOL0     C 3871   2.786   2.110   8.836 -0.4263 -0.1680 -1.0644
  770MOL0     C 3872   2.905   2.166   8.885 -0.5020 -0.0470 -0.0056
  770MOL0     C 3873   3.028   2.103   8.869 -0.3345  0.0574  0.1369
  770MOL0     O 3874   3.140   2.162   8.923 -0.0205  0.4206 -0.1112
  770MOL0     C 3875   3.273   2.100   8.913 -0.0636  0.0092 -0.4045
  770MOL0     C 3876   3.350   2.154   8.799 -0.1036  0.1847  0.8718
  770MOL0     C 3877   3.343   2.308   8.793  0.0761 -0.3274 -1.0293
  770MOL0     C 3878   3.414   2.384   8.902  0.3418  0.1153  0.1888
  770MOL0     C 3879   3.546   2.326   8.945  0.2328 -0.0968 -0.2313
  770MOL0     C 3880   3.653   2.296   8.984  0.8067  0.9990  0.4906
  770MOL0     C 3881   3.034   1.994   8.775 -0.4066  0.0075  0.8304
  770MOL0     C 3882   2.915   1.936   8.733 -0.5476  0.0570 -0.1358
  770MOL0     H 3883   2.548   1.719   8.929 -0.7962  0.1162  0.4400
  770MOL0     H 3884   2.345   1.580   8.942 -0.4454 -0.8985 -1.3188
  770MOL0     H 3885   2.173   1.467   8.881  0.0738 -3.6318  4.2023
  770MOL0     H 3886   2.084   1.528   9.015  4.1591 -1.1378 -0.2444
  770MOL0     H 3887   1.968   1.442   8.737  0.8555  0.2047  0.7463
  770MOL0     H 3888   1.971   1.345   8.880 -1.8864 -0.2427  1.0832
  770MOL0     H 3889   1.827   1.493   9.003  2.0291  0.7970 -0.6626
  770MOL0     H 3890   1.814   1.595   8.855 -2.2671 -1.1736 -2.5616
  770MOL0     H 3891   1.616   1.456   8.901  1.5968 -0.2988  1.4030
  770MOL0     H 3892   1.681   1.427   8.737  0.1839  1.6189 -0.1784
  770MOL0     H 3893   1.774   1.210   8.824  2.0706  1.8435 -0.1130
  770MOL0     H 3894   1.755   1.273   8.990 -0.2787 -1.5736  0.0139
  770MOL0     H 3895   1.510   1.232   8.981 -1.5037 -0.0800 -1.1695
  770MOL0     H 3896   1.511   1.201   8.801 -0.0595  0.2443 -0.6667
  770MOL0     H 3897   1.687   1.045   8.985  0.1943 -0.8335 -1.7516
  770MOL0     H 3898   1.508   1.026   9.007  1.5198  1.8173  2.3260
  770MOL0     H 3899   1.630   0.857   8.833  0.5939  0.2153 -0.9903
  770MOL0     H 3900   1.662   1.003   8.742  0.0016  0.1485  1.9524
  770MOL0     H 3901   1.299   1.023   8.873 -2.2990 -0.4125 -0.8156
  770MOL0     H 3902   1.088   1.051   8.664  0.6845 -1.0989 -1.4986
  770MOL0     H 3903   1.046   0.878   8.642  1.2305 -0.1806  0.3264
  770MOL0     H 3904   0.939   0.958   8.834  0.4132  1.6642  1.1120
  770MOL0     H 3905   1.078   1.016   8.911 -0.0078 -1.2213  1.9101
  770MOL0     H 3906   1.192   0.781   8.892  0.1659  1.9027  0.9172
  770MOL0     H 3907   1.031   0.721   8.869 -1.6877  0.7048 -0.7197
  770MOL0     H 3908   1.041   0.882   9.117  0.5265 -0.0849  0.0892
  770MOL0     H 3909   1.201   0.794   9.102  0.9932 -0.6909 -2.1558
  770MOL0     H 3910   0.837   0.832   9.038 -3.2098  0.6490  0.5000
  770MOL0     H 3911   0.651   0.934   9.070  1.3618 -0.3688  0.4702
  770MOL0     H 3912   0.553   0.817   8.967 -3.2775 -2.1725  1.1234
  770MOL0     H 3913   0.509   0.854   9.136  1.0295 -1.5524  0.1961
  770MOL0     H 3914   0.409   0.399   9.526 -0.4660 -0.8430  0.0982
  770MOL0     H 3915   0.203   0.308   9.613  2.0550  2.7094  0.8028
  770MOL0     H 3916  -0.191   0.361   9.407  0.5795  1.0447  0.4932
  770MOL0     H 3917  -0.136   0.214   9.323 -0.3388 -1.9128  0.1002
  770MOL0     H 3918  -0.224   0.074   9.509 -0.6532  0.5415  1.6232
  770MOL0     H 3919  -0.234   0.217   9.614 -1.1583  0.8635  0.5068
  770MOL0     H 3920  -0.405   0.176   9.365 -2.5072 -1.7853  0.5064
  770MOL0     H 3921  -0.410   0.321   9.465 -0.7365  0.3604  1.1778
  770MOL0     H 3922  -0.473   0.048   9.581 -0.5214  0.0501 -2.1157
  770MOL0     H 3923  -0.496   0.205   9.657  2.1624  1.0895  1.0559
  770MOL0     H 3924  -0.653   0.099   9.413 -1.4266  1.7409 -1.1605
  770MOL0     H 3925  -0.643   0.265   9.470  0.8367 -0.5983 -1.8211
  770MOL0     H 3926  -0.733   0.017   9.642 -1.4568 -0.9599 -2.1068
  770MOL0     H 3927  -0.692   0.180   9.707 -0.0067  0.6149 -0.2440
  770MOL0     H 3928  -0.931   0.126   9.531  1.1484  0.8850 -1.7392
  770MOL0     H 3929  -0.865   0.279   9.561 -0.1446  0.1033 -0.5325
  770MOL0     H 3930  -0.877   0.235   9.819 -0.3547 -0.3989  0.6897
  770MOL0     H 3931  -0.948   0.087   9.791 -0.1252  0.6514  2.9447
  770MOL0     H 3932   0.039   0.285   9.224  0.0046  0.2638  0.4442
  770MOL0     H 3933   0.249   0.379   9.122 -1.6623  0.5319 -1.2894
  770MOL0     H 3934   0.683   0.419   9.256 -1.0634 -0.2692 -0.9316
  770MOL0     H 3935   0.943   0.480   9.255 -1.2628  0.8294  3.0267
  770MOL0     H 3936   2.120   1.863   8.718 -0.2336 -1.3070  1.1686
  770MOL0     H 3937   2.330   2.015   8.696 -0.8904  1.4159  2.5607
  770MOL0     H 3938   2.691   2.156   8.863 -1.3037 -2.3935 -0.1250
  770MOL0     H 3939   2.911   2.256   8.945  1.5749 -0.2052  0.0798
  770MOL0     H 3940   3.329   2.115   9.005 -1.5643 -1.4348  0.8149
  770MOL0     H 3941   3.270   1.993   8.894 -0.0442 -0.3587  1.5374
  770MOL0     H 3942   3.314   2.104   8.709 -0.5326 -2.6687  2.4895
  770MOL0     H 3943   3.453   2.122   8.815 -0.9271 -1.6003  3.2811
  770MOL0     H 3944   3.241   2.346   8.800  0.3976  0.2523  3.7141
  770MOL0     H 3945   3.391   2.340   8.700  0.1356  0.0235 -0.8773
  770MOL0     H 3946   3.344   2.384   8.986  0.5056 -1.6787  0.3654
  770MOL0     H 3947   3.433   2.489   8.877  1.9359  0.3169  2.0785
  770MOL0     H 3948   3.752   2.268   9.016  0.6679 -0.1069  0.0206
  770MOL0     H 3949   3.126   1.954   8.734 -0.6024  0.4401 -0.0624
  770MOL0     H 3950   2.926   1.839   8.686  2.9215  0.1440  0.2469
  771MOL0     O 3951   0.140   4.029  10.681 -0.2227 -0.3541 -0.2465
  771MOL0     C 3952   0.113   4.147  10.696 -0.2967 -0.0367  0.1657
  771MOL0     O 3953   0.170   4.251  10.633 -0.5514 -0.4448  0.6704
  771MOL0     C 3954   0.287   4.252  10.559 -0.3418 -0.1500  0.6513
  771MOL0     C 3955   0.385   4.152  10.557  0.3526  0.0254 -0.1122
  771MOL0     C 3956   0.486   4.157  10.465 -0.3762 -0.7540  0.0001
  771MOL0     C 3957   0.518   4.275  10.395  0.0844 -0.4912 -0.6200
  771MOL0     O 3958   0.624   4.289  10.316  1.1064 -0.6456  0.1866
  771MOL0     C 3959   0.730   4.198  10.325  0.1470 -0.2752 -1.0001
  771MOL0     C 3960   0.817   4.239  10.205  0.1151 -0.6459 -0.6495
  771MOL0     C 3961   0.756   4.181  10.075 -0.1244 -0.3634 -0.7956
  771MOL0     C 3962   0.839   4.206   9.962  0.3844 -0.9684  0.9290
  771MOL0     C 3963   0.772   4.172   9.825  0.3990 -0.0271  0.5255
  771MOL0     C 3964   0.766   4.020   9.796 -0.5097 -0.4454  0.2673
  771MOL0     C 3965   0.757   3.981   9.639 -0.0905 -0.4228 -0.4688
  771MOL0     C 3966   0.624   4.025   9.574  0.2607  0.4182 -0.0893
  771MOL0     N 3967   0.529   3.918   9.588  0.3411  0.3576 -0.0330
  771MOL0     C 3968   0.447   3.904   9.702  0.2447  0.5180 -0.7290
  771MOL0     C 3969   0.369   3.792   9.676  0.3297 -0.1516  0.2563
  771MOL0     C 3970   0.256   3.717   9.742 -0.3567  0.1224 -0.2710
  771MOL0     C 3971   0.184   3.805   9.836  1.1556  0.5295  0.4669
  771MOL0     C 3972   0.058   3.740   9.892 -0.2636 -0.1604  0.0138
  771MOL0     C 3973  -0.017   3.831   9.981  0.6437 -0.2589 -0.1309
  771MOL0     O 3974  -0.126   3.763  10.052 -0.4375 -0.7428 -0.6542
  771MOL0     C 3975  -0.230   3.842  10.099 -0.2815  0.4370  0.2033
  771MOL0     C 3976  -0.233   3.982  10.087  0.7026 -0.1902 -0.2756
  771MOL0     C 3977  -0.352   4.051  10.111 -0.2977  0.1262 -0.8916
  771MOL0     C 3978  -0.349   4.195  10.066  0.9283  0.3667 -0.2957
  771MOL0     C 3979  -0.466   3.984  10.169  0.5246  0.0694  0.3968
  771MOL0     C 3980  -0.591   4.050  10.205 -0.7195 -0.0659 -0.6654
  771MOL0     O 3981  -0.607   4.182  10.175 -0.0182  0.3205  0.0239
  771MOL0     C 3982  -0.723   4.252  10.194  0.2815 -0.8119 -0.2055
  771MOL0     C 3983  -0.735   4.362  10.102 -0.3482 -0.4524 -0.3406
  771MOL0     C 3984  -0.828   4.456  10.110  0.3671  0.0651  0.2278
  771MOL0     C 3985  -0.926   4.451  10.207  1.0639  0.4847 -0.5961
  771MOL0     O 3986  -1.019   4.549  10.228  0.6873  0.2382  0.2869
  771MOL0     C 3987  -1.024   4.664  10.138 -0.1023 -0.6521  0.5162
  771MOL0     C 3988  -1.123   4.768  10.192  0.5847  0.1266  0.0685
  771MOL0     C 3989  -1.071   4.845  10.314 -0.5427  0.0658 -0.3460
  771MOL0     C 3990  -1.154   4.968  10.348  0.0312  0.0832 -0.3003
  771MOL0     C 3991  -1.165   5.001  10.499  0.8282  0.3193 -0.3981
  771MOL0     C 3992  -1.256   4.906  10.577  0.3650  0.3658  0.4083
  771MOL0     C 3993  -1.312   4.970  10.703  0.0427 -0.5032 -0.1370
  771MOL0     C 3994  -1.214   4.977  10.820 -0.7897 -0.0758  0.3717
  771MOL0    Cl 3995  -1.172   4.813  10.909  0.1258 -0.5551 -0.2121
  771MOL0     C 3996  -0.924   4.340  10.300 -0.2129 -0.4754  0.6724
  771MOL0     C 3997  -0.824   4.244  10.295  1.4596 -0.0729  0.5797
  771MOL0     O 3998  -0.667   3.980  10.261  0.1741 -0.4394 -0.7782
  771MOL0     C 3999  -0.452   3.850  10.190 -0.7667 -0.4810  0.6565
  771MOL0     C 4000  -0.342   3.778  10.149  0.0954 -0.1938  0.0817
  771MOL0     N 4001   0.411   3.744   9.552  0.8153 -0.8736  0.8055
  771MOL0     N 4002   0.514   3.815   9.501 -0.0275 -0.0253  0.5045
  771MOL0     C 4003   0.423   4.379  10.394 -0.3352 -0.2086  0.4918
  771MOL0     C 4004   0.313   4.362  10.470  0.0508 -0.4812  0.2640
  771MOL0     C 4005  -0.004   4.172  10.776  0.8344 -0.0301 -0.1820
  771MOL0     C 4006  -0.102   4.084  10.822 -0.1980  0.1674  0.5512
  771MOL0     C 4007  -0.212   4.134  10.896 -0.4721 -0.2070  0.1793
  771MOL0     C 4008  -0.227   4.270  10.936 -0.3979  0.0518  1.2203
  771MOL0     O 4009  -0.338   4.304  11.013 -0.1311 -0.1842 -0.7952
  771MOL0     C 4010  -0.357   4.445  11.039  1.0289  0.7894  0.8887
  771MOL0     C 4011  -0.468   4.465  11.135  0.2658  0.9649  0.1621
  771MOL0     C 4012  -0.606   4.483  11.080  0.4912 -0.2614  0.0567
  771MOL0     C 4013  -0.709   4.507  11.196 -0.6385 -0.1238  0.9848
  771MOL0     C 4014  -0.842   4.551  11.149  0.5314 -0.1810 -1.3067
  771MOL0     C 4015  -0.942   4.591  11.103  0.6998 -0.9123 -0.1606
  771MOL0     C 4016  -0.125   4.355  10.891  0.3272 -0.5305 -0.7180
  771MOL0     C 4017  -0.023   4.312  10.812  0.0583  1.0120  0.3418
  771MOL0     H 4018   0.366   4.065  10.619  1.5580 -0.5165 -0.4561
  771MOL0     H 4019   0.552   4.075  10.442  4.2220  2.6516 -0.2420
  771MOL0     H 4020   0.790   4.202  10.417 -0.5402 -1.3403 -0.4890
  771MOL0     H 4021   0.699   4.095  10.307  0.2795 -0.2530 -1.3694
  771MOL0     H 4022   0.814   4.348  10.198 -1.2210 -0.5957  0.2877
  771MOL0     H 4023   0.916   4.197  10.224  0.5170  0.7034  0.3313
  771MOL0     H 4024   0.753   4.072  10.080 -0.5127 -0.3025  0.8511
  771MOL0     H 4025   0.656   4.221  10.057  0.2154  0.5038 -0.8133
  771MOL0     H 4026   0.861   4.313   9.963 -3.5383 -0.0259  1.2721
  771MOL0     H 4027   0.926   4.143   9.984  2.2190  0.8647 -0.7146
  771MOL0     H 4028   0.673   4.219   9.820  0.4461  0.1205  0.9919
  771MOL0     H 4029   0.824   4.221   9.742 -0.3144  0.1741  0.1830
  771MOL0     H 4030   0.845   3.958   9.839 -2.2363 -3.7510 -0.9905
  771MOL0     H 4031   0.675   3.983   9.846 -0.5966 -1.5226 -0.6783
  771MOL0     H 4032   0.835   4.044   9.594  0.1824 -1.1941 -1.1115
  771MOL0     H 4033   0.789   3.877   9.623 -1.6737 -1.0707  0.4264
  771MOL0     H 4034   0.630   4.036   9.465 -1.2048 -0.1334 -0.2439
  771MOL0     H 4035   0.580   4.116   9.615 -2.3976  0.0003 -1.7666
  771MOL0     H 4036   0.443   3.957   9.796  1.6499 -4.9844  2.9172
  771MOL0     H 4037   0.193   3.684   9.659  0.7233 -3.9840  0.3100
  771MOL0     H 4038   0.298   3.632   9.797 -1.6272  0.1602  0.7932
  771MOL0     H 4039   0.159   3.900   9.789 -0.8674  0.2385  0.8506
  771MOL0     H 4040   0.244   3.827   9.925  0.8422 -2.6586  1.6001
  771MOL0     H 4041   0.086   3.649   9.946 -0.2968  0.6491  1.4534
  771MOL0     H 4042  -0.009   3.710   9.810 -1.2469  0.3270  0.6140
  771MOL0     H 4043  -0.062   3.918   9.931 -1.1699  1.4823  4.0844
  771MOL0     H 4044   0.046   3.868  10.062 -1.3672  0.0244  1.3792
  771MOL0     H 4045  -0.147   4.039  10.056 -0.3647  1.6298 -0.0302
  771MOL0     H 4046  -0.269   4.206   9.992  1.1554 -5.5926 -1.4412
  771MOL0     H 4047  -0.446   4.220  10.021  0.8219 -0.3926 -0.5013
  771MOL0     H 4048  -0.338   4.259  10.154  0.9289  0.8031 -0.6107
  771MOL0     H 4049  -0.672   4.371  10.014  1.4726  2.0138  1.0838
  771MOL0     H 4050  -0.822   4.534  10.035  3.2764 -1.0635 -0.8483
  771MOL0     H 4051  -0.925   4.712  10.136 -0.1048 -0.6778 -0.2500
  771MOL0     H 4052  -1.049   4.623  10.041 -1.2938  0.6372  0.2506
  771MOL0     H 4053  -1.120   4.848  10.117 -0.4368  2.2440  2.1353
  771MOL0     H 4054  -1.223   4.727  10.208  1.2705 -1.7797 -0.3086
  771MOL0     H 4055  -0.967   4.878  10.305 -1.5478  2.9795 -4.5324
  771MOL0     H 4056  -1.078   4.776  10.398 -2.0994  0.7507  0.1211
  771MOL0     H 4057  -1.120   5.049  10.282  0.1943 -0.1127 -0.4597
  771MOL0     H 4058  -1.257   4.950  10.316 -1.0028  0.9780  2.3248
  771MOL0     H 4059  -1.209   5.101  10.491  2.2495  1.0391  0.3684
  771MOL0     H 4060  -1.072   5.017  10.554  0.0843  2.1489  0.4105
  771MOL0     H 4061  -1.334   4.877  10.507  1.5847  0.1502 -0.9049
  771MOL0     H 4062  -1.190   4.823  10.606 -2.2968 -1.1217  2.8181
  771MOL0     H 4063  -1.385   4.897  10.739 -0.3192 -1.3704 -2.4989
  771MOL0     H 4064  -1.364   5.065  10.691  1.5312  0.2485 -0.8574
  771MOL0     H 4065  -1.260   5.045  10.892 -1.9540  0.7480 -1.0914
  771MOL0     H 4066  -1.120   5.022  10.785 -0.5164 -1.6139 -0.9812
  771MOL0     H 4067  -0.998   4.344  10.380 -1.5103 -0.8351 -0.4813
  771MOL0     H 4068  -0.817   4.164  10.368  0.3107 -0.5994  0.1307
  771MOL0     H 4069  -0.537   3.786  10.215  0.5488 -4.4992 -3.6321
  771MOL0     H 4070  -0.330   3.671  10.162  0.1959 -0.0847  0.9192
  771MOL0     H 4071   0.446   4.468  10.336  2.8950 -1.4564 -0.3663
  771MOL0     H 4072   0.246   4.447  10.475  1.8824  1.0705 -0.4164
  771MOL0     H 4073  -0.113   3.978  10.801 -2.6156  0.1359  1.5977
  771MOL0     H 4074  -0.277   4.053  10.929  0.2719 -0.7665  0.3101
  771MOL0     H 4075  -0.267   4.478  11.093  1.1329  1.3886  0.3586
  771MOL0     H 4076  -0.370   4.498  10.945  0.8781 -0.6083  0.1049
  771MOL0     H 4077  -0.445   4.557  11.190 -0.1924 -0.1600  2.3326
  771MOL0     H 4078  -0.474   4.379  11.202  0.2045 -0.2674 -1.3742
  771MOL0     H 4079  -0.651   4.398  11.029 -2.7691 -1.0786  3.8266
  771MOL0     H 4080  -0.615   4.565  11.008 -4.3089 -0.9185 -0.4042
  771MOL0     H 4081  -0.663   4.582  11.261  0.3394 -3.9787  5.2001
  771MOL0     H 4082  -0.711   4.415  11.253  0.0518 -3.6627 -4.0150
  771MOL0     H 4083  -1.032   4.629  11.059  0.8487  0.4830  0.6483
  771MOL0     H 4084  -0.124   4.458  10.926 -0.4825 -1.0232  0.8588
  771MOL0     H 4085   0.054   4.379  10.773  0.9853 -0.9785 -1.4610
  772MOL0     O 4086   7.002   0.311  10.018  0.0520  0.2116 -0.3605
  772MOL0     C 4087   7.061   0.402   9.967 -0.3671  0.1063 -0.6886
  772MOL0     O 4088   7.010   0.522   9.930 -0.0917  0.1379 -0.6294
  772MOL0     C 4089   6.890   0.569   9.979  0.4184 -0.7536 -0.0799
  772MOL0     C 4090   6.857   0.698   9.919  0.0222  0.1344 -0.0864
  772MOL0     C 4091   6.733   0.759   9.942 -0.5583 -0.0458  0.1467
  772MOL0     C 4092   6.645   0.705  10.039  0.2791 -0.1361 -0.4337
  772MOL0     O 4093   6.520   0.759  10.059  0.3040 -0.7142  0.3488
  772MOL0     C 4094   6.483   0.787  10.196 -0.0419  0.5780  0.3038
  772MOL0     C 4095   6.328   0.794  10.203 -0.6153  0.6160 -0.7483
  772MOL0     C 4096   6.268   0.927  10.160  0.0361  0.5198  0.1709
  772MOL0     C 4097   6.119   0.925  10.192  0.5235 -0.6397 -0.4132
  772MOL0     C 4098   6.051   1.060  10.159 -0.3092  0.1521 -0.1028
  772MOL0     C 4099   6.032   1.075  10.011  0.2969  0.8641 -0.2174
  772MOL0     C 4100   5.979   1.219   9.988  0.0277  0.1999  0.1246
  772MOL0     C 4101   5.933   1.228   9.844  0.0223 -0.0780 -0.2845
  772MOL0     N 4102   5.886   1.361   9.822 -0.2631 -0.0389  0.0265
  772MOL0     C 4103   5.962   1.472   9.820  1.0942  0.2196 -0.1562
  772MOL0     C 4104   5.885   1.572   9.836  0.5374 -0.0191 -0.4758
  772MOL0     C 4105   5.925   1.713   9.826 -1.0796 -0.2595 -0.2065
  772MOL0     C 4106   6.014   1.747   9.701 -0.0408 -0.3054 -0.1160
  772MOL0     C 4107   5.943   1.721   9.562  0.9063 -0.1333 -0.2969
  772MOL0     C 4108   5.989   1.808   9.442  1.3159 -1.1368 -0.4700
  772MOL0     O 4109   6.127   1.817   9.449 -0.1776  0.2389 -0.0692
  772MOL0     C 4110   6.181   1.803   9.322 -0.0875 -0.3133 -0.4139
  772MOL0     C 4111   6.282   1.711   9.315  0.1304 -0.0439 -0.1000
  772MOL0     C 4112   6.361   1.712   9.199  0.5580  0.0908  0.2140
  772MOL0     C 4113   6.488   1.625   9.212  0.2980 -0.4706  0.2131
  772MOL0     C 4114   6.314   1.778   9.081 -0.0049  0.4670 -0.0025
  772MOL0     C 4115   6.389   1.781   8.953 -0.3410  0.4429  0.6690
  772MOL0     O 4116   6.515   1.737   8.956  0.4211  0.7382 -0.0482
  772MOL0     C 4117   6.585   1.738   8.833  0.7458  0.0635 -0.6109
  772MOL0     C 4118   6.695   1.818   8.809  1.2880 -0.2689  0.1183
  772MOL0     C 4119   6.770   1.807   8.692 -0.3095 -0.2103  0.8283
  772MOL0     C 4120   6.737   1.714   8.590 -0.8416  0.1211 -0.0403
  772MOL0     O 4121   6.812   1.688   8.485 -0.3111 -0.7450 -0.2936
  772MOL0     C 4122   6.933   1.765   8.448  0.3025  0.3155  0.7018
  772MOL0     C 4123   7.054   1.694   8.508 -0.9761 -0.0186 -0.9495
  772MOL0     C 4124   7.190   1.761   8.483  0.1331 -0.0655  0.0615
  772MOL0     C 4125   7.301   1.663   8.520 -0.2461  0.2205  0.0107
  772MOL0     C 4126   7.433   1.729   8.520  0.7926 -0.0336  0.8429
  772MOL0     C 4127   7.543   1.629   8.562  0.0471  0.6724 -0.5458
  772MOL0     C 4128   7.681   1.702   8.572 -0.0596 -0.2622 -0.3644
  772MOL0     C 4129   7.802   1.610   8.586  0.9736  0.2150  0.1150
  772MOL0    Cl 4130   7.836   1.525   8.422 -0.2033  0.1634 -0.3084
  772MOL0     C 4131   6.617   1.645   8.598 -0.2136  0.1876  0.1381
  772MOL0     C 4132   6.547   1.650   8.727 -0.4190 -0.3568  0.4094
  772MOL0     O 4133   6.334   1.840   8.863 -0.2262  0.4405  0.4023
  772MOL0     C 4134   6.195   1.860   9.090  0.0341 -0.1491 -0.3477
  772MOL0     C 4135   6.138   1.880   9.216 -0.4774 -0.0170  0.6019
  772MOL0     N 4136   5.760   1.533   9.855 -0.1643 -0.2223 -0.5859
  772MOL0     N 4137   5.762   1.402   9.857  0.4476 -0.2279 -0.0017
  772MOL0     C 4138   6.675   0.576  10.094  0.8703  0.0433  1.1543
  772MOL0     C 4139   6.792   0.510  10.063 -0.1112 -0.5257  0.1776
  772MOL0     C 4140   7.203   0.370   9.930  0.4743 -0.0360 -0.4099
  772MOL0     C 4141   7.288   0.481   9.930 -0.0036  1.1200 -0.0913
  772MOL0     C 4142   7.423   0.463   9.902 -0.2751  0.5985  0.9936
  772MOL0     C 4143   7.468   0.339   9.865  0.2838  0.4149 -0.0536
  772MOL0     O 4144   7.610   0.341   9.853  0.2710  0.1427  0.0030
  772MOL0     C 4145   7.677   0.219   9.825  0.4111  0.2634  0.5466
  772MOL0     C 4146   7.802   0.255   9.741  0.3053  0.2974  0.1846
  772MOL0     C 4147   7.882   0.122   9.712 -1.1167  0.0426  0.0285
  772MOL0     C 4148   8.015   0.140   9.632  0.8452  0.6612 -0.1681
  772MOL0     C 4149   8.126   0.190   9.711 -0.1631 -0.3716 -0.1091
  772MOL0     C 4150   8.226   0.217   9.773 -0.1126 -0.9038  0.8108
  772MOL0     C 4151   7.386   0.225   9.868  0.0969 -0.1211 -0.1712
  772MOL0     C 4152   7.249   0.238   9.906 -0.4459 -0.2050  0.2197
  772MOL0     H 4153   6.930   0.742   9.852  1.7100 -0.4944  1.2232
  772MOL0     H 4154   6.691   0.842   9.886  0.6878 -0.2192 -1.0990
  772MOL0     H 4155   6.525   0.712  10.264  2.6830  0.5692 -1.2302
  772MOL0     H 4156   6.516   0.889  10.220 -2.6495  2.1635 -2.3232
  772MOL0     H 4157   6.284   0.712  10.146  0.2473 -0.7677  0.5028
  772MOL0     H 4158   6.303   0.767  10.306  0.2682  0.8742 -0.4512
  772MOL0     H 4159   6.315   1.009  10.216 -0.0785  1.9998 -1.7746
  772MOL0     H 4160   6.276   0.953  10.054 -1.3031 -0.7399 -0.2643
  772MOL0     H 4161   6.063   0.843  10.148 -0.6839 -1.5942  2.6148
  772MOL0     H 4162   6.107   0.912  10.300  2.0089 -1.1405 -0.2929
  772MOL0     H 4163   5.949   1.075  10.194 -0.5354 -0.2151 -0.5875
  772MOL0     H 4164   6.106   1.147  10.198  0.9995  0.9757 -3.3852
  772MOL0     H 4165   6.122   1.066   9.950 -1.2183 -2.3123 -2.2573
  772MOL0     H 4166   5.956   1.002   9.980  1.0113 -1.1569  2.4719
  772MOL0     H 4167   5.890   1.239  10.048 -0.9637  0.6603 -1.4330
  772MOL0     H 4168   6.050   1.300  10.001  0.2393  0.3024 -1.4070
  772MOL0     H 4169   5.851   1.156   9.840  0.5344 -0.9427  2.4513
  772MOL0     H 4170   6.018   1.203   9.779  0.0231  1.2818 -0.8339
  772MOL0     H 4171   6.070   1.473   9.807  1.1363  0.9053  0.2035
  772MOL0     H 4172   5.836   1.777   9.830 -0.8559  0.0464 -0.0660
  772MOL0     H 4173   5.978   1.737   9.919 -4.2079  0.9737  1.3977
  772MOL0     H 4174   6.115   1.706   9.714 -0.1032 -0.3647  0.1770
  772MOL0     H 4175   6.029   1.856   9.700  0.1324 -0.3008  1.0480
  772MOL0     H 4176   5.835   1.737   9.572  0.1325 -4.3949  0.0140
  772MOL0     H 4177   5.939   1.615   9.536 -0.2502  0.2481 -1.8068
  772MOL0     H 4178   5.942   1.907   9.443  1.6252 -0.9730 -1.2975
  772MOL0     H 4179   5.953   1.763   9.349 -0.3089  2.8127 -1.9828
  772MOL0     H 4180   6.306   1.654   9.404 -1.4638 -0.5847  0.0081
  772MOL0     H 4181   6.575   1.691   9.217  0.0513  0.0690 -1.7006
  772MOL0     H 4182   6.491   1.572   9.308  1.7650 -1.4135 -0.3283
  772MOL0     H 4183   6.494   1.552   9.131 -0.4214 -0.5964  0.2664
  772MOL0     H 4184   6.723   1.896   8.880  1.9677  1.0340 -1.5193
  772MOL0     H 4185   6.862   1.865   8.685 -1.3290  1.3625 -0.0878
  772MOL0     H 4186   6.942   1.750   8.340 -2.7744 -3.4380  0.7525
  772MOL0     H 4187   6.931   1.868   8.483 -0.9309  0.0163  1.5759
  772MOL0     H 4188   7.025   1.690   8.613 -0.2446  1.2726 -0.6749
  772MOL0     H 4189   7.061   1.587   8.485  0.4121 -0.1955  0.1766
  772MOL0     H 4190   7.208   1.854   8.536 -2.3086  1.3407 -1.4024
  772MOL0     H 4191   7.180   1.794   8.379 -1.3077  1.2856  0.5877
  772MOL0     H 4192   7.287   1.611   8.616  1.3488 -0.7980 -0.2616
  772MOL0     H 4193   7.300   1.576   8.454  1.7307  0.5581 -0.5346
  772MOL0     H 4194   7.416   1.821   8.576 -3.6261 -0.5423  0.7625
  772MOL0     H 4195   7.456   1.761   8.418 -3.1439 -1.5007 -0.7365
  772MOL0     H 4196   7.514   1.588   8.659  1.9516  3.3644  1.3136
  772MOL0     H 4197   7.537   1.540   8.499  0.6384 -0.9067  1.5263
  772MOL0     H 4198   7.661   1.770   8.656  0.4336 -1.0099  0.3789
  772MOL0     H 4199   7.700   1.776   8.494  0.5848  2.8973  2.5148
  772MOL0     H 4200   7.798   1.533   8.664 -2.2562 -0.0515 -0.1648
  772MOL0     H 4201   7.888   1.674   8.606  1.0724  0.9653 -2.3670
  772MOL0     H 4202   6.587   1.571   8.526  3.7455 -1.5807  0.0146
  772MOL0     H 4203   6.460   1.585   8.740 -1.0396  0.1558 -0.9770
  772MOL0     H 4204   6.166   1.926   9.009  0.9943 -0.7513 -1.2053
  772MOL0     H 4205   6.055   1.949   9.230 -2.1470 -1.4512 -1.5081
  772MOL0     H 4206   6.594   0.527  10.148  0.3623 -1.8220 -1.1561
  772MOL0     H 4207   6.813   0.413  10.107  4.2400  0.1639  0.0400
  772MOL0     H 4208   7.261   0.584   9.954 -1.1589  1.0407 -0.9498
  772MOL0     H 4209   7.495   0.544   9.910 -0.2439  0.8079 -0.9342
  772MOL0     H 4210   7.697   0.168   9.920  3.0332 -0.3834 -0.2876
  772MOL0     H 4211   7.615   0.158   9.759 -1.2232  2.3831  0.0099
  772MOL0     H 4212   7.869   0.321   9.797  1.8190 -1.1253  0.1312
  772MOL0     H 4213   7.789   0.326   9.659  0.8417  0.1277 -0.0548
  772MOL0     H 4214   7.827   0.048   9.654 -2.0762  0.8580 -0.1370
  772MOL0     H 4215   7.898   0.070   9.807 -0.8577 -0.1052 -0.0948
  772MOL0     H 4216   7.989   0.199   9.543 -0.0967  3.1707  1.6524
  772MOL0     H 4217   8.043   0.044   9.588 -2.8877 -0.3872 -0.6256
  772MOL0     H 4218   8.319   0.236   9.822  0.8943 -0.1167 -1.2736
  772MOL0     H 4219   7.425   0.127   9.842 -1.3813 -1.2901  1.7191
  772MOL0     H 4220   7.182   0.152   9.908  0.9889 -1.4228 -1.3915
  773MOL0     O 4221   2.507  10.599   8.874  0.0973 -0.3162  0.1594
  773MOL0     C 4222   2.585  10.693   8.862 -0.4200  0.4174  0.3330
  773MOL0     O 4223   2.613  10.772   8.750 -0.0984 -0.4072  0.3694
  773MOL0     C 4224   2.561  10.745   8.631 -0.6390  0.8145  0.0208
  773MOL0     C 4225   2.463  10.829   8.582  0.4304  0.7534  0.0416
  773MOL0     C 4226   2.395  10.804   8.464  0.2759  0.0242 -0.4800
  773MOL0     C 4227   2.429  10.689   8.392  0.6400  0.7264 -0.0652
  773MOL0     O 4228   2.373  10.659   8.271 -0.2179 -0.1789  0.1374
  773MOL0     C 4229   2.227  10.681   8.253  0.6595 -0.2524 -0.2259
  773MOL0     C 4230   2.189  10.573   8.149 -0.2142 -0.3245 -0.1109
  773MOL0     C 4231   2.045  10.530   8.126  0.7283 -0.1569  0.2045
  773MOL0     C 4232   1.957  10.632   8.062 -0.3596  0.4745 -0.4655
  773MOL0     C 4233   1.821  10.559   8.041  0.1126 -1.1254 -0.2407
  773MOL0     C 4234   1.714  10.651   7.983 -0.0776 -0.1188 -0.4398
  773MOL0     C 4235   1.572  10.594   7.985  0.0415  0.1353  0.4771
  773MOL0     C 4236   1.487  10.690   7.905  0.9868 -0.0389  1.1186
  773MOL0     N 4237   1.417  10.776   7.997  0.1587 -0.1259  0.2598
  773MOL0     C 4238   1.296  10.751   8.054 -0.1209  0.1605 -0.2156
  773MOL0     C 4239   1.279  10.861   8.127  0.2568 -0.2277  0.2621
  773MOL0     C 4240   1.160  10.895   8.201 -0.6104  0.2621 -0.0513
  773MOL0     C 4241   1.032  10.905   8.114 -0.5591 -0.2709  0.8478
  773MOL0     C 4242   0.906  10.935   8.194  0.1494 -0.3797  0.0038
  773MOL0     C 4243   0.793  10.960   8.088  0.1402  1.2916 -0.5562
  773MOL0     O 4244   0.704  11.045   8.154 -0.6708  0.0735 -0.3807
  773MOL0     C 4245   0.615  11.103   8.073 -0.6557 -0.1852 -0.3426
  773MOL0     C 4246   0.542  11.207   8.142  0.8981  0.5727 -0.1660
  773MOL0     C 4247   0.434  11.267   8.092 -0.7123 -1.0510 -0.1955
  773MOL0     C 4248   0.344  11.353   8.183 -0.1552 -0.5780 -0.3710
  773MOL0     C 4249   0.418  11.254   7.946  0.7110  0.6789  0.0927
  773MOL0     C 4250   0.334  11.347   7.868 -0.8207 -0.5841  0.5904
  773MOL0     O 4251   0.306  11.469   7.917  0.0344  0.0895  0.6236
  773MOL0     C 4252   0.220  11.550   7.844 -0.5652  0.5867  0.3548
  773MOL0     C 4253   0.266  11.633   7.740  0.7146  0.8250  0.2832
  773MOL0     C 4254   0.173  11.732   7.691 -0.1408 -0.8083 -0.7548
  773MOL0     C 4255   0.040  11.741   7.736  0.3953 -0.1947 -0.4962
  773MOL0     O 4256  -0.040  11.844   7.694 -0.1370  0.1373  0.2050
  773MOL0     C 4257  -0.183  11.841   7.711  1.1173  0.4523  0.3221
  773MOL0     C 4258  -0.209  11.896   7.841  0.2351  0.4098 -0.2488
  773MOL0     C 4259  -0.354  11.907   7.877  0.4415 -0.0869 -0.1457
  773MOL0     C 4260  -0.411  12.010   7.785 -0.1169 -1.0793  0.4857
  773MOL0     C 4261  -0.551  12.064   7.804  0.1894  0.0644  0.1823
  773MOL0     C 4262  -0.603  12.142   7.678  0.0920 -0.0789 -0.3688
  773MOL0     C 4263  -0.758  12.153   7.648 -0.1170 -0.6276 -0.2335
  773MOL0     C 4264  -0.858  12.177   7.757  0.3045  0.1584 -0.5662
  773MOL0    Cl 4265  -1.013  12.147   7.683  0.0716  0.1380  0.1520
  773MOL0     C 4266   0.006  11.647   7.836  0.1168  0.0492 -1.0169
  773MOL0     C 4267   0.094  11.555   7.881 -0.0257  0.2964 -0.1259
  773MOL0     O 4268   0.284  11.299   7.766  0.2116  0.0495 -1.3367
  773MOL0     C 4269   0.490  11.152   7.877  0.0143  0.4760 -0.9313
  773MOL0     C 4270   0.593  11.083   7.939  0.1209 -0.8629 -1.3476
  773MOL0     N 4271   1.390  10.952   8.119 -0.0409  0.6301 -0.5224
  773MOL0     N 4272   1.472  10.886   8.048 -0.4911  0.5746 -0.5020
  773MOL0     C 4273   2.532  10.608   8.434 -0.0218 -0.6465  0.6225
  773MOL0     C 4274   2.595  10.632   8.559  1.0966  0.0625 -0.2804
  773MOL0     C 4275   2.660  10.726   8.985  0.0964 -0.6803  0.3453
  773MOL0     C 4276   2.783  10.776   8.983  0.0155  0.1626 -0.5271
  773MOL0     C 4277   2.854  10.806   9.095  0.1993  0.5431 -0.2617
  773MOL0     C 4278   2.791  10.803   9.220  0.5006 -0.0662 -0.1617
  773MOL0     O 4279   2.851  10.832   9.335 -0.0892  0.1434 -0.2604
  773MOL0     C 4280   2.993  10.795   9.347  0.1428  0.4897  0.8503
  773MOL0     C 4281   3.029  10.734   9.475  0.6300  0.1890  0.2138
  773MOL0     C 4282   3.179  10.714   9.503  0.1956 -0.7038 -0.2165
  773MOL0     C 4283   3.214  10.566   9.465 -0.6274 -0.2475  0.0695
  773MOL0     C 4284   3.358  10.555   9.482  0.4136  0.5733  0.7508
  773MOL0     C 4285   3.473  10.533   9.518  0.5394  0.3165  0.0282
  773MOL0     C 4286   2.663  10.728   9.228  0.9685 -0.3189  0.2113
  773MOL0     C 4287   2.606  10.686   9.107  0.4058 -0.0599 -0.1632
  773MOL0     H 4288   2.422  10.913   8.636 -2.9454 -1.7040  1.6758
  773MOL0     H 4289   2.328  10.882   8.429  4.2268  2.7247 -2.9323
  773MOL0     H 4290   2.162  10.676   8.340  1.0412  0.4972  0.1083
  773MOL0     H 4291   2.206  10.781   8.214 -3.1972  0.7289  3.6392
  773MOL0     H 4292   2.228  10.608   8.053  3.0330 -2.1401  0.4084
  773MOL0     H 4293   2.241  10.480   8.172 -4.4227 -2.3615  2.6164
  773MOL0     H 4294   2.042  10.447   8.054  3.7664  0.2727 -0.5587
  773MOL0     H 4295   2.004  10.511   8.225  2.8376  1.0416  1.3848
  773MOL0     H 4296   1.935  10.715   8.131 -0.4615 -0.5212  0.7259
  773MOL0     H 4297   1.994  10.680   7.971 -1.0671  2.6267  0.3128
  773MOL0     H 4298   1.825  10.468   7.980  0.1296 -2.6700  1.9307
  773MOL0     H 4299   1.788  10.531   8.142 -0.3337  1.8539  0.5324
  773MOL0     H 4300   1.713  10.749   8.031  2.0586 -0.5002  0.5103
  773MOL0     H 4301   1.751  10.656   7.880  0.8846 -2.2184 -0.2592
  773MOL0     H 4302   1.573  10.495   7.940  1.4047  0.7851 -0.9956
  773MOL0     H 4303   1.541  10.587   8.090  0.4461  0.1010  0.5984
  773MOL0     H 4304   1.412  10.633   7.850  1.5241 -0.7192  1.0827
  773MOL0     H 4305   1.547  10.737   7.827 -0.2473  0.4293  0.4195
  773MOL0     H 4306   1.236  10.662   8.045  2.0490 -1.4097 -0.0871
  773MOL0     H 4307   1.135  10.825   8.281 -0.6228 -0.6139 -0.8000
  773MOL0     H 4308   1.176  10.990   8.253 -0.9932  1.1823 -1.5643
  773MOL0     H 4309   0.995  10.815   8.063 -2.2537  0.0527  1.4212
  773MOL0     H 4310   1.048  10.980   8.037  1.8649 -0.9127  0.6334
  773MOL0     H 4311   0.920  11.016   8.267  0.7567 -0.1856 -0.3265
  773MOL0     H 4312   0.878  10.846   8.251  1.4186 -0.3284  0.7408
  773MOL0     H 4313   0.746  10.871   8.046  0.7691  1.5658 -1.8852
  773MOL0     H 4314   0.833  11.001   7.995  0.9942 -0.5961 -1.0659
  773MOL0     H 4315   0.559  11.221   8.249  1.8809  0.1157 -0.2541
  773MOL0     H 4316   0.244  11.356   8.140 -1.4973  2.4574  2.5070
  773MOL0     H 4317   0.343  11.313   8.285 -0.1281 -0.6155 -0.3850
  773MOL0     H 4318   0.365  11.461   8.186 -2.1511 -0.0401 -2.5849
  773MOL0     H 4319   0.370  11.638   7.710  0.6830  0.1023  0.0368
  773MOL0     H 4320   0.195  11.807   7.616 -1.6929 -0.3649 -0.7976
  773MOL0     H 4321  -0.228  11.904   7.634  1.8698  2.1267  1.1838
  773MOL0     H 4322  -0.214  11.737   7.704 -0.7067  1.1071 -2.7394
  773MOL0     H 4323  -0.164  11.832   7.917 -0.6147 -0.5422 -0.5347
  773MOL0     H 4324  -0.140  11.982   7.843  1.4216 -0.4882  2.7551
  773MOL0     H 4325  -0.368  11.954   7.975 -0.8095  3.0109 -1.6840
  773MOL0     H 4326  -0.404  11.810   7.884 -0.0385  0.2237  1.0997
  773MOL0     H 4327  -0.342  12.096   7.782  0.3361 -1.4372  0.5290
  773MOL0     H 4328  -0.409  11.965   7.685 -1.1477 -1.6555  0.7243
  773MOL0     H 4329  -0.558  12.128   7.892 -0.5293  1.0216 -0.5476
  773MOL0     H 4330  -0.616  11.977   7.819  1.3995 -0.9586 -0.3211
  773MOL0     H 4331  -0.555  12.240   7.685  2.7057 -1.3444  0.7685
  773MOL0     H 4332  -0.559  12.085   7.596  0.2220 -0.5106 -0.0046
  773MOL0     H 4333  -0.787  12.053   7.612 -1.8515  0.0454 -0.8371
  773MOL0     H 4334  -0.771  12.227   7.569 -0.5143  1.3778  1.6094
  773MOL0     H 4335  -0.843  12.280   7.789 -0.1566 -0.1867  0.8732
  773MOL0     H 4336  -0.839  12.107   7.839  3.0160 -1.4152 -2.3724
  773MOL0     H 4337  -0.083  11.658   7.898  2.0506  0.9232  1.7665
  773MOL0     H 4338   0.067  11.491   7.965  1.7498 -0.8379 -0.3606
  773MOL0     H 4339   0.486  11.142   7.769 -0.6125  2.6706 -1.1441
  773MOL0     H 4340   0.660  11.021   7.880  0.7978  0.3837 -1.9096
  773MOL0     H 4341   2.573  10.528   8.374  0.8609  0.6684 -0.5868
  773MOL0     H 4342   2.666  10.563   8.602  2.8167  1.0595 -1.4353
  773MOL0     H 4343   2.845  10.783   8.894  1.9086  1.7957  0.8297
  773MOL0     H 4344   2.957  10.838   9.085 -0.3293  2.1082 -0.8931
  773MOL0     H 4345   3.027  10.729   9.267 -0.4443  0.6957  0.4142
  773MOL0     H 4346   3.053  10.887   9.339  0.7083  0.2365  2.0883
  773MOL0     H 4347   2.973  10.641   9.489 -0.2994  0.5719 -0.8631
  773MOL0     H 4348   2.994  10.801   9.554 -1.8077 -0.3706 -0.3077
  773MOL0     H 4349   3.197  10.727   9.611 -1.5255 -1.2828  0.1734
  773MOL0     H 4350   3.246  10.787   9.456 -0.7127  0.3937  0.1347
  773MOL0     H 4351   3.187  10.548   9.360  1.8339  0.9608 -0.8551
  773MOL0     H 4352   3.159  10.499   9.532 -0.8862 -0.1830 -0.0766
  773MOL0     H 4353   3.578  10.526   9.541  0.6374  0.9122 -0.2304
  773MOL0     H 4354   2.625  10.705   9.327  0.1437 -0.1657 -0.0598
  773MOL0     H 4355   2.512  10.632   9.117 -0.8386  1.7614 -1.3394
  774MOL0     O 4356   1.883   6.353  11.229  0.8889  0.4233  0.8374
  774MOL0     C 4357   1.940   6.441  11.288  0.1977  0.4534 -0.9110
  774MOL0     O 4358   1.904   6.569  11.291 -0.0584  0.9564 -0.0616
  774MOL0     C 4359   1.769   6.592  11.271 -0.1039 -0.7294 -0.3939
  774MOL0     C 4360   1.675   6.526  11.352  0.6931 -0.2534  0.2518
  774MOL0     C 4361   1.538   6.542  11.325  0.3309  0.0869  0.8429
  774MOL0     C 4362   1.494   6.640  11.233  0.3524  0.0296 -0.5060
  774MOL0     O 4363   1.367   6.643  11.186 -0.3789 -0.0929 -0.5084
  774MOL0     C 4364   1.262   6.661  11.299  0.1532  0.0601  1.1889
  774MOL0     C 4365   1.132   6.700  11.218  0.0593 -0.0951 -0.3190
  774MOL0     C 4366   1.018   6.719  11.322 -0.6831  0.1155  0.3478
  774MOL0     C 4367   0.896   6.790  11.260 -0.0882  0.4072 -0.7935
  774MOL0     C 4368   0.779   6.762  11.349 -0.0906 -0.5204  0.5554
  774MOL0     C 4369   0.647   6.824  11.299  0.4279  0.1692 -0.2001
  774MOL0     C 4370   0.534   6.803  11.405  0.9388 -1.0766 -1.1385
  774MOL0     C 4371   0.402   6.871  11.353 -0.5503 -0.3466 -0.3314
  774MOL0     N 4372   0.303   6.784  11.302  0.2798  0.5716  0.3617
  774MOL0     C 4373   0.306   6.739  11.175  1.0127  0.2004 -0.2228
  774MOL0     C 4374   0.197   6.667  11.162 -0.7675 -0.1455 -0.2904
  774MOL0     C 4375   0.148   6.587  11.044 -0.2089  0.8886 -0.0745
  774MOL0     C 4376   0.123   6.435  11.080  0.5312 -0.2575  0.3828
  774MOL0     C 4377   0.082   6.358  10.951 -0.2236  0.0812 -0.8050
  774MOL0     C 4378   0.005   6.231  10.979 -0.4302 -0.9331  0.6970
  774MOL0     O 4379  -0.122   6.279  11.013  0.2683  0.1094  0.2689
  774MOL0     C 4380  -0.231   6.190  11.012 -0.5101  0.6821 -0.4091
  774MOL0     C 4381  -0.221   6.055  10.969  0.1379 -0.0084  0.8783
  774MOL0     C 4382  -0.336   5.979  10.966 -0.9445  0.1774 -0.4768
  774MOL0     C 4383  -0.334   5.838  10.902 -0.0678 -0.4898  0.1138
  774MOL0     C 4384  -0.459   6.038  11.004  0.7327 -0.9853 -0.5014
  774MOL0     C 4385  -0.592   5.970  10.984 -0.0631 -0.1422 -0.4760
  774MOL0     O 4386  -0.699   6.055  10.997  0.0207  0.3700  0.5626
  774MOL0     C 4387  -0.820   6.002  10.989  0.5364  0.0216  0.3477
  774MOL0     C 4388  -0.870   5.916  11.085 -0.4224  0.5168  0.9188
  774MOL0     C 4389  -0.996   5.858  11.082  0.1139  1.0853  0.5658
  774MOL0     C 4390  -1.084   5.897  10.983 -0.2506 -0.4618  0.1600
  774MOL0     O 4391  -1.211   5.846  10.971  0.0283  0.3915 -0.5344
  774MOL0     C 4392  -1.247   5.790  10.841  0.1394 -0.3035  0.2961
  774MOL0     C 4393  -1.369   5.699  10.859 -0.4140  0.6304 -0.1737
  774MOL0     C 4394  -1.490   5.777  10.890  0.9725 -0.6191 -0.0095
  774MOL0     C 4395  -1.610   5.680  10.868 -0.1240  0.9086  0.3964
  774MOL0     C 4396  -1.741   5.737  10.905 -0.9627  0.8315  0.6285
  774MOL0     C 4397  -1.795   5.830  10.798 -0.3252  0.8397 -0.0417
  774MOL0     C 4398  -1.929   5.898  10.827  0.2704 -0.5410 -0.1153
  774MOL0     C 4399  -1.911   6.013  10.919 -0.1344 -0.1357 -0.3994
  774MOL0    Cl 4400  -2.085   6.081  10.936 -0.2094 -0.3259  0.1589
  774MOL0     C 4401  -1.038   5.987  10.884 -0.1956  0.1843 -0.1313
  774MOL0     C 4402  -0.908   6.047  10.889  0.2700  0.0927 -0.0482
  774MOL0     O 4403  -0.602   5.846  10.985 -0.6525 -0.1230  0.4488
  774MOL0     C 4404  -0.462   6.166  11.065 -0.0776  0.4209  0.6653
  774MOL0     C 4405  -0.349   6.243  11.061  0.5003 -0.1550  0.6895
  774MOL0     N 4406   0.133   6.661  11.285  0.5831 -0.7608  0.5498
  774MOL0     N 4407   0.194   6.737  11.364 -0.7094 -0.7136  0.3025
  774MOL0     C 4408   1.592   6.718  11.166 -0.3513 -0.1127  0.2107
  774MOL0     C 4409   1.729   6.702  11.194 -0.6235  0.6183 -0.2646
  774MOL0     C 4410   2.072   6.409  11.349  0.2799  0.4985 -0.2335
  774MOL0     C 4411   2.150   6.508  11.417 -0.6663  0.0103  0.4244
  774MOL0     C 4412   2.280   6.476  11.474  1.1283  0.2731  0.4002
  774MOL0     C 4413   2.328   6.339  11.469 -0.2051  0.0633  0.2857
  774MOL0     O 4414   2.448   6.303  11.523  0.5936  0.7379 -0.0712
  774MOL0     C 4415   2.560   6.390  11.518 -0.2949 -0.3777  0.5293
  774MOL0     C 4416   2.683   6.311  11.528 -0.3820 -0.5824  0.1595
  774MOL0     C 4417   2.819   6.388  11.518  0.2492  0.5595  0.6594
  774MOL0     C 4418   2.846   6.504  11.616 -0.3516 -0.3742 -0.8284
  774MOL0     C 4419   2.772   6.624  11.590 -0.3759  0.2379  1.0439
  774MOL0     C 4420   2.701   6.721  11.550 -0.0672  0.0455  0.5165
  774MOL0     C 4421   2.254   6.243  11.400 -0.4588  0.8586  1.1144
  774MOL0     C 4422   2.132   6.282  11.343  0.0570 -0.9742 -0.2373
  774MOL0     H 4423   1.718   6.467  11.432 -0.0665 -0.7215  0.3277
  774MOL0     H 4424   1.472   6.459  11.351  1.8706 -2.0043 -1.4686
  774MOL0     H 4425   1.249   6.568  11.355 -1.0597  0.3499  1.4105
  774MOL0     H 4426   1.294   6.741  11.367 -0.2254 -0.5862  2.1361
  774MOL0     H 4427   1.147   6.792  11.161 -0.4729  0.2911  0.1571
  774MOL0     H 4428   1.099   6.618  11.153 -1.4621  0.8876 -0.8305
  774MOL0     H 4429   0.986   6.616  11.342 -1.6915  0.2034 -0.6821
  774MOL0     H 4430   1.056   6.762  11.415  1.5203 -0.1545 -0.3718
  774MOL0     H 4431   0.906   6.897  11.241 -0.4861  0.3800 -1.1898
  774MOL0     H 4432   0.888   6.736  11.165  1.0127 -0.1603 -0.5874
  774MOL0     H 4433   0.762   6.656  11.370 -0.0274 -0.6022  0.2128
  774MOL0     H 4434   0.808   6.810  11.443  1.1057  0.4706 -0.2871
  774MOL0     H 4435   0.666   6.926  11.264 -0.0564 -0.2443 -1.7318
  774MOL0     H 4436   0.633   6.754  11.216  3.5162  1.0253 -1.6039
  774MOL0     H 4437   0.514   6.699  11.435 -0.5300 -0.2076  1.1517
  774MOL0     H 4438   0.551   6.858  11.498  0.5579 -0.2544 -1.5490
  774MOL0     H 4439   0.416   6.945  11.273 -2.4473 -2.2129 -2.5162
  774MOL0     H 4440   0.360   6.921  11.441 -0.8821 -2.1063  0.5428
  774MOL0     H 4441   0.384   6.759  11.102 -0.4431 -0.7391 -2.1410
  774MOL0     H 4442   0.062   6.633  10.995  0.5579  0.2619 -2.1228
  774MOL0     H 4443   0.220   6.594  10.962 -2.2801 -0.3664 -2.1231
  774MOL0     H 4444   0.053   6.429  11.163 -1.4226 -2.0771 -1.2617
  774MOL0     H 4445   0.215   6.388  11.115 -0.7623 -1.4442  2.3672
  774MOL0     H 4446   0.177   6.339  10.901  1.0300  0.7441  1.2090
  774MOL0     H 4447   0.020   6.424  10.890 -0.6955  1.6155  1.2114
  774MOL0     H 4448   0.049   6.175  11.062  0.8619  0.7122  1.1876
  774MOL0     H 4449  -0.001   6.180  10.883  0.0776  0.7514 -0.2750
  774MOL0     H 4450  -0.127   6.009  10.938  0.0449 -0.3008  1.0225
  774MOL0     H 4451  -0.402   5.848  10.817  0.3663 -0.1113 -0.1955
  774MOL0     H 4452  -0.233   5.812  10.869  1.2130  1.5571  2.0721
  774MOL0     H 4453  -0.363   5.771  10.984 -1.6708  0.4744  0.3692
  774MOL0     H 4454  -0.814   5.883  11.173  1.0191 -0.9096 -0.4663
  774MOL0     H 4455  -1.031   5.780  11.149  0.2539  1.2854  0.8746
  774MOL0     H 4456  -1.267   5.874  10.774  1.6648 -0.2347 -0.1028
  774MOL0     H 4457  -1.162   5.735  10.798  0.1368  0.8297 -1.2631
  774MOL0     H 4458  -1.378   5.651  10.762 -0.7704  2.2822 -0.9855
  774MOL0     H 4459  -1.347   5.617  10.928 -2.5376 -0.1459 -0.3462
  774MOL0     H 4460  -1.506   5.867  10.830 -1.2075  1.0291  2.7872
  774MOL0     H 4461  -1.496   5.798  10.997 -0.5625 -1.3423  0.0785
  774MOL0     H 4462  -1.610   5.636  10.768 -1.9250  1.8549 -0.0593
  774MOL0     H 4463  -1.587   5.599  10.938  1.9777  0.8957 -0.2440
  774MOL0     H 4464  -1.725   5.791  10.999 -0.3472 -0.6129  1.3768
  774MOL0     H 4465  -1.816   5.663  10.935 -1.8490  1.2868 -0.3676
  774MOL0     H 4466  -1.718   5.905  10.778  0.4261 -0.2066 -1.2202
  774MOL0     H 4467  -1.817   5.774  10.707  1.1962  0.0293  0.0644
  774MOL0     H 4468  -1.995   5.827  10.877 -0.7961  0.0429 -0.6651
  774MOL0     H 4469  -1.980   5.931  10.737 -2.6718 -2.1181  0.8492
  774MOL0     H 4470  -1.843   6.084  10.871  0.1999  0.7782  1.3291
  774MOL0     H 4471  -1.878   5.987  11.020  1.2359  1.3004 -0.4312
  774MOL0     H 4472  -1.108   6.027  10.810  1.2349  2.3031 -0.4111
  774MOL0     H 4473  -0.876   6.124  10.819  0.0648  0.7878  0.6137
  774MOL0     H 4474  -0.548   6.224  11.098 -0.6775  0.1373 -0.3291
  774MOL0     H 4475  -0.358   6.347  11.090  3.5092  0.9989 -1.8754
  774MOL0     H 4476   1.554   6.792  11.095 -1.4067 -0.0277  0.8487
  774MOL0     H 4477   1.799   6.750  11.125 -0.9391  0.5655 -0.6247
  774MOL0     H 4478   2.109   6.606  11.437 -1.1917 -0.2009  0.4099
  774MOL0     H 4479   2.341   6.559  11.508  0.6869  0.2387  1.2999
  774MOL0     H 4480   2.571   6.425  11.415  0.8276 -4.8490 -1.1218
  774MOL0     H 4481   2.546   6.480  11.578  0.7182  0.1128  0.0665
  774MOL0     H 4482   2.687   6.246  11.440  2.8790  0.8057 -0.8862
  774MOL0     H 4483   2.684   6.251  11.620 -1.3284 -1.6289 -0.4915
  774MOL0     H 4484   2.832   6.423  11.415  1.7048 -0.9837  0.2893
  774MOL0     H 4485   2.899   6.314  11.527  0.9219  1.4178  2.1291
  774MOL0     H 4486   2.954   6.508  11.600 -0.1260 -1.8368  0.1211
  774MOL0     H 4487   2.843   6.484  11.723  0.7419 -1.2286 -0.9401
  774MOL0     H 4488   2.643   6.809  11.532 -0.9953 -1.0540 -2.4143
  774MOL0     H 4489   2.279   6.138  11.400 -2.1299  0.4412  1.5200
  774MOL0     H 4490   2.078   6.205  11.289  1.0989 -0.9680 -1.3339
  775MOL0     O 4491   9.620   6.599   7.782  0.1220 -0.2076  0.2454
  775MOL0     C 4492   9.705   6.587   7.690  0.1821 -0.2692  0.3239
  775MOL0     O 4493   9.687   6.513   7.575  0.4925  0.2556  0.3339
  775MOL0     C 4494   9.571   6.438   7.557  0.0580  0.5380 -0.3681
  775MOL0     C 4495   9.581   6.289   7.559  0.4114 -0.2368 -0.8364
  775MOL0     C 4496   9.473   6.207   7.529  0.6230 -0.1112  0.3863
  775MOL0     C 4497   9.347   6.261   7.491 -0.9095  0.2327  0.1315
  775MOL0     O 4498   9.237   6.180   7.470  1.1959  0.0424  0.4817
  775MOL0     C 4499   9.229   6.039   7.492  0.1027 -1.0893  0.4939
  775MOL0     C 4500   9.092   5.971   7.477  0.1334 -0.3589  0.6322
  775MOL0     C 4501   8.979   6.051   7.549  0.0199 -0.1284 -0.1542
  775MOL0     C 4502   8.841   5.970   7.563  0.0408  0.6877 -0.0136
  775MOL0     C 4503   8.738   6.066   7.609 -0.1001 -0.4335 -0.4482
  775MOL0     C 4504   8.614   5.990   7.666 -0.2660  0.2276 -0.4049
  775MOL0     C 4505   8.517   5.955   7.556  0.2613  0.4409  0.9512
  775MOL0     C 4506   8.412   5.856   7.604 -0.7966 -1.1005  0.1910
  775MOL0     N 4507   8.275   5.885   7.553  0.1516 -0.3796 -0.1646
  775MOL0     C 4508   8.201   5.800   7.472 -0.0424 -0.4326 -0.6057
  775MOL0     C 4509   8.089   5.878   7.437 -0.5692 -0.1175  0.1765
  775MOL0     C 4510   7.968   5.842   7.353  0.1654 -1.1437 -0.1866
  775MOL0     C 4511   7.859   5.768   7.430 -0.1454  1.0101 -0.5796
  775MOL0     C 4512   7.817   5.808   7.575 -0.1802  0.2369 -0.2228
  775MOL0     C 4513   7.714   5.717   7.637 -0.5438  0.1751 -0.0917
  775MOL0     O 4514   7.587   5.783   7.633  0.1501 -0.4789 -0.4135
  775MOL0     C 4515   7.491   5.735   7.720 -0.5507  0.0076 -0.0077
  775MOL0     C 4516   7.414   5.820   7.794  0.2316 -0.4120  0.2906
  775MOL0     C 4517   7.309   5.776   7.874 -0.8577  0.5111 -0.5779
  775MOL0     C 4518   7.229   5.874   7.955  0.5617  0.2779 -0.0254
  775MOL0     C 4519   7.284   5.639   7.876 -0.1672 -0.0781 -0.4162
  775MOL0     C 4520   7.168   5.571   7.941 -0.7698 -1.3021  0.2525
  775MOL0     O 4521   7.088   5.490   7.860 -0.0124 -0.1388  0.1400
  775MOL0     C 4522   6.994   5.428   7.944  0.1868 -0.1092  0.2144
  775MOL0     C 4523   7.002   5.289   7.948  0.6307  0.6506 -0.8401
  775MOL0     C 4524   6.907   5.219   8.034  0.3330  0.7980  1.1607
  775MOL0     C 4525   6.803   5.295   8.106 -0.6414 -0.5302  0.7804
  775MOL0     O 4526   6.711   5.246   8.193  0.2252 -0.0793  0.6872
  775MOL0     C 4527   6.768   5.141   8.276  0.4602 -0.3107  0.0017
  775MOL0     C 4528   6.660   5.099   8.371  0.6937  0.3533 -0.0450
  775MOL0     C 4529   6.678   4.962   8.444  0.1607 -0.7101 -0.5878
  775MOL0     C 4530   6.807   4.948   8.530  0.4495 -0.5160  1.1334
  775MOL0     C 4531   6.812   4.809   8.583  0.3875  0.0848 -0.3586
  775MOL0     C 4532   6.921   4.794   8.683 -0.7483  0.2127  0.0866
  775MOL0     C 4533   6.929   4.647   8.730  1.0288 -0.0859 -0.0367
  775MOL0     C 4534   7.056   4.611   8.809  0.7026  0.0002 -0.1453
  775MOL0    Cl 4535   7.198   4.603   8.698 -0.3716  0.5255 -0.0187
  775MOL0     C 4536   6.800   5.433   8.074 -0.1585  0.5325 -0.0901
  775MOL0     C 4537   6.887   5.496   8.004 -0.4411  0.0343  0.0842
  775MOL0     O 4538   7.163   5.589   8.062 -0.7741  0.2417  0.2887
  775MOL0     C 4539   7.370   5.551   7.805  0.3759  0.7607  0.3490
  775MOL0     C 4540   7.472   5.598   7.740 -0.5749  0.5934 -0.4773
  775MOL0     N 4541   8.103   6.004   7.497  0.6958  0.4153  0.3530
  775MOL0     N 4542   8.207   6.003   7.566  0.6109 -0.9717 -0.2082
  775MOL0     C 4543   9.339   6.404   7.486  0.4024  0.2888  0.6014
  775MOL0     C 4544   9.447   6.485   7.514  0.1909 -0.5602 -0.4300
  775MOL0     C 4545   9.834   6.662   7.702  0.0011 -0.1621 -0.0023
  775MOL0     C 4546   9.856   6.763   7.794  0.2184 -0.2663  0.3827
  775MOL0     C 4547   9.970   6.845   7.801  0.3575 -0.0137 -0.3531
  775MOL0     C 4548  10.073   6.822   7.707  0.5250  1.0268 -0.8181
  775MOL0     O 4549  10.199   6.886   7.716 -0.0673  0.1897  0.4566
  775MOL0     C 4550  10.239   6.956   7.834 -0.6640  0.6243 -0.4751
  775MOL0     C 4551  10.374   7.026   7.807 -0.3821  0.1125 -0.7522
  775MOL0     C 4552  10.362   7.136   7.698 -0.0180  0.1197 -0.0434
  775MOL0     C 4553  10.292   7.266   7.757  0.2797  1.0069  0.8417
  775MOL0     C 4554  10.149   7.252   7.743  0.4382  0.5406 -0.0693
  775MOL0     C 4555  10.026   7.238   7.742 -0.2180  0.6487 -0.0368
  775MOL0     C 4556  10.057   6.715   7.616 -0.0499 -0.2303 -0.0355
  775MOL0     C 4557   9.939   6.638   7.614  0.1710  0.3982  0.1941
  775MOL0     H 4558   9.671   6.249   7.604  1.1192  0.6940 -1.3850
  775MOL0     H 4559   9.490   6.100   7.535 -1.2111 -0.5840 -1.6158
  775MOL0     H 4560   9.309   5.988   7.438 -1.1396 -1.4765 -1.0576
  775MOL0     H 4561   9.249   6.027   7.599 -0.2212  0.9697  0.8151
  775MOL0     H 4562   9.070   5.982   7.371  3.5305  2.0267 -0.0041
  775MOL0     H 4563   9.096   5.866   7.507  2.7027 -1.2856 -2.3837
  775MOL0     H 4564   9.009   6.077   7.650  3.0844  1.0564 -1.2727
  775MOL0     H 4565   8.955   6.146   7.499 -0.8785  0.2298  0.9175
  775MOL0     H 4566   8.813   5.934   7.463 -2.0264 -0.4404  0.8886
  775MOL0     H 4567   8.837   5.880   7.625 -1.0538 -0.9348 -2.2609
  775MOL0     H 4568   8.780   6.122   7.693  3.7127 -2.3898 -0.8727
  775MOL0     H 4569   8.704   6.139   7.534 -2.9924 -2.1237 -0.9354
  775MOL0     H 4570   8.657   5.905   7.718 -1.4630  0.4960  1.0991
  775MOL0     H 4571   8.557   6.058   7.730 -0.1068  1.2578 -1.3042
  775MOL0     H 4572   8.480   6.054   7.528  0.5931  0.4201  0.4442
  775MOL0     H 4573   8.569   5.904   7.475 -0.6124  0.8246  0.1271
  775MOL0     H 4574   8.400   5.873   7.712  1.1370  0.1335  0.2664
  775MOL0     H 4575   8.449   5.754   7.593  2.3870 -0.0197 -0.4162
  775MOL0     H 4576   8.230   5.701   7.440 -0.2194  0.0498 -2.4044
  775MOL0     H 4577   7.926   5.934   7.312 -0.6889 -1.9115 -1.0752
  775MOL0     H 4578   8.014   5.784   7.273  0.5403 -0.1014 -0.7569
  775MOL0     H 4579   7.906   5.670   7.446  0.9825  1.7180  0.7036
  775MOL0     H 4580   7.772   5.759   7.365  1.6997  2.7137 -3.5226
  775MOL0     H 4581   7.780   5.910   7.574 -0.4381  0.1444 -0.1304
  775MOL0     H 4582   7.907   5.807   7.637 -1.0992 -3.7447  1.3818
  775MOL0     H 4583   7.742   5.717   7.743  2.3170  0.3420 -0.7727
  775MOL0     H 4584   7.715   5.618   7.592  0.3949  0.0239  0.2430
  775MOL0     H 4585   7.420   5.926   7.771  0.2936 -0.5320 -0.2851
  775MOL0     H 4586   7.125   5.844   7.967  1.2356 -2.8445 -0.8958
  775MOL0     H 4587   7.280   5.873   8.051  1.0712 -0.2056 -0.2923
  775MOL0     H 4588   7.233   5.974   7.910 -1.2874 -0.0188 -0.9616
  775MOL0     H 4589   7.073   5.231   7.890  1.5347 -2.4931  2.9993
  775MOL0     H 4590   6.896   5.111   8.034 -1.4384  0.9215  3.2233
  775MOL0     H 4591   6.795   5.058   8.211  2.0778 -0.2333  0.5340
  775MOL0     H 4592   6.859   5.181   8.323  0.3956  0.4145 -0.4764
  775MOL0     H 4593   6.646   5.155   8.464  0.0126 -0.5913  0.4418
  775MOL0     H 4594   6.562   5.102   8.323  1.4259 -0.0407 -1.6273
  775MOL0     H 4595   6.678   4.881   8.371 -1.1137 -0.7576 -0.5443
  775MOL0     H 4596   6.591   4.956   8.509 -1.2443  3.6253 -1.7272
  775MOL0     H 4597   6.901   4.964   8.477 -0.1342 -1.4694 -0.2481
  775MOL0     H 4598   6.798   5.023   8.609 -2.1253 -1.5276  1.8973
  775MOL0     H 4599   6.830   4.730   8.509 -0.0150 -0.9377  0.6002
  775MOL0     H 4600   6.717   4.784   8.632 -0.0321 -1.1151 -1.6736
  775MOL0     H 4601   7.019   4.818   8.639 -0.5863 -0.5262  0.0217
  775MOL0     H 4602   6.902   4.872   8.756  0.4886  2.5336 -1.9266
  775MOL0     H 4603   6.936   4.582   8.642  0.2881  1.6424 -1.4309
  775MOL0     H 4604   6.835   4.630   8.784  0.9216 -2.0790 -0.7494
  775MOL0     H 4605   7.048   4.517   8.864  0.7157  0.2778  0.3374
  775MOL0     H 4606   7.073   4.690   8.882  2.9192  0.0529 -0.6454
  775MOL0     H 4607   6.721   5.494   8.118 -0.4547  0.7766 -0.9480
  775MOL0     H 4608   6.886   5.603   7.987  0.7918 -0.3930 -3.6935
  775MOL0     H 4609   7.351   5.445   7.798  0.3127  0.8045 -0.1954
  775MOL0     H 4610   7.522   5.523   7.680 -0.0665  1.4933 -1.2109
  775MOL0     H 4611   9.246   6.442   7.447  0.1980 -0.0007  0.8048
  775MOL0     H 4612   9.437   6.593   7.501  0.3725 -0.2939  1.3501
  775MOL0     H 4613   9.776   6.777   7.866 -0.9997 -0.3806 -0.8971
  775MOL0     H 4614   9.977   6.921   7.878 -1.1274  2.9510 -2.9184
  775MOL0     H 4615  10.164   7.029   7.867  0.2681  1.6828 -0.6166
  775MOL0     H 4616  10.244   6.889   7.920 -3.7202  2.8420  1.6635
  775MOL0     H 4617  10.447   6.955   7.766  0.3364  0.2250  0.2908
  775MOL0     H 4618  10.426   7.062   7.896  2.6982 -2.6298 -1.2097
  775MOL0     H 4619  10.305   7.091   7.617  0.4756 -1.5775  0.5179
  775MOL0     H 4620  10.459   7.163   7.654 -0.2709  0.5376 -0.3536
  775MOL0     H 4621  10.314   7.352   7.693  2.5864 -0.2972 -0.2456
  775MOL0     H 4622  10.321   7.273   7.862  0.2577 -3.5482  1.3436
  775MOL0     H 4623   9.921   7.225   7.726  0.2128  0.1943 -3.1458
  775MOL0     H 4624  10.139   6.690   7.548 -0.1043  0.8040 -0.4967
  775MOL0     H 4625   9.927   6.557   7.542  1.0462 -3.6619  4.1908
  776MOL0     O 4626   9.497   3.486   6.277  0.0831 -0.8561 -0.5305
  776MOL0     C 4627   9.488   3.362   6.255 -0.6416 -0.7269 -0.1843
  776MOL0     O 4628   9.386   3.295   6.203 -0.8804  0.0152 -0.1627
  776MOL0     C 4629   9.261   3.343   6.201 -0.5033  0.5054 -0.5461
  776MOL0     C 4630   9.178   3.271   6.120  0.6833  0.0186  0.7266
  776MOL0     C 4631   9.044   3.302   6.116  0.4905  0.0726 -0.2664
  776MOL0     C 4632   8.988   3.401   6.198  0.3129 -0.4676  0.0165
  776MOL0     O 4633   8.856   3.418   6.186 -0.3006 -0.2092  0.4544
  776MOL0     C 4634   8.790   3.522   6.256 -0.2349 -0.1031  0.0194
  776MOL0     C 4635   8.644   3.555   6.206  0.3601 -0.0145 -0.1308
  776MOL0     C 4636   8.615   3.704   6.235 -0.2519  0.3090 -0.2091
  776MOL0     C 4637   8.508   3.774   6.146  0.0219 -0.6764  0.2332
  776MOL0     C 4638   8.499   3.924   6.164  0.0436 -0.8729 -0.1533
  776MOL0     C 4639   8.495   3.979   6.309  0.1573 -0.7304 -1.4907
  776MOL0     C 4640   8.446   4.131   6.327  0.1406 -0.5763 -0.2138
  776MOL0     C 4641   8.328   4.182   6.243  0.3532  0.1840 -0.3100
  776MOL0     N 4642   8.203   4.143   6.313 -0.2751 -0.3278  0.7358
  776MOL0     C 4643   8.101   4.062   6.272 -0.0508  0.2367 -0.0373
  776MOL0     C 4644   8.018   4.068   6.379  1.0339  1.0906  0.9832
  776MOL0     C 4645   7.890   4.000   6.383 -0.5534  1.4274  0.0648
  776MOL0     C 4646   7.794   4.083   6.316  0.8027  0.3179  0.7496
  776MOL0     C 4647   7.754   4.215   6.387  0.5248  0.2423  0.3231
  776MOL0     C 4648   7.617   4.187   6.461 -0.2699 -0.0836 -0.6102
  776MOL0     O 4649   7.582   4.310   6.535  0.8735  0.5947  0.3920
  776MOL0     C 4650   7.451   4.335   6.551 -0.9796 -0.2798 -0.2825
  776MOL0     C 4651   7.376   4.269   6.637 -0.2981  0.1559  0.5524
  776MOL0     C 4652   7.233   4.280   6.630  0.2941  0.1683  0.5858
  776MOL0     C 4653   7.153   4.201   6.733 -0.3442 -0.2705  0.4179
  776MOL0     C 4654   7.177   4.363   6.535  0.1078  0.7881  1.6130
  776MOL0     C 4655   7.031   4.376   6.516 -0.0588  0.3940 -0.2510
  776MOL0     O 4656   6.984   4.388   6.393 -0.4873 -0.4850  0.3689
  776MOL0     C 4657   6.874   4.464   6.387 -0.3045 -0.8795  0.1028
  776MOL0     C 4658   6.754   4.412   6.438 -0.4344 -0.5354  0.3865
  776MOL0     C 4659   6.636   4.483   6.427  0.4127  0.4596 -0.0136
  776MOL0     C 4660   6.642   4.612   6.365 -0.2772 -0.0818 -0.4125
  776MOL0     O 4661   6.539   4.704   6.348  0.9107 -0.3695  0.6748
  776MOL0     C 4662   6.416   4.680   6.412 -1.4078 -0.2739 -0.3663
  776MOL0     C 4663   6.323   4.568   6.352 -0.4525 -0.0848  0.4301
  776MOL0     C 4664   6.217   4.520   6.455  0.4573  0.4272 -0.0149
  776MOL0     C 4665   6.122   4.637   6.483 -0.3869  0.0552  0.0845
  776MOL0     C 4666   6.005   4.601   6.575  0.5169  0.7878 -0.2254
  776MOL0     C 4667   5.896   4.500   6.518 -0.3248 -0.0401  0.4227
  776MOL0     C 4668   5.793   4.465   6.630 -1.0745  0.0687 -0.3300
  776MOL0     C 4669   5.735   4.562   6.729  0.1038  0.5416 -0.3731
  776MOL0    Cl 4670   5.650   4.704   6.664  0.1234  0.0963 -0.3819
  776MOL0     C 4671   6.760   4.660   6.316 -0.4572  0.7252 -0.3294
  776MOL0     C 4672   6.879   4.590   6.327 -0.3074  0.3441 -0.1013
  776MOL0     O 4673   6.967   4.388   6.622 -0.6928  0.0707 -0.0657
  776MOL0     C 4674   7.260   4.435   6.438  0.0951 -0.5152 -0.6425
  776MOL0     C 4675   7.398   4.421   6.462  0.9040  0.7860  0.0809
  776MOL0     N 4676   8.075   4.131   6.486  0.6776 -0.1826  0.5769
  776MOL0     N 4677   8.183   4.186   6.437  0.3242  0.8374 -0.2331
  776MOL0     C 4678   9.078   3.468   6.288  0.2503  0.2288  0.7718
  776MOL0     C 4679   9.218   3.441   6.292  0.1692 -0.5483  0.6369
  776MOL0     C 4680   9.613   3.284   6.266  1.4645  0.3482 -0.1404
  776MOL0     C 4681   9.620   3.150   6.214 -0.0692  0.6191  0.5908
  776MOL0     C 4682   9.734   3.073   6.233 -0.4202  0.3789 -0.7793
  776MOL0     C 4683   9.842   3.124   6.302 -0.7956 -0.5595  0.3879
  776MOL0     O 4684   9.947   3.035   6.310 -0.0708 -0.4945 -0.4811
  776MOL0     C 4685  10.080   3.083   6.335  0.5352 -0.7986  0.5712
  776MOL0     C 4686  10.170   2.974   6.391 -0.7067  0.8137 -0.3723
  776MOL0     C 4687  10.085   2.867   6.477 -1.3176 -0.8299  0.1745
  776MOL0     C 4688  10.179   2.753   6.519 -0.2538  0.1144 -0.3706
  776MOL0     C 4689  10.312   2.792   6.572 -0.2818 -0.8098 -0.0513
  776MOL0     C 4690  10.425   2.819   6.606 -0.2649 -0.5069  0.3508
  776MOL0     C 4691   9.841   3.252   6.343 -0.1987 -0.5278  0.7871
  776MOL0     C 4692   9.724   3.336   6.332  0.4660  0.2629 -1.1772
  776MOL0     H 4693   9.223   3.195   6.057 -1.6657 -0.1803 -0.8555
  776MOL0     H 4694   8.977   3.251   6.047 -1.4366 -0.1712  1.6896
  776MOL0     H 4695   8.777   3.496   6.362  0.2736 -0.4669 -0.0008
  776MOL0     H 4696   8.847   3.614   6.241 -0.3099 -0.2737 -1.4549
  776MOL0     H 4697   8.652   3.542   6.097  0.6366  0.6623 -0.2010
  776MOL0     H 4698   8.580   3.489   6.264  1.0103  1.2624  2.1492
  776MOL0     H 4699   8.596   3.716   6.342  0.2560  3.6290 -0.3742
  776MOL0     H 4700   8.707   3.761   6.219  0.8372 -1.8370 -2.1653
  776MOL0     H 4701   8.525   3.747   6.041  3.0145 -2.4387  1.0435
  776MOL0     H 4702   8.412   3.736   6.181  0.3940  0.6111  2.8922
  776MOL0     H 4703   8.592   3.970   6.130 -0.9959  0.8553 -0.7587
  776MOL0     H 4704   8.422   3.966   6.099 -1.3410 -0.6362  1.5561
  776MOL0     H 4705   8.425   3.920   6.369 -0.2580  3.0190  2.1829
  776MOL0     H 4706   8.596   3.971   6.350  1.6655  1.6391 -4.3279
  776MOL0     H 4707   8.423   4.150   6.432 -0.3725 -0.3095 -0.3718
  776MOL0     H 4708   8.535   4.192   6.311  0.4209  0.1807  3.3455
  776MOL0     H 4709   8.329   4.145   6.140  0.9652  0.4778 -0.4166
  776MOL0     H 4710   8.326   4.292   6.250  0.7621  0.0849  1.9785
  776MOL0     H 4711   8.083   4.027   6.170 -1.0743  2.3330 -0.6415
  776MOL0     H 4712   7.892   3.900   6.338 -2.1947  0.7823  1.3269
  776MOL0     H 4713   7.861   3.989   6.488  0.3735 -0.1625  0.1889
  776MOL0     H 4714   7.699   4.030   6.303 -0.3805  2.0360  1.9884
  776MOL0     H 4715   7.817   4.103   6.211 -2.7038 -0.5936 -0.3387
  776MOL0     H 4716   7.727   4.291   6.313 -1.5888 -0.4480  0.3118
  776MOL0     H 4717   7.836   4.240   6.455  0.2314  2.1036  0.0397
  776MOL0     H 4718   7.617   4.107   6.535  0.8947 -0.0227 -0.5291
  776MOL0     H 4719   7.545   4.152   6.386  1.5962 -1.8409 -1.6597
  776MOL0     H 4720   7.415   4.205   6.715 -0.9796 -0.5383  0.3280
  776MOL0     H 4721   7.228   4.140   6.782  0.6422  0.1661 -0.5033
  776MOL0     H 4722   7.109   4.257   6.815 -1.1639 -0.4491  0.1160
  776MOL0     H 4723   7.084   4.135   6.678  0.2265 -1.5169  1.1551
  776MOL0     H 4724   6.767   4.320   6.496  1.7580  0.4380  1.5662
  776MOL0     H 4725   6.546   4.442   6.472 -0.1291  0.3116 -1.1775
  776MOL0     H 4726   6.438   4.661   6.518 -0.0991  0.0539 -0.5632
  776MOL0     H 4727   6.364   4.777   6.411 -0.7860  0.0642 -1.7332
  776MOL0     H 4728   6.269   4.605   6.265  1.8332  1.0750 -0.5591
  776MOL0     H 4729   6.389   4.486   6.325 -0.5212  0.3327 -1.0707
  776MOL0     H 4730   6.263   4.480   6.546 -1.0045  0.8167  0.9290
  776MOL0     H 4731   6.148   4.448   6.409 -0.1913  2.7642 -2.9865
  776MOL0     H 4732   6.176   4.716   6.536 -2.4443  0.8873  1.0564
  776MOL0     H 4733   6.094   4.691   6.392  0.7086  0.8570  0.1945
  776MOL0     H 4734   5.953   4.695   6.596  0.7136  0.5490  1.4149
  776MOL0     H 4735   6.035   4.561   6.672 -3.6660  0.2174  1.0165
  776MOL0     H 4736   5.849   4.552   6.434 -1.6753 -1.9930 -0.0959
  776MOL0     H 4737   5.928   4.406   6.474 -1.6678 -0.4250  0.2324
  776MOL0     H 4738   5.832   4.381   6.688  1.3249  1.1673 -0.2656
  776MOL0     H 4739   5.709   4.419   6.576 -1.2866 -2.0849  1.6494
  776MOL0     H 4740   5.813   4.592   6.799 -0.2731  1.5166 -0.3547
  776MOL0     H 4741   5.660   4.512   6.792 -1.3065  0.6545 -1.8787
  776MOL0     H 4742   6.758   4.762   6.278 -2.2785  1.0205  0.4198
  776MOL0     H 4743   6.976   4.621   6.289  0.1875 -2.7033 -1.5809
  776MOL0     H 4744   7.231   4.503   6.359 -0.9835  2.4489  2.1090
  776MOL0     H 4745   7.458   4.474   6.387  0.4001 -0.2334 -1.0761
  776MOL0     H 4746   9.042   3.549   6.351  0.4879 -0.3317  1.6301
  776MOL0     H 4747   9.286   3.487   6.363  0.3065  1.1845 -0.5505
  776MOL0     H 4748   9.533   3.118   6.159 -0.7572  0.8900  1.4921
  776MOL0     H 4749   9.745   2.977   6.184  1.1777  1.1291 -2.0058
  776MOL0     H 4750  10.137   3.125   6.252 -1.1457  1.1973  0.3510
  776MOL0     H 4751  10.076   3.163   6.410 -0.9732 -0.9315  0.6729
  776MOL0     H 4752  10.250   3.015   6.452  0.5112 -0.6487 -0.9415
  776MOL0     H 4753  10.223   2.923   6.310 -3.2853  0.2560 -1.8349
  776MOL0     H 4754  10.013   2.832   6.403  0.8276 -1.7451 -1.5961
  776MOL0     H 4755  10.035   2.914   6.562  1.8054 -1.1084  2.3501
  776MOL0     H 4756  10.180   2.685   6.433 -4.3144 -1.1841  0.3822
  776MOL0     H 4757  10.127   2.702   6.601  0.3076  0.2338  0.0667
  776MOL0     H 4758  10.524   2.829   6.645  0.3060  0.2468 -1.2060
  776MOL0     H 4759   9.937   3.291   6.376  0.8424 -0.4173 -2.0467
  776MOL0     H 4760   9.722   3.435   6.376  0.1145  0.5529 -1.8252
  777MOL0     O 4761  10.376   7.738   1.928  0.8489  0.3398  0.4350
  777MOL0     C 4762  10.357   7.620   1.890  1.1204 -0.6429 -0.4257
  777MOL0     O 4763  10.388   7.568   1.768  0.1617  0.5926  0.1535
  777MOL0     C 4764  10.445   7.649   1.666  0.2550  0.0573  0.0647
  777MOL0     C 4765  10.496   7.782   1.670 -0.0274 -0.5154  0.0597
  777MOL0     C 4766  10.547   7.837   1.554  0.9736 -0.1878  0.9581
  777MOL0     C 4767  10.571   7.759   1.437  0.6161 -0.6568 -0.1373
  777MOL0     O 4768  10.622   7.831   1.331  0.3683 -0.4540 -0.4880
  777MOL0     C 4769  10.663   7.748   1.222 -0.1236  0.2986  0.0095
  777MOL0     C 4770  10.734   7.832   1.113 -0.0168  0.3084 -0.4196
  777MOL0     C 4771  10.812   7.957   1.160  0.0323 -0.1460  0.6182
  777MOL0     C 4772  10.939   7.932   1.250 -0.0256 -0.0283  0.1468
  777MOL0     C 4773  11.059   7.858   1.187  0.0563 -0.6497 -0.1126
  777MOL0     C 4774  11.146   7.952   1.096  0.8879 -0.1025 -0.3793
  777MOL0     C 4775  11.258   7.871   1.031 -0.5120  0.8205  0.5073
  777MOL0     C 4776  11.317   7.933   0.897 -0.4934 -0.1801 -0.6902
  777MOL0     N 4777  11.196   7.931   0.797 -0.0684 -0.3033 -0.0869
  777MOL0     C 4778  11.134   7.812   0.748 -0.7593 -0.4264  0.2037
  777MOL0     C 4779  11.031   7.863   0.665  0.0036  0.0019  1.4752
  777MOL0     C 4780  10.936   7.780   0.586  0.0026  0.7543 -0.2051
  777MOL0     C 4781  10.807   7.759   0.670  0.3800 -0.3605 -0.2106
  777MOL0     C 4782  10.692   7.715   0.583 -0.0475 -0.4335  0.1253
  777MOL0     C 4783  10.571   7.694   0.674 -0.8266  0.0887  0.2644
  777MOL0     O 4784  10.585   7.574   0.741  0.1208  0.7442 -0.3444
  777MOL0     C 4785  10.474   7.512   0.799 -0.3086 -0.1207 -1.0213
  777MOL0     C 4786  10.485   7.477   0.937 -1.1665 -0.1135  0.3579
  777MOL0     C 4787  10.382   7.416   0.999  0.2322 -1.4401 -0.4288
  777MOL0     C 4788  10.410   7.383   1.147 -0.1337  0.2119  0.0027
  777MOL0     C 4789  10.257   7.398   0.936 -0.1587  0.3542  0.5459
  777MOL0     C 4790  10.138   7.330   0.984  0.2181  0.9513 -1.7201
  777MOL0     O 4791  10.019   7.348   0.914 -0.0767  0.4107 -0.1990
  777MOL0     C 4792   9.904   7.284   0.956  0.3240 -0.4264  0.2321
  777MOL0     C 4793   9.779   7.353   0.946  0.9697 -0.2303 -1.1400
  777MOL0     C 4794   9.657   7.296   0.980  0.3404 -0.4080 -0.0123
  777MOL0     C 4795   9.656   7.167   1.034 -0.1525  0.4934 -0.2596
  777MOL0     O 4796   9.542   7.095   1.081  0.0345  0.3335  0.0641
  777MOL0     C 4797   9.417   7.165   1.122 -1.8493  0.3284  0.7427
  777MOL0     C 4798   9.419   7.176   1.278 -0.1255 -0.6883  0.1080
  777MOL0     C 4799   9.291   7.228   1.342 -0.2460 -0.2040 -0.6161
  777MOL0     C 4800   9.299   7.218   1.495 -0.2874  0.3905  0.3487
  777MOL0     C 4801   9.185   7.270   1.579  0.5380  0.4861 -0.2771
  777MOL0     C 4802   9.053   7.207   1.555  0.0015  0.0871 -0.0425
  777MOL0     C 4803   8.948   7.241   1.664  0.2931 -0.1851  0.6363
  777MOL0     C 4804   8.840   7.122   1.681 -0.6898 -0.7971  0.7318
  777MOL0    Cl 4805   8.681   7.204   1.715  0.4779  0.0692 -0.0191
  777MOL0     C 4806   9.777   7.093   1.021 -0.0832  1.0430  0.2716
  777MOL0     C 4807   9.901   7.148   0.982  0.0209 -0.2925 -0.4831
  777MOL0     O 4808  10.152   7.259   1.085 -0.0154 -0.6930  0.3220
  777MOL0     C 4809  10.249   7.436   0.799  0.3090 -0.5004  0.2850
  777MOL0     C 4810  10.357   7.494   0.732  0.4090 -0.2553 -0.5184
  777MOL0     N 4811  11.025   8.001   0.674  0.1555 -0.1441  0.2304
  777MOL0     N 4812  11.126   8.038   0.744 -0.7315  0.3919 -0.0858
  777MOL0     C 4813  10.531   7.626   1.438 -0.5259 -0.2597 -0.1747
  777MOL0     C 4814  10.459   7.577   1.548 -0.0109  0.5039 -0.3987
  777MOL0     C 4815  10.295   7.537   1.998  0.0649  0.5967 -0.3735
  777MOL0     C 4816  10.288   7.402   1.973  0.1669  0.1907 -0.3151
  777MOL0     C 4817  10.223   7.314   2.058  0.6087  0.5064 -0.4869
  777MOL0     C 4818  10.167   7.356   2.178 -0.6585  0.2670 -0.1067
  777MOL0     O 4819  10.083   7.271   2.239 -0.6734 -0.3769 -0.9697
  777MOL0     C 4820  10.065   7.285   2.383  0.0250  0.3542  0.9302
  777MOL0     C 4821  10.191   7.261   2.463 -0.0645  0.1728 -0.4771
  777MOL0     C 4822  10.174   7.335   2.591 -0.4228  0.5450 -0.4637
  777MOL0     C 4823  10.314   7.355   2.661  1.1076  0.3756 -0.2391
  777MOL0     C 4824  10.395   7.468   2.611 -0.3906  0.3295 -0.4946
  777MOL0     C 4825  10.448   7.567   2.567 -0.2218  0.3483  0.3398
  777MOL0     C 4826  10.177   7.495   2.207 -0.3567 -0.0135  0.3258
  777MOL0     C 4827  10.224   7.585   2.108 -0.1307 -0.4463 -0.0279
  777MOL0     H 4828  10.499   7.837   1.763 -0.7535  1.2516 -0.9092
  777MOL0     H 4829  10.583   7.940   1.556 -1.5601  0.7702  0.6570
  777MOL0     H 4830  10.737   7.677   1.261  1.3695  1.3091 -0.8909
  777MOL0     H 4831  10.580   7.692   1.180 -1.2664  0.9902  1.2408
  777MOL0     H 4832  10.797   7.755   1.066  0.6132  0.3786  0.2904
  777MOL0     H 4833  10.656   7.869   1.045 -4.4127 -2.4243  2.5640
  777MOL0     H 4834  10.841   8.015   1.072  1.3699 -0.0380  1.0989
  777MOL0     H 4835  10.749   8.027   1.214 -0.6296  1.0814 -1.6217
  777MOL0     H 4836  10.971   8.027   1.294  1.9156 -0.4097 -0.3571
  777MOL0     H 4837  10.906   7.873   1.336 -0.2339  1.4065  1.0829
  777MOL0     H 4838  11.128   7.817   1.261  0.9338 -1.4534 -1.3394
  777MOL0     H 4839  11.025   7.777   1.121  0.6443 -1.9968  1.1754
  777MOL0     H 4840  11.080   7.985   1.015  3.8637  0.5450 -2.7300
  777MOL0     H 4841  11.182   8.040   1.149  1.7068  1.4065 -3.1989
  777MOL0     H 4842  11.341   7.877   1.102  1.0518  1.6702 -1.3103
  777MOL0     H 4843  11.223   7.768   1.016 -0.6987  0.8364  0.8211
  777MOL0     H 4844  11.396   7.866   0.862 -0.6729 -0.6937 -0.1240
  777MOL0     H 4845  11.352   8.036   0.909 -0.0835 -0.3422 -0.4874
  777MOL0     H 4846  11.169   7.710   0.760 -0.8114 -0.6043 -1.0759
  777MOL0     H 4847  10.909   7.842   0.501  0.5271  0.7889 -0.3523
  777MOL0     H 4848  10.984   7.689   0.548  1.0701  1.5542 -0.8139
  777MOL0     H 4849  10.771   7.848   0.722 -1.8298 -2.6840  2.5854
  777MOL0     H 4850  10.829   7.679   0.742  1.3508  0.3024  0.2482
  777MOL0     H 4851  10.710   7.629   0.517 -2.3561 -1.0220  0.1530
  777MOL0     H 4852  10.682   7.808   0.526  0.8734  1.4541  2.8280
  777MOL0     H 4853  10.482   7.696   0.611 -0.9191 -1.2584  0.3297
  777MOL0     H 4854  10.576   7.774   0.748 -0.2155  0.5372 -0.2444
  777MOL0     H 4855  10.574   7.496   0.995  0.7420 -3.8799 -1.0105
  777MOL0     H 4856  10.510   7.416   1.179 -0.0752  1.1549 -1.1389
  777MOL0     H 4857  10.340   7.434   1.213 -1.4318 -0.7056 -0.6337
  777MOL0     H 4858  10.404   7.274   1.160  2.9168  0.1067  1.7000
  777MOL0     H 4859   9.776   7.453   0.904 -0.0393 -0.1192 -0.8261
  777MOL0     H 4860   9.567   7.357   0.980  0.3226 -0.4241  0.9928
  777MOL0     H 4861   9.395   7.259   1.071  1.5686  1.2098  0.6941
  777MOL0     H 4862   9.332   7.101   1.096 -1.0840  0.0331 -1.1767
  777MOL0     H 4863   9.436   7.077   1.322 -0.8317  0.2667  2.7163
  777MOL0     H 4864   9.503   7.233   1.317 -0.0166 -0.7130 -0.0858
  777MOL0     H 4865   9.213   7.166   1.299 -0.9634  0.8301 -0.8351
  777MOL0     H 4866   9.275   7.332   1.313  1.9798  0.8158  1.3618
  777MOL0     H 4867   9.311   7.112   1.518 -1.6464 -0.1781 -1.3371
  777MOL0     H 4868   9.391   7.269   1.524  1.4630 -3.2797  1.9025
  777MOL0     H 4869   9.180   7.377   1.556 -0.7474  0.5443  0.1746
  777MOL0     H 4870   9.215   7.269   1.684  1.5897 -1.4418 -0.5682
  777MOL0     H 4871   9.021   7.234   1.454  1.6484 -1.1030 -0.9238
  777MOL0     H 4872   9.067   7.099   1.564  2.2837  0.0298 -2.9400
  777MOL0     H 4873   8.897   7.331   1.628 -0.0303 -0.3251  0.7506
  777MOL0     H 4874   9.007   7.248   1.756 -0.2277 -1.1606  1.0461
  777MOL0     H 4875   8.866   7.057   1.765  1.6205  2.7191  2.9813
  777MOL0     H 4876   8.821   7.067   1.588 -2.2076  1.1353 -0.1795
  777MOL0     H 4877   9.759   6.988   1.045 -0.5049  1.5652  2.4925
  777MOL0     H 4878   9.992   7.088   0.982  0.5729  0.4550  1.2756
  777MOL0     H 4879  10.153   7.422   0.750  1.3131 -1.9443 -1.3577
  777MOL0     H 4880  10.347   7.514   0.626  0.0196  1.1637 -0.2284
  777MOL0     H 4881  10.558   7.547   1.369  0.9807  0.3979 -0.3784
  777MOL0     H 4882  10.434   7.472   1.539 -1.0289  0.7895 -1.1612
  777MOL0     H 4883  10.317   7.364   1.875 -1.7836 -0.5523 -0.6353
  777MOL0     H 4884  10.213   7.206   2.053  0.7593  0.3986  1.0838
  777MOL0     H 4885  10.018   7.382   2.405  2.3250  1.7464  0.0854
  777MOL0     H 4886   9.988   7.213   2.412 -1.5355  2.0574  1.2296
  777MOL0     H 4887  10.287   7.296   2.423 -0.1411  1.5500  0.4516
  777MOL0     H 4888  10.204   7.154   2.477  0.5468  0.2427 -0.4813
  777MOL0     H 4889  10.119   7.271   2.661 -0.0975 -0.5698 -1.2209
  777MOL0     H 4890  10.113   7.425   2.575 -3.1028 -0.9285  0.6768
  777MOL0     H 4891  10.378   7.267   2.661 -0.4327 -0.8773  2.6831
  777MOL0     H 4892  10.288   7.373   2.765 -2.7231 -1.0072 -0.8052
  777MOL0     H 4893  10.503   7.641   2.512  0.6722 -0.9074 -0.5028
  777MOL0     H 4894  10.132   7.552   2.288 -1.3125 -1.2057  0.6621
  777MOL0     H 4895  10.228   7.689   2.136 -0.6684  0.1905 -2.1495
  778MOL0     O 4896   4.715   8.067   5.149 -0.2556  0.4472 -0.0004
  778MOL0     C 4897   4.771   7.958   5.161  1.0659 -0.0351  0.1413
  778MOL0     O 4898   4.704   7.841   5.153 -0.2399 -0.2483 -0.0890
  778MOL0     C 4899   4.569   7.844   5.127  0.0494 -0.0210 -0.1949
  778MOL0     C 4900   4.484   7.912   5.216 -0.0277  0.5013  0.3637
  778MOL0     C 4901   4.346   7.913   5.180  0.7208  0.7659  0.1933
  778MOL0     C 4902   4.297   7.855   5.068 -0.7173 -0.3427  0.1401
  778MOL0     O 4903   4.159   7.854   5.038 -0.2910 -0.5438  0.2617
  778MOL0     C 4904   4.129   7.843   4.895 -0.4478 -0.3183 -0.0228
  778MOL0     C 4905   3.981   7.896   4.862 -1.0690 -0.2413  0.4396
  778MOL0     C 4906   3.868   7.816   4.927  0.1194 -0.4869 -0.6070
  778MOL0     C 4907   3.838   7.685   4.861  0.4341  0.0777  0.5122
  778MOL0     C 4908   3.692   7.675   4.805  0.4524 -0.0170 -0.0682
  778MOL0     C 4909   3.642   7.532   4.814  0.6210 -0.0824 -0.6806
  778MOL0     C 4910   3.725   7.432   4.730 -1.0083 -0.0479 -0.2890
  778MOL0     C 4911   3.654   7.297   4.707  0.4183 -0.1052 -0.1738
  778MOL0     N 4912   3.521   7.310   4.651 -0.1107  0.4326  0.1295
  778MOL0     C 4913   3.496   7.360   4.526  0.2682  0.3939  0.0309
  778MOL0     C 4914   3.362   7.340   4.512 -1.0039  0.3020  1.0770
  778MOL0     C 4915   3.284   7.368   4.384  0.3806 -0.1986  0.0719
  778MOL0     C 4916   3.133   7.367   4.406  0.2654  0.1728 -0.4213
  778MOL0     C 4917   3.087   7.221   4.430  0.8944  0.3348 -0.4938
  778MOL0     C 4918   2.958   7.229   4.513  0.1290 -0.6119  0.3216
  778MOL0     O 4919   2.917   7.093   4.543  0.2963 -0.0937  0.4732
  778MOL0     C 4920   2.791   7.076   4.596  0.5672  0.9995  0.3411
  778MOL0     C 4921   2.737   6.947   4.587  0.1726 -0.3950 -0.8198
  778MOL0     C 4922   2.608   6.922   4.640  0.0286 -0.1473 -1.3700
  778MOL0     C 4923   2.551   6.786   4.634 -0.4565  0.6234  0.1391
  778MOL0     C 4924   2.528   7.029   4.689 -0.0695 -0.0276  1.0520
  778MOL0     C 4925   2.405   7.004   4.760  0.3661  0.4273  0.0090
  778MOL0     O 4926   2.405   7.044   4.900 -0.2164 -0.9673  0.6075
  778MOL0     C 4927   2.314   7.002   4.990 -0.0222 -0.6636 -0.9642
  778MOL0     C 4928   2.329   6.890   5.068  0.6408 -0.4128  0.5593
  778MOL0     C 4929   2.238   6.858   5.158  0.9584  0.9310 -1.0058
  778MOL0     C 4930   2.119   6.927   5.184  0.3784 -0.9398 -0.5152
  778MOL0     O 4931   2.030   6.885   5.287 -0.0187 -0.1927 -0.5742
  778MOL0     C 4932   1.922   6.963   5.329 -0.1419  0.2783 -0.6626
  778MOL0     C 4933   1.825   6.882   5.412 -0.2342  0.4540 -0.0244
  778MOL0     C 4934   1.739   6.778   5.329  0.5197 -0.4772  0.0274
  778MOL0     C 4935   1.607   6.846   5.289  0.2453 -0.1831 -0.4408
  778MOL0     C 4936   1.493   6.747   5.236 -0.0070 -0.0559 -0.1114
  778MOL0     C 4937   1.373   6.828   5.180 -0.4409  0.7702  0.2097
  778MOL0     C 4938   1.252   6.732   5.152 -0.5742  0.0320  0.0493
  778MOL0     C 4939   1.135   6.808   5.094 -0.2137  0.3990 -0.6371
  778MOL0    Cl 4940   0.998   6.702   5.082 -0.2055 -0.2812  0.0154
  778MOL0     C 4941   2.104   7.044   5.112 -0.1451  0.0237  0.6050
  778MOL0     C 4942   2.195   7.084   5.016 -0.0659  0.1983  0.2100
  778MOL0     O 4943   2.309   6.943   4.707 -0.5152 -0.0133  0.4450
  778MOL0     C 4944   2.576   7.160   4.683  0.1448  0.9853 -0.2385
  778MOL0     C 4945   2.708   7.179   4.642 -0.4937 -0.1409  0.9193
  778MOL0     N 4946   3.313   7.291   4.636  0.0124 -0.2360 -0.1938
  778MOL0     N 4947   3.407   7.294   4.723  0.1654  0.2005  1.2458
  778MOL0     C 4948   4.381   7.781   4.985  0.3513 -0.4073  0.1398
  778MOL0     C 4949   4.519   7.784   5.013 -0.1605 -0.3709  0.5242
  778MOL0     C 4950   4.918   7.936   5.184 -0.4665  0.1816  0.5556
  778MOL0     C 4951   4.985   7.826   5.131 -0.1320 -0.1662  1.1990
  778MOL0     C 4952   5.119   7.807   5.141 -0.5011 -0.4408  1.8355
  778MOL0     C 4953   5.201   7.910   5.194  0.4235  1.3963 -0.1602
  778MOL0     O 4954   5.333   7.879   5.198  0.3546 -0.6530 -0.4509
  778MOL0     C 4955   5.393   7.938   5.316  0.5184  0.0491  0.3013
  778MOL0     C 4956   5.520   7.861   5.357  0.2978 -0.0321  0.5525
  778MOL0     C 4957   5.648   7.904   5.280 -0.1053  0.5098 -0.1439
  778MOL0     C 4958   5.773   7.840   5.353  0.8677  0.2769  0.3513
  778MOL0     C 4959   5.895   7.925   5.341  0.0896  0.3828 -0.0492
  778MOL0     C 4960   6.017   7.948   5.354  0.0817  1.1246 -0.5691
  778MOL0     C 4961   5.139   8.029   5.235  0.3207  0.6207 -0.3166
  778MOL0     C 4962   5.003   8.040   5.228 -0.9829  0.2052  0.1093
  778MOL0     H 4963   4.520   7.962   5.306 -0.5762  1.0975  0.2564
  778MOL0     H 4964   4.272   7.956   5.246 -0.0443  0.0586 -0.1897
  778MOL0     H 4965   4.202   7.902   4.838 -0.8043 -0.3414 -0.5091
  778MOL0     H 4966   4.115   7.742   4.858 -1.9086  0.8829 -3.1230
  778MOL0     H 4967   3.985   8.001   4.890  0.7731 -0.1763  0.0448
  778MOL0     H 4968   3.973   7.897   4.753  0.9889  1.4712  0.2584
  778MOL0     H 4969   3.897   7.803   5.031 -1.7261 -2.0595 -0.2289
  778MOL0     H 4970   3.781   7.882   4.922  1.3363  1.2705  0.5821
  778MOL0     H 4971   3.907   7.664   4.779 -0.1528 -2.8533  0.6564
  778MOL0     H 4972   3.855   7.608   4.937  0.8344 -0.3027  0.0444
  778MOL0     H 4973   3.625   7.732   4.869 -0.6312 -1.6080  0.2946
  778MOL0     H 4974   3.691   7.713   4.702  0.2590  1.2075  0.3790
  778MOL0     H 4975   3.662   7.498   4.916  2.6076 -1.8406 -1.5878
  778MOL0     H 4976   3.535   7.532   4.791  0.1259 -1.5163  1.4284
  778MOL0     H 4977   3.761   7.480   4.639 -0.2159  1.1868  0.6481
  778MOL0     H 4978   3.820   7.417   4.782 -1.3033  1.4002  0.7436
  778MOL0     H 4979   3.638   7.248   4.804 -1.4563  1.6925  0.4939
  778MOL0     H 4980   3.718   7.231   4.647 -0.0939 -1.7629  1.0089
  778MOL0     H 4981   3.563   7.402   4.452 -0.7168  0.7389 -0.6937
  778MOL0     H 4982   3.324   7.465   4.351  2.5924 -0.1117  2.6278
  778MOL0     H 4983   3.307   7.294   4.308 -1.0827 -0.0829 -0.5110
  778MOL0     H 4984   3.089   7.411   4.315  1.5180 -1.4263 -1.8703
  778MOL0     H 4985   3.108   7.426   4.495  2.2699 -3.5120  2.8704
  778MOL0     H 4986   3.173   7.167   4.469  1.4811 -0.0949 -2.3092
  778MOL0     H 4987   3.074   7.171   4.334 -1.1705 -0.5592  0.1873
  778MOL0     H 4988   2.887   7.280   4.448  0.3095 -0.4316  0.2669
  778MOL0     H 4989   2.970   7.297   4.598  1.3869 -0.6331  0.1777
  778MOL0     H 4990   2.799   6.877   4.531 -0.3427 -1.1895 -0.4188
  778MOL0     H 4991   2.498   6.765   4.727  2.8965 -1.0396  1.8712
  778MOL0     H 4992   2.476   6.775   4.556  0.0138  1.1402 -0.4013
  778MOL0     H 4993   2.628   6.710   4.619 -1.0304  0.3634 -1.6334
  778MOL0     H 4994   2.416   6.827   5.050  0.5743 -0.2599 -0.3120
  778MOL0     H 4995   2.254   6.775   5.226  1.8624  1.6964 -0.2392
  778MOL0     H 4996   1.961   7.045   5.389 -0.4504 -0.5535  0.7035
  778MOL0     H 4997   1.869   7.002   5.241 -1.1030  2.1530  0.6832
  778MOL0     H 4998   1.896   6.814   5.460 -0.3846  1.3811  1.5695
  778MOL0     H 4999   1.769   6.938   5.487 -0.6329  0.5020 -0.3569
  778MOL0     H 5000   1.715   6.690   5.389 -0.6665  0.7420  1.4023
  778MOL0     H 5001   1.800   6.743   5.245 -0.0742  1.3443 -1.2220
  778MOL0     H 5002   1.572   6.903   5.376 -0.1826 -2.2123  0.7858
  778MOL0     H 5003   1.633   6.928   5.222  1.7972 -0.2097  0.0741
  778MOL0     H 5004   1.456   6.685   5.319 -1.9836  0.0174 -0.8796
  778MOL0     H 5005   1.540   6.680   5.163  1.8615 -0.1591  1.1372
  778MOL0     H 5006   1.331   6.896   5.256 -0.2216  0.7590  0.3428
  778MOL0     H 5007   1.404   6.867   5.083  0.6456 -0.2930  0.1116
  778MOL0     H 5008   1.219   6.673   5.238 -4.8063 -0.3220 -1.5794
  778MOL0     H 5009   1.285   6.667   5.070  1.3494  3.0340 -1.7627
  778MOL0     H 5010   1.168   6.854   5.000  1.3104 -0.6003 -0.6238
  778MOL0     H 5011   1.100   6.887   5.161 -0.6809 -0.2118 -0.1527
  778MOL0     H 5012   2.015   7.105   5.108 -1.2874 -1.6520 -1.2439
  778MOL0     H 5013   2.179   7.174   4.958  0.8159 -0.3671 -0.9499
  778MOL0     H 5014   2.510   7.244   4.701  0.0692  1.4984 -2.6013
  778MOL0     H 5015   2.745   7.281   4.642 -0.6893 -0.0081 -1.5093
  778MOL0     H 5016   4.352   7.716   4.904  1.1249 -2.5368  1.4643
  778MOL0     H 5017   4.589   7.729   4.951 -0.3008  0.2324 -0.1798
  778MOL0     H 5018   4.920   7.757   5.078 -1.2617  0.6011  1.5359
  778MOL0     H 5019   5.157   7.722   5.086 -2.2350  0.5026 -1.1190
  778MOL0     H 5020   5.428   8.039   5.294 -1.0664  0.7035  0.6548
  778MOL0     H 5021   5.330   7.939   5.406 -1.4167  3.0577 -0.9456
  778MOL0     H 5022   5.509   7.752   5.348  0.7660  0.0014 -0.7013
  778MOL0     H 5023   5.540   7.877   5.463  2.5594  0.9288  0.0346
  778MOL0     H 5024   5.660   8.012   5.294  1.5500  0.0876  2.3020
  778MOL0     H 5025   5.659   7.868   5.177 -1.4175  0.2908 -0.2222
  778MOL0     H 5026   5.792   7.738   5.318 -0.4510 -0.8337  2.6499
  778MOL0     H 5027   5.752   7.836   5.460  0.2640  0.2833  0.2345
  778MOL0     H 5028   6.116   7.967   5.390 -0.4143 -1.3439  2.5350
  778MOL0     H 5029   5.189   8.119   5.271  0.7121 -1.0253  3.6973
  778MOL0     H 5030   4.957   8.127   5.273  3.0198  0.8265  3.6073
  779MOL0     O 5031   5.487   6.498   8.518 -0.2439 -0.4851  0.1207
  779MOL0     C 5032   5.562   6.579   8.561 -1.0475  0.1655 -0.0658
  779MOL0     O 5033   5.533   6.701   8.612 -0.1224  0.1713  0.5828
  779MOL0     C 5034   5.403   6.734   8.642  0.2824  1.0690 -0.5924
  779MOL0     C 5035   5.289   6.696   8.577  0.1904  0.1645 -0.0862
  779MOL0     C 5036   5.159   6.743   8.617  0.2022  0.2812  0.3910
  779MOL0     C 5037   5.146   6.822   8.734 -0.5997  0.5649 -0.0340
  779MOL0     O 5038   5.025   6.879   8.781 -0.5034  0.6192  0.3315
  779MOL0     C 5039   4.895   6.837   8.723  0.2889  0.5326  0.2363
  779MOL0     C 5040   4.850   6.913   8.598  0.3739  0.9497 -0.5174
  779MOL0     C 5041   4.736   6.829   8.536 -0.1200 -0.1793 -0.1864
  779MOL0     C 5042   4.648   6.915   8.446 -0.0291  0.1890 -0.0726
  779MOL0     C 5043   4.529   6.844   8.377  0.0355 -0.1710 -0.4812
  779MOL0     C 5044   4.424   6.778   8.470 -0.3409 -0.0523 -0.0393
  779MOL0     C 5045   4.313   6.725   8.389  0.3377  0.5343  0.3151
  779MOL0     C 5046   4.331   6.578   8.339  0.2335 -0.1827  0.1742
  779MOL0     N 5047   4.205   6.523   8.296  0.0709 -0.3029  0.4642
  779MOL0     C 5048   4.158   6.400   8.333  0.1648 -0.8264 -0.2311
  779MOL0     C 5049   4.031   6.399   8.292  0.1336 -0.0297  0.4811
  779MOL0     C 5050   3.925   6.294   8.311  0.6713 -1.0816 -0.9518
  779MOL0     C 5051   3.808   6.324   8.227 -0.3956  0.7114 -0.4959
  779MOL0     C 5052   3.686   6.231   8.255  0.3338  0.1124  0.2023
  779MOL0     C 5053   3.562   6.291   8.183 -0.7686  0.4342  0.0984
  779MOL0     O 5054   3.504   6.401   8.261 -0.6352  0.2833  0.4354
  779MOL0     C 5055   3.394   6.462   8.204  0.7294  0.6600 -0.1382
  779MOL0     C 5056   3.394   6.501   8.067 -0.8242 -0.6382 -0.6685
  779MOL0     C 5057   3.290   6.558   8.003  0.9820 -0.6996 -0.1019
  779MOL0     C 5058   3.319   6.613   7.865 -0.6265  0.0607  0.5025
  779MOL0     C 5059   3.167   6.586   8.079  0.5284  0.1673  0.2900
  779MOL0     C 5060   3.042   6.625   8.024  0.2153 -0.3465  0.4836
  779MOL0     O 5061   2.930   6.564   8.074  0.9891  0.5150  0.5847
  779MOL0     C 5062   2.806   6.598   8.027  0.1265 -0.2877  0.5094
  779MOL0     C 5063   2.760   6.728   8.005  0.5216  0.7470 -0.5352
  779MOL0     C 5064   2.636   6.748   7.945  0.2912 -0.7207 -0.4421
  779MOL0     C 5065   2.566   6.639   7.894  0.1695  0.4227 -0.3034
  779MOL0     O 5066   2.445   6.647   7.829  0.1160 -0.0143  0.2773
  779MOL0     C 5067   2.348   6.727   7.885  0.1490 -0.1554  0.5042
  779MOL0     C 5068   2.301   6.683   8.029  0.2060 -0.1271 -0.3498
  779MOL0     C 5069   2.219   6.546   8.034 -1.2708  0.1347 -0.2821
  779MOL0     C 5070   2.110   6.519   7.925 -0.6520 -0.0261  0.6067
  779MOL0     C 5071   2.001   6.623   7.935  0.5504  0.3772 -0.1347
  779MOL0     C 5072   1.898   6.590   8.036 -1.0664  0.8010  0.1722
  779MOL0     C 5073   1.782   6.694   8.037 -0.3992  0.3240  0.2799
  779MOL0     C 5074   1.811   6.819   8.128 -0.1393  0.3087 -0.1225
  779MOL0    Cl 5075   1.832   6.760   8.299  0.2338  0.5561  0.4930
  779MOL0     C 5076   2.614   6.508   7.925 -0.9712  0.8223  0.2265
  779MOL0     C 5077   2.734   6.482   7.991 -0.5341  0.2508 -0.6179
  779MOL0     O 5078   3.046   6.718   7.942  0.1638 -0.3752 -0.3227
  779MOL0     C 5079   3.164   6.535   8.218  0.2566  0.5632  0.1325
  779MOL0     C 5080   3.278   6.481   8.270  0.3474 -0.1433  0.1888
  779MOL0     N 5081   4.004   6.523   8.227 -0.4644  0.2750  0.1277
  779MOL0     N 5082   4.110   6.592   8.226 -0.3954 -0.2178 -0.0867
  779MOL0     C 5083   5.262   6.846   8.814  0.3801  0.2990  0.3569
  779MOL0     C 5084   5.387   6.808   8.760  0.2561 -0.7621 -0.3077
  779MOL0     C 5085   5.713   6.558   8.562 -0.5241 -0.3306 -0.3229
  779MOL0     C 5086   5.774   6.462   8.489 -0.3163 -0.1188 -0.2681
  779MOL0     C 5087   5.903   6.431   8.499 -0.0650  0.2237  0.6468
  779MOL0     C 5088   5.990   6.500   8.577  0.5710  0.2231 -0.1742
  779MOL0     O 5089   6.119   6.465   8.582 -0.7767 -0.1312 -0.0278
  779MOL0     C 5090   6.208   6.542   8.659 -0.1912  0.4695  0.2011
  779MOL0     C 5091   6.346   6.495   8.632 -0.3879  0.5416 -0.9552
  779MOL0     C 5092   6.454   6.596   8.687  0.9481  0.1630  0.8760
  779MOL0     C 5093   6.593   6.543   8.673 -0.6349  0.4847  0.0677
  779MOL0     C 5094   6.690   6.622   8.752  0.5709 -0.6438  0.6997
  779MOL0     C 5095   6.780   6.686   8.795 -0.1620 -0.2103  0.1623
  779MOL0     C 5096   5.937   6.612   8.647 -0.2864  0.0203 -0.3489
  779MOL0     C 5097   5.798   6.638   8.645  0.1657  0.3787  0.0706
  779MOL0     H 5098   5.276   6.639   8.486 -1.3281  0.1992  0.0871
  779MOL0     H 5099   5.073   6.720   8.556  0.0628  1.9318 -0.0663
  779MOL0     H 5100   4.898   6.733   8.689 -2.4066  0.6917 -0.7196
  779MOL0     H 5101   4.816   6.836   8.800  0.0967 -3.9601  0.2853
  779MOL0     H 5102   4.803   7.002   8.640 -2.2666 -1.0462  1.0619
  779MOL0     H 5103   4.934   6.918   8.528 -0.6982 -3.0707 -2.4233
  779MOL0     H 5104   4.776   6.741   8.485  1.1087 -1.2292  2.3888
  779MOL0     H 5105   4.676   6.782   8.615 -2.4303  0.4989 -1.4270
  779MOL0     H 5106   4.608   6.998   8.504 -1.8956 -0.1976 -0.7410
  779MOL0     H 5107   4.712   6.961   8.369  0.6566 -0.5284  0.0581
  779MOL0     H 5108   4.473   6.901   8.303 -1.0001 -0.2125  0.2503
  779MOL0     H 5109   4.567   6.756   8.324 -0.6395 -1.4038  1.0053
  779MOL0     H 5110   4.465   6.702   8.538  0.2129  0.2603 -0.0140
  779MOL0     H 5111   4.385   6.851   8.541 -1.2302  0.5250 -1.1005
  779MOL0     H 5112   4.231   6.724   8.462  0.5907 -0.0553  0.5990
  779MOL0     H 5113   4.287   6.797   8.311  2.3818  1.0701  0.0749
  779MOL0     H 5114   4.375   6.519   8.420 -2.5543  0.3834  2.2463
  779MOL0     H 5115   4.406   6.593   8.261  0.9799 -1.0806  0.7058
  779MOL0     H 5116   4.212   6.320   8.383 -0.1097  0.6280  2.5916
  779MOL0     H 5117   3.955   6.192   8.288 -0.9960 -1.4753 -1.5249
  779MOL0     H 5118   3.899   6.308   8.416  1.0007 -1.2050 -0.8525
  779MOL0     H 5119   3.847   6.299   8.128 -3.5293  0.8360 -1.9000
  779MOL0     H 5120   3.782   6.430   8.233  1.0470  1.0317  0.7077
  779MOL0     H 5121   3.671   6.236   8.363  0.2829 -2.7854  0.4253
  779MOL0     H 5122   3.704   6.126   8.230 -3.7224 -1.0385  1.3460
  779MOL0     H 5123   3.493   6.207   8.169  1.0093 -1.3856  1.7058
  779MOL0     H 5124   3.595   6.334   8.088  1.3333  1.7028  1.3241
  779MOL0     H 5125   3.490   6.483   8.020 -0.8798 -2.1739 -0.2321
  779MOL0     H 5126   3.319   6.722   7.862  3.8818  0.2017 -0.7089
  779MOL0     H 5127   3.417   6.585   7.827 -1.0436  0.6637 -1.0987
  779MOL0     H 5128   3.248   6.575   7.790 -0.5689  0.9410 -0.0139
  779MOL0     H 5129   2.817   6.814   8.038  0.0786  0.8904 -0.1392
  779MOL0     H 5130   2.595   6.846   7.925  0.6703 -0.8699 -2.0461
  779MOL0     H 5131   2.387   6.830   7.886 -0.4256  0.1432  3.7918
  779MOL0     H 5132   2.265   6.737   7.814  0.5826 -1.2358 -0.1822
  779MOL0     H 5133   2.382   6.664   8.099  0.5988 -1.1380 -1.0637
  779MOL0     H 5134   2.223   6.755   8.055  1.4475  1.5319 -1.0731
  779MOL0     H 5135   2.161   6.554   8.126  0.8142  1.0254  1.0420
  779MOL0     H 5136   2.295   6.467   8.040 -2.9184 -1.4205  0.9425
  779MOL0     H 5137   2.159   6.515   7.828  1.3953 -1.3382  1.6100
  779MOL0     H 5138   2.061   6.421   7.937  0.7256 -0.6042  1.8669
  779MOL0     H 5139   1.952   6.637   7.838 -1.1092  1.4616  0.8142
  779MOL0     H 5140   2.047   6.721   7.951  1.6503  0.1357 -1.5677
  779MOL0     H 5141   1.860   6.490   8.016  1.0175 -0.3219  1.5952
  779MOL0     H 5142   1.953   6.578   8.129  3.2754  0.5025 -2.1943
  779MOL0     H 5143   1.700   6.639   8.084 -0.6529  0.6654  0.2372
  779MOL0     H 5144   1.756   6.721   7.935 -0.9403  0.2741  0.4031
  779MOL0     H 5145   1.737   6.899   8.124  0.6551  1.0120 -2.3690
  779MOL0     H 5146   1.899   6.875   8.095  0.0449  0.6129  0.8450
  779MOL0     H 5147   2.550   6.428   7.890  1.5235 -1.6160  0.7762
  779MOL0     H 5148   2.767   6.380   8.007  0.3983  0.4791 -1.0101
  779MOL0     H 5149   3.080   6.546   8.286  0.8745  0.3065  0.9628
  779MOL0     H 5150   3.268   6.438   8.370  0.1255 -0.9364 -0.1627
  779MOL0     H 5151   5.258   6.899   8.909  0.3653  1.3675 -0.2208
  779MOL0     H 5152   5.478   6.833   8.813  0.6565 -0.3147 -1.1821
  779MOL0     H 5153   5.710   6.400   8.426  1.2994 -1.9565 -0.2034
  779MOL0     H 5154   5.928   6.337   8.449 -0.5457  0.8050 -0.7206
  779MOL0     H 5155   6.202   6.642   8.614 -2.7698 -1.5157 -4.6939
  779MOL0     H 5156   6.193   6.527   8.766 -1.7638 -5.1718 -0.4644
  779MOL0     H 5157   6.364   6.495   8.524  0.4401  0.0878 -0.8253
  779MOL0     H 5158   6.358   6.393   8.669  1.2532  0.0779 -2.5826
  779MOL0     H 5159   6.438   6.608   8.795  0.8528  1.7152  0.7034
  779MOL0     H 5160   6.428   6.692   8.641 -2.4839 -2.2460 -2.9819
  779MOL0     H 5161   6.624   6.550   8.569  3.7108 -3.7052  0.7175
  779MOL0     H 5162   6.594   6.434   8.686 -0.5051  0.6199  1.3616
  779MOL0     H 5163   6.861   6.720   8.856 -1.6218  2.4501  0.8244
  779MOL0     H 5164   6.009   6.673   8.700  0.7254  1.6375 -3.3202
  779MOL0     H 5165   5.755   6.715   8.708 -3.9916  0.5341 -2.5780
  780MOL0     O 5166   3.930   5.273   2.490  0.1212  0.3377  0.0791
  780MOL0     C 5167   3.977   5.333   2.394 -0.5882  0.0532  0.2880
  780MOL0     O 5168   3.914   5.368   2.279  0.5300 -0.0428 -0.2020
  780MOL0     C 5169   3.789   5.322   2.253  0.6236 -0.0248  0.6312
  780MOL0     C 5170   3.753   5.192   2.239  0.9806  0.0105  0.2277
  780MOL0     C 5171   3.629   5.151   2.191 -0.4942 -0.3377 -0.1331
  780MOL0     C 5172   3.540   5.250   2.148  0.7072  0.8739 -1.1455
  780MOL0     O 5173   3.421   5.220   2.088  0.0072 -0.1461  0.7072
  780MOL0     C 5174   3.345   5.113   2.138 -0.9860 -0.5333 -0.1353
  780MOL0     C 5175   3.201   5.114   2.087  0.1880  0.6787  0.1440
  780MOL0     C 5176   3.127   4.990   2.138 -0.4046  0.3904  0.4887
  780MOL0     C 5177   2.975   4.988   2.154 -0.4920  0.0994  0.5264
  780MOL0     C 5178   2.876   4.873   2.092 -0.2706  0.7135 -0.1503
  780MOL0     C 5179   2.889   4.880   1.940  0.1469 -0.2638  0.1838
  780MOL0     C 5180   2.771   4.814   1.870 -0.3038  0.6272  0.3803
  780MOL0     C 5181   2.774   4.832   1.718 -0.8428 -0.6220  0.3162
  780MOL0     N 5182   2.650   4.781   1.665  0.1404  0.1502 -0.1641
  780MOL0     C 5183   2.526   4.840   1.682  0.3809 -0.1052  0.5311
  780MOL0     C 5184   2.445   4.743   1.639 -0.0073  0.5819 -0.7645
  780MOL0     C 5185   2.295   4.745   1.648  0.3033  0.1829 -0.5615
  780MOL0     C 5186   2.250   4.885   1.597 -0.0231  0.4041  0.6609
  780MOL0     C 5187   2.102   4.882   1.574 -0.8334  0.1322  0.2594
  780MOL0     C 5188   2.065   4.801   1.447  0.2830  0.2200 -0.5551
  780MOL0     O 5189   1.941   4.847   1.403 -0.3779  0.6967 -0.4867
  780MOL0     C 5190   1.889   4.799   1.284 -0.6149 -0.3055 -0.4722
  780MOL0     C 5191   1.767   4.857   1.261 -0.0540  0.4262 -0.0488
  780MOL0     C 5192   1.689   4.821   1.155 -0.5817  0.2880 -0.9211
  780MOL0     C 5193   1.556   4.884   1.151 -0.3942 -0.0022 -0.2479
  780MOL0     C 5194   1.738   4.721   1.069  0.2341 -0.1926  0.3380
  780MOL0     C 5195   1.652   4.671   0.954 -0.4232  0.4903 -0.6876
  780MOL0     O 5196   1.544   4.735   0.924 -0.4565  0.6112 -0.3042
  780MOL0     C 5197   1.442   4.690   0.833 -0.3667  0.1529  0.0039
  780MOL0     C 5198   1.401   4.556   0.820  0.4703 -0.4018 -0.4333
  780MOL0     C 5199   1.295   4.520   0.737 -0.2432 -0.3317 -0.7817
  780MOL0     C 5200   1.228   4.625   0.662 -0.5464 -0.1264  0.1740
  780MOL0     O 5201   1.135   4.587   0.569  0.5881 -0.4274 -0.0765
  780MOL0     C 5202   1.014   4.673   0.561  0.1945  0.9631 -0.6455
  780MOL0     C 5203   0.900   4.582   0.509 -0.0350 -1.3327 -0.0694
  780MOL0     C 5204   0.755   4.641   0.518 -0.8881  0.7753  0.4309
  780MOL0     C 5205   0.725   4.706   0.658 -1.3082 -0.3028 -0.7897
  780MOL0     C 5206   0.577   4.748   0.675  0.8555  0.2743  0.5352
  780MOL0     C 5207   0.493   4.636   0.740  0.0859 -0.2465  0.9904
  780MOL0     C 5208   0.351   4.679   0.764  0.4894  0.0223 -0.2950
  780MOL0     C 5209   0.258   4.554   0.792  0.7764  0.7108 -1.3183
  780MOL0    Cl 5210   0.291   4.490   0.959 -0.0481  0.1572 -0.0718
  780MOL0     C 5211   1.280   4.752   0.661  0.0294  0.6668  0.5145
  780MOL0     C 5212   1.379   4.789   0.748 -0.1191 -0.4277 -0.8647
  780MOL0     O 5213   1.697   4.575   0.887  0.0130 -0.7118  0.2346
  780MOL0     C 5214   1.856   4.657   1.100 -0.9261  0.9266 -1.0056
  780MOL0     C 5215   1.935   4.694   1.213  0.1052  0.5809  0.1767
  780MOL0     N 5216   2.518   4.631   1.603  0.1058  0.4528  0.3069
  780MOL0     N 5217   2.638   4.660   1.616 -0.2955  0.0954 -0.0797
  780MOL0     C 5218   3.576   5.374   2.147  0.4181 -0.4166 -0.7972
  780MOL0     C 5219   3.695   5.419   2.213  0.8743 -1.0843 -0.6279
  780MOL0     C 5220   4.118   5.387   2.415 -0.5374 -0.1078 -0.4850
  780MOL0     C 5221   4.190   5.467   2.313 -0.1595 -0.6960 -0.0562
  780MOL0     C 5222   4.322   5.500   2.328 -0.0615 -0.0425  0.5241
  780MOL0     C 5223   4.403   5.467   2.442  1.0214 -0.1302 -0.1025
  780MOL0     O 5224   4.531   5.492   2.436  0.0674  0.5217  0.4028
  780MOL0     C 5225   4.627   5.428   2.523  0.1192  0.5061 -0.6300
  780MOL0     C 5226   4.772   5.460   2.478 -1.0971  0.5048 -0.2880
  780MOL0     C 5227   4.784   5.431   2.329  0.5248  0.6019 -0.5381
  780MOL0     C 5228   4.930   5.415   2.283 -0.0184  0.3436 -0.0475
  780MOL0     C 5229   5.007   5.304   2.344 -0.1965  0.5894  0.8220
  780MOL0     C 5230   5.073   5.216   2.398  0.5577 -0.1149  0.5891
  780MOL0     C 5231   4.324   5.404   2.543 -0.2781  0.2691 -0.6827
  780MOL0     C 5232   4.192   5.358   2.528  0.4146 -0.3746  0.1359
  780MOL0     H 5233   3.832   5.121   2.261  0.1331 -0.8432  0.5736
  780MOL0     H 5234   3.601   5.046   2.185  0.1175 -0.6290  1.7768
  780MOL0     H 5235   3.392   5.020   2.105 -0.3572 -0.3185  0.1457
  780MOL0     H 5236   3.346   5.125   2.246  1.4392 -1.7570  0.0427
  780MOL0     H 5237   3.154   5.202   2.130  0.7158  0.6161  0.8646
  780MOL0     H 5238   3.209   5.132   1.979 -2.0718  1.3122  0.0324
  780MOL0     H 5239   3.172   4.908   2.080  1.6527  2.2200 -0.6794
  780MOL0     H 5240   3.166   4.956   2.235  0.4759 -2.7888 -0.8236
  780MOL0     H 5241   2.964   4.996   2.263  1.1743  1.2468  0.6459
  780MOL0     H 5242   2.931   5.083   2.124  1.6946  0.6122 -1.3443
  780MOL0     H 5243   2.902   4.770   2.118  0.2260  0.6100 -1.0197
  780MOL0     H 5244   2.774   4.893   2.129 -1.5499 -1.7817 -2.0274
  780MOL0     H 5245   2.879   4.985   1.912 -3.3639 -0.0808  1.5653
  780MOL0     H 5246   2.990   4.851   1.909  0.2748  0.1292  0.2283
  780MOL0     H 5247   2.778   4.707   1.890 -0.5272  0.6974  0.8503
  780MOL0     H 5248   2.676   4.850   1.911  0.7089  2.8979  0.9576
  780MOL0     H 5249   2.862   4.791   1.667 -0.2052  1.8900 -0.7703
  780MOL0     H 5250   2.793   4.939   1.700 -1.8488 -0.5050 -0.1076
  780MOL0     H 5251   2.503   4.940   1.718  0.4730  0.7807 -1.7282
  780MOL0     H 5252   2.243   4.663   1.598  0.1305  0.6578 -1.1740
  780MOL0     H 5253   2.263   4.744   1.752 -1.4364  0.6383 -1.0636
  780MOL0     H 5254   2.306   4.906   1.506 -0.3719  0.7922  0.5347
  780MOL0     H 5255   2.279   4.956   1.676  3.6575 -2.2436  1.9623
  780MOL0     H 5256   2.074   4.987   1.560  2.8967  1.4992  1.6608
  780MOL0     H 5257   2.064   4.839   1.667  2.2562  1.0946  2.1359
  780MOL0     H 5258   2.061   4.695   1.475  1.9784 -0.4104 -2.4574
  780MOL0     H 5259   2.137   4.807   1.364 -0.3697  0.8555 -1.0831
  780MOL0     H 5260   1.744   4.934   1.334 -1.7008 -3.5165  4.0898
  780MOL0     H 5261   1.537   4.939   1.243  1.4131  1.6376 -0.7840
  780MOL0     H 5262   1.544   4.951   1.065  3.7042  1.6728  0.2581
  780MOL0     H 5263   1.477   4.808   1.151 -2.5519  1.9969  2.9496
  780MOL0     H 5264   1.436   4.470   0.876 -0.4543 -1.1853 -1.0250
  780MOL0     H 5265   1.249   4.422   0.728 -1.4277 -0.0673  1.7099
  780MOL0     H 5266   0.990   4.709   0.662  1.2972 -1.6616  0.6438
  780MOL0     H 5267   1.022   4.755   0.489  1.5423  2.6122  1.2683
  780MOL0     H 5268   0.916   4.561   0.403 -0.2635  1.3181 -0.7003
  780MOL0     H 5269   0.909   4.485   0.558 -0.6258 -1.4735 -0.2333
  780MOL0     H 5270   0.679   4.572   0.478  1.7458 -1.0663 -1.7575
  780MOL0     H 5271   0.755   4.726   0.450 -0.3910 -1.5199 -2.6793
  780MOL0     H 5272   0.757   4.660   0.751 -0.0556  0.6350 -0.7289
  780MOL0     H 5273   0.776   4.801   0.641 -0.3982 -0.8786 -1.3399
  780MOL0     H 5274   0.547   4.781   0.576  3.5277  0.9269 -0.1417
  780MOL0     H 5275   0.565   4.834   0.742  1.0512  2.5213 -2.1714
  780MOL0     H 5276   0.493   4.549   0.673  3.3079  1.7569 -1.9110
  780MOL0     H 5277   0.544   4.597   0.829 -0.0390 -2.7070  0.0756
  780MOL0     H 5278   0.320   4.734   0.675 -0.3052  0.1365  0.0446
  780MOL0     H 5279   0.348   4.755   0.843  1.3009 -3.0089  2.8673
  780MOL0     H 5280   0.252   4.474   0.718 -3.8685 -2.2655  1.7646
  780MOL0     H 5281   0.154   4.588   0.786  1.3664  2.7937 -0.7484
  780MOL0     H 5282   1.235   4.824   0.593 -1.9682 -0.8035  0.1908
  780MOL0     H 5283   1.405   4.894   0.752 -1.5799 -0.0718  0.4664
  780MOL0     H 5284   1.890   4.576   1.036 -0.8533 -1.6437  2.0706
  780MOL0     H 5285   2.035   4.659   1.233  0.5505  1.4866 -0.3798
  780MOL0     H 5286   3.499   5.438   2.106  0.1457  1.5876  2.4172
  780MOL0     H 5287   3.714   5.526   2.218 -2.4839 -0.4311  0.8354
  780MOL0     H 5288   4.126   5.497   2.230  0.3133  4.5845  1.1669
  780MOL0     H 5289   4.380   5.543   2.247  2.4780 -2.2538  1.0075
  780MOL0     H 5290   4.606   5.478   2.618 -0.1978  2.0410 -1.4729
  780MOL0     H 5291   4.610   5.320   2.525 -2.4794  0.7926  3.2518
  780MOL0     H 5292   4.833   5.400   2.545 -0.3622  1.5018 -0.0353
  780MOL0     H 5293   4.800   5.565   2.494  2.2442 -0.2098 -0.6108
  780MOL0     H 5294   4.738   5.506   2.264  0.6147 -0.6227 -2.0855
  780MOL0     H 5295   4.725   5.343   2.302 -2.8606  1.5436  2.9526
  780MOL0     H 5296   4.972   5.515   2.301  2.7286 -0.8043  0.4447
  780MOL0     H 5297   4.919   5.406   2.175 -1.1973  0.3828  0.0541
  780MOL0     H 5298   5.129   5.141   2.450  0.9322 -0.5363 -0.3959
  780MOL0     H 5299   4.374   5.364   2.630 -0.5421 -0.2134 -0.7492
  780MOL0     H 5300   4.138   5.287   2.591 -2.8061 -1.8488 -3.8419
  781MOL0     O 5301   1.136   9.804   8.983  0.6982  0.1672  0.1988
  781MOL0     C 5302   1.246   9.746   8.961 -0.0957  0.0188 -0.1359
  781MOL0     O 5303   1.263   9.648   8.874 -0.2275 -0.2946  0.0329
  781MOL0     C 5304   1.161   9.587   8.808  0.5047  0.4089  0.5258
  781MOL0     C 5305   1.142   9.450   8.819  0.4023  0.1651 -0.1573
  781MOL0     C 5306   1.031   9.378   8.761  0.7689 -0.1176  0.1247
  781MOL0     C 5307   0.934   9.453   8.687 -0.3394 -0.6111  0.0254
  781MOL0     O 5308   0.820   9.396   8.633 -0.2989  0.7069 -0.8072
  781MOL0     C 5309   0.762   9.268   8.679  0.3734 -0.4909 -0.4200
  781MOL0     C 5310   0.677   9.306   8.800 -0.8092  0.5279 -0.3901
  781MOL0     C 5311   0.587   9.427   8.785 -0.5648 -0.7780  0.2928
  781MOL0     C 5312   0.469   9.398   8.690 -0.3890 -0.8571 -0.0656
  781MOL0     C 5313   0.361   9.505   8.705 -0.3922  0.2829 -0.0036
  781MOL0     C 5314   0.238   9.479   8.613 -1.0162  0.8033  0.6057
  781MOL0     C 5315   0.264   9.540   8.476  0.1371 -0.2247  0.5561
  781MOL0     C 5316   0.154   9.525   8.385  0.5302 -0.1696 -0.3233
  781MOL0     N 5317   0.025   9.585   8.423  0.7772  0.7172  0.9882
  781MOL0     C 5318   0.004   9.719   8.437  0.1667 -0.4216 -0.0943
  781MOL0     C 5319  -0.128   9.718   8.473  0.1596  0.2448 -0.2610
  781MOL0     C 5320  -0.208   9.839   8.491  0.3898 -0.0393 -0.0286
  781MOL0     C 5321  -0.360   9.817   8.473 -0.1686  0.1460  0.2056
  781MOL0     C 5322  -0.443   9.937   8.468  1.3435 -0.4731 -0.5641
  781MOL0     C 5323  -0.469  10.010   8.607  0.1389  0.4684  0.1513
  781MOL0     O 5324  -0.529   9.924   8.698 -0.6403 -0.4225  0.3585
  781MOL0     C 5325  -0.665   9.931   8.703  0.6194 -1.0228 -0.2659
  781MOL0     C 5326  -0.725   9.854   8.795  0.8022 -1.2537 -0.5448
  781MOL0     C 5327  -0.861   9.841   8.813 -0.3661  0.4085  1.0243
  781MOL0     C 5328  -0.905   9.754   8.931 -0.3269 -0.5809  0.3954
  781MOL0     C 5329  -0.953   9.907   8.726  0.0731  0.1880 -0.6574
  781MOL0     C 5330  -1.099   9.917   8.758 -0.5452 -0.0773 -0.0945
  781MOL0     O 5331  -1.181   9.813   8.713  0.2983  0.2047 -0.2159
  781MOL0     C 5332  -1.318   9.844   8.715  0.4368  0.3305 -0.3194
  781MOL0     C 5333  -1.390   9.810   8.602 -0.6084 -0.5197 -0.5698
  781MOL0     C 5334  -1.528   9.839   8.589 -0.0066  0.3458  0.2125
  781MOL0     C 5335  -1.601   9.907   8.683  0.2632  0.9966 -0.3989
  781MOL0     O 5336  -1.732   9.912   8.685  0.1601 -0.2569 -0.4016
  781MOL0     C 5337  -1.803   9.889   8.564  0.3110  0.7089  0.2996
  781MOL0     C 5338  -1.954   9.901   8.569 -0.5790 -0.6744  0.7623
  781MOL0     C 5339  -2.011   9.800   8.666  0.4236 -0.0257  0.1296
  781MOL0     C 5340  -2.165   9.806   8.666  0.5937 -0.1853 -0.7864
  781MOL0     C 5341  -2.243   9.917   8.586 -0.7880 -0.2022  0.1257
  781MOL0     C 5342  -2.382   9.873   8.545  0.2998  0.1673 -0.5018
  781MOL0     C 5343  -2.478   9.868   8.665  0.0223 -0.1098 -0.1036
  781MOL0     C 5344  -2.628   9.865   8.632  0.0429 -0.9541 -0.0984
  781MOL0    Cl 5345  -2.728   9.860   8.787  0.3365  0.3882  0.0067
  781MOL0     C 5346  -1.525   9.939   8.802  0.3239 -0.8783  0.1947
  781MOL0     C 5347  -1.395   9.901   8.819 -0.5999  0.1781  0.2882
  781MOL0     O 5348  -1.136  10.026   8.800  0.3144  0.2166  0.2547
  781MOL0     C 5349  -0.900   9.986   8.619 -0.5950 -1.3697  0.2471
  781MOL0     C 5350  -0.753  10.004   8.611 -0.1737 -0.1251 -0.0028
  781MOL0     N 5351  -0.176   9.591   8.476 -0.0363  0.3736  0.1307
  781MOL0     N 5352  -0.083   9.504   8.442  0.6981  0.5322 -0.4579
  781MOL0     C 5353   0.964   9.590   8.662 -0.3912 -0.0496  0.6326
  781MOL0     C 5354   1.067   9.655   8.730 -0.6822 -0.0351  0.6458
  781MOL0     C 5355   1.365   9.775   9.038  0.1047 -0.4536 -0.5699
  781MOL0     C 5356   1.364   9.896   9.124  0.3693  0.7098 -0.5173
  781MOL0     C 5357   1.484   9.933   9.190 -0.0095 -0.1514  0.3547
  781MOL0     C 5358   1.603   9.858   9.188  0.2956 -0.4296  0.1110
  781MOL0     O 5359   1.708   9.906   9.270 -0.0831  0.2946 -0.5007
  781MOL0     C 5360   1.838   9.849   9.255  0.3730  0.2902 -0.2198
  781MOL0     C 5361   1.916   9.871   9.381  0.3017  0.3074  0.0595
  781MOL0     C 5362   2.067   9.860   9.359  0.1046 -0.0887 -0.0204
  781MOL0     C 5363   2.164   9.909   9.467  0.4540  0.5833 -0.0955
  781MOL0     C 5364   2.296   9.895   9.420 -0.9676  0.2071  0.0063
  781MOL0     C 5365   2.411   9.871   9.381  0.0566 -0.1486 -0.0984
  781MOL0     C 5366   1.604   9.741   9.102  0.0931  0.0240 -0.8525
  781MOL0     C 5367   1.484   9.707   9.031 -0.5041 -0.2568  0.6526
  781MOL0     H 5368   1.215   9.395   8.877  0.5703  0.1541 -0.3787
  781MOL0     H 5369   1.006   9.274   8.776  0.7683 -0.4513 -1.9458
  781MOL0     H 5370   0.689   9.228   8.608 -1.5843  1.8340  0.1803
  781MOL0     H 5371   0.836   9.192   8.704  1.1645  0.5316  0.4534
  781MOL0     H 5372   0.624   9.222   8.846 -0.5065  0.8027  0.4829
  781MOL0     H 5373   0.747   9.326   8.881 -1.7551 -0.6027  0.7563
  781MOL0     H 5374   0.549   9.444   8.886 -0.9256  0.2382 -0.0009
  781MOL0     H 5375   0.633   9.520   8.749 -1.4116 -0.1976  0.6866
  781MOL0     H 5376   0.494   9.392   8.583  0.2738  1.9181 -0.1272
  781MOL0     H 5377   0.427   9.300   8.717 -0.7842 -0.5571  0.4230
  781MOL0     H 5378   0.337   9.507   8.812 -0.4046  0.9063 -0.0141
  781MOL0     H 5379   0.403   9.601   8.674 -1.6647  0.4599 -1.2398
  781MOL0     H 5380   0.223   9.371   8.604  3.5686  0.0977 -1.0341
  781MOL0     H 5381   0.152   9.527   8.661 -1.2145  1.3593 -0.2806
  781MOL0     H 5382   0.285   9.647   8.481  0.4015 -0.1488 -1.4390
  781MOL0     H 5383   0.356   9.497   8.436  0.8379  2.2430 -0.6619
  781MOL0     H 5384   0.141   9.417   8.374 -0.4169  0.0650 -1.8156
  781MOL0     H 5385   0.186   9.576   8.294  3.6125  0.3047  0.9109
  781MOL0     H 5386   0.056   9.814   8.434 -0.3310 -0.0921  1.0107
  781MOL0     H 5387  -0.189   9.890   8.586 -0.3638  1.4743 -0.6623
  781MOL0     H 5388  -0.163   9.907   8.418 -0.3162 -0.9053 -1.3124
  781MOL0     H 5389  -0.400   9.755   8.553  2.0221  0.4127  1.6095
  781MOL0     H 5390  -0.376   9.749   8.389 -0.3010  0.2749  0.1261
  781MOL0     H 5391  -0.536   9.893   8.432  1.3410 -1.6903  0.8160
  781MOL0     H 5392  -0.414  10.012   8.394  0.6658  3.3562  2.6801
  781MOL0     H 5393  -0.529  10.099   8.592 -0.6802 -0.0333  0.4067
  781MOL0     H 5394  -0.372  10.037   8.651 -0.8114  0.3789  2.4254
  781MOL0     H 5395  -0.657   9.800   8.861 -0.0390 -0.9134  0.6333
  781MOL0     H 5396  -0.923   9.826   9.012  0.8899  0.9326 -0.6278
  781MOL0     H 5397  -0.998   9.702   8.903  0.1682 -1.6514  0.7020
  781MOL0     H 5398  -0.823   9.688   8.960  1.3744  0.4132 -1.8020
  781MOL0     H 5399  -1.342   9.760   8.518 -2.9554 -1.6895 -1.3126
  781MOL0     H 5400  -1.559   9.823   8.486  0.7879  0.6369 -0.0815
  781MOL0     H 5401  -1.772   9.948   8.477  0.6827 -1.2886 -0.9923
  781MOL0     H 5402  -1.785   9.789   8.524  0.1287  2.3909 -4.7001
  781MOL0     H 5403  -1.969  10.005   8.599 -0.7177 -0.8576  1.3352
  781MOL0     H 5404  -1.978   9.882   8.464  1.9163 -0.6043  0.1309
  781MOL0     H 5405  -1.975   9.814   8.768  0.0731  3.0794 -0.0519
  781MOL0     H 5406  -1.967   9.710   8.622  1.3036  1.5629 -2.5003
  781MOL0     H 5407  -2.200   9.712   8.623  1.2328 -1.2007  0.8410
  781MOL0     H 5408  -2.193   9.814   8.771  1.7366  2.1971 -0.5912
  781MOL0     H 5409  -2.188   9.948   8.497 -1.6841  2.3093  0.3578
  781MOL0     H 5410  -2.231  10.004   8.651  3.1073 -1.5734  1.5140
  781MOL0     H 5411  -2.414   9.949   8.474  1.0568 -1.0140 -2.1919
  781MOL0     H 5412  -2.382   9.768   8.514  0.1500 -0.1364  0.4955
  781MOL0     H 5413  -2.461   9.951   8.735 -0.8628 -0.9374  1.1290
  781MOL0     H 5414  -2.448   9.785   8.730 -2.8598 -0.2466  1.2075
  781MOL0     H 5415  -2.651   9.774   8.576 -0.5333 -0.1739 -1.1961
  781MOL0     H 5416  -2.649   9.954   8.572 -1.4698  0.0994  1.8590
  781MOL0     H 5417  -1.577   9.978   8.889 -1.1411 -3.0596  0.4023
  781MOL0     H 5418  -1.342   9.932   8.909  2.1607 -0.8050 -0.8925
  781MOL0     H 5419  -0.963  10.033   8.544 -1.7560  1.2245  2.6639
  781MOL0     H 5420  -0.712  10.065   8.531  1.3306  0.4037  1.1421
  781MOL0     H 5421   0.891   9.635   8.596 -0.7575 -1.5358 -0.0105
  781MOL0     H 5422   1.071   9.760   8.704 -1.8227  0.0680  0.8147
  781MOL0     H 5423   1.279   9.962   9.137  0.9196  0.9328  2.6315
  781MOL0     H 5424   1.481  10.028   9.242 -2.9368  0.5622 -0.9434
  781MOL0     H 5425   1.831   9.742   9.234 -1.4972  0.8287 -2.7656
  781MOL0     H 5426   1.888   9.893   9.169 -0.1703  2.1170  0.3479
  781MOL0     H 5427   1.872   9.811   9.461  0.5683  0.3921  0.2706
  781MOL0     H 5428   1.898   9.970   9.423  1.0159  0.5690 -0.2438
  781MOL0     H 5429   2.101   9.916   9.272  2.1822  2.8059  2.4375
  781MOL0     H 5430   2.092   9.754   9.344 -0.9679 -0.3133 -0.3253
  781MOL0     H 5431   2.158   9.861   9.566 -2.0118 -0.9483 -0.8886
  781MOL0     H 5432   2.147  10.016   9.484  0.1547  0.8684 -2.0203
  781MOL0     H 5433   2.509   9.844   9.349 -0.2711 -1.0081 -0.4148
  781MOL0     H 5434   1.689   9.674   9.100  0.5298  0.4389  1.0983
  781MOL0     H 5435   1.486   9.614   8.976  0.9784  1.3317 -2.1561
  782MOL0     O 5436   7.469   0.471   6.132 -0.1740 -0.2958  0.2588
  782MOL0     C 5437   7.456   0.464   6.011  0.2701 -0.2339  0.3399
  782MOL0     O 5438   7.333   0.456   5.945  0.5541 -0.2864 -0.0580
  782MOL0     C 5439   7.208   0.464   5.995 -0.3637  0.7800 -0.0973
  782MOL0     C 5440   7.111   0.431   5.906 -0.0579  0.7649 -0.2633
  782MOL0     C 5441   6.980   0.441   5.947 -1.2857 -0.1188 -0.6035
  782MOL0     C 5442   6.938   0.469   6.081  0.2144  0.0942 -0.2544
  782MOL0     O 5443   6.803   0.464   6.116  0.3196  0.3476  0.4104
  782MOL0     C 5444   6.704   0.405   6.019 -0.6466 -0.6594 -0.4308
  782MOL0     C 5445   6.580   0.360   6.085 -0.3094  0.6677 -0.0967
  782MOL0     C 5446   6.500   0.474   6.132 -0.5991  0.0277 -0.3957
  782MOL0     C 5447   6.484   0.482   6.284  0.3374 -0.8204 -0.0740
  782MOL0     C 5448   6.459   0.624   6.343  0.3910  0.8293 -0.2909
  782MOL0     C 5449   6.348   0.695   6.264  0.3590  0.1826 -0.3031
  782MOL0     C 5450   6.328   0.836   6.307  0.0428  0.0498 -0.0817
  782MOL0     C 5451   6.439   0.943   6.276  0.8521 -0.5246 -0.4785
  782MOL0     N 5452   6.386   1.073   6.315 -0.1126  0.1987  0.1934
  782MOL0     C 5453   6.362   1.106   6.451 -0.6614  0.0296 -0.3316
  782MOL0     C 5454   6.363   1.242   6.442 -0.3745 -0.3595 -0.4574
  782MOL0     C 5455   6.329   1.333   6.559  0.7726 -0.2296 -0.0921
  782MOL0     C 5456   6.186   1.395   6.552 -0.8115  0.1241  1.1035
  782MOL0     C 5457   6.178   1.523   6.474  0.4406  0.1392 -0.1377
  782MOL0     C 5458   6.029   1.543   6.422 -0.7695  0.2579 -0.4865
  782MOL0     O 5459   5.952   1.581   6.541  0.3140 -0.5469  0.0372
  782MOL0     C 5460   5.817   1.617   6.527 -0.4316  0.4715 -0.5158
  782MOL0     C 5461   5.772   1.715   6.609 -0.7447  0.9588  0.0095
  782MOL0     C 5462   5.647   1.764   6.602  0.5213 -0.7527 -0.6740
  782MOL0     C 5463   5.607   1.853   6.723 -1.1494 -0.0140  0.0564
  782MOL0     C 5464   5.560   1.714   6.511 -0.4164 -0.3445  0.2169
  782MOL0     C 5465   5.421   1.761   6.501  0.4266 -0.5086 -0.6072
  782MOL0     O 5466   5.335   1.659   6.484 -0.0664  0.2533  0.2467
  782MOL0     C 5467   5.212   1.700   6.450  0.0262  0.3217  0.2468
  782MOL0     C 5468   5.110   1.690   6.542  0.4347  0.8376 -0.3223
  782MOL0     C 5469   4.973   1.714   6.510 -1.2170 -0.0406 -0.7173
  782MOL0     C 5470   4.943   1.751   6.380 -0.0428  0.4781  0.7562
  782MOL0     O 5471   4.820   1.791   6.337 -0.5034  0.0107  0.4065
  782MOL0     C 5472   4.702   1.787   6.421 -0.3036 -0.6282  0.0776
  782MOL0     C 5473   4.569   1.820   6.363  0.0611 -0.5404 -0.0075
  782MOL0     C 5474   4.534   1.722   6.242 -0.6634  0.2513 -0.5814
  782MOL0     C 5475   4.387   1.734   6.185 -0.1098  0.4425  0.4246
  782MOL0     C 5476   4.389   1.866   6.102 -0.8420  0.0426 -0.3060
  782MOL0     C 5477   4.244   1.879   6.041 -0.3310  0.5428 -0.2892
  782MOL0     C 5478   4.240   1.996   5.953 -0.6321 -0.0218  0.1336
  782MOL0     C 5479   4.094   2.029   5.901 -0.8206  0.6682 -1.1892
  782MOL0    Cl 5480   4.012   1.891   5.819 -0.4226  0.0027 -0.1742
  782MOL0     C 5481   5.048   1.762   6.285  0.4737 -0.1113 -0.1803
  782MOL0     C 5482   5.175   1.717   6.320  0.8871 -0.3816 -0.6666
  782MOL0     O 5483   5.389   1.884   6.511 -0.6553  0.7415  1.1217
  782MOL0     C 5484   5.607   1.620   6.420 -0.4996 -0.5295 -0.1699
  782MOL0     C 5485   5.734   1.568   6.431  0.2296  0.0288  0.5206
  782MOL0     N 5486   6.384   1.284   6.314  0.3848 -0.2006 -0.0008
  782MOL0     N 5487   6.397   1.185   6.233 -0.2503  0.0850 -0.2582
  782MOL0     C 5488   7.043   0.492   6.170 -0.3818 -0.1546  0.4167
  782MOL0     C 5489   7.178   0.497   6.128 -0.1524  0.2437 -0.0056
  782MOL0     C 5490   7.572   0.460   5.916 -0.7132 -0.2775 -0.9679
  782MOL0     C 5491   7.709   0.465   5.967  1.0638 -0.2103 -0.8597
  782MOL0     C 5492   7.820   0.463   5.879 -0.0733 -0.2141 -0.3241
  782MOL0     C 5493   7.803   0.458   5.743  0.5339  0.2393  0.1514
  782MOL0     O 5494   7.901   0.447   5.651 -0.3855 -0.0736  0.7911
  782MOL0     C 5495   8.039   0.416   5.696 -0.4675 -0.7386  1.4939
  782MOL0     C 5496   8.122   0.546   5.721 -0.2016  0.7628  0.4579
  782MOL0     C 5497   8.145   0.628   5.594 -0.2891  0.5363  0.1345
  782MOL0     C 5498   8.248   0.559   5.494  0.3687  0.1634 -0.7295
  782MOL0     C 5499   8.382   0.541   5.552  0.2540  0.7711 -0.3283
  782MOL0     C 5500   8.483   0.530   5.624 -0.0155  0.4704 -0.5438
  782MOL0     C 5501   7.669   0.454   5.689 -0.1448  0.2943 -0.6184
  782MOL0     C 5502   7.558   0.459   5.778 -0.2006  0.2561 -0.2998
  782MOL0     H 5503   7.126   0.390   5.807 -0.7268 -4.7666  1.5742
  782MOL0     H 5504   6.910   0.425   5.866 -0.0443 -1.1438 -1.5143
  782MOL0     H 5505   6.683   0.481   5.944  0.7795  0.4950  0.3086
  782MOL0     H 5506   6.737   0.322   5.956 -0.6987  0.0404 -1.4037
  782MOL0     H 5507   6.520   0.302   6.014 -2.3152  1.4612  0.8873
  782MOL0     H 5508   6.620   0.297   6.165  0.7783  2.0823  0.5227
  782MOL0     H 5509   6.540   0.566   6.088  1.3295 -0.1090  0.9668
  782MOL0     H 5510   6.406   0.471   6.076 -1.4142 -0.0349  0.9265
  782MOL0     H 5511   6.395   0.426   6.313 -0.0566 -1.5049 -2.3788
  782MOL0     H 5512   6.562   0.431   6.342  0.7166 -1.5553 -1.1979
  782MOL0     H 5513   6.443   0.631   6.451  2.9141  1.7794  0.1096
  782MOL0     H 5514   6.551   0.679   6.321  0.2535  0.1469 -2.9408
  782MOL0     H 5515   6.366   0.705   6.157 -1.3238  2.8764 -0.4395
  782MOL0     H 5516   6.259   0.637   6.289  2.4830 -3.0194  0.4123
  782MOL0     H 5517   6.236   0.872   6.259  0.9175  0.8732 -1.2191
  782MOL0     H 5518   6.304   0.835   6.413 -0.2259 -1.5219 -0.1400
  782MOL0     H 5519   6.458   0.946   6.169  0.7137  2.9380 -0.5068
  782MOL0     H 5520   6.531   0.913   6.328 -1.9004 -3.5291  3.2429
  782MOL0     H 5521   6.366   1.049   6.544 -1.5430 -1.3466 -1.1054
  782MOL0     H 5522   6.323   1.267   6.646 -3.5400 -1.3531 -1.0083
  782MOL0     H 5523   6.406   1.411   6.562 -1.0902  1.9681 -3.5881
  782MOL0     H 5524   6.143   1.414   6.651 -1.0780  1.3669  0.7661
  782MOL0     H 5525   6.130   1.318   6.497 -0.7439  0.9569 -0.1643
  782MOL0     H 5526   6.256   1.527   6.398  0.7971  0.9140  0.2611
  782MOL0     H 5527   6.198   1.611   6.536  0.6422  1.5767 -2.1304
  782MOL0     H 5528   5.977   1.457   6.378 -2.6364  1.0064  0.1926
  782MOL0     H 5529   6.023   1.630   6.355  1.4189  2.6120  2.1085
  782MOL0     H 5530   5.841   1.746   6.687 -1.6065  0.0071  1.1804
  782MOL0     H 5531   5.586   1.955   6.691  0.9200  0.1942 -0.7583
  782MOL0     H 5532   5.523   1.826   6.788 -0.1537 -0.2218  1.2907
  782MOL0     H 5533   5.688   1.864   6.795 -2.6378  1.1663  1.6422
  782MOL0     H 5534   5.151   1.671   6.641  1.2554  2.0038 -0.4035
  782MOL0     H 5535   4.906   1.697   6.593 -0.3339  0.5712  0.1613
  782MOL0     H 5536   4.705   1.683   6.456  1.7769 -0.8487 -0.6314
  782MOL0     H 5537   4.727   1.850   6.507 -0.2541 -0.7939  0.1873
  782MOL0     H 5538   4.483   1.818   6.431  0.3087  1.3880  0.3967
  782MOL0     H 5539   4.579   1.926   6.341 -1.0488 -0.3034  0.5602
  782MOL0     H 5540   4.547   1.618   6.274 -1.8048  0.4837  0.7568
  782MOL0     H 5541   4.610   1.740   6.166 -0.4768  1.8448 -0.0528
  782MOL0     H 5542   4.375   1.643   6.125 -1.9219  0.8192  0.1522
  782MOL0     H 5543   4.318   1.747   6.269 -0.4247  3.2258 -0.1786
  782MOL0     H 5544   4.462   1.863   6.021  0.7750 -1.1273  1.1444
  782MOL0     H 5545   4.413   1.943   6.176 -2.4480  0.2733  0.0289
  782MOL0     H 5546   4.224   1.789   5.982  1.7213  0.9952 -1.8234
  782MOL0     H 5547   4.172   1.885   6.123 -0.1315 -2.0844  0.1388
  782MOL0     H 5548   4.313   1.986   5.873 -0.9589 -1.8485  0.0097
  782MOL0     H 5549   4.267   2.076   6.022  0.2725  0.8590 -1.2016
  782MOL0     H 5550   4.096   2.109   5.827  1.5865  0.3644 -1.5405
  782MOL0     H 5551   4.036   2.060   5.988  3.3247 -0.4820  2.3316
  782MOL0     H 5552   5.041   1.795   6.182  1.8673  2.1446  0.3859
  782MOL0     H 5553   5.249   1.709   6.241 -0.4015 -1.0188 -1.8494
  782MOL0     H 5554   5.549   1.582   6.336 -1.1667  0.0581  0.0078
  782MOL0     H 5555   5.766   1.505   6.349  0.0372 -1.8821  1.8585
  782MOL0     H 5556   7.014   0.514   6.272 -1.3000  3.2668 -0.4573
  782MOL0     H 5557   7.262   0.526   6.190  0.0177  1.8851 -0.9245
  782MOL0     H 5558   7.732   0.461   6.073  1.6693  2.7082 -0.8018
  782MOL0     H 5559   7.917   0.473   5.927 -0.6586  1.6693  0.5870
  782MOL0     H 5560   8.049   0.365   5.793  1.0138 -1.6282  0.8982
  782MOL0     H 5561   8.098   0.351   5.631 -2.6647 -1.5030  0.1538
  782MOL0     H 5562   8.222   0.523   5.759  2.2932  3.8794 -3.3603
  782MOL0     H 5563   8.072   0.615   5.789 -0.6900  1.0157 -0.1495
  782MOL0     H 5564   8.188   0.721   5.631  0.2353  0.2829  0.1602
  782MOL0     H 5565   8.047   0.650   5.551 -0.9256  0.1235  1.3230
  782MOL0     H 5566   8.248   0.627   5.409 -3.3869  0.2757 -0.8056
  782MOL0     H 5567   8.212   0.463   5.454  3.1746 -1.1569 -0.3468
  782MOL0     H 5568   8.572   0.526   5.683 -0.2521  0.8516 -0.1522
  782MOL0     H 5569   7.668   0.457   5.580  3.2520  1.4930 -0.7638
  782MOL0     H 5570   7.461   0.467   5.730 -0.4460  1.1338  0.3292
  783MOL0     O 5571   5.473   2.058   0.025  0.1589 -0.0701 -0.3079
  783MOL0     C 5572   5.564   2.102   0.097 -0.3470 -0.2701 -0.6171
  783MOL0     O 5573   5.596   2.052   0.221 -0.2894  0.5007  0.2957
  783MOL0     C 5574   5.515   1.955   0.276 -0.4681 -0.5266  0.8549
  783MOL0     C 5575   5.469   1.969   0.406 -0.3559  0.1226 -0.1373
  783MOL0     C 5576   5.385   1.866   0.460 -0.5071 -0.5887  0.0364
  783MOL0     C 5577   5.346   1.757   0.390  0.0577  0.0577 -0.0393
  783MOL0     O 5578   5.254   1.661   0.438  0.5796  0.0076 -0.2446
  783MOL0     C 5579   5.227   1.670   0.573  0.5729 -0.0094  0.4297
  783MOL0     C 5580   5.127   1.562   0.612  0.4191 -0.3996 -0.1565
  783MOL0     C 5581   5.049   1.597   0.745 -0.1075 -0.4231  0.4762
  783MOL0     C 5582   5.136   1.578   0.878  0.1254 -0.9101  0.2548
  783MOL0     C 5583   5.092   1.670   0.986 -0.1531  0.3507  0.6174
  783MOL0     C 5584   4.976   1.625   1.073 -0.4846 -0.2482 -0.4218
  783MOL0     C 5585   4.939   1.745   1.161  0.0824  0.4709  0.2189
  783MOL0     C 5586   4.834   1.684   1.257  0.2312  0.0797  0.1139
  783MOL0     N 5587   4.711   1.694   1.183  0.0216 -0.5524 -0.7425
  783MOL0     C 5588   4.616   1.802   1.215 -0.1219  0.0053  0.5697
  783MOL0     C 5589   4.494   1.768   1.155 -0.4956 -0.8964 -0.0293
  783MOL0     C 5590   4.374   1.861   1.163  0.0657  0.1384 -0.8707
  783MOL0     C 5591   4.300   1.844   1.039 -0.6187 -0.3978 -0.8395
  783MOL0     C 5592   4.178   1.940   1.042  0.6171 -0.2030 -0.6952
  783MOL0     C 5593   4.097   1.920   0.918 -0.3039 -0.5386  0.3316
  783MOL0     O 5594   3.966   1.974   0.932 -0.2489 -0.7886 -0.0514
  783MOL0     C 5595   3.889   1.961   0.823  0.8470 -0.1306 -0.3287
  783MOL0     C 5596   3.911   1.902   0.697  0.5974  0.3423 -0.5281
  783MOL0     C 5597   3.803   1.893   0.604 -0.5889  0.1482 -0.1881
  783MOL0     C 5598   3.848   1.832   0.478 -0.2033 -0.1874  0.3832
  783MOL0     C 5599   3.671   1.929   0.634 -0.0105 -1.1564  0.3980
  783MOL0     C 5600   3.556   1.917   0.537 -0.4191  0.2774 -0.1535
  783MOL0     O 5601   3.434   1.967   0.576 -0.2992 -0.3038 -0.0387
  783MOL0     C 5602   3.333   1.986   0.478 -0.0032  0.5664 -0.3287
  783MOL0     C 5603   3.301   2.110   0.433  0.1761  0.6762  1.2227
  783MOL0     C 5604   3.207   2.131   0.340 -0.6307  0.4675 -0.2276
  783MOL0     C 5605   3.132   2.026   0.288  0.7883  0.2029  0.2743
  783MOL0     O 5606   3.028   2.058   0.199  0.0397 -0.8695 -0.0250
  783MOL0     C 5607   2.962   1.955   0.120  0.0262 -0.2155 -0.2517
  783MOL0     C 5608   2.859   2.019   0.015 -0.2241 -0.0670 -0.2074
  783MOL0     C 5609   2.795   1.919  -0.075 -0.3685 -0.6105 -0.3971
  783MOL0     C 5610   2.772   1.948  -0.222  0.2113  0.1510 -0.1855
  783MOL0     C 5611   2.742   1.824  -0.300  0.8012 -0.2291  0.1029
  783MOL0     C 5612   2.597   1.783  -0.267  0.3247  0.0829 -0.0462
  783MOL0     C 5613   2.548   1.678  -0.359  0.3502  0.3649 -0.2195
  783MOL0     C 5614   2.421   1.608  -0.313 -0.0527 -0.2138  0.6137
  783MOL0    Cl 5615   2.368   1.496  -0.441 -0.0258 -0.2630  0.3241
  783MOL0     C 5616   3.162   1.899   0.336 -0.3490  0.3315 -0.2277
  783MOL0     C 5617   3.269   1.876   0.432  0.2422 -0.3945  0.1494
  783MOL0     O 5618   3.586   1.887   0.422  0.3453  0.8070 -0.1945
  783MOL0     C 5619   3.648   1.979   0.765 -0.4353  0.2521 -0.5753
  783MOL0     C 5620   3.758   1.995   0.852 -0.0238 -0.7160  0.3430
  783MOL0     N 5621   4.509   1.643   1.108 -0.0224  0.1748  0.8183
  783MOL0     N 5622   4.630   1.596   1.132 -0.3482  0.5821 -0.1412
  783MOL0     C 5623   5.391   1.743   0.258 -0.1999  0.7117 -0.2122
  783MOL0     C 5624   5.472   1.839   0.208 -0.6706 -0.7894 -0.0990
  783MOL0     C 5625   5.643   2.212   0.054  0.6436 -0.3582 -0.2429
  783MOL0     C 5626   5.608   2.292  -0.060  0.1998 -0.1505 -0.2906
  783MOL0     C 5627   5.683   2.399  -0.103  0.0127 -1.0963 -0.1879
  783MOL0     C 5628   5.809   2.426  -0.048  0.1145 -0.1511  0.7925
  783MOL0     O 5629   5.891   2.524  -0.086  0.6876  0.5566 -1.1607
  783MOL0     C 5630   5.869   2.600  -0.203 -0.2592 -0.2296  0.6799
  783MOL0     C 5631   5.920   2.538  -0.338  0.1157  0.1898 -0.3517
  783MOL0     C 5632   5.926   2.636  -0.454 -0.5088  0.3565  0.2937
  783MOL0     C 5633   5.970   2.569  -0.580  0.5132 -0.1397  0.3716
  783MOL0     C 5634   6.106   2.504  -0.563 -0.5215 -0.5569 -0.5551
  783MOL0     C 5635   6.213   2.453  -0.569 -0.2525  0.8662 -0.8305
  783MOL0     C 5636   5.856   2.340   0.056 -0.1745 -0.6848  0.5234
  783MOL0     C 5637   5.774   2.239   0.102  0.4945  0.2106 -0.4049
  783MOL0     H 5638   5.502   2.054   0.465 -0.2043 -0.0417  0.0111
  783MOL0     H 5639   5.360   1.891   0.563  2.3308  1.0828  0.4493
  783MOL0     H 5640   5.320   1.663   0.629 -0.3426 -2.2009  1.7978
  783MOL0     H 5641   5.175   1.765   0.585  3.0001  1.4490  0.0858
  783MOL0     H 5642   5.071   1.545   0.520  1.5121  0.0452 -0.9400
  783MOL0     H 5643   5.183   1.469   0.629 -1.7430 -1.8735 -0.7482
  783MOL0     H 5644   5.014   1.700   0.752  2.1160  0.2805  3.4578
  783MOL0     H 5645   4.964   1.530   0.762  0.2575  0.1137  7.3825
  783MOL0     H 5646   5.132   1.474   0.914 -1.1295 -1.7338 -2.0527
  783MOL0     H 5647   5.243   1.591   0.861  0.1910 -1.4283  0.2502
  783MOL0     H 5648   5.175   1.680   1.056  1.2081 -1.9133 -0.5683
  783MOL0     H 5649   5.078   1.774   0.956 -0.3066 -0.2012 -1.3408
  783MOL0     H 5650   4.897   1.603   1.000  1.2931 -1.2408 -2.1656
  783MOL0     H 5651   5.003   1.543   1.140 -0.5768  1.1094  1.3275
  783MOL0     H 5652   5.022   1.782   1.220 -1.0012  2.9452  0.3022
  783MOL0     H 5653   4.905   1.826   1.096  1.3394  1.0066  0.2031
  783MOL0     H 5654   4.839   1.748   1.346  0.3179 -0.1685  0.2898
  783MOL0     H 5655   4.849   1.581   1.291 -0.5426 -0.9519 -2.4432
  783MOL0     H 5656   4.643   1.892   1.268  0.2518  1.3379 -1.7744
  783MOL0     H 5657   4.313   1.829   1.249 -0.6441  0.3056 -1.3076
  783MOL0     H 5658   4.403   1.966   1.175 -0.1297 -0.0399  1.9590
  783MOL0     H 5659   4.271   1.739   1.027  1.8694 -1.0050 -2.1475
  783MOL0     H 5660   4.371   1.873   0.961  0.1331  2.0242  0.6210
  783MOL0     H 5661   4.222   2.040   1.052 -0.6225  0.4357 -1.4311
  783MOL0     H 5662   4.114   1.911   1.125 -3.3488 -0.6481 -3.6333
  783MOL0     H 5663   4.088   1.813   0.898  1.2178 -1.0581  2.1038
  783MOL0     H 5664   4.157   1.973   0.844 -2.3626  2.9837  0.9707
  783MOL0     H 5665   4.012   1.878   0.666  0.5985  2.3767 -2.3344
  783MOL0     H 5666   3.792   1.738   0.469 -0.9398  0.2946 -0.1736
  783MOL0     H 5667   3.818   1.887   0.389 -2.0178 -0.1962  0.9464
  783MOL0     H 5668   3.955   1.807   0.471  0.3236  2.3148 -2.0332
  783MOL0     H 5669   3.345   2.204   0.467 -1.5134  2.1414 -0.4320
  783MOL0     H 5670   3.198   2.228   0.293  3.0659  0.9167 -0.2910
  783MOL0     H 5671   3.044   1.911   0.064 -0.3584 -2.4194  0.8147
  783MOL0     H 5672   2.916   1.876   0.180  1.0419 -0.2241  0.5363
  783MOL0     H 5673   2.784   2.078   0.068 -1.4005 -1.9156  0.2915
  783MOL0     H 5674   2.912   2.091  -0.048 -2.9953  2.2141 -0.1262
  783MOL0     H 5675   2.698   1.894  -0.032 -0.3489 -1.5513 -0.8719
  783MOL0     H 5676   2.835   1.818  -0.062 -3.9578 -2.1346 -0.0337
  783MOL0     H 5677   2.696   2.025  -0.234  0.3629  0.3801  0.3319
  783MOL0     H 5678   2.860   1.999  -0.262  2.2219 -2.5464  0.4493
  783MOL0     H 5679   2.820   1.748  -0.290  1.0393  0.1209  0.9969
  783MOL0     H 5680   2.735   1.845  -0.407 -1.3976  2.6894  0.7001
  783MOL0     H 5681   2.577   1.742  -0.167 -0.5213  1.9693  0.6164
  783MOL0     H 5682   2.536   1.872  -0.286  0.6777 -0.0708 -2.0718
  783MOL0     H 5683   2.630   1.604  -0.355 -0.7146 -0.7959  2.6230
  783MOL0     H 5684   2.528   1.713  -0.460 -1.7117  2.6231  0.8743
  783MOL0     H 5685   2.343   1.682  -0.290  0.4733  0.4597  0.2566
  783MOL0     H 5686   2.440   1.563  -0.215  3.0403  0.1700  0.2886
  783MOL0     H 5687   3.107   1.810   0.307 -1.1046  1.3493 -2.1262
  783MOL0     H 5688   3.292   1.777   0.471 -0.3013 -2.0999 -3.5079
  783MOL0     H 5689   3.546   2.001   0.795 -0.1891  1.5429 -0.6297
  783MOL0     H 5690   3.735   2.035   0.950 -0.8064 -0.8986  0.2361
  783MOL0     H 5691   5.350   1.667   0.193 -0.7807  0.3396  0.5631
  783MOL0     H 5692   5.510   1.836   0.106  1.9432  0.1920  0.7543
  783MOL0     H 5693   5.510   2.272  -0.103 -0.6946 -1.7829  2.2664
  783MOL0     H 5694   5.654   2.445  -0.197  3.7007  0.4152 -0.7484
  783MOL0     H 5695   5.762   2.617  -0.218 -0.4066 -0.4308  1.4974
  783MOL0     H 5696   5.909   2.701  -0.195  1.1542 -0.3705 -2.6862
  783MOL0     H 5697   5.859   2.453  -0.370 -0.1796  0.3364 -0.1864
  783MOL0     H 5698   6.023   2.505  -0.321  0.9367  1.1992 -2.9530
  783MOL0     H 5699   6.001   2.713  -0.436  1.8679 -1.9891  1.0854
  783MOL0     H 5700   5.831   2.689  -0.469 -0.9508 -0.7158 -0.9488
  783MOL0     H 5701   5.983   2.644  -0.659 -0.7910  1.7044  1.8378
  783MOL0     H 5702   5.902   2.488  -0.608  1.8564 -0.4475 -2.3741
  783MOL0     H 5703   6.305   2.400  -0.573 -0.1562  1.0402 -0.9413
  783MOL0     H 5704   5.948   2.372   0.104 -0.9118  1.5405  0.5347
  783MOL0     H 5705   5.815   2.183   0.185  0.5897  1.0627  0.1331
  784MOL0     O 5706   3.165   7.619   1.286 -0.2895  0.0084 -0.5172
  784MOL0     C 5707   3.168   7.537   1.371 -0.6693  0.2799  0.1554
  784MOL0     O 5708   3.057   7.475   1.425 -0.5161 -0.2235 -0.1682
  784MOL0     C 5709   2.947   7.509   1.354  0.5139  0.4909 -0.2646
  784MOL0     C 5710   2.933   7.468   1.221 -0.2007 -0.0888 -0.1825
  784MOL0     C 5711   2.811   7.470   1.155  0.3883 -0.5131 -0.1353
  784MOL0     C 5712   2.707   7.541   1.214 -0.4395  0.5533  0.1223
  784MOL0     O 5713   2.613   7.566   1.123  0.2414  0.1814 -0.1308
  784MOL0     C 5714   2.481   7.574   1.174 -0.2146 -0.6617  0.2727
  784MOL0     C 5715   2.391   7.613   1.059  0.4486 -1.5618 -0.2599
  784MOL0     C 5716   2.257   7.619   1.121 -0.2443 -0.7559 -0.4375
  784MOL0     C 5717   2.194   7.486   1.149  0.1280  0.0480 -0.2692
  784MOL0     C 5718   2.049   7.480   1.141  0.7204  0.2341  0.4504
  784MOL0     C 5719   1.983   7.388   1.245  0.1061  0.5059 -0.2814
  784MOL0     C 5720   1.836   7.414   1.271  0.5593  0.0475 -0.3031
  784MOL0     C 5721   1.749   7.409   1.137  1.1310 -0.8203 -1.2221
  784MOL0     N 5722   1.606   7.422   1.148 -0.1742 -1.0743  0.7554
  784MOL0     C 5723   1.524   7.423   1.259 -0.9770 -0.2733  0.0544
  784MOL0     C 5724   1.398   7.443   1.213 -0.1374 -0.2515  0.1937
  784MOL0     C 5725   1.280   7.462   1.299  0.4218 -0.7796 -0.1075
  784MOL0     C 5726   1.181   7.570   1.244  0.1290  0.5865 -0.2175
  784MOL0     C 5727   1.060   7.564   1.334  0.2017  0.2315  0.5094
  784MOL0     C 5728   0.938   7.631   1.274 -0.0026 -0.4988  0.7157
  784MOL0     O 5729   0.834   7.536   1.250  0.1359  0.0417  0.0043
  784MOL0     C 5730   0.703   7.572   1.264  0.0688  0.2524  0.0426
  784MOL0     C 5731   0.654   7.691   1.217 -0.1712  0.7782  0.0147
  784MOL0     C 5732   0.524   7.728   1.235  0.1161  0.1556  0.1773
  784MOL0     C 5733   0.492   7.878   1.205  0.8457 -0.0409  0.1559
  784MOL0     C 5734   0.433   7.634   1.294 -0.6414 -0.0421 -0.6878
  784MOL0     C 5735   0.290   7.660   1.322 -0.4139  0.1871  0.7762
  784MOL0     O 5736   0.248   7.613   1.441  0.2461  0.7534 -0.0806
  784MOL0     C 5737   0.110   7.607   1.460  0.1189  0.2093 -0.1908
  784MOL0     C 5738   0.074   7.615   1.591 -0.5339 -0.1846 -0.0978
  784MOL0     C 5739  -0.067   7.606   1.629 -0.8082 -0.0553  0.7687
  784MOL0     C 5740  -0.159   7.573   1.538  0.0227 -1.0033  0.2617
  784MOL0     O 5741  -0.288   7.548   1.582 -0.9015  0.2774  0.4073
  784MOL0     C 5742  -0.388   7.650   1.528  0.5647 -0.0622 -0.1304
  784MOL0     C 5743  -0.419   7.764   1.632 -0.9696 -0.0780 -0.0728
  784MOL0     C 5744  -0.472   7.727   1.768  0.1998 -0.5143  0.4483
  784MOL0     C 5745  -0.384   7.646   1.864 -0.2939 -1.2965 -0.0823
  784MOL0     C 5746  -0.454   7.577   1.976 -0.0531 -0.4634 -0.2583
  784MOL0     C 5747  -0.537   7.450   1.952 -0.4099 -0.2324  0.4753
  784MOL0     C 5748  -0.610   7.403   2.083 -0.4152 -0.0979  0.1308
  784MOL0     C 5749  -0.700   7.272   2.057 -0.4423 -0.3687 -0.4943
  784MOL0    Cl 5750  -0.819   7.242   2.186 -0.0797 -0.0676 -0.2807
  784MOL0     C 5751  -0.120   7.563   1.403  0.3563 -0.5590  0.1680
  784MOL0     C 5752   0.013   7.569   1.363 -0.3974 -0.2179 -0.1468
  784MOL0     O 5753   0.228   7.716   1.238  0.0878 -0.4181  0.1848
  784MOL0     C 5754   0.486   7.506   1.336 -0.3916  0.0527 -0.5109
  784MOL0     C 5755   0.622   7.474   1.324  0.3868  0.3851 -0.5964
  784MOL0     N 5756   1.403   7.452   1.074  0.7761 -0.5909 -0.6015
  784MOL0     N 5757   1.534   7.443   1.035 -0.0996  0.5533  0.1394
  784MOL0     C 5758   2.717   7.573   1.345 -0.1793  0.5749  0.8722
  784MOL0     C 5759   2.838   7.559   1.421  0.8192 -0.5889 -1.5840
  784MOL0     C 5760   3.305   7.489   1.423 -0.5453 -0.0368 -0.0015
  784MOL0     C 5761   3.311   7.383   1.518 -0.0338 -0.3192 -0.5636
  784MOL0     C 5762   3.439   7.339   1.547  0.6074  0.0217 -0.2524
  784MOL0     C 5763   3.557   7.390   1.507 -0.3583 -1.0521 -0.0847
  784MOL0     O 5764   3.671   7.355   1.569 -0.2636 -0.2625 -0.3014
  784MOL0     C 5765   3.733   7.266   1.484  0.3652  0.0706 -0.1615
  784MOL0     C 5766   3.863   7.226   1.550 -0.8581  0.0051  0.3849
  784MOL0     C 5767   3.954   7.350   1.577 -0.5222 -0.3836  0.5790
  784MOL0     C 5768   4.016   7.407   1.442  0.0833 -0.1325  0.5455
  784MOL0     C 5769   4.130   7.494   1.466  0.2726  0.0608  0.0407
  784MOL0     C 5770   4.218   7.572   1.489 -0.6188 -0.2623 -0.1814
  784MOL0     C 5771   3.550   7.496   1.417 -0.4826  0.7957 -0.8983
  784MOL0     C 5772   3.425   7.552   1.376 -0.1294  1.1984  0.3489
  784MOL0     H 5773   3.011   7.410   1.172  1.9604  2.4300  0.0765
  784MOL0     H 5774   2.804   7.449   1.049 -3.7147 -2.8876  0.3813
  784MOL0     H 5775   2.443   7.477   1.208  0.3488 -1.5957 -1.6124
  784MOL0     H 5776   2.482   7.650   1.253  4.3449  0.8408 -0.9353
  784MOL0     H 5777   2.419   7.714   1.029 -1.4823 -0.0864  2.5187
  784MOL0     H 5778   2.389   7.544   0.973 -1.1130 -1.6594 -0.1690
  784MOL0     H 5779   2.257   7.684   1.209  0.4129 -0.2225 -0.8235
  784MOL0     H 5780   2.192   7.675   1.053  0.6598 -1.5667 -2.0233
  784MOL0     H 5781   2.234   7.405   1.088 -1.3542 -0.7603 -0.2164
  784MOL0     H 5782   2.225   7.463   1.251  0.3411  0.0859 -0.3254
  784MOL0     H 5783   2.009   7.582   1.149  0.3957  0.6166 -3.8059
  784MOL0     H 5784   2.030   7.441   1.041  0.7923 -0.4737  0.7097
  784MOL0     H 5785   1.994   7.287   1.207 -0.8688  0.0062  0.7082
  784MOL0     H 5786   2.042   7.393   1.336  3.0623  3.0866 -2.1255
  784MOL0     H 5787   1.800   7.335   1.339  0.6979  0.9693  0.8839
  784MOL0     H 5788   1.818   7.512   1.315  1.7718 -1.3863  3.8774
  784MOL0     H 5789   1.776   7.318   1.084  0.6343 -0.4607 -2.1070
  784MOL0     H 5790   1.780   7.493   1.075 -0.9132  1.3814  0.5142
  784MOL0     H 5791   1.554   7.422   1.364  1.4889 -1.0959 -0.5809
  784MOL0     H 5792   1.228   7.366   1.308  1.6130 -1.2255  3.8450
  784MOL0     H 5793   1.316   7.484   1.400  0.6885  0.0036 -0.3679
  784MOL0     H 5794   1.148   7.537   1.145  0.7198 -1.0283  0.1030
  784MOL0     H 5795   1.223   7.670   1.229 -1.4985  1.0367 -2.3590
  784MOL0     H 5796   1.074   7.624   1.424 -1.8002 -1.0207  1.7160
  784MOL0     H 5797   1.036   7.460   1.358  1.2610 -0.6815 -1.9868
  784MOL0     H 5798   0.966   7.671   1.176  0.1109 -1.7246  0.2197
  784MOL0     H 5799   0.908   7.716   1.335  3.8708  2.9740 -1.6715
  784MOL0     H 5800   0.739   7.752   1.187  0.3583  0.6197  1.1289
  784MOL0     H 5801   0.391   7.903   1.237  1.6824  1.4523  1.7676
  784MOL0     H 5802   0.563   7.953   1.240 -0.2595  0.6535  0.9798
  784MOL0     H 5803   0.494   7.895   1.097  1.1577 -0.2022  0.1364
  784MOL0     H 5804   0.148   7.649   1.662 -0.6304 -0.7177  0.2571
  784MOL0     H 5805  -0.113   7.636   1.723 -3.3610  0.5977 -0.6128
  784MOL0     H 5806  -0.356   7.691   1.432 -0.3417  1.8534  0.3251
  784MOL0     H 5807  -0.475   7.586   1.514  0.8665 -0.5186  0.0802
  784MOL0     H 5808  -0.330   7.821   1.658 -2.2791  1.8104  0.4645
  784MOL0     H 5809  -0.497   7.826   1.587  0.1951 -0.2926 -2.5782
  784MOL0     H 5810  -0.567   7.674   1.757 -0.4320  0.9085 -1.5585
  784MOL0     H 5811  -0.493   7.819   1.825  1.4962 -1.0904  1.9525
  784MOL0     H 5812  -0.338   7.562   1.810 -0.5673 -0.4725 -1.6586
  784MOL0     H 5813  -0.315   7.720   1.906  0.9553 -2.6880  0.4158
  784MOL0     H 5814  -0.533   7.646   2.009 -0.0991 -0.2284 -0.8565
  784MOL0     H 5815  -0.383   7.560   2.058 -0.6924 -1.8044  0.0334
  784MOL0     H 5816  -0.604   7.461   1.866  0.6331 -0.6397 -0.4142
  784MOL0     H 5817  -0.464   7.372   1.928  2.2108  1.3010  2.8828
  784MOL0     H 5818  -0.664   7.490   2.122  0.0643  0.3159 -0.1214
  784MOL0     H 5819  -0.534   7.381   2.158 -0.4259  1.9418  0.8071
  784MOL0     H 5820  -0.636   7.186   2.037  0.4734  0.7520 -2.7466
  784MOL0     H 5821  -0.749   7.293   1.962  2.6362  0.9380 -1.9286
  784MOL0     H 5822  -0.197   7.557   1.327 -0.4921  1.2559  0.8210
  784MOL0     H 5823   0.045   7.566   1.260  2.4383  3.0848  0.4249
  784MOL0     H 5824   0.432   7.423   1.380  2.9047 -0.7017  2.4817
  784MOL0     H 5825   0.658   7.380   1.364 -0.3113 -0.0989 -1.0818
  784MOL0     H 5826   2.624   7.594   1.398 -1.8884  1.6164 -2.2544
  784MOL0     H 5827   2.856   7.594   1.523 -0.8477  0.9695 -1.7688
  784MOL0     H 5828   3.225   7.337   1.567 -0.7072  2.7347  1.3653
  784MOL0     H 5829   3.444   7.256   1.617 -0.0978  0.1623 -0.0325
  784MOL0     H 5830   3.670   7.177   1.475 -1.0780  1.3050 -3.9146
  784MOL0     H 5831   3.750   7.309   1.385  2.1805  1.1274  0.5523
  784MOL0     H 5832   3.927   7.160   1.491  0.2374 -0.4905  2.0535
  784MOL0     H 5833   3.837   7.158   1.632 -0.1586 -2.4703 -1.3453
  784MOL0     H 5834   4.030   7.334   1.655  1.9130  1.7566 -1.2078
  784MOL0     H 5835   3.886   7.424   1.620 -4.2759 -2.2061 -1.7246
  784MOL0     H 5836   3.946   7.469   1.386 -0.6356 -0.7241  0.7815
  784MOL0     H 5837   4.045   7.326   1.374 -2.1805 -0.4537 -0.1113
  784MOL0     H 5838   4.290   7.646   1.517  0.1988 -1.0354 -0.2189
  784MOL0     H 5839   3.641   7.546   1.387  0.4380  1.0620  2.0077
  784MOL0     H 5840   3.421   7.629   1.300  0.3771 -0.1678 -1.1488
  785MOL0     O 5841   6.384  10.638  11.295 -0.2575  0.8659 -0.6372
  785MOL0     C 5842   6.472  10.678  11.365  0.5474 -0.2343  0.2255
  785MOL0     O 5843   6.463  10.751  11.478 -0.1836  0.6826  0.2644
  785MOL0     C 5844   6.338  10.768  11.530 -0.2700  0.1250  0.1011
  785MOL0     C 5845   6.258  10.881  11.480 -0.3740 -0.2022  0.0825
  785MOL0     C 5846   6.119  10.893  11.517 -0.0982 -0.7838  0.5230
  785MOL0     C 5847   6.065  10.799  11.617 -0.7864  0.3113  0.3930
  785MOL0     O 5848   5.927  10.816  11.651  0.0676 -0.0614  0.4103
  785MOL0     C 5849   5.870  10.721  11.737  0.7571  0.0660  0.2934
  785MOL0     C 5850   5.735  10.766  11.783  0.5506  0.0081  0.3499
  785MOL0     C 5851   5.639  10.798  11.667 -0.0063 -0.6300  0.1456
  785MOL0     C 5852   5.506  10.860  11.722  0.4076  0.6549  0.1986
  785MOL0     C 5853   5.416  10.752  11.779 -0.5986 -0.5470  0.2561
  785MOL0     C 5854   5.283  10.806  11.821 -0.4550  0.8660  0.1715
  785MOL0     C 5855   5.182  10.830  11.706  0.8017 -0.3426 -0.1724
  785MOL0     C 5856   5.061  10.914  11.752 -0.3157 -0.3026 -1.2445
  785MOL0     N 5857   5.098  11.063  11.748  0.4976  0.5880  0.1206
  785MOL0     C 5858   5.078  11.148  11.640  0.4834 -0.7399 -0.2001
  785MOL0     C 5859   5.141  11.261  11.687  0.0496  0.0360  0.8061
  785MOL0     C 5860   5.147  11.397  11.610  0.4829 -0.0075  0.0681
  785MOL0     C 5861   5.029  11.440  11.529  0.4156  0.0266  0.4482
  785MOL0     C 5862   5.019  11.590  11.522 -0.8067  0.7695  0.2458
  785MOL0     C 5863   4.903  11.644  11.443 -0.2940 -0.6810 -0.6162
  785MOL0     O 5864   4.867  11.777  11.483  0.8489  0.5469 -0.6909
  785MOL0     C 5865   4.728  11.803  11.479 -0.0422  0.3303  0.7815
  785MOL0     C 5866   4.637  11.772  11.580 -0.0005  0.9847  0.4781
  785MOL0     C 5867   4.497  11.770  11.573  0.2916  0.1046 -0.6139
  785MOL0     C 5868   4.414  11.700  11.675 -0.9537  1.1103  0.3644
  785MOL0     C 5869   4.436  11.825  11.464  0.2377 -0.0195  0.9104
  785MOL0     C 5870   4.294  11.853  11.439  0.0615  0.7286 -0.0883
  785MOL0     O 5871   4.261  11.972  11.369 -0.3119  0.5070 -0.1993
  785MOL0     C 5872   4.130  11.999  11.340  0.0012  0.1396  0.1652
  785MOL0     C 5873   4.085  12.069  11.223 -0.8422  0.2144 -0.7033
  785MOL0     C 5874   3.951  12.103  11.197 -1.4182 -0.3276 -0.1097
  785MOL0     C 5875   3.855  12.078  11.290 -0.1187 -0.8725 -0.5587
  785MOL0     O 5876   3.721  12.118  11.260 -0.9140  0.1705 -0.5990
  785MOL0     C 5877   3.615  12.114  11.349  0.6835  0.8732  0.0862
  785MOL0     C 5878   3.555  11.968  11.355 -0.0553 -0.4678 -0.0532
  785MOL0     C 5879   3.405  11.967  11.410  0.6840 -0.7569  0.0295
  785MOL0     C 5880   3.335  11.829  11.393 -0.0691 -0.9975  0.7490
  785MOL0     C 5881   3.271  11.804  11.254 -0.5246 -0.2412  0.6549
  785MOL0     C 5882   3.213  11.663  11.255  0.0533  0.3205 -0.8812
  785MOL0     C 5883   3.298  11.565  11.172  0.6310 -0.8558 -0.3651
  785MOL0     C 5884   3.423  11.521  11.237 -0.4884 -0.3203  0.1108
  785MOL0    Cl 5885   3.409  11.438  11.401  0.2159  0.0520  0.8773
  785MOL0     C 5886   3.891  12.005  11.406  0.1731  0.0639  0.6216
  785MOL0     C 5887   4.024  11.972  11.427 -0.7910 -0.2996  0.4124
  785MOL0     O 5888   4.215  11.758  11.459  0.5006 -0.8259 -0.2217
  785MOL0     C 5889   4.522  11.874  11.357  0.5189  0.2502  0.1682
  785MOL0     C 5890   4.665  11.863  11.368 -0.6834 -0.3628 -0.2677
  785MOL0     N 5891   5.178  11.236  11.818  0.2575  0.0201 -0.9903
  785MOL0     N 5892   5.152  11.118  11.857 -0.1073 -0.0830  0.1757
  785MOL0     C 5893   6.153  10.702  11.671  0.1985  0.1981 -0.9035
  785MOL0     C 5894   6.291  10.683  11.629 -0.3181 -0.0814  0.0482
  785MOL0     C 5895   6.611  10.641  11.332 -0.1609 -0.3135  0.1846
  785MOL0     C 5896   6.650  10.537  11.243  0.1311 -0.2538 -0.8339
  785MOL0     C 5897   6.786  10.507  11.221  1.0068 -0.3200 -0.0162
  785MOL0     C 5898   6.889  10.580  11.282  1.0221 -0.4320  0.4478
  785MOL0     O 5899   7.029  10.561  11.250 -0.5498 -0.3672 -0.1791
  785MOL0     C 5900   7.046  10.455  11.145 -0.2276 -0.4268 -0.3995
  785MOL0     C 5901   7.186  10.465  11.090 -0.8321 -0.2374 -0.1870
  785MOL0     C 5902   7.300  10.477  11.202  1.1364 -0.6660  0.2784
  785MOL0     C 5903   7.447  10.462  11.153 -0.6188 -0.4118  0.0012
  785MOL0     C 5904   7.459  10.320  11.102  0.3306  0.0426 -0.6416
  785MOL0     C 5905   7.453  10.204  11.063 -0.1472  0.4623 -0.7553
  785MOL0     C 5906   6.855  10.687  11.367  0.3399 -0.9616  0.4838
  785MOL0     C 5907   6.720  10.715  11.395  0.7350 -1.2018 -0.2552
  785MOL0     H 5908   6.299  10.943  11.402 -0.4465 -1.6948 -1.1981
  785MOL0     H 5909   6.042  10.964  11.488 -0.6699 -1.2009  0.9946
  785MOL0     H 5910   5.866  10.629  11.678 -0.5689  0.1339  0.2433
  785MOL0     H 5911   5.934  10.706  11.824  1.7667  1.8136 -0.1010
  785MOL0     H 5912   5.700  10.679  11.840  1.0934 -0.2025  0.3737
  785MOL0     H 5913   5.748  10.858  11.840  1.7984 -0.9095  1.6337
  785MOL0     H 5914   5.680  10.878  11.605 -0.0067 -0.4590  0.3665
  785MOL0     H 5915   5.619  10.712  11.603 -1.5723 -0.2819  0.1158
  785MOL0     H 5916   5.522  10.935  11.800 -1.8852 -1.3808  2.8637
  785MOL0     H 5917   5.445  10.912  11.648 -0.0137  1.5491  1.1534
  785MOL0     H 5918   5.411  10.676  11.700 -0.2817  1.0602 -1.3795
  785MOL0     H 5919   5.464  10.721  11.872 -0.6854  2.0881  1.2643
  785MOL0     H 5920   5.244  10.732  11.892 -0.4496 -0.3896 -1.0733
  785MOL0     H 5921   5.294  10.897  11.879 -0.0028  0.2237  1.1051
  785MOL0     H 5922   5.242  10.868  11.622  0.0279  1.6578  0.1307
  785MOL0     H 5923   5.146  10.730  11.680 -4.3095  1.3713 -0.8044
  785MOL0     H 5924   5.033  10.879  11.851  1.1880 -0.5554 -0.8871
  785MOL0     H 5925   4.968  10.906  11.695  0.6685 -0.6141 -2.8989
  785MOL0     H 5926   5.034  11.119  11.545 -1.2629 -1.5180  0.8073
  785MOL0     H 5927   5.167  11.473  11.686 -0.9273 -0.0785  0.5278
  785MOL0     H 5928   5.233  11.395  11.542  0.4570 -1.9690  0.0503
  785MOL0     H 5929   4.942  11.396  11.580  0.1372  0.0140 -0.0273
  785MOL0     H 5930   5.018  11.398  11.428 -1.0932  0.1397  0.5362
  785MOL0     H 5931   5.111  11.626  11.475 -2.3001 -0.7308 -4.4009
  785MOL0     H 5932   4.999  11.627  11.623 -3.4701 -1.1345  0.5402
  785MOL0     H 5933   4.814  11.581  11.446 -1.1119  0.2792 -2.7399
  785MOL0     H 5934   4.939  11.650  11.340  0.2518 -2.6630 -0.5704
  785MOL0     H 5935   4.685  11.745  11.675 -1.0908  1.2768  1.1276
  785MOL0     H 5936   4.337  11.768  11.713 -0.8836  1.8117 -0.7150
  785MOL0     H 5937   4.368  11.611  11.632 -1.1196  2.2666 -1.9893
  785MOL0     H 5938   4.474  11.678  11.764 -3.6247 -1.0529  1.7768
  785MOL0     H 5939   4.164  12.100  11.154 -2.3658  0.8364 -2.2301
  785MOL0     H 5940   3.922  12.134  11.097  0.8503  1.4032 -0.3229
  785MOL0     H 5941   3.651  12.148  11.447  3.5770  1.0854 -0.9788
  785MOL0     H 5942   3.537  12.182  11.313  0.9709  0.7031 -0.8720
  785MOL0     H 5943   3.550  11.945  11.248  0.1662  0.9735 -0.4005
  785MOL0     H 5944   3.623  11.904  11.412  1.0611  1.4084  0.8488
  785MOL0     H 5945   3.351  12.048  11.362 -1.8987 -0.3237  3.3227
  785MOL0     H 5946   3.402  11.994  11.516 -1.9007 -1.0542  0.1040
  785MOL0     H 5947   3.402  11.750  11.428 -1.5298 -3.5201 -1.7253
  785MOL0     H 5948   3.252  11.836  11.464  0.7699 -1.5674  1.8110
  785MOL0     H 5949   3.350  11.814  11.179  0.1728  0.8962  1.5080
  785MOL0     H 5950   3.196  11.876  11.219 -1.0041 -0.9209  0.2542
  785MOL0     H 5951   3.201  11.626  11.357  0.0631 -1.5932 -1.5310
  785MOL0     H 5952   3.114  11.665  11.208 -0.0087  0.1676 -0.7569
  785MOL0     H 5953   3.326  11.607  11.076 -0.9143 -1.4016 -1.1003
  785MOL0     H 5954   3.242  11.472  11.153 -0.8561 -0.3827  1.3815
  785MOL0     H 5955   3.471  11.617  11.260 -2.7360  1.8682 -3.3754
  785MOL0     H 5956   3.483  11.462  11.167  3.3867 -1.1619  3.7256
  785MOL0     H 5957   3.821  12.004  11.489 -1.1468  4.1604 -0.2010
  785MOL0     H 5958   4.061  11.926  11.518  3.5163 -1.2117 -1.5828
  785MOL0     H 5959   4.480  11.931  11.275 -0.0727 -1.9275 -1.1158
  785MOL0     H 5960   4.729  11.905  11.291 -1.4337 -0.1760 -0.7968
  785MOL0     H 5961   6.113  10.622  11.732  1.0020 -0.6068 -1.4035
  785MOL0     H 5962   6.352  10.601  11.666  3.0439  2.4407  0.6152
  785MOL0     H 5963   6.577  10.467  11.203 -0.5393 -1.5039  2.3024
  785MOL0     H 5964   6.808  10.432  11.145  2.2643 -0.5950  0.5783
  785MOL0     H 5965   7.032  10.353  11.183 -1.5211  0.1794  0.8535
  785MOL0     H 5966   6.985  10.487  11.060 -0.3020  2.3916  0.6037
  785MOL0     H 5967   7.201  10.551  11.024  0.4721  1.6379  2.3970
  785MOL0     H 5968   7.196  10.379  11.024 -0.8335 -0.2048 -0.2300
  785MOL0     H 5969   7.273  10.404  11.279 -1.6235  1.0793  1.1347
  785MOL0     H 5970   7.285  10.574  11.251 -2.6713 -0.1880 -1.4291
  785MOL0     H 5971   7.526  10.491  11.222  1.0313 -0.4946 -1.7603
  785MOL0     H 5972   7.474  10.526  11.068 -1.6033 -1.7345 -1.3714
  785MOL0     H 5973   7.443  10.099  11.048 -7.2913  0.6942 -1.3641
  785MOL0     H 5974   6.935  10.736  11.422 -0.2629  0.9005 -0.2104
  785MOL0     H 5975   6.721  10.797  11.466 -0.2595  0.2159 -1.8102
  786MOL0     O 5976   1.509   6.085   2.118 -0.0483  0.2933  1.1327
  786MOL0     C 5977   1.605   6.017   2.081  0.1690  0.2512 -0.7710
  786MOL0     O 5978   1.593   5.891   2.033 -0.2209 -0.0349  0.5726
  786MOL0     C 5979   1.474   5.833   1.997 -1.2471 -0.4177 -0.1439
  786MOL0     C 5980   1.355   5.894   1.957 -0.0633  0.6618 -0.5191
  786MOL0     C 5981   1.243   5.818   1.925  0.1099  0.1227  0.1357
  786MOL0     C 5982   1.256   5.684   1.923  0.1361  0.9713 -0.3050
  786MOL0     O 5983   1.151   5.606   1.884 -0.5724 -0.1479  0.5081
  786MOL0     C 5984   1.115   5.645   1.749  1.0535  0.6531 -0.0713
  786MOL0     C 5985   0.998   5.572   1.694  0.2416 -0.4107 -0.3757
  786MOL0     C 5986   1.039   5.435   1.651 -0.4281 -0.7101  0.4322
  786MOL0     C 5987   0.935   5.328   1.702 -0.3821 -1.2663  0.1219
  786MOL0     C 5988   0.791   5.344   1.638  0.0947  0.3571 -0.0734
  786MOL0     C 5989   0.679   5.264   1.713  1.0638 -0.0869 -0.1706
  786MOL0     C 5990   0.550   5.349   1.714 -0.5739 -0.3451 -0.0792
  786MOL0     C 5991   0.443   5.274   1.795  0.8490 -0.9231 -0.1776
  786MOL0     N 5992   0.317   5.353   1.792  0.1929  0.1175 -0.6171
  786MOL0     C 5993   0.247   5.394   1.686  0.3436 -0.7511 -0.0507
  786MOL0     C 5994   0.132   5.456   1.726  0.0042 -0.4199  0.7334
  786MOL0     C 5995   0.043   5.548   1.646  0.3506  0.4342 -0.4894
  786MOL0     C 5996  -0.066   5.466   1.573 -0.8611  0.4535 -0.3479
  786MOL0     C 5997  -0.160   5.545   1.490  0.7729  0.1815  0.4076
  786MOL0     C 5998  -0.234   5.445   1.395  0.7398 -0.6804 -0.0745
  786MOL0     O 5999  -0.340   5.527   1.345 -0.2495 -0.1495 -0.8305
  786MOL0     C 6000  -0.395   5.484   1.232  0.5809 -0.0999 -0.6829
  786MOL0     C 6001  -0.439   5.583   1.147  0.4910 -0.2467  0.1399
  786MOL0     C 6002  -0.493   5.555   1.019  0.5681  0.3241 -0.3110
  786MOL0     C 6003  -0.514   5.681   0.929  0.8954  1.0526  0.3574
  786MOL0     C 6004  -0.497   5.422   0.979 -0.2423 -1.0812  0.3406
  786MOL0     C 6005  -0.546   5.376   0.838 -0.4145 -0.3644 -0.5280
  786MOL0     O 6006  -0.485   5.271   0.776 -0.7465 -0.5451  0.6601
  786MOL0     C 6007  -0.530   5.224   0.651  0.3132 -0.6144 -0.4102
  786MOL0     C 6008  -0.532   5.081   0.629  0.0053 -0.2064  0.6806
  786MOL0     C 6009  -0.580   5.032   0.505 -0.1181  0.6323 -0.6077
  786MOL0     C 6010  -0.631   5.112   0.410  0.1778  0.0560  0.1266
  786MOL0     O 6011  -0.675   5.045   0.297  0.2096 -0.1350 -0.6561
  786MOL0     C 6012  -0.710   5.127   0.187  0.3595 -0.2656  0.5263
  786MOL0     C 6013  -0.773   5.045   0.082  0.3822  0.5953 -0.1681
  786MOL0     C 6014  -0.756   5.121  -0.051 -0.3900  0.0213 -1.0332
  786MOL0     C 6015  -0.806   5.037  -0.162  0.6166  0.7289 -1.1890
  786MOL0     C 6016  -0.781   5.104  -0.292 -0.5663 -0.0157 -0.5748
  786MOL0     C 6017  -0.789   4.997  -0.399  0.1469 -0.5128 -0.1969
  786MOL0     C 6018  -0.811   5.058  -0.530 -1.3745  0.0414 -0.6032
  786MOL0     C 6019  -0.795   4.963  -0.644  0.1671  0.4253 -0.1769
  786MOL0    Cl 6020  -0.892   4.815  -0.649  0.5731 -0.1748  0.0870
  786MOL0     C 6021  -0.633   5.251   0.436  0.7013  0.0151 -0.2590
  786MOL0     C 6022  -0.590   5.308   0.551  0.0471  0.6190  0.2538
  786MOL0     O 6023  -0.636   5.452   0.783 -0.1602 -0.3692 -0.3616
  786MOL0     C 6024  -0.463   5.321   1.070  0.8304  0.1518 -0.4252
  786MOL0     C 6025  -0.414   5.353   1.201 -0.7587  0.6861  1.0465
  786MOL0     N 6026   0.143   5.455   1.871  0.1918  0.2328  0.3145
  786MOL0     N 6027   0.255   5.392   1.908 -0.2290  0.6340 -0.7668
  786MOL0     C 6028   1.369   5.615   1.954  0.4571 -0.4565 -0.0539
  786MOL0     C 6029   1.479   5.697   1.990 -0.5137  0.3671 -0.8820
  786MOL0     C 6030   1.737   6.072   2.077 -0.0244  0.1394  0.6580
  786MOL0     C 6031   1.847   6.008   2.015  0.7387 -1.0004  0.2365
  786MOL0     C 6032   1.972   6.065   2.036  0.5404  0.4786 -0.2411
  786MOL0     C 6033   1.987   6.184   2.119 -0.2783 -0.2627 -0.0679
  786MOL0     O 6034   2.107   6.246   2.126 -0.5163  0.0366  0.3556
  786MOL0     C 6035   2.228   6.169   2.126 -0.4009 -0.2079 -0.3326
  786MOL0     C 6036   2.339   6.268   2.161 -0.3441 -0.6479  0.8047
  786MOL0     C 6037   2.471   6.196   2.177 -0.2696  0.2174  0.2117
  786MOL0     C 6038   2.577   6.291   2.234 -0.1934 -0.0558 -0.0582
  786MOL0     C 6039   2.700   6.217   2.269  0.0425  0.9192 -0.2582
  786MOL0     C 6040   2.813   6.171   2.293 -0.0815  0.0485 -0.2928
  786MOL0     C 6041   1.881   6.240   2.185  0.9542  0.6908 -0.1610
  786MOL0     C 6042   1.756   6.182   2.159  0.4054 -0.9985  0.2698
  786MOL0     H 6043   1.342   6.002   1.957  1.9171  0.9980  1.9723
  786MOL0     H 6044   1.151   5.864   1.891 -0.6776 -0.1828  1.7557
  786MOL0     H 6045   1.072   5.746   1.746 -0.1168  0.1626 -0.3455
  786MOL0     H 6046   1.205   5.642   1.686 -0.5431  0.2663 -2.4888
  786MOL0     H 6047   0.917   5.573   1.768  0.6924  0.7639  0.1369
  786MOL0     H 6048   0.962   5.620   1.603 -1.6932  1.3182  1.1933
  786MOL0     H 6049   1.039   5.425   1.542 -0.9484 -1.6621  0.5083
  786MOL0     H 6050   1.142   5.418   1.683 -0.6639 -2.8859  0.2317
  786MOL0     H 6051   0.976   5.228   1.685  0.2707 -1.4728  2.5230
  786MOL0     H 6052   0.934   5.336   1.811  1.3323  0.7700  0.0635
  786MOL0     H 6053   0.770   5.451   1.639 -2.3256 -0.0616 -0.8820
  786MOL0     H 6054   0.785   5.323   1.531 -2.5036  0.5481 -0.0134
  786MOL0     H 6055   0.666   5.172   1.656  0.7492 -0.6787  0.8342
  786MOL0     H 6056   0.702   5.240   1.817  1.1433 -1.7353 -0.5474
  786MOL0     H 6057   0.575   5.450   1.750 -1.5827 -0.9715  2.5766
  786MOL0     H 6058   0.517   5.380   1.614 -0.5383  1.0973  0.3269
  786MOL0     H 6059   0.476   5.274   1.899 -2.5776 -1.3957  1.0380
  786MOL0     H 6060   0.433   5.173   1.754  1.4600 -1.0342 -0.0556
  786MOL0     H 6061   0.279   5.398   1.582  1.6251 -1.3549  0.2966
  786MOL0     H 6062  -0.012   5.621   1.706 -2.1451 -2.1108  0.5234
  786MOL0     H 6063   0.113   5.596   1.577  0.2436  2.6838  0.8601
  786MOL0     H 6064  -0.113   5.413   1.656 -0.6641 -1.4748 -1.3896
  786MOL0     H 6065  -0.010   5.391   1.515  0.8293 -1.0084  2.9405
  786MOL0     H 6066  -0.099   5.617   1.433 -1.4972  3.1461  1.4779
  786MOL0     H 6067  -0.226   5.598   1.558 -0.3174 -1.8036  0.9542
  786MOL0     H 6068  -0.262   5.363   1.460  2.8294 -0.9221  0.5924
  786MOL0     H 6069  -0.159   5.403   1.328 -1.3263 -0.2499 -2.8626
  786MOL0     H 6070  -0.422   5.688   1.169 -1.5259  0.5382 -1.6906
  786MOL0     H 6071  -0.608   5.682   0.873  0.3438  2.6477  1.2357
  786MOL0     H 6072  -0.523   5.771   0.990 -2.2663  1.1631 -0.1224
  786MOL0     H 6073  -0.429   5.694   0.860 -0.8816  1.1275 -1.9387
  786MOL0     H 6074  -0.479   5.011   0.693  2.9578  0.0209 -1.3494
  786MOL0     H 6075  -0.577   4.926   0.478 -1.2022  0.3194  0.4151
  786MOL0     H 6076  -0.777   5.207   0.219 -0.5687 -1.1597  0.8946
  786MOL0     H 6077  -0.618   5.179   0.157 -0.4929  3.2646  3.3035
  786MOL0     H 6078  -0.713   4.954   0.077  2.7574  2.1215 -1.1924
  786MOL0     H 6079  -0.880   5.024   0.093  0.7178 -1.2362 -0.1647
  786MOL0     H 6080  -0.650   5.145  -0.068  0.2950 -1.0031  1.3600
  786MOL0     H 6081  -0.817   5.212  -0.050 -0.3569  0.0579 -2.0046
  786MOL0     H 6082  -0.747   4.944  -0.156 -0.9028 -0.2102  0.5573
  786MOL0     H 6083  -0.912   5.014  -0.152  0.6925  0.0412 -1.8712
  786MOL0     H 6084  -0.689   5.162  -0.292 -0.7583  0.3160 -1.7840
  786MOL0     H 6085  -0.859   5.181  -0.296 -0.4777  0.1286  0.4102
  786MOL0     H 6086  -0.701   4.933  -0.413  0.3185 -0.5592  0.9859
  786MOL0     H 6087  -0.875   4.932  -0.382 -0.6088  0.8719  1.4847
  786MOL0     H 6088  -0.750   5.148  -0.543  2.3496 -1.4067  3.9334
  786MOL0     H 6089  -0.913   5.097  -0.526 -0.5836  2.1857 -0.1603
  786MOL0     H 6090  -0.689   4.937  -0.656  0.1547 -0.6282  1.5993
  786MOL0     H 6091  -0.830   5.025  -0.727 -2.3850  0.1552  0.6084
  786MOL0     H 6092  -0.662   5.332   0.370 -0.1393  0.0536  0.1417
  786MOL0     H 6093  -0.576   5.415   0.555  1.1076  0.5460 -0.8739
  786MOL0     H 6094  -0.444   5.218   1.041  1.1664 -0.3344  1.4126
  786MOL0     H 6095  -0.376   5.279   1.271  1.2636  1.8626  1.2712
  786MOL0     H 6096   1.393   5.510   1.951 -0.7504 -1.0784  4.5947
  786MOL0     H 6097   1.573   5.657   2.027 -1.5537 -2.4230 -1.0441
  786MOL0     H 6098   1.832   5.928   1.943 -1.0166 -0.6859  0.2150
  786MOL0     H 6099   2.055   6.016   1.987  0.3325 -0.7236  0.5661
  786MOL0     H 6100   2.225   6.087   2.198  2.8690  0.3604  0.5985
  786MOL0     H 6101   2.256   6.127   2.029 -0.3345 -0.5412 -0.1713
  786MOL0     H 6102   2.311   6.324   2.250 -2.3950 -0.6385  0.2074
  786MOL0     H 6103   2.345   6.337   2.076 -1.3823 -2.5054 -0.8739
  786MOL0     H 6104   2.506   6.149   2.085 -1.7972  1.7515 -1.2205
  786MOL0     H 6105   2.448   6.117   2.249 -1.4129  0.6168  0.3113
  786MOL0     H 6106   2.545   6.351   2.320 -0.7863  1.0693 -1.0297
  786MOL0     H 6107   2.601   6.364   2.156 -0.9749  1.3669  0.9795
  786MOL0     H 6108   2.915   6.139   2.303  0.5884  1.9527 -0.6518
  786MOL0     H 6109   1.890   6.327   2.248  3.1652 -1.2179  2.4080
  786MOL0     H 6110   1.678   6.230   2.217 -0.2293  1.9024 -2.6645
  787MOL0     O 6111  10.712   7.890   8.218  0.1721 -0.7283  0.1972
  787MOL0     C 6112  10.701   7.804   8.302 -0.1098  0.3383 -0.8279
  787MOL0     O 6113  10.584   7.752   8.342  0.2678 -0.2856 -1.2665
  787MOL0     C 6114  10.473   7.814   8.299 -0.0343 -0.1875  0.2441
  787MOL0     C 6115  10.420   7.924   8.364 -0.1989 -0.3569 -0.2616
  787MOL0     C 6116  10.307   7.990   8.324  0.6855  0.3754 -0.0340
  787MOL0     C 6117  10.232   7.932   8.219 -0.8868 -0.3599 -0.3123
  787MOL0     O 6118  10.113   7.994   8.175  0.1925 -0.6980  0.1572
  787MOL0     C 6119  10.118   8.044   8.034 -0.1085 -0.8110 -0.3316
  787MOL0     C 6120  10.196   8.175   8.031 -0.9628 -0.6060  0.7905
  787MOL0     C 6121  10.118   8.293   8.090  0.0902 -0.3813  0.2798
  787MOL0     C 6122  10.089   8.295   8.249 -0.5306 -1.2335  0.1648
  787MOL0     C 6123  10.009   8.420   8.275  0.2046  1.1167 -1.1745
  787MOL0     C 6124   9.982   8.419   8.428  1.1364  0.1059 -0.0392
  787MOL0     C 6125   9.917   8.549   8.471 -0.8571  0.3083  0.0425
  787MOL0     C 6126   9.772   8.564   8.427  0.6294  0.4711 -0.4880
  787MOL0     N 6127   9.684   8.450   8.452 -0.5963 -0.1036  0.9216
  787MOL0     C 6128   9.639   8.408   8.572 -0.0294  0.6172  1.0004
  787MOL0     C 6129   9.556   8.305   8.527  0.4170 -0.3782 -0.3638
  787MOL0     C 6130   9.463   8.226   8.611  0.6882 -0.3325  0.6130
  787MOL0     C 6131   9.328   8.281   8.612  0.2073 -0.0197  0.7072
  787MOL0     C 6132   9.262   8.285   8.471 -0.2971  0.4708 -0.3017
  787MOL0     C 6133   9.115   8.309   8.484  0.8635  0.6190  0.8868
  787MOL0     O 6134   9.045   8.333   8.364 -0.4199  0.3195 -0.0189
  787MOL0     C 6135   8.913   8.365   8.385 -0.3461  0.0899  0.1495
  787MOL0     C 6136   8.834   8.347   8.500  0.1495  0.3677  0.3076
  787MOL0     C 6137   8.693   8.365   8.495 -0.2063  0.1897  1.0141
  787MOL0     C 6138   8.617   8.357   8.632  0.3114 -0.6145  0.1552
  787MOL0     C 6139   8.633   8.397   8.370 -0.5715 -0.4842  0.0826
  787MOL0     C 6140   8.487   8.395   8.341  0.1482  0.2152 -0.2342
  787MOL0     O 6141   8.401   8.354   8.431  0.6358  0.3302 -0.2270
  787MOL0     C 6142   8.286   8.296   8.392 -0.0070  0.3475 -0.2041
  787MOL0     C 6143   8.266   8.216   8.285  0.3938 -0.3330  0.5627
  787MOL0     C 6144   8.136   8.155   8.268  0.1096  0.6589 -0.5250
  787MOL0     C 6145   8.023   8.190   8.347 -0.4526  0.0443  0.4483
  787MOL0     O 6146   7.890   8.160   8.333  0.1229 -0.7679 -0.0031
  787MOL0     C 6147   7.842   8.158   8.193 -0.1315  0.4669  0.7072
  787MOL0     C 6148   7.682   8.158   8.201 -0.2479 -0.4660 -0.0508
  787MOL0     C 6149   7.623   8.056   8.295  1.1102 -0.2951 -0.0904
  787MOL0     C 6150   7.470   8.086   8.303 -0.7865  0.4675  0.3951
  787MOL0     C 6151   7.389   7.974   8.381 -0.1867  0.1288  0.2319
  787MOL0     C 6152   7.240   8.004   8.374  0.0714 -0.3984  0.4310
  787MOL0     C 6153   7.155   7.903   8.452 -0.4099  0.2154 -0.6111
  787MOL0     C 6154   7.005   7.920   8.441 -0.5828  0.2505  0.1718
  787MOL0    Cl 6155   6.942   7.853   8.283  0.1953  0.3198  0.3688
  787MOL0     C 6156   8.050   8.272   8.454 -0.1851 -0.7394 -0.3974
  787MOL0     C 6157   8.176   8.331   8.472 -0.1590  0.6438  0.9137
  787MOL0     O 6158   8.458   8.434   8.229 -0.8674  0.7613 -0.0417
  787MOL0     C 6159   8.721   8.410   8.263 -0.8124  0.1049 -0.0340
  787MOL0     C 6160   8.859   8.404   8.275  0.2273 -0.1704 -0.0895
  787MOL0     N 6161   9.552   8.297   8.391  0.0234  0.8138  0.6999
  787MOL0     N 6162   9.634   8.382   8.342 -1.1044 -0.0794  0.5398
  787MOL0     C 6163  10.286   7.820   8.148 -0.4546  1.1337 -0.0393
  787MOL0     C 6164  10.399   7.758   8.196 -0.1964 -0.1039 -0.1546
  787MOL0     C 6165  10.827   7.739   8.361 -0.3609  0.1337 -0.1894
  787MOL0     C 6166  10.952   7.783   8.316 -0.6436  0.4144  0.7596
  787MOL0     C 6167  11.074   7.739   8.376 -0.5300  0.0638  0.4785
  787MOL0     C 6168  11.076   7.639   8.475 -0.2250  0.1518  0.2652
  787MOL0     O 6169  11.186   7.577   8.531 -0.0621  0.3931  0.1473
  787MOL0     C 6170  11.314   7.622   8.481  0.5511 -0.4564 -0.5168
  787MOL0     C 6171  11.434   7.555   8.542 -0.7764 -0.5638  0.3227
  787MOL0     C 6172  11.424   7.496   8.678  0.0525  0.1176 -0.5025
  787MOL0     C 6173  11.534   7.407   8.717  0.5313  0.4025  0.1726
  787MOL0     C 6174  11.667   7.471   8.684  0.4261  0.2555  0.5178
  787MOL0     C 6175  11.774   7.518   8.669 -0.7527 -0.0127 -0.9974
  787MOL0     C 6176  10.945   7.587   8.497  0.3710  0.2051  0.2961
  787MOL0     C 6177  10.821   7.635   8.451 -0.4064 -0.1130 -0.2195
  787MOL0     H 6178  10.476   7.966   8.448  1.3699 -0.8213 -1.0326
  787MOL0     H 6179  10.269   8.081   8.369 -1.8606 -0.3729 -0.5029
  787MOL0     H 6180  10.159   7.974   7.962  1.9243 -1.2434  1.1603
  787MOL0     H 6181  10.017   8.067   7.997  0.3483 -0.1144 -1.1665
  787MOL0     H 6182  10.288   8.158   8.088 -0.1633  0.3814 -0.1689
  787MOL0     H 6183  10.230   8.204   7.931 -0.0761 -3.1194  0.2937
  787MOL0     H 6184  10.165   8.388   8.062 -1.7577  0.7028  0.7104
  787MOL0     H 6185  10.023   8.309   8.040  1.4614  0.5990 -2.1899
  787MOL0     H 6186  10.037   8.204   8.277  0.1675 -1.8696 -0.5413
  787MOL0     H 6187  10.181   8.302   8.309 -1.8173 -0.7031  2.1596
  787MOL0     H 6188  10.064   8.508   8.239 -2.0272  3.4995  0.8238
  787MOL0     H 6189   9.919   8.408   8.215  1.4314  0.6328 -3.0172
  787MOL0     H 6190   9.911   8.338   8.448 -0.3112  1.5920  1.1151
  787MOL0     H 6191  10.072   8.401   8.487 -0.1456  3.2036  3.1886
  787MOL0     H 6192   9.909   8.550   8.580 -2.9831 -2.8699  0.0528
  787MOL0     H 6193   9.973   8.639   8.445 -0.8903  1.3956  3.3023
  787MOL0     H 6194   9.775   8.575   8.318  0.4938 -0.3974 -0.5893
  787MOL0     H 6195   9.724   8.656   8.460 -1.7385 -0.2992 -1.5097
  787MOL0     H 6196   9.659   8.447   8.672  1.0139  0.7706  0.7457
  787MOL0     H 6197   9.459   8.125   8.570 -2.0915 -0.4987  1.1007
  787MOL0     H 6198   9.489   8.213   8.717  1.5345 -2.7219  0.1628
  787MOL0     H 6199   9.328   8.384   8.648 -0.5521  1.3285 -2.7279
  787MOL0     H 6200   9.267   8.224   8.682  1.3754  1.6557  3.2225
  787MOL0     H 6201   9.282   8.193   8.414  0.2031  0.1295  0.4066
  787MOL0     H 6202   9.305   8.363   8.407 -1.4999 -0.4555 -2.3261
  787MOL0     H 6203   9.084   8.394   8.546  1.2893  1.1715  0.3480
  787MOL0     H 6204   9.065   8.218   8.520 -2.3449  1.9134  0.0259
  787MOL0     H 6205   8.871   8.318   8.598  0.6215  2.6817  0.8891
  787MOL0     H 6206   8.678   8.388   8.717 -2.8810  3.8703  1.1521
  787MOL0     H 6207   8.545   8.439   8.632 -0.9496 -1.6728 -0.4777
  787MOL0     H 6208   8.567   8.260   8.646  0.3022 -0.9130 -1.6999
  787MOL0     H 6209   8.340   8.195   8.208 -1.7419 -3.0862 -0.9400
  787MOL0     H 6210   8.121   8.087   8.185 -2.5048 -0.3333  0.6510
  787MOL0     H 6211   7.880   8.244   8.138  0.4708 -0.5874 -0.5926
  787MOL0     H 6212   7.883   8.062   8.158  0.0083 -0.3152  2.8721
  787MOL0     H 6213   7.652   8.256   8.241  1.6098 -0.3197  1.1234
  787MOL0     H 6214   7.639   8.151   8.101 -0.3733  0.2931 -0.0605
  787MOL0     H 6215   7.658   8.080   8.396  0.8563  0.7287 -0.2329
  787MOL0     H 6216   7.624   7.952   8.260  1.4038 -0.0472 -0.8497
  787MOL0     H 6217   7.457   8.181   8.357  0.1036 -0.6355  2.6804
  787MOL0     H 6218   7.428   8.098   8.202 -1.0232 -2.4193  0.0865
  787MOL0     H 6219   7.426   7.992   8.482 -0.7131  2.2154  0.0902
  787MOL0     H 6220   7.407   7.875   8.338 -2.4454 -1.1487  1.9697
  787MOL0     H 6221   7.236   8.102   8.421  1.6908 -1.7401  3.6678
  787MOL0     H 6222   7.205   8.013   8.270  0.4854 -2.8491  0.0130
  787MOL0     H 6223   7.182   7.920   8.557 -3.4065 -0.9489  0.4360
  787MOL0     H 6224   7.180   7.803   8.415 -3.0711  0.2569 -2.7662
  787MOL0     H 6225   6.994   8.029   8.440  4.6021  1.0360  1.4770
  787MOL0     H 6226   6.956   7.872   8.526  0.1877 -0.4510  0.2269
  787MOL0     H 6227   7.969   8.299   8.521  0.0717 -0.8967 -0.0241
  787MOL0     H 6228   8.193   8.396   8.558  0.0083  1.9374 -0.0673
  787MOL0     H 6229   8.689   8.441   8.164  1.0610  1.1882 -0.3286
  787MOL0     H 6230   8.910   8.432   8.184 -1.0174 -1.4002 -1.2169
  787MOL0     H 6231  10.230   7.774   8.067 -2.2525  1.5082  0.9278
  787MOL0     H 6232  10.436   7.665   8.155 -0.9984 -1.4219  1.9235
  787MOL0     H 6233  10.956   7.853   8.233 -4.1234 -1.2119 -0.9431
  787MOL0     H 6234  11.160   7.795   8.340  0.9156 -2.7684 -0.8558
  787MOL0     H 6235  11.312   7.605   8.373 -2.6999 -0.3085 -0.5756
  787MOL0     H 6236  11.319   7.729   8.500  1.1114 -0.7569  1.1385
  787MOL0     H 6237  11.515   7.628   8.530 -0.8489 -0.4504  0.5276
  787MOL0     H 6238  11.451   7.459   8.492 -0.7161 -1.7973  2.5811
  787MOL0     H 6239  11.322   7.461   8.696 -0.9342  2.6817 -0.6482
  787MOL0     H 6240  11.440   7.580   8.747  0.1008 -0.5071  0.2551
  787MOL0     H 6241  11.531   7.307   8.672 -0.5602 -0.8872  2.8564
  787MOL0     H 6242  11.540   7.386   8.825 -0.3338  2.2986  0.6354
  787MOL0     H 6243  11.871   7.561   8.653  0.3489 -2.1622 -0.3642
  787MOL0     H 6244  10.943   7.510   8.572  0.2683  1.1889  1.3315
  787MOL0     H 6245  10.730   7.587   8.486  0.4619 -0.4015  1.7460
  788MOL0     O 6246   8.555   9.992  10.072 -0.5644  0.5192  0.1063
  788MOL0     C 6247   8.548  10.023   9.952  0.2095 -0.4384  0.1455
  788MOL0     O 6248   8.448   9.981   9.867 -0.8818  0.2657 -0.8363
  788MOL0     C 6249   8.336   9.919   9.912  0.0312  0.9196 -0.1453
  788MOL0     C 6250   8.240   9.889   9.811  0.1250 -0.3413  0.3023
  788MOL0     C 6251   8.110   9.838   9.843  0.2936  0.0919  0.5513
  788MOL0     C 6252   8.085   9.816   9.977 -0.3287  0.8075 -0.3440
  788MOL0     O 6253   7.968   9.764  10.019 -0.1411 -0.3062 -0.0550
  788MOL0     C 6254   7.869   9.711   9.926 -0.0234  0.8408 -0.0048
  788MOL0     C 6255   7.759   9.632  10.008  0.3561  1.0319  0.9169
  788MOL0     C 6256   7.628   9.615   9.928  0.3114  0.5529  0.5711
  788MOL0     C 6257   7.501   9.583  10.004  0.4066  0.5293 -0.3501
  788MOL0     C 6258   7.396   9.694  10.010  0.0431 -0.5175  0.3103
  788MOL0     C 6259   7.270   9.663  10.076 -0.5728  0.6258  0.1249
  788MOL0     C 6260   7.188   9.778  10.125 -0.4048  0.6520 -0.7551
  788MOL0     C 6261   7.144   9.878  10.022  0.5680  0.4040 -0.3526
  788MOL0     N 6262   6.994   9.891  10.023  0.0416 -0.0339  0.3655
  788MOL0     C 6263   6.913   9.790   9.979 -0.1645  0.4868  0.0625
  788MOL0     C 6264   6.801   9.791  10.053 -0.5590  0.3461  0.3096
  788MOL0     C 6265   6.698   9.682  10.063  0.3657 -0.7642  0.5537
  788MOL0     C 6266   6.604   9.684   9.951 -0.0041 -0.7644  0.2235
  788MOL0     C 6267   6.512   9.565   9.954 -0.7375  0.0088  0.0989
  788MOL0     C 6268   6.384   9.582   9.880 -1.1954 -0.0724 -0.5804
  788MOL0     O 6269   6.309   9.458   9.872  0.2977  0.0047  0.5547
  788MOL0     C 6270   6.182   9.459   9.817 -0.9145 -0.7722  0.0183
  788MOL0     C 6271   6.118   9.338   9.823 -0.6041 -0.4247  0.2095
  788MOL0     C 6272   5.991   9.322   9.769 -0.4884  0.5338  0.0143
  788MOL0     C 6273   5.938   9.181   9.769  0.0886  0.3684 -0.3937
  788MOL0     C 6274   5.925   9.438   9.721 -0.1332 -0.0148 -0.4856
  788MOL0     C 6275   5.788   9.432   9.670 -0.4469  0.0714  0.2799
  788MOL0     O 6276   5.727   9.554   9.658  0.6997  0.1574  0.4551
  788MOL0     C 6277   5.600   9.542   9.607 -0.0726 -0.8022  0.0098
  788MOL0     C 6278   5.571   9.519   9.472 -0.4277  0.1628  0.0493
  788MOL0     C 6279   5.439   9.506   9.423 -1.0521  0.4422 -0.2252
  788MOL0     C 6280   5.329   9.511   9.516  0.3623 -0.1623  0.0710
  788MOL0     O 6281   5.195   9.504   9.469  0.3876 -0.2967 -0.0988
  788MOL0     C 6282   5.075   9.466   9.557  0.0585  0.0563  0.1929
  788MOL0     C 6283   4.945   9.528   9.498 -0.1727 -0.2054 -0.2295
  788MOL0     C 6284   4.958   9.673   9.468  0.5076  0.6565 -0.2392
  788MOL0     C 6285   4.816   9.735   9.439 -0.3361 -0.3599 -0.4316
  788MOL0     C 6286   4.810   9.883   9.481 -0.6478  0.3740  0.3204
  788MOL0     C 6287   4.918   9.984   9.434 -0.5647 -0.4539  0.3182
  788MOL0     C 6288   4.938   9.983   9.284  0.3385  0.0803  0.5627
  788MOL0     C 6289   5.060  10.062   9.245  0.0751 -0.9679  0.6209
  788MOL0    Cl 6290   5.100  10.055   9.073 -0.1514  0.1409 -0.4707
  788MOL0     C 6291   5.358   9.520   9.644  0.1281 -0.4690  0.0604
  788MOL0     C 6292   5.490   9.552   9.693  0.1967 -0.6692  0.2643
  788MOL0     O 6293   5.735   9.321   9.645 -0.2142  0.6283  0.2114
  788MOL0     C 6294   5.994   9.558   9.709  0.1177  0.0913 -0.6408
  788MOL0     C 6295   6.122   9.570   9.762  0.2281 -0.5072 -0.6435
  788MOL0     N 6296   6.805   9.908  10.118 -0.0268 -0.1028 -0.4593
  788MOL0     N 6297   6.915   9.973  10.105  0.3024  0.0283  0.1015
  788MOL0     C 6298   8.188   9.820  10.080 -0.4645 -0.2426  0.3799
  788MOL0     C 6299   8.307   9.874  10.043 -0.1789 -0.4376 -0.2282
  788MOL0     C 6300   8.671  10.096   9.904  0.2586 -0.3092  0.1554
  788MOL0     C 6301   8.673  10.163   9.776 -0.1627  0.0110  0.2154
  788MOL0     C 6302   8.795  10.218   9.727  0.2060  0.4173 -0.3379
  788MOL0     C 6303   8.908  10.221   9.799 -0.0954  0.0380 -0.7974
  788MOL0     O 6304   9.015  10.283   9.742  0.4453  0.5621  0.2369
  788MOL0     C 6305   9.150  10.250   9.773 -0.6489  0.4988 -0.7579
  788MOL0     C 6306   9.183  10.101   9.762  0.7620  0.4551  0.6133
  788MOL0     C 6307   9.156  10.031   9.624  0.2751  0.2841  0.1532
  788MOL0     C 6308   9.189  10.112   9.499 -0.5631 -0.2939  1.0769
  788MOL0     C 6309   9.327  10.179   9.498  0.6842  0.5371  0.3445
  788MOL0     C 6310   9.433  10.219   9.511 -0.8359 -0.1920  1.0244
  788MOL0     C 6311   8.906  10.163   9.926 -0.0961  0.3604 -0.5912
  788MOL0     C 6312   8.792  10.096   9.976 -0.2736  0.2084 -0.0112
  788MOL0     H 6313   8.275   9.917   9.712  0.7834 -2.9732 -0.2787
  788MOL0     H 6314   8.039   9.814   9.764 -0.5170  1.1569  0.9364
  788MOL0     H 6315   7.823   9.788   9.863  1.3169 -0.8145 -3.2747
  788MOL0     H 6316   7.909   9.639   9.853 -1.7467 -0.4018  0.2002
  788MOL0     H 6317   7.799   9.544  10.058 -1.1382  0.5419  1.3049
  788MOL0     H 6318   7.730   9.703  10.086 -0.5532  2.1964 -0.4198
  788MOL0     H 6319   7.605   9.702   9.867 -2.9151 -0.7141 -0.2017
  788MOL0     H 6320   7.639   9.528   9.862  5.1180  0.4513  1.1391
  788MOL0     H 6321   7.447   9.503   9.952  2.7759 -0.1998 -1.8160
  788MOL0     H 6322   7.533   9.542  10.101  1.8347 -1.4233 -1.5620
  788MOL0     H 6323   7.447   9.776  10.062  0.3666 -0.7710  0.3955
  788MOL0     H 6324   7.376   9.727   9.908 -0.3504 -1.5176  0.0527
  788MOL0     H 6325   7.216   9.604  10.001  0.0791  1.5438 -1.0980
  788MOL0     H 6326   7.294   9.603  10.165  1.1154  2.2090  0.7953
  788MOL0     H 6327   7.106   9.751  10.192  0.9875 -0.6985  0.4794
  788MOL0     H 6328   7.256   9.835  10.188  2.8665 -2.6152 -1.0189
  788MOL0     H 6329   7.165   9.845   9.921  1.2158 -0.5472  0.0820
  788MOL0     H 6330   7.192   9.973  10.049  5.1653 -2.7049  4.3756
  788MOL0     H 6331   6.953   9.718   9.908  3.6292  0.8532  1.5755
  788MOL0     H 6332   6.743   9.583  10.064 -0.6904 -1.2913 -0.8641
  788MOL0     H 6333   6.652   9.698  10.161 -1.8623 -1.6623 -0.2820
  788MOL0     H 6334   6.648   9.700   9.853 -1.7805  3.1279 -0.1324
  788MOL0     H 6335   6.543   9.775   9.960 -1.7380 -1.5407 -2.3962
  788MOL0     H 6336   6.478   9.559  10.058  0.9087  3.2365  0.9698
  788MOL0     H 6337   6.562   9.473   9.921  0.7585  1.6371 -2.5185
  788MOL0     H 6338   6.407   9.612   9.777 -1.0542  1.3178 -0.1595
  788MOL0     H 6339   6.331   9.667   9.924  1.3694  0.6138  1.4470
  788MOL0     H 6340   6.172   9.253   9.865 -1.4133 -0.5809  0.9569
  788MOL0     H 6341   5.917   9.146   9.667 -0.6592 -0.2174 -0.0417
  788MOL0     H 6342   6.003   9.114   9.827  0.2884  1.7227  0.9873
  788MOL0     H 6343   5.841   9.174   9.818  0.1129  0.7145 -0.2951
  788MOL0     H 6344   5.655   9.501   9.405 -1.0138 -0.3838 -0.5515
  788MOL0     H 6345   5.419   9.486   9.318 -3.4091 -1.3469  0.4642
  788MOL0     H 6346   5.063   9.357   9.553 -0.9313  0.0360  2.1624
  788MOL0     H 6347   5.092   9.491   9.663  2.0229  0.1302 -0.0939
  788MOL0     H 6348   4.906   9.486   9.405 -0.7810  1.0063 -0.5436
  788MOL0     H 6349   4.872   9.500   9.574 -0.9408  0.3636 -0.7397
  788MOL0     H 6350   5.024   9.676   9.381  2.5100 -1.1986  1.1054
  788MOL0     H 6351   5.006   9.720   9.554  0.3982 -0.8612  0.6894
  788MOL0     H 6352   4.791   9.716   9.334  0.0600  0.3219 -0.6552
  788MOL0     H 6353   4.734   9.690   9.497 -0.4007 -0.0558 -0.2827
  788MOL0     H 6354   4.832   9.876   9.588  0.1602 -0.9369  0.0951
  788MOL0     H 6355   4.710   9.923   9.464 -1.1101 -0.4294  1.0572
  788MOL0     H 6356   4.900  10.085   9.473  0.5490  0.2963 -1.0105
  788MOL0     H 6357   5.013   9.952   9.475  0.0073 -0.0743 -0.6714
  788MOL0     H 6358   4.850  10.026   9.234  1.5691  1.0723 -0.8353
  788MOL0     H 6359   4.953   9.882   9.244 -0.4801  0.6948 -1.4547
  788MOL0     H 6360   5.148  10.038   9.306  2.1266  0.5512 -1.5096
  788MOL0     H 6361   5.042  10.168   9.260  2.4048 -0.5010  0.5617
  788MOL0     H 6362   5.281   9.519   9.721 -1.5530  1.2790 -1.4771
  788MOL0     H 6363   5.508   9.565   9.799 -0.4403  0.0948  0.2853
  788MOL0     H 6364   5.948   9.641   9.656 -2.6304 -0.8973  0.0086
  788MOL0     H 6365   6.182   9.660   9.759  0.3652 -0.2487  3.6160
  788MOL0     H 6366   8.170   9.795  10.184  1.7246  3.4383  1.8488
  788MOL0     H 6367   8.371   9.875  10.131 -1.5349  2.1548  0.8536
  788MOL0     H 6368   8.586  10.168   9.711  0.1880  0.9398 -0.1971
  788MOL0     H 6369   8.813  10.264   9.630  0.6683 -1.0784 -0.9865
  788MOL0     H 6370   9.206  10.313   9.704  1.7030  0.0914  0.6243
  788MOL0     H 6371   9.160  10.269   9.881  0.5511 -1.6222 -0.4261
  788MOL0     H 6372   9.113  10.039   9.819  0.3621  0.0414 -0.3101
  788MOL0     H 6373   9.278  10.076   9.809  0.1207  1.5324  2.6214
  788MOL0     H 6374   9.049  10.008   9.620  0.7451 -1.8610 -2.2173
  788MOL0     H 6375   9.194   9.929   9.622  0.1929  0.2588 -0.1374
  788MOL0     H 6376   9.105  10.181   9.486 -1.5321 -1.0949  2.7588
  788MOL0     H 6377   9.199  10.036   9.421 -3.0161 -1.0984  1.4569
  788MOL0     H 6378   9.537  10.244   9.508 -0.7872 -0.3668  1.2365
  788MOL0     H 6379   8.998  10.151   9.982 -0.9114  1.7025  1.1099
  788MOL0     H 6380   8.807  10.027  10.059 -0.6709 -1.4273 -1.2481
  789MOL0     O 6381   1.064   2.001   7.207  0.1970  0.2803 -0.5006
  789MOL0     C 6382   1.117   1.951   7.108  0.8523  0.1543 -0.6904
  789MOL0     O 6383   1.053   1.920   6.985 -0.7109  0.0258 -0.4632
  789MOL0     C 6384   0.921   1.969   6.975  0.3745 -0.1930  0.4264
  789MOL0     C 6385   0.897   2.108   6.948  0.3734 -0.3139  0.4104
  789MOL0     C 6386   0.766   2.165   6.938 -0.4914 -0.1164 -1.0762
  789MOL0     C 6387   0.657   2.084   6.960  0.6419  0.3893 -0.0557
  789MOL0     O 6388   0.530   2.135   6.966  0.2437 -0.5423  0.7808
  789MOL0     C 6389   0.450   2.094   6.850 -0.2601  0.4837 -0.2439
  789MOL0     C 6390   0.527   2.115   6.718  0.4939  0.1237 -0.1349
  789MOL0     C 6391   0.438   2.091   6.591 -0.2091 -0.9398  1.1119
  789MOL0     C 6392   0.515   2.119   6.460 -0.5783  0.4403  0.0642
  789MOL0     C 6393   0.424   2.102   6.333  0.0492  0.1754 -0.7243
  789MOL0     C 6394   0.482   2.144   6.197 -0.4005 -0.8686 -0.4241
  789MOL0     C 6395   0.493   2.298   6.176  0.1364 -0.4444  0.9685
  789MOL0     C 6396   0.512   2.352   6.031  0.8588  0.4660  0.4317
  789MOL0     N 6397   0.408   2.310   5.930 -0.4370  0.0856 -0.3551
  789MOL0     C 6398   0.264   2.319   5.948 -0.1207 -0.0047  0.4073
  789MOL0     C 6399   0.208   2.258   5.840  0.8798 -0.5223 -0.4490
  789MOL0     C 6400   0.065   2.252   5.798  0.2067 -0.4286 -0.4110
  789MOL0     C 6401   0.006   2.113   5.792  0.1558 -0.6747 -0.2637
  789MOL0     C 6402  -0.144   2.099   5.766 -0.8117 -0.4076 -0.2628
  789MOL0     C 6403  -0.181   2.128   5.616 -0.0506  0.3467 -0.5478
  789MOL0     O 6404  -0.208   2.001   5.555  0.1551 -0.5341 -0.5592
  789MOL0     C 6405  -0.315   1.988   5.479  0.0013 -0.0236 -1.0008
  789MOL0     C 6406  -0.443   1.997   5.541 -0.8206  0.3899  0.5363
  789MOL0     C 6407  -0.562   1.987   5.462 -0.6078  0.1437 -0.0451
  789MOL0     C 6408  -0.687   2.000   5.540  1.0739  0.1311 -0.1839
  789MOL0     C 6409  -0.554   1.990   5.318  0.5756  0.0948 -0.2880
  789MOL0     C 6410  -0.673   1.978   5.235  1.0848  0.0157 -0.1096
  789MOL0     O 6411  -0.671   2.032   5.107  0.1249 -0.2504  0.4383
  789MOL0     C 6412  -0.785   2.066   5.041 -0.0303 -0.2018  0.5515
  789MOL0     C 6413  -0.915   2.073   5.095 -0.0774  0.0598 -0.5376
  789MOL0     C 6414  -1.018   2.133   5.029 -0.6146 -1.1347  0.7831
  789MOL0     C 6415  -1.001   2.193   4.901  0.7303  0.1036  0.2491
  789MOL0     O 6416  -1.111   2.258   4.857 -0.0393  0.1727  0.3282
  789MOL0     C 6417  -1.116   2.316   4.730  0.4247 -0.2722  0.9595
  789MOL0     C 6418  -1.236   2.396   4.703 -0.1800  0.6848  0.1702
  789MOL0     C 6419  -1.351   2.310   4.652  0.1462  0.7489 -0.1134
  789MOL0     C 6420  -1.488   2.376   4.670 -0.6431  0.3914  0.2665
  789MOL0     C 6421  -1.595   2.274   4.635  0.1588 -0.3427 -0.0911
  789MOL0     C 6422  -1.622   2.158   4.727  0.1194 -0.6050 -0.1413
  789MOL0     C 6423  -1.662   2.205   4.869 -0.4077 -0.0501  0.6862
  789MOL0     C 6424  -1.626   2.096   4.974 -0.2749  1.1081 -0.5541
  789MOL0    Cl 6425  -1.745   1.953   4.957  0.1822 -0.0780 -0.2534
  789MOL0     C 6426  -0.877   2.170   4.840  0.1630  0.1209 -0.4105
  789MOL0     C 6427  -0.776   2.106   4.907  0.2756  0.0771 -0.3655
  789MOL0     O 6428  -0.767   1.916   5.283  0.0838  0.1053  0.0679
  789MOL0     C 6429  -0.424   1.994   5.264  0.2703  0.0494  0.3891
  789MOL0     C 6430  -0.309   1.984   5.343 -0.2526  0.9522  0.0765
  789MOL0     N 6431   0.322   2.209   5.766  0.1575 -0.3446 -0.1375
  789MOL0     N 6432   0.434   2.244   5.820  0.2066  0.2843 -0.7448
  789MOL0     C 6433   0.675   1.945   6.983  0.3631 -0.5207 -0.4235
  789MOL0     C 6434   0.809   1.893   7.000  0.0804 -0.1239  0.3015
  789MOL0     C 6435   1.262   1.905   7.119  0.0562 -0.2843  0.5894
  789MOL0     C 6436   1.322   1.919   7.250  0.3502  0.3366  0.5134
  789MOL0     C 6437   1.455   1.876   7.271  0.1850  0.4732  0.5435
  789MOL0     C 6438   1.525   1.814   7.164  0.0400 -0.1663 -0.8458
  789MOL0     O 6439   1.663   1.769   7.173  0.0948 -0.0852  0.0384
  789MOL0     C 6440   1.732   1.822   7.284 -0.8243  0.5145 -0.0398
  789MOL0     C 6441   1.888   1.840   7.261  0.4289  0.7422  0.2364
  789MOL0     C 6442   1.968   1.716   7.218  0.0859  0.2989 -0.2183
  789MOL0     C 6443   2.112   1.750   7.189  0.6880 -0.2531  0.2993
  789MOL0     C 6444   2.107   1.801   7.050 -0.7048  0.2388  0.0773
  789MOL0     C 6445   2.106   1.848   6.937 -0.1487  0.1173 -1.0134
  789MOL0     C 6446   1.465   1.805   7.043 -0.5378  1.1403  0.8678
  789MOL0     C 6447   1.338   1.845   7.014  0.1453 -0.4180 -0.1329
  789MOL0     H 6448   0.984   2.164   6.915 -0.5144  0.2848 -0.9958
  789MOL0     H 6449   0.747   2.272   6.931  1.8274  0.7705  2.7679
  789MOL0     H 6450   0.416   1.991   6.868 -2.5116  1.4165  1.3613
  789MOL0     H 6451   0.363   2.159   6.857 -0.4648  0.0553  2.0422
  789MOL0     H 6452   0.563   2.218   6.727 -0.1543  0.5742 -2.0639
  789MOL0     H 6453   0.620   2.059   6.713  0.1606 -0.4757  0.2369
  789MOL0     H 6454   0.410   1.985   6.600 -0.9065 -0.6553  2.6011
  789MOL0     H 6455   0.353   2.159   6.597  1.9850  2.1935 -0.7441
  789MOL0     H 6456   0.552   2.222   6.457 -0.1579  0.2708 -0.5744
  789MOL0     H 6457   0.594   2.044   6.457 -0.9685 -0.1412  2.4681
  789MOL0     H 6458   0.402   1.995   6.325  1.7288 -0.1674 -1.0389
  789MOL0     H 6459   0.330   2.155   6.347 -0.9716 -1.7906  0.4654
  789MOL0     H 6460   0.581   2.099   6.184  0.6859  1.5819 -1.2595
  789MOL0     H 6461   0.414   2.095   6.126 -0.6286 -0.7609 -0.2833
  789MOL0     H 6462   0.401   2.343   6.215  0.1569  0.7865 -0.3048
  789MOL0     H 6463   0.583   2.324   6.233  1.2795 -1.2835 -0.3872
  789MOL0     H 6464   0.609   2.318   5.994  1.1495  1.2478  0.4424
  789MOL0     H 6465   0.502   2.461   6.038  0.9472  0.5698 -0.8787
  789MOL0     H 6466   0.222   2.366   6.036  2.8922 -0.9492  2.5341
  789MOL0     H 6467   0.006   2.294   5.880 -1.3202 -0.9203 -1.2164
  789MOL0     H 6468   0.052   2.315   5.709 -0.5243  0.4002  0.2585
  789MOL0     H 6469   0.028   2.072   5.891 -0.4961  0.8545  0.5574
  789MOL0     H 6470   0.063   2.062   5.714  2.6078  1.2998  0.1062
  789MOL0     H 6471  -0.203   2.154   5.840  0.6307 -1.8612  2.1023
  789MOL0     H 6472  -0.169   1.995   5.787  0.9812 -0.9928 -0.8109
  789MOL0     H 6473  -0.094   2.162   5.559 -0.4658  0.1988 -1.2897
  789MOL0     H 6474  -0.267   2.196   5.619  0.2761  0.7255  1.0731
  789MOL0     H 6475  -0.459   1.993   5.649 -1.8551  1.6387  0.4612
  789MOL0     H 6476  -0.760   2.067   5.494 -2.0095 -3.2350 -0.5729
  789MOL0     H 6477  -0.742   1.907   5.551 -0.9360  1.2211 -0.6219
  789MOL0     H 6478  -0.683   2.050   5.638 -2.5744  2.1009 -0.8696
  789MOL0     H 6479  -0.935   2.035   5.195  0.5648 -0.1045 -0.4676
  789MOL0     H 6480  -1.123   2.143   5.055 -0.7269 -0.0261 -0.0479
  789MOL0     H 6481  -1.028   2.382   4.728  1.5055 -1.5962  2.4772
  789MOL0     H 6482  -1.099   2.240   4.654  0.1511 -1.7805  2.3648
  789MOL0     H 6483  -1.266   2.458   4.789  0.2041  0.1250  0.7185
  789MOL0     H 6484  -1.201   2.471   4.631 -0.5245  1.4670  0.7990
  789MOL0     H 6485  -1.343   2.211   4.698  1.6507  1.1703  0.5823
  789MOL0     H 6486  -1.328   2.280   4.549  1.0621  3.7180 -0.8498
  789MOL0     H 6487  -1.504   2.422   4.768 -1.3893  0.0005  0.3344
  789MOL0     H 6488  -1.501   2.459   4.599 -0.6546  0.6130  0.5248
  789MOL0     H 6489  -1.571   2.239   4.535  1.0494 -2.6383  0.8531
  789MOL0     H 6490  -1.692   2.324   4.623 -0.7326 -2.4316 -2.1935
  789MOL0     H 6491  -1.695   2.089   4.683  3.0753 -4.5669  0.5835
  789MOL0     H 6492  -1.542   2.084   4.732  1.1464  0.3054 -2.1130
  789MOL0     H 6493  -1.770   2.224   4.866 -0.1533  1.4384 -0.9960
  789MOL0     H 6494  -1.604   2.289   4.909  1.9801 -1.2387 -0.0706
  789MOL0     H 6495  -1.641   2.134   5.075 -1.4782  0.1753 -0.3547
  789MOL0     H 6496  -1.520   2.067   4.967 -1.0333 -2.8628  1.3567
  789MOL0     H 6497  -0.865   2.220   4.744  0.2552  1.1022  0.1043
  789MOL0     H 6498  -0.678   2.103   4.860 -0.1670  1.4654 -1.4565
  789MOL0     H 6499  -0.408   1.993   5.156  1.0776  0.6532  0.4927
  789MOL0     H 6500  -0.211   1.972   5.296  0.7125 -1.1541  2.4071
  789MOL0     H 6501   0.589   1.880   6.993  0.6169 -0.9968 -1.2637
  789MOL0     H 6502   0.826   1.786   7.006  0.4834 -0.2051 -1.7828
  789MOL0     H 6503   1.262   1.951   7.334 -0.4999  1.9882 -0.6691
  789MOL0     H 6504   1.488   1.875   7.374 -2.7845 -3.2392  1.6562
  789MOL0     H 6505   1.696   1.923   7.310  0.1715  0.9157 -0.1825
  789MOL0     H 6506   1.723   1.759   7.373  2.1318  1.7767  1.2942
  789MOL0     H 6507   1.927   1.876   7.357 -0.6851  2.7778 -0.0202
  789MOL0     H 6508   1.900   1.921   7.188 -0.3841  0.0399 -0.7079
  789MOL0     H 6509   1.924   1.671   7.128 -1.1066  2.1938 -0.6467
  789MOL0     H 6510   1.970   1.648   7.304 -4.5815  1.1829  0.8603
  789MOL0     H 6511   2.171   1.658   7.194  1.8313  0.3864 -0.6625
  789MOL0     H 6512   2.150   1.831   7.252 -1.1305  1.3314 -0.5212
  789MOL0     H 6513   2.119   1.906   6.848 -4.0411 -0.7192 -2.3426
  789MOL0     H 6514   1.518   1.775   6.953 -1.9092 -0.7018  0.6327
  789MOL0     H 6515   1.306   1.839   6.911  4.0139 -3.3731 -1.4241
  790MOL0     O 6516   3.672   1.643   6.648  0.6215  0.0724  0.0940
  790MOL0     C 6517   3.673   1.707   6.542 -0.2040 -0.4996 -0.2806
  790MOL0     O 6518   3.587   1.805   6.509 -0.1237 -0.3020 -0.0989
  790MOL0     C 6519   3.490   1.857   6.587 -1.3539  0.5917 -0.2323
  790MOL0     C 6520   3.369   1.889   6.529 -0.1574  1.1139  0.0329
  790MOL0     C 6521   3.280   1.952   6.612  0.0218 -0.5447  0.5781
  790MOL0     C 6522   3.318   2.006   6.736 -0.3931 -0.3380 -0.2036
  790MOL0     O 6523   3.228   2.068   6.825  0.1132 -0.3451 -0.3077
  790MOL0     C 6524   3.081   2.065   6.805 -0.1040  0.5947 -0.3201
  790MOL0     C 6525   3.016   1.944   6.880 -0.2901  0.4502  0.7768
  790MOL0     C 6526   2.863   1.947   6.890  0.0280 -0.4186  0.3431
  790MOL0     C 6527   2.798   1.855   6.989 -0.0911 -0.1275 -0.6791
  790MOL0     C 6528   2.640   1.853   6.953 -0.3928  0.2467  0.3973
  790MOL0     C 6529   2.575   1.734   7.036 -0.0320 -0.0354 -0.0704
  790MOL0     C 6530   2.444   1.678   6.987  0.2688 -0.3428  0.5348
  790MOL0     C 6531   2.455   1.611   6.852 -0.6229  0.2396 -0.6967
  790MOL0     N 6532   2.319   1.586   6.815  0.2096  0.5649  0.5586
  790MOL0     C 6533   2.230   1.489   6.864 -0.0282 -0.0243  1.0416
  790MOL0     C 6534   2.124   1.482   6.780 -1.7188  0.1290  0.3788
  790MOL0     C 6535   2.007   1.387   6.785 -0.6739  0.1515 -0.4678
  790MOL0     C 6536   1.881   1.462   6.824  0.1199  0.4620 -0.4096
  790MOL0     C 6537   1.781   1.350   6.867  0.4772 -0.2942  0.3187
  790MOL0     C 6538   1.633   1.404   6.885  0.5683  1.1423  0.0406
  790MOL0     O 6539   1.576   1.433   6.758  0.7439 -0.4648 -0.0840
  790MOL0     C 6540   1.443   1.487   6.751  0.0830 -0.3238  0.9936
  790MOL0     C 6541   1.354   1.508   6.857 -0.1828  0.1824 -0.1127
  790MOL0     C 6542   1.220   1.550   6.830 -0.3782 -0.9006  0.5777
  790MOL0     C 6543   1.137   1.570   6.953  0.6422  0.1820  0.9300
  790MOL0     C 6544   1.166   1.563   6.694  0.4546 -0.8399  0.3091
  790MOL0     C 6545   1.016   1.585   6.658 -0.0883  0.6404  0.2661
  790MOL0     O 6546   0.919   1.586   6.760 -0.1953 -0.2454  0.0158
  790MOL0     C 6547   0.784   1.594   6.741  0.2380  0.4265 -0.5915
  790MOL0     C 6548   0.716   1.469   6.733 -0.3687  0.2847 -0.3411
  790MOL0     C 6549   0.580   1.468   6.705  0.6501  0.3317 -0.3935
  790MOL0     C 6550   0.511   1.590   6.699 -0.3025 -0.1597  0.1629
  790MOL0     O 6551   0.374   1.607   6.678  0.1424 -0.1389 -0.3354
  790MOL0     C 6552   0.302   1.500   6.614  0.8771 -0.6043  0.0334
  790MOL0     C 6553   0.157   1.545   6.603 -0.3526 -0.2670  0.3035
  790MOL0     C 6554   0.145   1.679   6.518  0.2436 -0.7718 -0.7483
  790MOL0     C 6555   0.003   1.734   6.537  0.4083  0.6551 -0.3405
  790MOL0     C 6556  -0.033   1.853   6.443 -0.0925  0.0058 -0.4937
  790MOL0     C 6557  -0.188   1.879   6.431  0.7388  0.0264  0.1703
  790MOL0     C 6558  -0.220   2.020   6.364  0.4029  0.5011 -0.3102
  790MOL0     C 6559  -0.369   2.048   6.345  0.3338  0.6253  0.2321
  790MOL0    Cl 6560  -0.422   1.942   6.211  0.0973 -0.3952  0.2858
  790MOL0     C 6561   0.578   1.713   6.727  0.7926  0.0245 -0.5220
  790MOL0     C 6562   0.715   1.713   6.741 -0.0626 -0.8179 -0.0427
  790MOL0     O 6563   0.993   1.610   6.543  0.0165 -0.0562 -0.1296
  790MOL0     C 6564   1.260   1.544   6.593 -0.4023  0.2531  0.1053
  790MOL0     C 6565   1.386   1.507   6.622 -0.1931 -0.4200 -0.1415
  790MOL0     N 6566   2.155   1.578   6.681 -0.3635  0.0227 -1.0253
  790MOL0     N 6567   2.258   1.648   6.708  0.6010 -0.9225 -0.1388
  790MOL0     C 6568   3.436   1.961   6.792 -0.6456 -0.7670 -0.0125
  790MOL0     C 6569   3.530   1.890   6.717  0.5364  0.3831  0.4932
  790MOL0     C 6570   3.779   1.667   6.437  0.5255 -0.5274  0.3494
  790MOL0     C 6571   3.810   1.757   6.338 -0.2648 -0.2353  0.0431
  790MOL0     C 6572   3.909   1.723   6.240 -0.7990  0.6380 -0.9205
  790MOL0     C 6573   3.967   1.598   6.241 -0.2881 -0.1968  0.1061
  790MOL0     O 6574   4.049   1.570   6.132 -0.1751 -0.7571  0.4261
  790MOL0     C 6575   4.093   1.435   6.118 -0.3633  0.2942 -1.0807
  790MOL0     C 6576   4.191   1.425   5.992 -0.4405 -0.5259 -0.0803
  790MOL0     C 6577   4.203   1.279   5.946  0.4057  0.2714 -0.8686
  790MOL0     C 6578   4.287   1.262   5.823  0.0241 -0.6021  0.1556
  790MOL0     C 6579   4.429   1.263   5.848  0.1353 -1.2914 -0.1803
  790MOL0     C 6580   4.554   1.268   5.855 -0.3438 -0.7038  0.3218
  790MOL0     C 6581   3.930   1.510   6.344 -0.0436 -0.6355 -0.6961
  790MOL0     C 6582   3.830   1.544   6.439 -0.1073 -0.6102  0.6387
  790MOL0     H 6583   3.336   1.870   6.427  1.7499 -1.3446 -0.2233
  790MOL0     H 6584   3.184   1.969   6.565  1.6014  0.3026 -2.6083
  790MOL0     H 6585   3.036   2.157   6.843 -1.6686 -0.4164  0.3788
  790MOL0     H 6586   3.053   2.062   6.699 -1.7472  1.8579  0.0307
  790MOL0     H 6587   3.044   1.859   6.818 -1.0259  0.7068  0.0782
  790MOL0     H 6588   3.069   1.922   6.973 -0.3108 -2.2312  0.2309
  790MOL0     H 6589   2.826   2.048   6.908 -3.5407 -1.5947  0.5054
  790MOL0     H 6590   2.828   1.926   6.788  3.2687  0.2568 -1.0470
  790MOL0     H 6591   2.854   1.761   6.991 -1.4196 -0.9471 -0.6431
  790MOL0     H 6592   2.810   1.907   7.084  2.2529  0.4212 -1.1949
  790MOL0     H 6593   2.591   1.948   6.976  1.5742  1.6291 -0.8499
  790MOL0     H 6594   2.631   1.827   6.847  0.8937  2.7685 -0.4097
  790MOL0     H 6595   2.636   1.643   7.034 -1.7209 -1.2139 -0.7147
  790MOL0     H 6596   2.571   1.765   7.141  0.8928  1.1046 -0.3541
  790MOL0     H 6597   2.413   1.607   7.065 -2.0911 -0.6997 -0.6434
  790MOL0     H 6598   2.364   1.752   6.975 -0.3877 -1.2894 -1.5408
  790MOL0     H 6599   2.514   1.521   6.873 -0.6547 -0.7119 -4.0150
  790MOL0     H 6600   2.498   1.674   6.774 -0.9202 -1.2124 -2.1076
  790MOL0     H 6601   2.235   1.435   6.958 -1.0163  2.3132  2.5098
  790MOL0     H 6602   2.000   1.333   6.690  1.6715 -0.7122 -0.2295
  790MOL0     H 6603   2.033   1.318   6.866  1.7719 -0.1261 -1.3862
  790MOL0     H 6604   1.830   1.504   6.736 -1.4289 -0.9179 -0.2252
  790MOL0     H 6605   1.886   1.529   6.910  2.5235  2.4868 -1.9562
  790MOL0     H 6606   1.810   1.313   6.966 -1.4104 -0.1335  0.9901
  790MOL0     H 6607   1.777   1.265   6.798  1.5343 -2.2781  2.5454
  790MOL0     H 6608   1.631   1.484   6.960  3.1201  0.9896  0.3630
  790MOL0     H 6609   1.568   1.323   6.921 -2.3144  2.3258 -2.0551
  790MOL0     H 6610   1.399   1.497   6.955 -0.7044 -0.1728  0.0952
  790MOL0     H 6611   1.058   1.495   6.962  0.5165  0.1600 -0.1458
  790MOL0     H 6612   1.182   1.569   7.052  0.4787  0.3995  1.0046
  790MOL0     H 6613   1.083   1.665   6.954 -0.1868 -0.2807  0.9839
  790MOL0     H 6614   0.768   1.375   6.744  0.5040  0.8242  0.3287
  790MOL0     H 6615   0.526   1.375   6.695 -0.7504  1.2333 -1.7016
  790MOL0     H 6616   0.321   1.477   6.508 -1.4299 -0.1914 -0.5357
  790MOL0     H 6617   0.305   1.404   6.665 -1.4066 -1.9690 -2.1409
  790MOL0     H 6618   0.110   1.459   6.555  4.4582 -2.2017 -1.5139
  790MOL0     H 6619   0.113   1.547   6.703  0.4093 -0.0648  0.6377
  790MOL0     H 6620   0.181   1.667   6.416  0.5401  0.2285 -0.7695
  790MOL0     H 6621   0.214   1.756   6.553 -0.6393 -1.1534  2.1228
  790MOL0     H 6622  -0.056   1.648   6.503  1.6040 -0.2661 -0.1835
  790MOL0     H 6623  -0.025   1.749   6.642  2.5059 -2.6579  0.8934
  790MOL0     H 6624   0.006   1.837   6.342 -0.4571  2.8803 -1.1753
  790MOL0     H 6625   0.011   1.946   6.481 -3.7299  0.6118  2.8834
  790MOL0     H 6626  -0.232   1.800   6.369  2.8198  0.2009 -1.6802
  790MOL0     H 6627  -0.239   1.877   6.528 -3.8795  0.0109 -1.9715
  790MOL0     H 6628  -0.167   2.019   6.269  1.8603  0.4768  0.4776
  790MOL0     H 6629  -0.185   2.102   6.426 -0.1768 -1.0945  2.2796
  790MOL0     H 6630  -0.384   2.151   6.313 -0.3393  0.2829 -0.5846
  790MOL0     H 6631  -0.426   2.028   6.436  0.9839 -1.5382  0.2183
  790MOL0     H 6632   0.522   1.806   6.723  0.1988 -0.3451 -0.8597
  790MOL0     H 6633   0.763   1.810   6.730  2.6660 -2.3548 -3.7268
  790MOL0     H 6634   1.229   1.562   6.491  0.4293  0.4570 -0.1163
  790MOL0     H 6635   1.452   1.500   6.536 -0.9440 -3.2807 -0.5874
  790MOL0     H 6636   3.460   1.993   6.892  0.1421  2.1525 -1.0296
  790MOL0     H 6637   3.633   1.871   6.743 -0.4711 -1.8229  3.3968
  790MOL0     H 6638   3.762   1.853   6.323  2.0806  0.6930 -2.2287
  790MOL0     H 6639   3.924   1.785   6.152 -0.3594 -0.8462 -1.9151
  790MOL0     H 6640   4.143   1.385   6.202 -4.0336 -0.1656  1.0611
  790MOL0     H 6641   4.006   1.369   6.107 -0.6496  0.1039  1.5327
  790MOL0     H 6642   4.289   1.467   6.014 -0.6613 -1.2539  2.6613
  790MOL0     H 6643   4.153   1.481   5.907  2.1453  1.7909  0.1840
  790MOL0     H 6644   4.104   1.234   5.935 -0.8105  2.4349  0.4093
  790MOL0     H 6645   4.253   1.227   6.028 -2.3899  0.3071  0.9682
  790MOL0     H 6646   4.259   1.344   5.756 -1.1296  0.3800  1.7894
  790MOL0     H 6647   4.260   1.169   5.772 -0.5839  0.4617 -1.5555
  790MOL0     H 6648   4.660   1.261   5.866 -0.7098 -2.2659  4.8223
  790MOL0     H 6649   3.969   1.410   6.362 -0.8253 -0.9701 -0.8066
  790MOL0     H 6650   3.805   1.471   6.516  0.5295  0.2548  1.6963
  791MOL0     O 6651  11.200   2.043  10.317 -0.0654  0.6338 -0.4261
  791MOL0     C 6652  11.224   1.958  10.407  0.5298  0.1802 -0.3189
  791MOL0     O 6653  11.120   1.873  10.455 -0.1081 -0.2468  0.2343
  791MOL0     C 6654  10.991   1.916  10.408 -0.4664 -0.5561  0.4313
  791MOL0     C 6655  10.906   1.999  10.470  0.0296 -0.3203  0.8809
  791MOL0     C 6656  10.798   2.055  10.411 -0.1588 -0.0432  1.0401
  791MOL0     C 6657  10.755   2.009  10.275  0.2499  0.5033  0.2202
  791MOL0     O 6658  10.644   2.049  10.209 -0.1934 -0.0480 -0.2893
  791MOL0     C 6659  10.601   2.180  10.232  0.0935  0.3578  1.0406
  791MOL0     C 6660  10.523   2.217  10.106  0.4555 -0.1321  0.5852
  791MOL0     C 6661  10.449   2.361  10.117 -1.0017  0.7222 -0.2657
  791MOL0     C 6662  10.355   2.380  10.002 -0.2897  0.2504  0.4711
  791MOL0     C 6663  10.253   2.498  10.002 -0.2777 -0.2042  0.2361
  791MOL0     C 6664  10.327   2.632   9.973  0.6759 -0.1688 -0.4882
  791MOL0     C 6665  10.230   2.750   9.956  0.3458 -0.8361  0.1897
  791MOL0     C 6666  10.299   2.869   9.880  0.0905 -0.3738 -0.3613
  791MOL0     N 6667  10.190   2.975   9.868  0.2290  0.9813  0.3267
  791MOL0     C 6668  10.070   2.973   9.793 -0.1028 -0.5311  0.5742
  791MOL0     C 6669  10.020   3.101   9.791  0.1827 -0.7107 -0.0665
  791MOL0     C 6670   9.904   3.152   9.715  0.2990  0.3220 -0.1546
  791MOL0     C 6671   9.770   3.102   9.777  0.6148  1.1195 -0.3130
  791MOL0     C 6672   9.733   3.163   9.913 -0.2387  0.5267  0.9645
  791MOL0     C 6673   9.606   3.093   9.977 -0.8053 -0.4696 -0.5296
  791MOL0     O 6674   9.498   3.148   9.895 -0.6797 -0.3214 -0.6276
  791MOL0     C 6675   9.379   3.083   9.909  0.0249 -0.0316 -0.0778
  791MOL0     C 6676   9.299   3.076   9.794  0.2334  0.3384 -0.8658
  791MOL0     C 6677   9.178   3.005   9.795  0.8502  0.5351  0.1237
  791MOL0     C 6678   9.109   2.987   9.662  0.2390  0.0443 -0.1651
  791MOL0     C 6679   9.130   2.957   9.916  0.5724 -0.2799  0.1907
  791MOL0     C 6680   8.999   2.887   9.923  0.1059 -0.7175 -0.6305
  791MOL0     O 6681   8.936   2.849   9.814  0.1087  0.3973  0.0451
  791MOL0     C 6682   8.821   2.773   9.824  0.1013 -0.5566  0.3953
  791MOL0     C 6683   8.800   2.667   9.905  0.8805  0.3098  0.2206
  791MOL0     C 6684   8.669   2.608   9.913 -0.2180 -0.1381 -0.6138
  791MOL0     C 6685   8.563   2.642   9.828  0.1682 -0.4827  0.1632
  791MOL0     O 6686   8.460   2.550   9.826  0.3342 -0.6052 -0.1377
  791MOL0     C 6687   8.334   2.608   9.804  0.2247 -0.6167  0.2416
  791MOL0     C 6688   8.232   2.541   9.893 -0.3908  0.2494  0.5732
  791MOL0     C 6689   8.095   2.604   9.909  0.7789 -0.1097 -0.0101
  791MOL0     C 6690   8.012   2.531  10.007 -0.2838  0.7810  0.6626
  791MOL0     C 6691   7.872   2.585  10.023 -0.0060 -0.4011  0.1635
  791MOL0     C 6692   7.794   2.498  10.132 -0.3577  0.2734  1.4068
  791MOL0     C 6693   7.648   2.531  10.095  1.0378 -0.9352 -1.0108
  791MOL0     C 6694   7.546   2.481  10.195  0.8891  0.4193 -0.3102
  791MOL0    Cl 6695   7.559   2.304  10.236  0.1916  0.4604 -0.5595
  791MOL0     C 6696   8.591   2.748   9.735  0.3054  0.7663 -0.6124
  791MOL0     C 6697   8.718   2.807   9.738 -0.1622 -0.6985  0.6020
  791MOL0     O 6698   8.959   2.874  10.043  0.1759  0.0570  0.2247
  791MOL0     C 6699   9.207   2.963  10.029 -0.0355 -0.0008 -0.0480
  791MOL0     C 6700   9.330   3.034  10.027  0.6351  0.1151 -1.3060
  791MOL0     N 6701  10.104   3.178   9.868 -0.1945 -0.0824  0.8227
  791MOL0     N 6702  10.195   3.096   9.917 -0.0903 -0.9380  0.1284
  791MOL0     C 6703  10.837   1.909  10.211 -0.0073 -0.6518 -0.2623
  791MOL0     C 6704  10.956   1.873  10.281 -0.0752  0.4277 -1.4536
  791MOL0     C 6705  11.360   1.942  10.448  0.1108 -0.1416  0.2564
  791MOL0     C 6706  11.390   1.845  10.543  0.9293 -1.1134  0.7148
  791MOL0     C 6707  11.518   1.811  10.577 -0.6075  0.0569  0.6734
  791MOL0     C 6708  11.616   1.889  10.519 -0.0948  0.4997  0.2150
  791MOL0     O 6709  11.747   1.864  10.552 -0.3715  0.1216 -0.5770
  791MOL0     C 6710  11.796   1.761  10.633  0.8826 -0.2143  0.0339
  791MOL0     C 6711  11.945   1.770  10.642  0.0131 -0.8005  0.5455
  791MOL0     C 6712  12.003   1.886  10.719  0.4600 -0.2766  0.4483
  791MOL0     C 6713  12.157   1.851  10.728  0.5156 -0.3089 -0.3969
  791MOL0     C 6714  12.196   1.753  10.832  1.0637 -0.1355  0.5068
  791MOL0     C 6715  12.227   1.671  10.923  0.1703  1.0168  0.7557
  791MOL0     C 6716  11.587   1.996  10.432 -0.6051 -0.5211  0.8540
  791MOL0     C 6717  11.458   2.021  10.393 -0.8091 -0.3957  0.0359
  791MOL0     H 6718  10.942   2.023  10.569 -0.0893  2.2735  0.3488
  791MOL0     H 6719  10.746   2.122  10.480 -1.2470 -1.6261  1.8436
  791MOL0     H 6720  10.531   2.194  10.314  1.2701  3.0071  1.7038
  791MOL0     H 6721  10.687   2.245  10.251 -0.5553  1.3394  0.6690
  791MOL0     H 6722  10.589   2.216  10.019  0.8593 -0.6160  0.8917
  791MOL0     H 6723  10.443   2.144  10.091  1.1699 -0.3912 -2.3666
  791MOL0     H 6724  10.383   2.362  10.204 -2.5043  1.5310 -1.3776
  791MOL0     H 6725  10.528   2.438  10.121  0.1984 -0.4928  0.3413
  791MOL0     H 6726  10.427   2.386   9.919  1.7391 -0.7063  2.0897
  791MOL0     H 6727  10.300   2.287   9.986  0.3774 -0.0288 -0.3266
  791MOL0     H 6728  10.180   2.478   9.923  0.8759 -2.9878 -0.2329
  791MOL0     H 6729  10.203   2.504  10.098 -0.4984  2.2682  0.0458
  791MOL0     H 6730  10.396   2.658  10.054  1.4283 -0.3398 -1.0622
  791MOL0     H 6731  10.387   2.616   9.883  1.0509 -0.1290 -0.2482
  791MOL0     H 6732  10.149   2.718   9.890  0.8222 -0.2946 -0.6595
  791MOL0     H 6733  10.186   2.774  10.054 -1.1874 -0.4767 -0.5501
  791MOL0     H 6734  10.310   2.834   9.776 -4.3597  1.9377 -1.8885
  791MOL0     H 6735  10.381   2.911   9.938 -2.4599  1.5863  2.0720
  791MOL0     H 6736  10.026   2.885   9.746 -2.0045  1.2809 -1.2283
  791MOL0     H 6737   9.903   3.261   9.713  0.3439  0.3159 -2.7462
  791MOL0     H 6738   9.902   3.119   9.611  0.5207  0.1798 -0.1131
  791MOL0     H 6739   9.787   2.994   9.783 -2.3032  0.6121  0.5848
  791MOL0     H 6740   9.683   3.120   9.713 -0.9444  0.8115  1.6068
  791MOL0     H 6741   9.731   3.272   9.897 -2.2276  0.1755 -1.9962
  791MOL0     H 6742   9.808   3.149   9.990 -2.1196 -1.0976  2.6129
  791MOL0     H 6743   9.616   3.118  10.083 -1.4377  0.6826 -0.7132
  791MOL0     H 6744   9.607   2.984   9.974 -3.0700 -0.5413 -2.5930
  791MOL0     H 6745   9.342   3.124   9.706  4.0153  2.8381  2.0118
  791MOL0     H 6746   9.161   3.053   9.592  1.1157  0.3785  0.7821
  791MOL0     H 6747   9.114   2.883   9.627  1.9558  0.4318 -1.2072
  791MOL0     H 6748   9.006   3.021   9.654  0.4199  0.1004 -4.5639
  791MOL0     H 6749   8.883   2.638   9.970  1.3801  3.6933  1.2786
  791MOL0     H 6750   8.651   2.519   9.973 -0.5691 -0.2288 -0.8497
  791MOL0     H 6751   8.332   2.713   9.835 -0.6531 -0.8526  1.0424
  791MOL0     H 6752   8.302   2.591   9.701  1.1772 -1.7074  0.1109
  791MOL0     H 6753   8.218   2.443   9.845  2.0998  1.1573 -2.2924
  791MOL0     H 6754   8.286   2.527   9.987  3.4399  3.1414 -0.9267
  791MOL0     H 6755   8.057   2.605   9.806 -0.8671 -2.2030  0.5141
  791MOL0     H 6756   8.113   2.704   9.950 -0.2653 -1.2531  3.5533
  791MOL0     H 6757   8.007   2.425   9.978  1.8404  1.0721 -1.0761
  791MOL0     H 6758   8.064   2.529  10.103 -0.6632 -2.1638  0.9143
  791MOL0     H 6759   7.826   2.587   9.924  1.6228 -2.0488 -0.6975
  791MOL0     H 6760   7.877   2.690  10.052  0.6185 -0.4429  0.2199
  791MOL0     H 6761   7.808   2.389  10.132 -0.0456  0.2956 -0.1209
  791MOL0     H 6762   7.830   2.536  10.228  1.2403 -1.9848  1.7844
  791MOL0     H 6763   7.621   2.480  10.002  2.8007  0.2205 -2.2204
  791MOL0     H 6764   7.633   2.639  10.082  0.6183 -0.9557 -0.7037
  791MOL0     H 6765   7.448   2.502  10.150  1.7379  0.0128 -2.5076
  791MOL0     H 6766   7.551   2.547  10.282  2.8536 -0.3939  0.2416
  791MOL0     H 6767   8.517   2.795   9.671  0.6485  3.1679  0.6498
  791MOL0     H 6768   8.731   2.896   9.678 -2.5853 -0.1624  0.7814
  791MOL0     H 6769   9.168   2.929  10.125 -1.4038 -2.0566 -1.2616
  791MOL0     H 6770   9.376   3.047  10.125 -1.0520  1.5968 -0.6441
  791MOL0     H 6771  10.807   1.869  10.115 -1.4509  1.1862 -0.6496
  791MOL0     H 6772  11.028   1.808  10.232 -0.2651 -1.5118  0.6745
  791MOL0     H 6773  11.303   1.790  10.580  1.4303 -3.3341 -1.1631
  791MOL0     H 6774  11.538   1.731  10.648 -2.7981  1.2765  2.7874
  791MOL0     H 6775  11.745   1.757  10.730  1.3594 -0.5429  0.2736
  791MOL0     H 6776  11.768   1.672  10.577  1.4661 -0.1038 -0.4371
  791MOL0     H 6777  11.978   1.772  10.538 -3.3641 -2.2986 -0.6920
  791MOL0     H 6778  11.981   1.674  10.680  3.2660 -0.6678 -1.7733
  791MOL0     H 6779  11.940   1.903  10.807  1.1994  1.8853  0.5962
  791MOL0     H 6780  11.996   1.976  10.659  0.0337 -0.8526 -0.3814
  791MOL0     H 6781  12.213   1.942  10.750 -0.5750  1.1436 -3.1180
  791MOL0     H 6782  12.188   1.813  10.630  1.9847  2.4431 -1.1194
  791MOL0     H 6783  12.269   1.595  10.985 -0.2650 -0.2260 -0.4209
  791MOL0     H 6784  11.676   2.047  10.398 -0.2036 -0.4067  2.0222
  791MOL0     H 6785  11.439   2.106  10.328  3.5402  2.1418  1.5918
  792MOL0     O 6786   2.284   0.450   7.861  0.4365 -0.0439 -0.3111
  792MOL0     C 6787   2.304   0.326   7.875  0.9692 -0.1361  0.0818
  792MOL0     O 6788   2.231   0.227   7.816 -0.1275  0.2449  0.2634
  792MOL0     C 6789   2.126   0.265   7.736 -0.7124  0.0925  0.5036
  792MOL0     C 6790   2.139   0.254   7.596 -0.0263 -0.8447 -0.2484
  792MOL0     C 6791   2.045   0.314   7.506 -0.2838 -0.2815  0.3467
  792MOL0     C 6792   1.928   0.377   7.563 -1.3347  0.1083  0.1541
  792MOL0     O 6793   1.829   0.446   7.502 -0.2599 -0.3379 -0.1714
  792MOL0     C 6794   1.802   0.436   7.363 -0.6289 -1.3633  0.5241
  792MOL0     C 6795   1.687   0.529   7.309  0.0997 -0.6226  0.2241
  792MOL0     C 6796   1.563   0.489   7.371  0.8484  0.4323  0.1735
  792MOL0     C 6797   1.443   0.558   7.289  0.9702  0.4242  0.1634
  792MOL0     C 6798   1.316   0.548   7.369  0.4099 -1.1955  0.4122
  792MOL0     C 6799   1.211   0.657   7.321 -0.5332 -0.6131  0.3051
  792MOL0     C 6800   1.180   0.637   7.171  0.2437 -0.7505 -0.1669
  792MOL0     C 6801   1.114   0.502   7.123 -0.8222 -0.5097 -0.3367
  792MOL0     N 6802   1.131   0.484   6.978  0.1750  0.4924 -1.0507
  792MOL0     C 6803   1.109   0.572   6.878 -0.0908  1.0232  0.4760
  792MOL0     C 6804   1.123   0.498   6.756  0.0998  0.4666 -0.1864
  792MOL0     C 6805   1.091   0.543   6.614  0.0337 -0.1620 -0.6070
  792MOL0     C 6806   1.218   0.602   6.542  0.2174  0.0862 -0.5133
  792MOL0     C 6807   1.191   0.703   6.426 -0.2315 -0.5092  0.2195
  792MOL0     C 6808   1.071   0.792   6.447  0.2495 -0.4826  0.3522
  792MOL0     O 6809   0.941   0.735   6.436  0.1646 -0.3533  0.3817
  792MOL0     C 6810   0.836   0.822   6.452  0.2115  0.5514 -0.5889
  792MOL0     C 6811   0.832   0.937   6.535  0.9701  0.6463 -0.8113
  792MOL0     C 6812   0.715   1.011   6.568 -0.2294 -0.0751 -0.2148
  792MOL0     C 6813   0.724   1.122   6.665  0.1091 -0.5507  0.3208
  792MOL0     C 6814   0.593   0.974   6.495 -0.3721 -0.0517 -0.1383
  792MOL0     C 6815   0.471   1.056   6.496 -0.0152  0.0668  0.1952
  792MOL0     O 6816   0.377   1.026   6.404 -0.3899 -0.0086  0.5359
  792MOL0     C 6817   0.268   1.111   6.387 -0.2984 -0.3284 -0.4784
  792MOL0     C 6818   0.142   1.072   6.439 -0.4130 -0.3792 -0.7411
  792MOL0     C 6819   0.034   1.158   6.408 -0.3451 -0.2694 -0.3636
  792MOL0     C 6820   0.050   1.276   6.335 -0.6195  0.3385  0.5700
  792MOL0     O 6821  -0.067   1.354   6.324 -0.0440  0.0918 -0.0079
  792MOL0     C 6822  -0.069   1.465   6.238 -0.3711 -0.8979  0.2508
  792MOL0     C 6823  -0.207   1.527   6.260 -0.5608 -0.3366  0.0738
  792MOL0     C 6824  -0.315   1.435   6.202 -0.6908 -0.0095 -1.4479
  792MOL0     C 6825  -0.450   1.492   6.257  0.0257 -0.8928  0.0124
  792MOL0     C 6826  -0.566   1.426   6.194  0.1152  0.4096  0.2222
  792MOL0     C 6827  -0.703   1.486   6.245 -0.3421 -0.1438 -0.0575
  792MOL0     C 6828  -0.823   1.415   6.170 -0.3947  0.4180  0.6874
  792MOL0     C 6829  -0.960   1.464   6.214  0.4787  0.4409 -0.2896
  792MOL0    Cl 6830  -1.082   1.396   6.117 -0.1735 -0.4679  0.2264
  792MOL0     C 6831   0.171   1.307   6.278  0.0852  0.2971  0.4279
  792MOL0     C 6832   0.276   1.228   6.302 -0.4172  0.6567  0.6350
  792MOL0     O 6833   0.467   1.158   6.574  0.1041  0.1792  0.2357
  792MOL0     C 6834   0.599   0.860   6.411 -1.7525  1.0821  0.0687
  792MOL0     C 6835   0.720   0.789   6.393  0.2182  0.3001 -0.4184
  792MOL0     N 6836   1.158   0.373   6.800 -0.6002  0.7765 -0.5698
  792MOL0     N 6837   1.149   0.356   6.926 -0.4915 -0.2794 -0.6278
  792MOL0     C 6838   1.912   0.375   7.707 -0.2985 -0.5258  0.5266
  792MOL0     C 6839   2.012   0.327   7.786  0.1702  0.5934 -0.3721
  792MOL0     C 6840   2.409   0.281   7.975  0.3832 -0.1249 -0.6349
  792MOL0     C 6841   2.449   0.379   8.070  0.7088  0.0105 -0.6053
  792MOL0     C 6842   2.536   0.342   8.170 -0.5808 -0.9340 -0.1970
  792MOL0     C 6843   2.597   0.221   8.162 -0.6563 -0.3665 -0.1257
  792MOL0     O 6844   2.711   0.176   8.233  0.0187  0.5142  0.3525
  792MOL0     C 6845   2.780   0.275   8.312  0.0578  0.2305 -0.2209
  792MOL0     C 6846   2.916   0.221   8.367 -0.1612 -0.0846 -0.2972
  792MOL0     C 6847   2.894   0.091   8.455 -0.4516 -1.2898 -0.1700
  792MOL0     C 6848   3.023   0.047   8.513 -1.0139  0.8015 -0.7422
  792MOL0     C 6849   3.089   0.136   8.606  0.0769  0.9255 -0.2791
  792MOL0     C 6850   3.156   0.211   8.680 -0.0942  0.0967 -0.3125
  792MOL0     C 6851   2.550   0.128   8.063 -0.5836 -0.3467 -0.8939
  792MOL0     C 6852   2.454   0.154   7.970  0.4165  1.7051 -0.0738
  792MOL0     H 6853   2.229   0.205   7.560  1.0971  1.4041 -0.6820
  792MOL0     H 6854   2.060   0.324   7.399 -4.3492  1.2695 -0.3033
  792MOL0     H 6855   1.892   0.472   7.312  1.0557 -0.7866  3.6688
  792MOL0     H 6856   1.791   0.331   7.333  1.4572 -1.1385 -1.2654
  792MOL0     H 6857   1.697   0.636   7.330  0.4605 -0.4953 -0.5665
  792MOL0     H 6858   1.677   0.510   7.202  0.9729  0.2518 -0.0292
  792MOL0     H 6859   1.553   0.381   7.376  1.0929  0.4480  1.1191
  792MOL0     H 6860   1.557   0.530   7.472 -1.3319 -0.7225  0.5826
  792MOL0     H 6861   1.467   0.664   7.280  0.0631  0.6352  0.1053
  792MOL0     H 6862   1.441   0.510   7.191  0.2390 -1.2204  0.9427
  792MOL0     H 6863   1.263   0.452   7.364 -0.5661 -0.7579  1.6640
  792MOL0     H 6864   1.343   0.582   7.469 -1.5788  2.5446 -0.1431
  792MOL0     H 6865   1.122   0.659   7.383  0.2773 -0.6448  1.5085
  792MOL0     H 6866   1.263   0.752   7.334 -0.7251 -0.5504  0.6071
  792MOL0     H 6867   1.107   0.715   7.148  1.2958  1.4575  3.2993
  792MOL0     H 6868   1.266   0.657   7.107 -0.9598  0.4512 -1.5024
  792MOL0     H 6869   1.006   0.514   7.139 -0.8278  0.0553 -0.7415
  792MOL0     H 6870   1.152   0.415   7.177  0.6065  0.3887  0.1465
  792MOL0     H 6871   1.083   0.677   6.884  2.0114  1.6617 -0.6367
  792MOL0     H 6872   1.047   0.461   6.556  0.4707 -0.1903 -0.9045
  792MOL0     H 6873   1.009   0.615   6.626  0.2255  1.0815 -4.9114
  792MOL0     H 6874   1.282   0.517   6.516 -1.2666 -1.5294  0.8891
  792MOL0     H 6875   1.281   0.653   6.617 -0.4031 -1.7094  1.3141
  792MOL0     H 6876   1.176   0.654   6.329  1.6325 -0.0540 -0.3360
  792MOL0     H 6877   1.281   0.764   6.416  0.0004 -0.8267  0.3303
  792MOL0     H 6878   1.077   0.873   6.374 -1.9527 -1.0039 -0.4832
  792MOL0     H 6879   1.079   0.828   6.550 -2.7048  1.2505  0.0946
  792MOL0     H 6880   0.919   0.962   6.594 -0.3248 -0.2524  1.6133
  792MOL0     H 6881   0.653   1.107   6.747 -1.0112  3.1684  0.2173
  792MOL0     H 6882   0.823   1.135   6.710  1.0436 -1.1158 -1.4373
  792MOL0     H 6883   0.695   1.215   6.616 -2.8409 -1.2158  0.6352
  792MOL0     H 6884   0.137   0.985   6.504 -0.1417  0.8330  0.9694
  792MOL0     H 6885  -0.063   1.145   6.456 -0.5116 -1.9146 -1.0971
  792MOL0     H 6886   0.009   1.539   6.261 -0.6364 -0.4005 -0.4300
  792MOL0     H 6887  -0.060   1.428   6.136  0.7890 -0.5826  0.2212
  792MOL0     H 6888  -0.227   1.556   6.364  0.6350  2.5116 -0.3958
  792MOL0     H 6889  -0.208   1.623   6.208 -2.8495 -0.3538 -0.0119
  792MOL0     H 6890  -0.292   1.336   6.241 -3.2458  0.7036  2.4161
  792MOL0     H 6891  -0.315   1.443   6.093  1.0754 -0.1672 -1.4991
  792MOL0     H 6892  -0.450   1.471   6.365  0.0416  1.4224  0.5199
  792MOL0     H 6893  -0.452   1.601   6.249 -0.5252 -0.8328  0.7403
  792MOL0     H 6894  -0.554   1.317   6.190  0.2555  0.4591 -1.5241
  792MOL0     H 6895  -0.562   1.459   6.090  1.8545  3.6471  1.2030
  792MOL0     H 6896  -0.711   1.484   6.354  0.3220  2.2548  0.0771
  792MOL0     H 6897  -0.697   1.594   6.231  2.7983 -0.3132 -0.8159
  792MOL0     H 6898  -0.810   1.307   6.182  0.4337  0.3818 -0.3587
  792MOL0     H 6899  -0.824   1.449   6.066 -1.4350 -2.0528 -0.1659
  792MOL0     H 6900  -0.961   1.573   6.208 -0.3277  0.3702 -2.2739
  792MOL0     H 6901  -0.984   1.435   6.317  0.8453  4.0959  0.9918
  792MOL0     H 6902   0.180   1.392   6.211  2.3671  0.1584  0.4670
  792MOL0     H 6903   0.372   1.257   6.260  1.2612 -0.2792  3.5370
  792MOL0     H 6904   0.518   0.839   6.342 -0.5540 -0.9746 -0.7948
  792MOL0     H 6905   0.713   0.710   6.319 -1.0425  1.6060 -1.7636
  792MOL0     H 6906   1.823   0.421   7.748  0.3941 -0.4722  2.0361
  792MOL0     H 6907   1.997   0.334   7.893 -0.1289  1.0314 -0.4372
  792MOL0     H 6908   2.402   0.477   8.072 -1.4106 -0.9653  0.5177
  792MOL0     H 6909   2.574   0.414   8.242 -0.7593 -1.5274  0.5010
  792MOL0     H 6910   2.791   0.368   8.255  0.5927  0.4290  0.1908
  792MOL0     H 6911   2.714   0.296   8.397  0.4367 -0.9957  0.4003
  792MOL0     H 6912   2.963   0.288   8.439  0.8501 -0.4330 -0.6189
  792MOL0     H 6913   2.983   0.206   8.282  1.6609 -0.0717  1.0657
  792MOL0     H 6914   2.858   0.009   8.392 -1.4605 -1.0892  0.1257
  792MOL0     H 6915   2.824   0.109   8.537 -0.1700  1.5638 -0.4571
  792MOL0     H 6916   3.087   0.015   8.430  2.2777 -1.7030  2.4838
  792MOL0     H 6917   2.994  -0.044   8.566  3.5318 -3.2857 -4.2977
  792MOL0     H 6918   3.191   0.286   8.748  3.4282  0.4647 -2.2912
  792MOL0     H 6919   2.607   0.036   8.064 -0.7872 -0.5000 -2.0370
  792MOL0     H 6920   2.444   0.090   7.882  2.3283 -0.2850  1.0449
  793MOL0     O 6921   0.449   3.159   2.181 -0.4518 -0.0655 -0.0140
  793MOL0     C 6922   0.500   3.140   2.288  0.0098  0.7516  0.0328
  793MOL0     O 6923   0.438   3.173   2.409 -1.1307 -0.1264 -0.2223
  793MOL0     C 6924   0.314   3.228   2.410  0.2525  0.5610 -0.0265
  793MOL0     C 6925   0.297   3.357   2.437  0.5703  0.0757 -1.0930
  793MOL0     C 6926   0.166   3.407   2.440  0.8454 -0.0832  0.1522
  793MOL0     C 6927   0.056   3.332   2.416  0.2457  0.1358  0.3930
  793MOL0     O 6928  -0.071   3.376   2.424  0.7105  0.1093 -0.1013
  793MOL0     C 6929  -0.106   3.501   2.492 -0.4629  0.7025 -0.0740
  793MOL0     C 6930  -0.254   3.489   2.517  0.3003  1.2891  0.0845
  793MOL0     C 6931  -0.299   3.611   2.589  0.2180 -0.9218  0.5595
  793MOL0     C 6932  -0.427   3.590   2.656  0.9612  0.1354 -0.4696
  793MOL0     C 6933  -0.550   3.550   2.567  0.2772 -0.3690  0.1044
  793MOL0     C 6934  -0.685   3.548   2.641 -0.0621 -0.1974  0.0726
  793MOL0     C 6935  -0.721   3.408   2.696  0.1681 -0.0772 -0.8054
  793MOL0     C 6936  -0.657   3.381   2.829 -1.0546  0.7605  0.0704
  793MOL0     N 6937  -0.742   3.331   2.924  0.1476  0.0223 -0.2601
  793MOL0     C 6938  -0.836   3.407   2.998 -0.2310  0.2668 -0.3297
  793MOL0     C 6939  -0.938   3.326   3.036  0.7079  0.2705  0.5473
  793MOL0     C 6940  -1.059   3.358   3.124  0.6178  0.3599  1.2811
  793MOL0     C 6941  -1.029   3.423   3.257  0.0506  0.1111  0.5681
  793MOL0     C 6942  -1.141   3.520   3.292 -0.7689  0.3088  0.3825
  793MOL0     C 6943  -1.278   3.450   3.286  0.6751 -0.2509 -0.2152
  793MOL0     O 6944  -1.364   3.498   3.387  0.0260 -0.2799 -0.0658
  793MOL0     C 6945  -1.493   3.461   3.392 -0.0866  0.1128  0.1127
  793MOL0     C 6946  -1.577   3.531   3.474 -0.2770 -0.0288  0.3636
  793MOL0     C 6947  -1.714   3.506   3.486 -0.0467  0.4113 -0.9848
  793MOL0     C 6948  -1.798   3.592   3.576 -0.0285  0.7244 -0.8188
  793MOL0     C 6949  -1.761   3.388   3.419  0.7125  0.1328  0.0698
  793MOL0     C 6950  -1.911   3.344   3.421  0.0903  0.2804 -0.0098
  793MOL0     O 6951  -1.934   3.208   3.389 -0.3060 -0.2004 -0.4821
  793MOL0     C 6952  -2.065   3.172   3.396  0.7539 -0.5318  0.3897
  793MOL0     C 6953  -2.145   3.176   3.273 -0.4928  0.2613 -0.2786
  793MOL0     C 6954  -2.281   3.148   3.275  0.3317 -0.3989 -0.1276
  793MOL0     C 6955  -2.344   3.104   3.392  0.5881 -0.9722 -0.0472
  793MOL0     O 6956  -2.484   3.082   3.395  0.2846 -0.4543  0.2010
  793MOL0     C 6957  -2.538   2.976   3.471 -0.9629  1.2711 -0.9658
  793MOL0     C 6958  -2.635   3.039   3.572  0.2415 -0.5092  0.7046
  793MOL0     C 6959  -2.771   3.072   3.510 -0.4131  1.0973  0.5189
  793MOL0     C 6960  -2.864   3.130   3.613  1.0801  0.2531  0.3264
  793MOL0     C 6961  -3.002   3.119   3.556  0.3757 -0.2902  0.7557
  793MOL0     C 6962  -3.106   3.196   3.638  0.1989 -0.2190 -0.4944
  793MOL0     C 6963  -3.241   3.170   3.571  1.1128  0.4037  0.0570
  793MOL0     C 6964  -3.357   3.255   3.618  0.8219  0.0210  0.7780
  793MOL0    Cl 6965  -3.474   3.288   3.485  0.4231 -0.5676  0.0406
  793MOL0     C 6966  -2.266   3.101   3.507 -0.2962 -0.4334 -0.4553
  793MOL0     C 6967  -2.126   3.140   3.514  1.1324 -0.2132  0.0025
  793MOL0     O 6968  -1.998   3.419   3.453  0.5955 -0.2030 -0.5227
  793MOL0     C 6969  -1.677   3.311   3.347  0.3489 -1.1242  0.3540
  793MOL0     C 6970  -1.546   3.351   3.330  0.2172  0.5300 -0.9135
  793MOL0     N 6971  -0.896   3.198   2.998  1.5235 -0.6939 -0.0682
  793MOL0     N 6972  -0.787   3.202   2.936 -0.1585 -0.0281  0.1483
  793MOL0     C 6973   0.076   3.193   2.383  0.4973  0.0343  0.0305
  793MOL0     C 6974   0.208   3.146   2.377 -0.4017  0.8280 -0.3693
  793MOL0     C 6975   0.643   3.111   2.293 -0.7763  0.4152 -0.2859
  793MOL0     C 6976   0.704   3.088   2.421 -0.2680 -0.0361  0.4727
  793MOL0     C 6977   0.838   3.061   2.429  0.2674 -0.0113 -0.0677
  793MOL0     C 6978   0.914   3.055   2.312  0.4826 -0.0274  0.1257
  793MOL0     O 6979   1.042   3.009   2.295 -0.5463  0.3515 -0.3422
  793MOL0     C 6980   1.093   2.919   2.401  0.0396  0.4407  0.7801
  793MOL0     C 6981   1.185   2.983   2.499 -0.0290 -0.1644  0.3029
  793MOL0     C 6982   1.312   3.029   2.418 -0.5657 -0.2749  0.0792
  793MOL0     C 6983   1.431   3.088   2.493 -0.1825  0.5317  0.8743
  793MOL0     C 6984   1.401   3.217   2.550  0.8360  0.1682  0.1857
  793MOL0     C 6985   1.358   3.318   2.603 -0.4865  0.0353 -0.4495
  793MOL0     C 6986   0.850   3.087   2.187  0.1491 -0.0480  0.5986
  793MOL0     C 6987   0.716   3.123   2.175 -0.7029 -0.9081 -0.1596
  793MOL0     H 6988   0.379   3.427   2.454  0.5578 -0.5716  2.2651
  793MOL0     H 6989   0.150   3.513   2.459 -1.6042 -0.1159 -1.3806
  793MOL0     H 6990  -0.054   3.511   2.588 -1.7265  0.3584  0.6585
  793MOL0     H 6991  -0.079   3.588   2.431  1.0452  1.6384  1.8072
  793MOL0     H 6992  -0.303   3.495   2.419 -0.2084  0.2432  0.2658
  793MOL0     H 6993  -0.274   3.398   2.573 -1.1526  1.3376 -0.3103
  793MOL0     H 6994  -0.227   3.643   2.665  0.8093  0.3792 -0.5136
  793MOL0     H 6995  -0.320   3.686   2.512 -0.7000 -1.9297 -0.1904
  793MOL0     H 6996  -0.405   3.515   2.733  1.6872 -0.8825 -1.6311
  793MOL0     H 6997  -0.456   3.680   2.711  1.9458  1.2747 -1.7490
  793MOL0     H 6998  -0.556   3.619   2.483  4.0475  0.3311  0.2515
  793MOL0     H 6999  -0.532   3.449   2.528  4.3209 -0.3501  1.4377
  793MOL0     H 7000  -0.707   3.628   2.713 -2.2968  0.5227 -1.3067
  793MOL0     H 7001  -0.767   3.564   2.570 -0.6932 -1.3511  0.5028
  793MOL0     H 7002  -0.830   3.398   2.702  0.1930 -0.1574 -0.4666
  793MOL0     H 7003  -0.690   3.325   2.632  1.3867  1.9685 -3.0483
  793MOL0     H 7004  -0.604   3.471   2.861 -0.3918  0.3265  0.2228
  793MOL0     H 7005  -0.578   3.308   2.812 -2.4242 -1.6473  3.0109
  793MOL0     H 7006  -0.831   3.514   3.016  0.1030  0.2767 -0.4748
  793MOL0     H 7007  -1.129   3.416   3.064  1.1094 -0.1414  0.2000
  793MOL0     H 7008  -1.106   3.261   3.135  0.3924  0.0989 -1.2983
  793MOL0     H 7009  -0.930   3.469   3.255  0.0682  0.0719  0.5227
  793MOL0     H 7010  -1.008   3.346   3.331  1.7129  0.3996  0.4162
  793MOL0     H 7011  -1.146   3.602   3.219 -0.6509  0.4777  0.5625
  793MOL0     H 7012  -1.131   3.568   3.390 -1.0560  0.8420  0.1587
  793MOL0     H 7013  -1.249   3.347   3.310  0.9859 -0.2487 -0.5796
  793MOL0     H 7014  -1.321   3.455   3.186 -1.7470 -1.4806  0.6673
  793MOL0     H 7015  -1.533   3.615   3.528 -1.1201  0.2610  0.6141
  793MOL0     H 7016  -1.882   3.636   3.523  1.4778  2.2930 -2.0173
  793MOL0     H 7017  -1.841   3.542   3.664  1.5919  1.1940  0.2826
  793MOL0     H 7018  -1.743   3.678   3.615 -1.9900  1.6203  0.0927
  793MOL0     H 7019  -2.086   3.186   3.182  1.8056 -2.6875  0.7375
  793MOL0     H 7020  -2.342   3.147   3.184 -0.2529  3.6627 -0.0002
  793MOL0     H 7021  -2.596   2.899   3.418 -0.9055  1.5737 -1.4754
  793MOL0     H 7022  -2.462   2.929   3.534 -0.3981  4.6260  1.1164
  793MOL0     H 7023  -2.652   2.970   3.654 -4.2853 -0.3408  0.1926
  793MOL0     H 7024  -2.603   3.138   3.606 -2.4042  0.7663 -0.2163
  793MOL0     H 7025  -2.813   2.979   3.471 -2.4038  1.6212  1.2878
  793MOL0     H 7026  -2.757   3.144   3.429  1.7122 -1.5019 -1.5914
  793MOL0     H 7027  -2.876   3.067   3.702 -0.9479  0.8143  0.5013
  793MOL0     H 7028  -2.824   3.229   3.641  2.3932 -0.8012  2.4272
  793MOL0     H 7029  -3.027   3.014   3.541  0.6084 -0.0944 -1.2811
  793MOL0     H 7030  -3.007   3.171   3.460 -1.7558  1.3623  1.6630
  793MOL0     H 7031  -3.107   3.155   3.740  0.3495  0.3611 -0.2528
  793MOL0     H 7032  -3.088   3.304   3.640 -0.4920 -0.0789 -1.2921
  793MOL0     H 7033  -3.276   3.067   3.589 -1.7662  1.3734  0.5260
  793MOL0     H 7034  -3.234   3.194   3.465 -2.4313 -0.0441 -0.4048
  793MOL0     H 7035  -3.317   3.353   3.646 -2.2225  0.6685  3.4265
  793MOL0     H 7036  -3.414   3.215   3.702 -2.0461 -0.3223 -1.1814
  793MOL0     H 7037  -2.303   3.053   3.597 -0.8610  3.1094  1.3681
  793MOL0     H 7038  -2.072   3.138   3.608 -0.2683  1.7874  0.9177
  793MOL0     H 7039  -1.714   3.233   3.281 -0.3636  0.0354 -0.6572
  793MOL0     H 7040  -1.478   3.289   3.272  1.4476  2.7445 -1.9597
  793MOL0     H 7041   0.002   3.118   2.358  1.1240 -0.4150 -0.5349
  793MOL0     H 7042   0.229   3.042   2.356 -3.2895  0.2594 -0.8503
  793MOL0     H 7043   0.644   3.093   2.511  0.6442 -0.1784  1.1044
  793MOL0     H 7044   0.890   3.042   2.522 -0.4930  1.2261  0.6401
  793MOL0     H 7045   1.003   2.877   2.446 -4.3247  2.5710 -4.7614
  793MOL0     H 7046   1.140   2.838   2.345  0.8138  1.6757 -0.4187
  793MOL0     H 7047   1.211   2.911   2.578 -4.1054 -3.1919 -0.7986
  793MOL0     H 7048   1.143   3.074   2.543  2.1199  0.6616  0.8160
  793MOL0     H 7049   1.276   3.100   2.343  0.8142  0.0401 -0.3169
  793MOL0     H 7050   1.352   2.941   2.368  3.6086  1.4946 -0.1238
  793MOL0     H 7051   1.513   3.105   2.423 -1.6039  0.9081 -0.7453
  793MOL0     H 7052   1.465   3.016   2.569 -0.1152 -0.2192  0.1435
  793MOL0     H 7053   1.329   3.414   2.641  0.0887  0.5810 -1.3278
  793MOL0     H 7054   0.907   3.055   2.100 -1.4296 -1.4568  0.0512
  793MOL0     H 7055   0.667   3.145   2.080 -1.9477  4.9741  1.4293
  794MOL0     O 7056   7.486   9.105   6.696  0.4287 -0.1472 -0.7813
  794MOL0     C 7057   7.564   9.149   6.616  0.7236  0.4156 -0.0355
  794MOL0     O 7058   7.531   9.186   6.480 -0.5310 -1.1391 -0.4609
  794MOL0     C 7059   7.401   9.178   6.447  0.8495 -0.2538 -0.4368
  794MOL0     C 7060   7.333   9.304   6.447 -0.2519  0.3866 -0.6110
  794MOL0     C 7061   7.203   9.316   6.402 -0.1032  0.5486  1.0214
  794MOL0     C 7062   7.128   9.198   6.363  0.7257  0.2832 -0.0970
  794MOL0     O 7063   6.999   9.217   6.317  0.0962 -0.3205  0.5239
  794MOL0     C 7064   6.909   9.112   6.288  0.6643 -0.1347  0.1174
  794MOL0     C 7065   6.774   9.180   6.256 -0.3261  0.7709  0.4956
  794MOL0     C 7066   6.669   9.078   6.208 -0.5544  0.4763  0.8260
  794MOL0     C 7067   6.611   8.991   6.320  0.3298 -0.4418 -0.3326
  794MOL0     C 7068   6.489   9.053   6.397 -0.2440  0.0017 -0.0995
  794MOL0     C 7069   6.355   9.057   6.324 -0.1750 -0.2564  0.7546
  794MOL0     C 7070   6.242   9.100   6.419 -0.6022 -0.0522  0.8918
  794MOL0     C 7071   6.170   8.983   6.491 -0.2422 -0.3430  0.2925
  794MOL0     N 7072   6.064   9.022   6.586  0.1026 -0.0272 -0.0993
  794MOL0     C 7073   5.949   9.095   6.555 -0.0254  0.2854  0.4407
  794MOL0     C 7074   5.903   9.118   6.674  0.1712  0.3690 -1.0136
  794MOL0     C 7075   5.784   9.207   6.707  0.1278  0.3769 -0.8578
  794MOL0     C 7076   5.646   9.143   6.723  0.7172  1.4414 -0.3645
  794MOL0     C 7077   5.532   9.242   6.738 -0.0273 -0.4173 -0.0879
  794MOL0     C 7078   5.394   9.177   6.745  0.6451  0.0510 -1.4670
  794MOL0     O 7079   5.381   9.117   6.871  0.4761  0.3171 -0.1429
  794MOL0     C 7080   5.264   9.044   6.887 -0.9039  0.0274  0.5442
  794MOL0     C 7081   5.137   9.083   6.841  0.7778  0.8353 -0.1382
  794MOL0     C 7082   5.028   8.998   6.882  0.5895  0.5863  0.1798
  794MOL0     C 7083   4.899   9.075   6.852 -0.3445  0.8940 -0.7203
  794MOL0     C 7084   5.042   8.873   6.949 -0.8399 -0.2456  0.0762
  794MOL0     C 7085   4.929   8.776   6.989 -0.1276  0.0532  0.5336
  794MOL0     O 7086   4.977   8.653   7.025  0.2868  0.0368 -0.2318
  794MOL0     C 7087   4.895   8.543   7.035  0.6494 -0.7639  0.0464
  794MOL0     C 7088   4.948   8.418   7.010  0.4448  0.0539 -0.8195
  794MOL0     C 7089   4.865   8.306   7.006  0.1963  0.2387  0.2421
  794MOL0     C 7090   4.723   8.316   7.022 -0.9848  0.1039 -0.6449
  794MOL0     O 7091   4.631   8.206   7.019  0.9690  0.3993  0.6298
  794MOL0     C 7092   4.667   8.082   6.972  0.2911  0.1537 -0.6022
  794MOL0     C 7093   4.556   7.989   7.023 -0.1822  0.4409 -0.0434
  794MOL0     C 7094   4.586   7.846   6.985  0.0255  1.1775  0.9964
  794MOL0     C 7095   4.461   7.761   7.003 -0.3406  0.0364  0.1405
  794MOL0     C 7096   4.476   7.620   6.939  0.4902  0.3360  0.8613
  794MOL0     C 7097   4.475   7.609   6.782 -0.5364  0.0518  0.1650
  794MOL0     C 7098   4.348   7.671   6.717 -0.4515 -0.7185  0.3314
  794MOL0     C 7099   4.350   7.662   6.563 -0.2860  0.6444  0.2762
  794MOL0    Cl 7100   4.211   7.746   6.494  0.2474 -0.1414  0.2778
  794MOL0     C 7101   4.674   8.443   7.053 -0.3623 -0.0418  0.4484
  794MOL0     C 7102   4.759   8.548   7.066  0.3913 -0.6621  0.1268
  794MOL0     O 7103   4.811   8.807   6.970  0.0031 -0.1879 -0.2555
  794MOL0     C 7104   5.170   8.845   6.996 -0.4320  0.0543  0.6959
  794MOL0     C 7105   5.280   8.930   6.967  0.2692 -0.1993  0.6182
  794MOL0     N 7106   5.977   9.069   6.773  0.9183  0.1484 -0.7922
  794MOL0     N 7107   6.080   9.004   6.722 -0.2905 -0.4444  0.9051
  794MOL0     C 7108   7.187   9.076   6.393 -0.0434  0.3102  0.1213
  794MOL0     C 7109   7.324   9.062   6.429 -0.5576  0.4181  0.1495
  794MOL0     C 7110   7.714   9.134   6.646  0.6629 -0.2390 -1.1657
  794MOL0     C 7111   7.804   9.110   6.536  0.1875  0.3074  0.1908
  794MOL0     C 7112   7.941   9.097   6.577 -0.1616  0.5590 -0.0649
  794MOL0     C 7113   7.986   9.110   6.706 -0.2658  0.3930  0.4535
  794MOL0     O 7114   8.116   9.066   6.719  0.8952 -0.3549 -0.9538
  794MOL0     C 7115   8.205   9.136   6.810  0.1265  0.4638 -0.5865
  794MOL0     C 7116   8.319   9.199   6.724 -0.0104 -0.7896  0.1875
  794MOL0     C 7117   8.426   9.106   6.670 -0.2300  0.2585  0.0549
  794MOL0     C 7118   8.472   8.998   6.771 -0.2445 -0.1216  0.0870
  794MOL0     C 7119   8.592   8.927   6.717  1.4566  0.2170 -0.2560
  794MOL0     C 7120   8.684   8.879   6.664  0.0697 -0.2847 -1.0548
  794MOL0     C 7121   7.901   9.135   6.813  1.2222  0.5139  0.0553
  794MOL0     C 7122   7.759   9.140   6.780 -0.9009  0.9423  0.3614
  794MOL0     H 7123   7.398   9.389   6.466  0.7378 -0.4452 -0.1863
  794MOL0     H 7124   7.163   9.416   6.405 -1.9016 -0.0710 -0.3351
  794MOL0     H 7125   6.951   9.049   6.209  0.7193 -0.5826  0.5025
  794MOL0     H 7126   6.903   9.055   6.381  0.1220  0.5369  0.5001
  794MOL0     H 7127   6.743   9.226   6.350 -1.1822  3.4115 -0.9635
  794MOL0     H 7128   6.795   9.261   6.184 -1.3051 -0.5451 -1.3652
  794MOL0     H 7129   6.582   9.115   6.151  0.3335  0.9563 -0.2671
  794MOL0     H 7130   6.719   9.016   6.133  2.3294  0.9615  2.2156
  794MOL0     H 7131   6.572   8.894   6.289 -1.4002  0.3909 -0.8765
  794MOL0     H 7132   6.685   8.973   6.398 -1.1128 -0.9530  0.9858
  794MOL0     H 7133   6.485   9.012   6.499  0.7240  0.6979  0.2277
  794MOL0     H 7134   6.517   9.157   6.413  1.6149 -0.3092 -1.0277
  794MOL0     H 7135   6.363   9.131   6.244  1.4255  0.9330  1.9582
  794MOL0     H 7136   6.337   8.956   6.286 -0.1376  0.3431 -0.9265
  794MOL0     H 7137   6.288   9.155   6.501 -4.2730  0.6096  2.6892
  794MOL0     H 7138   6.170   9.163   6.365 -0.1638 -0.2035  0.1060
  794MOL0     H 7139   6.248   8.930   6.546  1.3037  1.0144 -0.4972
  794MOL0     H 7140   6.120   8.931   6.408 -0.4230  1.1138 -0.5495
  794MOL0     H 7141   5.918   9.121   6.454 -0.1291  1.7551  0.8243
  794MOL0     H 7142   5.805   9.260   6.800 -1.9045 -1.9019  1.0617
  794MOL0     H 7143   5.777   9.280   6.626  2.4642 -0.0131 -1.4951
  794MOL0     H 7144   5.645   9.070   6.805 -5.5477 -0.0739 -1.2657
  794MOL0     H 7145   5.628   9.088   6.630 -0.5600  2.3127 -0.6502
  794MOL0     H 7146   5.534   9.307   6.650 -1.1510 -0.8538 -0.4525
  794MOL0     H 7147   5.541   9.306   6.826 -1.0750 -0.6220  0.1873
  794MOL0     H 7148   5.361   9.116   6.661 -2.0503  1.4015 -1.4735
  794MOL0     H 7149   5.319   9.256   6.754  0.3654 -0.3518  0.0200
  794MOL0     H 7150   5.127   9.177   6.788  2.9438  0.2295 -1.7859
  794MOL0     H 7151   4.823   9.063   6.929 -0.9367 -1.2355 -1.5514
  794MOL0     H 7152   4.925   9.181   6.848 -2.0968  1.3295 -1.2020
  794MOL0     H 7153   4.850   9.029   6.765  0.5093 -0.9310 -0.2863
  794MOL0     H 7154   5.056   8.405   7.005  0.2502 -2.8722  0.2373
  794MOL0     H 7155   4.899   8.203   7.001  2.4775  0.7095  3.2701
  794MOL0     H 7156   4.679   8.067   6.864  3.4657 -5.7896  0.1660
  794MOL0     H 7157   4.768   8.052   7.002 -0.4123 -1.2916  0.4366
  794MOL0     H 7158   4.548   7.994   7.132 -1.3454 -1.4604 -0.0094
  794MOL0     H 7159   4.463   8.023   6.977 -1.0439 -1.7785 -0.0511
  794MOL0     H 7160   4.673   7.813   7.041  0.5184 -1.9921 -1.3810
  794MOL0     H 7161   4.619   7.843   6.880 -1.2591 -1.4331  0.5932
  794MOL0     H 7162   4.443   7.762   7.111 -0.1771  1.3208  0.1697
  794MOL0     H 7163   4.369   7.798   6.957 -2.6468 -3.0751  1.8937
  794MOL0     H 7164   4.405   7.551   6.986 -1.0696 -0.0411 -1.8668
  794MOL0     H 7165   4.574   7.580   6.966  1.3903  0.0270 -2.4327
  794MOL0     H 7166   4.568   7.651   6.743  0.7603 -1.2573  1.6623
  794MOL0     H 7167   4.478   7.505   6.747  1.2406  0.4397 -0.9864
  794MOL0     H 7168   4.342   7.778   6.742 -0.2347 -0.0909 -1.9755
  794MOL0     H 7169   4.259   7.621   6.756 -1.6465  1.1634  0.2007
  794MOL0     H 7170   4.351   7.558   6.528 -0.7320  0.1463  1.6525
  794MOL0     H 7171   4.443   7.712   6.533 -0.1761  1.3546  1.7210
  794MOL0     H 7172   4.568   8.449   7.075 -0.5533 -3.0417  0.6988
  794MOL0     H 7173   4.718   8.643   7.099  1.4067  0.2364 -1.0999
  794MOL0     H 7174   5.200   8.755   7.049  1.0943 -1.4645 -2.4818
  794MOL0     H 7175   5.372   8.907   7.020  1.5351  2.0836 -0.4675
  794MOL0     H 7176   7.128   8.987   6.380  0.9245 -0.2893 -0.2665
  794MOL0     H 7177   7.372   8.966   6.441  3.0234  1.9277 -0.7580
  794MOL0     H 7178   7.766   9.083   6.439 -1.0562 -0.3556  0.8391
  794MOL0     H 7179   8.008   9.066   6.497 -1.1942 -0.0973 -0.7023
  794MOL0     H 7180   8.163   9.221   6.865  1.3564  1.4941 -1.1821
  794MOL0     H 7181   8.235   9.065   6.888 -1.9621 -0.2954 -0.4075
  794MOL0     H 7182   8.382   9.269   6.780  1.1139  0.9185 -2.9290
  794MOL0     H 7183   8.276   9.257   6.641  0.5317 -0.6841 -0.0243
  794MOL0     H 7184   8.512   9.168   6.645  0.9915 -0.5678  2.0156
  794MOL0     H 7185   8.382   9.052   6.585  2.7707 -0.1435 -1.3859
  794MOL0     H 7186   8.401   8.915   6.779  2.9682 -2.8946  2.4572
  794MOL0     H 7187   8.489   9.038   6.872  0.6863  2.3124 -0.9550
  794MOL0     H 7188   8.775   8.838   6.625  0.0645 -0.4095 -0.9334
  794MOL0     H 7189   7.938   9.145   6.914 -1.2984  2.5598  0.8976
  794MOL0     H 7190   7.688   9.144   6.862 -1.5444  0.0862 -0.1418
  795MOL0     O 7191   8.936   5.792   6.649 -0.4935 -0.4967  0.2608
  795MOL0     C 7192   8.982   5.681   6.667  0.5278 -0.1931  0.0133
  795MOL0     O 7193   8.912   5.560   6.647 -0.2208  0.4858  0.4264
  795MOL0     C 7194   8.791   5.558   6.571 -0.0850  0.4492 -0.5672
  795MOL0     C 7195   8.752   5.429   6.555  1.1016  0.2667  0.6206
  795MOL0     C 7196   8.626   5.403   6.492 -1.5034  0.9479  0.1872
  795MOL0     C 7197   8.546   5.509   6.450  0.3626  0.4851  0.0064
  795MOL0     O 7198   8.421   5.479   6.405  0.6492  0.2976  0.5465
  795MOL0     C 7199   8.330   5.585   6.383 -0.9181 -0.5751  0.4483
  795MOL0     C 7200   8.179   5.557   6.357 -0.0416 -0.2996  0.5250
  795MOL0     C 7201   8.167   5.465   6.228  0.9699 -0.0173  0.2223
  795MOL0     C 7202   8.018   5.436   6.194 -0.0618  0.2371 -0.2549
  795MOL0     C 7203   7.936   5.560   6.185  0.6339  0.7622 -0.2578
  795MOL0     C 7204   7.786   5.526   6.165  0.2291 -0.1883  0.0936
  795MOL0     C 7205   7.698   5.637   6.102  0.7073 -0.1066 -0.0866
  795MOL0     C 7206   7.563   5.576   6.057  0.5988 -0.3008  0.6278
  795MOL0     N 7207   7.481   5.692   6.008 -0.5091  0.5108  0.6954
  795MOL0     C 7208   7.439   5.785   6.088 -0.1780 -0.3802  0.4010
  795MOL0     C 7209   7.390   5.882   6.006  0.5178  0.1620 -0.3281
  795MOL0     C 7210   7.333   6.016   6.033  0.1051 -0.6515 -0.3053
  795MOL0     C 7211   7.184   6.021   6.069 -0.7849  0.0292  0.4290
  795MOL0     C 7212   7.149   5.937   6.184 -0.6170  0.0589  1.0272
  795MOL0     C 7213   6.999   5.937   6.220  0.3897 -0.4450 -0.3186
  795MOL0     O 7214   6.969   5.838   6.320 -0.2321  0.3763 -0.0961
  795MOL0     C 7215   6.833   5.815   6.335  0.3063 -0.3927 -0.6387
  795MOL0     C 7216   6.730   5.891   6.278 -0.8009  0.3315  0.1894
  795MOL0     C 7217   6.591   5.851   6.279  0.4780  0.6181 -0.8432
  795MOL0     C 7218   6.486   5.947   6.221  0.2867  1.3011  0.3712
  795MOL0     C 7219   6.559   5.729   6.351 -0.0039 -0.4983 -0.2233
  795MOL0     C 7220   6.426   5.658   6.342 -0.4789 -0.0483  0.4945
  795MOL0     O 7221   6.438   5.537   6.407  0.3479  0.0787  0.4791
  795MOL0     C 7222   6.321   5.467   6.428  0.1232  0.5132  0.3744
  795MOL0     C 7223   6.310   5.427   6.562  0.5774  0.3726  0.4778
  795MOL0     C 7224   6.212   5.333   6.592  0.2088 -0.2286 -0.2819
  795MOL0     C 7225   6.121   5.288   6.490 -0.3185  1.0335 -0.7141
  795MOL0     O 7226   6.029   5.200   6.535 -0.0970  0.0325 -0.1853
  795MOL0     C 7227   5.921   5.165   6.447  0.4430  0.1875  0.0573
  795MOL0     C 7228   5.860   5.030   6.503  0.4385 -0.1588 -0.2088
  795MOL0     C 7229   5.773   4.964   6.406  1.2366  0.1950  0.5586
  795MOL0     C 7230   5.847   4.856   6.334  1.0413  0.4050  0.5053
  795MOL0     C 7231   5.756   4.807   6.213 -0.1986  0.2093 -0.9886
  795MOL0     C 7232   5.762   4.912   6.098  0.0370 -0.6434  0.6476
  795MOL0     C 7233   5.856   4.867   5.983  0.2964 -0.5437  0.0711
  795MOL0     C 7234   6.001   4.853   6.019  0.3383 -0.0890 -0.1698
  795MOL0    Cl 7235   6.043   4.679   6.063  0.6225 -0.0164  0.1829
  795MOL0     C 7236   6.131   5.347   6.356  0.7412  0.5838  0.2002
  795MOL0     C 7237   6.228   5.431   6.323  0.7070 -0.1404 -0.7630
  795MOL0     O 7238   6.329   5.701   6.282  0.5133  0.0134  0.3967
  795MOL0     C 7239   6.667   5.662   6.407  0.0797 -0.4679 -1.2510
  795MOL0     C 7240   6.800   5.707   6.404  0.1189  0.6102 -0.5484
  795MOL0     N 7241   7.392   5.838   5.878 -0.5567 -0.1046  0.3033
  795MOL0     N 7242   7.458   5.731   5.872  0.2270 -0.1546  0.5584
  795MOL0     C 7243   8.604   5.637   6.453 -0.3411 -0.1526 -0.2006
  795MOL0     C 7244   8.722   5.665   6.513  0.0831 -0.9196  0.5356
  795MOL0     C 7245   9.118   5.678   6.724  0.2618 -0.4519  0.2760
  795MOL0     C 7246   9.184   5.800   6.757  0.3240 -0.4108  0.4662
  795MOL0     C 7247   9.309   5.810   6.804  0.1733 -0.4669 -0.3924
  795MOL0     C 7248   9.387   5.694   6.816  0.3533  0.5867 -0.2743
  795MOL0     O 7249   9.515   5.702   6.867 -0.1004  1.0062 -0.2404
  795MOL0     C 7250   9.609   5.677   6.763  0.1994  0.4286  0.7776
  795MOL0     C 7251   9.757   5.652   6.806  0.4613 -0.7853  0.0995
  795MOL0     C 7252   9.796   5.764   6.909  0.6361  0.4714 -0.0803
  795MOL0     C 7253   9.938   5.739   6.966  0.4481  0.4861  0.2065
  795MOL0     C 7254  10.004   5.868   6.982 -0.6143  0.5211  0.0796
  795MOL0     C 7255  10.080   5.959   6.973  0.8030 -1.1848  0.4017
  795MOL0     C 7256   9.323   5.571   6.794 -0.1944  0.4811 -0.3997
  795MOL0     C 7257   9.191   5.563   6.752 -0.2196 -0.0170  0.2728
  795MOL0     H 7258   8.810   5.345   6.592 -0.6750 -1.0742  0.4645
  795MOL0     H 7259   8.599   5.300   6.473 -1.1277  0.7303  0.7971
  795MOL0     H 7260   8.333   5.645   6.474 -1.8564 -1.2419  0.9290
  795MOL0     H 7261   8.364   5.653   6.304 -3.2802  1.1832  0.8496
  795MOL0     H 7262   8.137   5.523   6.453  3.2102  1.9992  2.9651
  795MOL0     H 7263   8.130   5.652   6.336 -0.6680 -0.9951 -1.3872
  795MOL0     H 7264   8.214   5.520   6.146  0.3838  1.6426  0.9653
  795MOL0     H 7265   8.218   5.371   6.251  0.4345 -0.6517 -1.0791
  795MOL0     H 7266   8.021   5.378   6.101 -0.9254 -1.6001  0.8195
  795MOL0     H 7267   7.974   5.369   6.268 -0.0757 -0.4528 -0.8753
  795MOL0     H 7268   7.944   5.612   6.281  0.9312 -1.4816  0.9938
  795MOL0     H 7269   7.974   5.617   6.100  0.3264  1.1136 -0.1653
  795MOL0     H 7270   7.786   5.442   6.095  2.9583  1.7140 -2.4608
  795MOL0     H 7271   7.748   5.510   6.266 -0.0680  1.4174  0.2548
  795MOL0     H 7272   7.685   5.716   6.177 -1.4970  0.8139 -1.3675
  795MOL0     H 7273   7.745   5.674   6.011  1.8551 -1.7305 -0.2104
  795MOL0     H 7274   7.516   5.527   6.143  3.0931 -3.0468  0.5711
  795MOL0     H 7275   7.578   5.496   5.985  1.4862  0.9164 -0.5822
  795MOL0     H 7276   7.453   5.802   6.194 -1.1357 -1.6469  0.7573
  795MOL0     H 7277   7.397   6.066   6.106  0.6437  0.0887 -1.2584
  795MOL0     H 7278   7.353   6.079   5.946  3.2487  0.8811  1.3706
  795MOL0     H 7279   7.126   5.983   5.984  1.1795 -0.9909 -0.5351
  795MOL0     H 7280   7.155   6.125   6.082  0.3191  0.7049 -1.8674
  795MOL0     H 7281   7.206   5.972   6.270  2.8581 -1.0012 -0.6684
  795MOL0     H 7282   7.175   5.834   6.157 -1.8943  0.1498 -0.7762
  795MOL0     H 7283   6.938   5.927   6.130  0.4005  2.8618 -0.8385
  795MOL0     H 7284   6.969   6.034   6.260  0.8357  0.1957 -1.4883
  795MOL0     H 7285   6.750   5.988   6.233 -0.4110  1.7285  3.0674
  795MOL0     H 7286   6.425   5.905   6.140 -0.2398  1.5476  0.6364
  795MOL0     H 7287   6.413   5.973   6.298 -1.6828 -1.8613 -0.2229
  795MOL0     H 7288   6.530   6.036   6.174  1.0383  0.3961 -0.7274
  795MOL0     H 7289   6.380   5.465   6.636 -1.1105  1.5240  1.5352
  795MOL0     H 7290   6.191   5.312   6.697  0.6669  1.3356  0.1462
  795MOL0     H 7291   5.839   5.238   6.448  1.0497  0.8800 -0.1508
  795MOL0     H 7292   5.951   5.144   6.344 -0.6750  1.1660 -0.5015
  795MOL0     H 7293   5.935   4.962   6.544 -0.7994 -0.1832  2.1703
  795MOL0     H 7294   5.792   5.055   6.585  0.5340  0.4968 -0.3207
  795MOL0     H 7295   5.730   5.037   6.337 -0.1376 -1.3434 -0.2820
  795MOL0     H 7296   5.686   4.925   6.460  0.1565  1.9793  0.2038
  795MOL0     H 7297   5.945   4.885   6.295  2.0913 -3.1033  0.2038
  795MOL0     H 7298   5.851   4.773   6.405  1.2867  0.1049  0.1427
  795MOL0     H 7299   5.653   4.798   6.249  0.2650  0.4470  0.4470
  795MOL0     H 7300   5.796   4.710   6.183  0.5820  0.3881 -0.5608
  795MOL0     H 7301   5.664   4.919   6.050  0.3219 -0.7353  0.0419
  795MOL0     H 7302   5.792   5.008   6.141 -0.3478 -0.1030 -0.2594
  795MOL0     H 7303   5.848   4.942   5.904  0.7900  1.6485  1.9948
  795MOL0     H 7304   5.807   4.775   5.948 -2.4095 -0.2405  2.6317
  795MOL0     H 7305   6.020   4.928   6.096  3.6520 -1.8913  0.9897
  795MOL0     H 7306   6.052   4.876   5.925 -0.1885 -0.4493 -0.5447
  795MOL0     H 7307   6.073   5.302   6.276  2.9918 -1.4965 -0.4058
  795MOL0     H 7308   6.227   5.474   6.224 -0.5098  0.9415 -0.3218
  795MOL0     H 7309   6.653   5.569   6.462  1.0147 -0.0788 -0.3226
  795MOL0     H 7310   6.881   5.651   6.450 -0.7311  1.0056  1.5153
  795MOL0     H 7311   8.550   5.720   6.409 -1.6302 -0.6441  0.4074
  795MOL0     H 7312   8.749   5.769   6.523 -2.0214  0.0518 -2.5206
  795MOL0     H 7313   9.130   5.893   6.751  0.2957 -0.2018  2.8333
  795MOL0     H 7314   9.360   5.903   6.828  1.0607 -0.6167 -1.6120
  795MOL0     H 7315   9.588   5.585   6.707 -0.5711  1.9713 -1.6286
  795MOL0     H 7316   9.601   5.759   6.691 -1.8714  0.3010  0.8059
  795MOL0     H 7317   9.812   5.659   6.712 -0.0850 -1.3562 -0.2661
  795MOL0     H 7318   9.776   5.554   6.852 -0.1739 -1.3103 -0.7227
  795MOL0     H 7319   9.723   5.748   6.989  1.5256 -2.6883  0.2342
  795MOL0     H 7320   9.782   5.862   6.862 -0.1107  0.5640  0.3235
  795MOL0     H 7321   9.999   5.668   6.909 -0.0838 -1.9685  2.4804
  795MOL0     H 7322   9.921   5.694   7.064 -0.4380 -0.3251 -0.2961
  795MOL0     H 7323  10.144   6.044   6.976 -0.1625 -0.4596  1.2470
  795MOL0     H 7324   9.384   5.483   6.807  2.0874  1.9475 -0.5141
  795MOL0     H 7325   9.154   5.465   6.723  0.9071 -0.8281  1.4807
  796MOL0     O 7326   7.540   4.263   8.522  0.4345 -0.1965  0.0659
  796MOL0     C 7327   7.538   4.314   8.411  0.1869  0.0072 -0.8729
  796MOL0     O 7328   7.433   4.317   8.320 -0.0438  0.2737 -0.2069
  796MOL0     C 7329   7.311   4.264   8.376 -0.6691 -0.0223 -0.1450
  796MOL0     C 7330   7.251   4.298   8.495  0.2073 -1.0995 -0.1316
  796MOL0     C 7331   7.125   4.248   8.527 -0.1888  0.5334 -0.5010
  796MOL0     C 7332   7.058   4.146   8.454  0.5745 -0.2975 -0.0096
  796MOL0     O 7333   6.930   4.096   8.471 -0.6485 -0.7318 -0.1395
  796MOL0     C 7334   6.852   4.166   8.563  0.8558  0.7225 -0.2645
  796MOL0     C 7335   6.715   4.102   8.582 -0.3644  0.0777  0.1425
  796MOL0     C 7336   6.660   4.048   8.447  0.4904 -0.0376 -0.3584
  796MOL0     C 7337   6.515   3.993   8.472 -0.7222 -0.1772 -0.8775
  796MOL0     C 7338   6.487   3.883   8.368  0.1391 -0.0063 -0.0946
  796MOL0     C 7339   6.364   3.807   8.392  0.1967  0.7934  0.0847
  796MOL0     C 7340   6.230   3.882   8.375 -0.7720 -0.3861  0.3226
  796MOL0     C 7341   6.112   3.802   8.409 -0.1875  0.2366  0.5193
  796MOL0     N 7342   6.095   3.684   8.325 -0.4478 -0.6134  0.0956
  796MOL0     C 7343   6.060   3.687   8.195  0.8734  0.0870  0.1878
  796MOL0     C 7344   6.067   3.553   8.163  0.6737  0.8464 -0.9552
  796MOL0     C 7345   6.042   3.483   8.032 -0.6935  0.4877 -0.0669
  796MOL0     C 7346   5.897   3.483   7.998 -0.0965 -0.7723  0.4474
  796MOL0     C 7347   5.833   3.365   8.058  0.2040  0.5091  0.2754
  796MOL0     C 7348   5.678   3.374   8.040  0.1695  0.4654 -0.3578
  796MOL0     O 7349   5.657   3.357   7.894  0.1586  0.4512 -0.0054
  796MOL0     C 7350   5.526   3.342   7.856 -0.6297  0.1571  0.2716
  796MOL0     C 7351   5.504   3.338   7.722  0.3963 -0.3409  0.1784
  796MOL0     C 7352   5.384   3.334   7.662  0.4062  0.1411  0.2225
  796MOL0     C 7353   5.389   3.325   7.513  0.2131  0.1880  0.3639
  796MOL0     C 7354   5.261   3.307   7.744 -0.7176 -0.5443 -0.1220
  796MOL0     C 7355   5.134   3.269   7.692  0.0853  1.2100 -0.4158
  796MOL0     O 7356   5.046   3.202   7.776 -0.0947  0.8207  0.2811
  796MOL0     C 7357   4.912   3.186   7.754 -1.2594  0.1716 -0.8902
  796MOL0     C 7358   4.842   3.282   7.674  0.3345  0.2069 -0.1348
  796MOL0     C 7359   4.707   3.252   7.649  0.3646 -0.1158  0.5390
  796MOL0     C 7360   4.653   3.122   7.671 -0.1341  0.3103 -0.6354
  796MOL0     O 7361   4.531   3.091   7.618  0.0607 -0.5098  0.1084
  796MOL0     C 7362   4.458   2.976   7.671 -0.4613 -0.0095  0.5639
  796MOL0     C 7363   4.319   2.973   7.611  0.2601  0.1249 -1.2369
  796MOL0     C 7364   4.252   2.832   7.613 -0.7266 -0.5924 -1.1924
  796MOL0     C 7365   4.215   2.796   7.750 -0.2981 -0.3578  0.0852
  796MOL0     C 7366   4.184   2.642   7.753  0.9515  0.4009  0.8566
  796MOL0     C 7367   4.167   2.595   7.895  0.5726 -0.1749 -0.3058
  796MOL0     C 7368   4.099   2.458   7.900 -0.2460 -0.1113  0.2006
  796MOL0     C 7369   4.131   2.387   8.036  0.2266 -0.4087  0.2750
  796MOL0    Cl 7370   4.011   2.262   8.087 -0.1153  0.7080 -0.0730
  796MOL0     C 7371   4.721   3.037   7.761 -0.5319 -0.9148  0.0152
  796MOL0     C 7372   4.849   3.072   7.797 -0.6397 -0.0469 -0.9252
  796MOL0     O 7373   5.115   3.290   7.570 -0.2587 -0.1431 -0.0651
  796MOL0     C 7374   5.283   3.309   7.885  0.2580  0.3728  0.0836
  796MOL0     C 7375   5.413   3.330   7.940  0.1363 -0.6943 -0.0964
  796MOL0     N 7376   6.088   3.474   8.282  0.3239 -0.0239 -0.2537
  796MOL0     N 7377   6.096   3.557   8.377  0.6202  0.7858  1.1361
  796MOL0     C 7378   7.118   4.112   8.334  0.3721 -0.4783 -0.2866
  796MOL0     C 7379   7.235   4.177   8.294 -0.3343 -0.1541  0.1490
  796MOL0     C 7380   7.654   4.401   8.369  0.9211  0.3289 -0.4442
  796MOL0     C 7381   7.774   4.398   8.450 -0.6859  0.5947 -0.0160
  796MOL0     C 7382   7.875   4.493   8.421  0.7102  0.1265 -0.0283
  796MOL0     C 7383   7.879   4.571   8.301 -0.4090 -0.4205 -0.4342
  796MOL0     O 7384   7.980   4.662   8.273 -0.0737 -0.0453 -0.0083
  796MOL0     C 7385   8.106   4.643   8.338 -0.0988 -0.3054  0.0783
  796MOL0     C 7386   8.211   4.718   8.260 -0.6159 -0.3687  0.5280
  796MOL0     C 7387   8.197   4.869   8.281 -0.1204 -0.5879  0.0956
  796MOL0     C 7388   8.322   4.947   8.231  0.4332  0.1496  0.7062
  796MOL0     C 7389   8.437   4.940   8.324  1.0736  0.3710 -0.7631
  796MOL0     C 7390   8.535   4.940   8.394  0.6414  0.0836 -0.5871
  796MOL0     C 7391   7.767   4.559   8.216  0.0134 -0.1562 -0.7125
  796MOL0     C 7392   7.655   4.474   8.249  0.1755 -0.2959 -0.3927
  796MOL0     H 7393   7.307   4.365   8.559 -0.6763  4.1957 -4.1829
  796MOL0     H 7394   7.106   4.282   8.629  1.8504  0.5245 -0.0937
  796MOL0     H 7395   6.905   4.164   8.659 -2.5595  0.6138  1.7894
  796MOL0     H 7396   6.828   4.269   8.536 -0.9809  0.9981  2.1063
  796MOL0     H 7397   6.713   4.016   8.650 -2.1137 -0.7829 -0.9215
  796MOL0     H 7398   6.645   4.173   8.627 -1.8318 -0.9338 -0.4620
  796MOL0     H 7399   6.660   4.119   8.363 -3.4081 -1.5328 -1.8563
  796MOL0     H 7400   6.730   3.968   8.421 -0.2803 -1.0499  0.6500
  796MOL0     H 7401   6.502   3.951   8.571  2.9699 -2.4685 -1.1779
  796MOL0     H 7402   6.440   4.072   8.460 -0.6277  0.7861  3.4550
  796MOL0     H 7403   6.461   3.924   8.270 -4.7338 -0.4740  0.7620
  796MOL0     H 7404   6.575   3.819   8.356 -0.8840 -1.0809 -2.7553
  796MOL0     H 7405   6.364   3.717   8.331  0.9681  1.0871 -0.3715
  796MOL0     H 7406   6.375   3.778   8.497  0.6188 -0.5419 -0.3059
  796MOL0     H 7407   6.226   3.977   8.428  1.0827  0.5355 -1.0733
  796MOL0     H 7408   6.225   3.912   8.270 -0.9826 -0.4100  0.3245
  796MOL0     H 7409   6.023   3.863   8.388  0.2737  0.4224 -1.0118
  796MOL0     H 7410   6.115   3.776   8.515 -0.2592  0.2037  0.5128
  796MOL0     H 7411   6.030   3.758   8.119 -1.7654 -2.0077 -0.8690
  796MOL0     H 7412   6.104   3.537   7.960  2.3719  0.8452  2.6367
  796MOL0     H 7413   6.077   3.380   8.026  0.5880  0.9785 -2.5805
  796MOL0     H 7414   5.899   3.474   7.889  1.8022  1.1052  0.2605
  796MOL0     H 7415   5.852   3.574   8.037  0.0686 -1.0847  1.4034
  796MOL0     H 7416   5.856   3.351   8.164 -1.8096 -2.5484  0.4388
  796MOL0     H 7417   5.866   3.272   8.011 -2.7403 -0.9130  0.8175
  796MOL0     H 7418   5.644   3.472   8.074 -0.6379 -0.0042  0.2266
  796MOL0     H 7419   5.627   3.296   8.099  3.0043 -1.2608  0.0083
  796MOL0     H 7420   5.592   3.355   7.662  1.2501  2.6141  2.0413
  796MOL0     H 7421   5.318   3.399   7.475  1.1097  0.5893 -0.6069
  796MOL0     H 7422   5.487   3.334   7.466  1.0360 -4.5150  0.6930
  796MOL0     H 7423   5.345   3.229   7.487 -1.0271  0.2657  2.0374
  796MOL0     H 7424   4.904   3.369   7.653  2.3553 -0.5094  2.3237
  796MOL0     H 7425   4.646   3.323   7.595 -1.6643 -0.3730  2.3615
  796MOL0     H 7426   4.513   2.885   7.645  1.7146  1.4461 -0.2413
  796MOL0     H 7427   4.456   2.988   7.780 -0.1913  0.7248  0.4939
  796MOL0     H 7428   4.269   3.045   7.677  2.1089  3.1106 -2.9108
  796MOL0     H 7429   4.325   3.000   7.506  0.1407 -0.5585 -1.4246
  796MOL0     H 7430   4.323   2.755   7.584 -1.9475 -2.8757  1.4075
  796MOL0     H 7431   4.162   2.828   7.550 -0.9452 -0.3673 -0.9030
  796MOL0     H 7432   4.297   2.818   7.819 -0.4044 -1.2940  0.5228
  796MOL0     H 7433   4.128   2.853   7.786 -1.3646 -2.1782  0.5093
  796MOL0     H 7434   4.259   2.574   7.712 -0.3557 -1.2186  1.0297
  796MOL0     H 7435   4.101   2.624   7.684  1.9657  1.4627 -0.6865
  796MOL0     H 7436   4.264   2.601   7.945 -0.2373  2.1086  1.1356
  796MOL0     H 7437   4.094   2.659   7.945 -1.0536 -1.6100 -0.7437
  796MOL0     H 7438   4.140   2.393   7.822  1.3942  0.4195  0.5667
  796MOL0     H 7439   3.990   2.458   7.893 -0.2688 -2.2871 -0.0547
  796MOL0     H 7440   4.136   2.457   8.119  3.1102  0.2094 -0.3092
  796MOL0     H 7441   4.228   2.337   8.027  0.3276 -0.5448  1.8549
  796MOL0     H 7442   4.677   2.942   7.790  0.7213 -0.8338  2.4926
  796MOL0     H 7443   4.908   2.991   7.838 -0.2749 -0.1531 -1.6444
  796MOL0     H 7444   5.200   3.293   7.953 -0.2837 -0.8438 -0.8368
  796MOL0     H 7445   5.406   3.321   8.048  1.1418 -0.4356  0.0028
  796MOL0     H 7446   7.065   4.033   8.282 -2.1415 -2.1663  4.2488
  796MOL0     H 7447   7.270   4.158   8.193 -0.9709  0.0078 -0.1065
  796MOL0     H 7448   7.775   4.328   8.533 -4.9477  0.4087  0.1040
  796MOL0     H 7449   7.949   4.509   8.499 -0.0147  1.3465  0.4498
  796MOL0     H 7450   8.110   4.678   8.442  0.3145  0.3518 -0.1523
  796MOL0     H 7451   8.126   4.535   8.338 -1.4127 -0.5729 -1.4096
  796MOL0     H 7452   8.201   4.693   8.154 -1.6371 -4.4775  1.4382
  796MOL0     H 7453   8.309   4.677   8.286 -1.8020 -3.0231  1.1737
  796MOL0     H 7454   8.173   4.884   8.387 -0.8148 -2.4368  0.2359
  796MOL0     H 7455   8.111   4.888   8.217  0.1673 -2.2369 -0.8407
  796MOL0     H 7456   8.305   5.054   8.223 -1.0520 -0.2096 -2.7373
  796MOL0     H 7457   8.353   4.909   8.133  2.1300  4.0984 -0.4797
  796MOL0     H 7458   8.625   4.946   8.452  1.8948 -2.2948 -2.1217
  796MOL0     H 7459   7.762   4.612   8.122  2.0756 -1.2830 -1.5320
  796MOL0     H 7460   7.571   4.461   8.182 -1.3366 -1.5272  1.6167
  797MOL0     O 7461   2.741  10.831  10.684 -0.9152  0.3121  0.2936
  797MOL0     C 7462   2.715  10.885  10.575  0.3773 -0.4272 -0.4645
  797MOL0     O 7463   2.588  10.921  10.536  0.4087  0.4462  0.3419
  797MOL0     C 7464   2.481  10.867  10.607  0.3199 -0.2053  0.2977
  797MOL0     C 7465   2.449  10.884  10.738  0.1834  0.7520 -0.8609
  797MOL0     C 7466   2.352  10.805  10.800  0.9162  0.2112 -0.7734
  797MOL0     C 7467   2.262  10.726  10.732  0.1293 -0.6027 -1.0330
  797MOL0     O 7468   2.166  10.665  10.802  1.1076 -0.4153 -0.0139
  797MOL0     C 7469   2.063  10.583  10.732  0.3197 -0.8987  0.0218
  797MOL0     C 7470   1.942  10.595  10.831 -0.9902  0.1920 -0.2342
  797MOL0     C 7471   1.806  10.565  10.764 -0.0537 -0.8063 -0.3214
  797MOL0     C 7472   1.771  10.414  10.773 -1.0629  0.0003 -0.2975
  797MOL0     C 7473   1.625  10.388  10.747  0.0161  0.6409  0.4497
  797MOL0     C 7474   1.610  10.276  10.660 -0.3858 -0.1551  0.4742
  797MOL0     C 7475   1.460  10.239  10.632 -0.1139  0.1138 -0.0610
  797MOL0     C 7476   1.395  10.334  10.529  0.6783  0.4350  0.9293
  797MOL0     N 7477   1.253  10.295  10.512 -1.2926  0.0933 -0.0320
  797MOL0     C 7478   1.156  10.387  10.519  0.2207  0.3105  1.0530
  797MOL0     C 7479   1.039  10.322  10.509  0.1991  0.4512 -0.0408
  797MOL0     C 7480   0.893  10.374  10.507  0.2670  0.0795  0.3718
  797MOL0     C 7481   0.795  10.269  10.465 -0.1248  0.6199 -0.1092
  797MOL0     C 7482   0.652  10.322  10.506 -0.7836 -0.4069  0.8641
  797MOL0     C 7483   0.536  10.240  10.447 -0.6280  0.2707 -0.1020
  797MOL0     O 7484   0.413  10.290  10.497 -0.5636 -0.5976  0.7532
  797MOL0     C 7485   0.295  10.260  10.445  0.3657 -0.4962  0.5039
  797MOL0     C 7486   0.175  10.315  10.500  0.0702  0.6429  0.2364
  797MOL0     C 7487   0.044  10.269  10.456 -1.3221  0.2721  0.9134
  797MOL0     C 7488  -0.069  10.348  10.518  0.5478  0.1089 -0.4093
  797MOL0     C 7489   0.028  10.185  10.339  0.6276  0.4162  0.3275
  797MOL0     C 7490  -0.096  10.144  10.279  0.0012  0.2073 -0.3459
  797MOL0     O 7491  -0.094  10.097  10.153  0.2274  0.0002  1.0081
  797MOL0     C 7492  -0.208  10.086  10.079  0.2052  0.4489 -0.1920
  797MOL0     C 7493  -0.284   9.963  10.086 -0.0533  1.1608 -0.7048
  797MOL0     C 7494  -0.400   9.962  10.020  0.6552 -0.7395 -0.5109
  797MOL0     C 7495  -0.444  10.073   9.941  0.2230  0.2195  0.5284
  797MOL0     O 7496  -0.548  10.060   9.856 -0.9117  0.3371  0.1278
  797MOL0     C 7497  -0.646   9.954   9.887 -0.1244  0.6546  0.5345
  797MOL0     C 7498  -0.788   9.993   9.837  0.3500  0.2066 -0.9449
  797MOL0     C 7499  -0.865  10.092   9.920  0.3123 -0.1655  0.3789
  797MOL0     C 7500  -1.021  10.090   9.900  0.1691 -0.4353 -0.1894
  797MOL0     C 7501  -1.065  10.220   9.975 -0.2555  0.2409 -0.0281
  797MOL0     C 7502  -1.218  10.241   9.965 -1.0320  0.3841 -0.0783
  797MOL0     C 7503  -1.244  10.372  10.050 -0.6933  0.0162  0.5511
  797MOL0     C 7504  -1.375  10.435  10.004  0.9965 -0.4815  0.6878
  797MOL0    Cl 7505  -1.516  10.318   9.993  0.2485  0.2644  0.0016
  797MOL0     C 7506  -0.361  10.183   9.920 -0.2376 -0.0846 -0.6220
  797MOL0     C 7507  -0.246  10.193   9.996  0.1637  0.2332 -0.8210
  797MOL0     O 7508  -0.194  10.152  10.348  0.1996 -0.5795 -0.0975
  797MOL0     C 7509   0.147  10.140  10.283  1.0248 -0.4370  0.5260
  797MOL0     C 7510   0.278  10.169  10.334 -0.2358  0.9555 -0.5934
  797MOL0     N 7511   1.069  10.191  10.512 -0.1954  1.2010  0.0392
  797MOL0     N 7512   1.197  10.178  10.504  0.2937  0.2040  0.7899
  797MOL0     C 7513   2.283  10.722  10.590 -0.2664 -0.5130 -0.2877
  797MOL0     C 7514   2.396  10.787  10.536 -0.2349  0.3402  0.4310
  797MOL0     C 7515   2.815  10.911  10.474  0.1956  0.0550 -0.7291
  797MOL0     C 7516   2.945  10.860  10.491  0.1180  0.5873 -0.1944
  797MOL0     C 7517   3.044  10.889  10.402  0.3181  0.0064 -1.2176
  797MOL0     C 7518   3.016  10.964  10.298 -0.0414  0.2035  0.7025
  797MOL0     O 7519   3.126  11.008  10.222  0.0851  0.0347  0.0145
  797MOL0     C 7520   3.163  10.913  10.124 -0.3218 -0.5030 -0.5068
  797MOL0     C 7521   3.291  10.838  10.171  0.4588 -0.0963 -0.1974
  797MOL0     C 7522   3.403  10.938  10.189 -0.6218 -0.4986 -0.1734
  797MOL0     C 7523   3.524  10.900  10.281 -0.6147  0.5985 -0.2428
  797MOL0     C 7524   3.482  10.923  10.414 -0.2249  1.2097  1.0023
  797MOL0     C 7525   3.441  10.935  10.526 -0.3589  0.2779  0.3413
  797MOL0     C 7526   2.883  11.021  10.268 -1.0212 -0.3311 -0.6143
  797MOL0     C 7527   2.783  10.993  10.362 -0.0888 -0.0420 -0.0936
  797MOL0     H 7528   2.511  10.951  10.797 -1.8833  0.8972  1.3057
  797MOL0     H 7529   2.341  10.810  10.908  0.4726 -2.1938 -0.6713
  797MOL0     H 7530   2.037  10.622  10.634  1.4945  0.4895  0.2294
  797MOL0     H 7531   2.091  10.477  10.725 -2.8180 -1.8545  0.4366
  797MOL0     H 7532   1.966  10.531  10.916 -0.3755 -0.9649 -1.2469
  797MOL0     H 7533   1.938  10.697  10.870 -0.3415  0.9184 -1.9650
  797MOL0     H 7534   1.733  10.617  10.826 -3.6361 -3.0346 -2.3155
  797MOL0     H 7535   1.805  10.606  10.662  2.1220  0.5585  0.1446
  797MOL0     H 7536   1.829  10.358  10.700 -1.4253 -1.6739  0.6357
  797MOL0     H 7537   1.805  10.380  10.871  3.2535  0.6582 -1.3784
  797MOL0     H 7538   1.579  10.366  10.844 -0.9168  0.7210  0.0308
  797MOL0     H 7539   1.574  10.478  10.710 -0.6616  1.1165  2.3623
  797MOL0     H 7540   1.661  10.280  10.564  0.3971 -0.7093  0.8553
  797MOL0     H 7541   1.661  10.199  10.719 -0.6154 -1.1352 -0.5614
  797MOL0     H 7542   1.446  10.137  10.594 -2.0920 -0.0915  1.0657
  797MOL0     H 7543   1.405  10.256  10.725 -2.6521 -0.5414 -1.3594
  797MOL0     H 7544   1.454  10.315  10.439  0.3086 -0.3889  0.8566
  797MOL0     H 7545   1.402  10.435  10.573 -0.5082  1.5011 -1.2009
  797MOL0     H 7546   1.170  10.495  10.521  0.1401  0.4368 -1.6081
  797MOL0     H 7547   0.883  10.396  10.614  2.1257  0.0841  0.5792
  797MOL0     H 7548   0.886  10.466  10.447  2.9373  0.0124 -0.1533
  797MOL0     H 7549   0.809  10.175  10.519  0.7675  1.7487  1.7241
  797MOL0     H 7550   0.804  10.258  10.357  2.0376 -0.6776  0.1479
  797MOL0     H 7551   0.645  10.426  10.472 -0.6502  0.4488  3.2744
  797MOL0     H 7552   0.641  10.326  10.615  1.3905 -4.0636  1.3565
  797MOL0     H 7553   0.545  10.131  10.453 -2.1570 -0.0968 -2.7917
  797MOL0     H 7554   0.543  10.258  10.340 -0.7988  2.6174  0.2260
  797MOL0     H 7555   0.189  10.376  10.588  0.4396  1.4977 -0.4019
  797MOL0     H 7556  -0.111  10.420  10.447 -2.8070 -1.8231 -0.5608
  797MOL0     H 7557  -0.147  10.282  10.556  2.3559 -0.5312  2.5790
  797MOL0     H 7558  -0.039  10.402  10.608 -1.8800 -0.1759  0.6431
  797MOL0     H 7559  -0.248   9.878  10.142  0.3068  2.5123  1.2420
  797MOL0     H 7560  -0.460   9.871  10.015 -2.1505  1.0160 -1.4834
  797MOL0     H 7561  -0.617   9.867   9.828 -0.9631 -0.7640  2.1078
  797MOL0     H 7562  -0.655   9.914   9.989 -0.2512 -1.9455 -0.4317
  797MOL0     H 7563  -0.777  10.027   9.733 -3.4522  0.1972 -1.5037
  797MOL0     H 7564  -0.848   9.902   9.837  0.4663  0.1284 -0.5861
  797MOL0     H 7565  -0.820  10.189   9.898 -1.0305  0.7637  1.5248
  797MOL0     H 7566  -0.854  10.061  10.024 -1.1690 -2.1480  0.0203
  797MOL0     H 7567  -1.043  10.101   9.794  3.0732 -3.0039 -1.2009
  797MOL0     H 7568  -1.062   9.999   9.945  2.4625 -0.3953  2.2867
  797MOL0     H 7569  -1.013  10.301   9.924 -1.6845  1.0559 -0.2326
  797MOL0     H 7570  -1.033  10.204  10.079  0.0258 -0.6523 -0.2391
  797MOL0     H 7571  -1.249  10.262   9.862  0.7863  3.6419 -0.1065
  797MOL0     H 7572  -1.271  10.151   9.997 -1.3521 -0.0086 -1.6204
  797MOL0     H 7573  -1.162  10.442  10.032 -0.8139  0.9911  3.2925
  797MOL0     H 7574  -1.255  10.341  10.154  0.1790  1.1643  1.0051
  797MOL0     H 7575  -1.366  10.485   9.907 -2.5488 -2.1790 -0.6833
  797MOL0     H 7576  -1.409  10.502  10.084  3.9165  0.3131  1.3805
  797MOL0     H 7577  -0.393  10.272   9.867  2.6531  1.9894  0.8376
  797MOL0     H 7578  -0.190  10.285   9.987 -1.7873  1.4795 -0.9021
  797MOL0     H 7579   0.134  10.098  10.184 -0.5074  3.6324 -1.2193
  797MOL0     H 7580   0.365  10.117  10.295  1.1172  2.3086  0.5083
  797MOL0     H 7581   2.234  10.652  10.523 -0.7969 -1.2278  0.8179
  797MOL0     H 7582   2.405  10.780  10.428 -1.4392  1.7417  0.2065
  797MOL0     H 7583   2.975  10.798  10.575 -0.6981  2.3707  1.5004
  797MOL0     H 7584   3.145  10.856  10.425 -1.1270 -2.9358  1.8110
  797MOL0     H 7585   3.080  10.845  10.103 -3.3462  2.4956  0.8237
  797MOL0     H 7586   3.197  10.969  10.036  0.6277  0.0542  0.1942
  797MOL0     H 7587   3.330  10.765  10.099  1.0708  0.1465 -0.1211
  797MOL0     H 7588   3.271  10.780  10.262  1.6424 -3.0639 -1.6883
  797MOL0     H 7589   3.371  11.029  10.241 -0.0258 -0.6824  0.5306
  797MOL0     H 7590   3.447  10.970  10.094  0.4211 -0.4442  0.3193
  797MOL0     H 7591   3.610  10.961  10.250 -0.3155 -0.2187 -1.0811
  797MOL0     H 7592   3.551  10.794  10.278  1.7542  1.1684 -0.8501
  797MOL0     H 7593   3.402  10.936  10.626 -0.2772  0.8231  0.3720
  797MOL0     H 7594   2.867  11.092  10.188  1.8257  0.9779 -0.1588
  797MOL0     H 7595   2.687  11.044  10.355  0.1300  0.6085  1.2906
  798MOL0     O 7596   7.919   9.647   0.033 -0.4103 -0.3482  0.1720
  798MOL0     C 7597   7.926   9.766   0.003  0.7580 -0.8330  0.8605
  798MOL0     O 7598   7.819   9.841  -0.026 -0.6428  0.2700 -0.0819
  798MOL0     C 7599   7.685   9.819   0.022 -0.2656  0.0761 -0.2089
  798MOL0     C 7600   7.651   9.731   0.124  0.3388 -0.5990  0.6922
  798MOL0     C 7601   7.517   9.704   0.158 -0.6705 -0.0515  0.4826
  798MOL0     C 7602   7.414   9.780   0.094 -0.2287  0.9229  0.2672
  798MOL0     O 7603   7.279   9.751   0.107  0.1454 -0.8331  0.1290
  798MOL0     C 7604   7.233   9.612   0.117 -0.2267 -0.4279 -0.1256
  798MOL0     C 7605   7.121   9.593   0.012  0.6877  0.0465  0.7083
  798MOL0     C 7606   7.004   9.699   0.034 -0.7062  0.6862 -0.4643
  798MOL0     C 7607   6.876   9.651  -0.026  0.5730  0.1254  0.1556
  798MOL0     C 7608   6.766   9.752   0.017 -0.0591  0.6139  0.1283
  798MOL0     C 7609   6.645   9.723  -0.066 -0.6021  0.9345 -0.9100
  798MOL0     C 7610   6.544   9.834  -0.044 -0.1835  0.1345  0.1129
  798MOL0     C 7611   6.431   9.820  -0.140 -0.1176 -0.3700 -1.0586
  798MOL0     N 7612   6.306   9.876  -0.090  0.7865 -0.3309 -0.1318
  798MOL0     C 7613   6.225   9.960  -0.160 -0.1919  0.6356  0.2142
  798MOL0     C 7614   6.103   9.955  -0.098 -0.6697  0.2465  0.0543
  798MOL0     C 7615   5.980  10.034  -0.123  0.0820  0.5521 -0.2317
  798MOL0     C 7616   5.902  10.005  -0.252  0.4480 -0.1209  0.5197
  798MOL0     C 7617   5.756  10.059  -0.250  0.6645 -0.0955 -0.9860
  798MOL0     C 7618   5.672  10.035  -0.384 -0.0969 -0.4304 -0.3901
  798MOL0     O 7619   5.540  10.073  -0.363  0.6833  0.0332 -0.3693
  798MOL0     C 7620   5.473  10.147  -0.458  0.6205 -0.5973 -0.0613
  798MOL0     C 7621   5.525  10.205  -0.572 -0.3682 -0.3511  0.1625
  798MOL0     C 7622   5.449  10.287  -0.657  0.3192  0.2142 -0.6317
  798MOL0     C 7623   5.518  10.347  -0.777 -0.5702  0.1812  0.9177
  798MOL0     C 7624   5.305  10.303  -0.627 -0.1819  0.2160 -0.6628
  798MOL0     C 7625   5.209  10.373  -0.718  0.5011 -0.1141  1.1129
  798MOL0     O 7626   5.084  10.415  -0.666 -0.9616 -0.5726 -0.0136
  798MOL0     C 7627   4.998  10.499  -0.731  0.5429 -0.6172  0.8013
  798MOL0     C 7628   5.022  10.577  -0.851  0.0740  1.0482  0.6314
  798MOL0     C 7629   4.914  10.645  -0.909  0.6352  0.0554 -0.5540
  798MOL0     C 7630   4.794  10.660  -0.842  0.2797  0.2590 -0.4323
  798MOL0     O 7631   4.704  10.739  -0.900  0.2994 -0.1892  0.2098
  798MOL0     C 7632   4.571  10.766  -0.856  0.5316  0.3962  0.1305
  798MOL0     C 7633   4.462  10.668  -0.899 -0.1580  0.0352 -0.1584
  798MOL0     C 7634   4.459  10.669  -1.051  0.6504 -0.0910  0.2824
  798MOL0     C 7635   4.356  10.565  -1.111 -0.5743 -0.2233 -0.5779
  798MOL0     C 7636   4.362  10.583  -1.259  0.1049  0.1501  0.4211
  798MOL0     C 7637   4.291  10.470  -1.329  0.4774  0.6919  0.7692
  798MOL0     C 7638   4.280  10.496  -1.480  0.2101 -0.2315 -0.6268
  798MOL0     C 7639   4.233  10.371  -1.561 -0.1508 -0.3961  0.5261
  798MOL0    Cl 7640   4.162  10.429  -1.717 -0.1147  0.0115 -0.1648
  798MOL0     C 7641   4.774  10.587  -0.725  0.4327  0.2665  0.3047
  798MOL0     C 7642   4.872  10.505  -0.669  0.0308  0.3305 -1.1009
  798MOL0     O 7643   5.242  10.389  -0.837 -0.5781  0.1271 -0.3349
  798MOL0     C 7644   5.257  10.237  -0.516 -0.4406  0.6543 -0.1001
  798MOL0     C 7645   5.347  10.166  -0.436 -0.8258  0.3379  0.0287
  798MOL0     N 7646   6.117   9.863   0.007  0.7277  0.6613 -0.6203
  798MOL0     N 7647   6.234   9.815   0.005 -0.0054  0.3923 -0.0431
  798MOL0     C 7648   7.449   9.869  -0.004 -0.1658  0.4328 -0.2303
  798MOL0     C 7649   7.582   9.891  -0.036  0.1488 -0.4353  0.6054
  798MOL0     C 7650   8.066   9.820  -0.011  0.0666 -0.0109  0.1539
  798MOL0     C 7651   8.181   9.770   0.043  0.4223  0.8145 -0.3802
  798MOL0     C 7652   8.303   9.841   0.046  0.4137 -0.2156  0.0444
  798MOL0     C 7653   8.312   9.961  -0.027  0.1152 -0.0761  0.6816
  798MOL0     O 7654   8.433  10.026  -0.016 -0.4561  0.1159  0.0441
  798MOL0     C 7655   8.466  10.123  -0.115 -0.4512  0.2242  0.3119
  798MOL0     C 7656   8.614  10.166  -0.099  0.0831 -0.4359 -0.6163
  798MOL0     C 7657   8.706  10.046  -0.082  0.0811  0.1377 -0.3881
  798MOL0     C 7658   8.852  10.068  -0.049  0.1110  0.3642 -0.6261
  798MOL0     C 7659   8.907  10.191  -0.106  0.7787  0.4365 -0.2022
  798MOL0     C 7660   8.961  10.287  -0.158 -0.8891  0.0026 -0.0927
  798MOL0     C 7661   8.203  10.009  -0.096  0.6367  0.1066 -0.4516
  798MOL0     C 7662   8.076   9.942  -0.087  0.2729 -0.1647 -0.4104
  798MOL0     H 7663   7.724   9.667   0.173 -0.0290 -1.4641  0.1332
  798MOL0     H 7664   7.504   9.629   0.234 -0.6457 -0.1136  0.4253
  798MOL0     H 7665   7.317   9.546   0.091  1.1261  0.8068  0.9356
  798MOL0     H 7666   7.202   9.576   0.216 -0.3517 -2.1503 -0.7512
  798MOL0     H 7667   7.173   9.599  -0.084 -0.5458 -4.5594 -0.5191
  798MOL0     H 7668   7.076   9.493   0.016  0.9233 -0.0636  0.6558
  798MOL0     H 7669   6.989   9.706   0.142  1.4328  0.4312 -0.0922
  798MOL0     H 7670   7.042   9.797   0.003  1.1075  0.7754  1.7936
  798MOL0     H 7671   6.893   9.651  -0.134 -0.6591  3.5345 -0.1762
  798MOL0     H 7672   6.842   9.556   0.016 -1.9542  1.4446  1.3638
  798MOL0     H 7673   6.724   9.734   0.116 -1.8478  1.7804 -0.3706
  798MOL0     H 7674   6.810   9.852   0.007  3.0950 -0.7634 -1.0054
  798MOL0     H 7675   6.660   9.708  -0.173 -0.7346 -1.7773 -0.5994
  798MOL0     H 7676   6.604   9.626  -0.036 -0.2989  0.4162 -2.1023
  798MOL0     H 7677   6.504   9.830   0.057 -1.5841  0.3853 -0.4145
  798MOL0     H 7678   6.584   9.933  -0.068 -0.4536 -0.0601 -1.2462
  798MOL0     H 7679   6.421   9.714  -0.167  0.7250 -0.3186 -1.6039
  798MOL0     H 7680   6.461   9.863  -0.236  0.6115 -0.7239 -0.9925
  798MOL0     H 7681   6.258  10.008  -0.252 -1.4624 -0.6589 -0.9624
  798MOL0     H 7682   5.918  10.016  -0.035  0.6626  0.4393  0.1544
  798MOL0     H 7683   6.004  10.140  -0.108  0.4453  0.0772  3.1422
  798MOL0     H 7684   5.895   9.896  -0.259  0.2378 -0.1977  1.7240
  798MOL0     H 7685   5.961  10.048  -0.334  2.2489 -2.3996  0.5176
  798MOL0     H 7686   5.752  10.163  -0.217  1.0114 -0.5637  0.5856
  798MOL0     H 7687   5.709  10.010  -0.164  1.8106  0.7743  0.1793
  798MOL0     H 7688   5.669   9.930  -0.415  0.7716 -0.2412 -1.1458
  798MOL0     H 7689   5.728  10.093  -0.457  0.7741  0.0575  0.6291
  798MOL0     H 7690   5.626  10.184  -0.605 -0.1791 -0.6370  0.9140
  798MOL0     H 7691   5.496  10.454  -0.787 -0.3414  0.2711  1.3471
  798MOL0     H 7692   5.626  10.346  -0.767 -0.0135  0.8758 -3.1025
  798MOL0     H 7693   5.491  10.285  -0.863 -2.6777 -0.0925  1.6931
  798MOL0     H 7694   5.109  10.573  -0.916  0.5095  1.7443  1.1520
  798MOL0     H 7695   4.932  10.704  -0.998 -1.4486 -1.0263 -1.7571
  798MOL0     H 7696   4.586  10.771  -0.748  0.1725 -2.6369  0.4009
  798MOL0     H 7697   4.546  10.867  -0.889  3.3413  1.6980  1.6285
  798MOL0     H 7698   4.476  10.567  -0.859 -1.3652 -0.7323 -1.5798
  798MOL0     H 7699   4.365  10.701  -0.860  1.0387  0.8139  2.4416
  798MOL0     H 7700   4.550  10.632  -1.099 -1.4787 -1.5907 -2.9953
  798MOL0     H 7701   4.430  10.767  -1.092  1.4941 -1.3380 -3.7650
  798MOL0     H 7702   4.399  10.468  -1.087  1.9497  0.5390 -1.7388
  798MOL0     H 7703   4.254  10.561  -1.070 -0.3281 -1.5051 -0.0464
  798MOL0     H 7704   4.461  10.587  -1.305  0.4631 -0.8719  1.0626
  798MOL0     H 7705   4.317  10.681  -1.279  0.6422  0.2261 -0.4674
  798MOL0     H 7706   4.337  10.374  -1.302 -4.1371 -1.1115  3.3213
  798MOL0     H 7707   4.192  10.459  -1.283 -0.4886 -0.2738 -1.4266
  798MOL0     H 7708   4.372  10.543  -1.516 -0.6209 -0.1035 -2.6980
  798MOL0     H 7709   4.192  10.558  -1.500 -0.5069 -1.9404 -3.2133
  798MOL0     H 7710   4.160  10.310  -1.509 -1.1539  0.3030 -0.0318
  798MOL0     H 7711   4.331  10.325  -1.577  1.0495  2.1674  0.0077
  798MOL0     H 7712   4.678  10.598  -0.675  0.7883  3.1722  0.5253
  798MOL0     H 7713   4.842  10.457  -0.576 -0.3415 -1.0116 -1.8936
  798MOL0     H 7714   5.156  10.253  -0.477 -0.6613  1.4778 -0.9886
  798MOL0     H 7715   5.305  10.109  -0.353 -0.0471 -1.1365 -0.5530
  798MOL0     H 7716   7.377   9.940  -0.043  2.0244  2.3613 -0.9802
  798MOL0     H 7717   7.620   9.966  -0.105 -1.7044  1.1710  1.2263
  798MOL0     H 7718   8.174   9.680   0.103  1.5897  0.6187 -0.5201
  798MOL0     H 7719   8.387   9.796   0.098 -0.5490 -2.2155 -0.0331
  798MOL0     H 7720   8.455  10.076  -0.213  2.5861  0.1737 -0.0964
  798MOL0     H 7721   8.405  10.214  -0.109  1.9588  1.9374  0.5911
  798MOL0     H 7722   8.616  10.233  -0.013  1.4780 -1.4206  0.1409
  798MOL0     H 7723   8.651  10.206  -0.194  0.8033 -1.1712 -0.6483
  798MOL0     H 7724   8.712   9.982  -0.171 -1.8114 -0.6054 -0.0195
  798MOL0     H 7725   8.663   9.973  -0.013 -0.8343  0.1114 -0.9746
  798MOL0     H 7726   8.921   9.987  -0.076  1.3374  1.3233 -0.5133
  798MOL0     H 7727   8.852  10.078   0.059 -0.4750 -1.4034 -0.4393
  798MOL0     H 7728   9.019  10.358  -0.214 -0.1305 -0.9472 -0.5418
  798MOL0     H 7729   8.209  10.091  -0.167  2.6936 -0.0549 -0.5166
  798MOL0     H 7730   7.987   9.979  -0.137  0.0954 -0.3392 -0.2250
  799MOL0     O 7731   1.623   6.122   3.723 -0.5091 -0.1095 -0.5480
  799MOL0     C 7732   1.649   6.070   3.833  1.1996 -0.3048 -0.9073
  799MOL0     O 7733   1.547   6.034   3.922  0.0274 -0.4072  0.2769
  799MOL0     C 7734   1.419   6.050   3.869 -0.1088  0.5558 -0.2309
  799MOL0     C 7735   1.352   5.945   3.802 -0.3650 -0.3608 -0.0711
  799MOL0     C 7736   1.225   5.961   3.763  0.6464  0.4466  0.4121
  799MOL0     C 7737   1.148   6.079   3.787 -0.2955  0.5464  0.4365
  799MOL0     O 7738   1.015   6.103   3.749 -0.2788 -0.9963  0.0436
  799MOL0     C 7739   0.972   6.033   3.633  0.4214 -0.0178 -0.0450
  799MOL0     C 7740   0.833   6.072   3.583 -0.6063  0.4806  0.0399
  799MOL0     C 7741   0.727   6.061   3.692  0.1322  0.0249 -0.9733
  799MOL0     C 7742   0.601   6.129   3.646  0.0034 -1.1182  0.4375
  799MOL0     C 7743   0.489   6.113   3.745  0.2898 -0.2992 -0.3174
  799MOL0     C 7744   0.388   6.220   3.714 -0.0797  0.6183 -1.1715
  799MOL0     C 7745   0.267   6.191   3.800 -0.0215 -0.1783  0.8630
  799MOL0     C 7746   0.153   6.276   3.748 -0.9291  0.3949  0.2700
  799MOL0     N 7747   0.027   6.232   3.812  0.2920  0.3797 -0.0768
  799MOL0     C 7748  -0.028   6.264   3.936  0.6592  0.1423 -0.3455
  799MOL0     C 7749  -0.147   6.197   3.945  0.4532  0.2261 -0.5474
  799MOL0     C 7750  -0.238   6.217   4.068  0.3516 -0.0070 -0.2436
  799MOL0     C 7751  -0.317   6.088   4.089  0.0222 -0.0732 -0.8262
  799MOL0     C 7752  -0.402   6.071   4.210  0.7969  0.0453 -0.7502
  799MOL0     C 7753  -0.505   6.179   4.233  0.2683  0.3810  0.0557
  799MOL0     O 7754  -0.619   6.139   4.313  0.6218 -0.2830 -0.1754
  799MOL0     C 7755  -0.728   6.224   4.327  0.4250  1.0339  0.5667
  799MOL0     C 7756  -0.735   6.348   4.267 -0.1857 -0.5416  0.5034
  799MOL0     C 7757  -0.841   6.446   4.289  0.3816 -1.0644  0.5799
  799MOL0     C 7758  -0.826   6.576   4.213 -0.3243  0.3934  0.9632
  799MOL0     C 7759  -0.950   6.395   4.362  0.1531  0.4028 -0.5134
  799MOL0     C 7760  -1.079   6.473   4.381 -0.4497 -0.3597  0.3861
  799MOL0     O 7761  -1.088   6.593   4.320 -0.4331  0.3707  0.0063
  799MOL0     C 7762  -1.204   6.666   4.332 -0.7192  0.4704  0.4256
  799MOL0     C 7763  -1.218   6.759   4.232  0.2054  0.2605 -0.4786
  799MOL0     C 7764  -1.334   6.853   4.223  0.1202 -0.2942  0.4270
  799MOL0     C 7765  -1.438   6.840   4.313  0.0462  0.6603 -0.3100
  799MOL0     O 7766  -1.549   6.921   4.290  0.3958 -0.0528  0.1573
  799MOL0     C 7767  -1.629   6.945   4.400  0.1181  0.6801  0.0597
  799MOL0     C 7768  -1.753   7.001   4.330 -0.4885  0.3932  0.0584
  799MOL0     C 7769  -1.733   7.148   4.283  0.6978 -0.3950 -0.6959
  799MOL0     C 7770  -1.874   7.219   4.254  0.0924 -0.2555 -0.1448
  799MOL0     C 7771  -1.872   7.371   4.218 -0.1619  0.1897  0.6542
  799MOL0     C 7772  -1.767   7.396   4.110  0.1111  0.4296  0.2046
  799MOL0     C 7773  -1.822   7.364   3.972 -0.5602 -0.8716 -0.4108
  799MOL0     C 7774  -1.743   7.432   3.849 -0.5163  0.4249  0.0999
  799MOL0    Cl 7775  -1.823   7.380   3.696 -0.1880 -0.2786  0.1452
  799MOL0     C 7776  -1.423   6.737   4.408  0.4695  0.6803 -0.7575
  799MOL0     C 7777  -1.308   6.654   4.419 -0.3886 -0.4480 -0.5659
  799MOL0     O 7778  -1.173   6.403   4.430  0.4186 -0.5243 -0.2460
  799MOL0     C 7779  -0.945   6.270   4.420  0.2544 -0.0238 -1.2682
  799MOL0     C 7780  -0.833   6.186   4.398  0.0343 -0.2916  0.2322
  799MOL0     N 7781  -0.148   6.116   3.839 -0.3136 -0.3565  0.1646
  799MOL0     N 7782  -0.053   6.137   3.758 -0.1689  0.3560  0.2309
  799MOL0     C 7783   1.216   6.187   3.841  0.3146  0.6984 -0.1444
  799MOL0     C 7784   1.342   6.170   3.889 -0.1290  0.2340  0.4313
  799MOL0     C 7785   1.785   6.054   3.880  0.1617  0.4284 -0.3045
  799MOL0     C 7786   1.889   6.139   3.840  0.0753  0.2262  1.2047
  799MOL0     C 7787   2.023   6.135   3.892 -0.3401 -0.2407  0.3170
  799MOL0     C 7788   2.055   6.042   3.986 -0.1982  0.2228 -0.3950
  799MOL0     O 7789   2.181   6.048   4.037 -0.0518 -0.1672  0.2574
  799MOL0     C 7790   2.228   5.945   4.118 -0.3251 -0.4837 -0.1510
  799MOL0     C 7791   2.370   5.981   4.164 -0.5130 -0.1118 -0.0758
  799MOL0     C 7792   2.383   6.101   4.263  0.0162  0.5295  0.4515
  799MOL0     C 7793   2.519   6.123   4.334 -0.0706 -0.3421  0.1857
  799MOL0     C 7794   2.637   6.076   4.256  0.2040 -0.3339 -1.1539
  799MOL0     C 7795   2.732   6.047   4.180  0.1727 -0.0275 -0.3205
  799MOL0     C 7796   1.953   5.949   4.027 -1.3749 -0.2634 -0.4657
  799MOL0     C 7797   1.821   5.957   3.977  0.3207 -0.0641  0.3942
  799MOL0     H 7798   1.421   5.865   3.776  1.8489  0.8446  1.6937
  799MOL0     H 7799   1.185   5.881   3.702 -1.6964  0.3295  1.9503
  799MOL0     H 7800   1.031   6.060   3.544 -2.1474 -0.1116 -1.8942
  799MOL0     H 7801   0.965   5.928   3.660 -3.0467  0.4345  1.2607
  799MOL0     H 7802   0.834   6.179   3.559 -1.3434  1.1104  2.5309
  799MOL0     H 7803   0.793   6.011   3.501 -1.0642  2.8223 -1.5986
  799MOL0     H 7804   0.709   5.965   3.739 -0.3455  0.4253 -0.3238
  799MOL0     H 7805   0.766   6.120   3.776  0.5212  0.7345 -1.6320
  799MOL0     H 7806   0.622   6.236   3.640 -0.6933 -0.7112  3.6937
  799MOL0     H 7807   0.569   6.093   3.547 -1.4285 -1.0627  0.8486
  799MOL0     H 7808   0.450   6.011   3.732 -0.6440  0.1198 -0.9458
  799MOL0     H 7809   0.528   6.131   3.845  1.2020 -1.1393 -0.5015
  799MOL0     H 7810   0.430   6.317   3.743  1.0288  1.0428 -3.8251
  799MOL0     H 7811   0.364   6.217   3.607 -1.9828  0.6838 -0.7739
  799MOL0     H 7812   0.235   6.087   3.791  0.3852 -0.2398 -0.0081
  799MOL0     H 7813   0.289   6.212   3.905 -0.6686 -0.7361  1.1209
  799MOL0     H 7814   0.148   6.251   3.641  0.8978 -0.9080  0.4368
  799MOL0     H 7815   0.164   6.384   3.758 -1.4954  0.7466 -2.1994
  799MOL0     H 7816   0.015   6.326   4.014  1.9997 -1.9746  0.7017
  799MOL0     H 7817  -0.183   6.246   4.158  0.1532 -0.8844  0.1710
  799MOL0     H 7818  -0.310   6.298   4.053  0.8025  0.8278  1.7712
  799MOL0     H 7819  -0.238   6.012   4.089  2.1288  1.9669 -2.2815
  799MOL0     H 7820  -0.387   6.082   4.005  0.1396  0.1179 -0.9391
  799MOL0     H 7821  -0.337   6.058   4.297 -1.6213  3.3207  1.8049
  799MOL0     H 7822  -0.455   5.975   4.200  1.1138 -0.3776  1.2032
  799MOL0     H 7823  -0.543   6.211   4.136  1.0787 -0.9906 -0.7401
  799MOL0     H 7824  -0.458   6.271   4.270  1.4057  0.9813 -2.6258
  799MOL0     H 7825  -0.652   6.382   4.206  0.8311 -1.3827  1.3819
  799MOL0     H 7826  -0.870   6.560   4.114 -1.7623 -1.8033  1.8726
  799MOL0     H 7827  -0.872   6.667   4.254 -0.9440 -0.5633  2.5025
  799MOL0     H 7828  -0.719   6.597   4.204 -0.5019  2.6242  2.9021
  799MOL0     H 7829  -1.138   6.765   4.158  0.2792  0.1915 -0.4044
  799MOL0     H 7830  -1.339   6.928   4.144 -1.0478  1.7920  2.3489
  799MOL0     H 7831  -1.658   6.854   4.453  1.8375 -1.2920 -2.2053
  799MOL0     H 7832  -1.579   7.015   4.468 -2.2681  0.9379  1.6712
  799MOL0     H 7833  -1.787   6.930   4.254 -0.9523 -1.3561  1.8366
  799MOL0     H 7834  -1.840   7.012   4.395  0.8711  0.2642  1.9512
  799MOL0     H 7835  -1.670   7.148   4.193 -0.4410 -1.3074 -1.5319
  799MOL0     H 7836  -1.684   7.210   4.358  1.4017 -2.1645  0.3525
  799MOL0     H 7837  -1.929   7.159   4.181 -1.0144 -0.4509  0.8235
  799MOL0     H 7838  -1.944   7.204   4.336  0.3173 -1.9987 -0.2270
  799MOL0     H 7839  -1.826   7.424   4.302  3.5933 -3.5585  1.2904
  799MOL0     H 7840  -1.969   7.406   4.183 -0.1355 -0.1263  0.2608
  799MOL0     H 7841  -1.739   7.501   4.118 -0.4076  0.6747 -1.0018
  799MOL0     H 7842  -1.671   7.344   4.120  0.4073  0.5521 -1.6885
  799MOL0     H 7843  -1.922   7.409   3.968 -0.3354 -0.2593  0.5512
  799MOL0     H 7844  -1.821   7.256   3.954  3.1389 -0.9958 -0.3355
  799MOL0     H 7845  -1.641   7.395   3.848 -0.6451  0.0721 -0.9776
  799MOL0     H 7846  -1.737   7.540   3.865 -1.2636  0.3778  0.7959
  799MOL0     H 7847  -1.493   6.712   4.487  0.0187 -1.1258 -1.6760
  799MOL0     H 7848  -1.305   6.585   4.502 -2.6223 -0.1250 -0.1446
  799MOL0     H 7849  -1.026   6.232   4.481  0.5592  0.6496 -0.4367
  799MOL0     H 7850  -0.838   6.084   4.434  0.0989 -0.6853 -0.8453
  799MOL0     H 7851   1.178   6.288   3.855  3.2038  1.9023 -0.3048
  799MOL0     H 7852   1.398   6.250   3.935  0.9584 -1.1859  1.7023
  799MOL0     H 7853   1.878   6.211   3.760 -0.7818  0.1089  1.2007
  799MOL0     H 7854   2.094   6.212   3.863 -1.0506  0.4515  0.3778
  799MOL0     H 7855   2.162   5.932   4.205 -1.3172 -0.4253 -0.8714
  799MOL0     H 7856   2.230   5.847   4.070  2.3338 -1.1655  1.2008
  799MOL0     H 7857   2.435   5.992   4.077 -0.2583  0.5587  0.1937
  799MOL0     H 7858   2.410   5.898   4.223 -0.3842 -0.9527 -1.3202
  799MOL0     H 7859   2.304   6.094   4.338 -2.1204  0.2536 -1.6906
  799MOL0     H 7860   2.356   6.194   4.212 -2.0060  1.3845  2.9063
  799MOL0     H 7861   2.501   6.064   4.424 -3.4965  0.9937  0.5289
  799MOL0     H 7862   2.540   6.227   4.361  1.4773 -0.3522 -0.8530
  799MOL0     H 7863   2.808   6.001   4.120 -0.6959 -3.0836  0.7239
  799MOL0     H 7864   1.973   5.879   4.107  0.9850  1.7748  0.8792
  799MOL0     H 7865   1.749   5.890   4.023 -1.7917  1.3143 -0.7856
  800MOL0     O 7866   0.177   4.472   6.713  0.2762 -0.2490 -0.2598
  800MOL0     C 7867   0.207   4.387   6.631  0.0169 -0.4843 -0.7696
  800MOL0     O 7868   0.116   4.307   6.566  0.0742  0.4246 -0.5767
  800MOL0     C 7869  -0.017   4.326   6.586 -0.6682 -0.4964  0.2229
  800MOL0     C 7870  -0.096   4.243   6.658  0.1589 -0.6146 -0.3310
  800MOL0     C 7871  -0.229   4.269   6.676  0.6877 -0.6952 -0.0672
  800MOL0     C 7872  -0.290   4.378   6.625 -0.1409 -0.3054  0.5639
  800MOL0     O 7873  -0.423   4.387   6.635  0.1045  0.0210 -0.3636
  800MOL0     C 7874  -0.493   4.494   6.559  0.3707 -0.4213  0.3683
  800MOL0     C 7875  -0.639   4.483   6.608 -0.6256 -0.3992  0.0007
  800MOL0     C 7876  -0.738   4.508   6.493 -0.6760  0.1506  0.2257
  800MOL0     C 7877  -0.880   4.513   6.553 -0.4098 -0.9183 -0.2540
  800MOL0     C 7878  -0.994   4.542   6.452 -0.6667  0.2437  0.3935
  800MOL0     C 7879  -1.007   4.445   6.330 -0.3173 -0.1232  0.4229
  800MOL0     C 7880  -1.126   4.505   6.248 -0.5400 -0.2698  0.0812
  800MOL0     C 7881  -1.085   4.614   6.145  0.3756  0.2880 -0.9767
  800MOL0     N 7882  -1.196   4.643   6.055 -0.0453  0.2858 -0.0386
  800MOL0     C 7883  -1.242   4.563   5.949 -1.0511  0.1446 -0.8700
  800MOL0     C 7884  -1.366   4.605   5.911 -0.7003 -0.8339 -0.3438
  800MOL0     C 7885  -1.435   4.542   5.796 -0.2329  0.1277 -0.0930
  800MOL0     C 7886  -1.582   4.556   5.796 -0.4491  0.1210 -0.8452
  800MOL0     C 7887  -1.651   4.473   5.685  1.4825  0.1417  0.5936
  800MOL0     C 7888  -1.804   4.463   5.722  0.2836 -0.2236 -0.0699
  800MOL0     O 7889  -1.858   4.592   5.763  0.5542 -0.3027 -0.0768
  800MOL0     C 7890  -1.995   4.606   5.765  0.1980  0.0423 -0.7655
  800MOL0     C 7891  -2.085   4.502   5.761  0.0624  0.8034 -0.5870
  800MOL0     C 7892  -2.227   4.513   5.756 -0.2996 -0.3527 -0.3711
  800MOL0     C 7893  -2.298   4.382   5.762  0.2491  0.3427 -0.4226
  800MOL0     C 7894  -2.283   4.643   5.757 -0.3554  0.5711 -0.4699
  800MOL0     C 7895  -2.429   4.664   5.779  0.4967 -0.2525  0.3081
  800MOL0     O 7896  -2.464   4.790   5.807 -1.2439 -0.0675  0.3004
  800MOL0     C 7897  -2.597   4.818   5.827 -0.1248  0.8403  0.4380
  800MOL0     C 7898  -2.678   4.818   5.708  0.6353 -0.7410  0.0985
  800MOL0     C 7899  -2.815   4.846   5.715 -0.3324 -0.3932 -0.8303
  800MOL0     C 7900  -2.880   4.861   5.840 -0.4261 -0.1073  0.0184
  800MOL0     O 7901  -3.014   4.886   5.850  0.0459  0.0422 -0.2345
  800MOL0     C 7902  -3.047   5.030   5.875 -0.0544  1.2116 -0.0406
  800MOL0     C 7903  -3.074   5.082   6.019 -0.1568  0.9816 -0.3989
  800MOL0     C 7904  -3.179   4.990   6.094  0.0410  0.8088  0.6884
  800MOL0     C 7905  -3.200   5.033   6.230  0.5076  0.9612 -0.3115
  800MOL0     C 7906  -3.265   4.914   6.302 -0.4483  0.0640 -0.4206
  800MOL0     C 7907  -3.279   4.933   6.458  0.2946  0.5031 -0.1678
  800MOL0     C 7908  -3.166   5.011   6.525  0.1273  0.3627 -0.0989
  800MOL0     C 7909  -3.041   4.919   6.532 -0.0884  0.7321  0.0751
  800MOL0    Cl 7910  -3.034   4.803   6.665 -0.0767  0.3319 -0.2889
  800MOL0     C 7911  -2.800   4.854   5.954 -0.4497  0.3845 -0.8343
  800MOL0     C 7912  -2.663   4.838   5.943 -0.9383 -0.6198 -0.1667
  800MOL0     O 7913  -2.509   4.569   5.783  0.3045 -0.5892  0.1228
  800MOL0     C 7914  -2.192   4.749   5.746  0.4545 -0.2782 -0.2058
  800MOL0     C 7915  -2.051   4.731   5.757  0.6920 -0.0829  1.0373
  800MOL0     N 7916  -1.386   4.723   5.978 -0.8441  0.2630 -0.0837
  800MOL0     N 7917  -1.285   4.742   6.075  0.7612 -0.7079 -0.3341
  800MOL0     C 7918  -0.208   4.479   6.559 -1.2931  0.0167 -0.1360
  800MOL0     C 7919  -0.076   4.445   6.531  0.2046 -0.5197 -0.3038
  800MOL0     C 7920   0.355   4.370   6.599 -0.7157  0.9884 -0.9841
  800MOL0     C 7921   0.399   4.255   6.532 -0.4442 -0.2629  0.4437
  800MOL0     C 7922   0.526   4.240   6.479 -0.0602 -0.1161 -0.3734
  800MOL0     C 7923   0.616   4.345   6.502 -1.8864  0.5438  0.3497
  800MOL0     O 7924   0.746   4.323   6.459  0.1278  0.1243 -0.4572
  800MOL0     C 7925   0.851   4.423   6.470  0.1020  1.2963 -0.8268
  800MOL0     C 7926   0.974   4.361   6.397  0.6115  0.0449 -0.1268
  800MOL0     C 7927   1.101   4.455   6.393 -0.2757 -0.8914  0.3219
  800MOL0     C 7928   1.176   4.434   6.524  0.6552  0.7671 -0.4073
  800MOL0     C 7929   1.312   4.490   6.514  0.7647  0.1938 -0.2087
  800MOL0     C 7930   1.425   4.519   6.491 -0.5748  0.4728  0.2897
  800MOL0     C 7931   0.574   4.463   6.561  0.0727  0.1898  0.2505
  800MOL0     C 7932   0.444   4.477   6.613  0.5689  0.4433 -1.0938
  800MOL0     H 7933  -0.046   4.159   6.704  0.0743 -0.8112 -0.5986
  800MOL0     H 7934  -0.282   4.212   6.752  1.4140  0.0765  1.0484
  800MOL0     H 7935  -0.461   4.595   6.585  0.1707 -0.6174  1.4106
  800MOL0     H 7936  -0.490   4.467   6.453  0.4198 -2.6931  0.9010
  800MOL0     H 7937  -0.658   4.389   6.659  1.2988 -0.5464  0.5003
  800MOL0     H 7938  -0.640   4.562   6.684  3.3613  0.6719 -0.8102
  800MOL0     H 7939  -0.714   4.600   6.440  1.7449 -0.2360  0.5138
  800MOL0     H 7940  -0.730   4.427   6.419 -1.3649  2.0401 -2.0159
  800MOL0     H 7941  -0.899   4.415   6.599  0.1307 -0.4035  1.1151
  800MOL0     H 7942  -0.877   4.596   6.624 -0.4631 -0.8169 -0.3698
  800MOL0     H 7943  -1.083   4.544   6.516  0.4743  0.1923  2.0396
  800MOL0     H 7944  -0.993   4.642   6.408 -2.5309  0.7136  1.2933
  800MOL0     H 7945  -0.916   4.446   6.270 -1.4069  1.2022 -1.2975
  800MOL0     H 7946  -1.022   4.338   6.349  2.3385 -0.6419  0.0527
  800MOL0     H 7947  -1.163   4.426   6.182  2.2737 -0.8915 -0.8578
  800MOL0     H 7948  -1.201   4.541   6.320 -1.1066  0.6078 -0.9020
  800MOL0     H 7949  -1.003   4.569   6.089  0.7836 -1.9389  1.1851
  800MOL0     H 7950  -1.052   4.695   6.211 -0.8707 -0.9894  1.3539
  800MOL0     H 7951  -1.184   4.480   5.910  1.4169  1.1124  0.4924
  800MOL0     H 7952  -1.398   4.575   5.698  2.2323  0.3846  0.8444
  800MOL0     H 7953  -1.394   4.441   5.798  1.2125  0.5002 -3.5728
  800MOL0     H 7954  -1.615   4.660   5.804 -0.0271  0.1512  0.9441
  800MOL0     H 7955  -1.625   4.521   5.891  0.8680  2.4385  0.7229
  800MOL0     H 7956  -1.607   4.373   5.681  2.6247  0.6589 -0.9384
  800MOL0     H 7957  -1.640   4.515   5.584 -3.9492 -1.6585 -1.1570
  800MOL0     H 7958  -1.833   4.391   5.799 -2.0746  0.9953  0.2684
  800MOL0     H 7959  -1.855   4.425   5.633 -2.0922  0.2050  1.0543
  800MOL0     H 7960  -2.047   4.401   5.758 -0.7844  0.4838 -1.3256
  800MOL0     H 7961  -2.356   4.370   5.670  0.9761  0.6193 -0.9327
  800MOL0     H 7962  -2.225   4.300   5.761 -0.0372  0.0716 -1.7231
  800MOL0     H 7963  -2.360   4.363   5.850  0.5352 -1.3568 -0.5445
  800MOL0     H 7964  -2.631   4.799   5.612  0.1485  2.0692 -0.7875
  800MOL0     H 7965  -2.883   4.850   5.631 -1.8029  4.1725  0.2823
  800MOL0     H 7966  -2.973   5.083   5.815  2.8564 -0.5512  1.7579
  800MOL0     H 7967  -3.150   5.043   5.841  0.4097  0.7839 -1.7095
  800MOL0     H 7968  -2.975   5.089   6.067  0.0288  2.6178 -0.9394
  800MOL0     H 7969  -3.107   5.186   6.015  0.6823  1.2264 -3.9945
  800MOL0     H 7970  -3.148   4.885   6.083  1.8681  1.4844 -1.5499
  800MOL0     H 7971  -3.267   4.995   6.029 -0.3283  2.4028  1.2783
  800MOL0     H 7972  -3.100   5.051   6.269  0.5197 -1.5264  1.0276
  800MOL0     H 7973  -3.259   5.121   6.256 -1.1977 -0.6670  1.7258
  800MOL0     H 7974  -3.207   4.822   6.294 -0.8214 -0.3535  1.2857
  800MOL0     H 7975  -3.366   4.899   6.261  0.3755 -1.1336 -2.1149
  800MOL0     H 7976  -3.368   4.994   6.481  0.2286 -0.0817  1.2274
  800MOL0     H 7977  -3.297   4.831   6.491 -1.0265  0.4701 -0.9195
  800MOL0     H 7978  -3.197   5.025   6.629  0.3763 -1.6207  0.2719
  800MOL0     H 7979  -3.159   5.109   6.477  1.8403  0.2591 -0.1238
  800MOL0     H 7980  -2.948   4.977   6.529  0.7319 -0.4383  1.4623
  800MOL0     H 7981  -3.040   4.863   6.439 -1.9489 -0.1659  0.5377
  800MOL0     H 7982  -2.846   4.855   6.052  0.8148 -1.7426 -0.1599
  800MOL0     H 7983  -2.624   4.821   6.043  0.6357 -1.9077 -0.9602
  800MOL0     H 7984  -2.228   4.851   5.751  0.0145 -0.4114 -0.7105
  800MOL0     H 7985  -1.992   4.822   5.760  0.6675 -0.0419  0.4111
  800MOL0     H 7986  -0.244   4.574   6.522 -1.6840  0.2993  0.9430
  800MOL0     H 7987  -0.016   4.516   6.475  2.7032 -2.6313 -0.5288
  800MOL0     H 7988   0.331   4.177   6.499 -0.1404 -0.9023  1.2763
  800MOL0     H 7989   0.557   4.152   6.423  1.0403  0.9097 -1.4187
  800MOL0     H 7990   0.828   4.524   6.435 -2.4470  1.0653 -0.0264
  800MOL0     H 7991   0.887   4.421   6.573 -1.0846 -2.1532 -0.3560
  800MOL0     H 7992   0.941   4.336   6.296  2.2280 -1.9202 -0.2445
  800MOL0     H 7993   0.999   4.268   6.449  0.1668 -0.0842 -0.1428
  800MOL0     H 7994   1.081   4.560   6.369  0.5617 -0.4617  1.4321
  800MOL0     H 7995   1.163   4.418   6.311  0.3699  1.4368 -0.2884
  800MOL0     H 7996   1.192   4.327   6.537  1.0078  0.1612 -4.4955
  800MOL0     H 7997   1.126   4.478   6.611  2.4456  0.0556  1.0444
  800MOL0     H 7998   1.531   4.533   6.477  0.2603 -3.8343  1.0127
  800MOL0     H 7999   0.650   4.535   6.587  1.7579 -1.8286  1.2299
  800MOL0     H 8000   0.398   4.561   6.663 -3.8395 -2.3232  0.0767
  801MOL0     O 8001   9.572   7.439   3.015  0.1241 -0.6177 -0.0050
  801MOL0     C 8002   9.665   7.382   3.073 -0.0211  0.3774 -0.4540
  801MOL0     O 8003   9.648   7.286   3.163  0.7416  0.2022 -0.1425
  801MOL0     C 8004   9.520   7.255   3.203  0.4744 -0.2739 -0.2630
  801MOL0     C 8005   9.421   7.199   3.115  0.7614  0.4239  0.5794
  801MOL0     C 8006   9.292   7.168   3.163 -0.2193  0.4621  1.1174
  801MOL0     C 8007   9.261   7.180   3.293 -0.1574 -0.1204 -0.3734
  801MOL0     O 8008   9.144   7.125   3.347 -0.3284  0.2438  0.1875
  801MOL0     C 8009   9.092   7.006   3.287  0.4208 -0.2298  0.1385
  801MOL0     C 8010   8.950   7.033   3.233  0.8195 -0.1445  0.6800
  801MOL0     C 8011   8.846   7.082   3.339 -0.0520  0.8211 -0.2618
  801MOL0     C 8012   8.701   7.051   3.305  0.0557  0.1183 -0.0941
  801MOL0     C 8013   8.604   7.079   3.422 -0.7120  0.4766 -0.2270
  801MOL0     C 8014   8.465   7.074   3.367  0.4335  0.7111  0.1064
  801MOL0     C 8015   8.359   7.104   3.478 -0.2578  0.2296 -0.7952
  801MOL0     C 8016   8.216   7.074   3.436 -0.3149  0.2619  0.3068
  801MOL0     N 8017   8.122   7.077   3.548  0.4516 -0.2253  0.0990
  801MOL0     C 8018   8.138   7.156   3.657  0.1397 -0.2861 -0.8980
  801MOL0     C 8019   8.011   7.180   3.700 -0.0442 -0.3850  0.8935
  801MOL0     C 8020   7.980   7.264   3.816  0.2155  0.3820  0.3450
  801MOL0     C 8021   7.834   7.305   3.834  0.1653 -0.9178 -0.0934
  801MOL0     C 8022   7.742   7.199   3.882 -0.6381 -0.8213 -0.1696
  801MOL0     C 8023   7.596   7.241   3.893 -0.9389 -0.8722 -0.1084
  801MOL0     O 8024   7.590   7.353   3.987  0.0020  0.2519 -0.0757
  801MOL0     C 8025   7.468   7.386   4.038 -0.2356 -0.2867  0.2614
  801MOL0     C 8026   7.440   7.370   4.169  0.0138  0.3769  0.0450
  801MOL0     C 8027   7.318   7.406   4.229 -0.9596  0.0118 -0.8256
  801MOL0     C 8028   7.323   7.394   4.385 -0.0086 -0.2484  0.3523
  801MOL0     C 8029   7.210   7.471   4.154  0.8507  0.2978 -0.3997
  801MOL0     C 8030   7.085   7.518   4.217  0.4198  0.6106  0.3453
  801MOL0     O 8031   7.095   7.566   4.342  0.4123  0.5883  0.4343
  801MOL0     C 8032   6.995   7.621   4.418  0.0267  0.1111 -0.1700
  801MOL0     C 8033   7.008   7.625   4.562 -0.5251 -0.8445  0.6723
  801MOL0     C 8034   6.908   7.671   4.648  0.1979 -0.2334  0.3751
  801MOL0     C 8035   6.792   7.734   4.598 -0.0501  1.0156 -0.5089
  801MOL0     O 8036   6.689   7.784   4.676 -0.6064 -0.0034 -0.3726
  801MOL0     C 8037   6.654   7.694   4.783 -0.0267  0.4972 -0.6146
  801MOL0     C 8038   6.601   7.553   4.732 -0.2039 -0.2401 -0.7730
  801MOL0     C 8039   6.473   7.562   4.650 -0.8116  0.4548 -0.3357
  801MOL0     C 8040   6.363   7.657   4.702  0.8182 -0.5758 -0.1640
  801MOL0     C 8041   6.296   7.610   4.829  0.0367  0.7878 -0.5414
  801MOL0     C 8042   6.183   7.693   4.885  0.2444 -0.3052 -0.4219
  801MOL0     C 8043   6.164   7.688   5.038  0.6301 -0.8070 -1.0637
  801MOL0     C 8044   6.077   7.564   5.093 -0.1833 -0.0698  0.2634
  801MOL0    Cl 8045   6.089   7.572   5.271  0.0555 -0.6315 -0.5519
  801MOL0     C 8046   6.774   7.733   4.455 -0.1713 -0.6197 -1.0106
  801MOL0     C 8047   6.875   7.680   4.371 -0.7768  0.6897  0.2031
  801MOL0     O 8048   6.981   7.508   4.145 -0.3066  0.4077  0.1469
  801MOL0     C 8049   7.231   7.465   4.017 -0.3683 -0.3629  0.0843
  801MOL0     C 8050   7.352   7.427   3.961 -0.8239  1.0616  0.4478
  801MOL0     N 8051   7.920   7.126   3.611 -0.4719  0.3167  0.1313
  801MOL0     N 8052   7.986   7.063   3.522  0.8980 -0.2864  0.3031
  801MOL0     C 8053   9.361   7.220   3.386 -1.3921 -0.2531  0.4790
  801MOL0     C 8054   9.488   7.253   3.340 -0.0199 -0.5596  0.4014
  801MOL0     C 8055   9.803   7.430   3.049 -0.7275 -0.4200 -0.1179
  801MOL0     C 8056   9.919   7.380   3.122  0.8195  0.0263 -0.1351
  801MOL0     C 8057  10.050   7.420   3.105  0.2076  1.2158 -0.1596
  801MOL0     C 8058  10.073   7.523   3.008 -0.3006 -0.2751 -0.7166
  801MOL0     O 8059  10.196   7.584   3.001 -0.5042  0.0788  0.1711
  801MOL0     C 8060  10.213   7.695   2.909  0.1349  0.2728  0.4797
  801MOL0     C 8061  10.356   7.765   2.933 -0.3148  0.8650 -0.7626
  801MOL0     C 8062  10.468   7.660   2.927 -0.2533  0.6985 -0.8031
  801MOL0     C 8063  10.594   7.730   2.886 -0.2106  0.5424 -0.8763
  801MOL0     C 8064  10.659   7.799   2.999 -0.4312 -0.0108  0.0565
  801MOL0     C 8065  10.714   7.868   3.082  0.4088  0.4023 -0.6968
  801MOL0     C 8066   9.960   7.579   2.937 -0.5890  0.1390 -0.3879
  801MOL0     C 8067   9.826   7.531   2.959 -0.8926 -0.4240  0.7902
  801MOL0     H 8068   9.434   7.188   3.008 -0.4980  0.0740  0.4465
  801MOL0     H 8069   9.218   7.143   3.087  0.3951  2.7551 -0.3293
  801MOL0     H 8070   9.164   6.971   3.211  0.2313 -2.8787  1.0708
  801MOL0     H 8071   9.084   6.922   3.357 -0.6965  0.0688  0.3805
  801MOL0     H 8072   8.943   7.104   3.151  1.0407 -1.3036 -0.3753
  801MOL0     H 8073   8.915   6.938   3.191  0.2138  1.0362 -1.6231
  801MOL0     H 8074   8.874   7.030   3.432 -1.1552  1.7537  0.6253
  801MOL0     H 8075   8.854   7.190   3.355 -1.1743  0.9896 -0.8017
  801MOL0     H 8076   8.664   7.101   3.215  1.6604 -0.2751 -0.9997
  801MOL0     H 8077   8.683   6.944   3.292 -0.2163  0.3079 -1.5722
  801MOL0     H 8078   8.628   7.008   3.502  0.7762  0.8767 -0.2764
  801MOL0     H 8079   8.630   7.176   3.466 -0.7708  0.8497 -1.0044
  801MOL0     H 8080   8.456   7.144   3.284 -0.9312 -2.0584 -2.2694
  801MOL0     H 8081   8.441   6.975   3.327 -1.2643  1.1389  0.0140
  801MOL0     H 8082   8.385   7.037   3.561 -0.9501 -0.6430 -1.2657
  801MOL0     H 8083   8.359   7.204   3.524 -0.9194 -0.8828  1.8054
  801MOL0     H 8084   8.212   6.976   3.389  0.5879  0.4715 -0.2318
  801MOL0     H 8085   8.199   7.141   3.351 -1.7737 -1.9528 -1.2168
  801MOL0     H 8086   8.236   7.192   3.686  0.6788 -1.7728 -0.8181
  801MOL0     H 8087   8.013   7.207   3.903  1.3761 -0.4507 -0.6129
  801MOL0     H 8088   8.038   7.356   3.807  1.9325 -0.7705 -1.2339
  801MOL0     H 8089   7.794   7.349   3.742 -2.2598 -1.6659  0.5357
  801MOL0     H 8090   7.836   7.379   3.915  1.0385  1.5466 -2.2028
  801MOL0     H 8091   7.774   7.176   3.984  3.1577 -1.7541 -1.4247
  801MOL0     H 8092   7.745   7.113   3.815  0.1782 -0.4582 -0.6081
  801MOL0     H 8093   7.523   7.164   3.921 -0.9135 -0.3580  1.4832
  801MOL0     H 8094   7.565   7.275   3.794 -4.2118 -2.6326  0.1665
  801MOL0     H 8095   7.531   7.342   4.223  0.5013  0.1608 -0.8695
  801MOL0     H 8096   7.223   7.385   4.430  0.0939 -2.6401  0.2352
  801MOL0     H 8097   7.388   7.316   4.425  0.5043  0.1057  0.2188
  801MOL0     H 8098   7.362   7.488   4.425  0.4132 -0.9101  1.5117
  801MOL0     H 8099   7.104   7.588   4.597  0.7160  0.6767 -0.9683
  801MOL0     H 8100   6.930   7.670   4.755  1.0305  0.9328  0.2318
  801MOL0     H 8101   6.739   7.683   4.851 -1.4855  0.8449  1.3333
  801MOL0     H 8102   6.575   7.737   4.844  0.0022 -1.2099  0.7119
  801MOL0     H 8103   6.681   7.503   4.676  0.7264 -0.8945  1.0277
  801MOL0     H 8104   6.574   7.488   4.816  0.8268  1.1310  0.6799
  801MOL0     H 8105   6.439   7.459   4.633  2.5884 -0.8991  0.2178
  801MOL0     H 8106   6.491   7.616   4.557  2.0233  0.4385  0.1271
  801MOL0     H 8107   6.398   7.759   4.717  0.0957 -0.6382  2.2212
  801MOL0     H 8108   6.282   7.670   4.629  0.6862 -0.2753  0.0364
  801MOL0     H 8109   6.369   7.593   4.909 -0.0746  3.9669  0.3701
  801MOL0     H 8110   6.254   7.509   4.823  0.2308  0.6488  0.3386
  801MOL0     H 8111   6.204   7.794   4.848  1.4372 -1.6547 -3.8370
  801MOL0     H 8112   6.086   7.664   4.842 -0.0360 -0.0984  0.0661
  801MOL0     H 8113   6.119   7.778   5.080  2.8051 -1.0477  2.1141
  801MOL0     H 8114   6.264   7.696   5.081  1.5975 -0.3511 -3.2544
  801MOL0     H 8115   6.110   7.468   5.052  1.8680  0.3652  0.7665
  801MOL0     H 8116   5.971   7.582   5.073  0.3639  1.4159 -1.5733
  801MOL0     H 8117   6.678   7.761   4.414 -0.7771  0.0833  0.7960
  801MOL0     H 8118   6.852   7.673   4.265  1.6725  1.7402 -0.4676
  801MOL0     H 8119   7.146   7.503   3.962 -0.8289 -0.9875  0.3594
  801MOL0     H 8120   7.373   7.429   3.855  1.4771  1.6001  0.8583
  801MOL0     H 8121   9.353   7.223   3.494  1.5450 -1.7840  0.8660
  801MOL0     H 8122   9.568   7.279   3.408  1.2025 -1.4483 -0.6314
  801MOL0     H 8123   9.896   7.310   3.203  2.3136  1.5170  1.6687
  801MOL0     H 8124  10.127   7.377   3.168 -1.2865  0.3108  1.1000
  801MOL0     H 8125  10.194   7.649   2.812  0.7774  1.3459 -0.1766
  801MOL0     H 8126  10.143   7.777   2.927 -0.0442  0.2965 -0.3190
  801MOL0     H 8127  10.350   7.802   3.036 -0.8662  1.7019 -1.0765
  801MOL0     H 8128  10.376   7.845   2.860  2.6301 -0.6956 -1.8218
  801MOL0     H 8129  10.443   7.596   2.842 -2.4689  1.1122 -0.5272
  801MOL0     H 8130  10.479   7.597   3.015 -0.2422  3.0207  0.9529
  801MOL0     H 8131  10.568   7.804   2.809 -1.5923  1.9153  0.8289
  801MOL0     H 8132  10.661   7.653   2.846 -0.1428  0.6504 -0.9704
  801MOL0     H 8133  10.767   7.927   3.153 -1.6891  3.9082 -1.7777
  801MOL0     H 8134   9.973   7.652   2.858  1.3851 -0.0286 -0.2648
  801MOL0     H 8135   9.744   7.568   2.898  0.3791  0.5024 -0.4349
  802MOL0     O 8136   3.322   8.212   9.945 -0.2634 -0.5697  0.3413
  802MOL0     C 8137   3.418   8.283   9.949 -0.4038  0.3678 -0.7530
  802MOL0     O 8138   3.416   8.415   9.957  0.8778  0.4415 -0.1651
  802MOL0     C 8139   3.290   8.469   9.966 -1.2358  0.2788 -0.9830
  802MOL0     C 8140   3.202   8.467   9.864 -0.3986  0.2892 -0.8601
  802MOL0     C 8141   3.067   8.513   9.869 -0.4007  0.3389  0.9045
  802MOL0     C 8142   3.020   8.580   9.987  0.4683 -0.0090 -0.3623
  802MOL0     O 8143   2.893   8.628  10.006 -0.2877 -0.3249  0.4170
  802MOL0     C 8144   2.793   8.596   9.909  0.4067 -1.1558  0.0878
  802MOL0     C 8145   2.727   8.472   9.955 -0.4895  1.2877  0.5592
  802MOL0     C 8146   2.622   8.521  10.047  0.7645  0.2742 -0.0664
  802MOL0     C 8147   2.584   8.424  10.153  0.0773 -0.0619 -1.0452
  802MOL0     C 8148   2.518   8.301  10.091 -0.8966  0.8227 -0.4043
  802MOL0     C 8149   2.507   8.192  10.195  0.0104 -0.1623  0.0565
  802MOL0     C 8150   2.455   8.054  10.145 -0.0148 -0.4865  0.0605
  802MOL0     C 8151   2.310   8.053  10.104  1.0672  0.0417  0.0536
  802MOL0     N 8152   2.222   8.081  10.217 -0.3874 -0.1231 -0.3466
  802MOL0     C 8153   2.214   8.004  10.328 -0.2584 -0.4317 -0.4656
  802MOL0     C 8154   2.105   8.054  10.402 -0.9504 -0.2798  0.4533
  802MOL0     C 8155   2.075   8.019  10.531  0.6254 -0.4623 -0.1438
  802MOL0     C 8156   2.131   8.106  10.647 -0.6214 -0.3230 -0.0428
  802MOL0     C 8157   2.049   8.071  10.782  0.0954  0.3686 -0.2025
  802MOL0     C 8158   1.926   8.157  10.793  0.4617 -0.3601 -0.2552
  802MOL0     O 8159   1.966   8.299  10.813  0.0223  0.3150  0.3029
  802MOL0     C 8160   1.865   8.382  10.842 -0.0217  0.0057  0.3817
  802MOL0     C 8161   1.868   8.450  10.962  0.0279 -0.0986 -0.4772
  802MOL0     C 8162   1.767   8.540  10.990 -0.3052  0.2211 -0.5523
  802MOL0     C 8163   1.780   8.618  11.120  0.9062  0.6453  0.3760
  802MOL0     C 8164   1.667   8.558  10.894  0.5758  0.0059 -0.6874
  802MOL0     C 8165   1.559   8.660  10.909 -0.9329 -0.3824 -0.1940
  802MOL0     O 8166   1.501   8.710  10.798  0.1941 -0.0533 -0.4977
  802MOL0     C 8167   1.404   8.804  10.826  0.2269 -0.5489  0.0680
  802MOL0     C 8168   1.274   8.764  10.813 -0.2845  0.2705 -0.1051
  802MOL0     C 8169   1.169   8.861  10.848 -0.5036  0.3202 -0.5843
  802MOL0     C 8170   1.200   8.983  10.911 -0.0147  0.1772  0.1007
  802MOL0     O 8171   1.091   9.068  10.941 -0.3059  0.0619  0.3499
  802MOL0     C 8172   1.093   9.149  11.065 -1.3105  0.3484 -0.7185
  802MOL0     C 8173   0.950   9.173  11.117  0.4351 -0.1741  0.2006
  802MOL0     C 8174   0.857   9.208  10.998  0.3618  0.3349 -0.6775
  802MOL0     C 8175   0.717   9.225  11.047  0.0660 -0.9868  0.1339
  802MOL0     C 8176   0.646   9.107  11.120 -0.5879  0.5658  0.7194
  802MOL0     C 8177   0.500   9.134  11.150  0.1060  0.0735  0.0109
  802MOL0     C 8178   0.415   9.159  11.021 -0.2601  0.7173  0.2576
  802MOL0     C 8179   0.278   9.216  11.056 -0.2630 -0.2809  0.3982
  802MOL0    Cl 8180   0.163   9.214  10.917  0.0969 -0.1742 -0.4482
  802MOL0     C 8181   1.339   9.021  10.920  0.0984  0.2457  0.2589
  802MOL0     C 8182   1.435   8.933  10.871 -0.0043  0.0035  0.2840
  802MOL0     O 8183   1.524   8.689  11.021 -0.1105  0.3446  0.4142
  802MOL0     C 8184   1.668   8.491  10.777  0.1101  0.1311 -0.1502
  802MOL0     C 8185   1.768   8.403  10.749 -0.2832 -0.7932 -0.1493
  802MOL0     N 8186   2.064   8.166  10.333  0.0185 -0.1676 -0.4423
  802MOL0     N 8187   2.137   8.184  10.224  0.5865  0.8424 -0.0077
  802MOL0     C 8188   3.117   8.594  10.089  0.3068 -1.0243  0.3240
  802MOL0     C 8189   3.249   8.547  10.078  0.4762  0.6283 -0.7049
  802MOL0     C 8190   3.545   8.221   9.943 -0.2070 -0.2471  0.8657
  802MOL0     C 8191   3.670   8.290   9.975 -0.6397  0.0700 -0.0341
  802MOL0     C 8192   3.794   8.217   9.963  1.0526  0.0551  0.9829
  802MOL0     C 8193   3.788   8.082   9.927  0.5028 -0.0211 -0.9179
  802MOL0     O 8194   3.899   8.020   9.913 -0.0635 -0.5371 -0.7788
  802MOL0     C 8195   3.956   7.964  10.039  0.2724  0.9978 -0.0205
  802MOL0     C 8196   4.108   7.985  10.047  0.6512  0.7913 -0.3257
  802MOL0     C 8197   4.160   8.124  10.102  0.3149  0.1547  0.0857
  802MOL0     C 8198   4.309   8.115  10.122  0.2574  0.1143 -0.4125
  802MOL0     C 8199   4.380   8.076  10.008 -0.8658  0.0903  1.0152
  802MOL0     C 8200   4.447   8.058   9.908 -0.9358  0.7529  0.4192
  802MOL0     C 8201   3.670   8.021   9.891 -0.3691  0.7470 -0.6936
  802MOL0     C 8202   3.551   8.086   9.906 -0.3263  0.9206 -0.1630
  802MOL0     H 8203   3.245   8.422   9.775  0.5541 -3.3050  1.2215
  802MOL0     H 8204   3.009   8.498   9.779  0.1343  0.2483  0.5670
  802MOL0     H 8205   2.734   8.688   9.905  1.3355 -0.3720  2.5628
  802MOL0     H 8206   2.829   8.590   9.806  2.9596  1.1878  0.7505
  802MOL0     H 8207   2.700   8.412   9.868  2.5679  0.0141  0.3571
  802MOL0     H 8208   2.790   8.405  10.014 -1.6950  0.3599  0.8280
  802MOL0     H 8209   2.645   8.608  10.109 -2.5483  1.1215  0.1806
  802MOL0     H 8210   2.529   8.552   9.998 -1.1424 -0.1325  2.9845
  802MOL0     H 8211   2.674   8.388  10.204 -1.5123 -2.8585 -0.0234
  802MOL0     H 8212   2.517   8.468  10.227 -2.3968  2.8037 -4.6044
  802MOL0     H 8213   2.420   8.324  10.047 -0.9892  0.7100 -0.2577
  802MOL0     H 8214   2.589   8.259  10.019 -1.6078  1.1545 -1.3390
  802MOL0     H 8215   2.595   8.177  10.257 -0.4872 -0.7401  0.6372
  802MOL0     H 8216   2.436   8.234  10.268  0.6040 -2.6257  2.1784
  802MOL0     H 8217   2.511   8.018  10.058 -0.1829 -2.2329  0.6322
  802MOL0     H 8218   2.480   7.980  10.221  0.7209  0.7656  1.0724
  802MOL0     H 8219   2.300   7.951  10.064 -1.4775  0.7762 -1.3954
  802MOL0     H 8220   2.286   8.125  10.025 -0.7040 -1.5466 -0.9629
  802MOL0     H 8221   2.281   7.926  10.362  1.9128 -0.3511 -4.0645
  802MOL0     H 8222   1.966   8.021  10.541  0.7588  1.4676  1.5787
  802MOL0     H 8223   2.107   7.914  10.538  0.5255 -0.6484 -1.9515
  802MOL0     H 8224   2.111   8.211  10.621  2.2556 -0.2471 -2.5226
  802MOL0     H 8225   2.235   8.077  10.666 -1.1968 -2.1522  0.4771
  802MOL0     H 8226   2.113   8.095  10.867  0.6787 -0.0297 -0.5231
  802MOL0     H 8227   2.029   7.964  10.789 -1.5069  0.7045  0.8452
  802MOL0     H 8228   1.876   8.121  10.884  2.4289 -1.5905  0.3930
  802MOL0     H 8229   1.866   8.145  10.702  0.0915 -3.2254  0.2517
  802MOL0     H 8230   1.957   8.430  11.021 -0.9350 -1.8781  0.4642
  802MOL0     H 8231   1.871   8.585  11.171  1.7300 -1.1758 -2.0826
  802MOL0     H 8232   1.775   8.725  11.099 -1.1136  0.3859 -0.6653
  802MOL0     H 8233   1.696   8.599  11.187  0.5279  1.5342  0.1615
  802MOL0     H 8234   1.251   8.662  10.783  5.0238 -0.9538 -1.0872
  802MOL0     H 8235   1.065   8.848  10.820 -0.5022  0.0229 -0.4530
  802MOL0     H 8236   1.165   9.111  11.138 -0.3599  0.6537 -1.4680
  802MOL0     H 8237   1.130   9.249  11.038 -0.7202  0.8439  1.6761
  802MOL0     H 8238   0.923   9.076  11.161 -0.1309  0.6731  1.8165
  802MOL0     H 8239   0.943   9.249  11.195 -2.1758 -1.8867  1.8122
  802MOL0     H 8240   0.860   9.123  10.928  1.4439  1.6498 -2.3107
  802MOL0     H 8241   0.907   9.298  10.961 -1.1063  1.7203  0.5617
  802MOL0     H 8242   0.709   9.304  11.122 -0.3410 -1.1537  0.2681
  802MOL0     H 8243   0.661   9.252  10.958  3.6802 -1.9305 -2.6680
  802MOL0     H 8244   0.691   9.078  11.216  0.6591  0.3083  0.0804
  802MOL0     H 8245   0.647   9.019  11.055 -1.5157  2.1761 -1.6056
  802MOL0     H 8246   0.467   9.045  11.205 -0.8051  0.9893  1.0026
  802MOL0     H 8247   0.479   9.214  11.222 -2.8116  0.2905 -0.9685
  802MOL0     H 8248   0.418   9.069  10.958 -1.5258  1.2410 -0.5968
  802MOL0     H 8249   0.455   9.231  10.950  1.2703  0.2722  0.6327
  802MOL0     H 8250   0.282   9.316  11.101 -1.0051  0.6531 -1.4952
  802MOL0     H 8251   0.235   9.155  11.136  0.6157  1.6515  2.4455
  802MOL0     H 8252   1.362   9.115  10.968 -0.0496 -0.2829  1.3886
  802MOL0     H 8253   1.540   8.963  10.870  0.1630 -0.5917 -0.1644
  802MOL0     H 8254   1.597   8.516  10.699 -0.0901 -1.2682 -0.4453
  802MOL0     H 8255   1.776   8.358  10.650 -3.1506  0.1471 -0.9160
  802MOL0     H 8256   3.104   8.656  10.177  4.6469  0.2728  0.2763
  802MOL0     H 8257   3.320   8.559  10.159 -1.9454 -0.4689  1.7099
  802MOL0     H 8258   3.668   8.396  10.000 -2.0425 -0.1236  0.7314
  802MOL0     H 8259   3.888   8.270   9.974  0.1264  2.0686 -0.1501
  802MOL0     H 8260   3.906   8.015  10.122 -1.8403  2.4597 -2.0641
  802MOL0     H 8261   3.929   7.858  10.037 -2.5189  1.6385 -0.8797
  802MOL0     H 8262   4.145   7.960   9.947 -0.0813  0.5182 -0.5359
  802MOL0     H 8263   4.149   7.903  10.105 -0.3073 -0.5900 -1.5313
  802MOL0     H 8264   4.109   8.155  10.194 -0.8054 -2.2848  0.3657
  802MOL0     H 8265   4.135   8.193  10.021 -1.2306  1.7644  1.8177
  802MOL0     H 8266   4.344   8.057  10.208 -0.5416 -2.9018 -1.9853
  802MOL0     H 8267   4.334   8.217  10.153 -1.3375  0.5504 -0.4831
  802MOL0     H 8268   4.499   8.017   9.824  4.0875  0.5743  3.2539
  802MOL0     H 8269   3.660   7.924   9.843  0.2326 -0.1052  0.8398
  802MOL0     H 8270   3.466   8.022   9.884  0.2598  0.4067 -1.0326
  803MOL0     O 8271   0.570   0.692   0.403  0.2169 -0.4920  0.3656
  803MOL0     C 8272   0.572   0.625   0.298 -0.3861 -0.0020 -0.3020
  803MOL0     O 8273   0.689   0.581   0.234  0.2127  0.4092  0.0951
  803MOL0     C 8274   0.816   0.597   0.292 -0.4019  0.5438  0.2260
  803MOL0     C 8275   0.848   0.601   0.426  0.6788 -0.7247 -0.9571
  803MOL0     C 8276   0.973   0.605   0.480  0.0137  0.4554  0.1540
  803MOL0     C 8277   1.082   0.598   0.396  0.0088  0.5199 -0.3740
  803MOL0     O 8278   1.210   0.587   0.448 -0.5238  0.1445 -0.1175
  803MOL0     C 8279   1.238   0.619   0.592  0.4146  0.0648  0.1762
  803MOL0     C 8280   1.376   0.586   0.637 -0.0390  0.1027  0.0823
  803MOL0     C 8281   1.379   0.618   0.787 -0.2393  0.1142 -0.6171
  803MOL0     C 8282   1.443   0.758   0.806  0.1005 -0.5005  0.3013
  803MOL0     C 8283   1.473   0.778   0.960  0.4076 -0.3642 -0.1202
  803MOL0     C 8284   1.349   0.830   1.039  1.1070 -1.1353 -0.1767
  803MOL0     C 8285   1.375   0.844   1.186  0.9690  1.4762  0.2183
  803MOL0     C 8286   1.252   0.865   1.288  0.0141 -0.5667  0.1088
  803MOL0     N 8287   1.145   0.771   1.266 -0.1749 -0.2441  0.5983
  803MOL0     C 8288   1.024   0.808   1.245  0.7599 -0.6211 -0.9605
  803MOL0     C 8289   0.959   0.698   1.205  0.6172  0.2274  0.2898
  803MOL0     C 8290   0.816   0.687   1.165  0.7804  0.3621  1.3216
  803MOL0     C 8291   0.705   0.709   1.276  0.3782  0.5793  0.3367
  803MOL0     C 8292   0.570   0.648   1.217  0.4319  0.7594 -0.4878
  803MOL0     C 8293   0.491   0.751   1.150  0.0223  0.3932 -0.7607
  803MOL0     O 8294   0.458   0.861   1.231  0.6611 -0.2318 -0.1795
  803MOL0     C 8295   0.400   0.972   1.167  0.2971  0.5189  0.5629
  803MOL0     C 8296   0.362   0.990   1.032 -0.4887  0.2102  0.2235
  803MOL0     C 8297   0.308   1.115   0.981  0.0915  0.5731  0.3657
  803MOL0     C 8298   0.283   1.116   0.822  0.2693 -0.4992  0.0008
  803MOL0     C 8299   0.293   1.222   1.065  0.7378  0.4047 -0.6486
  803MOL0     C 8300   0.217   1.341   1.032  0.3107  0.5758  0.6517
  803MOL0     O 8301   0.248   1.446   1.114 -0.0980  0.6435  0.1105
  803MOL0     C 8302   0.171   1.557   1.096  0.6086 -0.2013 -0.9090
  803MOL0     C 8303   0.046   1.581   1.156 -0.0770 -0.0962 -1.2415
  803MOL0     C 8304  -0.028   1.701   1.148 -0.3808  0.8278 -0.1206
  803MOL0     C 8305   0.023   1.797   1.064 -0.0848  0.9123 -0.2569
  803MOL0     O 8306  -0.043   1.913   1.059 -0.9087  0.7264  0.5449
  803MOL0     C 8307  -0.107   1.934   0.938  0.5344  0.1123  0.3503
  803MOL0     C 8308  -0.228   2.022   0.965 -0.4570  0.1835 -0.6990
  803MOL0     C 8309  -0.207   2.157   1.022 -0.2456  0.5972  0.5640
  803MOL0     C 8310  -0.339   2.216   1.083  0.5284  0.4056 -0.1661
  803MOL0     C 8311  -0.337   2.359   1.127 -0.8396  0.0902  0.9663
  803MOL0     C 8312  -0.258   2.449   1.037 -0.8958  0.7066 -0.4709
  803MOL0     C 8313  -0.269   2.592   1.097  0.2989 -0.0963  0.2071
  803MOL0     C 8314  -0.206   2.691   0.994 -0.3365  0.5517 -0.2319
  803MOL0    Cl 8315  -0.191   2.851   1.067  0.3728  0.3236  0.2266
  803MOL0     C 8316   0.142   1.779   1.003  0.0891  0.0017  0.9420
  803MOL0     C 8317   0.218   1.663   1.017  0.5851  0.5914  0.1186
  803MOL0     O 8318   0.143   1.350   0.930  0.0344 -0.3911 -0.2319
  803MOL0     C 8319   0.343   1.215   1.194  0.1135 -0.2346 -0.3440
  803MOL0     C 8320   0.397   1.094   1.244  0.7422  0.5796 -0.7012
  803MOL0     N 8321   1.045   0.600   1.209  0.1841  0.1372  0.6255
  803MOL0     N 8322   1.162   0.641   1.251  0.0571  0.4872  0.0085
  803MOL0     C 8323   1.056   0.576   0.264  0.4889 -0.5644  0.3421
  803MOL0     C 8324   0.931   0.580   0.205 -0.1984  0.6206  0.1288
  803MOL0     C 8325   0.443   0.585   0.239 -0.1770 -0.1953 -0.0837
  803MOL0     C 8326   0.437   0.506   0.125 -0.8595  0.1055 -0.5725
  803MOL0     C 8327   0.314   0.473   0.053 -0.4154 -0.3696 -0.4723
  803MOL0     C 8328   0.197   0.537   0.106 -0.2200 -0.4794  0.6242
  803MOL0     O 8329   0.070   0.519   0.070 -0.1947 -0.6969 -0.3797
  803MOL0     C 8330   0.031   0.414  -0.010 -0.1631  0.6008  0.4728
  803MOL0     C 8331  -0.109   0.381   0.035 -0.0329 -0.5925  0.5924
  803MOL0     C 8332  -0.163   0.254  -0.027 -1.5116 -0.3132  1.1346
  803MOL0     C 8333  -0.261   0.177   0.061 -0.0440 -0.1847  0.7431
  803MOL0     C 8334  -0.369   0.254   0.137  0.2961 -0.5078 -0.0116
  803MOL0     C 8335  -0.450   0.321   0.209 -0.3714 -0.4218  0.2412
  803MOL0     C 8336   0.207   0.622   0.220 -0.3610  0.0264  0.1011
  803MOL0     C 8337   0.329   0.647   0.285  0.7202 -0.0574 -0.7331
  803MOL0     H 8338   0.770   0.613   0.501  4.4616 -0.1074  3.3213
  803MOL0     H 8339   0.977   0.610   0.588 -0.4503  0.6501  0.1661
  803MOL0     H 8340   1.211   0.724   0.607  0.2340  0.2412 -1.2483
  803MOL0     H 8341   1.170   0.548   0.640  1.3505 -1.5795 -0.8330
  803MOL0     H 8342   1.392   0.478   0.635  0.6602  0.0745  2.9857
  803MOL0     H 8343   1.456   0.641   0.587 -0.1448  0.1305 -0.0552
  803MOL0     H 8344   1.283   0.609   0.839 -1.2648  2.7468 -1.8254
  803MOL0     H 8345   1.444   0.548   0.839 -0.7329  1.3195  1.7429
  803MOL0     H 8346   1.541   0.756   0.757  0.4677 -1.2848  1.0541
  803MOL0     H 8347   1.367   0.829   0.769 -0.4366 -0.1021  2.0731
  803MOL0     H 8348   1.515   0.687   1.004  1.6253  0.1702 -0.1104
  803MOL0     H 8349   1.547   0.859   0.962  0.0697 -0.0683  1.4142
  803MOL0     H 8350   1.314   0.924   0.994 -0.9603 -0.7549  2.0182
  803MOL0     H 8351   1.262   0.769   1.011  0.0595  1.3437 -2.8783
  803MOL0     H 8352   1.424   0.748   1.209 -2.7763 -0.6248  0.2596
  803MOL0     H 8353   1.452   0.916   1.215  1.2156  0.9546  0.8879
  803MOL0     H 8354   1.212   0.967   1.286 -0.9520 -0.6833  3.9594
  803MOL0     H 8355   1.286   0.843   1.390 -1.1160  1.5449  1.0084
  803MOL0     H 8356   0.977   0.903   1.267 -0.6249 -1.8032  1.5993
  803MOL0     H 8357   0.804   0.772   1.097  1.6116  0.2028  0.9685
  803MOL0     H 8358   0.802   0.600   1.101  3.2606  0.9496 -0.1224
  803MOL0     H 8359   0.683   0.810   1.312 -1.7938  0.2991 -0.0486
  803MOL0     H 8360   0.737   0.663   1.370  0.4707 -0.4215 -0.1718
  803MOL0     H 8361   0.520   0.616   1.309  1.7402 -1.5424 -0.5139
  803MOL0     H 8362   0.585   0.557   1.159  0.2613  0.7269 -0.4809
  803MOL0     H 8363   0.401   0.700   1.114  1.2723 -3.2408  0.7185
  803MOL0     H 8364   0.553   0.784   1.066  0.4976  0.0897 -0.5391
  803MOL0     H 8365   0.388   0.911   0.962  2.4430  1.0104  0.2612
  803MOL0     H 8366   0.360   1.058   0.770 -0.6114 -1.7097  0.0187
  803MOL0     H 8367   0.184   1.094   0.782 -0.5944  2.6146  0.1837
  803MOL0     H 8368   0.292   1.222   0.794 -1.9204 -0.4761 -0.8027
  803MOL0     H 8369  -0.001   1.501   1.212  1.7607 -0.4685 -0.1403
  803MOL0     H 8370  -0.122   1.708   1.201 -1.1888 -1.5673 -1.0791
  803MOL0     H 8371  -0.043   1.990   0.868 -0.7672  0.4685 -0.5910
  803MOL0     H 8372  -0.142   1.842   0.890  0.1580  1.2310 -1.6365
  803MOL0     H 8373  -0.277   2.029   0.868 -2.0722 -0.3790  0.0383
  803MOL0     H 8374  -0.290   1.971   1.039  1.8167 -0.4548  0.8805
  803MOL0     H 8375  -0.161   2.217   0.943 -2.2903 -0.2251 -1.3773
  803MOL0     H 8376  -0.128   2.146   1.097  1.5302  1.1790 -1.1412
  803MOL0     H 8377  -0.419   2.213   1.009  3.3507 -1.8978 -3.4407
  803MOL0     H 8378  -0.365   2.154   1.169 -0.9851  1.7055  0.3674
  803MOL0     H 8379  -0.298   2.366   1.229 -1.7016  0.1040  1.3064
  803MOL0     H 8380  -0.437   2.403   1.128  0.1684  2.7069 -0.4704
  803MOL0     H 8381  -0.154   2.416   1.041 -0.9804  0.5679  1.7989
  803MOL0     H 8382  -0.292   2.444   0.933  0.7286  0.9529 -1.0389
  803MOL0     H 8383  -0.223   2.607   1.194 -0.4718  0.4902  0.4979
  803MOL0     H 8384  -0.374   2.619   1.112  0.5554  1.9014 -1.1209
  803MOL0     H 8385  -0.263   2.690   0.901  0.9851  0.4160 -1.0641
  803MOL0     H 8386  -0.105   2.659   0.967 -0.6824  0.2110 -1.1401
  803MOL0     H 8387   0.190   1.861   0.951 -0.6480 -0.4159 -0.4423
  803MOL0     H 8388   0.315   1.658   0.968  0.0487 -3.7605 -0.8622
  803MOL0     H 8389   0.341   1.296   1.266 -0.3873 -1.4670  1.1010
  803MOL0     H 8390   0.421   1.087   1.350 -1.0698  2.3085 -0.1162
  803MOL0     H 8391   1.138   0.573   0.192 -1.0660 -0.3552 -1.4980
  803MOL0     H 8392   0.909   0.589   0.099 -3.7316 -0.1248  0.6515
  803MOL0     H 8393   0.529   0.468   0.083  0.6695  1.4505  1.3619
  803MOL0     H 8394   0.310   0.411  -0.035  2.0026 -0.1770 -0.7778
  803MOL0     H 8395   0.037   0.442  -0.116  0.3296 -0.3988  0.2315
  803MOL0     H 8396   0.091   0.324  -0.003 -1.2925 -0.4815 -2.1816
  803MOL0     H 8397  -0.173   0.466   0.010  0.1305  0.2948  2.8790
  803MOL0     H 8398  -0.114   0.359   0.142  0.4033 -2.3781  0.2780
  803MOL0     H 8399  -0.079   0.183  -0.032 -1.6521 -0.4281  0.2561
  803MOL0     H 8400  -0.204   0.279  -0.125  1.5924 -0.7246 -0.3971
  803MOL0     H 8401  -0.199   0.120   0.132  1.4976 -1.0089 -1.1526
  803MOL0     H 8402  -0.309   0.105  -0.005  0.5865 -0.1908  0.2764
  803MOL0     H 8403  -0.510   0.391   0.263  2.2316  1.8263  0.4446
  803MOL0     H 8404   0.113   0.666   0.254  0.5638  1.1064  1.3652
  803MOL0     H 8405   0.331   0.724   0.362 -1.5979 -1.5300  0.9709
  804MOL0     O 8406  11.195   2.150   5.153  0.0616  0.1034  1.1118
  804MOL0     C 8407  11.297   2.164   5.085  0.5712 -0.6259 -0.2667
  804MOL0     O 8408  11.305   2.166   4.959 -0.2411  0.1978  0.2600
  804MOL0     C 8409  11.192   2.150   4.883  0.3394  0.1811  0.1159
  804MOL0     C 8410  11.087   2.055   4.906  0.4383  0.3080 -0.4720
  804MOL0     C 8411  10.973   2.045   4.828  0.0953  0.0521  0.0227
  804MOL0     C 8412  10.964   2.113   4.704  0.3321 -0.1142 -0.3146
  804MOL0     O 8413  10.857   2.103   4.623 -0.5574  0.3864 -0.4571
  804MOL0     C 8414  10.780   1.977   4.627 -0.1250 -1.0403  0.1157
  804MOL0     C 8415  10.686   1.982   4.510  0.0473  1.4450  0.0740
  804MOL0     C 8416  10.563   2.063   4.551  0.5368 -0.1287  0.2235
  804MOL0     C 8417  10.502   2.096   4.409  0.4983 -1.2583 -0.5291
  804MOL0     C 8418  10.374   2.176   4.424  0.0411  0.6463  0.4996
  804MOL0     C 8419  10.332   2.258   4.295 -0.6813  0.7055 -0.2388
  804MOL0     C 8420  10.182   2.297   4.283 -0.0911 -0.0991 -0.6879
  804MOL0     C 8421  10.093   2.176   4.265  0.0548 -0.1026 -0.3373
  804MOL0     N 8422   9.964   2.210   4.205  0.5258  0.2652  0.5262
  804MOL0     C 8423   9.926   2.194   4.075  0.0610  0.9851 -0.5734
  804MOL0     C 8424   9.796   2.234   4.070 -0.2460 -0.1757 -0.1375
  804MOL0     C 8425   9.714   2.226   3.953 -0.9156 -0.3448  0.4780
  804MOL0     C 8426   9.565   2.204   3.992 -0.7069 -0.6541 -0.3586
  804MOL0     C 8427   9.474   2.216   3.872  0.4071  0.3265 -0.3428
  804MOL0     C 8428   9.481   2.099   3.767  0.2726 -0.6423 -0.1842
  804MOL0     O 8429   9.425   1.970   3.803  0.1749 -0.5698  0.1547
  804MOL0     C 8430   9.296   1.930   3.781  0.9662 -0.5521  1.3262
  804MOL0     C 8431   9.262   1.809   3.830 -0.8244  0.2890  0.3643
  804MOL0     C 8432   9.138   1.750   3.820 -0.5449 -0.8110  1.3167
  804MOL0     C 8433   9.116   1.613   3.888  0.9339 -0.4607  0.8169
  804MOL0     C 8434   9.038   1.814   3.738 -0.1177 -0.9633 -0.2115
  804MOL0     C 8435   8.901   1.761   3.717  0.5117  0.1064  0.4813
  804MOL0     O 8436   8.825   1.820   3.617 -0.4397 -0.2063  0.1471
  804MOL0     C 8437   8.691   1.804   3.607 -0.3799  0.1439 -0.3077
  804MOL0     C 8438   8.648   1.679   3.552 -0.0160  0.3154  0.2204
  804MOL0     C 8439   8.509   1.662   3.535  0.2066  0.9760  0.6351
  804MOL0     C 8440   8.414   1.757   3.573 -0.1319  0.2351 -0.4816
  804MOL0     O 8441   8.279   1.729   3.561 -0.4263 -0.1627 -0.2907
  804MOL0     C 8442   8.168   1.815   3.583  0.2384  0.6292 -1.3891
  804MOL0     C 8443   8.043   1.726   3.632 -0.9585 -0.6846  0.7194
  804MOL0     C 8444   7.913   1.811   3.648 -0.0021 -0.0318  0.1047
  804MOL0     C 8445   7.796   1.731   3.694  0.6022 -0.1828  0.4067
  804MOL0     C 8446   7.669   1.795   3.636 -0.0390 -0.7541 -0.6778
  804MOL0     C 8447   7.545   1.751   3.724  0.1145 -0.5695 -0.3133
  804MOL0     C 8448   7.400   1.791   3.684  0.5776  0.6580  0.2624
  804MOL0     C 8449   7.302   1.720   3.777  0.9848  0.3121  0.0805
  804MOL0    Cl 8450   7.155   1.815   3.786  0.2298  0.1713  0.1408
  804MOL0     C 8451   8.456   1.873   3.644 -0.5292 -0.6073 -0.1896
  804MOL0     C 8452   8.596   1.901   3.661 -0.4011  0.7022  1.1402
  804MOL0     O 8453   8.859   1.670   3.789  0.2110 -0.3938 -0.1355
  804MOL0     C 8454   9.077   1.943   3.682 -0.0310  0.6244  0.2190
  804MOL0     C 8455   9.202   2.001   3.702 -0.7101 -0.6872  0.0275
  804MOL0     N 8456   9.769   2.283   4.190 -0.6171 -0.7423 -0.0399
  804MOL0     N 8457   9.867   2.268   4.274 -0.1655  0.2559  0.9847
  804MOL0     C 8458  11.063   2.205   4.679  0.4981  0.4249  0.1673
  804MOL0     C 8459  11.176   2.220   4.760  0.0269  0.0391  0.2490
  804MOL0     C 8460  11.429   2.173   5.149 -0.0740  0.7493 -0.6623
  804MOL0     C 8461  11.441   2.198   5.291 -0.5807 -0.0556  0.1108
  804MOL0     C 8462  11.563   2.209   5.369  0.3830 -0.1630 -1.4361
  804MOL0     C 8463  11.679   2.199   5.296  0.3227  1.2616 -0.1562
  804MOL0     O 8464  11.806   2.198   5.353  0.2906 -0.3996 -0.1917
  804MOL0     C 8465  11.823   2.125   5.477  0.2828 -0.5222 -0.4364
  804MOL0     C 8466  11.970   2.098   5.491  0.2205  0.0979  0.7599
  804MOL0     C 8467  12.001   2.003   5.615  0.0540  0.3894 -0.9057
  804MOL0     C 8468  11.954   1.860   5.579 -0.6301  0.0118 -0.1435
  804MOL0     C 8469  12.032   1.766   5.670  0.5952 -0.5762  0.0245
  804MOL0     C 8470  12.118   1.704   5.734  0.6481  1.1187 -0.4215
  804MOL0     C 8471  11.669   2.171   5.164 -0.0473 -0.5336 -0.0648
  804MOL0     C 8472  11.555   2.148   5.091  0.2967 -1.0054  0.1769
  804MOL0     H 8473  11.083   1.996   4.997 -3.5457  0.6056 -0.2770
  804MOL0     H 8474  10.894   1.975   4.848 -0.0403  0.6475  1.6785
  804MOL0     H 8475  10.841   1.886   4.632  1.1933 -0.1224  3.0698
  804MOL0     H 8476  10.720   1.969   4.718 -1.2049  0.4855 -0.4256
  804MOL0     H 8477  10.729   2.026   4.420 -2.7203  2.3555 -0.8971
  804MOL0     H 8478  10.666   1.876   4.493  3.0327  0.8152 -0.1655
  804MOL0     H 8479  10.505   2.000   4.619 -0.7053  1.3375  0.5707
  804MOL0     H 8480  10.602   2.150   4.606  0.0231 -0.7392  1.5984
  804MOL0     H 8481  10.569   2.160   4.350 -0.3307  0.2130  0.0764
  804MOL0     H 8482  10.499   1.998   4.359  0.8962 -2.3266  1.4464
  804MOL0     H 8483  10.292   2.109   4.451 -1.9283  2.4881 -0.6502
  804MOL0     H 8484  10.376   2.246   4.507 -0.8619 -0.6398  1.6506
  804MOL0     H 8485  10.391   2.350   4.299 -0.8961  0.7971  1.3537
  804MOL0     H 8486  10.356   2.208   4.201 -1.6400  0.3546 -0.3017
  804MOL0     H 8487  10.155   2.359   4.369  1.3247 -0.9784  0.4405
  804MOL0     H 8488  10.174   2.364   4.197  0.9805 -0.9847 -1.5195
  804MOL0     H 8489  10.072   2.127   4.360 -1.4106  2.8803  1.0096
  804MOL0     H 8490  10.144   2.109   4.195  0.8622  2.4965 -2.4360
  804MOL0     H 8491   9.986   2.151   3.995 -0.8289 -0.1327 -0.6642
  804MOL0     H 8492   9.726   2.320   3.898  1.3769 -0.0976  1.3011
  804MOL0     H 8493   9.743   2.143   3.889 -3.4091 -1.6682  0.9293
  804MOL0     H 8494   9.536   2.279   4.066 -0.1493 -1.0827  0.3089
  804MOL0     H 8495   9.550   2.104   4.034  2.8408 -2.0958 -2.1297
  804MOL0     H 8496   9.497   2.310   3.822  1.4964  0.8703  1.0883
  804MOL0     H 8497   9.371   2.221   3.908  0.5148  0.5359 -0.0613
  804MOL0     H 8498   9.588   2.085   3.751  0.7056 -0.1016  2.0004
  804MOL0     H 8499   9.428   2.126   3.675 -0.7876 -1.8812  0.0291
  804MOL0     H 8500   9.333   1.752   3.888 -0.8413 -0.4490 -0.3232
  804MOL0     H 8501   9.046   1.634   3.970  0.9268  0.8407  0.5044
  804MOL0     H 8502   9.069   1.548   3.814 -1.4922  2.3661 -0.3410
  804MOL0     H 8503   9.209   1.564   3.916 -0.8091 -5.7724 -1.4372
  804MOL0     H 8504   8.709   1.598   3.514 -0.9075 -0.1005 -0.3656
  804MOL0     H 8505   8.471   1.567   3.499  3.4772 -0.7004  1.2313
  804MOL0     H 8506   8.188   1.880   3.669  1.7181  0.4651 -1.5901
  804MOL0     H 8507   8.155   1.874   3.492  1.7620  1.5287 -1.0518
  804MOL0     H 8508   8.030   1.649   3.555 -0.9136  2.2143 -2.4250
  804MOL0     H 8509   8.076   1.690   3.729  0.3519  2.0440  1.3918
  804MOL0     H 8510   7.898   1.860   3.551  0.6391 -1.6816 -0.8613
  804MOL0     H 8511   7.927   1.899   3.711  0.0489  2.0774 -2.6410
  804MOL0     H 8512   7.814   1.627   3.665 -0.3612 -0.8191  1.9827
  804MOL0     H 8513   7.791   1.723   3.803  1.9826  1.4641  0.6451
  804MOL0     H 8514   7.653   1.772   3.530  0.3043  1.8130 -1.3627
  804MOL0     H 8515   7.669   1.904   3.645  1.1121 -0.7315 -0.7179
  804MOL0     H 8516   7.535   1.643   3.740 -0.0424 -0.4975  0.1158
  804MOL0     H 8517   7.555   1.800   3.822 -0.1220 -1.6942  0.2915
  804MOL0     H 8518   7.384   1.754   3.582  0.7048 -1.8611  1.0992
  804MOL0     H 8519   7.367   1.895   3.679 -0.9692  0.1341 -1.7374
  804MOL0     H 8520   7.358   1.725   3.871  0.4001  0.7389  0.4121
  804MOL0     H 8521   7.273   1.620   3.743  1.5061  0.0725  0.3352
  804MOL0     H 8522   8.384   1.943   3.686 -0.8903 -0.5898 -0.8224
  804MOL0     H 8523   8.628   1.990   3.714  0.5774  1.3163 -0.4059
  804MOL0     H 8524   9.003   2.000   3.628 -0.4213  0.2290  0.3233
  804MOL0     H 8525   9.233   2.094   3.655  2.1473 -0.6985  1.6417
  804MOL0     H 8526  11.043   2.258   4.587 -1.4328  1.5705  1.1731
  804MOL0     H 8527  11.253   2.288   4.726 -0.6140  0.2563 -0.8329
  804MOL0     H 8528  11.351   2.206   5.351 -0.9901 -1.5081 -0.2785
  804MOL0     H 8529  11.558   2.230   5.475 -3.4577 -1.1307 -1.3119
  804MOL0     H 8530  11.781   2.186   5.558 -1.0908 -0.1591 -1.3838
  804MOL0     H 8531  11.775   2.027   5.477  0.3215 -0.5763  1.5207
  804MOL0     H 8532  12.032   2.187   5.504  0.6484  0.0879 -0.9331
  804MOL0     H 8533  12.016   2.051   5.403  1.4550  0.5402  1.1476
  804MOL0     H 8534  11.956   2.042   5.707  0.1665  1.0925 -1.1410
  804MOL0     H 8535  12.108   2.017   5.629  0.0074 -0.6589  0.7253
  804MOL0     H 8536  11.983   1.842   5.475  0.8722  1.6694 -0.0629
  804MOL0     H 8537  11.845   1.846   5.580 -0.6559 -0.4277 -2.4099
  804MOL0     H 8538  12.187   1.657   5.800 -1.6314 -1.4432  0.3611
  804MOL0     H 8539  11.759   2.151   5.108  0.3049  1.7561 -0.4369
  804MOL0     H 8540  11.565   2.130   4.984  0.8937  1.2407 -0.2004
  805MOL0     O 8541   9.372   8.956   1.973  0.0909 -0.0171 -0.1342
  805MOL0     C 8542   9.380   9.004   2.084 -0.2341 -0.6976 -0.4102
  805MOL0     O 8543   9.282   9.016   2.172  0.2246  0.1729 -0.4031
  805MOL0     C 8544   9.149   8.973   2.153  0.3861  0.5265  0.8261
  805MOL0     C 8545   9.065   8.979   2.262 -0.6251 -0.5538  0.3703
  805MOL0     C 8546   8.930   8.933   2.257 -0.7733  0.7693 -0.8099
  805MOL0     C 8547   8.881   8.876   2.137 -0.4316  0.7133  0.4682
  805MOL0     O 8548   8.755   8.827   2.138  0.0827  0.3875  0.5687
  805MOL0     C 8549   8.710   8.746   2.033  0.8505  0.4304  0.7092
  805MOL0     C 8550   8.577   8.677   2.075 -0.5873 -0.5779  0.2579
  805MOL0     C 8551   8.473   8.779   2.123 -0.1039 -0.4540  0.5977
  805MOL0     C 8552   8.347   8.703   2.163  0.2444 -0.5098  0.1327
  805MOL0     C 8553   8.215   8.785   2.192 -0.4148 -0.3368 -0.9185
  805MOL0     C 8554   8.168   8.873   2.082 -0.0710  0.0565 -0.1973
  805MOL0     C 8555   8.038   8.944   2.109  0.2826 -0.4407 -0.1913
  805MOL0     C 8556   8.005   9.055   2.003  0.5175  0.1858 -0.4026
  805MOL0     N 8557   7.888   9.125   2.044  0.4126  0.3206  0.1944
  805MOL0     C 8558   7.766   9.071   2.035  0.4828  0.0064 -0.1869
  805MOL0     C 8559   7.675   9.166   2.081  0.0346  0.2261  0.3982
  805MOL0     C 8560   7.528   9.153   2.110  0.0515 -0.2982  0.8032
  805MOL0     C 8561   7.507   9.097   2.248 -0.0402 -0.0808 -0.3736
  805MOL0     C 8562   7.357   9.073   2.268 -0.7995 -0.0830  0.4623
  805MOL0     C 8563   7.324   9.044   2.413 -0.4286  0.3941  0.4247
  805MOL0     O 8564   7.189   9.020   2.445  0.6366 -0.1253  0.1621
  805MOL0     C 8565   7.099   9.123   2.457 -0.4280 -0.6338 -0.1012
  805MOL0     C 8566   7.052   9.176   2.574  0.4677  0.4470  0.2597
  805MOL0     C 8567   6.942   9.264   2.583  0.1573  0.3834  1.0954
  805MOL0     C 8568   6.893   9.304   2.716 -0.0965  0.0320 -0.2148
  805MOL0     C 8569   6.873   9.309   2.464  0.1356  0.7012  0.5716
  805MOL0     C 8570   6.771   9.417   2.454  0.6920  0.2338 -0.2577
  805MOL0     O 8571   6.706   9.423   2.339 -0.0361 -0.1931  0.1812
  805MOL0     C 8572   6.629   9.530   2.318 -0.1781  0.0408 -0.6750
  805MOL0     C 8573   6.687   9.662   2.303  0.3683  0.0153 -0.7540
  805MOL0     C 8574   6.595   9.764   2.255 -1.1135 -0.4586  0.2297
  805MOL0     C 8575   6.462   9.731   2.231 -0.1372 -0.9753 -0.0317
  805MOL0     O 8576   6.387   9.839   2.191  0.0302 -0.1774 -0.8247
  805MOL0     C 8577   6.253   9.804   2.147 -0.1681  0.1230 -0.0639
  805MOL0     C 8578   6.193   9.914   2.068  0.2319 -0.6965  0.0065
  805MOL0     C 8579   6.073   9.855   1.991  0.1731 -0.0930 -0.0847
  805MOL0     C 8580   5.969   9.953   1.943 -0.3585 -0.2871 -0.3191
  805MOL0     C 8581   5.860   9.892   1.855 -0.2907  0.6911 -0.6875
  805MOL0     C 8582   5.758   9.984   1.801 -0.0839 -0.0273  0.0404
  805MOL0     C 8583   5.672  10.041   1.915 -0.0942 -0.2868 -0.6488
  805MOL0     C 8584   5.575  10.143   1.854  0.3145 -0.0189  0.3113
  805MOL0    Cl 8585   5.434  10.058   1.779 -0.0444  0.0207  0.7568
  805MOL0     C 8586   6.410   9.604   2.252 -0.2148  0.2079 -0.0146
  805MOL0     C 8587   6.493   9.503   2.293  0.2728  0.3293 -0.3668
  805MOL0     O 8588   6.757   9.495   2.545  0.4134  0.2603 -0.0115
  805MOL0     C 8589   6.925   9.255   2.344 -0.2653  0.4085  1.2515
  805MOL0     C 8590   7.026   9.159   2.339 -0.1299  0.2464 -0.3658
  805MOL0     N 8591   7.751   9.278   2.113 -0.0836 -0.0280 -0.2925
  805MOL0     N 8592   7.871   9.245   2.105  0.6711  0.3028  0.0154
  805MOL0     C 8593   8.962   8.872   2.023  0.1542 -0.8263 -0.5993
  805MOL0     C 8594   9.105   8.915   2.030  0.7069 -0.2161  0.9337
  805MOL0     C 8595   9.510   9.043   2.128  0.8601  0.6465  0.1367
  805MOL0     C 8596   9.533   9.050   2.271 -0.2257  0.1721  0.1222
  805MOL0     C 8597   9.656   9.099   2.321  0.4445  0.5002 -0.3685
  805MOL0     C 8598   9.755   9.141   2.236  0.4654  0.1897 -0.0155
  805MOL0     O 8599   9.875   9.193   2.284 -0.2717 -0.2550  0.4936
  805MOL0     C 8600   9.894   9.327   2.240  0.4070 -0.4557  0.2439
  805MOL0     C 8601   9.790   9.421   2.291 -0.4327 -0.1469 -0.1951
  805MOL0     C 8602   9.830   9.571   2.276  0.8638  0.5365  0.7603
  805MOL0     C 8603   9.738   9.653   2.368 -0.3201  0.3940 -0.6678
  805MOL0     C 8604   9.786   9.791   2.348  0.2202 -0.8833 -0.3199
  805MOL0     C 8605   9.821   9.908   2.325 -1.9292 -0.0032 -0.5446
  805MOL0     C 8606   9.738   9.126   2.099  0.1092  0.2941  0.1256
  805MOL0     C 8607   9.617   9.079   2.047  0.3622  0.0182 -0.1367
  805MOL0     H 8608   9.099   9.019   2.358  0.1760 -0.6197  0.1263
  805MOL0     H 8609   8.874   8.932   2.350  2.0131 -0.4009  0.9888
  805MOL0     H 8610   8.694   8.802   1.940 -0.0284 -0.4538  0.3128
  805MOL0     H 8611   8.788   8.674   2.006  2.6083  2.1963  0.8383
  805MOL0     H 8612   8.542   8.621   1.988  3.0079 -1.2962 -0.8776
  805MOL0     H 8613   8.600   8.599   2.148 -0.3130 -0.1386  0.6460
  805MOL0     H 8614   8.506   8.842   2.206 -0.2543  1.4104 -0.6935
  805MOL0     H 8615   8.449   8.850   2.043  1.5616 -0.0573  0.4263
  805MOL0     H 8616   8.327   8.640   2.076  1.8603 -0.5775 -0.2158
  805MOL0     H 8617   8.381   8.640   2.246 -1.3941 -3.3147 -1.1711
  805MOL0     H 8618   8.133   8.715   2.206 -0.3865 -0.1269  0.4064
  805MOL0     H 8619   8.216   8.857   2.275 -1.6654  1.2562 -2.2129
  805MOL0     H 8620   8.241   8.954   2.076 -0.7859  0.6320 -1.6949
  805MOL0     H 8621   8.160   8.837   1.979 -2.7429  2.6050 -1.0126
  805MOL0     H 8622   7.961   8.867   2.108  0.5203 -0.6955  0.6824
  805MOL0     H 8623   8.037   8.989   2.209  0.1246  0.9855 -0.8103
  805MOL0     H 8624   7.999   9.015   1.901 -1.3235  0.8888 -0.6089
  805MOL0     H 8625   8.090   9.123   2.006 -1.0560  2.2847 -0.6692
  805MOL0     H 8626   7.742   8.970   2.002 -0.0092  0.2280 -0.5234
  805MOL0     H 8627   7.478   9.249   2.095 -0.7381 -0.8819 -0.4640
  805MOL0     H 8628   7.474   9.093   2.036 -0.6701  0.9121  0.3087
  805MOL0     H 8629   7.544   9.163   2.327  1.2148 -3.3741  2.0657
  805MOL0     H 8630   7.563   9.005   2.271 -1.5472 -1.5546 -2.2153
  805MOL0     H 8631   7.320   8.994   2.202 -2.7018  0.2797  1.0418
  805MOL0     H 8632   7.299   9.164   2.248 -0.9928 -0.3208 -0.0835
  805MOL0     H 8633   7.348   9.132   2.473  0.2890  0.3963  0.1364
  805MOL0     H 8634   7.386   8.957   2.434  0.9954  0.1044 -3.9681
  805MOL0     H 8635   7.085   9.132   2.667 -1.4794 -0.4542  0.5763
  805MOL0     H 8636   6.784   9.295   2.717 -0.1801  0.9053  1.2394
  805MOL0     H 8637   6.922   9.230   2.792 -3.0667 -2.2553 -1.1331
  805MOL0     H 8638   6.914   9.408   2.741 -0.5867 -0.3016  1.7406
  805MOL0     H 8639   6.790   9.682   2.332  0.1117  1.9989 -1.0453
  805MOL0     H 8640   6.630   9.866   2.245  0.0943 -0.6795  1.7672
  805MOL0     H 8641   6.254   9.717   2.080 -0.7236  1.6278 -2.1326
  805MOL0     H 8642   6.184   9.787   2.230  0.4502 -1.8584  0.0971
  805MOL0     H 8643   6.167  10.000   2.131 -1.5162 -0.1851 -1.3244
  805MOL0     H 8644   6.270   9.936   1.993  0.4577 -1.3997  0.0214
  805MOL0     H 8645   6.018   9.784   2.053 -2.0081 -0.0202 -1.8222
  805MOL0     H 8646   6.116   9.802   1.905  0.7112  3.0051 -1.8799
  805MOL0     H 8647   5.930  10.009   2.029  1.0141 -0.5770  0.5169
  805MOL0     H 8648   6.018  10.018   1.870 -1.2295 -0.4902 -1.1075
  805MOL0     H 8649   5.803   9.817   1.911  0.9266 -1.4066 -2.1100
  805MOL0     H 8650   5.901   9.828   1.777  0.3727 -0.0749  0.2713
  805MOL0     H 8651   5.812  10.067   1.755  2.4200 -0.6773  1.6143
  805MOL0     H 8652   5.698   9.930   1.727  1.0700  1.4929 -2.1264
  805MOL0     H 8653   5.728  10.087   1.996  0.1750  0.4420 -1.2427
  805MOL0     H 8654   5.620   9.959   1.966  0.2424 -0.2158 -0.1788
  805MOL0     H 8655   5.622  10.212   1.783 -4.0213  1.6013 -1.3195
  805MOL0     H 8656   5.543  10.202   1.939  0.6000 -0.2527  0.5827
  805MOL0     H 8657   6.310   9.563   2.241  0.7805 -3.0378  1.6164
  805MOL0     H 8658   6.465   9.399   2.297  2.8074 -0.5078 -2.1985
  805MOL0     H 8659   6.876   9.281   2.251  0.6672 -0.8028  0.3849
  805MOL0     H 8660   7.054   9.122   2.241  1.8508  1.3067 -0.2577
  805MOL0     H 8661   8.913   8.824   1.939 -2.5762 -0.7112  0.8425
  805MOL0     H 8662   9.158   8.904   1.936  1.8759 -0.6804  1.6233
  805MOL0     H 8663   9.460   9.011   2.341 -1.9940 -0.8563 -2.1593
  805MOL0     H 8664   9.673   9.103   2.428 -2.6046 -3.0691  0.4714
  805MOL0     H 8665   9.994   9.344   2.279  0.8131 -1.5810 -0.2865
  805MOL0     H 8666   9.896   9.337   2.131 -2.0132  1.2583  0.2632
  805MOL0     H 8667   9.769   9.400   2.396 -1.8817  1.4310 -0.1329
  805MOL0     H 8668   9.696   9.409   2.236  0.2417  3.4375 -2.4505
  805MOL0     H 8669   9.826   9.592   2.168  1.3802  0.0823  0.6498
  805MOL0     H 8670   9.933   9.587   2.310  0.6015 -0.7281  2.2472
  805MOL0     H 8671   9.759   9.635   2.474 -0.5879  0.2925 -0.6311
  805MOL0     H 8672   9.630   9.654   2.356 -0.5366  1.4880  1.0140
  805MOL0     H 8673   9.859  10.008   2.310  0.3292 -0.6689  0.2794
  805MOL0     H 8674   9.827   9.149   2.042 -0.1895  0.4735 -0.2704
  805MOL0     H 8675   9.597   9.094   1.941 -2.5571  3.7221  0.7110
  806MOL0     O 8676  11.235   3.528   8.230 -0.0100 -0.8392  0.4282
  806MOL0     C 8677  11.288   3.422   8.204  0.4015  0.1157  0.2740
  806MOL0     O 8678  11.231   3.313   8.138 -0.5110 -1.7322 -0.7409
  806MOL0     C 8679  11.102   3.332   8.097  0.9064  0.3547 -0.0815
  806MOL0     C 8680  11.077   3.257   7.983 -0.1144  0.8983  0.3381
  806MOL0     C 8681  10.951   3.250   7.922 -0.1111  0.2083 -0.0903
  806MOL0     C 8682  10.845   3.312   7.987  0.3373  0.6651  0.4509
  806MOL0     O 8683  10.717   3.294   7.949  0.7972 -0.4965  0.1629
  806MOL0     C 8684  10.687   3.193   7.843  0.2637 -0.6687 -0.8396
  806MOL0     C 8685  10.541   3.188   7.833  0.2021 -0.1969 -0.4284
  806MOL0     C 8686  10.486   3.319   7.789  0.3345  0.1611  0.1628
  806MOL0     C 8687  10.344   3.298   7.739 -0.5056  0.3431  0.2185
  806MOL0     C 8688  10.267   3.419   7.691  0.0100  0.2316  0.4604
  806MOL0     C 8689  10.140   3.363   7.627  0.3291  0.7087  0.5585
  806MOL0     C 8690  10.041   3.476   7.605 -1.2439 -0.2664  0.1775
  806MOL0     C 8691   9.993   3.524   7.744 -0.6863  0.6510  0.0157
  806MOL0     N 8692   9.863   3.597   7.734 -0.4213 -0.6737  0.6620
  806MOL0     C 8693   9.745   3.543   7.680 -1.4205  0.8946 -0.3299
  806MOL0     C 8694   9.656   3.641   7.690  0.5247 -0.3498  1.5982
  806MOL0     C 8695   9.519   3.623   7.629  0.2430  0.3713  0.2457
  806MOL0     C 8696   9.520   3.659   7.483 -0.2852  0.5416 -0.4851
  806MOL0     C 8697   9.381   3.632   7.410  0.3706  0.0234 -0.4739
  806MOL0     C 8698   9.380   3.699   7.273  0.0926  0.3403  0.4907
  806MOL0     O 8699   9.244   3.706   7.227  0.0938  0.3913  1.1644
  806MOL0     C 8700   9.167   3.824   7.215  0.3913 -0.2125 -0.1575
  806MOL0     C 8701   9.155   3.922   7.318  0.2313  0.2237 -0.7739
  806MOL0     C 8702   9.078   4.042   7.308 -0.7552 -0.8357  1.1213
  806MOL0     C 8703   9.078   4.134   7.430  0.2073  0.2540 -0.2477
  806MOL0     C 8704   9.014   4.068   7.180 -0.2607 -0.3185 -0.5622
  806MOL0     C 8705   8.925   4.180   7.153 -0.1186  0.0856 -0.1986
  806MOL0     O 8706   8.864   4.177   7.028 -0.0612  0.1261  0.1284
  806MOL0     C 8707   8.827   4.302   6.989 -0.5992 -0.1646  0.3147
  806MOL0     C 8708   8.911   4.411   6.961 -0.3160  0.1671  0.3043
  806MOL0     C 8709   8.868   4.529   6.911 -0.0209  0.4406  0.5160
  806MOL0     C 8710   8.730   4.549   6.880 -0.0240  0.6768  0.1899
  806MOL0     O 8711   8.686   4.665   6.818  0.5335 -0.7214  0.6786
  806MOL0     C 8712   8.762   4.787   6.846  0.2063  0.7431 -0.1193
  806MOL0     C 8713   8.675   4.906   6.827 -1.0311  0.2452 -0.3030
  806MOL0     C 8714   8.735   5.029   6.904  0.9730  0.5157  0.4768
  806MOL0     C 8715   8.858   5.087   6.819  0.2939 -0.6832 -0.0933
  806MOL0     C 8716   8.946   5.201   6.892  0.8364 -0.1070  0.5574
  806MOL0     C 8717   9.030   5.142   7.014 -0.1526 -0.3775 -0.5614
  806MOL0     C 8718   9.127   5.250   7.068  0.0995  0.6048  0.6703
  806MOL0     C 8719   9.174   5.207   7.210  0.4214  0.4588 -1.1421
  806MOL0    Cl 8720   9.280   5.060   7.219  0.5188 -0.2643  0.2992
  806MOL0     C 8721   8.647   4.437   6.898 -0.9328 -0.9902  0.5878
  806MOL0     C 8722   8.693   4.324   6.956  0.4733 -0.2448  0.5496
  806MOL0     O 8723   8.903   4.265   7.239  0.6397  0.1416  0.4779
  806MOL0     C 8724   9.036   3.968   7.074  0.4039 -0.7915 -0.1822
  806MOL0     C 8725   9.106   3.850   7.093 -0.0678  0.5536  0.1053
  806MOL0     N 8726   9.713   3.753   7.734  0.7984  0.2164 -0.1919
  806MOL0     N 8727   9.835   3.728   7.759  0.0051  0.9678 -0.4385
  806MOL0     C 8728  10.864   3.378   8.106 -0.7664  0.5333  0.2940
  806MOL0     C 8729  10.991   3.392   8.165 -0.7139 -0.4033 -0.3418
  806MOL0     C 8730  11.431   3.407   8.246 -0.0404  0.4478 -0.1009
  806MOL0     C 8731  11.496   3.282   8.226  0.1591  0.8183  1.4680
  806MOL0     C 8732  11.631   3.268   8.259 -0.5203 -0.5358  0.0565
  806MOL0     C 8733  11.701   3.377   8.310 -1.1808  0.5238 -0.5395
  806MOL0     O 8734  11.839   3.376   8.324 -0.0951  0.0888  0.2097
  806MOL0     C 8735  11.903   3.451   8.211 -0.6226 -0.1499 -0.3076
  806MOL0     C 8736  12.052   3.445   8.218  0.6943 -0.0599 -0.3989
  806MOL0     C 8737  12.116   3.520   8.340  0.4386  0.8451  0.3931
  806MOL0     C 8738  12.269   3.531   8.320  0.3093  0.3983 -0.3573
  806MOL0     C 8739  12.340   3.396   8.330  0.2818 -0.7617  0.4289
  806MOL0     C 8740  12.394   3.292   8.346  0.0461  0.0920  0.2988
  806MOL0     C 8741  11.641   3.497   8.344 -0.4411 -0.2994 -0.3519
  806MOL0     C 8742  11.500   3.513   8.307  0.3888  0.4692  0.5153
  806MOL0     H 8743  11.166   3.215   7.937 -1.3831 -0.3994 -1.0733
  806MOL0     H 8744  10.935   3.196   7.830 -2.6433 -3.6900  2.3055
  806MOL0     H 8745  10.734   3.237   7.755 -0.6927  1.7398 -0.2310
  806MOL0     H 8746  10.727   3.102   7.890  0.2967 -0.3038 -0.1381
  806MOL0     H 8747  10.521   3.114   7.755 -3.7322  0.7625 -0.5585
  806MOL0     H 8748  10.494   3.143   7.921  1.2780 -2.2479 -0.8359
  806MOL0     H 8749  10.484   3.394   7.869  0.0643  2.5323 -1.9452
  806MOL0     H 8750  10.544   3.361   7.706 -2.8716  1.3196 -1.6822
  806MOL0     H 8751  10.344   3.219   7.663  2.0801 -0.3892  0.8723
  806MOL0     H 8752  10.286   3.263   7.825  1.7301  0.8461  2.0405
  806MOL0     H 8753  10.244   3.487   7.774  1.0316 -0.4418  1.3254
  806MOL0     H 8754  10.319   3.475   7.613  0.3416  0.7988  1.0736
  806MOL0     H 8755  10.168   3.314   7.533 -1.7030 -1.7073  1.1126
  806MOL0     H 8756  10.091   3.285   7.685  2.5007 -1.3598 -0.2127
  806MOL0     H 8757  10.093   3.557   7.554  1.6162 -0.6066  2.2928
  806MOL0     H 8758   9.958   3.441   7.544 -0.7570 -1.7206  0.2939
  806MOL0     H 8759  10.063   3.585   7.802 -1.1668 -0.4486  1.8001
  806MOL0     H 8760   9.971   3.433   7.800 -0.9514  0.3511 -0.5674
  806MOL0     H 8761   9.733   3.439   7.652 -0.8723  0.7538 -0.0730
  806MOL0     H 8762   9.474   3.524   7.644 -2.7832  1.5029 -0.5420
  806MOL0     H 8763   9.449   3.687   7.682  1.7734  1.9933  0.4068
  806MOL0     H 8764   9.584   3.584   7.435  0.0730  0.8442 -0.4824
  806MOL0     H 8765   9.555   3.762   7.472  0.6172  0.7225  2.9569
  806MOL0     H 8766   9.298   3.681   7.462 -1.9449 -2.7498 -1.3032
  806MOL0     H 8767   9.357   3.525   7.408 -0.8362  0.2865 -1.6014
  806MOL0     H 8768   9.441   3.646   7.201 -2.1344  0.9137 -1.9692
  806MOL0     H 8769   9.420   3.800   7.290 -1.5494  1.2745 -0.8445
  806MOL0     H 8770   9.209   3.891   7.408  0.5627 -1.5318 -1.5334
  806MOL0     H 8771   9.002   4.107   7.504  1.2863 -3.0673 -0.1966
  806MOL0     H 8772   9.176   4.128   7.479 -1.1358 -1.0039  2.5170
  806MOL0     H 8773   9.058   4.239   7.408 -0.5915  0.5640  1.7726
  806MOL0     H 8774   9.016   4.392   6.980 -0.7842 -2.2407  0.7111
  806MOL0     H 8775   8.943   4.599   6.876  0.4436 -0.8042 -1.1433
  806MOL0     H 8776   8.812   4.790   6.944  0.0778  1.4968 -0.0722
  806MOL0     H 8777   8.850   4.788   6.782  0.1533  1.0681 -0.1865
  806MOL0     H 8778   8.671   4.926   6.719  0.9586  2.0051 -0.1134
  806MOL0     H 8779   8.572   4.884   6.854 -0.5961 -3.4750 -1.1239
  806MOL0     H 8780   8.759   4.994   7.005  2.8816  1.0510  0.2511
  806MOL0     H 8781   8.653   5.099   6.921  0.7482  0.0417  1.4247
  806MOL0     H 8782   8.914   4.995   6.800  0.4300 -1.4386  3.2713
  806MOL0     H 8783   8.827   5.129   6.723 -0.6397 -0.3567  0.3318
  806MOL0     H 8784   8.873   5.276   6.925  0.2745 -1.1925  1.8910
  806MOL0     H 8785   9.004   5.258   6.819  0.7153 -0.9471 -0.2108
  806MOL0     H 8786   8.958   5.125   7.095 -0.7888 -0.1173 -1.0590
  806MOL0     H 8787   9.077   5.045   6.994 -4.4232 -2.3643 -2.2262
  806MOL0     H 8788   9.079   5.348   7.073 -1.6892 -0.1693 -0.4790
  806MOL0     H 8789   9.205   5.258   6.993 -0.6347 -0.9235 -0.3014
  806MOL0     H 8790   9.093   5.188   7.280  0.7544  0.9328 -0.6196
  806MOL0     H 8791   9.229   5.291   7.253 -0.5245  0.6859 -0.3560
  806MOL0     H 8792   8.539   4.445   6.891 -0.7869  1.7641  0.6054
  806MOL0     H 8793   8.617   4.250   6.981  3.6553 -3.8457  0.4898
  806MOL0     H 8794   8.991   3.975   6.976 -1.2607 -1.5798  0.4963
  806MOL0     H 8795   9.105   3.772   7.018 -1.9566 -1.1052  1.7154
  806MOL0     H 8796  10.774   3.419   8.152 -1.8908 -0.2494 -1.1164
  806MOL0     H 8797  10.997   3.448   8.257 -2.9272  0.5656 -0.7212
  806MOL0     H 8798  11.438   3.196   8.194  0.8542  0.6133  0.7125
  806MOL0     H 8799  11.684   3.178   8.228 -0.6765 -0.9782  1.0463
  806MOL0     H 8800  11.872   3.402   8.118 -0.4829 -1.1634  0.1565
  806MOL0     H 8801  11.869   3.554   8.199  1.4010  0.3455 -2.6587
  806MOL0     H 8802  12.085   3.483   8.121  2.1948 -0.8565 -0.2326
  806MOL0     H 8803  12.074   3.337   8.216 -2.2827 -0.7965  1.0182
  806MOL0     H 8804  12.079   3.479   8.434 -0.5491 -1.4804 -0.9247
  806MOL0     H 8805  12.083   3.624   8.338 -2.1553  0.0845 -1.4642
  806MOL0     H 8806  12.298   3.590   8.408 -0.9373  1.1113 -0.4110
  806MOL0     H 8807  12.301   3.583   8.230  4.9479 -1.1071  0.1311
  806MOL0     H 8808  12.441   3.198   8.370 -3.5673 -1.6766  1.1220
  806MOL0     H 8809  11.699   3.582   8.379  0.5368 -0.3337 -1.7734
  806MOL0     H 8810  11.447   3.608   8.308  0.8254  0.8563 -2.7069
  807MOL0     O 8811   6.626   8.155   7.916  0.3970  0.1345 -0.1684
  807MOL0     C 8812   6.705   8.068   7.881  0.1435 -0.2464 -0.2078
  807MOL0     O 8813   6.690   7.940   7.892  0.9191  0.6942 -0.4034
  807MOL0     C 8814   6.579   7.889   7.950  0.1227  0.6650  0.3061
  807MOL0     C 8815   6.588   7.812   8.072  0.5972  0.2582  0.8043
  807MOL0     C 8816   6.475   7.766   8.129 -0.1954  0.5130  0.0235
  807MOL0     C 8817   6.348   7.789   8.082  0.1983 -0.2600 -0.5899
  807MOL0     O 8818   6.251   7.744   8.166  0.5101  0.6346 -0.0498
  807MOL0     C 8819   6.112   7.741   8.119  0.3246  0.1969  0.1835
  807MOL0     C 8820   6.040   7.869   8.161  1.5310 -0.1822  0.3037
  807MOL0     C 8821   5.888   7.854   8.128  0.5577  0.0294  0.2173
  807MOL0     C 8822   5.809   7.925   8.232 -0.9485 -0.4137 -0.0838
  807MOL0     C 8823   5.664   7.908   8.217  0.3408  0.3220  0.4021
  807MOL0     C 8824   5.598   7.997   8.333 -0.3567 -0.3597 -0.3367
  807MOL0     C 8825   5.446   8.000   8.338  0.4062  0.0281  0.0849
  807MOL0     C 8826   5.404   8.059   8.475  0.5103 -0.3994  0.4666
  807MOL0     N 8827   5.268   8.106   8.489  0.8643  0.0009 -0.1657
  807MOL0     C 8828   5.232   8.237   8.500 -0.3049 -0.3735  0.2276
  807MOL0     C 8829   5.099   8.231   8.529  0.1118  0.2026 -0.5044
  807MOL0     C 8830   5.017   8.345   8.583  0.1425  0.1725 -0.2624
  807MOL0     C 8831   4.967   8.434   8.470  0.1612  0.3530  0.1010
  807MOL0     C 8832   4.853   8.369   8.397 -0.6100  0.0399 -0.7075
  807MOL0     C 8833   4.762   8.476   8.332 -0.6967  0.3437  0.3104
  807MOL0     O 8834   4.668   8.402   8.249  0.4369 -0.7046 -0.3402
  807MOL0     C 8835   4.534   8.440   8.246  0.5544 -0.1026 -0.1661
  807MOL0     C 8836   4.485   8.570   8.285  0.3323  0.3314 -0.6530
  807MOL0     C 8837   4.349   8.602   8.262  0.5440 -0.4632  0.7955
  807MOL0     C 8838   4.309   8.748   8.266  0.1984 -0.1302  0.0416
  807MOL0     C 8839   4.258   8.500   8.223  0.1618  0.4235 -0.1866
  807MOL0     C 8840   4.119   8.517   8.188  0.1598 -0.3607 -0.3246
  807MOL0     O 8841   4.071   8.452   8.072 -0.5225  0.0910 -0.1154
  807MOL0     C 8842   3.942   8.467   8.031 -0.1470 -0.1533  0.4613
  807MOL0     C 8843   3.890   8.360   7.956  0.2545 -0.4937 -0.2397
  807MOL0     C 8844   3.759   8.362   7.915  0.0950  0.6180 -0.2150
  807MOL0     C 8845   3.683   8.472   7.944  0.2378 -0.3910  0.1361
  807MOL0     O 8846   3.555   8.452   7.909 -0.3556 -0.3383 -0.0757
  807MOL0     C 8847   3.450   8.556   7.907 -0.7492  0.4255 -0.2174
  807MOL0     C 8848   3.394   8.569   8.049  0.6815  0.2001  1.0025
  807MOL0     C 8849   3.333   8.441   8.101 -0.7009  0.3966 -0.2882
  807MOL0     C 8850   3.205   8.392   8.022 -0.4180 -0.4039  0.2459
  807MOL0     C 8851   3.113   8.303   8.104 -0.5709 -0.2987 -0.1619
  807MOL0     C 8852   2.982   8.274   8.033 -0.9362 -0.0120  0.7314
  807MOL0     C 8853   2.873   8.386   8.034 -0.4159  0.5365 -0.2551
  807MOL0     C 8854   2.738   8.347   7.969 -0.2494 -0.2374  0.1848
  807MOL0    Cl 8855   2.766   8.297   7.802  0.0001 -0.6953  0.0616
  807MOL0     C 8856   3.742   8.588   8.002  0.3617  0.0769 -1.0076
  807MOL0     C 8857   3.876   8.584   8.046 -0.1523 -1.5028  0.0138
  807MOL0     O 8858   4.054   8.584   8.269  0.4307  0.5213 -0.7536
  807MOL0     C 8859   4.300   8.371   8.210  0.1096  0.3447  1.2447
  807MOL0     C 8860   4.440   8.342   8.205 -0.1405 -0.0198 -0.5441
  807MOL0     N 8861   5.058   8.096   8.531 -0.5030 -0.3962 -0.1294
  807MOL0     N 8862   5.158   8.030   8.489 -0.7696  0.4913  0.1365
  807MOL0     C 8863   6.336   7.864   7.966 -0.1345  0.6125  0.4651
  807MOL0     C 8864   6.446   7.916   7.902 -0.3217  0.6227  0.4700
  807MOL0     C 8865   6.844   8.109   7.834  1.2302  0.6614  0.0002
  807MOL0     C 8866   6.878   8.242   7.840  0.6373 -0.6567  0.1216
  807MOL0     C 8867   7.006   8.286   7.799  0.3614 -0.0221 -0.1645
  807MOL0     C 8868   7.106   8.184   7.769 -0.3566  0.1793  0.0377
  807MOL0     O 8869   7.228   8.231   7.740  0.0528 -0.4467  0.0049
  807MOL0     C 8870   7.342   8.147   7.726 -0.2918 -0.2353 -0.1018
  807MOL0     C 8871   7.342   8.059   7.596  0.1546  1.5851  0.5276
  807MOL0     C 8872   7.326   8.142   7.468 -0.6436 -0.3228  0.3960
  807MOL0     C 8873   7.307   8.070   7.335 -0.1066  0.2599 -0.1988
  807MOL0     C 8874   7.298   8.178   7.238  0.7210 -0.1038  0.5041
  807MOL0     C 8875   7.286   8.272   7.165  0.9161 -0.2291 -0.0590
  807MOL0     C 8876   7.070   8.051   7.772  0.0756 -0.5522  0.4287
  807MOL0     C 8877   6.941   8.011   7.805  0.0036 -0.6264 -0.3227
  807MOL0     H 8878   6.684   7.778   8.109  0.4812 -2.2757 -0.9274
  807MOL0     H 8879   6.481   7.710   8.222 -2.4008  1.1347  0.5949
  807MOL0     H 8880   6.111   7.717   8.012 -1.1012  1.3228 -0.0923
  807MOL0     H 8881   6.055   7.662   8.170  0.5824  0.1133  0.3405
  807MOL0     H 8882   6.061   7.871   8.268  1.3420 -0.2318  0.3436
  807MOL0     H 8883   6.083   7.960   8.119 -0.0608  1.0725  1.2731
  807MOL0     H 8884   5.864   7.896   8.030  0.4706 -1.7064 -0.5565
  807MOL0     H 8885   5.854   7.750   8.133 -2.5249  0.8900 -0.8018
  807MOL0     H 8886   5.839   7.896   8.333  2.3432  2.0110 -0.2009
  807MOL0     H 8887   5.830   8.032   8.228  0.1618 -0.6413 -1.2575
  807MOL0     H 8888   5.633   7.943   8.119  0.2221 -2.3661 -0.6143
  807MOL0     H 8889   5.636   7.802   8.224 -2.5837  0.6963 -2.9361
  807MOL0     H 8890   5.632   7.963   8.431 -1.0055  2.5773  1.0306
  807MOL0     H 8891   5.642   8.097   8.329 -1.1191  0.2808  3.4679
  807MOL0     H 8892   5.400   8.062   8.261 -1.7602  0.8239  1.9059
  807MOL0     H 8893   5.425   7.893   8.325  2.7853 -0.5873  0.6553
  807MOL0     H 8894   5.475   8.138   8.499  1.8665 -1.2621 -0.5866
  807MOL0     H 8895   5.425   7.986   8.553  0.5446 -1.0940 -0.1832
  807MOL0     H 8896   5.291   8.328   8.504 -2.1862  0.9031  0.2851
  807MOL0     H 8897   4.933   8.312   8.644 -0.2438 -1.8038 -1.7558
  807MOL0     H 8898   5.089   8.393   8.650 -0.7325  0.1396  0.7203
  807MOL0     H 8899   5.045   8.461   8.398  0.1699 -0.9913 -0.4102
  807MOL0     H 8900   4.943   8.527   8.523 -1.9298  1.3309 -2.3028
  807MOL0     H 8901   4.801   8.291   8.454  0.1637 -0.3248 -0.4800
  807MOL0     H 8902   4.892   8.308   8.315  0.5909 -0.6330  0.3143
  807MOL0     H 8903   4.819   8.542   8.267 -1.4533  1.8000  1.0483
  807MOL0     H 8904   4.715   8.527   8.417  0.5925 -1.6687  2.3512
  807MOL0     H 8905   4.549   8.654   8.309  0.2006 -0.1873  1.7304
  807MOL0     H 8906   4.249   8.764   8.176 -1.2218 -2.1986  0.5449
  807MOL0     H 8907   4.250   8.771   8.356  0.3740 -0.8833  0.3581
  807MOL0     H 8908   4.395   8.814   8.256  1.4380 -1.8467 -1.1267
  807MOL0     H 8909   3.947   8.268   7.945  1.2425 -0.4623  3.4189
  807MOL0     H 8910   3.712   8.271   7.881 -0.1213 -0.1181  1.9479
  807MOL0     H 8911   3.484   8.647   7.856 -0.9353  1.5066  1.4894
  807MOL0     H 8912   3.376   8.507   7.844  1.4454 -3.0345 -0.3907
  807MOL0     H 8913   3.457   8.622   8.121  0.2224  1.5901  0.4259
  807MOL0     H 8914   3.317   8.646   8.042  1.4235  0.8227 -1.0426
  807MOL0     H 8915   3.297   8.460   8.202 -0.3226  1.9795 -0.4143
  807MOL0     H 8916   3.412   8.365   8.108  0.1185  1.2525  0.1067
  807MOL0     H 8917   3.149   8.478   7.986  0.8702 -0.4231 -1.9523
  807MOL0     H 8918   3.236   8.348   7.927 -0.1046 -1.3772  0.7795
  807MOL0     H 8919   3.099   8.344   8.205  2.0024 -2.5922  1.2512
  807MOL0     H 8920   3.163   8.207   8.119 -0.6764 -0.3096  0.1320
  807MOL0     H 8921   3.009   8.229   7.937 -0.5742  2.0179 -0.1527
  807MOL0     H 8922   2.944   8.195   8.098 -1.4412  1.8398  2.8096
  807MOL0     H 8923   2.920   8.468   7.980 -0.3466  0.5057 -0.2409
  807MOL0     H 8924   2.864   8.420   8.137  5.8289  1.8108  0.2767
  807MOL0     H 8925   2.674   8.436   7.967  1.4578  1.0379 -1.7245
  807MOL0     H 8926   2.693   8.263   8.022 -0.7405  0.1191  0.3408
  807MOL0     H 8927   3.686   8.680   8.012  0.6289  0.2865 -1.3867
  807MOL0     H 8928   3.931   8.667   8.089 -0.6615 -1.1609  0.0259
  807MOL0     H 8929   4.242   8.294   8.160 -1.3111  2.0251  0.1840
  807MOL0     H 8930   4.480   8.248   8.170 -1.5277 -0.9125  0.1588
  807MOL0     H 8931   6.241   7.882   7.917  0.0050  3.1807  0.9624
  807MOL0     H 8932   6.428   7.979   7.815  0.4771 -0.9248 -0.8768
  807MOL0     H 8933   6.807   8.322   7.858  0.5484 -0.7579  0.2201
  807MOL0     H 8934   7.036   8.389   7.784  0.3264 -0.3117 -2.7093
  807MOL0     H 8935   7.435   8.204   7.722 -0.6339  0.5464  1.8635
  807MOL0     H 8936   7.355   8.085   7.815  2.0490  0.0206 -0.2069
  807MOL0     H 8937   7.260   7.987   7.604 -0.6598  2.3860 -0.3858
  807MOL0     H 8938   7.433   7.999   7.587 -0.6962  0.3487 -0.2210
  807MOL0     H 8939   7.412   8.209   7.455 -1.0359 -0.1695 -2.0178
  807MOL0     H 8940   7.245   8.215   7.479  0.2093  0.3713  2.6246
  807MOL0     H 8941   7.213   8.015   7.339  0.3567 -0.5010  0.8340
  807MOL0     H 8942   7.385   7.995   7.322 -0.1701  0.2073 -0.2732
  807MOL0     H 8943   7.279   8.350   7.091 -0.2513  0.3643  0.6448
  807MOL0     H 8944   7.138   7.967   7.763  1.4351  0.1861  2.9115
  807MOL0     H 8945   6.906   7.911   7.825 -1.8483  0.4054  2.1713
  808MOL0     O 8946   1.499   0.668   2.147  0.4281 -0.6013 -0.3787
  808MOL0     C 8947   1.586   0.726   2.079 -0.0355  0.0952 -0.3136
  808MOL0     O 8948   1.568   0.783   1.953  0.7157 -0.0243  0.3541
  808MOL0     C 8949   1.443   0.775   1.901  0.1804 -0.5033 -0.4407
  808MOL0     C 8950   1.328   0.802   1.973  0.2933 -0.1463 -0.6460
  808MOL0     C 8951   1.199   0.797   1.915  0.7043 -0.8234 -0.4021
  808MOL0     C 8952   1.185   0.775   1.781  0.2888 -0.5145  0.6416
  808MOL0     O 8953   1.072   0.784   1.706  0.3142 -0.0760  0.0746
  808MOL0     C 8954   0.943   0.763   1.757 -0.8958  0.2785  0.1648
  808MOL0     C 8955   0.902   0.900   1.803 -0.7486 -1.1839 -0.4681
  808MOL0     C 8956   0.759   0.940   1.787 -0.3013 -0.0513 -0.9457
  808MOL0     C 8957   0.683   0.866   1.680 -0.1570 -0.0964 -0.5352
  808MOL0     C 8958   0.527   0.891   1.667 -0.4435 -0.9122 -0.4092
  808MOL0     C 8959   0.469   0.785   1.577 -0.3458 -0.2361  0.0062
  808MOL0     C 8960   0.331   0.837   1.536  0.3600  0.4818  0.2618
  808MOL0     C 8961   0.249   0.735   1.458  0.7957  0.7305 -0.3486
  808MOL0     N 8962   0.111   0.780   1.446 -0.9780  0.4471  0.6135
  808MOL0     C 8963   0.067   0.889   1.377  0.9582 -0.5002 -0.0927
  808MOL0     C 8964  -0.065   0.893   1.418  0.2854 -0.0198 -0.4970
  808MOL0     C 8965  -0.146   1.013   1.377  0.3512 -0.1218  0.7170
  808MOL0     C 8966  -0.192   1.001   1.232  1.1029  0.4670  0.0908
  808MOL0     C 8967  -0.099   1.057   1.123  0.5079 -0.3894  0.5188
  808MOL0     C 8968  -0.153   1.021   0.982  0.3962 -0.4146  0.1690
  808MOL0     O 8969  -0.292   1.044   0.960  0.7535  0.3823 -0.0146
  808MOL0     C 8970  -0.335   1.173   0.944 -0.0863  0.2273  0.0325
  808MOL0     C 8971  -0.253   1.291   0.961  0.5146 -0.1368 -0.0602
  808MOL0     C 8972  -0.307   1.418   0.929 -0.4110  0.6682 -0.1770
  808MOL0     C 8973  -0.211   1.536   0.924  1.1785 -0.8352  0.0899
  808MOL0     C 8974  -0.448   1.434   0.898 -0.2920  0.7142  0.4520
  808MOL0     C 8975  -0.514   1.568   0.894 -0.0832 -0.1609 -1.2858
  808MOL0     O 8976  -0.449   1.685   0.908  0.4668 -0.1529 -0.0453
  808MOL0     C 8977  -0.520   1.795   0.933 -0.2320 -0.0311  0.3604
  808MOL0     C 8978  -0.620   1.812   1.028 -0.5890 -0.6757  0.3854
  808MOL0     C 8979  -0.698   1.933   1.023 -0.3722 -0.1145  0.4026
  808MOL0     C 8980  -0.667   2.029   0.935 -0.0943  1.2419  0.5596
  808MOL0     O 8981  -0.752   2.134   0.911  0.4459  0.1120  0.0005
  808MOL0     C 8982  -0.820   2.202   1.018 -0.6261  0.1517  0.1458
  808MOL0     C 8983  -0.972   2.176   1.031  0.2763  0.6607  0.2377
  808MOL0     C 8984  -1.058   2.167   0.901 -0.2803  0.4476  0.9093
  808MOL0     C 8985  -1.086   2.319   0.848 -0.4551 -0.0591  0.9408
  808MOL0     C 8986  -1.215   2.368   0.923  0.1777 -0.3267 -0.2969
  808MOL0     C 8987  -1.274   2.504   0.860 -0.0927 -0.2765  0.3755
  808MOL0     C 8988  -1.365   2.468   0.737 -0.4629 -0.1779  0.2617
  808MOL0     C 8989  -1.430   2.587   0.675 -0.3818  0.5959 -0.4849
  808MOL0    Cl 8990  -1.532   2.681   0.801  0.1686 -0.1742 -0.1866
  808MOL0     C 8991  -0.563   2.015   0.845 -1.0670 -0.6581 -0.6872
  808MOL0     C 8992  -0.487   1.899   0.845  0.3335 -0.3499  0.6701
  808MOL0     O 8993  -0.639   1.566   0.881  0.5529  0.0540  0.0601
  808MOL0     C 8994  -0.525   1.319   0.880  0.2627  0.3958 -0.3672
  808MOL0     C 8995  -0.471   1.186   0.903  0.2370  0.0343  0.4735
  808MOL0     N 8996  -0.099   0.781   1.496 -0.4198  0.2714 -0.6121
  808MOL0     N 8997   0.012   0.720   1.511  0.1794  0.3598  0.6291
  808MOL0     C 8998   1.298   0.740   1.709 -0.3478 -0.3005 -0.6652
  808MOL0     C 8999   1.425   0.741   1.766 -0.0220  0.5286  0.1938
  808MOL0     C 9000   1.713   0.747   2.142 -0.0992 -0.3157 -0.5166
  808MOL0     C 9001   1.745   0.683   2.273 -0.2779 -0.4873  0.2116
  808MOL0     C 9002   1.868   0.692   2.330  0.2005  0.5517  0.0128
  808MOL0     C 9003   1.976   0.764   2.277 -0.2422  0.6220  0.8306
  808MOL0     O 9004   2.090   0.762   2.350 -0.6503  0.4133 -0.1498
  808MOL0     C 9005   2.201   0.833   2.298  0.3155  0.5331 -0.8229
  808MOL0     C 9006   2.320   0.832   2.395  0.0245  0.9003  0.7717
  808MOL0     C 9007   2.437   0.917   2.341  0.3028  0.1714  0.0307
  808MOL0     C 9008   2.570   0.880   2.403 -0.2548  0.1543 -0.0821
  808MOL0     C 9009   2.657   0.995   2.409  0.7028 -0.1997 -0.7508
  808MOL0     C 9010   2.744   1.085   2.412  0.4620  1.2724 -0.3148
  808MOL0     C 9011   1.944   0.825   2.150 -0.6378  0.6043  0.4201
  808MOL0     C 9012   1.815   0.821   2.093  0.1798  0.5021 -0.0395
  808MOL0     H 9013   1.339   0.832   2.077 -1.9427  0.1749 -0.4387
  808MOL0     H 9014   1.117   0.810   1.985  1.4102  1.0092  0.1400
  808MOL0     H 9015   0.887   0.739   1.666 -1.2813  3.9986 -0.7353
  808MOL0     H 9016   0.930   0.677   1.823 -0.8787 -0.9355 -1.3749
  808MOL0     H 9017   0.940   0.919   1.904 -0.5525 -0.8593 -0.6008
  808MOL0     H 9018   0.960   0.973   1.745  0.3018  0.8602  2.8426
  808MOL0     H 9019   0.723   0.912   1.886  0.2320 -0.2300 -0.7980
  808MOL0     H 9020   0.747   1.048   1.772  0.0960  0.2950  0.9716
  808MOL0     H 9021   0.723   0.875   1.578 -0.9810  1.5530 -0.7391
  808MOL0     H 9022   0.690   0.761   1.711 -1.9705 -0.7632 -2.1994
  808MOL0     H 9023   0.482   0.880   1.766  1.9277  1.0977  0.9959
  808MOL0     H 9024   0.510   0.993   1.630 -0.2860 -0.5843  0.3883
  808MOL0     H 9025   0.530   0.767   1.488 -1.2708 -0.3872 -0.6098
  808MOL0     H 9026   0.455   0.690   1.630 -2.9708 -0.5901 -1.1598
  808MOL0     H 9027   0.280   0.872   1.626  2.3342  2.6134  0.6219
  808MOL0     H 9028   0.342   0.924   1.472 -3.1536  1.8721  1.3125
  808MOL0     H 9029   0.249   0.641   1.514  1.9864  0.2643 -1.0964
  808MOL0     H 9030   0.282   0.719   1.355 -2.1553 -1.0906 -1.1256
  808MOL0     H 9031   0.118   0.973   1.331 -0.0149  0.3842  0.3642
  808MOL0     H 9032  -0.235   1.022   1.440  0.9331  1.5024  1.3677
  808MOL0     H 9033  -0.098   1.109   1.394 -2.9222  1.8542 -0.2944
  808MOL0     H 9034  -0.288   1.051   1.214  1.4486  0.8148 -0.8361
  808MOL0     H 9035  -0.211   0.895   1.208  2.2878  0.0573  0.8665
  808MOL0     H 9036   0.002   1.017   1.119 -0.1278 -2.3068  2.0180
  808MOL0     H 9037  -0.113   1.166   1.125  0.8254 -0.2780 -1.4712
  808MOL0     H 9038  -0.141   0.913   0.972 -1.9451 -0.8557  1.4880
  808MOL0     H 9039  -0.098   1.075   0.905 -2.9474 -1.7431 -3.4593
  808MOL0     H 9040  -0.149   1.299   0.988  0.2030  0.1637  1.0799
  808MOL0     H 9041  -0.239   1.592   0.834 -2.0296 -1.4052  0.5853
  808MOL0     H 9042  -0.227   1.606   1.007  1.6113  0.9931 -1.2971
  808MOL0     H 9043  -0.106   1.509   0.919  0.8253 -2.3434  0.4593
  808MOL0     H 9044  -0.650   1.721   1.079  0.8004 -0.5229  1.5582
  808MOL0     H 9045  -0.786   1.932   1.086  0.8258  0.5346  2.1710
  808MOL0     H 9046  -0.769   2.176   1.111  3.9223  4.5197 -0.6944
  808MOL0     H 9047  -0.813   2.311   1.011  0.1971  0.3724  3.0072
  808MOL0     H 9048  -0.974   2.079   1.082  0.2083  1.0434  0.9727
  808MOL0     H 9049  -1.019   2.248   1.099  0.2400  2.6415 -1.7717
  808MOL0     H 9050  -1.149   2.110   0.925  0.0646 -0.0797  0.9943
  808MOL0     H 9051  -1.000   2.107   0.830 -1.6546  0.5397 -0.3303
  808MOL0     H 9052  -0.997   2.383   0.842 -0.1461 -0.6094 -2.3108
  808MOL0     H 9053  -1.115   2.306   0.743  1.9744 -0.2175  0.2055
  808MOL0     H 9054  -1.182   2.395   1.024 -0.5841 -0.0085 -0.1253
  808MOL0     H 9055  -1.289   2.288   0.918  0.0225 -0.1848 -0.2618
  808MOL0     H 9056  -1.330   2.556   0.938 -1.5710 -1.3901  0.1118
  808MOL0     H 9057  -1.193   2.569   0.827 -1.4120  0.9593 -0.5840
  808MOL0     H 9058  -1.440   2.394   0.765  2.9737 -3.1663  2.3671
  808MOL0     H 9059  -1.307   2.429   0.653  0.4364  0.1476  0.7286
  808MOL0     H 9060  -1.491   2.564   0.588 -0.5435 -0.2978 -0.1486
  808MOL0     H 9061  -1.346   2.653   0.651 -0.6144  0.2401 -2.3828
  808MOL0     H 9062  -0.543   2.092   0.771  0.8480 -2.0574 -1.7406
  808MOL0     H 9063  -0.415   1.886   0.765  0.7119 -0.7726  1.0747
  808MOL0     H 9064  -0.632   1.326   0.861 -0.6420 -1.8966  3.0403
  808MOL0     H 9065  -0.534   1.099   0.888  2.1218 -1.6176  1.6419
  808MOL0     H 9066   1.295   0.715   1.603  1.4109 -2.0396 -0.3776
  808MOL0     H 9067   1.509   0.700   1.711 -0.2411  2.2225 -1.5062
  808MOL0     H 9068   1.671   0.624   2.327  0.2611  0.1826  1.7281
  808MOL0     H 9069   1.897   0.630   2.414  0.9067  0.0568 -0.5835
  808MOL0     H 9070   2.224   0.793   2.199  0.8849 -0.4510 -0.3116
  808MOL0     H 9071   2.175   0.939   2.289 -0.9513  0.2464 -0.8488
  808MOL0     H 9072   2.344   0.726   2.390 -0.3829  0.8167  0.5500
  808MOL0     H 9073   2.298   0.860   2.499 -0.4954 -2.1743  1.5877
  808MOL0     H 9074   2.407   1.016   2.375 -2.3205 -1.3895  2.8388
  808MOL0     H 9075   2.436   0.909   2.232 -0.8162 -1.4383  0.1228
  808MOL0     H 9076   2.626   0.812   2.339  2.5483  3.2522 -1.1749
  808MOL0     H 9077   2.546   0.829   2.498  0.9254  0.4928  0.4102
  808MOL0     H 9078   2.817   1.164   2.415  0.5345  1.2023 -0.2375
  808MOL0     H 9079   2.023   0.873   2.093 -2.1453 -1.0109 -3.3646
  808MOL0     H 9080   1.782   0.872   2.002  0.6199  1.6649  0.4326
  809MOL0     O 9081   7.285   2.841   5.179  0.5991  0.1682  0.4658
  809MOL0     C 9082   7.234   2.743   5.226 -0.2958 -0.0364  0.0992
  809MOL0     O 9083   7.100   2.717   5.223 -0.0262 -0.0535 -0.3472
  809MOL0     C 9084   7.018   2.787   5.140  0.1341 -0.5583 -0.4747
  809MOL0     C 9085   6.931   2.708   5.068 -0.3636 -0.1823  0.1282
  809MOL0     C 9086   6.827   2.760   4.990 -0.0203 -0.7446 -0.2549
  809MOL0     C 9087   6.815   2.901   4.982 -0.4294  0.7759  0.1957
  809MOL0     O 9088   6.718   2.950   4.905  0.0436 -0.4395 -0.4815
  809MOL0     C 9089   6.726   3.089   4.856 -0.0967  0.3797 -1.3919
  809MOL0     C 9090   6.617   3.130   4.764 -0.4808  0.4932 -0.1728
  809MOL0     C 9091   6.479   3.145   4.835  0.3250 -0.8122  0.7940
  809MOL0     C 9092   6.361   3.148   4.728 -0.4567  0.6268 -0.8427
  809MOL0     C 9093   6.224   3.178   4.790  0.3603 -0.2211  0.1696
  809MOL0     C 9094   6.132   3.225   4.682  0.7974 -1.0113 -0.3879
  809MOL0     C 9095   5.989   3.255   4.739 -0.3302 -0.2136 -0.4708
  809MOL0     C 9096   5.893   3.299   4.623  0.3346  0.4464 -0.1523
  809MOL0     N 9097   5.760   3.299   4.674 -0.1094 -0.2903 -0.1667
  809MOL0     C 9098   5.675   3.191   4.668  0.1369  0.9675  0.1776
  809MOL0     C 9099   5.560   3.236   4.727  0.2535 -0.0428 -0.8174
  809MOL0     C 9100   5.428   3.159   4.729  0.2278  0.6812  0.5216
  809MOL0     C 9101   5.307   3.238   4.685  0.1421  0.0436  0.3306
  809MOL0     C 9102   5.180   3.151   4.710 -0.2981 -0.0976 -0.1387
  809MOL0     C 9103   5.057   3.219   4.656 -0.9748  0.0093 -0.6088
  809MOL0     O 9104   4.995   3.268   4.772  0.6136 -0.2084 -0.0874
  809MOL0     C 9105   4.868   3.317   4.754  1.1659 -0.2794 -1.1254
  809MOL0     C 9106   4.785   3.301   4.639  0.0945 -0.3186  0.0942
  809MOL0     C 9107   4.651   3.337   4.641  0.4043 -0.3454 -0.1941
  809MOL0     C 9108   4.580   3.279   4.512 -0.4168 -0.4036 -0.2077
  809MOL0     C 9109   4.577   3.369   4.762 -1.0411 -0.2757 -0.0133
  809MOL0     C 9110   4.426   3.370   4.774 -1.0752  0.3258  0.1859
  809MOL0     O 9111   4.363   3.366   4.658 -0.2088 -0.3009  0.1270
  809MOL0     C 9112   4.230   3.409   4.656 -0.5236  0.4369 -1.0311
  809MOL0     C 9113   4.163   3.378   4.538  0.4981  0.8274 -0.4930
  809MOL0     C 9114   4.027   3.393   4.527  0.4742 -0.0282  1.3207
  809MOL0     C 9115   3.953   3.440   4.631  0.1916 -0.2684 -0.0098
  809MOL0     O 9116   3.818   3.459   4.633 -0.2103  0.2606 -0.2257
  809MOL0     C 9117   3.746   3.490   4.507  0.9107  0.2497 -0.7056
  809MOL0     C 9118   3.606   3.535   4.560  0.9395  1.1563  0.2920
  809MOL0     C 9119   3.500   3.553   4.445  0.2675 -0.2672 -0.8133
  809MOL0     C 9120   3.369   3.580   4.516  0.3693  0.8156 -0.1586
  809MOL0     C 9121   3.260   3.609   4.408 -0.2335 -0.0820 -0.3698
  809MOL0     C 9122   3.113   3.617   4.451 -0.3313  0.2874 -0.4303
  809MOL0     C 9123   3.017   3.699   4.356 -0.7653  0.6120  0.2871
  809MOL0     C 9124   2.885   3.709   4.420  0.3471 -0.7606  0.0277
  809MOL0    Cl 9125   2.773   3.804   4.304 -0.2686 -0.1119  0.1660
  809MOL0     C 9126   4.022   3.484   4.750  0.0046 -0.9616  0.7333
  809MOL0     C 9127   4.162   3.493   4.750 -0.6384  0.7975 -0.6446
  809MOL0     O 9128   4.373   3.365   4.883  0.0858  0.2670 -0.0020
  809MOL0     C 9129   4.663   3.395   4.873 -0.7184  0.1649 -0.0647
  809MOL0     C 9130   4.798   3.371   4.866 -0.6423  0.1535 -0.3945
  809MOL0     N 9131   5.584   3.362   4.775 -0.2771  0.1086  0.4320
  809MOL0     N 9132   5.698   3.402   4.737  0.0164  0.0446  0.6102
  809MOL0     C 9133   6.906   2.977   5.051  0.1288  0.0201  0.3005
  809MOL0     C 9134   7.005   2.922   5.133  0.3052  0.0361  0.6222
  809MOL0     C 9135   7.314   2.663   5.311 -0.5005 -0.2958  0.4129
  809MOL0     C 9136   7.264   2.550   5.365  0.5221  0.5262 -0.2022
  809MOL0     C 9137   7.336   2.479   5.463 -0.4659  0.3513  0.0052
  809MOL0     C 9138   7.477   2.495   5.476 -0.9836  0.0134 -0.0392
  809MOL0     O 9139   7.563   2.418   5.554 -0.8315 -0.0356 -0.6242
  809MOL0     C 9140   7.498   2.305   5.616 -0.7001 -0.5512  0.3617
  809MOL0     C 9141   7.567   2.225   5.726  0.3242  0.7410  0.3854
  809MOL0     C 9142   7.666   2.116   5.677 -0.5960 -0.4719 -0.0911
  809MOL0     C 9143   7.788   2.189   5.617  0.3308 -0.5154  0.5752
  809MOL0     C 9144   7.914   2.112   5.626 -0.3577 -0.5467  0.4067
  809MOL0     C 9145   8.012   2.047   5.636 -0.2627  0.2529  0.0860
  809MOL0     C 9146   7.530   2.604   5.407 -0.5707  0.1525  1.7227
  809MOL0     C 9147   7.448   2.696   5.336 -0.1714  0.1684  0.5302
  809MOL0     H 9148   6.960   2.604   5.071  2.0804  0.4271  0.1417
  809MOL0     H 9149   6.759   2.688   4.947  2.5980 -2.8295 -1.1302
  809MOL0     H 9150   6.730   3.164   4.937  0.3430 -2.2538  1.1814
  809MOL0     H 9151   6.815   3.095   4.794  1.4322 -2.2082  0.3721
  809MOL0     H 9152   6.645   3.223   4.714 -0.1854  0.5559  0.1030
  809MOL0     H 9153   6.605   3.062   4.680  0.7749  1.5372 -1.2365
  809MOL0     H 9154   6.470   3.062   4.906 -1.3800 -1.1250  0.2581
  809MOL0     H 9155   6.477   3.234   4.900  0.2046 -1.4477  1.6838
  809MOL0     H 9156   6.379   3.227   4.655  0.5809 -0.9718 -2.3914
  809MOL0     H 9157   6.360   3.051   4.679  2.6973 -0.1435  0.3884
  809MOL0     H 9158   6.183   3.099   4.853  3.1710 -0.3118  2.0560
  809MOL0     H 9159   6.231   3.260   4.863 -5.5747 -0.5056  1.5148
  809MOL0     H 9160   6.165   3.318   4.635 -2.2150  0.9224  1.0375
  809MOL0     H 9161   6.125   3.152   4.601  0.3860 -0.5375 -0.7867
  809MOL0     H 9162   5.958   3.159   4.780  0.3498 -0.9091 -1.5337
  809MOL0     H 9163   5.994   3.325   4.823  0.4298 -1.4252  0.5311
  809MOL0     H 9164   5.902   3.224   4.543 -0.7414  0.4680 -0.3012
  809MOL0     H 9165   5.919   3.400   4.591 -0.4537  0.7473  0.1601
  809MOL0     H 9166   5.699   3.097   4.618 -0.4769  0.6005  0.5597
  809MOL0     H 9167   5.442   3.072   4.664  0.2105  0.4446  0.8262
  809MOL0     H 9168   5.417   3.125   4.833 -1.0348  0.5022  0.3406
  809MOL0     H 9169   5.312   3.270   4.581  2.3173  2.5930  1.0957
  809MOL0     H 9170   5.297   3.324   4.752  2.1386 -0.4448  1.3705
  809MOL0     H 9171   5.172   3.141   4.818 -4.0734 -1.3538 -0.3825
  809MOL0     H 9172   5.182   3.051   4.665  1.5903  0.1050 -0.5757
  809MOL0     H 9173   4.997   3.138   4.614 -0.7002 -1.7717  2.1606
  809MOL0     H 9174   5.085   3.304   4.594  1.8133  1.5687  2.4691
  809MOL0     H 9175   4.822   3.266   4.543  0.4089  2.3388 -0.8510
  809MOL0     H 9176   4.538   3.180   4.532  1.9298 -1.5312 -0.5141
  809MOL0     H 9177   4.503   3.340   4.466 -3.1837 -2.3203  1.5793
  809MOL0     H 9178   4.650   3.247   4.434  1.0553 -3.0425  2.0003
  809MOL0     H 9179   4.213   3.326   4.458 -1.7468 -0.8606 -0.8963
  809MOL0     H 9180   3.967   3.353   4.447 -1.7648 -0.2311  2.9973
  809MOL0     H 9181   3.790   3.574   4.453 -0.4830 -0.5975 -3.3652
  809MOL0     H 9182   3.757   3.405   4.439  1.7745 -0.1493 -0.0841
  809MOL0     H 9183   3.563   3.466   4.633 -0.5645  0.1496 -1.4642
  809MOL0     H 9184   3.626   3.623   4.623  1.2083 -0.2525  2.2486
  809MOL0     H 9185   3.499   3.464   4.381  1.1211 -2.5874  2.1945
  809MOL0     H 9186   3.529   3.641   4.387  1.6836 -0.2109 -0.0455
  809MOL0     H 9187   3.347   3.494   4.580  1.1749  1.5621  1.1616
  809MOL0     H 9188   3.385   3.661   4.588  3.1625 -0.5288  0.8620
  809MOL0     H 9189   3.260   3.528   4.334  1.5306  2.2639 -3.1585
  809MOL0     H 9190   3.294   3.700   4.357 -0.6335  0.5046  0.3951
  809MOL0     H 9191   3.074   3.515   4.444  2.6538 -0.8304 -5.8939
  809MOL0     H 9192   3.122   3.662   4.551  3.5016  1.8864 -1.3316
  809MOL0     H 9193   3.014   3.655   4.256  1.3386  0.3721  0.2832
  809MOL0     H 9194   3.068   3.796   4.355  0.1813  0.1510  1.2122
  809MOL0     H 9195   2.876   3.746   4.522 -3.5726  1.4157 -0.9236
  809MOL0     H 9196   2.839   3.610   4.421 -0.7043 -0.3258  2.5971
  809MOL0     H 9197   3.952   3.528   4.821 -2.7035  1.2080 -2.9155
  809MOL0     H 9198   4.202   3.530   4.844 -1.4899 -0.9195  0.4556
  809MOL0     H 9199   4.618   3.428   4.966 -0.9265  1.3539 -0.5635
  809MOL0     H 9200   4.861   3.388   4.953  0.8080  2.5446 -1.7904
  809MOL0     H 9201   6.907   3.085   5.056  0.4864  0.0343  0.0095
  809MOL0     H 9202   7.071   2.986   5.190 -1.2434  2.6438 -0.3235
  809MOL0     H 9203   7.162   2.514   5.361  0.5152  0.3936  0.8287
  809MOL0     H 9204   7.278   2.404   5.517 -1.4100  2.3394  1.8979
  809MOL0     H 9205   7.401   2.333   5.660 -0.4430 -0.4056  0.8471
  809MOL0     H 9206   7.473   2.235   5.536  0.1102  0.3671 -0.7360
  809MOL0     H 9207   7.488   2.172   5.779 -0.3127  1.0529 -0.2280
  809MOL0     H 9208   7.613   2.298   5.793 -1.1001  1.9268  0.1428
  809MOL0     H 9209   7.626   2.047   5.602  1.9222 -2.7969  0.5641
  809MOL0     H 9210   7.691   2.056   5.765 -0.7719  0.1552  0.3967
  809MOL0     H 9211   7.791   2.291   5.657  2.4269 -0.2538 -0.1696
  809MOL0     H 9212   7.769   2.194   5.509  3.9959 -1.6453 -0.2412
  809MOL0     H 9213   8.094   1.979   5.641 -1.0326 -0.5980  2.7901
  809MOL0     H 9214   7.637   2.614   5.421 -0.3163 -1.7347  1.4711
  809MOL0     H 9215   7.491   2.784   5.289  2.6547 -1.7542 -0.7659
  810MOL0     O 9216  10.073   1.027   8.870 -0.0734 -0.2690 -0.2259
  810MOL0     C 9217  10.072   0.982   8.985 -0.3498  0.3768 -0.1733
  810MOL0     O 9218  10.150   1.038   9.081  0.2205 -0.0969 -0.0974
  810MOL0     C 9219  10.241   1.138   9.052 -0.3031 -0.3778  0.3489
  810MOL0     C 9220  10.327   1.123   8.937 -0.3951  0.7844 -0.7188
  810MOL0     C 9221  10.416   1.218   8.899 -1.0362 -0.1572 -0.3705
  810MOL0     C 9222  10.451   1.306   9.005  0.6655 -0.0515  0.4880
  810MOL0     O 9223  10.563   1.379   9.010  0.2218  0.5879 -0.5468
  810MOL0     C 9224  10.657   1.380   8.904  0.3915 -0.1935  0.0118
  810MOL0     C 9225  10.789   1.436   8.941  0.4018 -0.6194 -0.1085
  810MOL0     C 9226  10.897   1.411   8.841 -0.4899 -0.3117 -1.1412
  810MOL0     C 9227  11.004   1.524   8.844  0.3715  0.8388 -0.2498
  810MOL0     C 9228  11.105   1.483   8.730  0.6624  0.3303  0.0998
  810MOL0     C 9229  11.234   1.566   8.737  0.3160 -0.4701 -0.4899
  810MOL0     C 9230  11.332   1.524   8.632  0.3000 -0.3421  0.5999
  810MOL0     C 9231  11.474   1.558   8.666  0.5424  0.1904  0.6553
  810MOL0     N 9232  11.503   1.699   8.675 -0.1496 -0.0905 -0.0351
  810MOL0     C 9233  11.461   1.794   8.593  0.3941 -1.0690 -0.7972
  810MOL0     C 9234  11.483   1.914   8.660 -0.2250 -0.1845  0.2265
  810MOL0     C 9235  11.451   2.056   8.612  0.6758 -0.2751 -0.3399
  810MOL0     C 9236  11.313   2.068   8.545 -1.2205  0.1013 -0.9222
  810MOL0     C 9237  11.263   2.211   8.548  0.2070  0.7822 -0.2965
  810MOL0     C 9238  11.178   2.233   8.420  0.1313 -0.2464  0.8240
  810MOL0     O 9239  11.093   2.342   8.428  0.0218 -1.0593  0.0391
  810MOL0     C 9240  10.997   2.365   8.326 -0.8906  0.3675 -0.1293
  810MOL0     C 9241  10.966   2.281   8.215  0.3577 -0.0475  0.0191
  810MOL0     C 9242  10.867   2.326   8.121 -0.0675  0.5114  0.3313
  810MOL0     C 9243  10.849   2.226   8.011  0.3552 -0.1915 -0.3205
  810MOL0     C 9244  10.801   2.451   8.138 -0.1631 -0.6980 -0.4320
  810MOL0     C 9245  10.698   2.512   8.051 -0.4499 -0.9052 -0.1314
  810MOL0     O 9246  10.611   2.602   8.112 -0.1733 -0.3711 -0.1244
  810MOL0     C 9247  10.495   2.633   8.048 -0.6172 -0.3205  0.1719
  810MOL0     C 9248  10.427   2.536   7.967 -0.0081 -0.1832  0.2013
  810MOL0     C 9249  10.296   2.567   7.908 -0.2841 -0.3556 -0.6115
  810MOL0     C 9250  10.248   2.695   7.919 -0.7739 -0.6011  0.5748
  810MOL0     O 9251  10.124   2.722   7.867 -0.5262  0.1676  0.4010
  810MOL0     C 9252  10.096   2.859   7.847  0.2904  0.3760  0.8085
  810MOL0     C 9253   9.959   2.874   7.776  0.2554  0.4493  0.4541
  810MOL0     C 9254   9.945   3.017   7.719  0.2944 -0.8336  0.0972
  810MOL0     C 9255   9.826   3.028   7.617 -0.7382  0.5788 -0.3281
  810MOL0     C 9256   9.827   3.169   7.553  0.2108  0.8218  0.6948
  810MOL0     C 9257   9.728   3.167   7.433  0.1177 -0.8723 -0.8788
  810MOL0     C 9258   9.705   3.305   7.365  0.1133 -0.2089  0.6686
  810MOL0     C 9259   9.614   3.309   7.245  0.6651 -0.1645 -0.8250
  810MOL0    Cl 9260   9.445   3.298   7.283  0.1297 -0.4251  0.3516
  810MOL0     C 9261  10.321   2.785   7.995 -0.4748 -0.3995  0.3710
  810MOL0     C 9262  10.441   2.757   8.072 -0.0743 -1.0554  0.6068
  810MOL0     O 9263  10.697   2.485   7.935 -0.5553 -0.6542  0.1278
  810MOL0     C 9264  10.830   2.521   8.258 -0.3091 -0.4371  0.0233
  810MOL0     C 9265  10.920   2.479   8.351 -0.4470  0.4208 -0.5055
  810MOL0     N 9266  11.540   1.887   8.784 -0.0900 -0.0896 -0.4860
  810MOL0     N 9267  11.560   1.759   8.786  0.5132  0.4919  0.1738
  810MOL0     C 9268  10.373   1.317   9.121 -0.0416  0.2588 -0.3422
  810MOL0     C 9269  10.259   1.241   9.142 -1.0795 -0.0345 -0.2308
  810MOL0     C 9270   9.985   0.867   9.006 -0.0143  0.0988 -0.6721
  810MOL0     C 9271   9.984   0.806   9.133 -0.0543 -0.1390  0.0772
  810MOL0     C 9272   9.894   0.700   9.153  0.2138  0.3034  0.0790
  810MOL0     C 9273   9.802   0.651   9.058 -0.1483  0.0786 -1.2631
  810MOL0     O 9274   9.708   0.547   9.082 -0.4321 -1.3077  0.0667
  810MOL0     C 9275   9.580   0.599   9.108  0.1783  0.3110  0.6010
  810MOL0     C 9276   9.562   0.718   9.206 -0.4032 -0.0034  0.4176
  810MOL0     C 9277   9.433   0.741   9.270 -0.2083 -0.1825 -0.2784
  810MOL0     C 9278   9.407   0.639   9.379 -0.1585  0.2545 -0.8258
  810MOL0     C 9279   9.286   0.673   9.453 -0.4999 -0.9022 -0.6982
  810MOL0     C 9280   9.178   0.678   9.505  0.0954 -0.9443  0.0071
  810MOL0     C 9281   9.802   0.716   8.932  0.4208 -0.2014 -0.6300
  810MOL0     C 9282   9.901   0.816   8.908  0.1244  0.2207  0.2538
  810MOL0     H 9283  10.320   1.035   8.875  0.8066  1.3513 -1.7152
  810MOL0     H 9284  10.476   1.215   8.809  1.1784 -0.4024  1.0294
  810MOL0     H 9285  10.685   1.276   8.888 -0.6146 -0.2983 -1.2243
  810MOL0     H 9286  10.615   1.447   8.828 -5.5206 -0.7996  2.2082
  810MOL0     H 9287  10.782   1.540   8.976  0.6864 -0.9873  1.1103
  810MOL0     H 9288  10.824   1.395   9.036  1.5766  2.0388  0.7142
  810MOL0     H 9289  10.951   1.316   8.846  1.6976  0.9088  0.0573
  810MOL0     H 9290  10.849   1.419   8.743  0.5234  0.2957 -1.6133
  810MOL0     H 9291  10.958   1.622   8.826 -2.1248 -0.2936 -0.4658
  810MOL0     H 9292  11.054   1.543   8.939 -0.0428  1.3009 -0.1138
  810MOL0     H 9293  11.133   1.379   8.746 -2.4376 -0.2473  2.8415
  810MOL0     H 9294  11.061   1.483   8.630 -0.2567 -2.4417  0.4175
  810MOL0     H 9295  11.210   1.673   8.739 -0.6168 -0.6735  1.5974
  810MOL0     H 9296  11.287   1.538   8.828  0.3522 -2.1768 -1.0055
  810MOL0     H 9297  11.321   1.416   8.618 -1.7055 -0.1372  0.2689
  810MOL0     H 9298  11.310   1.574   8.537  0.2193 -1.3566  0.0579
  810MOL0     H 9299  11.539   1.521   8.587  0.6540  0.8235  0.4428
  810MOL0     H 9300  11.503   1.513   8.761  2.5429 -0.0918 -0.0477
  810MOL0     H 9301  11.413   1.790   8.496  0.7881  3.7322 -1.4193
  810MOL0     H 9302  11.468   2.128   8.692 -1.2243 -1.2020  0.9795
  810MOL0     H 9303  11.520   2.081   8.531 -0.6906 -2.0990 -2.1846
  810MOL0     H 9304  11.248   1.992   8.589  1.9924 -0.6122  3.1947
  810MOL0     H 9305  11.327   2.031   8.443 -1.2269  0.4996 -1.0736
  810MOL0     H 9306  11.344   2.285   8.549 -0.0333  1.2176 -3.6274
  810MOL0     H 9307  11.196   2.234   8.632  1.1927 -1.9034  1.3803
  810MOL0     H 9308  11.117   2.142   8.410 -2.1103  1.1373  1.0986
  810MOL0     H 9309  11.239   2.243   8.330  1.6748  2.0189  2.0209
  810MOL0     H 9310  11.024   2.190   8.203 -0.7776 -1.1785  2.3471
  810MOL0     H 9311  10.754   2.172   8.022 -1.6199  2.4991 -2.5639
  810MOL0     H 9312  10.840   2.281   7.917  1.2719  0.4247 -0.0598
  810MOL0     H 9313  10.933   2.158   7.993  2.1120  1.0466  2.5398
  810MOL0     H 9314  10.456   2.433   7.955  0.3660 -0.0350 -0.1949
  810MOL0     H 9315  10.229   2.503   7.851  0.7407 -0.1697 -2.1069
  810MOL0     H 9316  10.084   2.910   7.943 -0.1197  2.8430 -0.4904
  810MOL0     H 9317  10.170   2.902   7.779 -0.8075 -2.4651 -2.4652
  810MOL0     H 9318   9.973   2.812   7.688  1.1786 -0.3168  1.1116
  810MOL0     H 9319   9.876   2.835   7.836  0.4396 -0.4868  0.1188
  810MOL0     H 9320  10.034   3.048   7.664 -0.7947  3.0320  0.2333
  810MOL0     H 9321   9.929   3.091   7.797  0.8767  0.5820 -1.0883
  810MOL0     H 9322   9.866   2.958   7.544  1.7611 -1.9221  3.1108
  810MOL0     H 9323   9.728   2.998   7.655  0.1610 -3.0905 -0.5289
  810MOL0     H 9324   9.923   3.209   7.521  0.3478 -0.6921 -0.8901
  810MOL0     H 9325   9.779   3.238   7.624 -1.3446  1.0298 -0.4939
  810MOL0     H 9326   9.756   3.098   7.353 -0.4378 -0.2529 -1.6307
  810MOL0     H 9327   9.631   3.135   7.473  1.0181 -0.6823  1.6479
  810MOL0     H 9328   9.805   3.336   7.333 -0.2118 -2.3489 -2.8291
  810MOL0     H 9329   9.671   3.369   7.448 -2.5168 -0.6680  0.0218
  810MOL0     H 9330   9.650   3.239   7.169  3.5300  0.2295  0.0483
  810MOL0     H 9331   9.616   3.410   7.202  1.2231 -0.4984 -1.6036
  810MOL0     H 9332  10.274   2.883   8.006 -3.6436 -1.6432 -0.8832
  810MOL0     H 9333  10.486   2.826   8.142 -1.9424 -0.0573  0.8585
  810MOL0     H 9334  10.783   2.617   8.274 -1.5170 -0.7514 -1.4511
  810MOL0     H 9335  10.927   2.544   8.437 -1.4014 -2.5726  2.0208
  810MOL0     H 9336  10.396   1.394   9.195 -0.1823 -0.6555  0.6783
  810MOL0     H 9337  10.204   1.240   9.236 -0.9617 -1.2593 -0.1548
  810MOL0     H 9338  10.041   0.844   9.217  2.1951 -2.2741 -0.3438
  810MOL0     H 9339   9.886   0.644   9.246 -0.1166  0.0926 -0.0744
  810MOL0     H 9340   9.537   0.630   9.013 -1.7205 -3.2792  0.1251
  810MOL0     H 9341   9.516   0.515   9.139 -0.6054  0.6150 -0.1650
  810MOL0     H 9342   9.580   0.811   9.152 -2.2261 -0.2302 -0.6672
  810MOL0     H 9343   9.640   0.710   9.282 -0.0078  1.6221  0.2017
  810MOL0     H 9344   9.350   0.742   9.198 -0.5533 -1.2690  0.0736
  810MOL0     H 9345   9.437   0.840   9.317  0.4092 -0.8029  1.0207
  810MOL0     H 9346   9.483   0.626   9.456 -2.6944 -1.0159  1.6221
  810MOL0     H 9347   9.385   0.542   9.334  3.7039 -1.2766  0.1218
  810MOL0     H 9348   9.073   0.686   9.525 -0.7146  2.6284 -4.1650
  810MOL0     H 9349   9.734   0.687   8.853  1.3987  0.3190 -1.6912
  810MOL0     H 9350   9.902   0.862   8.810 -0.4045 -1.6795 -0.7001
  811MOL0     O 9351   7.776   5.286  10.786  0.1507 -0.0949  0.1837
  811MOL0     C 9352   7.842   5.277  10.888 -0.4194  0.3229 -0.9286
  811MOL0     O 9353   7.790   5.269  11.014  0.0862 -0.1852 -0.2621
  811MOL0     C 9354   7.658   5.297  11.032  1.2207  0.8198 -0.0011
  811MOL0     C 9355   7.571   5.387  10.955 -0.1402 -0.6614  0.2280
  811MOL0     C 9356   7.443   5.399  10.997 -0.8732  0.4970  0.5023
  811MOL0     C 9357   7.383   5.335  11.106 -0.5610  0.1944  1.5111
  811MOL0     O 9358   7.247   5.357  11.118 -0.5587  0.3918  0.3545
  811MOL0     C 9359   7.189   5.318  11.247  0.1364 -0.5810 -0.1833
  811MOL0     C 9360   7.031   5.331  11.258  0.2742  0.2864 -0.9974
  811MOL0     C 9361   6.966   5.323  11.125  0.9324 -0.3618 -0.3554
  811MOL0     C 9362   6.812   5.345  11.148 -0.3098  0.8243  0.4560
  811MOL0     C 9363   6.733   5.371  11.015 -0.5419 -0.0335  0.2350
  811MOL0     C 9364   6.707   5.240  10.943 -0.8584  0.1721  0.2733
  811MOL0     C 9365   6.630   5.268  10.803 -0.6172 -0.4767 -0.6198
  811MOL0     C 9366   6.484   5.291  10.833 -0.5898  0.0716 -0.6141
  811MOL0     N 9367   6.419   5.293  10.707  0.8663 -0.4497  0.0697
  811MOL0     C 9368   6.351   5.402  10.663  0.2702 -0.5016  0.7432
  811MOL0     C 9369   6.288   5.352  10.551  0.2626 -0.3525  0.1809
  811MOL0     C 9370   6.186   5.423  10.466 -0.1846 -0.4809 -0.2434
  811MOL0     C 9371   6.038   5.403  10.505  0.3740 -0.6609  0.6070
  811MOL0     C 9372   5.978   5.277  10.442  0.2282  0.0301 -0.4801
  811MOL0     C 9373   5.819   5.285  10.455  0.3416 -0.7137  0.0966
  811MOL0     O 9374   5.775   5.298  10.593  0.1226  0.0815  0.5200
  811MOL0     C 9375   5.639   5.284  10.619 -0.4833  0.1257  0.5461
  811MOL0     C 9376   5.541   5.294  10.526  0.2544 -1.0271 -0.1592
  811MOL0     C 9377   5.402   5.303  10.567  0.4778  0.6672 -0.5309
  811MOL0     C 9378   5.304   5.329  10.457  1.0216  0.5336 -0.4067
  811MOL0     C 9379   5.365   5.297  10.700 -1.1958  1.3156  1.1783
  811MOL0     C 9380   5.221   5.321  10.748 -0.2465 -0.6464  0.3516
  811MOL0     O 9381   5.121   5.271  10.670  0.3394 -0.6269 -0.5118
  811MOL0     C 9382   4.988   5.306  10.702  0.3313 -0.4446  0.4423
  811MOL0     C 9383   4.938   5.438  10.714 -0.6196  0.1777  0.5714
  811MOL0     C 9384   4.800   5.461  10.750 -0.5634  0.6077  0.5375
  811MOL0     C 9385   4.716   5.352  10.764 -0.1732 -1.0589  0.2007
  811MOL0     O 9386   4.588   5.350  10.809  0.7041 -0.3599  0.2292
  811MOL0     C 9387   4.513   5.469  10.798 -0.5161 -0.2606 -0.2595
  811MOL0     C 9388   4.365   5.455  10.820 -1.1097 -0.5737 -0.1751
  811MOL0     C 9389   4.296   5.591  10.813  0.9750  0.0800  0.0954
  811MOL0     C 9390   4.148   5.553  10.836  0.3316 -0.5264  0.8485
  811MOL0     C 9391   4.060   5.674  10.851  0.7692  0.1607 -0.0625
  811MOL0     C 9392   4.072   5.765  10.734 -1.3178  0.2192 -0.1109
  811MOL0     C 9393   3.963   5.873  10.742  0.3215 -0.0585  1.1683
  811MOL0     C 9394   3.975   5.957  10.862 -0.0656 -0.4676 -0.4879
  811MOL0    Cl 9395   3.866   6.087  10.840  0.0571  0.1694 -0.0312
  811MOL0     C 9396   4.770   5.223  10.746  0.5297  0.0268  0.4435
  811MOL0     C 9397   4.908   5.195  10.713 -0.2189  0.1381  0.5422
  811MOL0     O 9398   5.204   5.382  10.852 -0.7600  0.3759  0.3485
  811MOL0     C 9399   5.467   5.298  10.793 -0.4165 -0.9317  0.2138
  811MOL0     C 9400   5.602   5.277  10.760  0.4049  0.1121  0.2984
  811MOL0     N 9401   6.320   5.223  10.535  0.4760  0.9029 -0.2651
  811MOL0     N 9402   6.398   5.184  10.625 -0.0505 -0.5135  0.4864
  811MOL0     C 9403   7.454   5.240  11.170 -0.2835  0.4543 -0.5101
  811MOL0     C 9404   7.598   5.233  11.144 -0.0627  0.0444 -0.1628
  811MOL0     C 9405   7.990   5.266  10.871  0.8663  0.9128 -0.1330
  811MOL0     C 9406   8.050   5.284  10.745 -0.0231 -0.3512  0.0575
  811MOL0     C 9407   8.192   5.270  10.734  0.4953 -0.4332 -0.3271
  811MOL0     C 9408   8.273   5.228  10.842 -1.2122  0.3870  0.8307
  811MOL0     O 9409   8.415   5.213  10.840  0.2808 -0.8270  0.1915
  811MOL0     C 9410   8.485   5.222  10.716  0.0983  0.3338 -0.2905
  811MOL0     C 9411   8.637   5.229  10.747  0.3918 -0.0930 -0.2557
  811MOL0     C 9412   8.684   5.356  10.820 -0.6075  0.2222  0.1251
  811MOL0     C 9413   8.832   5.383  10.803 -0.8003 -0.3857  0.5257
  811MOL0     C 9414   8.913   5.270  10.848  0.1797 -0.0320 -0.3269
  811MOL0     C 9415   8.971   5.176  10.897 -0.1092  0.9187  0.3798
  811MOL0     C 9416   8.216   5.198  10.962  0.9328 -0.3605  0.1691
  811MOL0     C 9417   8.074   5.215  10.976  0.4375 -0.4910  0.6371
  811MOL0     H 9418   7.605   5.438  10.866 -2.6012  0.7896  0.0177
  811MOL0     H 9419   7.379   5.459  10.933 -0.6064 -0.1575 -0.4014
  811MOL0     H 9420   7.212   5.213  11.271  1.7543  0.2133  2.1560
  811MOL0     H 9421   7.224   5.374  11.334 -0.4883  1.6639 -1.3060
  811MOL0     H 9422   6.995   5.260  11.333 -0.0707 -0.4413 -1.8337
  811MOL0     H 9423   7.016   5.432  11.299 -1.1617  0.1836 -1.2376
  811MOL0     H 9424   7.006   5.409  11.071  0.0163  1.8597  2.2502
  811MOL0     H 9425   6.991   5.235  11.065 -0.1780 -0.5065 -0.6279
  811MOL0     H 9426   6.765   5.259  11.196 -0.7272  1.0174  0.3953
  811MOL0     H 9427   6.802   5.423  11.223  0.5785  0.0139  1.4478
  811MOL0     H 9428   6.637   5.415  11.045 -0.9059 -0.9018  0.3734
  811MOL0     H 9429   6.785   5.444  10.952 -1.4735  3.2592  2.9781
  811MOL0     H 9430   6.804   5.192  10.928 -0.6285  1.0000 -1.0324
  811MOL0     H 9431   6.651   5.179  11.014  0.1454 -1.9220 -0.6496
  811MOL0     H 9432   6.672   5.360  10.760  1.2783 -1.8802 -1.9420
  811MOL0     H 9433   6.645   5.184  10.735  3.0237  0.9600 -1.8709
  811MOL0     H 9434   6.469   5.388  10.882  2.6227  0.6690 -0.6161
  811MOL0     H 9435   6.442   5.217  10.902 -0.2518 -0.9940 -1.5222
  811MOL0     H 9436   6.354   5.499  10.712 -0.2818 -0.2975  0.3776
  811MOL0     H 9437   6.206   5.528  10.491 -0.3244 -1.0468  2.7046
  811MOL0     H 9438   6.205   5.412  10.359  0.3143 -0.9375 -0.1126
  811MOL0     H 9439   5.992   5.493  10.463 -0.1129  0.6832  3.7200
  811MOL0     H 9440   6.025   5.411  10.614 -0.1161  0.8701  0.4584
  811MOL0     H 9441   6.007   5.189  10.500 -1.1362 -1.7079 -2.3221
  811MOL0     H 9442   6.011   5.257  10.340 -0.1685 -1.1869 -0.3852
  811MOL0     H 9443   5.780   5.195  10.406  1.9141 -1.0409 -0.6192
  811MOL0     H 9444   5.793   5.373  10.395 -1.0488 -1.1508  0.0296
  811MOL0     H 9445   5.578   5.308  10.425 -1.9428 -1.4010 -1.0839
  811MOL0     H 9446   5.246   5.236  10.462  0.4469  0.9051 -0.0792
  811MOL0     H 9447   5.249   5.422  10.468  2.7679  1.6483 -0.6949
  811MOL0     H 9448   5.357   5.327  10.362 -0.8464  3.9391 -1.6656
  811MOL0     H 9449   5.000   5.521  10.683 -1.3083 -1.0798 -5.4433
  811MOL0     H 9450   4.752   5.558  10.747  0.2930  1.0376  0.2919
  811MOL0     H 9451   4.545   5.543  10.872 -0.2915  2.9331 -3.2982
  811MOL0     H 9452   4.524   5.523  10.704  0.4432 -1.7079 -1.0105
  811MOL0     H 9453   4.330   5.379  10.750 -0.9564 -3.0249  2.2163
  811MOL0     H 9454   4.351   5.421  10.923 -0.4152  0.1510  0.1658
  811MOL0     H 9455   4.316   5.650  10.723 -2.5128  1.9460  0.3503
  811MOL0     H 9456   4.325   5.651  10.900  0.9377  3.1648 -1.8878
  811MOL0     H 9457   4.107   5.503  10.748 -1.8676  1.1675  0.8257
  811MOL0     H 9458   4.136   5.489  10.923 -1.5609  1.6447  2.3147
  811MOL0     H 9459   4.090   5.720  10.946  1.6004  0.3695 -0.4199
  811MOL0     H 9460   3.955   5.645  10.853  0.5829  0.4251 -3.0098
  811MOL0     H 9461   4.170   5.812  10.731 -1.6268  0.8804 -0.1105
  811MOL0     H 9462   4.064   5.699  10.647 -3.5617 -1.8869  1.5360
  811MOL0     H 9463   3.867   5.820  10.742  0.4194 -0.3420 -0.7997
  811MOL0     H 9464   3.973   5.938  10.654  0.0074  0.5787  1.6007
  811MOL0     H 9465   4.072   6.006  10.857 -1.4671  2.4620 -1.4279
  811MOL0     H 9466   3.962   5.907  10.958  1.0500 -0.4829 -0.3307
  811MOL0     H 9467   4.708   5.136  10.761  0.7435 -0.1301  0.4287
  811MOL0     H 9468   4.948   5.095  10.711  0.0600  0.2606 -0.0407
  811MOL0     H 9469   5.459   5.292  10.901  1.2958  0.5368  0.4866
  811MOL0     H 9470   5.677   5.268  10.838 -0.0620  0.7636  0.8359
  811MOL0     H 9471   7.413   5.173  11.244  2.8872 -2.5749 -1.2259
  811MOL0     H 9472   7.662   5.162  11.195  0.1148  1.3878  1.6010
  811MOL0     H 9473   7.997   5.326  10.660  2.1232  2.2308 -0.1678
  811MOL0     H 9474   8.241   5.288  10.639  0.8006  1.0327  0.0695
  811MOL0     H 9475   8.462   5.128  10.665 -2.7868 -0.3471  1.9723
  811MOL0     H 9476   8.453   5.303  10.649 -0.6049 -1.7918 -2.7123
  811MOL0     H 9477   8.690   5.217  10.652 -0.5134 -0.8835 -0.6795
  811MOL0     H 9478   8.670   5.141  10.803 -1.2620 -2.1455 -2.3191
  811MOL0     H 9479   8.652   5.348  10.924 -0.5851  1.0597  0.1985
  811MOL0     H 9480   8.638   5.446  10.777  3.3792  2.3641 -0.1029
  811MOL0     H 9481   8.865   5.467  10.866 -1.5678  0.8722 -0.6950
  811MOL0     H 9482   8.857   5.406  10.699  1.4865 -1.2772  0.8290
  811MOL0     H 9483   9.014   5.100  10.959 -1.1422  1.0610  1.2990
  811MOL0     H 9484   8.279   5.170  11.046  1.6160  1.5520  0.3418
  811MOL0     H 9485   8.029   5.194  11.072  2.3017 -1.2397  1.3857
  812MOL0     O 9486   1.048  10.447   4.147  0.9750  0.1790  0.7844
  812MOL0     C 9487   1.114  10.471   4.046 -0.6556 -1.3361 -0.3829
  812MOL0     O 9488   1.062  10.523   3.927  0.5775  0.9996  0.4096
  812MOL0     C 9489   0.934  10.568   3.921 -0.8081 -1.3042  0.1101
  812MOL0     C 9490   0.879  10.670   4.010 -0.2889  0.2326  0.2841
  812MOL0     C 9491   0.754  10.727   3.992  0.5040  0.8127  0.5530
  812MOL0     C 9492   0.671  10.683   3.892  0.1717 -0.4321  0.2033
  812MOL0     O 9493   0.541  10.736   3.887 -0.0790 -0.5891 -0.1745
  812MOL0     C 9494   0.482  10.758   3.759 -0.4160  0.0598 -0.3291
  812MOL0     C 9495   0.346  10.817   3.773 -0.7907  0.0691 -0.2816
  812MOL0     C 9496   0.307  10.869   3.635  0.4378 -0.4529 -0.4198
  812MOL0     C 9497   0.156  10.889   3.611 -0.1060 -0.3441  0.5873
  812MOL0     C 9498   0.108  10.927   3.467  0.1064  0.1873 -1.3841
  812MOL0     C 9499  -0.038  10.891   3.438  0.7093 -0.2592 -0.0297
  812MOL0     C 9500  -0.146  10.988   3.476  0.0021 -0.4873  0.8250
  812MOL0     C 9501  -0.290  10.953   3.435 -0.9677 -0.6667 -0.5524
  812MOL0     N 9502  -0.375  11.069   3.434 -0.4682 -0.0258 -0.0124
  812MOL0     C 9503  -0.447  11.126   3.541 -0.0243  0.0879  0.3936
  812MOL0     C 9504  -0.556  11.185   3.481  0.0533  1.0834 -0.5991
  812MOL0     C 9505  -0.669  11.264   3.546  0.2030  0.2332 -0.0264
  812MOL0     C 9506  -0.646  11.295   3.697  0.2199 -0.6286 -0.6369
  812MOL0     C 9507  -0.724  11.414   3.749 -0.0918  0.2487  0.4512
  812MOL0     C 9508  -0.656  11.539   3.683 -1.3397  0.0421  0.8303
  812MOL0     O 9509  -0.705  11.664   3.720 -0.1198  0.3381 -0.4461
  812MOL0     C 9510  -0.822  11.712   3.665 -0.5006 -0.3424  0.8166
  812MOL0     C 9511  -0.845  11.844   3.692 -0.0185 -0.6289 -0.8772
  812MOL0     C 9512  -0.966  11.899   3.654 -0.1613 -0.0622  0.2690
  812MOL0     C 9513  -0.997  12.034   3.723 -0.6203  0.2280 -0.0167
  812MOL0     C 9514  -1.065  11.832   3.573  0.1206 -0.3765  0.3755
  812MOL0     C 9515  -1.208  11.884   3.542  0.0442  1.1044  0.4522
  812MOL0     O 9516  -1.250  12.014   3.565 -0.1752  0.3765 -0.2361
  812MOL0     C 9517  -1.379  12.068   3.526 -0.6263  0.7439 -0.1005
  812MOL0     C 9518  -1.458  12.117   3.629 -0.5266  1.0071  0.9007
  812MOL0     C 9519  -1.578  12.174   3.600  0.0972 -0.4183  0.1992
  812MOL0     C 9520  -1.628  12.174   3.466 -0.0449 -0.1529 -0.7388
  812MOL0     O 9521  -1.748  12.227   3.424  0.5582  0.1472  0.8297
  812MOL0     C 9522  -1.831  12.279   3.530  0.1801  0.1053 -0.3462
  812MOL0     C 9523  -1.970  12.304   3.482  0.6617 -0.4170 -0.2288
  812MOL0     C 9524  -2.041  12.165   3.465 -0.0024 -0.0882 -0.0702
  812MOL0     C 9525  -2.120  12.131   3.602 -0.1283 -1.4364  0.1884
  812MOL0     C 9526  -2.187  11.994   3.602 -0.4657  0.0873  0.2941
  812MOL0     C 9527  -2.241  11.933   3.730  0.6510 -1.2027 -0.1840
  812MOL0     C 9528  -2.140  11.890   3.833 -0.2057  0.5630  0.3771
  812MOL0     C 9529  -2.192  11.874   3.979 -0.3852  0.8840  1.2987
  812MOL0    Cl 9530  -2.051  11.891   4.084  0.3214 -0.1171  0.1723
  812MOL0     C 9531  -1.544  12.125   3.367 -0.5744  0.4925  1.1262
  812MOL0     C 9532  -1.420  12.072   3.395 -0.0453  0.2911 -0.1765
  812MOL0     O 9533  -1.285  11.796   3.504  0.4217  0.8048  0.2791
  812MOL0     C 9534  -1.036  11.696   3.542  0.6068 -0.6170 -0.0348
  812MOL0     C 9535  -0.915  11.637   3.594  0.7023 -0.2636 -0.0165
  812MOL0     N 9536  -0.544  11.167   3.344  0.1747  0.1938  0.3155
  812MOL0     N 9537  -0.443  11.088   3.313  0.1973  0.1367  0.1056
  812MOL0     C 9538   0.720  10.578   3.805 -0.0469 -0.6463  0.1735
  812MOL0     C 9539   0.857  10.534   3.809  0.3230  0.7230 -0.4244
  812MOL0     C 9540   1.264  10.442   4.050  0.4016 -0.0700  1.0494
  812MOL0     C 9541   1.322  10.377   4.155 -0.1675 -0.2072  0.2017
  812MOL0     C 9542   1.459  10.350   4.162  0.8895  0.4139 -0.4611
  812MOL0     C 9543   1.537  10.386   4.059  1.1155  0.7426 -0.2910
  812MOL0     O 9544   1.673  10.382   4.061  0.0782  0.3941  0.3215
  812MOL0     C 9545   1.737  10.365   4.186 -0.3404  0.2873 -0.4514
  812MOL0     C 9546   1.882  10.321   4.166 -0.8131 -0.1952  0.4104
  812MOL0     C 9547   1.972  10.429   4.103  1.0625 -0.0036  0.1546
  812MOL0     C 9548   2.105  10.369   4.061  0.2809  0.1524  0.2844
  812MOL0     C 9549   2.176  10.304   4.169 -0.4551  0.4596 -0.3922
  812MOL0     C 9550   2.239  10.241   4.252 -0.9223  0.4532 -0.5724
  812MOL0     C 9551   1.478  10.437   3.941  0.2897 -0.3405 -0.3141
  812MOL0     C 9552   1.340  10.469   3.936 -0.0613 -0.2433  0.0660
  812MOL0     H 9553   0.956  10.710   4.076  0.9171 -1.6759  0.1197
  812MOL0     H 9554   0.716  10.804   4.059  0.9821 -0.8364  2.8550
  812MOL0     H 9555   0.550  10.832   3.716 -2.3623  1.7838 -0.5779
  812MOL0     H 9556   0.487  10.666   3.702  3.8757 -0.1090  0.0400
  812MOL0     H 9557   0.272  10.744   3.808 -1.1312  0.6311  0.1897
  812MOL0     H 9558   0.346  10.895   3.850  0.0864 -1.3502  1.2367
  812MOL0     H 9559   0.350  10.968   3.618 -0.7355  0.2163  0.3873
  812MOL0     H 9560   0.331  10.791   3.561 -0.8381 -1.7678  0.5055
  812MOL0     H 9561   0.118  10.791   3.641 -1.8756 -0.8431 -2.8916
  812MOL0     H 9562   0.126  10.968   3.681  0.3518  0.3375  0.0331
  812MOL0     H 9563   0.123  11.032   3.441  1.7641  1.1902  2.7936
  812MOL0     H 9564   0.162  10.868   3.393 -0.6634 -0.3535 -1.5315
  812MOL0     H 9565  -0.038  10.881   3.329  1.7304  2.2999 -0.3216
  812MOL0     H 9566  -0.058  10.789   3.471  0.2522 -0.4476 -0.8438
  812MOL0     H 9567  -0.138  11.019   3.580 -0.6554 -0.5213  0.8898
  812MOL0     H 9568  -0.139  11.082   3.421 -0.9859  0.1835  1.8163
  812MOL0     H 9569  -0.338  10.880   3.502 -1.7634 -0.8687 -1.3086
  812MOL0     H 9570  -0.291  10.919   3.331 -0.9583 -1.5087 -0.2848
  812MOL0     H 9571  -0.417  11.128   3.645  2.8692 -0.5497 -0.3379
  812MOL0     H 9572  -0.669  11.350   3.478  0.2998 -1.5925 -2.4609
  812MOL0     H 9573  -0.764  11.213   3.526 -0.7340  2.5599 -2.0426
  812MOL0     H 9574  -0.539  11.301   3.719  0.1976 -3.2969  0.5544
  812MOL0     H 9575  -0.691  11.206   3.742 -1.4990 -0.0141 -1.0692
  812MOL0     H 9576  -0.726  11.416   3.859 -4.8992  1.0750  0.5697
  812MOL0     H 9577  -0.825  11.397   3.710 -0.0053 -0.3347  0.4812
  812MOL0     H 9578  -0.652  11.541   3.574  1.2880 -0.3103  0.8566
  812MOL0     H 9579  -0.549  11.538   3.709 -0.0829 -0.8275 -3.5769
  812MOL0     H 9580  -0.761  11.893   3.739  0.8088 -2.3755 -0.4531
  812MOL0     H 9581  -1.086  12.008   3.781 -0.3965  1.1909  0.7896
  812MOL0     H 9582  -0.917  12.050   3.795 -0.3107 -0.9606 -0.0664
  812MOL0     H 9583  -1.019  12.117   3.656 -0.4355 -0.4371 -0.9351
  812MOL0     H 9584  -1.415  12.102   3.728  1.6411 -0.0803 -0.1368
  812MOL0     H 9585  -1.619  12.230   3.683 -0.3496 -2.0953  1.1450
  812MOL0     H 9586  -1.839  12.208   3.612 -0.4959 -0.1145 -0.5970
  812MOL0     H 9587  -1.794  12.374   3.569  0.3268 -0.2555  0.3944
  812MOL0     H 9588  -2.021  12.372   3.551 -0.4624  2.0449 -3.2806
  812MOL0     H 9589  -1.956  12.354   3.386 -1.9987 -2.5130 -1.8799
  812MOL0     H 9590  -1.965  12.089   3.447  3.4120  2.5528  1.9256
  812MOL0     H 9591  -2.100  12.168   3.373  2.7222  1.9201 -1.8843
  812MOL0     H 9592  -2.046  12.142   3.682 -1.3760  0.4910  1.1398
  812MOL0     H 9593  -2.200  12.204   3.606 -0.9018 -1.9443 -2.9772
  812MOL0     H 9594  -2.111  11.922   3.570  0.5492  0.8164  1.0213
  812MOL0     H 9595  -2.268  11.982   3.528  0.0585  0.5512 -0.3645
  812MOL0     H 9596  -2.292  12.017   3.778 -0.6518 -2.1860  0.2036
  812MOL0     H 9597  -2.322  11.860   3.723 -2.5422  2.2000 -2.2121
  812MOL0     H 9598  -2.058  11.963   3.827  0.6617 -0.1992  2.2223
  812MOL0     H 9599  -2.101  11.790   3.811  0.5554 -0.0156  3.8225
  812MOL0     H 9600  -2.245  11.779   3.991 -1.7722  0.6154 -4.2382
  812MOL0     H 9601  -2.268  11.949   3.999 -1.4631  0.3552 -0.6006
  812MOL0     H 9602  -1.586  12.116   3.267 -2.6665  1.2520  1.8844
  812MOL0     H 9603  -1.346  12.037   3.323 -0.8061 -1.4676 -0.1716
  812MOL0     H 9604  -1.111  11.635   3.495 -0.2485 -0.6364  1.2856
  812MOL0     H 9605  -0.911  11.530   3.577  0.6569 -0.3776  0.6686
  812MOL0     H 9606   0.642  10.545   3.737 -0.3637  0.2560  0.0857
  812MOL0     H 9607   0.891  10.464   3.734 -0.3714  0.3969 -0.4365
  812MOL0     H 9608   1.258  10.350   4.239 -0.1210  1.6033  0.8770
  812MOL0     H 9609   1.487  10.297   4.253 -3.0441  2.2870  2.1142
  812MOL0     H 9610   1.726  10.453   4.250  0.5046 -1.3079  2.0311
  812MOL0     H 9611   1.694  10.284   4.246  3.8035 -1.8752 -0.0444
  812MOL0     H 9612   1.891  10.230   4.105  2.6533 -0.7152  1.4536
  812MOL0     H 9613   1.931  10.292   4.259 -0.2544 -1.4220 -0.2371
  812MOL0     H 9614   1.986  10.516   4.168  1.6489  1.0592 -1.3485
  812MOL0     H 9615   1.920  10.469   4.015 -0.3319 -1.1801  0.3900
  812MOL0     H 9616   2.161  10.457   4.029 -0.4065  0.2483 -0.6945
  812MOL0     H 9617   2.092  10.299   3.978 -2.9282 -0.8622  1.4917
  812MOL0     H 9618   2.310  10.188   4.311  0.0088 -0.2600 -2.2583
  812MOL0     H 9619   1.548  10.462   3.863  2.0797 -0.9257  1.0482
  812MOL0     H 9620   1.296  10.510   3.846 -0.3181 -1.3392 -0.3224
  813MOL0     O 9621   3.941   4.241   4.879 -0.1054 -0.4415 -0.2439
  813MOL0     C 9622   4.004   4.137   4.862 -0.1259 -0.5566  0.5714
  813MOL0     O 9623   3.952   4.015   4.861  0.8418  0.3331  0.3144
  813MOL0     C 9624   3.820   3.991   4.875 -0.6487  0.5343  0.3174
  813MOL0     C 9625   3.732   4.054   4.963 -0.3444  0.6963 -0.2864
  813MOL0     C 9626   3.598   4.021   4.968 -0.1157  0.7643 -0.6005
  813MOL0     C 9627   3.541   3.931   4.878  0.6397 -0.1627 -0.3320
  813MOL0     O 9628   3.408   3.924   4.894 -0.2142  0.1826  0.0213
  813MOL0     C 9629   3.338   3.826   4.822 -0.4563  0.0441 -0.0023
  813MOL0     C 9630   3.193   3.832   4.866 -0.0505 -0.2691 -0.1101
  813MOL0     C 9631   3.096   3.730   4.813 -0.0064 -0.4224 -0.1262
  813MOL0     C 9632   2.991   3.688   4.929 -0.0381  0.3490 -0.1585
  813MOL0     C 9633   2.885   3.593   4.869 -0.3284  0.1527  0.4988
  813MOL0     C 9634   2.766   3.576   4.965  0.9360  0.3941 -0.7798
  813MOL0     C 9635   2.712   3.701   5.025 -0.7466 -0.0804  0.4669
  813MOL0     C 9636   2.571   3.691   5.095  0.4863  0.7231 -0.7897
  813MOL0     N 9637   2.457   3.716   4.997 -0.1839  0.3210 -0.6489
  813MOL0     C 9638   2.413   3.630   4.900  0.2337 -0.0082 -0.3892
  813MOL0     C 9639   2.312   3.691   4.850  0.2101  0.0500 -0.1454
  813MOL0     C 9640   2.215   3.641   4.755  0.8901  0.3028  0.6808
  813MOL0     C 9641   2.111   3.561   4.836  0.2391 -1.0760  0.2408
  813MOL0     C 9642   1.980   3.646   4.847  0.1363 -0.0174 -0.1211
  813MOL0     C 9643   1.896   3.599   4.956 -0.0416 -0.2355 -0.3595
  813MOL0     O 9644   1.774   3.673   4.940 -0.1417  0.2047 -0.3096
  813MOL0     C 9645   1.674   3.669   5.030 -0.4999 -0.0142  0.0527
  813MOL0     C 9646   1.682   3.610   5.153  0.6717 -0.2524 -1.6968
  813MOL0     C 9647   1.571   3.605   5.239 -0.0854  0.7964 -0.7807
  813MOL0     C 9648   1.578   3.525   5.371  0.3184 -0.3569 -0.7296
  813MOL0     C 9649   1.453   3.676   5.192 -1.5934 -0.3804 -0.4792
  813MOL0     C 9650   1.334   3.701   5.272  0.0065 -0.4216  0.2436
  813MOL0     O 9651   1.208   3.732   5.212 -0.0139 -0.5584 -0.0711
  813MOL0     C 9652   1.103   3.736   5.306 -0.2485  0.3041 -0.3026
  813MOL0     C 9653   1.055   3.857   5.351 -0.3188 -0.2197 -0.4491
  813MOL0     C 9654   0.946   3.861   5.436  0.7755  0.0583 -0.0831
  813MOL0     C 9655   0.896   3.741   5.494  0.4978 -0.3436 -1.6577
  813MOL0     O 9656   0.787   3.741   5.586 -0.1815 -0.0394 -0.0835
  813MOL0     C 9657   0.739   3.878   5.618 -0.1310  1.0450 -0.6913
  813MOL0     C 9658   0.609   3.860   5.705  0.3311  0.3514  0.3924
  813MOL0     C 9659   0.638   3.799   5.845 -0.0058  0.1192  0.0681
  813MOL0     C 9660   0.503   3.758   5.901 -0.2104 -0.6240 -0.2819
  813MOL0     C 9661   0.534   3.712   6.045  0.2233 -0.2541  0.1907
  813MOL0     C 9662   0.420   3.686   6.144  0.9223  0.4001 -0.2286
  813MOL0     C 9663   0.479   3.625   6.271  0.1277  0.4638  0.6982
  813MOL0     C 9664   0.383   3.621   6.383 -1.1499 -0.0601  0.1134
  813MOL0    Cl 9665   0.223   3.551   6.337  0.2229 -0.6693  0.0390
  813MOL0     C 9666   0.945   3.623   5.453  0.0530 -0.4150  0.0075
  813MOL0     C 9667   1.054   3.620   5.359 -0.0398  0.4921  0.6151
  813MOL0     O 9668   1.365   3.709   5.389  0.0078 -0.0001 -0.6352
  813MOL0     C 9669   1.445   3.739   5.067  0.3708  0.3439 -0.1050
  813MOL0     C 9670   1.555   3.730   4.994 -0.4271 -0.1623  0.1398
  813MOL0     N 9671   2.296   3.818   4.905  0.2486  0.1443  0.1482
  813MOL0     N 9672   2.381   3.830   4.995  0.4123 -0.2730  0.2826
  813MOL0     C 9673   3.626   3.880   4.780 -0.2244 -0.7815  0.2782
  813MOL0     C 9674   3.761   3.905   4.786 -0.1043 -0.5199  0.8671
  813MOL0     C 9675   4.152   4.155   4.846 -0.9114  0.1704 -0.0718
  813MOL0     C 9676   4.235   4.041   4.807 -0.1933 -0.4130 -0.6055
  813MOL0     C 9677   4.370   4.054   4.802 -0.5402 -0.2963 -0.6679
  813MOL0     C 9678   4.437   4.179   4.821  0.6134 -0.3706 -0.2836
  813MOL0     O 9679   4.575   4.183   4.827  0.1404  0.9813 -0.3875
  813MOL0     C 9680   4.644   4.304   4.832 -1.0813  0.4487 -0.2121
  813MOL0     C 9681   4.798   4.276   4.836 -0.4909  0.7433  0.4374
  813MOL0     C 9682   4.840   4.188   4.712 -1.1560 -0.3441 -0.1689
  813MOL0     C 9683   4.986   4.153   4.700  0.5935 -0.5909 -0.4888
  813MOL0     C 9684   5.030   4.051   4.791  0.4208  0.6749 -0.6268
  813MOL0     C 9685   5.055   3.974   4.883  0.0334  0.1225  0.4363
  813MOL0     C 9686   4.349   4.291   4.851  0.4771 -0.5756 -0.0225
  813MOL0     C 9687   4.212   4.272   4.867 -0.9208 -0.6999 -0.1243
  813MOL0     H 9688   3.768   4.112   5.047 -1.0510  0.6043  0.0910
  813MOL0     H 9689   3.536   4.068   5.045 -2.4001 -0.0113 -1.8629
  813MOL0     H 9690   3.336   3.841   4.713 -2.7166  1.1310  0.1393
  813MOL0     H 9691   3.392   3.731   4.832  1.0901  0.5403 -2.5649
  813MOL0     H 9692   3.193   3.820   4.975 -3.3768 -2.0152 -0.1781
  813MOL0     H 9693   3.164   3.934   4.840  1.4259  0.6631  1.6425
  813MOL0     H 9694   3.039   3.754   4.723 -1.9142 -2.4191  0.4364
  813MOL0     H 9695   3.154   3.642   4.782  0.2103 -0.2292 -0.2682
  813MOL0     H 9696   3.055   3.642   5.005 -0.6949 -0.0775  0.1462
  813MOL0     H 9697   2.952   3.777   4.979  2.2564  0.5205  1.5086
  813MOL0     H 9698   2.849   3.635   4.774 -1.6700 -0.9147  0.4947
  813MOL0     H 9699   2.925   3.498   4.833 -2.4641 -0.3126 -0.8534
  813MOL0     H 9700   2.686   3.527   4.910 -1.2114  2.3787  0.4072
  813MOL0     H 9701   2.776   3.520   5.059 -2.8332  1.1205  0.2092
  813MOL0     H 9702   2.778   3.720   5.110 -1.1093  0.5913  0.6080
  813MOL0     H 9703   2.715   3.779   4.949 -0.7488  0.4877  1.0382
  813MOL0     H 9704   2.559   3.764   5.175  1.9602 -0.0933  0.2334
  813MOL0     H 9705   2.574   3.595   5.147 -1.7631 -0.2187 -2.2273
  813MOL0     H 9706   2.456   3.534   4.872  2.6899  0.3492  1.7919
  813MOL0     H 9707   2.182   3.719   4.685 -1.0647 -1.2690 -0.2484
  813MOL0     H 9708   2.279   3.575   4.696  0.2391  1.5582 -1.5643
  813MOL0     H 9709   2.158   3.549   4.934 -0.5759 -0.3300  0.7347
  813MOL0     H 9710   2.086   3.464   4.792  0.9885 -2.3778  2.5175
  813MOL0     H 9711   1.928   3.636   4.751 -1.6723  0.4917  0.7512
  813MOL0     H 9712   2.008   3.750   4.866  1.0771  0.3178 -2.9004
  813MOL0     H 9713   1.935   3.637   5.051 -2.5820 -1.5171  1.3244
  813MOL0     H 9714   1.884   3.491   4.964  1.6271 -0.3088  2.5576
  813MOL0     H 9715   1.779   3.567   5.176 -0.1929 -2.6793 -2.2978
  813MOL0     H 9716   1.634   3.588   5.439  0.7804 -0.6626 -0.8205
  813MOL0     H 9717   1.475   3.493   5.391  0.8108 -2.1381 -0.8579
  813MOL0     H 9718   1.645   3.439   5.364  1.0765 -0.0572  1.8604
  813MOL0     H 9719   1.093   3.949   5.309 -2.4435  0.7466 -0.3828
  813MOL0     H 9720   0.914   3.961   5.465 -1.2105  0.0488 -1.9950
  813MOL0     H 9721   0.810   3.935   5.679  1.1375 -1.5251  0.3512
  813MOL0     H 9722   0.715   3.939   5.530  4.0034  1.2973 -1.8442
  813MOL0     H 9723   0.553   3.954   5.708 -0.5406 -0.0746 -1.0880
  813MOL0     H 9724   0.539   3.789   5.658  0.4645  1.0396 -0.9068
  813MOL0     H 9725   0.692   3.868   5.911 -1.6751  1.6655 -0.0886
  813MOL0     H 9726   0.691   3.705   5.828 -0.8403 -0.4247  0.4328
  813MOL0     H 9727   0.441   3.847   5.914  0.3062 -0.3784  0.5904
  813MOL0     H 9728   0.452   3.683   5.840 -0.4681  0.7658 -1.8211
  813MOL0     H 9729   0.600   3.783   6.095 -2.2767  3.4281 -1.3117
  813MOL0     H 9730   0.592   3.620   6.036  1.8777  0.7317  0.3317
  813MOL0     H 9731   0.354   3.772   6.154 -0.6275 -0.7159 -0.4221
  813MOL0     H 9732   0.361   3.602   6.106 -1.0307  0.7227  1.8693
  813MOL0     H 9733   0.567   3.687   6.292  1.9218 -1.1706 -1.5298
  813MOL0     H 9734   0.512   3.525   6.242 -2.7097  0.4338 -3.2489
  813MOL0     H 9735   0.364   3.716   6.435 -1.2350 -0.4238  0.7621
  813MOL0     H 9736   0.433   3.563   6.462 -0.4047 -1.4996 -1.3599
  813MOL0     H 9737   0.889   3.548   5.508  0.0798 -0.7708 -0.4420
  813MOL0     H 9738   1.105   3.531   5.324 -1.5098  0.4643 -1.6343
  813MOL0     H 9739   1.360   3.800   5.036  0.1524  0.4310  0.6397
  813MOL0     H 9740   1.558   3.754   4.888  0.6270 -0.7080  0.0298
  813MOL0     H 9741   3.577   3.830   4.697 -0.5010  1.3222 -0.8891
  813MOL0     H 9742   3.824   3.864   4.707 -0.3963 -0.7417  0.7473
  813MOL0     H 9743   4.177   3.949   4.800 -1.7670  0.4826  0.1843
  813MOL0     H 9744   4.436   3.973   4.771  0.4251  1.0760 -2.4294
  813MOL0     H 9745   4.616   4.362   4.744  1.4587  1.4937 -0.4241
  813MOL0     H 9746   4.624   4.361   4.923  0.5861 -2.3285  2.0865
  813MOL0     H 9747   4.832   4.222   4.924  3.2324  2.3276  0.1442
  813MOL0     H 9748   4.847   4.372   4.850  0.8962  0.0622  0.3855
  813MOL0     H 9749   4.808   4.249   4.627 -1.7937  1.9550  1.6137
  813MOL0     H 9750   4.784   4.094   4.706 -0.7220 -0.5503 -1.3146
  813MOL0     H 9751   5.049   4.240   4.722 -0.4386 -0.2928  1.5756
  813MOL0     H 9752   5.004   4.108   4.602  0.4275 -1.0328 -0.3202
  813MOL0     H 9753   5.094   3.902   4.952  2.8827 -1.0618 -2.1420
  813MOL0     H 9754   4.395   4.386   4.877 -1.6128  0.5608 -0.2567
  813MOL0     H 9755   4.159   4.361   4.899 -2.3537 -0.5488 -2.7344
  814MOL0     O 9756   6.205   1.180   4.980  0.6525  0.0148 -0.2740
  814MOL0     C 9757   6.244   1.120   4.878 -0.7406  0.3089  0.3259
  814MOL0     O 9758   6.164   1.060   4.786 -0.3068  0.4309 -0.2608
  814MOL0     C 9759   6.025   1.063   4.802  0.8325  0.4407  0.8307
  814MOL0     C 9760   5.937   1.163   4.845 -0.5021 -0.4795  0.0629
  814MOL0     C 9761   5.792   1.153   4.855 -0.9970  0.0386 -0.1569
  814MOL0     C 9762   5.738   1.034   4.810 -0.3851  0.7151 -0.6365
  814MOL0     O 9763   5.600   1.001   4.793 -0.4797 -0.3136  0.5388
  814MOL0     C 9764   5.517   1.112   4.832  0.5072  0.0704  0.3783
  814MOL0     C 9765   5.502   1.108   4.985  0.7911  0.1544  0.8214
  814MOL0     C 9766   5.374   1.159   5.045  0.5202  0.7290 -0.1562
  814MOL0     C 9767   5.383   1.305   5.053  0.4275  0.5515 -0.9723
  814MOL0     C 9768   5.260   1.382   5.097 -0.0969  0.6430  0.5052
  814MOL0     C 9769   5.135   1.363   5.008  0.4296  0.8198 -0.0846
  814MOL0     C 9770   5.006   1.430   5.059 -0.0146 -0.1996 -0.8019
  814MOL0     C 9771   5.039   1.582   5.090  0.2413  1.2874  0.5725
  814MOL0     N 9772   4.920   1.667   5.109 -0.0412 -0.2355 -0.7049
  814MOL0     C 9773   4.876   1.778   5.037  0.5972  0.5554 -0.7775
  814MOL0     C 9774   4.754   1.808   5.094  0.0402  0.1279  0.4674
  814MOL0     C 9775   4.659   1.918   5.053 -0.8121 -0.3459 -0.1708
  814MOL0     C 9776   4.541   1.868   4.962  0.2056  0.0587  0.0483
  814MOL0     C 9777   4.573   1.816   4.823  0.1640 -0.0805 -0.3717
  814MOL0     C 9778   4.444   1.759   4.754 -0.5123  0.0237 -1.0968
  814MOL0     O 9779   4.343   1.867   4.747  0.3923 -0.0623  0.2384
  814MOL0     C 9780   4.204   1.839   4.726 -0.3658  1.2779  0.0461
  814MOL0     C 9781   4.118   1.943   4.730  0.1319 -0.0068 -0.2370
  814MOL0     C 9782   3.977   1.921   4.727  0.1391  0.0363 -0.1984
  814MOL0     C 9783   3.896   2.050   4.723 -0.2252 -0.6157 -0.4285
  814MOL0     C 9784   3.920   1.792   4.716  0.8610 -0.5589  0.6180
  814MOL0     C 9785   3.771   1.768   4.708  0.4840  1.5486  0.4535
  814MOL0     O 9786   3.720   1.640   4.743 -0.3551 -0.0184 -0.0930
  814MOL0     C 9787   3.589   1.610   4.717 -0.0373 -0.2848  0.1128
  814MOL0     C 9788   3.504   1.584   4.820  0.1495 -0.0301  0.3396
  814MOL0     C 9789   3.367   1.563   4.798  0.1996  0.3343 -0.3505
  814MOL0     C 9790   3.313   1.574   4.669 -0.0400  0.1592 -0.6175
  814MOL0     O 9791   3.187   1.551   4.634  0.1818  0.2430 -0.1046
  814MOL0     C 9792   3.097   1.496   4.735 -0.0205 -0.1752 -0.3793
  814MOL0     C 9793   2.968   1.463   4.659  0.3525 -0.3375 -0.2254
  814MOL0     C 9794   2.955   1.310   4.630 -0.0695  0.1717  0.0989
  814MOL0     C 9795   2.836   1.267   4.541  0.2683 -0.0028  0.6075
  814MOL0     C 9796   2.859   1.121   4.493 -0.5847 -0.7029  0.5953
  814MOL0     C 9797   2.761   1.048   4.398  0.4490  0.0912  0.7359
  814MOL0     C 9798   2.620   1.040   4.444 -0.7135 -0.7093  0.5921
  814MOL0     C 9799   2.527   0.974   4.340 -0.1070  0.2714  0.9181
  814MOL0    Cl 9800   2.358   0.963   4.402 -0.2095  0.3145 -0.7587
  814MOL0     C 9801   3.404   1.587   4.562 -0.0557  0.2042  0.1747
  814MOL0     C 9802   3.542   1.605   4.586 -0.6401  0.8120 -0.6500
  814MOL0     O 9803   3.703   1.853   4.657 -0.7547  0.2407  0.1844
  814MOL0     C 9804   4.010   1.684   4.709  0.0763  0.5137 -0.5824
  814MOL0     C 9805   4.155   1.703   4.723 -0.2203 -0.5355 -0.0816
  814MOL0     N 9806   4.726   1.710   5.184 -0.4331  0.6343 -0.4183
  814MOL0     N 9807   4.826   1.638   5.198 -0.4872 -0.2195 -0.4273
  814MOL0     C 9808   5.821   0.934   4.761 -0.1244 -0.4794 -1.1840
  814MOL0     C 9809   5.958   0.951   4.761 -0.0762  0.7066  0.0671
  814MOL0     C 9810   6.391   1.114   4.858  0.2618 -0.0556  0.6285
  814MOL0     C 9811   6.449   1.028   4.763 -1.0805 -1.1352 -0.8829
  814MOL0     C 9812   6.583   1.021   4.742  0.0867 -0.0656  0.5048
  814MOL0     C 9813   6.668   1.112   4.810  0.1862 -0.0579  0.1565
  814MOL0     O 9814   6.795   1.130   4.764  0.3966 -0.0082 -0.1770
  814MOL0     C 9815   6.890   1.026   4.797  0.4414 -0.6225  0.0578
  814MOL0     C 9816   6.959   0.968   4.670  0.1375  0.2413  0.1080
  814MOL0     C 9817   7.039   1.073   4.598  0.2320  0.5196 -0.1346
  814MOL0     C 9818   7.121   1.173   4.683 -0.4371 -0.5340  0.1037
  814MOL0     C 9819   7.239   1.220   4.598 -0.0467 -0.4126 -0.6928
  814MOL0     C 9820   7.314   1.264   4.515 -0.1912  0.1557  0.5764
  814MOL0     C 9821   6.617   1.203   4.898  0.2947 -0.7857 -0.0282
  814MOL0     C 9822   6.479   1.198   4.925  0.0163 -0.2216 -0.1285
  814MOL0     H 9823   5.986   1.252   4.884  2.0491 -1.3658 -0.8950
  814MOL0     H 9824   5.748   1.239   4.906  1.0696  0.1954  1.5203
  814MOL0     H 9825   5.554   1.209   4.796  2.2789 -0.7910 -0.2455
  814MOL0     H 9826   5.419   1.095   4.788  1.8225 -0.9594 -2.3947
  814MOL0     H 9827   5.505   1.000   4.999  3.5225 -0.0840 -1.0276
  814MOL0     H 9828   5.591   1.148   5.035  1.5130  2.3032 -1.9099
  814MOL0     H 9829   5.293   1.122   4.982  0.8021 -3.2209  1.4467
  814MOL0     H 9830   5.352   1.118   5.144 -2.8630  0.6459 -0.8394
  814MOL0     H 9831   5.468   1.339   5.113  0.5221 -0.1289 -0.7165
  814MOL0     H 9832   5.392   1.357   4.957  0.1758  0.0957 -1.2449
  814MOL0     H 9833   5.243   1.355   5.202  1.9796  3.1404  1.6043
  814MOL0     H 9834   5.285   1.488   5.094  0.7756  0.4378 -1.9814
  814MOL0     H 9835   5.158   1.391   4.904 -0.2160 -0.3077 -0.5454
  814MOL0     H 9836   5.109   1.257   5.009  1.2453  0.6129  1.0413
  814MOL0     H 9837   4.921   1.436   4.992 -1.6235 -3.8358  0.6430
  814MOL0     H 9838   4.966   1.376   5.145  0.4486  1.3433  0.4242
  814MOL0     H 9839   5.102   1.624   5.011  0.3020 -0.4308 -0.3558
  814MOL0     H 9840   5.103   1.578   5.179  1.7294 -0.2457 -0.4804
  814MOL0     H 9841   4.925   1.829   4.954 -3.6579  0.1447 -3.8520
  814MOL0     H 9842   4.618   1.964   5.143  0.9102 -0.4799  0.7313
  814MOL0     H 9843   4.727   1.984   4.999 -0.2061  1.4763  2.6214
  814MOL0     H 9844   4.476   1.955   4.947  0.2350 -0.5021 -5.2649
  814MOL0     H 9845   4.484   1.788   5.011  0.8946  0.0593  0.8733
  814MOL0     H 9846   4.655   1.746   4.804  1.4119  1.5856 -1.4812
  814MOL0     H 9847   4.618   1.902   4.772  2.4103 -0.7791  0.3077
  814MOL0     H 9848   4.417   1.667   4.807  0.9183  0.2202  0.0228
  814MOL0     H 9849   4.450   1.738   4.647 -0.7689 -2.6054 -0.6510
  814MOL0     H 9850   4.169   2.039   4.735 -2.6458  1.5321  3.2769
  814MOL0     H 9851   3.846   2.054   4.820 -0.4712  0.6779 -0.5894
  814MOL0     H 9852   3.954   2.142   4.710 -0.1974 -0.3426  1.4423
  814MOL0     H 9853   3.831   2.052   4.634  1.6255  0.2374 -1.8320
  814MOL0     H 9854   3.551   1.591   4.918  2.8321  1.2636 -0.9479
  814MOL0     H 9855   3.302   1.545   4.883 -0.5439  0.5595 -0.8604
  814MOL0     H 9856   3.140   1.404   4.776  2.3069  0.7960 -0.4858
  814MOL0     H 9857   3.073   1.564   4.817  0.2615  1.4621 -1.5876
  814MOL0     H 9858   2.884   1.494   4.722  0.8514 -0.3761  0.4691
  814MOL0     H 9859   2.963   1.514   4.562  1.4729 -2.4959 -1.5114
  814MOL0     H 9860   2.943   1.254   4.724 -2.8042  0.3044 -0.1060
  814MOL0     H 9861   3.046   1.281   4.576 -0.4099 -1.0645  0.1440
  814MOL0     H 9862   2.740   1.277   4.593  0.4354  2.7386  0.4824
  814MOL0     H 9863   2.824   1.340   4.461 -1.1957  0.0429  0.8378
  814MOL0     H 9864   2.867   1.056   4.581  1.7675 -0.5131  0.5820
  814MOL0     H 9865   2.956   1.117   4.444  1.2445 -3.6051  4.0046
  814MOL0     H 9866   2.750   1.115   4.312 -0.9516 -0.3642  0.5328
  814MOL0     H 9867   2.795   0.945   4.381 -0.8342 -0.9561  3.8978
  814MOL0     H 9868   2.590   1.137   4.483  0.7539 -0.9407  2.4343
  814MOL0     H 9869   2.621   0.972   4.530 -0.6585 -2.8622 -1.0144
  814MOL0     H 9870   2.563   0.872   4.331 -1.4041 -0.1357  0.1645
  814MOL0     H 9871   2.530   1.014   4.238 -0.5617 -1.5258  0.1680
  814MOL0     H 9872   3.367   1.578   4.461 -0.2570 -0.6050  0.3074
  814MOL0     H 9873   3.618   1.624   4.510 -0.1762 -0.7561 -0.6162
  814MOL0     H 9874   3.972   1.583   4.713  2.7781 -0.5667  0.7801
  814MOL0     H 9875   4.226   1.621   4.717 -1.4873 -1.8429  1.7021
  814MOL0     H 9876   5.778   0.840   4.730 -0.5576 -1.0855  1.0594
  814MOL0     H 9877   6.020   0.864   4.742  3.8624  2.6015  2.9040
  814MOL0     H 9878   6.404   0.958   4.694 -2.8970 -1.4503  0.5529
  814MOL0     H 9879   6.617   0.948   4.669 -2.6032 -0.4309 -0.4996
  814MOL0     H 9880   6.955   1.065   4.876  0.2884 -1.0724  0.4075
  814MOL0     H 9881   6.841   0.944   4.851 -0.6985 -0.0692 -0.1118
  814MOL0     H 9882   6.882   0.921   4.608 -0.4349 -1.1958  1.8248
  814MOL0     H 9883   7.024   0.892   4.713 -0.5239  0.2079  1.0681
  814MOL0     H 9884   6.965   1.132   4.545  0.1152 -0.3881 -1.0091
  814MOL0     H 9885   7.108   1.023   4.529  0.5751  0.7104  0.0630
  814MOL0     H 9886   7.161   1.120   4.771 -3.0559  0.0849  1.7676
  814MOL0     H 9887   7.052   1.250   4.718 -1.1227 -1.2925  0.4695
  814MOL0     H 9888   7.372   1.293   4.430  0.5742  1.1274  1.4180
  814MOL0     H 9889   6.657   1.295   4.940 -2.9746  1.1386 -0.6755
  814MOL0     H 9890   6.456   1.270   5.003  3.7516  0.9591  0.0667
  815MOL0     O 9891   7.913   3.439   4.744  0.3106 -0.0437  0.6357
  815MOL0     C 9892   7.899   3.313   4.740  0.6100  0.2219 -0.1554
  815MOL0     O 9893   7.781   3.258   4.775 -0.5110  0.8793  0.7219
  815MOL0     C 9894   7.682   3.347   4.820  0.2630  0.2369  0.3211
  815MOL0     C 9895   7.692   3.431   4.935  0.1406  0.0428  0.5978
  815MOL0     C 9896   7.579   3.521   4.964 -0.1017 -0.4126 -0.2636
  815MOL0     C 9897   7.460   3.518   4.897  0.7508 -1.1237 -0.1890
  815MOL0     O 9898   7.361   3.596   4.951 -0.6659  0.4002  0.5780
  815MOL0     C 9899   7.255   3.618   4.861  0.0360 -0.3213  0.0309
  815MOL0     C 9900   7.170   3.738   4.899 -0.3612 -0.3339 -0.0645
  815MOL0     C 9901   7.219   3.878   4.878 -0.7627 -1.1562 -0.7684
  815MOL0     C 9902   7.355   3.893   4.944  0.0641 -1.1915 -0.5821
  815MOL0     C 9903   7.413   4.037   4.947  0.5346  0.1411 -0.1442
  815MOL0     C 9904   7.510   4.062   5.065 -0.2370  0.5811 -0.0894
  815MOL0     C 9905   7.640   3.978   5.058 -0.4507  0.1979 -0.4659
  815MOL0     C 9906   7.735   3.997   5.175  0.8227 -0.4653 -0.4510
  815MOL0     N 9907   7.857   3.925   5.147 -0.6862 -0.8262 -0.3533
  815MOL0     C 9908   7.943   3.970   5.043 -0.3709 -0.9844  0.2018
  815MOL0     C 9909   8.045   3.886   5.052 -0.1393  0.5509  0.8155
  815MOL0     C 9910   8.164   3.890   4.951  0.5841  0.9153 -0.1482
  815MOL0     C 9911   8.119   3.857   4.821  0.2551  0.5107  0.0249
  815MOL0     C 9912   8.052   3.725   4.805  0.5129  0.0242 -0.3676
  815MOL0     C 9913   7.900   3.750   4.750 -0.6426  0.1792 -0.0742
  815MOL0     O 9914   7.883   3.774   4.608  0.1767 -0.7814 -0.8121
  815MOL0     C 9915   7.763   3.786   4.543 -0.1854  0.0537  0.6888
  815MOL0     C 9916   7.759   3.829   4.409  0.0735 -0.1370 -0.5832
  815MOL0     C 9917   7.641   3.857   4.348  0.3808  0.6718 -0.2334
  815MOL0     C 9918   7.650   3.902   4.200 -0.4895  1.6287  0.7221
  815MOL0     C 9919   7.519   3.841   4.411  0.5329  0.1304 -0.4950
  815MOL0     C 9920   7.383   3.866   4.353 -0.0640  0.0558  0.2367
  815MOL0     O 9921   7.285   3.801   4.420 -0.5094  0.1525  0.0585
  815MOL0     C 9922   7.162   3.857   4.398  0.6904  0.1528  0.0791
  815MOL0     C 9923   7.107   3.956   4.478 -0.0257  0.4109  0.0071
  815MOL0     C 9924   6.977   4.006   4.453 -0.1866  0.0086 -0.2805
  815MOL0     C 9925   6.897   3.960   4.349 -0.2233  0.4122 -0.5261
  815MOL0     O 9926   6.773   4.012   4.346  0.5658  0.2055  0.2013
  815MOL0     C 9927   6.672   3.944   4.271  0.0124 -0.2558  0.6214
  815MOL0     C 9928   6.544   3.996   4.338 -0.3473  0.1472 -0.1431
  815MOL0     C 9929   6.406   3.950   4.283  0.5020  0.1297 -0.4369
  815MOL0     C 9930   6.308   3.991   4.390 -0.1618  0.0984  0.8244
  815MOL0     C 9931   6.164   3.935   4.366  0.4303 -0.1926 -0.3575
  815MOL0     C 9932   6.157   3.791   4.410 -0.6304  0.5040 -0.4109
  815MOL0     C 9933   6.022   3.719   4.364 -0.7948 -0.9634  0.1072
  815MOL0     C 9934   6.017   3.676   4.207  0.6869  0.3306 -0.6058
  815MOL0    Cl 9935   6.112   3.542   4.188  0.5573  0.4329  0.0983
  815MOL0     C 9936   6.948   3.861   4.269 -0.0404  0.6242  0.1838
  815MOL0     C 9937   7.079   3.813   4.297 -0.0646  0.5766  0.3416
  815MOL0     O 9938   7.366   3.941   4.254 -0.1307 -0.4365 -0.4228
  815MOL0     C 9939   7.516   3.800   4.552 -0.7125  0.0856  0.2411
  815MOL0     C 9940   7.636   3.766   4.608  0.1240  0.3541  0.1422
  815MOL0     N 9941   8.013   3.791   5.148 -1.0009  0.3922  0.2330
  815MOL0     N 9942   7.902   3.807   5.204 -0.3124  0.4418  0.3539
  815MOL0     C 9943   7.452   3.430   4.788  0.1385 -0.9147  0.1789
  815MOL0     C 9944   7.553   3.338   4.755  0.1623  0.3693  0.4717
  815MOL0     C 9945   8.017   3.231   4.701 -0.2873  1.4138 -0.1221
  815MOL0     C 9946   8.000   3.092   4.696 -0.0364 -0.2363 -0.6233
  815MOL0     C 9947   8.107   3.016   4.649  0.7657  0.1191 -0.3126
  815MOL0     C 9948   8.233   3.076   4.622 -0.8563  0.4362  0.2609
  815MOL0     O 9949   8.325   2.977   4.593 -0.6866 -0.0479 -0.0702
  815MOL0     C 9950   8.464   3.013   4.610 -0.4583 -0.4438  0.6632
  815MOL0     C 9951   8.548   2.886   4.595  0.1659  0.1202  0.3952
  815MOL0     C 9952   8.679   2.890   4.674 -0.0742  0.0774 -0.2386
  815MOL0     C 9953   8.662   2.872   4.823 -0.4720 -0.0116  0.6441
  815MOL0     C 9954   8.784   2.883   4.892  0.7234  0.2339  0.4786
  815MOL0     C 9955   8.889   2.888   4.947  0.2735 -0.8003 -0.0021
  815MOL0     C 9956   8.255   3.207   4.630 -0.1399 -0.0347 -0.2147
  815MOL0     C 9957   8.149   3.286   4.677  0.1040  0.0401  0.7823
  815MOL0     H 9958   7.782   3.433   4.995  1.7925  0.8538 -1.7649
  815MOL0     H 9959   7.568   3.579   5.055 -0.1998 -0.6221 -0.1414
  815MOL0     H 9960   7.288   3.636   4.758 -0.5347 -1.3904 -0.3536
  815MOL0     H 9961   7.196   3.525   4.860  0.6940 -0.7464 -0.5376
  815MOL0     H 9962   7.083   3.727   4.834 -0.0320 -1.7064 -0.3137
  815MOL0     H 9963   7.134   3.720   5.001  2.1820 -1.3282  0.7403
  815MOL0     H 9964   7.214   3.921   4.778 -2.1303 -1.2335 -0.7489
  815MOL0     H 9965   7.153   3.938   4.942  1.3798 -2.0734  2.5666
  815MOL0     H 9966   7.350   3.857   5.047 -0.1846 -0.0586 -0.1811
  815MOL0     H 9967   7.422   3.826   4.889  1.1400  0.3638 -1.2137
  815MOL0     H 9968   7.454   4.063   4.849 -1.3887  1.8024 -0.5717
  815MOL0     H 9969   7.333   4.111   4.949 -2.2112 -2.5195 -2.4365
  815MOL0     H 9970   7.536   4.168   5.078  1.4258  0.1293  0.4911
  815MOL0     H 9971   7.463   4.044   5.162  1.4447 -0.0192  0.6537
  815MOL0     H 9972   7.603   3.876   5.045  0.7264 -0.2844 -0.1142
  815MOL0     H 9973   7.702   4.001   4.970 -0.1068  0.6162 -0.1232
  815MOL0     H 9974   7.690   3.969   5.270 -1.4260 -0.2294 -1.3993
  815MOL0     H 9975   7.763   4.102   5.185  1.6841 -0.4359 -2.5356
  815MOL0     H 9976   7.931   4.058   4.980 -1.0991 -1.0435  0.2463
  815MOL0     H 9977   8.209   3.989   4.942 -1.9942  2.0081 -2.2988
  815MOL0     H 9978   8.226   3.802   4.972 -1.7813 -0.6403  0.8264
  815MOL0     H 9979   8.205   3.852   4.754 -0.4999  0.4197 -0.9527
  815MOL0     H 9980   8.048   3.936   4.793 -0.4149 -0.2658 -0.5160
  815MOL0     H 9981   8.063   3.668   4.898  0.1597  1.4728  0.5936
  815MOL0     H 9982   8.106   3.668   4.729 -0.6275 -1.0152 -0.4360
  815MOL0     H 9983   7.867   3.835   4.810  1.0427  0.2552  0.8228
  815MOL0     H 9984   7.832   3.667   4.771 -2.1740  1.6393  0.9277
  815MOL0     H 9985   7.858   3.841   4.367  0.7042 -1.0040  0.5896
  815MOL0     H 9986   7.577   3.839   4.148 -0.5598  0.5571  2.0567
  815MOL0     H 9987   7.611   4.003   4.184 -2.4195  0.8119 -0.0049
  815MOL0     H 9988   7.754   3.899   4.167 -0.8899  2.0187 -0.6316
  815MOL0     H 9989   7.174   3.992   4.555 -0.2043  0.1798  0.2712
  815MOL0     H 9990   6.933   4.088   4.508  0.9522  1.0487 -0.8691
  815MOL0     H 9991   6.682   3.988   4.172 -0.3474  0.2449  0.8023
  815MOL0     H 9992   6.678   3.835   4.280 -0.8475 -0.8773 -3.8696
  815MOL0     H 9993   6.559   3.961   4.441  2.3850 -0.8400 -0.7993
  815MOL0     H 9994   6.545   4.105   4.332  0.4421  0.1606  0.1764
  815MOL0     H 9995   6.405   3.848   4.244  0.2169  1.4821 -4.4393
  815MOL0     H 9996   6.386   4.005   4.191 -0.3759 -0.5525 -0.6645
  815MOL0     H 9997   6.344   3.958   4.488 -1.1630  0.3215  1.2820
  815MOL0     H 9998   6.311   4.100   4.381  0.6410 -0.0718 -2.4780
  815MOL0     H 9999   6.134   3.936   4.261  0.4434  1.0519 -0.3580
  815MOL0     H10000   6.098   3.998   4.426 -3.8565 -2.6167 -2.0503
  815MOL0     H10001   6.246   3.733   4.381  0.0769  1.2151  0.2782
  815MOL0     H10002   6.164   3.794   4.519  0.2562 -1.7431 -0.3509
  815MOL0     H10003   5.940   3.787   4.388 -1.4200 -1.8870  0.5892
  815MOL0     H10004   5.995   3.632   4.423  1.6968 -2.0435 -0.2204
  815MOL0     H10005   6.053   3.761   4.147 -0.9395  0.4078 -1.5265
  815MOL0     H10006   5.912   3.654   4.184  0.8583 -1.9368  0.4787
  815MOL0     H10007   6.904   3.818   4.179  1.2341 -0.3494 -0.0019
  815MOL0     H10008   7.122   3.730   4.242  0.6317  1.1211  0.0543
  815MOL0     H10009   7.426   3.776   4.608  0.6435 -2.7601  1.3730
  815MOL0     H10010   7.636   3.731   4.710 -2.1407  0.6661  0.2895
  815MOL0     H10011   7.361   3.412   4.731  0.0206 -2.6258  0.8456
  815MOL0     H10012   7.544   3.270   4.670 -0.8868  0.8660  0.1701
  815MOL0     H10013   7.907   3.055   4.738  0.9951 -0.0272  2.0569
  815MOL0     H10014   8.093   2.909   4.638 -2.2639  0.3573  0.4414
  815MOL0     H10015   8.489   3.090   4.537  1.4033 -1.0411  0.6246
  815MOL0     H10016   8.487   3.050   4.711  2.6891 -3.1978  1.1506
  815MOL0     H10017   8.555   2.877   4.486 -1.4422 -1.3849  0.3796
  815MOL0     H10018   8.506   2.788   4.621  0.4793 -1.2801 -3.6837
  815MOL0     H10019   8.735   2.984   4.665  0.8676 -0.1899  2.0457
  815MOL0     H10020   8.754   2.818   4.640  1.1027  1.2334 -0.1957
  815MOL0     H10021   8.624   2.771   4.844 -1.4438  0.3249  0.5310
  815MOL0     H10022   8.589   2.944   4.859 -1.6446  0.6058 -2.6117
  815MOL0     H10023   8.986   2.899   4.993 -1.0716  1.3533  2.6126
  815MOL0     H10024   8.353   3.254   4.620 -0.2560  0.0745 -0.8690
  815MOL0     H10025   8.170   3.388   4.707 -0.9719  0.4694  0.1444
  816MOL0     O10026   0.806   6.498   2.677 -0.1877  0.1287 -0.6060
  816MOL0     C10027   0.925   6.466   2.654  0.0882 -0.0655  0.0231
  816MOL0     O10028   0.965   6.336   2.625 -0.5302 -0.3490  0.1342
  816MOL0     C10029   0.866   6.254   2.570 -0.1300 -0.1480  0.8844
  816MOL0     C10030   0.796   6.173   2.657  0.5978  0.6236  1.0508
  816MOL0     C10031   0.718   6.075   2.598 -0.0123 -0.0586 -0.2531
  816MOL0     C10032   0.705   6.052   2.461 -0.9155  0.2580 -0.2964
  816MOL0     O10033   0.615   5.966   2.417 -0.1033 -0.0505  0.0848
  816MOL0     C10034   0.591   5.947   2.269  0.3234 -0.4155  0.1774
  816MOL0     C10035   0.498   5.831   2.250 -0.8160 -0.2566 -1.0184
  816MOL0     C10036   0.459   5.833   2.102 -0.4135 -0.2526  0.3501
  816MOL0     C10037   0.325   5.764   2.069 -0.1309 -0.7005  0.1965
  816MOL0     C10038   0.285   5.827   1.930  0.8903  0.6061 -0.4495
  816MOL0     C10039   0.358   5.757   1.823  0.2405  0.3281  1.1704
  816MOL0     C10040   0.314   5.808   1.692  0.4425  0.3207 -0.6964
  816MOL0     C10041   0.385   5.737   1.578  0.6661 -0.2790 -0.5056
  816MOL0     N10042   0.528   5.760   1.588 -0.0711 -1.2062 -0.6604
  816MOL0     C10043   0.593   5.883   1.556 -1.0842  0.4901  0.2066
  816MOL0     C10044   0.727   5.857   1.577 -0.3146  0.0595  0.3715
  816MOL0     C10045   0.845   5.948   1.533  0.0482  0.0034 -0.7056
  816MOL0     C10046   0.912   5.880   1.409  0.3534  0.4100 -0.2335
  816MOL0     C10047   1.021   5.966   1.348  0.4801  0.0619  0.4209
  816MOL0     C10048   1.129   6.010   1.435  0.0795 -0.4168  0.0114
  816MOL0     O10049   1.236   6.057   1.351 -0.6857 -0.8190 -0.1187
  816MOL0     C10050   1.364   6.046   1.402 -0.6465 -0.0060 -0.5509
  816MOL0     C10051   1.393   6.047   1.544  0.0919 -0.3583  0.4442
  816MOL0     C10052   1.526   6.065   1.587  0.3604 -0.1570  0.4463
  816MOL0     C10053   1.557   6.084   1.732  0.0499  1.1870  0.0793
  816MOL0     C10054   1.630   6.074   1.489 -0.3583 -0.8573  0.5951
  816MOL0     C10055   1.777   6.095   1.532  1.5094 -0.2957  0.4949
  816MOL0     O10056   1.855   6.161   1.443  0.3334  0.0082 -0.4766
  816MOL0     C10057   1.991   6.146   1.461 -0.9766  0.0874  0.2127
  816MOL0     C10058   2.065   6.166   1.584 -0.1089  0.6725  0.5295
  816MOL0     C10059   2.204   6.163   1.590 -0.4629 -0.3988 -0.3535
  816MOL0     C10060   2.280   6.120   1.479 -0.4898  0.2751 -0.1391
  816MOL0     O10061   2.421   6.104   1.465 -0.0278  0.6633 -0.1904
  816MOL0     C10062   2.498   6.162   1.570 -0.3127 -0.3835  0.4139
  816MOL0     C10063   2.528   6.074   1.682 -0.4034  0.6190 -0.1549
  816MOL0     C10064   2.592   6.142   1.791 -0.3218 -0.9626 -0.3572
  816MOL0     C10065   2.748   6.123   1.770 -0.2419  0.5419 -0.7805
  816MOL0     C10066   2.831   6.187   1.885 -0.4367  0.0611 -0.3808
  816MOL0     C10067   2.977   6.191   1.859  0.0636 -0.3462 -0.7509
  816MOL0     C10068   3.045   6.281   1.970  0.2685  0.6506 -0.3096
  816MOL0     C10069   3.196   6.295   1.963  0.2228  0.6840  0.3535
  816MOL0    Cl10070   3.255   6.355   1.792  0.2317 -0.2855  0.1140
  816MOL0     C10071   2.209   6.111   1.354 -0.6757 -0.0118 -0.4914
  816MOL0     C10072   2.066   6.120   1.343  0.3393 -1.0057  0.1804
  816MOL0     O10073   1.812   6.024   1.625 -0.0819  0.7133  0.2741
  816MOL0     C10074   1.597   6.087   1.356  0.0432  0.3105  0.1545
  816MOL0     C10075   1.466   6.071   1.315  1.0750 -0.0537  0.7661
  816MOL0     N10076   0.734   5.729   1.628  0.1302 -0.1434  0.6147
  816MOL0     N10077   0.621   5.674   1.623  0.8260  0.1971  0.0463
  816MOL0     C10078   0.770   6.141   2.374 -1.0220  1.1989  0.3676
  816MOL0     C10079   0.850   6.237   2.434 -1.2725 -0.3469  0.2858
  816MOL0     C10080   1.027   6.563   2.699  0.7308 -0.0006  0.2773
  816MOL0     C10081   0.997   6.650   2.805 -0.2375  0.6905 -0.2644
  816MOL0     C10082   1.104   6.730   2.852  0.0844 -0.0715  0.7363
  816MOL0     C10083   1.230   6.721   2.806  0.0296 -0.0431  0.5567
  816MOL0     O10084   1.336   6.794   2.856 -0.1723 -0.2166  0.2277
  816MOL0     C10085   1.339   6.856   2.988 -0.0621 -0.2022 -0.3292
  816MOL0     C10086   1.432   6.778   3.079  1.0216 -0.0821  0.7727
  816MOL0     C10087   1.394   6.635   3.118  0.7121 -0.1754 -0.8177
  816MOL0     C10088   1.248   6.610   3.140 -0.6577  0.0199  0.0370
  816MOL0     C10089   1.208   6.665   3.272  0.4447 -0.2177 -0.4265
  816MOL0     C10090   1.175   6.709   3.377  0.3434  0.3403 -0.2509
  816MOL0     C10091   1.253   6.632   2.704  0.2592  0.0499 -0.3634
  816MOL0     C10092   1.156   6.548   2.648  0.2253 -0.2845  0.4266
  816MOL0     H10093   0.791   6.185   2.765 -2.2718  1.2984  0.9090
  816MOL0     H10094   0.659   6.018   2.668  0.1984  0.6600  0.5320
  816MOL0     H10095   0.537   6.041   2.250 -1.4422 -0.3454  4.3916
  816MOL0     H10096   0.681   5.919   2.214 -1.6045 -3.4703 -1.6899
  816MOL0     H10097   0.543   5.739   2.285 -2.0055  0.3098  2.3127
  816MOL0     H10098   0.406   5.844   2.308  1.3913  0.0816  2.7179
  816MOL0     H10099   0.454   5.936   2.066  0.7706  0.0576  1.0388
  816MOL0     H10100   0.528   5.776   2.039 -2.5801 -2.0307 -0.5715
  816MOL0     H10101   0.337   5.655   2.067  1.4209 -0.5542 -0.7323
  816MOL0     H10102   0.249   5.793   2.141 -0.3516 -0.2045 -0.2359
  816MOL0     H10103   0.177   5.819   1.915  0.2347  1.1322  3.1400
  816MOL0     H10104   0.302   5.934   1.945 -0.5638  0.7340  0.5356
  816MOL0     H10105   0.464   5.781   1.836  0.4712 -0.7497  1.4062
  816MOL0     H10106   0.347   5.648   1.826 -0.5281  0.4114  2.3769
  816MOL0     H10107   0.204   5.803   1.697  0.3575  2.4598  1.3574
  816MOL0     H10108   0.344   5.912   1.679  0.1755  0.1630 -2.9969
  816MOL0     H10109   0.337   5.776   1.488 -2.0085 -0.6142  0.6548
  816MOL0     H10110   0.361   5.631   1.580 -0.5532 -0.0149  0.4128
  816MOL0     H10111   0.549   5.974   1.517 -0.1692  1.9946  2.4505
  816MOL0     H10112   0.809   6.043   1.495 -0.2414 -0.6447 -2.0877
  816MOL0     H10113   0.911   5.953   1.620 -0.7129  0.1993 -0.1247
  816MOL0     H10114   0.839   5.868   1.328  0.7841 -0.5425 -0.4927
  816MOL0     H10115   0.948   5.780   1.434 -2.7527 -0.4059  1.4250
  816MOL0     H10116   0.974   6.051   1.298  2.6733  0.4612 -1.1444
  816MOL0     H10117   1.073   5.903   1.274  0.9384  1.9170 -0.9230
  816MOL0     H10118   1.167   5.925   1.493 -0.4432  0.2125  1.3285
  816MOL0     H10119   1.093   6.081   1.510 -1.4248 -0.4436 -0.6447
  816MOL0     H10120   1.321   6.039   1.625  1.6387 -2.2970  1.7114
  816MOL0     H10121   1.608   5.996   1.772 -1.0755  0.8525  0.8289
  816MOL0     H10122   1.637   6.158   1.742  1.1841 -0.2121  2.2415
  816MOL0     H10123   1.469   6.116   1.787 -0.6691 -1.6848  0.7896
  816MOL0     H10124   2.004   6.209   1.663 -0.4290  1.3311 -0.0675
  816MOL0     H10125   2.246   6.180   1.688  1.8603 -3.3220 -0.7085
  816MOL0     H10126   2.587   6.206   1.523 -0.8796  0.0328 -0.2907
  816MOL0     H10127   2.449   6.254   1.603  1.2288  0.5949  0.1019
  816MOL0     H10128   2.434   6.035   1.721 -0.6022  2.0150  0.8500
  816MOL0     H10129   2.577   5.980   1.654 -2.2501  0.7320 -4.5697
  816MOL0     H10130   2.573   6.095   1.887 -1.8234 -1.5949 -0.9414
  816MOL0     H10131   2.564   6.248   1.796  3.1805  0.1367 -0.8458
  816MOL0     H10132   2.774   6.017   1.772  1.5193  0.7816  4.1416
  816MOL0     H10133   2.777   6.152   1.669 -0.1898 -2.9465 -1.9071
  816MOL0     H10134   2.819   6.139   1.983  0.4147 -0.9128 -0.7224
  816MOL0     H10135   2.794   6.289   1.884 -1.2540 -0.2172  0.2601
  816MOL0     H10136   3.022   6.092   1.871 -0.3654 -0.4015  0.5297
  816MOL0     H10137   2.998   6.228   1.759 -0.2685  0.9140 -0.3685
  816MOL0     H10138   3.020   6.243   2.070  1.6480 -1.4223 -0.6875
  816MOL0     H10139   3.003   6.381   1.966  1.4430  1.2280  0.9586
  816MOL0     H10140   3.240   6.197   1.985  0.3652  0.4755 -0.7947
  816MOL0     H10141   3.251   6.351   2.039  1.4524 -1.1553  0.8821
  816MOL0     H10142   2.255   6.068   1.265 -0.6824  0.7342 -0.8603
  816MOL0     H10143   2.020   6.108   1.246  0.5189  4.3363 -0.8717
  816MOL0     H10144   1.670   6.122   1.284 -2.5108 -1.8562 -3.8654
  816MOL0     H10145   1.437   6.114   1.219  2.1428  1.0668  0.9172
  816MOL0     H10146   0.759   6.128   2.267  1.1500 -0.7812  0.3026
  816MOL0     H10147   0.916   6.287   2.364  0.8977 -2.7480  0.4410
  816MOL0     H10148   0.898   6.663   2.846 -0.4538  1.6181 -1.0520
  816MOL0     H10149   1.062   6.803   2.920 -0.3996  0.7074 -0.3698
  816MOL0     H10150   1.398   6.948   2.976  0.7213 -0.8590 -1.7709
  816MOL0     H10151   1.242   6.873   3.035 -0.3058  1.2736 -1.2932
  816MOL0     H10152   1.446   6.842   3.167 -0.6575 -0.0690  1.0683
  816MOL0     H10153   1.525   6.765   3.023  1.4808 -0.9529  1.7227
  816MOL0     H10154   1.440   6.622   3.217 -0.3708  1.0883 -0.1106
  816MOL0     H10155   1.438   6.563   3.049  1.2178 -2.0715  1.3508
  816MOL0     H10156   1.231   6.501   3.145  0.5365 -0.1995 -0.4951
  816MOL0     H10157   1.182   6.651   3.063 -2.2582  2.1491  2.3918
  816MOL0     H10158   1.137   6.762   3.462 -1.5869  2.2043 -2.1699
  816MOL0     H10159   1.356   6.630   2.673  1.3330 -2.5192  2.8267
  816MOL0     H10160   1.167   6.472   2.571 -0.0282  0.7545 -0.6704
  817MOL0     O10161   2.079   9.901  10.651 -0.6272 -0.6628  0.6967
  817MOL0     C10162   2.070  10.024  10.631 -0.3111  0.1253 -0.1433
  817MOL0     O10163   1.972  10.086  10.558 -0.2002  0.1660 -0.2087
  817MOL0     C10164   1.840  10.034  10.560 -0.1220  0.4995  0.3617
  817MOL0     C10165   1.792   9.953  10.667 -0.0671  0.3752 -0.1805
  817MOL0     C10166   1.676   9.883  10.658 -0.7076 -1.2772  0.1190
  817MOL0     C10167   1.599   9.894  10.544 -0.8201  0.7411 -0.8069
  817MOL0     O10168   1.471   9.830  10.545 -0.5804 -0.8635  0.3764
  817MOL0     C10169   1.417   9.802  10.417 -1.3182  0.5959  0.0101
  817MOL0     C10170   1.304   9.701  10.423 -0.7779  0.3300  0.4884
  817MOL0     C10171   1.173   9.759  10.475 -0.4170 -0.2650  0.7094
  817MOL0     C10172   1.074   9.799  10.371 -0.5317  0.6904  0.0715
  817MOL0     C10173   0.945   9.836  10.454 -1.0075  0.0417  0.1454
  817MOL0     C10174   0.830   9.804  10.358  0.5245 -1.0247  0.6193
  817MOL0     C10175   0.689   9.823  10.416  0.2299  0.3342  0.1476
  817MOL0     C10176   0.597   9.710  10.368 -0.2975 -0.5020  0.0495
  817MOL0     N10177   0.451   9.748  10.390 -0.0600 -0.6044 -0.3941
  817MOL0     C10178   0.382   9.744  10.509  0.1089  0.2781 -0.0267
  817MOL0     C10179   0.253   9.791  10.483 -0.1595  0.5798 -0.7837
  817MOL0     C10180   0.140   9.792  10.577 -0.6024 -0.1759  0.2045
  817MOL0     C10181   0.008   9.835  10.522  0.2416 -0.5318 -0.3359
  817MOL0     C10182  -0.075   9.890  10.635 -0.0763  0.6456 -0.1217
  817MOL0     C10183  -0.228   9.888  10.609 -0.4875 -0.1897 -0.4657
  817MOL0     O10184  -0.267   9.751  10.611  0.0675  0.5541 -0.1068
  817MOL0     C10185  -0.395   9.720  10.637  0.4661 -0.2788  0.4403
  817MOL0     C10186  -0.497   9.814  10.645 -0.5405  0.1196  0.4231
  817MOL0     C10187  -0.621   9.763  10.696  0.1230 -1.3476 -1.4506
  817MOL0     C10188  -0.724   9.871  10.727 -0.3979  0.1604  0.9035
  817MOL0     C10189  -0.648   9.629  10.717 -0.0797  0.1603  0.7263
  817MOL0     C10190  -0.774   9.578  10.764  0.3040  0.0818 -0.0305
  817MOL0     O10191  -0.763   9.469  10.846 -0.2006  0.0220  0.5812
  817MOL0     C10192  -0.873   9.407  10.891  0.1875  0.6430 -0.7792
  817MOL0     C10193  -0.869   9.269  10.868  0.0568  0.2009 -0.1630
  817MOL0     C10194  -0.975   9.187  10.906 -0.6028  0.6911  0.0309
  817MOL0     C10195  -1.087   9.246  10.970  0.6243  0.2983  0.5311
  817MOL0     O10196  -1.198   9.178  11.021  0.2495 -0.1441  0.1637
  817MOL0     C10197  -1.175   9.040  11.051  0.1065 -0.0237  0.4101
  817MOL0     C10198  -1.296   8.985  11.147 -0.0517 -1.1889  0.2049
  817MOL0     C10199  -1.312   8.841  11.119 -0.1278  0.6242  0.2472
  817MOL0     C10200  -1.183   8.755  11.148  0.3906 -0.1112  0.0203
  817MOL0     C10201  -1.211   8.607  11.135  0.3875  0.0274  0.0466
  817MOL0     C10202  -1.260   8.550  11.268 -0.7654  0.5008 -0.6050
  817MOL0     C10203  -1.281   8.400  11.258  0.1835  0.1781  0.1946
  817MOL0     C10204  -1.413   8.363  11.195 -0.4977 -0.0914  0.5583
  817MOL0    Cl10205  -1.436   8.181  11.235 -0.1994  0.2587  0.0829
  817MOL0     C10206  -1.080   9.392  10.995 -0.4940 -0.4083  0.0488
  817MOL0     C10207  -0.970   9.472  10.962 -0.6221 -0.3864 -0.4282
  817MOL0     O10208  -0.885   9.617  10.716 -0.8352 -0.2733 -0.0360
  817MOL0     C10209  -0.538   9.545  10.709 -0.0395  0.0728 -0.6544
  817MOL0     C10210  -0.418   9.586  10.658  0.5693  0.4618 -0.1582
  817MOL0     N10211   0.252   9.824  10.351  0.5560 -0.7620 -0.1075
  817MOL0     N10212   0.365   9.798  10.301  0.3828 -0.0806  0.4042
  817MOL0     C10213   1.637   9.977  10.442  1.7651  0.2676  0.1608
  817MOL0     C10214   1.756  10.049  10.451  0.5327 -0.3953 -0.6348
  817MOL0     C10215   2.188  10.107  10.677 -0.3838  0.7269 -1.1031
  817MOL0     C10216   2.295  10.052  10.755  0.9285  0.2480 -0.5632
  817MOL0     C10217   2.411  10.123  10.786  0.1812 -0.3306 -0.3011
  817MOL0     C10218   2.428  10.263  10.765  1.0131  1.5982  0.4270
  817MOL0     O10219   2.544  10.317  10.786 -0.2322  0.5583  0.5072
  817MOL0     C10220   2.576  10.450  10.729  0.1992  0.1198 -0.6694
  817MOL0     C10221   2.711  10.485  10.786 -0.2467  0.2127  0.1816
  817MOL0     C10222   2.825  10.379  10.785  0.1448 -0.1328 -0.3490
  817MOL0     C10223   2.953  10.463  10.784 -0.5397 -0.4409  0.0113
  817MOL0     C10224   3.060  10.386  10.724  0.3910 -0.9076 -0.0445
  817MOL0     C10225   3.141  10.304  10.689 -0.4826 -0.2655  0.7983
  817MOL0     C10226   2.311  10.320  10.712  0.2585 -0.1821 -0.0231
  817MOL0     C10227   2.196  10.248  10.660  0.0508  0.4427 -0.1383
  817MOL0     H10228   1.853   9.942  10.756 -2.8552  0.5823  1.8870
  817MOL0     H10229   1.639   9.813  10.732  0.9535 -1.1399  1.1361
  817MOL0     H10230   1.377   9.897  10.379  1.9475  2.0207 -0.1695
  817MOL0     H10231   1.485   9.769  10.338 -5.3685 -1.8364 -2.8697
  817MOL0     H10232   1.287   9.672  10.319  2.3285  1.2366 -0.3608
  817MOL0     H10233   1.344   9.620  10.486  0.2410 -0.7821 -1.5131
  817MOL0     H10234   1.123   9.678  10.530  0.4305 -0.3825  1.3449
  817MOL0     H10235   1.182   9.843  10.545  1.2070  0.2262 -0.0301
  817MOL0     H10236   1.094   9.882  10.302 -3.2696 -0.8759 -2.8817
  817MOL0     H10237   1.062   9.710  10.308  3.6493 -1.2786  1.6169
  817MOL0     H10238   0.940   9.773  10.544 -1.0329  0.2014  0.2570
  817MOL0     H10239   0.938   9.944  10.471 -3.8662  0.3636 -2.3640
  817MOL0     H10240   0.829   9.869  10.270 -2.9379 -1.1610  0.4386
  817MOL0     H10241   0.840   9.704  10.316 -0.5584 -1.0238  0.3302
  817MOL0     H10242   0.704   9.801  10.522  2.4506  1.1447  0.0371
  817MOL0     H10243   0.644   9.921  10.398 -2.2964 -0.8093 -0.2084
  817MOL0     H10244   0.624   9.618  10.421  1.0852  0.1254  0.4579
  817MOL0     H10245   0.606   9.701  10.259  2.3152 -0.2344  0.1780
  817MOL0     H10246   0.421   9.717  10.607  0.0550  0.2969 -0.0006
  817MOL0     H10247   0.135   9.698  10.632  0.6870  1.1292  2.7164
  817MOL0     H10248   0.153   9.869  10.653 -1.6000 -0.2111  0.4329
  817MOL0     H10249  -0.027   9.750  10.462 -0.1045  0.2836 -1.3002
  817MOL0     H10250   0.024   9.921  10.457  0.3494 -0.6451 -0.4605
  817MOL0     H10251  -0.040   9.993  10.651  3.1428 -0.3173 -0.2150
  817MOL0     H10252  -0.057   9.840  10.731 -1.0097 -0.4732 -0.5008
  817MOL0     H10253  -0.244   9.929  10.508 -0.3055  1.8948  0.3139
  817MOL0     H10254  -0.261   9.953  10.690  2.1457  0.5323  0.1407
  817MOL0     H10255  -0.482   9.914  10.607 -2.7322  0.7774  1.1353
  817MOL0     H10256  -0.798   9.872  10.647 -0.2576  0.8057  0.7756
  817MOL0     H10257  -0.770   9.857  10.825 -0.3779 -2.3055  0.6122
  817MOL0     H10258  -0.675   9.969  10.734 -1.8947  1.1932 -1.8521
  817MOL0     H10259  -0.784   9.229  10.813 -2.0432 -1.1236 -2.7082
  817MOL0     H10260  -0.976   9.081  10.882 -0.2906  0.5980  0.4160
  817MOL0     H10261  -1.175   8.985  10.956  0.2298 -0.2716  0.5503
  817MOL0     H10262  -1.087   9.027  11.114  0.5263 -0.4128 -0.2499
  817MOL0     H10263  -1.282   9.003  11.254 -0.2358 -1.7987  0.3357
  817MOL0     H10264  -1.383   9.048  11.125  3.3659  3.7319 -0.9417
  817MOL0     H10265  -1.339   8.826  11.014 -1.6915 -1.2368  0.8591
  817MOL0     H10266  -1.397   8.812  11.182  0.4957  0.6307  1.1071
  817MOL0     H10267  -1.091   8.782  11.095 -0.3066 -0.0791 -1.2093
  817MOL0     H10268  -1.155   8.783  11.250  1.1089 -1.2527  0.1568
  817MOL0     H10269  -1.121   8.562  11.093 -0.0382 -0.1778 -0.6657
  817MOL0     H10270  -1.292   8.598  11.062  1.6218  0.2182 -1.3916
  817MOL0     H10271  -1.180   8.570  11.341  0.0550 -1.0996 -1.0121
  817MOL0     H10272  -1.344   8.615  11.295 -1.3045 -0.1683 -0.6460
  817MOL0     H10273  -1.275   8.361  11.360  3.2148 -1.8288 -0.6092
  817MOL0     H10274  -1.195   8.349  11.214  1.9698  1.9133  1.4568
  817MOL0     H10275  -1.419   8.377  11.086  2.6754 -1.8589  0.0445
  817MOL0     H10276  -1.497   8.417  11.240 -0.2465  0.5599  0.2638
  817MOL0     H10277  -1.167   9.439  11.040 -1.2335 -1.7418  0.0759
  817MOL0     H10278  -0.957   9.578  10.981  2.8075 -1.0271  1.5629
  817MOL0     H10279  -0.559   9.442  10.736 -0.3838 -0.5445 -3.1011
  817MOL0     H10280  -0.337   9.516  10.640  1.7581  1.3248  1.5701
  817MOL0     H10281   1.584   9.986  10.347  0.1793 -0.4720  0.9433
  817MOL0     H10282   1.792  10.101  10.363  0.3192 -1.3705 -1.3125
  817MOL0     H10283   2.299   9.948  10.785 -2.7557  0.1940  0.1630
  817MOL0     H10284   2.483  10.059  10.836 -2.4018 -1.7315  1.9490
  817MOL0     H10285   2.583  10.456  10.620 -1.5354  0.1926 -0.7944
  817MOL0     H10286   2.500  10.513  10.776 -1.4017 -1.3195 -1.2204
  817MOL0     H10287   2.683  10.502  10.891  0.6049 -0.7729  0.5822
  817MOL0     H10288   2.747  10.581  10.748  3.8955 -1.1192  0.2093
  817MOL0     H10289   2.809  10.340  10.684  2.0091 -2.5820  0.1983
  817MOL0     H10290   2.819  10.297  10.857  0.9249 -0.3391 -0.5049
  817MOL0     H10291   2.967  10.487  10.889 -1.7794 -2.1021  0.5998
  817MOL0     H10292   2.942  10.560  10.735  1.5815  0.7366  1.7269
  817MOL0     H10293   3.208  10.232  10.647  0.6281  1.2964 -0.2257
  817MOL0     H10294   2.299  10.426  10.692 -0.0174 -0.2113 -0.0085
  817MOL0     H10295   2.115  10.295  10.605  0.2264  2.0724  0.8954
  818MOL0     O10296   4.167   0.128   2.828  0.0301 -0.2661 -0.2505
  818MOL0     C10297   4.262   0.054   2.811 -0.2896 -0.2406 -0.3563
  818MOL0     O10298   4.299  -0.046   2.893 -0.0664 -0.5962  0.3146
  818MOL0     C10299   4.222  -0.079   3.003  0.9125  0.6230 -0.0070
  818MOL0     C10300   4.083  -0.091   3.000 -0.6865 -0.7958 -0.0978
  818MOL0     C10301   4.001  -0.124   3.110  0.1100  0.1364 -0.0919
  818MOL0     C10302   4.059  -0.152   3.230 -0.3648 -0.5106  0.6382
  818MOL0     O10303   3.993  -0.182   3.346  0.5690 -0.1855 -0.0471
  818MOL0     C10304   3.864  -0.256   3.345  0.2221  0.7255  0.4623
  818MOL0     C10305   3.892  -0.401   3.357  0.1118  0.5516  0.6003
  818MOL0     C10306   3.765  -0.473   3.408 -0.0366 -0.1187  0.2633
  818MOL0     C10307   3.780  -0.610   3.456  0.0226 -0.8597 -0.2150
  818MOL0     C10308   3.673  -0.657   3.545  0.0772 -0.1750  0.7544
  818MOL0     C10309   3.531  -0.650   3.482 -0.1721 -0.2630  0.9921
  818MOL0     C10310   3.423  -0.717   3.575  0.2482 -0.3102 -0.1064
  818MOL0     C10311   3.279  -0.664   3.545 -0.2473 -0.7520 -0.8158
  818MOL0     N10312   3.186  -0.765   3.589  0.5569  0.3396 -0.3507
  818MOL0     C10313   3.103  -0.844   3.509 -0.1498 -0.5944 -0.9085
  818MOL0     C10314   3.025  -0.917   3.593  0.9449  0.3440 -0.6001
  818MOL0     C10315   2.921  -1.024   3.570 -0.2975 -0.4858  0.0526
  818MOL0     C10316   2.978  -1.169   3.576  0.5971  0.5029 -0.0584
  818MOL0     C10317   2.883  -1.263   3.640 -0.9325 -0.1283 -0.1681
  818MOL0     C10318   2.754  -1.287   3.556 -0.5639  0.6487  0.1078
  818MOL0     O10319   2.680  -1.388   3.626 -0.0251 -0.1850 -0.1271
  818MOL0     C10320   2.549  -1.370   3.645  0.5642 -0.0679  0.2334
  818MOL0     C10321   2.503  -1.367   3.773 -0.0208  0.2069  0.1073
  818MOL0     C10322   2.373  -1.329   3.808  0.5146 -0.4197 -0.3993
  818MOL0     C10323   2.334  -1.310   3.953  0.1083  0.3859 -0.0386
  818MOL0     C10324   2.281  -1.309   3.706  0.1139 -0.8423  0.9210
  818MOL0     C10325   2.132  -1.289   3.721  0.2486 -0.9565 -0.3152
  818MOL0     O10326   2.068  -1.218   3.625 -0.5042 -0.1584 -0.5543
  818MOL0     C10327   1.936  -1.232   3.616 -0.4558  0.6745  0.4517
  818MOL0     C10328   1.879  -1.350   3.555 -0.0181 -0.2411  0.0445
  818MOL0     C10329   1.740  -1.343   3.531 -0.1391  0.8022 -0.1321
  818MOL0     C10330   1.657  -1.243   3.585  0.2275 -0.4825  0.0753
  818MOL0     O10331   1.526  -1.238   3.571  1.5115  0.2474  0.3902
  818MOL0     C10332   1.454  -1.351   3.522 -1.2538 -0.0520  0.3197
  818MOL0     C10333   1.307  -1.311   3.539 -0.5823  0.3937  1.2808
  818MOL0     C10334   1.231  -1.414   3.469 -0.1879  0.1720 -0.1917
  818MOL0     C10335   1.092  -1.360   3.415  0.5537  0.3771  0.4428
  818MOL0     C10336   1.008  -1.459   3.331 -0.5328  0.7883  0.0977
  818MOL0     C10337   0.894  -1.392   3.260  0.1218  0.1346  0.0947
  818MOL0     C10338   0.820  -1.498   3.173 -0.8272 -1.0807 -0.6595
  818MOL0     C10339   0.678  -1.454   3.135 -0.1301 -0.0730  0.5106
  818MOL0    Cl10340   0.667  -1.306   3.043  0.0139  0.0002  0.3467
  818MOL0     C10341   1.721  -1.131   3.654 -0.5248 -0.1641 -0.3745
  818MOL0     C10342   1.859  -1.128   3.667 -0.0684  0.8002  0.0125
  818MOL0     O10343   2.079  -1.354   3.812  1.0663 -0.4145  0.0896
  818MOL0     C10344   2.325  -1.333   3.568 -0.5607 -0.3118  0.6219
  818MOL0     C10345   2.461  -1.360   3.540  0.1825  0.7710  0.2280
  818MOL0     N10346   3.055  -0.880   3.721  0.1166 -0.6870 -0.0338
  818MOL0     N10347   3.147  -0.794   3.721  0.2449 -0.0314 -0.7228
  818MOL0     C10348   4.200  -0.136   3.247  0.3013  0.9367 -0.1931
  818MOL0     C10349   4.280  -0.105   3.132  0.3072  0.0146  0.6989
  818MOL0     C10350   4.347   0.074   2.692  0.4996  0.3137 -0.4543
  818MOL0     C10351   4.458  -0.004   2.671 -0.0658  1.1137 -0.8444
  818MOL0     C10352   4.549   0.022   2.575 -0.5608  0.1559  0.8767
  818MOL0     C10353   4.538   0.129   2.487  0.3796  0.4020  1.0722
  818MOL0     O10354   4.630   0.156   2.393 -0.6955  0.4222 -0.1013
  818MOL0     C10355   4.612   0.261   2.305  0.1122 -0.6812  0.4764
  818MOL0     C10356   4.734   0.259   2.201  0.1071 -1.0399  0.1490
  818MOL0     C10357   4.738   0.118   2.142  0.0860  0.2251  0.3909
  818MOL0     C10358   4.833   0.101   2.024  0.1541  0.0526  0.3001
  818MOL0     C10359   4.967   0.160   2.034 -0.3723 -0.5698 -0.4366
  818MOL0     C10360   5.071   0.215   2.057  0.0446  0.6878 -0.0815
  818MOL0     C10361   4.415   0.210   2.502 -0.8503  0.5341  0.5654
  818MOL0     C10362   4.325   0.186   2.608 -0.6269 -0.2402  0.1562
  818MOL0     H10363   4.017  -0.079   2.914 -1.2988 -0.0737  0.4478
  818MOL0     H10364   3.894  -0.143   3.104  0.4511 -1.8174 -0.5371
  818MOL0     H10365   3.789  -0.221   3.417 -2.0361  1.8095 -2.2235
  818MOL0     H10366   3.808  -0.242   3.252 -0.5457  0.2187  0.8320
  818MOL0     H10367   3.904  -0.434   3.254 -0.3944 -0.5636  0.8907
  818MOL0     H10368   3.973  -0.429   3.425  1.9784 -2.5517 -2.5998
  818MOL0     H10369   3.714  -0.422   3.490 -0.6101 -1.1349  0.5634
  818MOL0     H10370   3.695  -0.482   3.324  0.6427 -2.9055 -0.0969
  818MOL0     H10371   3.788  -0.679   3.371 -1.8900 -1.7704  0.2923
  818MOL0     H10372   3.867  -0.620   3.521 -2.2059 -0.0380  3.1405
  818MOL0     H10373   3.693  -0.761   3.573 -2.0287 -0.7892  0.2115
  818MOL0     H10374   3.682  -0.606   3.641 -0.0381 -1.4103  1.4500
  818MOL0     H10375   3.513  -0.545   3.461  1.4898 -0.1666 -0.1328
  818MOL0     H10376   3.519  -0.700   3.385 -0.7416 -0.5341  1.1933
  818MOL0     H10377   3.419  -0.825   3.555 -2.4458 -0.7076  2.0036
  818MOL0     H10378   3.436  -0.704   3.683 -1.8990 -1.9413  0.4358
  818MOL0     H10379   3.263  -0.660   3.437  0.4066 -0.8796 -0.9214
  818MOL0     H10380   3.276  -0.567   3.596 -3.0988 -2.5101  2.7715
  818MOL0     H10381   3.094  -0.833   3.401 -0.7455  0.8616 -0.7338
  818MOL0     H10382   2.843  -1.022   3.646 -2.1261 -6.3103 -1.1490
  818MOL0     H10383   2.877  -1.002   3.472  0.3651 -0.7690 -0.3177
  818MOL0     H10384   3.070  -1.174   3.636  0.3462  1.5077  0.4436
  818MOL0     H10385   3.007  -1.200   3.475 -1.3553  1.4121 -0.9372
  818MOL0     H10386   2.856  -1.227   3.739 -0.3498 -0.2418  0.0379
  818MOL0     H10387   2.926  -1.361   3.664  0.0818  0.3694  0.0835
  818MOL0     H10388   2.789  -1.338   3.466 -0.6672 -1.4633  1.2055
  818MOL0     H10389   2.701  -1.194   3.536  0.5573  1.0547 -1.1199
  818MOL0     H10390   2.583  -1.378   3.845 -0.0602 -1.1117 -0.0359
  818MOL0     H10391   2.274  -1.394   3.987 -0.8838  1.3867  0.7700
  818MOL0     H10392   2.424  -1.287   4.011 -0.1542 -0.3801  0.6856
  818MOL0     H10393   2.268  -1.223   3.959 -1.7749 -1.0698  1.2620
  818MOL0     H10394   1.936  -1.429   3.508  0.4504  0.0347  0.1442
  818MOL0     H10395   1.706  -1.433   3.482  1.1153  0.4487 -0.4103
  818MOL0     H10396   1.488  -1.377   3.421  1.6206  1.8418  0.6791
  818MOL0     H10397   1.479  -1.437   3.585 -0.6043  0.3527  0.6225
  818MOL0     H10398   1.269  -1.311   3.642 -1.9629 -1.8764  0.8502
  818MOL0     H10399   1.289  -1.208   3.506  0.4777 -0.0575 -0.9021
  818MOL0     H10400   1.206  -1.491   3.542  1.7782 -0.7036 -0.4116
  818MOL0     H10401   1.286  -1.472   3.395 -0.5169 -1.5793  0.8947
  818MOL0     H10402   1.025  -1.316   3.491 -0.1735  0.9047 -0.4848
  818MOL0     H10403   1.118  -1.273   3.355 -1.7972  0.4001 -0.6475
  818MOL0     H10404   0.977  -1.543   3.394  1.0739  0.1175  0.0276
  818MOL0     H10405   1.083  -1.499   3.262 -1.4299 -0.3820 -0.2378
  818MOL0     H10406   0.822  -1.362   3.337  0.3906 -0.0915  0.4340
  818MOL0     H10407   0.924  -1.311   3.194  1.5747 -1.0351 -0.7465
  818MOL0     H10408   0.819  -1.594   3.226  1.3004  0.1550  1.8409
  818MOL0     H10409   0.881  -1.514   3.083  4.3463 -0.3406  2.3294
  818MOL0     H10410   0.627  -1.441   3.231 -1.7066 -1.0396 -0.1566
  818MOL0     H10411   0.625  -1.530   3.078 -0.8862  0.4072  0.5502
  818MOL0     H10412   1.656  -1.048   3.677 -1.4231 -0.9073 -0.1714
  818MOL0     H10413   1.903  -1.037   3.707  1.1843  0.7319 -1.1555
  818MOL0     H10414   2.258  -1.316   3.483  0.4942  4.0812  0.4376
  818MOL0     H10415   2.496  -1.371   3.438  0.1976  2.6768 -0.0191
  818MOL0     H10416   4.256  -0.151   3.339  0.4670  4.1685  0.3466
  818MOL0     H10417   4.387  -0.088   3.141  0.4026 -0.7346  1.0379
  818MOL0     H10418   4.495  -0.075   2.744  1.0150 -0.5358 -2.8870
  818MOL0     H10419   4.636  -0.043   2.568 -0.1663  0.8374 -2.4705
  818MOL0     H10420   4.514   0.247   2.258  0.1240  1.2058 -0.2270
  818MOL0     H10421   4.613   0.359   2.355  0.2907 -1.5739  2.2741
  818MOL0     H10422   4.824   0.287   2.255  0.5746 -3.4154  0.7041
  818MOL0     H10423   4.723   0.334   2.123 -0.3218 -0.9696  0.2740
  818MOL0     H10424   4.642   0.086   2.100 -0.6985 -0.5121  2.5936
  818MOL0     H10425   4.767   0.041   2.214 -1.9372 -0.9439  0.0641
  818MOL0     H10426   4.788   0.143   1.934 -3.5500  0.0990  1.9692
  818MOL0     H10427   4.837  -0.008   2.013 -2.2615 -0.0025 -0.5462
  818MOL0     H10428   5.166   0.264   2.066  1.3333 -1.9512  1.8711
  818MOL0     H10429   4.410   0.300   2.441  0.9433  0.1992 -0.1228
  818MOL0     H10430   4.246   0.257   2.632  0.9788  1.7940 -0.3254
  819MOL0     O10431   1.993   6.488  10.652 -0.0437 -0.2657  0.2159
  819MOL0     C10432   1.979   6.520  10.769 -0.8978  0.4779  0.0969
  819MOL0     O10433   1.872   6.553  10.835  0.5418  0.4855  0.1069
  819MOL0     C10434   1.749   6.565  10.777  0.2846 -0.1447  0.2876
  819MOL0     C10435   1.645   6.567  10.872  0.0454 -0.1487  0.4612
  819MOL0     C10436   1.516   6.588  10.835 -0.0363 -0.0798 -0.7482
  819MOL0     C10437   1.479   6.596  10.698 -0.2557  0.3900  0.2782
  819MOL0     O10438   1.350   6.616  10.655 -0.2829  0.5385  0.5812
  819MOL0     C10439   1.244   6.550  10.718 -0.1521 -0.4421  0.6294
  819MOL0     C10440   1.118   6.559  10.627 -0.6370  1.0539 -0.0143
  819MOL0     C10441   0.996   6.475  10.684 -0.0177 -0.6031  0.8588
  819MOL0     C10442   0.885   6.452  10.579  1.0129 -0.1302 -0.3639
  819MOL0     C10443   0.754   6.394  10.648  0.1174  0.3475  0.0289
  819MOL0     C10444   0.653   6.332  10.554  0.5750 -0.2435  0.5943
  819MOL0     C10445   0.515   6.309  10.615 -0.2528  0.2106 -0.1409
  819MOL0     C10446   0.437   6.233  10.501  0.5828 -0.6616 -0.1463
  819MOL0     N10447   0.302   6.247  10.546 -0.2362  0.7001 -0.1392
  819MOL0     C10448   0.211   6.348  10.510  0.2812 -0.1686  0.2022
  819MOL0     C10449   0.091   6.316  10.573 -0.0159 -0.1043  1.2194
  819MOL0     C10450  -0.035   6.393  10.563  0.5374  0.5808 -0.1084
  819MOL0     C10451  -0.152   6.299  10.526 -0.6900  0.3141  0.0922
  819MOL0     C10452  -0.193   6.210  10.645 -0.4345  0.0009  0.1436
  819MOL0     C10453  -0.299   6.111  10.603 -0.6631  1.1653  1.4273
  819MOL0     O10454  -0.418   6.180  10.556  0.9985 -0.0454 -0.3736
  819MOL0     C10455  -0.543   6.113  10.542  0.2381  0.4486 -0.3115
  819MOL0     C10456  -0.577   5.990  10.609 -0.4694 -0.2613 -0.5597
  819MOL0     C10457  -0.706   5.928  10.604  0.0701  0.8992  0.0627
  819MOL0     C10458  -0.720   5.805  10.698  0.6895 -0.2564  0.4790
  819MOL0     C10459  -0.815   5.980  10.524 -0.3710 -0.0382  0.5857
  819MOL0     C10460  -0.948   5.913  10.493 -0.1623 -0.4393  0.7172
  819MOL0     O10461  -1.040   5.986  10.410 -0.7375  0.0106 -0.4461
  819MOL0     C10462  -1.170   5.966  10.399  0.6035 -0.2302 -0.8772
  819MOL0     C10463  -1.247   6.069  10.340  0.7263  0.7546 -0.0125
  819MOL0     C10464  -1.388   6.048  10.310 -0.4622 -0.6045  0.1449
  819MOL0     C10465  -1.455   5.927  10.350  0.3162 -0.4646 -0.6306
  819MOL0     O10466  -1.588   5.915  10.305 -0.2555 -0.8114  0.1780
  819MOL0     C10467  -1.682   5.839  10.382 -0.0957  0.3440  0.3082
  819MOL0     C10468  -1.824   5.875  10.343 -0.1513 -0.0341  0.3493
  819MOL0     C10469  -1.872   6.019  10.377  0.2194  0.0665 -0.3191
  819MOL0     C10470  -2.024   6.027  10.384  0.2526  0.5072  0.4176
  819MOL0     C10471  -2.065   6.165  10.428  0.0449  0.3984  0.6321
  819MOL0     C10472  -2.086   6.182  10.573 -0.0876 -0.3316 -0.6136
  819MOL0     C10473  -2.102   6.320  10.623 -0.2409  0.0727  0.4895
  819MOL0     C10474  -2.222   6.398  10.573  0.0717  0.0715  0.0638
  819MOL0    Cl10475  -2.374   6.294  10.597 -0.1971  0.0789  0.3651
  819MOL0     C10476  -1.384   5.827  10.418 -0.1366 -0.2933  0.1632
  819MOL0     C10477  -1.246   5.848  10.440  0.6783 -0.1208 -0.0344
  819MOL0     O10478  -0.970   5.798  10.542 -0.2159  0.0429  0.2104
  819MOL0     C10479  -0.784   6.102  10.474 -0.8571 -0.7644  0.5841
  819MOL0     C10480  -0.653   6.168  10.478 -0.3845 -0.4796 -0.6457
  819MOL0     N10481   0.114   6.202  10.643  0.2415 -0.2147 -0.3995
  819MOL0     N10482   0.235   6.157  10.624  0.1319 -0.0790 -0.4685
  819MOL0     C10483   1.581   6.598  10.606  0.0594 -1.2165  0.0136
  819MOL0     C10484   1.717   6.586  10.645 -0.6330 -0.1350  1.4800
  819MOL0     C10485   2.103   6.505  10.841 -0.0373  0.1758  0.5017
  819MOL0     C10486   2.226   6.462  10.787 -0.4518 -0.0379  0.5279
  819MOL0     C10487   2.339   6.461  10.867  0.5058  0.0600 -0.1502
  819MOL0     C10488   2.339   6.486  11.005 -0.9227 -0.8564 -1.2226
  819MOL0     O10489   2.443   6.476  11.094  0.3224  0.4854  0.0474
  819MOL0     C10490   2.559   6.413  11.040  0.3460 -0.3400 -0.2746
  819MOL0     C10491   2.553   6.262  11.062 -0.5298 -0.0344  1.5382
  819MOL0     C10492   2.691   6.213  11.020 -0.2509  0.2628 -1.0093
  819MOL0     C10493   2.703   6.055  11.056  0.5871 -0.1547  0.2579
  819MOL0     C10494   2.662   6.026  11.195  0.0616  0.5683 -0.7301
  819MOL0     C10495   2.631   6.014  11.309 -0.8499  0.7930 -0.4034
  819MOL0     C10496   2.220   6.542  11.059 -0.0607  0.6293  0.2993
  819MOL0     C10497   2.101   6.547  10.980 -0.2325  1.0272  0.4233
  819MOL0     H10498   1.664   6.551  10.977  2.6867 -2.3847 -0.2414
  819MOL0     H10499   1.441   6.582  10.913  0.4512  1.8372 -0.0736
  819MOL0     H10500   1.261   6.442  10.725 -0.9776 -0.5852  0.5754
  819MOL0     H10501   1.227   6.598  10.815 -0.4876 -0.6364  0.6693
  819MOL0     H10502   1.081   6.662  10.622 -3.1733  0.2087 -0.2610
  819MOL0     H10503   1.150   6.520  10.530  1.6463  2.1460  0.2250
  819MOL0     H10504   1.023   6.378  10.724 -1.1530 -2.0720 -1.6783
  819MOL0     H10505   0.955   6.538  10.763 -0.0505 -0.7133  0.9287
  819MOL0     H10506   0.856   6.550  10.539  3.1541  1.9198  2.6598
  819MOL0     H10507   0.925   6.386  10.502  3.2679  0.8434 -0.1002
  819MOL0     H10508   0.780   6.324  10.727 -1.4392 -0.1689  0.1313
  819MOL0     H10509   0.699   6.474  10.699 -3.6097 -2.6910  1.2956
  819MOL0     H10510   0.642   6.397  10.467  3.1128 -1.8433 -1.0314
  819MOL0     H10511   0.685   6.231  10.524 -1.0899 -0.6564  0.0978
  819MOL0     H10512   0.522   6.243  10.702  2.2161  0.1205 -0.3318
  819MOL0     H10513   0.470   6.406  10.637  1.4798  1.1241 -0.4901
  819MOL0     H10514   0.457   6.126  10.497 -3.7832 -1.6742 -3.9140
  819MOL0     H10515   0.439   6.280  10.402 -1.3133  1.1374  0.6005
  819MOL0     H10516   0.236   6.430  10.444 -2.3272  0.0139 -0.7005
  819MOL0     H10517  -0.062   6.444  10.656  3.4865 -1.4026  2.0322
  819MOL0     H10518  -0.023   6.469  10.484  0.4207  1.5506  0.7789
  819MOL0     H10519  -0.118   6.238  10.442 -1.6003  2.0694 -1.6416
  819MOL0     H10520  -0.229   6.370  10.494 -0.6586  0.1989 -0.2487
  819MOL0     H10521  -0.240   6.261  10.730 -1.3755  0.4606 -0.6268
  819MOL0     H10522  -0.109   6.152  10.684  3.9897  4.4112 -1.7020
  819MOL0     H10523  -0.327   6.051  10.690 -1.3733 -2.9570 -1.3409
  819MOL0     H10524  -0.271   6.049  10.517 -1.8113  2.7464 -0.1706
  819MOL0     H10525  -0.508   5.942  10.678  1.9565 -0.6255 -3.0855
  819MOL0     H10526  -0.757   5.718  10.641  0.8931 -0.9859  1.4274
  819MOL0     H10527  -0.624   5.773  10.740  1.2286  0.6608 -0.0300
  819MOL0     H10528  -0.792   5.828  10.778  1.8734 -0.2401  1.5618
  819MOL0     H10529  -1.197   6.159  10.308  0.4600  1.4901  1.5618
  819MOL0     H10530  -1.435   6.132  10.259 -1.8641 -0.8378  1.0198
  819MOL0     H10531  -1.670   5.735  10.352  0.4030  0.6946 -0.7372
  819MOL0     H10532  -1.669   5.855  10.490 -0.6294  2.8318  0.0728
  819MOL0     H10533  -1.827   5.868  10.234  1.2556 -0.0128  0.2818
  819MOL0     H10534  -1.878   5.804  10.406  0.7849  0.2672  1.5313
  819MOL0     H10535  -1.847   6.086  10.295 -1.7475  0.2574 -0.8269
  819MOL0     H10536  -1.827   6.055  10.470  1.5640 -0.3034 -0.8133
  819MOL0     H10537  -2.059   6.016  10.281  0.7734 -1.1746  0.3916
  819MOL0     H10538  -2.065   5.954  10.455 -1.8614  1.9652  0.7865
  819MOL0     H10539  -2.158   6.197  10.380  0.9154  2.3815  0.1719
  819MOL0     H10540  -1.990   6.241  10.404  0.7046 -0.6066 -0.5873
  819MOL0     H10541  -2.164   6.116  10.612  0.0122 -0.4789 -0.6588
  819MOL0     H10542  -1.996   6.144  10.623 -0.4433 -2.0936 -1.2395
  819MOL0     H10543  -2.011   6.378  10.609  1.2573 -1.5916  2.7376
  819MOL0     H10544  -2.102   6.310  10.732 -0.1201 -3.8794  0.2369
  819MOL0     H10545  -2.220   6.422  10.467 -0.9860 -2.0550 -0.4788
  819MOL0     H10546  -2.247   6.490  10.627 -1.8964  0.3329 -1.2135
  819MOL0     H10547  -1.422   5.730  10.446 -0.1716 -0.9377 -1.9846
  819MOL0     H10548  -1.202   5.761  10.488 -5.1937 -2.3547  2.3271
  819MOL0     H10549  -0.854   6.159  10.415  0.5156  0.8931  0.4820
  819MOL0     H10550  -0.623   6.257  10.424  1.5704 -0.4523  0.4089
  819MOL0     H10551   1.548   6.619  10.505 -1.0236  0.1178  0.6082
  819MOL0     H10552   1.783   6.597  10.559 -0.1433 -2.1370  1.5434
  819MOL0     H10553   2.225   6.428  10.684 -1.0474  0.4034  0.3856
  819MOL0     H10554   2.413   6.407  10.809  0.3363  1.3713 -1.6421
  819MOL0     H10555   2.581   6.434  10.935  2.3067  0.1584  0.1871
  819MOL0     H10556   2.633   6.455  11.109  1.2758  0.0525 -1.4811
  819MOL0     H10557   2.476   6.227  10.992  0.2628  1.9276 -0.4527
  819MOL0     H10558   2.524   6.251  11.166  0.9588 -1.8952  1.8193
  819MOL0     H10559   2.764   6.270  11.078 -0.7804  1.2344 -1.2658
  819MOL0     H10560   2.712   6.233  10.915  0.5767 -0.3742 -0.9789
  819MOL0     H10561   2.802   6.012  11.035  0.9346  0.1059  1.3356
  819MOL0     H10562   2.644   6.004  10.979  0.7346 -2.5599  1.6393
  819MOL0     H10563   2.595   5.998  11.409 -0.0489 -0.5927 -0.3032
  819MOL0     H10564   2.226   6.577  11.162 -2.7069  1.8958  0.1231
  819MOL0     H10565   2.006   6.577  11.022 -0.4949  1.1223 -0.2154
  820MOL0     O10566   1.942  10.032  10.169 -0.0963 -0.2600 -0.2138
  820MOL0     C10567   2.039  10.010  10.096 -0.7398  0.3628  0.5458
  820MOL0     O10568   2.036   9.945   9.982  0.1463  0.4404  0.4344
  820MOL0     C10569   1.926   9.949   9.900 -0.3092  0.0457  0.6685
  820MOL0     C10570   1.907   9.827   9.837  0.8988  0.7243 -0.0671
  820MOL0     C10571   1.789   9.815   9.756  0.2653  0.0348  0.1144
  820MOL0     C10572   1.696   9.913   9.737  0.3775 -0.7895 -0.3959
  820MOL0     O10573   1.575   9.906   9.667 -0.1000 -0.2705  0.2086
  820MOL0     C10574   1.547   9.788   9.582 -0.3906 -0.3501  0.9776
  820MOL0     C10575   1.410   9.806   9.520 -0.4487  0.5290  0.0472
  820MOL0     C10576   1.373   9.684   9.444  0.4388  0.1478  0.0428
  820MOL0     C10577   1.235   9.701   9.380  0.6935  0.7539 -0.2275
  820MOL0     C10578   1.198   9.564   9.317  0.5602 -0.2911  0.1473
  820MOL0     C10579   1.053   9.574   9.265  1.0364  0.4534  0.4615
  820MOL0     C10580   0.948   9.591   9.367  0.2107 -0.8907  0.3800
  820MOL0     C10581   0.810   9.577   9.311  0.0467 -0.3862 -1.1110
  820MOL0     N10582   0.763   9.678   9.217  0.1975  0.8812 -0.0587
  820MOL0     C10583   0.801   9.690   9.087 -0.1694 -0.9960  0.0321
  820MOL0     C10584   0.718   9.786   9.030  0.1003  0.2885  0.2285
  820MOL0     C10585   0.732   9.812   8.881  0.2467 -0.0754  0.3802
  820MOL0     C10586   0.585   9.842   8.842 -0.1523  0.9290  0.9489
  820MOL0     C10587   0.587   9.864   8.683  0.1625 -0.2167 -0.6346
  820MOL0     C10588   0.456   9.919   8.640 -0.5686  0.0166  0.5157
  820MOL0     O10589   0.461   9.975   8.505 -0.2772  0.4425 -0.6791
  820MOL0     C10590   0.348  10.037   8.456 -1.0093 -0.3930 -0.4673
  820MOL0     C10591   0.359  10.099   8.328  0.0530  0.3070 -0.7995
  820MOL0     C10592   0.247  10.152   8.272  1.5823  0.1608 -0.6015
  820MOL0     C10593   0.267  10.187   8.136 -0.0677  0.2274  0.3518
  820MOL0     C10594   0.125  10.169   8.344  0.8577  0.0907 -0.0148
  820MOL0     C10595   0.005  10.246   8.304  0.0400  0.6566  0.1757
  820MOL0     O10596  -0.116  10.227   8.380 -0.1330  0.3815 -0.4852
  820MOL0     C10597  -0.226  10.296   8.338  0.2594 -0.8413  0.6540
  820MOL0     C10598  -0.260  10.329   8.202  0.2501  0.2213  0.2563
  820MOL0     C10599  -0.377  10.394   8.181  0.8096 -0.4443 -0.5104
  820MOL0     C10600  -0.459  10.439   8.286  0.4334  0.8659 -0.8570
  820MOL0     O10601  -0.578  10.497   8.248 -0.0006 -0.0490 -0.4712
  820MOL0     C10602  -0.652  10.561   8.360 -0.0135 -0.0247  0.0472
  820MOL0     C10603  -0.715  10.688   8.293 -0.3032  0.9766 -1.2589
  820MOL0     C10604  -0.785  10.773   8.395 -0.0604 -0.6656 -0.4574
  820MOL0     C10605  -0.860  10.888   8.317  0.5189 -0.3090  0.4633
  820MOL0     C10606  -0.954  10.976   8.405 -0.2116  1.0724 -0.3108
  820MOL0     C10607  -0.992  11.107   8.342 -0.6468 -0.2668  0.0427
  820MOL0     C10608  -1.106  11.174   8.415 -0.2962 -0.0524 -0.1633
  820MOL0     C10609  -1.131  11.319   8.365  0.5827  0.3850  0.4519
  820MOL0    Cl10610  -1.234  11.413   8.469 -0.1724 -0.0087  0.2578
  820MOL0     C10611  -0.427  10.404   8.416  1.0756  0.1471 -0.1150
  820MOL0     C10612  -0.311  10.337   8.440 -0.4038 -0.1120 -0.2862
  820MOL0     O10613   0.030  10.338   8.228 -0.3031 -0.0237  0.0821
  820MOL0     C10614   0.117  10.109   8.467 -0.5332  0.3341 -0.4018
  820MOL0     C10615   0.224  10.039   8.522 -0.1937 -0.0268  0.3972
  820MOL0     N10616   0.635   9.830   9.133 -0.3184 -0.6274 -0.6547
  820MOL0     N10617   0.663   9.770   9.242  0.0244  0.2120 -0.0381
  820MOL0     C10618   1.727  10.035   9.801  0.2236  0.0821  0.6794
  820MOL0     C10619   1.837  10.058   9.878 -0.2922  0.7303  0.0388
  820MOL0     C10620   2.172  10.022  10.158 -0.0320 -0.6885 -0.3639
  820MOL0     C10621   2.184  10.050  10.297  0.3610  0.3048  0.1004
  820MOL0     C10622   2.309  10.027  10.361  0.4020 -0.5875 -0.4134
  820MOL0     C10623   2.423   9.994  10.283 -0.1721  0.0800 -0.3587
  820MOL0     O10624   2.550   9.983  10.334  0.8799  0.4689  0.1290
  820MOL0     C10625   2.570  10.025  10.470 -0.3537 -0.7576  0.1753
  820MOL0     C10626   2.719  10.048  10.497  0.8512  0.1247  0.1731
  820MOL0     C10627   2.768  10.012  10.631 -0.7003  0.0180  0.6001
  820MOL0     C10628   2.922  10.036  10.649  0.8512  0.4301 -0.4431
  820MOL0     C10629   3.016   9.953  10.567  1.0008 -0.2505  0.3306
  820MOL0     C10630   3.103   9.898  10.505  0.2232 -0.0622  1.1995
  820MOL0     C10631   2.407   9.986  10.144 -0.5469  0.3465  0.1270
  820MOL0     C10632   2.285   9.993  10.082 -0.5591  0.1076 -0.0436
  820MOL0     H10633   1.968   9.742   9.865 -1.4638 -0.8179  0.7544
  820MOL0     H10634   1.776   9.716   9.714 -3.6794 -0.2059  1.4768
  820MOL0     H10635   1.620   9.785   9.501 -0.3929  0.2188  0.9471
  820MOL0     H10636   1.549   9.695   9.638 -3.3341  0.0479  1.8907
  820MOL0     H10637   1.329   9.814   9.593 -4.2981 -2.4770 -3.4373
  820MOL0     H10638   1.409   9.895   9.457 -1.6990  0.0996 -0.5563
  820MOL0     H10639   1.450   9.653   9.374  0.7889 -1.7234  1.1761
  820MOL0     H10640   1.355   9.603   9.516  0.1239 -1.3663 -1.6783
  820MOL0     H10641   1.161   9.733   9.454 -0.0152 -0.6513 -0.2866
  820MOL0     H10642   1.231   9.782   9.307 -1.4254  0.2232 -0.7651
  820MOL0     H10643   1.268   9.537   9.237 -2.5618 -1.3611 -2.4894
  820MOL0     H10644   1.191   9.484   9.390 -1.9831  0.5065  0.8677
  820MOL0     H10645   1.042   9.658   9.196  2.1852  2.6683  2.7998
  820MOL0     H10646   1.030   9.482   9.210  0.7191  1.2629 -0.8231
  820MOL0     H10647   0.981   9.532   9.453  2.0782  0.5128  0.6787
  820MOL0     H10648   0.950   9.687   9.420  2.8341 -0.0216 -1.1093
  820MOL0     H10649   0.741   9.577   9.396 -0.5389 -1.5056 -1.5642
  820MOL0     H10650   0.800   9.475   9.272  0.2055 -1.3890  1.2793
  820MOL0     H10651   0.887   9.639   9.044  1.3928  0.2871  1.5460
  820MOL0     H10652   0.801   9.894   8.860 -0.1848  0.5532  1.3727
  820MOL0     H10653   0.779   9.728   8.828  3.7164  1.1612  1.2372
  820MOL0     H10654   0.546   9.926   8.900 -1.2676  0.2173  1.2594
  820MOL0     H10655   0.520   9.755   8.861  0.4069  0.0677 -0.8107
  820MOL0     H10656   0.609   9.771   8.630 -1.1247 -0.4962 -0.7152
  820MOL0     H10657   0.677   9.925   8.672  1.6491 -2.4852 -1.6409
  820MOL0     H10658   0.411   9.987   8.712 -3.1132  1.1335 -1.9173
  820MOL0     H10659   0.405   9.823   8.636  2.5457 -1.8290  1.7982
  820MOL0     H10660   0.461  10.110   8.293 -0.3503  0.9790 -1.7839
  820MOL0     H10661   0.178  10.178   8.073  1.9105  1.5296 -2.9157
  820MOL0     H10662   0.307  10.288   8.122 -0.1378  0.3479  1.0191
  820MOL0     H10663   0.349  10.128   8.093  1.0218  1.6726  0.3924
  820MOL0     H10664  -0.203  10.306   8.112 -1.9851  1.3578 -1.5540
  820MOL0     H10665  -0.419  10.419   8.084  0.1767  0.2842 -0.0620
  820MOL0     H10666  -0.727  10.501   8.412  0.8882 -0.5331  0.7799
  820MOL0     H10667  -0.587  10.601   8.438 -1.1247  2.7551 -0.3334
  820MOL0     H10668  -0.641  10.741   8.231  2.7178 -3.3190 -1.7959
  820MOL0     H10669  -0.793  10.660   8.222 -1.2301  1.0585 -0.2902
  820MOL0     H10670  -0.703  10.826   8.443 -0.3726  2.0599 -2.6805
  820MOL0     H10671  -0.851  10.719   8.464  0.1869 -1.6977 -1.0104
  820MOL0     H10672  -0.792  10.952   8.260 -0.9472  1.0657  0.1993
  820MOL0     H10673  -0.923  10.841   8.240  0.7464  0.2343 -0.0634
  820MOL0     H10674  -0.904  11.005   8.498  0.1741  1.9377 -0.7798
  820MOL0     H10675  -1.041  10.912   8.422  2.8386 -3.2996  0.5598
  820MOL0     H10676  -0.903  11.171   8.347 -1.2873  0.6610 -0.2499
  820MOL0     H10677  -1.019  11.095   8.237 -1.6011  1.4747  0.0537
  820MOL0     H10678  -1.093  11.176   8.523  1.8129 -0.6098 -0.3732
  820MOL0     H10679  -1.200  11.122   8.394 -0.6247 -1.7752  4.5781
  820MOL0     H10680  -1.173  11.313   8.264 -0.6339  0.5584  0.9383
  820MOL0     H10681  -1.029  11.360   8.358  1.2944 -1.3331  0.2212
  820MOL0     H10682  -0.488  10.429   8.502  0.5952  0.3409 -0.5093
  820MOL0     H10683  -0.296  10.301   8.541 -0.3412 -0.9954 -0.5958
  820MOL0     H10684   0.028  10.103   8.530 -0.6231  0.5910 -0.5057
  820MOL0     H10685   0.203   9.980   8.611  1.3611 -1.2500 -0.0030
  820MOL0     H10686   1.659  10.116   9.780  0.0289  0.6380  3.0837
  820MOL0     H10687   1.854  10.148   9.936  0.0522  0.8538 -0.2507
  820MOL0     H10688   2.099  10.074  10.361  0.2359  0.6348 -0.1876
  820MOL0     H10689   2.326  10.035  10.468  5.3548 -0.1132 -0.9803
  820MOL0     H10690   2.517  10.115  10.501 -0.1972 -0.5905 -0.0377
  820MOL0     H10691   2.538   9.951  10.544  0.1215 -0.7697  0.3748
  820MOL0     H10692   2.739  10.149  10.461 -0.1453 -0.0559 -0.9407
  820MOL0     H10693   2.769   9.985  10.422  0.0300 -0.3161 -0.0134
  820MOL0     H10694   2.746   9.906  10.651 -1.2898 -0.0148 -0.1633
  820MOL0     H10695   2.710  10.070  10.703 -0.7208  0.7468 -0.0045
  820MOL0     H10696   2.943  10.004  10.752  0.4047 -0.7135 -0.6819
  820MOL0     H10697   2.932  10.144  10.646 -0.8517  0.6738  0.9525
  820MOL0     H10698   3.179   9.838  10.459 -1.3248  0.3158 -2.1049
  820MOL0     H10699   2.493   9.973  10.078 -0.5930 -1.6762  0.4195
  820MOL0     H10700   2.293   9.982   9.975 -0.6570 -0.5900  0.0139
  821MOL0     O10701   7.682  10.495   9.028 -0.2360 -0.2693  0.2246
  821MOL0     C10702   7.660  10.383   8.989  0.4664 -0.3058 -0.1860
  821MOL0     O10703   7.579  10.287   9.052  0.1476 -0.8288 -0.1776
  821MOL0     C10704   7.523  10.329   9.175  0.3949 -0.2571 -0.2105
  821MOL0     C10705   7.531  10.235   9.281 -0.2243 -0.2026 -0.1979
  821MOL0     C10706   7.454  10.248   9.397  0.4247 -0.3588 -0.0456
  821MOL0     C10707   7.365  10.359   9.410 -0.5577 -0.1875  0.3668
  821MOL0     O10708   7.297  10.395   9.521 -0.1606  0.1686  0.1710
  821MOL0     C10709   7.340  10.337   9.646  1.0593  0.2976 -0.6447
  821MOL0     C10710   7.279  10.416   9.759 -0.0820 -0.4457  0.2710
  821MOL0     C10711   7.123  10.432   9.740 -0.0469 -0.1855 -0.2750
  821MOL0     C10712   7.057  10.466   9.869  0.3684  0.3795 -0.5629
  821MOL0     C10713   6.902  10.442   9.877  0.3856  0.6819  1.0448
  821MOL0     C10714   6.820  10.554   9.834  0.7733 -0.3548 -0.2018
  821MOL0     C10715   6.676  10.519   9.829 -0.3197  1.0727  0.2632
  821MOL0     C10716   6.596  10.635   9.769  1.0478 -0.5122 -0.2521
  821MOL0     N10717   6.571  10.739   9.873  0.0878  0.2050  0.5546
  821MOL0     C10718   6.471  10.739   9.974  0.1902 -0.2182  0.2827
  821MOL0     C10719   6.492  10.863  10.024 -0.3921  0.4688  0.1596
  821MOL0     C10720   6.407  10.933  10.130  0.5859  0.6897  0.2210
  821MOL0     C10721   6.329  11.055  10.069 -0.0791 -0.4335 -0.1611
  821MOL0     C10722   6.208  11.074  10.170  0.3902 -0.0670 -0.4330
  821MOL0     C10723   6.149  11.214  10.166 -0.0488  0.1404 -0.0567
  821MOL0     O10724   6.069  11.225  10.042 -0.2554 -0.1303 -0.2658
  821MOL0     C10725   5.950  11.154  10.010 -0.4083 -0.8336 -0.1189
  821MOL0     C10726   5.896  11.168   9.884 -0.7178 -0.4449 -0.5499
  821MOL0     C10727   5.764  11.129   9.846 -0.7162  1.6234  0.2402
  821MOL0     C10728   5.721  11.165   9.712  0.5710  0.2602 -0.4387
  821MOL0     C10729   5.692  11.045   9.936 -0.5384  0.1047  0.2157
  821MOL0     C10730   5.554  10.993   9.917  0.4578  0.5102 -0.1460
  821MOL0     O10731   5.515  10.879   9.991 -0.2466  0.8199 -0.3309
  821MOL0     C10732   5.402  10.809   9.963 -0.3343 -0.1622  0.2274
  821MOL0     C10733   5.341  10.791   9.838 -0.8318  0.4850  0.8657
  821MOL0     C10734   5.219  10.732   9.820  0.3752  0.0061 -0.2910
  821MOL0     C10735   5.141  10.690   9.927 -0.7015  0.3785 -0.3469
  821MOL0     O10736   5.019  10.640   9.910 -0.5980 -1.0003  0.3787
  821MOL0     C10737   4.923  10.708   9.835  0.2204  0.6670  0.9381
  821MOL0     C10738   4.902  10.860   9.877  0.3310  0.1198 -0.1747
  821MOL0     C10739   4.846  10.857  10.019 -0.5100 -0.8520  0.6631
  821MOL0     C10740   4.762  10.985  10.047 -0.3405  0.3230 -1.1738
  821MOL0     C10741   4.694  10.970  10.189  0.4665 -0.4992 -0.0118
  821MOL0     C10742   4.625  11.108  10.220 -0.1890 -0.1483 -0.5237
  821MOL0     C10743   4.520  11.165  10.115 -0.6978  0.1409  0.0738
  821MOL0     C10744   4.403  11.069  10.092 -0.8015 -0.1755 -0.2437
  821MOL0    Cl10745   4.301  11.037  10.241  0.0407 -0.0727 -0.1751
  821MOL0     C10746   5.200  10.693  10.056  0.1158 -0.4927  0.3748
  821MOL0     C10747   5.324  10.763  10.073 -1.0880  0.5881  0.3955
  821MOL0     O10748   5.476  11.061   9.847 -0.4372 -0.0768 -0.0858
  821MOL0     C10749   5.750  11.030  10.067 -1.2855  0.4547 -0.9353
  821MOL0     C10750   5.869  11.091  10.104 -1.1758  0.3284  0.4414
  821MOL0     N10751   6.602  10.919   9.971  0.7182 -0.6087  1.0268
  821MOL0     N10752   6.637  10.856   9.869 -0.4063  0.1499 -0.1824
  821MOL0     C10753   7.364  10.452   9.299 -0.2348  0.0580 -1.0546
  821MOL0     C10754   7.441  10.440   9.184  0.7791  0.1818  0.5198
  821MOL0     C10755   7.735  10.332   8.867  0.0610 -0.1277  0.2229
  821MOL0     C10756   7.857  10.396   8.828 -0.7530 -0.4968  0.3134
  821MOL0     C10757   7.932  10.347   8.726 -0.0056 -1.1169  0.1241
  821MOL0     C10758   7.882  10.229   8.654  0.4457  0.2297 -0.4029
  821MOL0     O10759   7.948  10.167   8.546  0.3494 -0.0554  0.3526
  821MOL0     C10760   8.070  10.224   8.484 -0.0421  0.2457  0.1452
  821MOL0     C10761   8.083  10.161   8.336 -0.4082  0.6498 -0.7655
  821MOL0     C10762   8.105  10.006   8.344 -0.2484 -0.0460  0.0103
  821MOL0     C10763   8.189   9.948   8.455 -0.9903 -0.7250  1.0229
  821MOL0     C10764   8.327   9.996   8.437  0.6485  0.7963  1.0424
  821MOL0     C10765   8.439  10.022   8.405  0.3136 -0.2799 -0.2333
  821MOL0     C10766   7.757  10.173   8.689 -0.3092  0.3355 -0.7324
  821MOL0     C10767   7.689  10.223   8.801 -0.0481 -0.1330 -0.3843
  821MOL0     H10768   7.593  10.146   9.283 -0.3730 -0.2968  1.6235
  821MOL0     H10769   7.461  10.169   9.471  1.0570  2.0239  2.6023
  821MOL0     H10770   7.304  10.233   9.649 -0.0336  0.6559  1.9617
  821MOL0     H10771   7.448  10.342   9.659  0.7813  3.7484  1.6327
  821MOL0     H10772   7.291  10.350   9.845 -0.7562 -2.5596 -1.1510
  821MOL0     H10773   7.327  10.513   9.773 -2.0207  0.5461  0.4745
  821MOL0     H10774   7.101  10.519   9.678 -0.7242  4.5261  5.7060
  821MOL0     H10775   7.076  10.342   9.700  1.8440 -1.8463  1.0105
  821MOL0     H10776   7.109  10.409   9.946  2.0819 -0.6377 -2.3837
  821MOL0     H10777   7.073  10.569   9.903  4.5926 -0.4000  0.2713
  821MOL0     H10778   6.878  10.362   9.807  1.4809  0.6521  0.6752
  821MOL0     H10779   6.872  10.393   9.970  0.3173 -0.3198  0.5169
  821MOL0     H10780   6.837  10.639   9.901  0.9339 -0.1961 -0.4441
  821MOL0     H10781   6.845  10.584   9.732  4.6926 -0.9764  0.4233
  821MOL0     H10782   6.670  10.423   9.776  2.6450 -0.9865  3.2869
  821MOL0     H10783   6.641  10.496   9.930  0.9697  0.1277  0.5184
  821MOL0     H10784   6.497  10.598   9.739  0.3374  0.3532  0.9413
  821MOL0     H10785   6.650  10.678   9.684  1.1151  1.2254  0.6269
  821MOL0     H10786   6.391  10.674  10.006 -1.6215  2.8601  2.5310
  821MOL0     H10787   6.331  10.862  10.165  1.2687 -1.2210 -1.9028
  821MOL0     H10788   6.475  10.968  10.207 -0.6284  5.3206 -0.5455
  821MOL0     H10789   6.302  11.039   9.964  1.9809 -0.7869 -0.6657
  821MOL0     H10790   6.393  11.144  10.063  0.8550 -1.0639  0.2724
  821MOL0     H10791   6.243  11.054  10.271 -1.5437 -1.5653  0.0015
  821MOL0     H10792   6.131  10.997  10.151 -0.2783 -0.3694  2.9710
  821MOL0     H10793   6.234  11.281  10.179 -1.5782  2.1010  0.2466
  821MOL0     H10794   6.088  11.232  10.255  0.3919 -1.6352  0.6535
  821MOL0     H10795   5.951  11.228   9.812  2.2636 -2.0326  0.2287
  821MOL0     H10796   5.646  11.244   9.712  1.6973  1.3593 -0.0470
  821MOL0     H10797   5.803  11.202   9.649  0.4424 -0.2690 -0.9264
  821MOL0     H10798   5.690  11.080   9.651  2.2058 -0.5196 -0.2523
  821MOL0     H10799   5.398  10.809   9.748  0.4088  1.9255  1.8881
  821MOL0     H10800   5.174  10.720   9.721  2.6321  2.2704 -1.7082
  821MOL0     H10801   4.954  10.704   9.730 -1.3639 -1.9013  0.4769
  821MOL0     H10802   4.841  10.636   9.843  0.7792 -0.7619 -3.4412
  821MOL0     H10803   4.999  10.909   9.878  0.4024  0.2026 -3.2850
  821MOL0     H10804   4.837  10.912   9.806  1.0917 -0.4659 -1.3373
  821MOL0     H10805   4.922  10.842  10.096 -2.1096 -0.2253  2.4419
  821MOL0     H10806   4.784  10.768  10.036  1.5226 -2.5570 -0.3310
  821MOL0     H10807   4.832  11.068  10.042 -1.3723  1.1541 -2.5683
  821MOL0     H10808   4.702  11.003   9.957  0.3378  1.7721 -1.3576
  821MOL0     H10809   4.763  10.946  10.270  1.6129  1.1621 -0.4190
  821MOL0     H10810   4.616  10.893  10.184 -1.0139  0.9900 -0.9442
  821MOL0     H10811   4.578  11.093  10.318  1.3641  0.6073  0.3824
  821MOL0     H10812   4.709  11.177  10.219  0.0959 -0.4967 -1.6944
  821MOL0     H10813   4.574  11.176  10.021  1.1660 -1.3169  0.9078
  821MOL0     H10814   4.481  11.261  10.150  0.4830  0.8037 -0.3812
  821MOL0     H10815   4.443  10.975  10.053 -0.1108  0.1077 -0.2353
  821MOL0     H10816   4.342  11.107  10.010 -1.1106  1.9008  0.8834
  821MOL0     H10817   5.137  10.654  10.135 -1.3437 -0.1920 -0.6115
  821MOL0     H10818   5.351  10.780  10.177 -0.1348  1.2858  0.0396
  821MOL0     H10819   5.702  10.983  10.152 -2.1049 -0.1335 -1.7069
  821MOL0     H10820   5.902  11.089  10.207 -0.6035  1.8153  0.3183
  821MOL0     H10821   7.308  10.544   9.312 -0.8614 -0.6311  2.0654
  821MOL0     H10822   7.442  10.509   9.101 -0.8434 -1.6878 -1.1576
  821MOL0     H10823   7.879  10.491   8.876 -1.8852  0.6870 -1.3919
  821MOL0     H10824   8.021  10.400   8.698 -1.7315  1.8607 -0.1468
  821MOL0     H10825   8.064  10.333   8.477  0.0508  0.4188  2.1297
  821MOL0     H10826   8.159  10.200   8.544 -0.7322  1.0587  1.5491
  821MOL0     H10827   8.166  10.207   8.280 -1.2652  1.0418 -1.7544
  821MOL0     H10828   7.992  10.184   8.279  0.4176  4.5001 -0.7930
  821MOL0     H10829   8.139   9.969   8.247 -1.1021 -2.3373  0.5223
  821MOL0     H10830   8.005   9.963   8.342 -0.1383 -0.4369  1.6195
  821MOL0     H10831   8.184   9.839   8.460  2.2613 -1.0857 -1.0282
  821MOL0     H10832   8.161   9.984   8.554 -0.2776  2.5204  0.1410
  821MOL0     H10833   8.537  10.056   8.379 -0.2747  0.1421 -2.0277
  821MOL0     H10834   7.709  10.093   8.634 -0.2695 -0.1711 -0.0387
  821MOL0     H10835   7.604  10.169   8.843 -0.6936  1.2047  0.0613
  822MOL0     O10836   8.083   5.025   7.418 -0.0065 -0.5922  0.0981
  822MOL0     C10837   8.074   5.012   7.537 -0.3875 -0.9839 -0.0644
  822MOL0     O10838   7.967   5.054   7.616  0.5016  0.1380  0.1503
  822MOL0     C10839   7.868   5.133   7.557 -0.0229  0.6060 -0.1938
  822MOL0     C10840   7.896   5.261   7.509  0.6479 -1.0008 -0.4061
  822MOL0     C10841   7.800   5.351   7.465  0.1736  0.9428  0.6217
  822MOL0     C10842   7.666   5.310   7.459 -0.2071 -0.9054  0.2035
  822MOL0     O10843   7.585   5.415   7.416  0.2160 -0.3286 -0.0348
  822MOL0     C10844   7.449   5.386   7.392  0.1012  0.0658 -0.7364
  822MOL0     C10845   7.374   5.518   7.390  0.0757  0.4975  0.2494
  822MOL0     C10846   7.225   5.508   7.352  0.2550 -1.0285 -0.4348
  822MOL0     C10847   7.155   5.644   7.335  0.3235  0.2255 -0.8884
  822MOL0     C10848   6.997   5.615   7.324  1.0728 -0.2227  0.1597
  822MOL0     C10849   6.916   5.740   7.283  0.6893  0.6734 -0.9808
  822MOL0     C10850   6.764   5.721   7.291  0.3674 -0.4959  0.6455
  822MOL0     C10851   6.701   5.595   7.224  0.1958  0.1016 -0.3109
  822MOL0     N10852   6.552   5.604   7.220  0.5109  0.0845 -0.3822
  822MOL0     C10853   6.479   5.664   7.117 -0.1810 -0.2357 -0.0059
  822MOL0     C10854   6.347   5.656   7.158  1.3704  0.0149 -0.3449
  822MOL0     C10855   6.230   5.706   7.081  0.4035 -0.2602  0.4052
  822MOL0     C10856   6.134   5.589   7.050 -0.3433 -0.4540  0.6612
  822MOL0     C10857   5.993   5.612   7.092  0.0962  0.6023 -0.5191
  822MOL0     C10858   5.965   5.604   7.240  0.3798  0.5381  0.3536
  822MOL0     O10859   5.824   5.624   7.247  0.5129  0.3061  0.2575
  822MOL0     C10860   5.752   5.580   7.355 -0.2811 -0.2612  0.4269
  822MOL0     C10861   5.624   5.551   7.338  1.4537  0.4802  0.2285
  822MOL0     C10862   5.538   5.517   7.446  0.0407  0.6216  0.0951
  822MOL0     C10863   5.390   5.488   7.407 -0.7340  0.0532  0.6127
  822MOL0     C10864   5.593   5.526   7.576 -0.3756  0.8148  0.0734
  822MOL0     C10865   5.517   5.485   7.693 -0.0821 -0.1717 -0.1901
  822MOL0     O10866   5.404   5.407   7.679  0.3515 -0.1604  0.4479
  822MOL0     C10867   5.341   5.336   7.779 -0.9701 -0.9889 -0.5976
  822MOL0     C10868   5.396   5.314   7.906 -0.0918 -0.3576  0.0834
  822MOL0     C10869   5.321   5.252   8.008 -0.2035  0.1441 -0.5201
  822MOL0     C10870   5.186   5.228   7.985 -0.1586  0.0173  0.0801
  822MOL0     O10871   5.102   5.166   8.079 -0.0759 -0.0149  0.2257
  822MOL0     C10872   5.162   5.109   8.201  0.0286  0.8911  0.2637
  822MOL0     C10873   5.064   5.038   8.291 -0.4314  0.3392  0.0255
  822MOL0     C10874   4.969   5.129   8.369  0.1491 -1.1501 -0.2798
  822MOL0     C10875   4.846   5.152   8.281  0.8384 -0.0241 -0.3852
  822MOL0     C10876   4.719   5.135   8.367 -0.2120  0.2271  0.0010
  822MOL0     C10877   4.702   5.251   8.462 -0.1051 -0.3693  0.6197
  822MOL0     C10878   4.591   5.231   8.568 -0.5458  0.5060  1.4396
  822MOL0     C10879   4.577   5.342   8.674  0.4466  0.3759 -0.2280
  822MOL0    Cl10880   4.522   5.497   8.591  0.0255  0.1496 -0.0280
  822MOL0     C10881   5.140   5.233   7.858 -0.2245  0.8249  0.1563
  822MOL0     C10882   5.216   5.296   7.761  0.3609  0.3446  0.5344
  822MOL0     O10883   5.548   5.534   7.800  0.1437 -0.5631 -0.1139
  822MOL0     C10884   5.729   5.570   7.590  0.6587 -0.6847 -0.3570
  822MOL0     C10885   5.809   5.593   7.482  0.2320  0.0930  0.2164
  822MOL0     N10886   6.339   5.599   7.284 -0.5557  0.2266  0.5147
  822MOL0     N10887   6.459   5.558   7.310  0.4543 -0.5178 -0.2776
  822MOL0     C10888   7.630   5.183   7.487  1.0839 -0.0517 -0.4286
  822MOL0     C10889   7.730   5.098   7.540  0.2258 -0.5199 -0.2302
  822MOL0     C10890   8.185   4.943   7.600 -0.7307  0.4964  0.4640
  822MOL0     C10891   8.186   4.913   7.737  0.5435  0.1524  0.0098
  822MOL0     C10892   8.294   4.844   7.802  0.1004  0.0878  1.2032
  822MOL0     C10893   8.410   4.801   7.732 -0.8113  0.1666 -0.1117
  822MOL0     O10894   8.507   4.726   7.797 -0.7787  0.2527 -0.5497
  822MOL0     C10895   8.643   4.740   7.743 -0.9369  0.5247 -0.1625
  822MOL0     C10896   8.708   4.869   7.746  0.2171  1.0782 -0.6506
  822MOL0     C10897   8.715   4.937   7.884  0.9222 -0.1943 -0.1530
  822MOL0     C10898   8.580   5.010   7.907  0.0010  0.1906 -0.1873
  822MOL0     C10899   8.599   5.094   8.024  0.8130 -0.0803 -0.8537
  822MOL0     C10900   8.598   5.156   8.136  0.8207 -0.2998 -1.1908
  822MOL0     C10901   8.412   4.836   7.596  0.0864  0.0558  0.1794
  822MOL0     C10902   8.307   4.907   7.529 -0.1233 -0.5600  0.3309
  822MOL0     H10903   8.002   5.285   7.509  1.1036 -2.8345 -0.2028
  822MOL0     H10904   7.835   5.447   7.430  1.0532  0.2416 -0.5117
  822MOL0     H10905   7.436   5.342   7.293 -4.4706  0.3513 -0.4744
  822MOL0     H10906   7.411   5.320   7.470  0.2384  3.1634  2.2001
  822MOL0     H10907   7.381   5.570   7.485 -4.2584 -0.0956  1.1185
  822MOL0     H10908   7.422   5.588   7.321 -0.7399  0.6916 -0.1468
  822MOL0     H10909   7.213   5.454   7.258  2.6640  1.5934 -2.4579
  822MOL0     H10910   7.178   5.442   7.425  2.4528 -0.6343  1.4811
  822MOL0     H10911   7.173   5.713   7.418  0.2725 -1.2847  0.4396
  822MOL0     H10912   7.183   5.689   7.240 -0.7855  1.3866 -0.6884
  822MOL0     H10913   6.982   5.540   7.245 -0.5857  2.6538 -2.4613
  822MOL0     H10914   6.957   5.571   7.416 -3.5831  1.3510 -0.8662
  822MOL0     H10915   6.941   5.829   7.343 -0.1322  0.6472 -0.5874
  822MOL0     H10916   6.937   5.776   7.182 -1.2175  0.0933 -1.6264
  822MOL0     H10917   6.744   5.717   7.398 -1.2416  0.1724  0.4090
  822MOL0     H10918   6.715   5.809   7.247  0.0901 -1.1167 -0.3219
  822MOL0     H10919   6.728   5.513   7.291 -1.7275  0.8572  1.5147
  822MOL0     H10920   6.732   5.585   7.120 -1.0997  2.0799 -0.9586
  822MOL0     H10921   6.527   5.712   7.032  3.1013 -0.9046  1.3178
  822MOL0     H10922   6.167   5.783   7.125 -0.9874 -2.1601  1.9228
  822MOL0     H10923   6.269   5.751   6.989  0.9433 -1.6216 -0.0638
  822MOL0     H10924   6.173   5.493   7.085  3.6511  0.8177  0.1847
  822MOL0     H10925   6.130   5.581   6.941  1.0517 -2.5723  0.7051
  822MOL0     H10926   5.940   5.532   7.040  0.7866  0.5599 -1.1705
  822MOL0     H10927   5.960   5.708   7.051 -1.4411 -0.4694 -1.9757
  822MOL0     H10928   6.021   5.679   7.296  0.8228  2.3764 -2.3610
  822MOL0     H10929   6.007   5.509   7.274 -0.6518  1.1485  3.7412
  822MOL0     H10930   5.587   5.556   7.236  1.4042 -2.5602 -0.0000
  822MOL0     H10931   5.367   5.537   7.312 -3.4420  0.3686  1.3290
  822MOL0     H10932   5.369   5.381   7.410  0.3722 -0.2081 -0.1705
  822MOL0     H10933   5.317   5.533   7.475 -0.0149  2.1837  0.0586
  822MOL0     H10934   5.496   5.345   7.936 -0.4900  1.3743 -0.2805
  822MOL0     H10935   5.372   5.230   8.101  0.0300  0.2958 -0.6117
  822MOL0     H10936   5.234   5.033   8.170 -2.0915 -0.9959 -0.3399
  822MOL0     H10937   5.206   5.190   8.259 -0.0540  1.0610  0.0923
  822MOL0     H10938   5.013   4.954   8.242 -0.8290  0.7355 -0.2544
  822MOL0     H10939   5.124   4.986   8.366 -0.7841 -3.0308 -1.7928
  822MOL0     H10940   5.023   5.222   8.388  2.0674 -2.1701 -0.4417
  822MOL0     H10941   4.957   5.085   8.468 -2.4533  0.7719  0.3653
  822MOL0     H10942   4.855   5.250   8.234  0.0934  0.8135  1.1494
  822MOL0     H10943   4.841   5.074   8.204 -0.6892  1.4941 -1.8942
  822MOL0     H10944   4.716   5.037   8.415 -1.0369 -2.1345 -4.3327
  822MOL0     H10945   4.630   5.127   8.304 -0.8849  0.9711  0.8281
  822MOL0     H10946   4.793   5.279   8.516 -0.2007  1.2718 -0.0345
  822MOL0     H10947   4.667   5.345   8.418 -1.0495 -0.1749  1.7197
  822MOL0     H10948   4.601   5.131   8.611 -1.4894 -0.5430 -0.6262
  822MOL0     H10949   4.492   5.226   8.522  1.5855  0.3400 -3.8009
  822MOL0     H10950   4.670   5.357   8.729 -0.1638  2.4316  0.3482
  822MOL0     H10951   4.501   5.311   8.747 -0.7595  1.6845 -0.8747
  822MOL0     H10952   5.042   5.191   7.838  0.1164 -0.6855  1.4678
  822MOL0     H10953   5.167   5.311   7.665  2.6646  2.3233 -0.4365
  822MOL0     H10954   5.777   5.582   7.687  1.9038 -1.3958 -0.8551
  822MOL0     H10955   5.908   5.634   7.496 -0.7612  2.2112  1.4069
  822MOL0     H10956   7.527   5.151   7.486  0.5481  1.6001 -0.0139
  822MOL0     H10957   7.697   5.003   7.579  1.4945  0.6938  4.4806
  822MOL0     H10958   8.098   4.955   7.784  1.5945  1.6200  0.7449
  822MOL0     H10959   8.298   4.826   7.909  0.9685 -2.1718  0.8300
  822MOL0     H10960   8.714   4.672   7.791  1.6637 -0.1147 -4.4120
  822MOL0     H10961   8.642   4.709   7.639 -0.4343 -0.2066  0.0435
  822MOL0     H10962   8.663   4.937   7.672 -1.4324 -2.0335 -2.7438
  822MOL0     H10963   8.809   4.851   7.708  0.4551  1.4997 -0.2338
  822MOL0     H10964   8.801   5.002   7.899  0.1115  0.2448  3.7264
  822MOL0     H10965   8.722   4.863   7.964 -2.3219 -1.0176 -0.4763
  822MOL0     H10966   8.501   4.939   7.934 -0.5735  0.3978 -1.2614
  822MOL0     H10967   8.549   5.069   7.820 -1.2316 -0.4453 -0.2016
  822MOL0     H10968   8.600   5.208   8.229  0.7088 -0.3108 -1.1823
  822MOL0     H10969   8.490   4.815   7.524 -0.3668  0.6306 -0.5024
  822MOL0     H10970   8.314   4.934   7.424  1.4092 -2.2659 -0.0578
  823MOL0     O10971   1.161   8.805   8.792 -0.0514  0.3328  0.0164
  823MOL0     C10972   1.243   8.800   8.884  0.3334  0.2827  0.4002
  823MOL0     O10973   1.228   8.857   9.004  0.0156  0.2569 -0.4307
  823MOL0     C10974   1.117   8.936   9.030 -0.1202  0.0528 -0.0070
  823MOL0     C10975   1.000   8.876   9.064 -0.8225 -0.6125  0.1750
  823MOL0     C10976   0.891   8.955   9.102  0.7736  0.6996 -0.0084
  823MOL0     C10977   0.902   9.092   9.111 -0.4675 -0.2286 -0.3666
  823MOL0     O10978   0.807   9.180   9.142  1.3007 -0.1452  0.1780
  823MOL0     C10979   0.667   9.137   9.144 -1.3346 -0.9250 -0.2685
  823MOL0     C10980   0.593   9.259   9.173 -0.2473  0.2540 -0.0386
  823MOL0     C10981   0.440   9.237   9.153 -0.1301  0.5109 -0.1905
  823MOL0     C10982   0.365   9.375   9.115  0.8603 -0.6543 -0.1682
  823MOL0     C10983   0.444   9.495   9.164 -0.5155 -0.5127 -0.8780
  823MOL0     C10984   0.344   9.610   9.192  0.2807  0.0761  0.0911
  823MOL0     C10985   0.278   9.669   9.063 -0.6101 -0.0117 -0.2055
  823MOL0     C10986   0.254   9.814   9.086  0.2941  0.0761 -0.2686
  823MOL0     N10987   0.145   9.860   9.001  0.4670  0.0803 -0.0831
  823MOL0     C10988   0.019   9.865   9.035  1.0833 -0.4345 -0.0382
  823MOL0     C10989  -0.043   9.873   8.916 -1.0811  0.5339 -0.8960
  823MOL0     C10990  -0.195   9.867   8.921 -0.4309 -1.0975  0.1716
  823MOL0     C10991  -0.276   9.999   8.934 -0.6948 -0.3487  0.1014
  823MOL0     C10992  -0.267  10.049   9.087 -0.3529  0.2451 -0.4173
  823MOL0     C10993  -0.383  10.139   9.134 -0.3651 -0.6384 -0.3644
  823MOL0     O10994  -0.507  10.074   9.106 -0.7028 -0.4154 -0.0332
  823MOL0     C10995  -0.625  10.154   9.097  0.0813  1.2934 -0.4038
  823MOL0     C10996  -0.628  10.292   9.123 -0.1460  0.0749  0.5787
  823MOL0     C10997  -0.747  10.367   9.116  0.8426 -1.1665 -0.2309
  823MOL0     C10998  -0.733  10.510   9.158 -0.0622 -0.4838 -0.1403
  823MOL0     C10999  -0.870  10.305   9.075 -0.7035  0.2349  0.5862
  823MOL0     C11000  -0.995  10.376   9.076  0.6087  0.0476 -1.2534
  823MOL0     O11001  -1.095  10.327   8.997  0.5077 -0.6525  0.0101
  823MOL0     C11002  -1.216  10.384   8.975 -0.4823 -0.4943 -1.1583
  823MOL0     C11003  -1.319  10.307   8.937 -0.0284  0.3287 -0.1833
  823MOL0     C11004  -1.442  10.365   8.900 -0.4109  0.2144  0.3623
  823MOL0     C11005  -1.462  10.499   8.903 -0.3279 -0.3816 -0.4413
  823MOL0     O11006  -1.584  10.551   8.866  0.3832 -0.0445  0.1942
  823MOL0     C11007  -1.662  10.619   8.964 -0.5450  0.8601  0.0008
  823MOL0     C11008  -1.807  10.596   8.939  0.1771  0.4102  0.5778
  823MOL0     C11009  -1.895  10.683   9.034  0.0407 -0.0727 -0.1121
  823MOL0     C11010  -2.044  10.654   8.993 -0.1218  0.0501  0.0388
  823MOL0     C11011  -2.140  10.767   9.028  0.0131 -0.1611  0.4171
  823MOL0     C11012  -2.122  10.821   9.172  0.3919 -0.0717  0.3530
  823MOL0     C11013  -2.261  10.881   9.218  0.1632 -0.5641 -0.5147
  823MOL0     C11014  -2.248  10.954   9.355  0.1149 -0.1779 -1.3758
  823MOL0    Cl11015  -2.397  11.033   9.408 -0.2013 -0.2156  0.3841
  823MOL0     C11016  -1.359  10.577   8.944  0.2320 -0.0041 -0.5801
  823MOL0     C11017  -1.236  10.522   8.991 -0.7314 -0.6910 -0.5096
  823MOL0     O11018  -1.017  10.459   9.173  0.3920  0.6805 -0.9193
  823MOL0     C11019  -0.865  10.168   9.046  0.4906 -0.1177 -0.1146
  823MOL0     C11020  -0.743  10.097   9.051 -0.6296 -0.4523  0.0964
  823MOL0     N11021   0.043   9.881   8.810  0.5175 -0.5576  0.8843
  823MOL0     N11022   0.158   9.875   8.865  0.3797  0.3055  0.3317
  823MOL0     C11023   1.019   9.148   9.065  0.0757  0.4182  1.1169
  823MOL0     C11024   1.129   9.067   9.031  0.1659  0.1453  0.1612
  823MOL0     C11025   1.388   8.745   8.851  0.4814 -0.5958  0.0296
  823MOL0     C11026   1.414   8.698   8.719 -0.6760  0.7002 -0.5064
  823MOL0     C11027   1.537   8.640   8.699  0.2628 -0.1761  0.1039
  823MOL0     C11028   1.643   8.640   8.791 -0.9154  0.0794 -0.9577
  823MOL0     O11029   1.769   8.591   8.756  0.3287 -0.5888 -0.4156
  823MOL0     C11030   1.794   8.563   8.615  0.2733  0.4845  0.1796
  823MOL0     C11031   1.954   8.529   8.598  1.1180 -0.6679 -0.1797
  823MOL0     C11032   2.052   8.612   8.684  0.8366  0.0354  1.0159
  823MOL0     C11033   2.086   8.750   8.627 -0.3482 -0.5365 -0.0480
  823MOL0     C11034   2.163   8.735   8.497  0.3286  0.0416 -0.3214
  823MOL0     C11035   2.206   8.727   8.388  0.6695 -0.5957  0.0928
  823MOL0     C11036   1.615   8.679   8.923 -0.7472  0.1502  0.0349
  823MOL0     C11037   1.484   8.740   8.952  0.1399 -0.7304 -0.3707
  823MOL0     H11038   0.992   8.768   9.068 -0.3263 -0.6217  1.3145
  823MOL0     H11039   0.799   8.906   9.130  0.9298  0.9643  0.9851
  823MOL0     H11040   0.638   9.089   9.050  0.6815  0.4368 -1.6727
  823MOL0     H11041   0.655   9.071   9.231 -0.7945  0.3437  0.8031
  823MOL0     H11042   0.623   9.287   9.274  0.5414 -0.1582 -0.1463
  823MOL0     H11043   0.640   9.336   9.111  0.8863 -1.2463 -1.1366
  823MOL0     H11044   0.428   9.154   9.084 -2.3956  0.2894  0.3919
  823MOL0     H11045   0.398   9.197   9.246  0.2628  0.6162  0.0330
  823MOL0     H11046   0.348   9.379   9.007 -6.9994 -1.0188  0.5281
  823MOL0     H11047   0.263   9.363   9.152 -0.0157  0.0368 -2.1950
  823MOL0     H11048   0.493   9.472   9.259 -0.5276  0.4037 -0.6337
  823MOL0     H11049   0.519   9.537   9.096 -0.1427 -2.9169 -2.0389
  823MOL0     H11050   0.277   9.570   9.268 -0.4399 -0.4358 -0.8047
  823MOL0     H11051   0.384   9.693   9.252 -2.2752  0.8818  0.8229
  823MOL0     H11052   0.336   9.663   8.971  1.3153 -0.8272  0.9901
  823MOL0     H11053   0.189   9.608   9.046  0.3292 -1.1009 -1.3680
  823MOL0     H11054   0.351   9.864   9.074  0.7878 -0.4851  1.1956
  823MOL0     H11055   0.216   9.824   9.188 -1.3370  2.4877 -0.9965
  823MOL0     H11056  -0.015   9.875   9.137  3.0982 -1.2590  0.7540
  823MOL0     H11057  -0.231   9.813   8.833 -0.2569 -4.0001  1.7529
  823MOL0     H11058  -0.228   9.806   9.006 -3.3649  0.3332  0.1725
  823MOL0     H11059  -0.380   9.990   8.901 -0.3335 -1.2064 -0.8326
  823MOL0     H11060  -0.225  10.079   8.880 -0.6782  0.4208  1.2162
  823MOL0     H11061  -0.169  10.088   9.117 -0.8483  1.7475 -0.6451
  823MOL0     H11062  -0.285   9.965   9.155 -0.0148 -0.4828 -1.2201
  823MOL0     H11063  -0.378  10.226   9.068 -1.0742 -1.3864 -1.4487
  823MOL0     H11064  -0.383  10.156   9.242 -1.7761 -3.4126  0.1812
  823MOL0     H11065  -0.534  10.335   9.158 -0.3831  0.5851  0.5970
  823MOL0     H11066  -0.771  10.536   9.257  3.6274 -1.5740  1.7692
  823MOL0     H11067  -0.629  10.540   9.172 -0.0764 -1.6238  3.5025
  823MOL0     H11068  -0.780  10.578   9.086 -1.5404 -0.4322  0.8291
  823MOL0     H11069  -1.322  10.199   8.930 -0.0276  0.3240 -0.1193
  823MOL0     H11070  -1.521  10.304   8.856 -0.0444 -0.0020 -0.0061
  823MOL0     H11071  -1.628  10.577   9.059  0.5543 -0.9319 -1.1486
  823MOL0     H11072  -1.640  10.726   8.964  1.0653  0.5657 -1.7537
  823MOL0     H11073  -1.831  10.613   8.833 -0.0159  1.1931  0.7442
  823MOL0     H11074  -1.835  10.490   8.941 -1.8311  0.8777 -0.0333
  823MOL0     H11075  -1.884  10.791   9.018  2.4538 -0.1526  0.5960
  823MOL0     H11076  -1.862  10.661   9.136  2.0454 -0.0502 -0.7064
  823MOL0     H11077  -2.049  10.624   8.888  1.0097  1.5390 -0.4784
  823MOL0     H11078  -2.081  10.565   9.043 -0.9862 -0.2734 -1.1355
  823MOL0     H11079  -2.244  10.732   9.030 -0.4303  0.9773 -0.9084
  823MOL0     H11080  -2.131  10.842   8.949  2.2282 -2.2936 -1.5105
  823MOL0     H11081  -2.108  10.732   9.234  2.1804 -1.4172 -1.8062
  823MOL0     H11082  -2.043  10.895   9.190  1.7872 -2.0276  2.8476
  823MOL0     H11083  -2.327  10.795   9.228  0.2523 -0.4919  0.8791
  823MOL0     H11084  -2.299  10.953   9.145 -0.3804  1.5443  1.7198
  823MOL0     H11085  -2.173  11.033   9.354  1.3851 -1.0688  2.6648
  823MOL0     H11086  -2.216  10.883   9.431 -0.0900 -0.5514 -1.6347
  823MOL0     H11087  -1.380  10.684   8.943 -1.6751 -0.3300 -2.5771
  823MOL0     H11088  -1.163  10.589   9.036 -0.8531 -1.7979  1.4774
  823MOL0     H11089  -0.962  10.122   9.030  0.0880 -0.0820  1.9620
  823MOL0     H11090  -0.735   9.991   9.029 -0.5237 -0.5826  0.7316
  823MOL0     H11091   1.028   9.254   9.044  2.2859 -0.3754 -3.0306
  823MOL0     H11092   1.228   9.105   9.008  0.2047  0.3614  0.6737
  823MOL0     H11093   1.344   8.702   8.637 -0.6566  3.7416 -0.4896
  823MOL0     H11094   1.549   8.581   8.609  1.9595  0.6486 -0.2691
  823MOL0     H11095   1.751   8.468   8.581  0.2059  1.2701 -2.1024
  823MOL0     H11096   1.764   8.649   8.554 -1.4931 -1.0127 -1.2144
  823MOL0     H11097   1.970   8.534   8.489  0.3252  1.6106 -0.2562
  823MOL0     H11098   1.961   8.425   8.629 -0.4094 -0.6874  0.1750
  823MOL0     H11099   2.143   8.550   8.682  1.3007  0.5541  3.3826
  823MOL0     H11100   2.020   8.633   8.786 -2.1487  3.3404 -0.3942
  823MOL0     H11101   2.160   8.796   8.694 -0.4181 -0.8885  0.2765
  823MOL0     H11102   1.999   8.816   8.620  0.6505  1.4699  3.6387
  823MOL0     H11103   2.251   8.705   8.293  2.4445 -0.3210  0.8307
  823MOL0     H11104   1.681   8.666   9.008 -1.0309 -2.9567 -0.0916
  823MOL0     H11105   1.459   8.786   9.046  0.7487  0.1610 -0.6330
  824MOL0     O11106  11.102   5.451   3.833 -0.2591 -0.0881 -0.2618
  824MOL0     C11107  11.122   5.352   3.902  0.0770 -0.0443  0.3474
  824MOL0     O11108  11.029   5.247   3.922 -0.2328 -0.4214 -0.5309
  824MOL0     C11109  10.890   5.270   3.899 -0.5271  0.5482 -0.5298
  824MOL0     C11110  10.828   5.173   3.826 -0.0173 -0.0635 -0.9899
  824MOL0     C11111  10.687   5.185   3.798 -1.0823  0.2427  0.4719
  824MOL0     C11112  10.613   5.293   3.835  0.6846  0.0502  0.0127
  824MOL0     O11113  10.470   5.300   3.806 -0.4639 -0.1861 -0.0083
  824MOL0     C11114  10.390   5.387   3.896  0.2260  1.2123  0.5061
  824MOL0     C11115  10.256   5.365   3.829 -0.1683 -0.8152  0.4140
  824MOL0     C11116  10.150   5.464   3.881 -0.1470 -0.8266 -0.6496
  824MOL0     C11117  10.012   5.454   3.822  0.0762 -0.2090  0.5739
  824MOL0     C11118   9.904   5.551   3.875  0.4953 -0.1738 -0.0156
  824MOL0     C11119   9.774   5.522   3.800 -0.6337 -0.3670 -0.6020
  824MOL0     C11120   9.656   5.613   3.836 -0.5081  0.3614 -0.2128
  824MOL0     C11121   9.537   5.559   3.757 -0.2457 -0.5158  0.1629
  824MOL0     N11122   9.447   5.486   3.851  0.2764 -0.0946 -0.3203
  824MOL0     C11123   9.323   5.547   3.884  0.1847 -0.0383 -0.7298
  824MOL0     C11124   9.269   5.461   3.965  0.0983  0.2857  0.5560
  824MOL0     C11125   9.145   5.470   4.042  0.7054  0.4254  0.5486
  824MOL0     C11126   9.028   5.397   3.979 -0.8877  0.7420 -0.8486
  824MOL0     C11127   8.951   5.306   4.073 -0.1332 -0.5542 -0.3095
  824MOL0     C11128   8.887   5.368   4.196  0.4641 -0.1789 -0.3258
  824MOL0     O11129   8.786   5.455   4.158  0.1461  0.0217  0.5085
  824MOL0     C11130   8.659   5.410   4.140  0.5707 -0.4759 -0.6808
  824MOL0     C11131   8.622   5.273   4.146  0.4488  1.0377  0.6049
  824MOL0     C11132   8.486   5.238   4.125 -0.4443  0.7686 -0.6129
  824MOL0     C11133   8.456   5.090   4.115  0.4732  0.2331 -0.0054
  824MOL0     C11134   8.390   5.342   4.108 -0.6083  0.0639 -0.3866
  824MOL0     C11135   8.246   5.317   4.074  1.2064  0.1331  0.2814
  824MOL0     O11136   8.164   5.429   4.105  0.8919 -0.3393  0.5238
  824MOL0     C11137   8.028   5.419   4.114  0.0517  0.3706 -0.3820
  824MOL0     C11138   7.952   5.376   4.002  0.4137  0.1848  0.0395
  824MOL0     C11139   7.812   5.380   4.006 -0.1758  0.0120  0.9443
  824MOL0     C11140   7.752   5.404   4.129 -0.6296 -0.0413 -0.0156
  824MOL0     O11141   7.623   5.399   4.149  0.2377 -0.0533 -0.5611
  824MOL0     C11142   7.545   5.290   4.111  0.5947  0.7805 -0.3625
  824MOL0     C11143   7.398   5.292   4.159 -0.9253 -0.4289  0.9791
  824MOL0     C11144   7.337   5.418   4.106  0.9731  0.4485 -1.1087
  824MOL0     C11145   7.194   5.431   4.155  1.3364  0.9624 -0.2919
  824MOL0     C11146   7.119   5.536   4.067  0.7710  0.1950 -0.4698
  824MOL0     C11147   7.018   5.618   4.151 -0.4726  0.6197  1.2051
  824MOL0     C11148   6.903   5.528   4.190  0.3659  0.4405  0.0043
  824MOL0     C11149   6.815   5.597   4.298  0.1697 -0.7849  0.8107
  824MOL0    Cl11150   6.759   5.763   4.245  0.2301 -0.4423 -0.0850
  824MOL0     C11151   7.825   5.437   4.239  0.0702 -0.3768  0.1897
  824MOL0     C11152   7.961   5.457   4.224 -0.3060  0.6106 -1.1133
  824MOL0     O11153   8.201   5.210   4.031 -0.3433 -0.2590  0.6654
  824MOL0     C11154   8.429   5.481   4.122 -0.6107 -1.1660  0.2539
  824MOL0     C11155   8.566   5.509   4.135  0.1669 -1.8592 -0.9286
  824MOL0     N11156   9.348   5.352   3.979 -0.3700 -0.0788 -0.0642
  824MOL0     N11157   9.463   5.369   3.921 -0.6001  0.8386 -1.5505
  824MOL0     C11158  10.683   5.398   3.899 -0.5290 -0.1655 -0.3121
  824MOL0     C11159  10.814   5.379   3.947  1.0926 -0.1951  0.1655
  824MOL0     C11160  11.255   5.334   3.948  0.2466 -0.1530 -0.0864
  824MOL0     C11161  11.362   5.417   3.907  0.3920 -0.3701 -0.0704
  824MOL0     C11162  11.485   5.417   3.971 -0.3877 -0.3084 -0.7212
  824MOL0     C11163  11.521   5.317   4.061  0.5139 -0.1896  0.2981
  824MOL0     O11164  11.642   5.330   4.120 -0.2647 -0.2132 -0.8251
  824MOL0     C11165  11.686   5.211   4.175 -0.2202  0.2035 -0.0081
  824MOL0     C11166  11.829   5.220   4.216  0.2096  0.3127  0.6061
  824MOL0     C11167  11.859   5.330   4.330  0.0117 -0.8770 -0.5575
  824MOL0     C11168  12.002   5.353   4.369  0.1348 -0.2121  0.2647
  824MOL0     C11169  12.100   5.362   4.261  0.1857 -0.6943 -0.1815
  824MOL0     C11170  12.184   5.358   4.173 -0.1561  0.2885  0.0140
  824MOL0     C11171  11.424   5.217   4.088  0.9825  0.4228 -0.0862
  824MOL0     C11172  11.289   5.228   4.036 -1.0125 -0.1442  0.3545
  824MOL0     H11173  10.880   5.083   3.792 -0.3168 -1.9323  2.9321
  824MOL0     H11174  10.644   5.107   3.737 -0.0323 -1.1240  1.3976
  824MOL0     H11175  10.387   5.351   3.999  1.7665 -0.8066 -0.0830
  824MOL0     H11176  10.417   5.493   3.886  0.5213  1.0501 -0.5403
  824MOL0     H11177  10.266   5.384   3.722  2.5007 -2.5168  0.2642
  824MOL0     H11178  10.226   5.262   3.851 -2.1413 -0.1523  0.9692
  824MOL0     H11179  10.136   5.433   3.985  1.6462  1.4054  0.3575
  824MOL0     H11180  10.181   5.568   3.865  1.3369 -1.3170 -1.1218
  824MOL0     H11181  10.035   5.473   3.717  3.3195 -1.2915  0.9875
  824MOL0     H11182   9.974   5.351   3.819 -2.1970  0.5607 -2.4429
  824MOL0     H11183   9.876   5.521   3.977  0.1952  2.6418  0.8276
  824MOL0     H11184   9.939   5.655   3.875 -1.3434  0.4938  0.2924
  824MOL0     H11185   9.795   5.537   3.694  0.4629  0.5507 -0.2708
  824MOL0     H11186   9.761   5.417   3.828  0.6726 -0.0458  1.4554
  824MOL0     H11187   9.639   5.607   3.944  0.6365 -3.5995 -0.0703
  824MOL0     H11188   9.682   5.714   3.804 -0.0253  0.5384  0.7123
  824MOL0     H11189   9.561   5.496   3.671 -2.6257  1.0207 -1.7530
  824MOL0     H11190   9.488   5.643   3.708 -0.3670  0.7212  2.2760
  824MOL0     H11191   9.283   5.641   3.847  1.6457  0.8629 -0.0895
  824MOL0     H11192   9.162   5.429   4.142  3.5424 -1.7092 -0.6804
  824MOL0     H11193   9.129   5.578   4.048  0.5170  0.4741 -0.7459
  824MOL0     H11194   9.057   5.341   3.890  0.1589 -3.1183  1.6651
  824MOL0     H11195   8.956   5.470   3.940  0.2107  1.1895 -2.1253
  824MOL0     H11196   9.017   5.225   4.106 -0.0779 -1.5095 -2.5335
  824MOL0     H11197   8.868   5.259   4.019 -1.9852  0.7563  1.2616
  824MOL0     H11198   8.958   5.430   4.252 -2.0097  0.6526  2.1354
  824MOL0     H11199   8.841   5.297   4.266 -0.4017  0.5124 -0.1926
  824MOL0     H11200   8.698   5.196   4.155  0.5112  0.8737 -1.0107
  824MOL0     H11201   8.367   5.075   4.178  0.7812 -0.8792  0.1959
  824MOL0     H11202   8.441   5.062   4.010  0.3226 -0.0780  0.0985
  824MOL0     H11203   8.542   5.029   4.144  0.4029 -0.3815 -1.0183
  824MOL0     H11204   7.999   5.337   3.912  0.4247  2.0242 -0.8036
  824MOL0     H11205   7.753   5.351   3.920  1.0154  1.7087 -0.5187
  824MOL0     H11206   7.542   5.258   4.007 -0.6452  0.8978 -0.3787
  824MOL0     H11207   7.602   5.209   4.159 -1.9549 -1.9659 -1.6404
  824MOL0     H11208   7.339   5.207   4.123 -1.2044 -0.1811  0.8420
  824MOL0     H11209   7.401   5.283   4.267 -0.5095 -1.1986  0.9081
  824MOL0     H11210   7.353   5.430   3.998 -1.1430 -0.2784 -1.5479
  824MOL0     H11211   7.380   5.501   4.164 -3.4716  1.0408  1.8338
  824MOL0     H11212   7.134   5.340   4.149 -0.2088  1.5720  3.4575
  824MOL0     H11213   7.197   5.451   4.262  0.5563 -2.3309  0.4519
  824MOL0     H11214   7.078   5.486   3.978 -0.2873 -3.2516  1.7536
  824MOL0     H11215   7.184   5.615   4.028 -0.0134  0.3814 -1.4544
  824MOL0     H11216   7.066   5.661   4.239  0.1839  1.9715  0.2210
  824MOL0     H11217   6.989   5.700   4.085  2.2593 -1.2977 -2.8604
  824MOL0     H11218   6.937   5.439   4.243 -0.1486  1.2907  1.8496
  824MOL0     H11219   6.839   5.498   4.106  0.1894  1.5196 -0.2690
  824MOL0     H11220   6.874   5.605   4.389 -0.9599  0.0947  1.4966
  824MOL0     H11221   6.731   5.528   4.311 -0.7576 -0.2790 -1.8218
  824MOL0     H11222   7.782   5.456   4.337  0.9602 -0.8631  0.6856
  824MOL0     H11223   8.020   5.488   4.309 -1.5012  0.7938 -0.3149
  824MOL0     H11224   8.351   5.556   4.117 -0.4348 -1.0285 -0.5790
  824MOL0     H11225   8.596   5.613   4.147  0.1703 -1.7103 -2.1223
  824MOL0     H11226  10.637   5.496   3.911  1.6128  1.8059 -5.3048
  824MOL0     H11227  10.863   5.456   4.006  2.9725 -0.7639 -0.5533
  824MOL0     H11228  11.346   5.501   3.839 -0.6459 -2.2480 -2.2626
  824MOL0     H11229  11.561   5.487   3.936  0.4595 -1.0461 -0.3887
  824MOL0     H11230  11.617   5.177   4.253 -1.8988  0.9638 -1.1122
  824MOL0     H11231  11.676   5.135   4.097 -0.9201  0.1259  0.1504
  824MOL0     H11232  11.882   5.258   4.128  0.2755 -0.6709  0.2138
  824MOL0     H11233  11.871   5.125   4.249  1.3378  0.8143  0.6539
  824MOL0     H11234  11.806   5.312   4.425 -1.6230 -0.5281 -1.3600
  824MOL0     H11235  11.829   5.425   4.284  0.2638 -0.3249  0.3923
  824MOL0     H11236  12.038   5.271   4.432 -0.0263  1.7040  3.0445
  824MOL0     H11237  11.996   5.439   4.436 -1.4435 -1.7225  2.2287
  824MOL0     H11238  12.254   5.366   4.093 -0.2482  2.0875  0.0889
  824MOL0     H11239  11.439   5.131   4.153 -1.8291 -0.3817 -0.3766
  824MOL0     H11240  11.224   5.150   4.074 -1.9909  0.0318 -0.8800
  825MOL0     O11241   6.906   0.641   5.190  0.0275  0.4303  0.5365
  825MOL0     C11242   6.956   0.706   5.100  0.3100  0.6495  0.4334
  825MOL0     O11243   6.909   0.825   5.059  0.1001 -0.7726 -0.0796
  825MOL0     C11244   6.793   0.875   5.113  0.1772 -0.3663  0.1885
  825MOL0     C11245   6.674   0.814   5.100 -0.0805  0.4206  0.1980
  825MOL0     C11246   6.546   0.854   5.143 -0.0144  0.0880 -0.1630
  825MOL0     C11247   6.537   0.976   5.210 -0.3469  0.5848 -0.2945
  825MOL0     O11248   6.416   1.033   5.243 -0.0998  0.4029 -0.0388
  825MOL0     C11249   6.409   1.150   5.330 -0.3224 -0.3826 -0.1170
  825MOL0     C11250   6.275   1.200   5.365  0.1412  0.8471 -0.3028
  825MOL0     C11251   6.204   1.110   5.462  0.2302  0.5756  0.4108
  825MOL0     C11252   6.064   1.167   5.482  0.3446  0.0960  0.4849
  825MOL0     C11253   5.961   1.089   5.565 -0.3935  0.2353  0.1135
  825MOL0     C11254   5.821   1.140   5.553  0.5124  0.0417 -0.5313
  825MOL0     C11255   5.717   1.037   5.599  0.0648 -0.9412 -0.4643
  825MOL0     C11256   5.702   1.021   5.754  0.3806 -0.0935 -0.2802
  825MOL0     N11257   5.560   1.003   5.792 -0.0294  0.4495  0.1583
  825MOL0     C11258   5.488   1.081   5.883 -0.2450 -0.1260  0.2434
  825MOL0     C11259   5.368   1.028   5.886  0.3222 -0.2118 -0.0579
  825MOL0     C11260   5.251   1.085   5.964  0.6040  0.8003 -0.1482
  825MOL0     C11261   5.129   0.981   5.969  0.4253 -0.8787  0.0457
  825MOL0     C11262   5.146   0.846   6.047 -0.3699  0.3663  1.0390
  825MOL0     C11263   5.022   0.749   6.023 -0.0478 -0.6712 -0.0390
  825MOL0     O11264   4.917   0.800   6.111 -0.4041 -0.6286 -0.0117
  825MOL0     C11265   4.794   0.804   6.054  0.0221  0.5702  0.1280
  825MOL0     C11266   4.733   0.678   6.039 -0.3451  0.4467  0.1371
  825MOL0     C11267   4.614   0.666   5.978  0.2994 -0.5701 -0.8759
  825MOL0     C11268   4.544   0.533   5.974  0.3528  0.6896 -0.1181
  825MOL0     C11269   4.563   0.788   5.912  0.7738  1.4415 -0.0799
  825MOL0     C11270   4.450   0.782   5.825 -0.0697  0.0275 -0.3272
  825MOL0     O11271   4.455   0.703   5.713  0.2966  0.4297 -1.0498
  825MOL0     C11272   4.333   0.687   5.649  0.4586  0.4549  0.3054
  825MOL0     C11273   4.239   0.591   5.694 -0.1325  0.0866 -0.1660
  825MOL0     C11274   4.129   0.574   5.626 -0.1039  0.3416  1.1716
  825MOL0     C11275   4.097   0.652   5.519 -0.2830  0.3188 -0.1741
  825MOL0     O11276   3.973   0.625   5.466  0.2000 -0.3828 -0.6805
  825MOL0     C11277   3.906   0.728   5.395 -0.4879  0.7057  0.1478
  825MOL0     C11278   3.756   0.709   5.375  0.0130 -0.7850 -0.3969
  825MOL0     C11279   3.669   0.692   5.507 -1.2714 -0.5317  0.7267
  825MOL0     C11280   3.666   0.558   5.575  0.3747 -0.1510 -0.3139
  825MOL0     C11281   3.552   0.559   5.680  0.1551 -0.1053  0.3649
  825MOL0     C11282   3.537   0.432   5.750 -0.7761  0.1330  0.1418
  825MOL0     C11283   3.627   0.414   5.873 -0.5596 -0.5898 -0.0274
  825MOL0     C11284   3.621   0.273   5.916 -0.2308 -1.1222  0.2252
  825MOL0    Cl11285   3.739   0.170   5.820 -0.0643  0.2252 -0.4044
  825MOL0     C11286   4.195   0.745   5.465 -0.8798 -0.4022  0.0326
  825MOL0     C11287   4.313   0.766   5.534 -0.5007 -0.4236 -0.7126
  825MOL0     O11288   4.352   0.847   5.868 -0.8234 -0.4326  0.1088
  825MOL0     C11289   4.619   0.910   5.931 -0.2643 -0.2089  0.2688
  825MOL0     C11290   4.727   0.918   6.009 -0.2695  0.6803 -0.6134
  825MOL0     N11291   5.356   0.927   5.795 -0.5170 -0.7839  0.6440
  825MOL0     N11292   5.468   0.917   5.730  0.6077  0.1683 -0.4170
  825MOL0     C11293   6.659   1.042   5.234 -0.2449  0.0503  0.0144
  825MOL0     C11294   6.785   0.996   5.176  0.7297 -0.3475  0.2298
  825MOL0     C11295   7.094   0.667   5.051  0.4172  0.3990  0.3345
  825MOL0     C11296   7.178   0.753   4.990  0.2331 -0.5012 -0.0502
  825MOL0     C11297   7.307   0.724   4.957 -0.0256  0.2007  0.0355
  825MOL0     C11298   7.355   0.584   4.960  0.0525 -0.8961  0.6222
  825MOL0     O11299   7.476   0.538   4.913  0.1761  0.7908 -0.5498
  825MOL0     C11300   7.538   0.618   4.810 -0.4266 -0.2215  0.1384
  825MOL0     C11301   7.666   0.554   4.760 -0.0963  0.2399  0.2036
  825MOL0     C11302   7.756   0.514   4.874 -0.0982  0.0947 -0.3376
  825MOL0     C11303   7.902   0.495   4.827 -0.5258  0.4595  0.4448
  825MOL0     C11304   8.004   0.505   4.935 -0.4246  0.7576  0.4325
  825MOL0     C11305   8.074   0.506   5.038 -0.5272  0.1836  0.0270
  825MOL0     C11306   7.266   0.495   5.026 -0.2579  0.2539 -0.6505
  825MOL0     C11307   7.136   0.531   5.065  0.3269 -0.1226  0.3819
  825MOL0     H11308   6.675   0.713   5.059  0.2145  0.6254 -0.3153
  825MOL0     H11309   6.455   0.798   5.126  0.4873 -1.4680  1.9076
  825MOL0     H11310   6.455   1.124   5.426 -0.7091 -0.6859 -0.0145
  825MOL0     H11311   6.456   1.239   5.288  0.7126 -0.4982  0.7327
  825MOL0     H11312   6.289   1.293   5.422  0.6926  1.2764 -1.1144
  825MOL0     H11313   6.228   1.208   5.266  2.2292 -0.3531 -1.4555
  825MOL0     H11314   6.192   1.007   5.429 -1.6501  0.2818  1.8083
  825MOL0     H11315   6.264   1.116   5.553  1.0827  1.3287 -0.1852
  825MOL0     H11316   6.076   1.262   5.535  0.4863 -0.5537  1.6539
  825MOL0     H11317   6.025   1.185   5.382  2.7749 -1.1365 -0.7824
  825MOL0     H11318   5.973   0.983   5.540 -3.1642 -0.4452  1.2716
  825MOL0     H11319   5.985   1.093   5.672 -3.4211  3.8650  0.8918
  825MOL0     H11320   5.809   1.236   5.604  0.1806  0.0381 -0.5983
  825MOL0     H11321   5.799   1.166   5.449 -0.7581 -1.6673 -0.7307
  825MOL0     H11322   5.620   1.077   5.568  0.8467  2.0737  0.6763
  825MOL0     H11323   5.722   0.938   5.552 -1.0039 -1.4647  0.4783
  825MOL0     H11324   5.736   1.100   5.822 -1.4773  1.0998 -0.6594
  825MOL0     H11325   5.754   0.926   5.765  2.8015  0.9315 -1.7673
  825MOL0     H11326   5.526   1.164   5.941  4.4051 -0.9998 -1.0660
  825MOL0     H11327   5.271   1.096   6.071 -1.4701 -0.9452  0.5057
  825MOL0     H11328   5.221   1.182   5.924  1.1826  0.1171 -2.3434
  825MOL0     H11329   5.086   0.954   5.873  0.9888 -2.7912  0.2792
  825MOL0     H11330   5.053   1.034   6.027 -0.2160 -1.0885 -0.5850
  825MOL0     H11331   5.165   0.868   6.152  0.9324  0.1097  0.8756
  825MOL0     H11332   5.234   0.791   6.011 -1.3329 -1.0982  0.8065
  825MOL0     H11333   5.044   0.646   6.053  0.3458 -0.0539  1.9087
  825MOL0     H11334   4.990   0.754   5.919 -2.7651  1.2275  0.7828
  825MOL0     H11335   4.789   0.589   6.068 -1.4486 -0.4451 -0.4032
  825MOL0     H11336   4.568   0.493   5.875 -0.1755 -2.4354  0.9019
  825MOL0     H11337   4.581   0.465   6.052 -0.6863 -0.9288 -0.9864
  825MOL0     H11338   4.437   0.549   5.986  0.2803  0.1285  0.0156
  825MOL0     H11339   4.262   0.524   5.776  0.1876  0.7347  0.2790
  825MOL0     H11340   4.045   0.512   5.656 -1.4425  2.1037  1.2448
  825MOL0     H11341   3.925   0.823   5.447 -0.1239  0.6643  0.0946
  825MOL0     H11342   3.956   0.732   5.298  0.0230 -1.4089  0.2853
  825MOL0     H11343   3.720   0.786   5.305 -1.9703  0.6623  2.0454
  825MOL0     H11344   3.745   0.613   5.323 -2.1745  0.3498 -2.2263
  825MOL0     H11345   3.567   0.711   5.471 -0.6940  0.3479 -0.5582
  825MOL0     H11346   3.688   0.766   5.585 -0.2273 -1.5481  1.4710
  825MOL0     H11347   3.644   0.486   5.495 -2.6106 -0.5576  0.7246
  825MOL0     H11348   3.766   0.535   5.613  1.4406  0.5941 -2.4787
  825MOL0     H11349   3.459   0.585   5.630 -0.5940  0.2835  1.9129
  825MOL0     H11350   3.576   0.642   5.747  0.2707  1.8842 -2.0128
  825MOL0     H11351   3.431   0.417   5.775 -1.1567 -0.5324 -1.6735
  825MOL0     H11352   3.574   0.355   5.681  0.9659  2.6435 -1.8952
  825MOL0     H11353   3.589   0.481   5.951 -3.2918  1.1687 -2.6565
  825MOL0     H11354   3.734   0.432   5.855 -0.2909 -0.2280  1.7893
  825MOL0     H11355   3.521   0.229   5.909 -0.4584 -0.3460 -2.5494
  825MOL0     H11356   3.651   0.278   6.021  0.0597  0.8650  0.0893
  825MOL0     H11357   4.165   0.790   5.371 -3.0544 -2.2161 -0.2226
  825MOL0     H11358   4.392   0.834   5.505  1.2796 -2.7002 -1.4349
  825MOL0     H11359   4.573   1.003   5.900 -0.8539  0.2623  2.3893
  825MOL0     H11360   4.786   1.009   6.008  1.5264 -0.3881 -2.9204
  825MOL0     H11361   6.671   1.143   5.273 -0.0724  0.5415 -1.2771
  825MOL0     H11362   6.875   1.056   5.176  0.4855  0.0926  1.9880
  825MOL0     H11363   7.138   0.852   4.972  0.6754 -0.1511  0.8488
  825MOL0     H11364   7.371   0.796   4.906  2.1917 -2.1749 -0.7939
  825MOL0     H11365   7.460   0.651   4.740 -1.4608 -0.7781  0.9822
  825MOL0     H11366   7.574   0.709   4.859  0.7179 -0.9002  0.5908
  825MOL0     H11367   7.706   0.629   4.690 -1.5304  2.1931  1.3547
  825MOL0     H11368   7.641   0.464   4.703 -2.6299  1.3809 -0.6155
  825MOL0     H11369   7.715   0.427   4.927 -0.4857  1.3184  1.4503
  825MOL0     H11370   7.754   0.597   4.945  0.7763  0.7707 -1.0905
  825MOL0     H11371   7.922   0.564   4.745  0.8071 -0.3866  0.0250
  825MOL0     H11372   7.914   0.393   4.787  0.4118  0.7739 -0.0995
  825MOL0     H11373   8.132   0.509   5.128 -1.4932 -1.3835  0.7420
  825MOL0     H11374   7.299   0.392   5.041 -0.7366  0.3385  1.1460
  825MOL0     H11375   7.068   0.452   5.092 -1.7800  1.0634 -1.1770
  826MOL0     O11376   0.738   0.788   9.968 -0.1008  0.1961  0.5739
  826MOL0     C11377   0.762   0.699   9.879  0.7297  0.2894  0.2878
  826MOL0     O11378   0.871   0.615   9.882  0.3986  0.0238 -0.2950
  826MOL0     C11379   0.953   0.628   9.988  0.6778 -0.1087  0.2360
  826MOL0     C11380   1.074   0.686   9.965 -0.0923 -0.7745 -0.7870
  826MOL0     C11381   1.162   0.689  10.076  0.0315  0.6243 -0.1246
  826MOL0     C11382   1.139   0.609  10.192 -0.3939  0.7792 -0.2287
  826MOL0     O11383   1.217   0.598  10.299 -0.0710 -0.8806  0.3044
  826MOL0     C11384   1.355   0.623  10.274 -0.2933 -0.2335 -0.5269
  826MOL0     C11385   1.424   0.574  10.400  0.5391  0.6567  0.2923
  826MOL0     C11386   1.575   0.578  10.371 -0.1621 -0.0646  0.2041
  826MOL0     C11387   1.645   0.546  10.504  0.0768  0.0074 -0.5221
  826MOL0     C11388   1.798   0.551  10.487  0.3311 -0.2650 -0.3720
  826MOL0     C11389   1.851   0.687  10.468 -0.0333  0.1972  1.1659
  826MOL0     C11390   2.006   0.694  10.482 -0.2656  0.0941  0.6826
  826MOL0     C11391   2.081   0.599  10.384  0.2378  0.3044 -0.0828
  826MOL0     N11392   2.069   0.643  10.248 -0.1433  0.4903 -1.1433
  826MOL0     C11393   1.997   0.568  10.157 -0.4341  0.5479 -0.8587
  826MOL0     C11394   2.015   0.634  10.040  0.4415 -0.5188 -0.1150
  826MOL0     C11395   1.947   0.608   9.912 -0.1663  0.0813 -0.1240
  826MOL0     C11396   1.827   0.697   9.886 -0.5786 -0.5994 -0.2399
  826MOL0     C11397   1.706   0.690   9.978 -0.3734  0.3021 -0.6736
  826MOL0     C11398   1.582   0.770   9.924  0.1841 -0.2614  0.7513
  826MOL0     O11399   1.503   0.690   9.831 -0.5703 -0.4603 -0.2145
  826MOL0     C11400   1.396   0.752   9.771 -0.4835  0.2424 -0.6997
  826MOL0     C11401   1.348   0.704   9.652  0.6108 -0.0496  0.2089
  826MOL0     C11402   1.244   0.764   9.572 -0.2551 -0.1258  0.4000
  826MOL0     C11403   1.200   0.699   9.442  0.6554 -0.7443  0.7227
  826MOL0     C11404   1.188   0.883   9.625 -0.1118 -0.2102 -0.5986
  826MOL0     C11405   1.078   0.957   9.558  0.6912  0.5650 -0.3873
  826MOL0     O11406   0.981   1.017   9.635 -0.5228 -0.0031 -0.2379
  826MOL0     C11407   0.865   1.047   9.576 -0.6489  0.7914 -0.0087
  826MOL0     C11408   0.791   0.965   9.489 -0.9478 -0.5835 -0.6000
  826MOL0     C11409   0.667   1.004   9.434  0.1052 -0.6470  0.1728
  826MOL0     C11410   0.598   1.115   9.488 -0.4421  0.2864 -0.1810
  826MOL0     O11411   0.484   1.164   9.432 -0.0790 -0.1320  0.5474
  826MOL0     C11412   0.404   1.080   9.356  0.4132 -0.4012 -0.2294
  826MOL0     C11413   0.270   1.143   9.312 -1.0828  0.8697 -0.8460
  826MOL0     C11414   0.176   1.154   9.428  0.4851 -0.6320  0.0492
  826MOL0     C11415   0.038   1.205   9.386  0.9999  0.3427  0.4557
  826MOL0     C11416  -0.056   1.176   9.490  0.7823  0.8244  0.3245
  826MOL0     C11417  -0.193   1.147   9.448  0.9400 -0.8447 -0.4475
  826MOL0     C11418  -0.266   1.076   9.556  0.7571  0.3996 -0.2404
  826MOL0     C11419  -0.414   1.056   9.516 -0.7522  0.0094  0.2549
  826MOL0    Cl11420  -0.517   1.203   9.545 -0.0606 -0.2002  0.2044
  826MOL0     C11421   0.664   1.189   9.591 -1.6742 -0.8033 -0.2401
  826MOL0     C11422   0.799   1.160   9.623  0.4072 -0.1860  0.3725
  826MOL0     O11423   1.082   0.960   9.440 -0.1515 -0.8634  0.3440
  826MOL0     C11424   1.238   0.941   9.742 -0.4765 -0.1549  0.5806
  826MOL0     C11425   1.341   0.877   9.810  0.7126 -0.0457 -0.2410
  826MOL0     N11426   2.099   0.741  10.064 -0.6764  0.3047  0.2961
  826MOL0     N11427   2.125   0.752  10.192 -1.0553 -0.1798  0.3441
  826MOL0     C11428   1.025   0.534  10.200  0.0145 -0.3211  1.2288
  826MOL0     C11429   0.929   0.544  10.100 -0.7074  0.0984 -0.4357
  826MOL0     C11430   0.659   0.689   9.770 -0.1479 -0.1022  0.5195
  826MOL0     C11431   0.689   0.650   9.643 -0.1433 -0.3855  1.1609
  826MOL0     C11432   0.590   0.661   9.540  0.2352 -0.1477 -0.4786
  826MOL0     C11433   0.461   0.699   9.563 -0.5810  0.4764 -0.1108
  826MOL0     O11434   0.380   0.713   9.456 -0.0529  0.0469 -0.0541
  826MOL0     C11435   0.242   0.717   9.482  0.4910 -0.2805 -0.3387
  826MOL0     C11436   0.185   0.743   9.351 -0.0850  0.1277 -0.4039
  826MOL0     C11437   0.037   0.767   9.367  0.2465 -0.6506 -0.3096
  826MOL0     C11438  -0.051   0.660   9.419 -0.2277  0.4507  0.1376
  826MOL0     C11439  -0.192   0.705   9.417 -0.5047  0.4198  0.3460
  826MOL0     C11440  -0.308   0.728   9.425  0.1710  0.0067  0.1473
  826MOL0     C11441   0.424   0.728   9.699  0.3158  0.3369  0.4109
  826MOL0     C11442   0.527   0.718   9.799  0.6352  0.8594  0.2589
  826MOL0     H11443   1.098   0.732   9.870  1.2689 -0.1970 -0.2025
  826MOL0     H11444   1.251   0.750  10.070  0.3691  0.1753  0.2117
  826MOL0     H11445   1.390   0.565  10.188  0.6889  1.3178 -1.2058
  826MOL0     H11446   1.382   0.729  10.271 -0.1750 -0.1606  1.4969
  826MOL0     H11447   1.407   0.644  10.482  1.0576  2.2631 -0.9198
  826MOL0     H11448   1.390   0.472  10.421 -0.2092  0.6507 -0.8526
  826MOL0     H11449   1.607   0.498  10.302  1.2751 -0.1239  0.9017
  826MOL0     H11450   1.602   0.677  10.333 -2.1425  0.8515  1.0610
  826MOL0     H11451   1.616   0.617  10.583  2.6173 -0.6825  1.1565
  826MOL0     H11452   1.609   0.449  10.538 -2.8269 -0.0471 -3.2454
  826MOL0     H11453   1.850   0.506  10.572  0.7934  0.1672 -0.4194
  826MOL0     H11454   1.821   0.490  10.399 -2.2081 -2.8702  0.6112
  826MOL0     H11455   1.839   0.724  10.366  1.5304 -1.5887  0.2702
  826MOL0     H11456   1.827   0.753  10.551  2.3239  1.2910  1.0484
  826MOL0     H11457   2.043   0.796  10.470  2.5870 -0.8349  0.5830
  826MOL0     H11458   2.038   0.667  10.583 -1.4486 -0.3005  0.9604
  826MOL0     H11459   2.048   0.497  10.407 -0.2495  1.2018  3.8663
  826MOL0     H11460   2.188   0.614  10.401  0.3386  1.6107 -1.6812
  826MOL0     H11461   1.947   0.473  10.167  2.8305 -1.2088  0.4115
  826MOL0     H11462   2.020   0.612   9.831  1.8035  0.7426  1.5960
  826MOL0     H11463   1.907   0.507   9.925  0.7152 -0.3150 -0.3802
  826MOL0     H11464   1.793   0.697   9.782  1.5324  1.1969 -1.0011
  826MOL0     H11465   1.865   0.799   9.888 -2.2080  0.0789 -1.4930
  826MOL0     H11466   1.728   0.746  10.069  2.0734 -0.2892 -0.8547
  826MOL0     H11467   1.687   0.583   9.988 -0.7798  0.2155 -2.0814
  826MOL0     H11468   1.614   0.867   9.884  2.1075 -0.0498  2.6504
  826MOL0     H11469   1.522   0.782  10.014 -0.2554  1.8940  0.2299
  826MOL0     H11470   1.391   0.610   9.620 -0.3003 -1.5019  2.9102
  826MOL0     H11471   1.095   0.669   9.442  1.2493 -3.0262  1.3355
  826MOL0     H11472   1.227   0.769   9.362 -3.8332  0.6516  0.1228
  826MOL0     H11473   1.253   0.604   9.432 -0.3458 -1.4471  1.8414
  826MOL0     H11474   0.846   0.876   9.459 -3.5978 -1.6984 -2.5038
  826MOL0     H11475   0.614   0.950   9.357  0.0326 -0.2035 -0.0943
  826MOL0     H11476   0.461   1.062   9.264  2.2902 -0.8591  0.9751
  826MOL0     H11477   0.389   0.981   9.400  0.6577 -0.1149  0.5158
  826MOL0     H11478   0.291   1.244   9.277 -2.7543  1.3355 -0.5752
  826MOL0     H11479   0.230   1.097   9.221  0.9562  0.6065 -1.6690
  826MOL0     H11480   0.221   1.228   9.496  3.3947 -0.0970 -2.2515
  826MOL0     H11481   0.156   1.057   9.475 -2.4470 -0.7523 -1.2771
  826MOL0     H11482   0.037   1.314   9.370  1.1559  0.1674 -0.9063
  826MOL0     H11483   0.001   1.165   9.291 -0.5192  0.6442  0.9019
  826MOL0     H11484  -0.048   1.259   9.560 -1.5654 -0.6176  2.5257
  826MOL0     H11485  -0.028   1.088   9.550  1.3166  0.1957 -0.8241
  826MOL0     H11486  -0.239   1.244   9.429  0.0428 -0.8530  1.4287
  826MOL0     H11487  -0.203   1.089   9.356 -2.0927  1.7946 -1.9901
  826MOL0     H11488  -0.262   1.132   9.650 -2.7655 -0.9198  0.8885
  826MOL0     H11489  -0.221   0.977   9.570  0.7020  0.0227 -2.3984
  826MOL0     H11490  -0.444   0.979   9.588 -0.8573  0.3233  0.5549
  826MOL0     H11491  -0.426   1.012   9.417 -1.9054  0.0047  0.3780
  826MOL0     H11492   0.618   1.279   9.631  1.0330  1.1928 -1.3436
  826MOL0     H11493   0.837   1.229   9.697 -1.1611 -0.4840  1.5059
  826MOL0     H11494   1.198   1.034   9.782 -0.0027  1.2099 -1.9566
  826MOL0     H11495   1.389   0.931   9.890  4.8439  0.2809 -2.6644
  826MOL0     H11496   1.008   0.465  10.282 -1.0292 -0.1215  1.2011
  826MOL0     H11497   0.836   0.494  10.126 -0.9455  0.1203 -1.2192
  826MOL0     H11498   0.795   0.630   9.631  0.6422  1.2789  4.1849
  826MOL0     H11499   0.635   0.647   9.442  2.7191  0.2612  0.5507
  826MOL0     H11500   0.210   0.623   9.529  1.6557 -1.2449 -1.4180
  826MOL0     H11501   0.224   0.804   9.547  0.1812  0.8070 -1.8360
  826MOL0     H11502   0.204   0.655   9.289  0.7560  0.8920 -1.2810
  826MOL0     H11503   0.226   0.830   9.297  0.9496  0.2228  0.5152
  826MOL0     H11504   0.000   0.800   9.269 -1.1590  2.3313  1.0705
  826MOL0     H11505   0.012   0.856   9.426  2.8121  0.4807 -0.7915
  826MOL0     H11506  -0.034   0.639   9.525 -0.4515 -1.8209 -0.2355
  826MOL0     H11507  -0.053   0.569   9.358  2.5389 -0.0195  0.6335
  826MOL0     H11508  -0.409   0.760   9.442  0.5781  1.2122  0.4034
  826MOL0     H11509   0.336   0.777   9.738 -0.3118  1.7699 -2.5542
  826MOL0     H11510   0.512   0.734   9.906 -1.5679 -0.7317  0.2743
  827MOL0     O11511   8.120   2.979   9.744  0.1912  0.5039  0.2544
  827MOL0     C11512   8.222   3.000   9.671 -0.4646  0.5714  0.2523
  827MOL0     O11513   8.234   2.999   9.540  0.4950 -0.7096  0.4984
  827MOL0     C11514   8.126   2.950   9.472 -0.3393 -0.2531  0.9949
  827MOL0     C11515   8.066   2.831   9.500  0.9360 -0.7314 -0.3838
  827MOL0     C11516   7.945   2.790   9.437 -0.4550 -0.6238  0.5511
  827MOL0     C11517   7.885   2.860   9.331 -0.3101  0.4702 -0.9038
  827MOL0     O11518   7.770   2.813   9.266 -0.3099 -0.6255  0.3291
  827MOL0     C11519   7.695   2.892   9.168 -0.1424  0.0482  0.0235
  827MOL0     C11520   7.585   2.803   9.121  0.4530  0.2320  0.3111
  827MOL0     C11521   7.476   2.874   9.042 -0.1894  0.2200 -0.3561
  827MOL0     C11522   7.531   2.960   8.924  0.1635 -0.2643  0.0691
  827MOL0     C11523   7.414   3.023   8.843 -0.2387  0.1697 -0.3452
  827MOL0     C11524   7.313   3.103   8.924 -0.6721 -0.4249 -0.4048
  827MOL0     C11525   7.186   3.153   8.849 -0.2225 -0.4738  0.8737
  827MOL0     C11526   7.086   3.052   8.806 -0.3715  0.6624  0.1957
  827MOL0     N11527   6.973   3.110   8.743 -0.9471 -0.1183  0.1981
  827MOL0     C11528   6.921   3.076   8.614 -0.1549  0.4280 -0.3246
  827MOL0     C11529   6.813   3.158   8.610  0.3943  0.1817  0.5163
  827MOL0     C11530   6.724   3.186   8.492 -0.1295  0.1025  0.1061
  827MOL0     C11531   6.573   3.175   8.511 -0.0763 -0.0770  0.0377
  827MOL0     C11532   6.550   3.025   8.545  0.1294 -0.2324 -0.1955
  827MOL0     C11533   6.403   2.983   8.516  0.7180  0.4010  0.4214
  827MOL0     O11534   6.319   3.041   8.608  0.0444  0.2133 -0.5603
  827MOL0     C11535   6.186   3.032   8.575  0.0727 -0.9462  0.6490
  827MOL0     C11536   6.102   3.149   8.569 -0.3686  0.5931 -0.5501
  827MOL0     C11537   5.978   3.145   8.516  0.7798 -0.6705 -0.3592
  827MOL0     C11538   5.921   3.287   8.492  0.1402  0.4187  0.0731
  827MOL0     C11539   5.913   3.025   8.485 -1.0514  0.0067 -0.6004
  827MOL0     C11540   5.776   3.016   8.421 -1.1089 -0.4531 -0.1085
  827MOL0     O11541   5.726   3.119   8.353 -0.1385  1.2071  0.4837
  827MOL0     C11542   5.598   3.103   8.296 -0.4734 -0.0222 -0.5211
  827MOL0     C11543   5.566   3.004   8.206 -0.0786 -0.2000  0.3338
  827MOL0     C11544   5.438   2.981   8.153 -0.3221  0.1788  0.6455
  827MOL0     C11545   5.345   3.078   8.190 -0.5513 -0.3525 -0.5809
  827MOL0     O11546   5.225   3.059   8.135  0.8321  0.8669 -0.5586
  827MOL0     C11547   5.115   3.105   8.224 -0.4306 -0.4060  0.9663
  827MOL0     C11548   4.986   3.040   8.154 -0.6734  0.1917 -0.5562
  827MOL0     C11549   4.854   3.066   8.234 -0.1852  0.0645  0.1297
  827MOL0     C11550   4.733   3.000   8.171 -0.4695 -0.2040 -0.1136
  827MOL0     C11551   4.596   3.032   8.238 -1.0769 -0.2524  0.1530
  827MOL0     C11552   4.489   2.971   8.152  0.1213  0.6744  0.3926
  827MOL0     C11553   4.344   3.011   8.200 -0.2964 -0.1734  0.6387
  827MOL0     C11554   4.239   2.976   8.087 -0.6116 -0.3689  0.2477
  827MOL0    Cl11555   4.105   3.074   8.126  0.3894  0.2581 -0.0536
  827MOL0     C11556   5.374   3.185   8.280 -0.4364 -0.1449 -0.2466
  827MOL0     C11557   5.509   3.206   8.313  0.4467 -0.3198 -0.3083
  827MOL0     O11558   5.714   2.915   8.446  0.0312  0.2803 -0.1244
  827MOL0     C11559   5.993   2.906   8.516 -0.5828  0.0832  0.1765
  827MOL0     C11560   6.127   2.911   8.560 -0.0038 -0.4526  1.9949
  827MOL0     N11561   6.790   3.225   8.731 -0.2314  0.0974  0.6529
  827MOL0     N11562   6.884   3.188   8.811 -0.1191 -0.3757 -0.0976
  827MOL0     C11563   7.947   2.981   9.307 -0.7698  0.8279 -0.2078
  827MOL0     C11564   8.064   3.025   9.372  0.7158 -0.0198 -0.3803
  827MOL0     C11565   8.349   3.052   9.734 -0.0599  0.1466  0.6414
  827MOL0     C11566   8.467   3.068   9.661 -0.6741 -0.6533  0.2964
  827MOL0     C11567   8.590   3.110   9.726  0.4732 -0.2919  0.7868
  827MOL0     C11568   8.599   3.124   9.866  0.0887 -0.0970  0.5165
  827MOL0     O11569   8.725   3.168   9.913  0.3691 -0.2206 -0.0017
  827MOL0     C11570   8.737   3.208  10.052 -0.2720 -0.0274  0.6940
  827MOL0     C11571   8.882   3.248  10.076 -0.4898  0.3984 -0.3625
  827MOL0     C11572   8.892   3.340  10.200  0.8021  0.0433 -0.1476
  827MOL0     C11573   9.038   3.390  10.219  0.3500  0.3749  0.6320
  827MOL0     C11574   9.072   3.453  10.345  0.2146 -0.1563  0.5042
  827MOL0     C11575   9.088   3.511  10.453  0.7156 -0.6745  0.1227
  827MOL0     C11576   8.484   3.090   9.931  0.0501 -0.2316 -0.8581
  827MOL0     C11577   8.356   3.058   9.875  0.0797  0.1680  0.3307
  827MOL0     H11578   8.090   2.765   9.583 -0.6426 -0.4200  0.3638
  827MOL0     H11579   7.901   2.695   9.462 -0.0557 -1.4262 -1.5627
  827MOL0     H11580   7.660   2.985   9.214  0.1679 -0.0708  0.5136
  827MOL0     H11581   7.763   2.914   9.085  0.7553  0.3773  0.8311
  827MOL0     H11582   7.620   2.728   9.049 -0.2328  0.5878 -0.4084
  827MOL0     H11583   7.529   2.754   9.201 -0.9656  1.2748 -0.0162
  827MOL0     H11584   7.406   2.799   9.004  1.5277 -1.7536  0.1957
  827MOL0     H11585   7.418   2.939   9.108 -0.4426 -0.6160  0.2634
  827MOL0     H11586   7.594   3.044   8.956 -0.0716  1.5975 -3.8036
  827MOL0     H11587   7.595   2.901   8.858  0.6117  2.2982 -1.9422
  827MOL0     H11588   7.455   3.091   8.768  0.8251 -1.9286 -1.7611
  827MOL0     H11589   7.347   2.952   8.794 -0.8518  1.9075 -2.1491
  827MOL0     H11590   7.278   3.034   9.001 -0.9033 -0.4659 -0.5429
  827MOL0     H11591   7.368   3.189   8.962 -0.0371 -1.0609  0.1373
  827MOL0     H11592   7.134   3.221   8.917 -0.2751 -0.2263  0.5856
  827MOL0     H11593   7.221   3.214   8.766 -0.2453  1.2249  2.0640
  827MOL0     H11594   7.058   2.982   8.885 -3.2734 -0.1658 -1.4204
  827MOL0     H11595   7.133   2.987   8.731 -1.1173 -0.6477  0.8263
  827MOL0     H11596   6.957   3.016   8.531 -0.4986  2.5231 -2.0611
  827MOL0     H11597   6.740   3.289   8.458  0.8297 -0.6343 -1.8485
  827MOL0     H11598   6.747   3.114   8.413 -0.7294  0.4899 -0.4303
  827MOL0     H11599   6.528   3.201   8.415  0.7372 -0.1199 -0.3650
  827MOL0     H11600   6.531   3.239   8.590  2.4563  1.2708  0.3853
  827MOL0     H11601   6.582   2.998   8.646  0.4035 -3.0594 -0.9547
  827MOL0     H11602   6.616   2.961   8.486  0.9528 -0.1920  0.6506
  827MOL0     H11603   6.396   2.874   8.508 -0.1498  0.4059  0.9379
  827MOL0     H11604   6.378   3.027   8.419  1.6111  0.1404  0.0663
  827MOL0     H11605   6.154   3.242   8.585 -0.5318  0.4539  0.8940
  827MOL0     H11606   5.979   3.365   8.544 -1.1288  0.9299  0.7538
  827MOL0     H11607   5.919   3.301   8.384  0.4035 -0.1441 -0.0108
  827MOL0     H11608   5.820   3.292   8.534 -0.4122 -3.7223 -0.3797
  827MOL0     H11609   5.647   2.948   8.161  0.9898  1.3139  0.3005
  827MOL0     H11610   5.419   2.902   8.081 -0.2600  0.0609  0.7583
  827MOL0     H11611   5.110   3.065   8.326 -0.9934  1.8030  1.8480
  827MOL0     H11612   5.115   3.214   8.230  1.1380 -0.2396 -1.1818
  827MOL0     H11613   4.984   3.076   8.051  0.8884  0.8830 -0.3745
  827MOL0     H11614   5.008   2.933   8.155  3.8383  0.8498  2.9639
  827MOL0     H11615   4.841   3.174   8.223 -0.1946 -0.1624 -3.1805
  827MOL0     H11616   4.867   3.035   8.338 -0.8313  2.0242  0.8475
  827MOL0     H11617   4.716   3.028   8.067  0.8155  0.9761 -0.0229
  827MOL0     H11618   4.751   2.892   8.172  2.4651  0.1962  0.6809
  827MOL0     H11619   4.581   3.140   8.243 -0.5008 -0.0943 -1.0596
  827MOL0     H11620   4.580   2.998   8.341 -1.2048 -0.6937 -0.0113
  827MOL0     H11621   4.507   2.984   8.045  0.5387  0.3143  0.4140
  827MOL0     H11622   4.492   2.862   8.164  0.7532  0.2401 -2.6725
  827MOL0     H11623   4.337   3.118   8.222  0.1394  0.0456 -0.2331
  827MOL0     H11624   4.320   2.960   8.294 -2.4582 -1.0827 -0.3498
  827MOL0     H11625   4.209   2.870   8.086 -2.1865  0.0182  1.3114
  827MOL0     H11626   4.279   3.008   7.991 -0.9142  3.2773  1.1995
  827MOL0     H11627   5.300   3.260   8.305 -0.5836 -0.0098 -1.0553
  827MOL0     H11628   5.550   3.286   8.374 -1.9592  0.8283 -0.0559
  827MOL0     H11629   5.947   2.808   8.504  0.3563 -0.2738 -0.7036
  827MOL0     H11630   6.189   2.822   8.553 -0.5035 -0.6846 -1.6929
  827MOL0     H11631   7.898   3.047   9.235 -1.5750  1.6608  1.0637
  827MOL0     H11632   8.107   3.123   9.354 -0.9669  1.0078  0.8935
  827MOL0     H11633   8.476   3.050   9.555 -1.3816  2.1249 -0.3084
  827MOL0     H11634   8.679   3.130   9.668 -0.9159 -2.0427 -2.1887
  827MOL0     H11635   8.677   3.300  10.056  2.7970  2.1881 -0.7120
  827MOL0     H11636   8.697   3.131  10.118 -1.8707  0.2634  0.1219
  827MOL0     H11637   8.910   3.309   9.990 -0.9731  1.1322 -0.0054
  827MOL0     H11638   8.950   3.162  10.086 -0.4858  0.0381 -2.8300
  827MOL0     H11639   8.872   3.273  10.284 -3.4940 -0.2838 -1.2079
  827MOL0     H11640   8.823   3.424  10.208  1.5565  0.5345  1.8634
  827MOL0     H11641   9.064   3.461  10.140  0.5751 -2.0434 -1.5892
  827MOL0     H11642   9.113   3.313  10.202  1.6303  2.1749 -2.8535
  827MOL0     H11643   9.090   3.573  10.540  1.7460  1.2791 -1.2173
  827MOL0     H11644   8.487   3.097  10.040  0.1760  2.5130 -0.9724
  827MOL0     H11645   8.263   3.048   9.930 -2.0578  0.9728 -2.8578
  828MOL0     O11646   5.194   3.534   8.437  0.3100  0.0645  0.1170
  828MOL0     C11647   5.251   3.467   8.524  0.0969  0.4444  0.4950
  828MOL0     O11648   5.190   3.357   8.586 -0.3668  0.0418 -0.2591
  828MOL0     C11649   5.054   3.342   8.587 -0.7073  0.3244 -0.3885
  828MOL0     C11650   4.998   3.213   8.581 -0.1285  0.1261 -0.9016
  828MOL0     C11651   4.866   3.185   8.574  0.1524 -0.1397 -0.4286
  828MOL0     C11652   4.771   3.279   8.537 -0.5666  0.2849 -0.3205
  828MOL0     O11653   4.652   3.236   8.498  0.3217  0.6299 -0.3112
  828MOL0     C11654   4.548   3.332   8.494 -0.7491  0.1272 -0.1831
  828MOL0     C11655   4.417   3.256   8.499 -0.2088  0.6275  0.1235
  828MOL0     C11656   4.383   3.243   8.647 -0.3919 -0.1522  0.1271
  828MOL0     C11657   4.273   3.135   8.660 -0.0577  0.2737 -0.0983
  828MOL0     C11658   4.137   3.186   8.602 -0.0122  0.4075 -0.1235
  828MOL0     C11659   4.043   3.068   8.589 -0.1685  0.9968  0.6366
  828MOL0     C11660   3.913   3.129   8.537  0.7762  0.1811  0.3010
  828MOL0     C11661   3.816   3.006   8.513 -0.8573 -0.3883 -0.6683
  828MOL0     N11662   3.686   3.049   8.463  0.2551 -0.4864  0.2241
  828MOL0     C11663   3.662   3.041   8.327  0.1955  0.8017 -0.0826
  828MOL0     C11664   3.543   3.102   8.311  0.2790  0.8170  0.1544
  828MOL0     C11665   3.468   3.105   8.181 -0.9035  0.0785  0.6328
  828MOL0     C11666   3.326   3.156   8.193 -0.1373 -0.2122 -0.6065
  828MOL0     C11667   3.233   3.130   8.076 -0.1855 -0.0181 -0.3357
  828MOL0     C11668   3.221   2.983   8.058  0.2725 -0.2838  0.0283
  828MOL0     O11669   3.175   2.920   8.178  0.4220 -0.0662 -0.2956
  828MOL0     C11670   3.054   2.858   8.179 -0.6357  0.5145  1.0544
  828MOL0     C11671   3.047   2.717   8.181  0.5526 -0.4224 -0.1997
  828MOL0     C11672   2.921   2.650   8.196 -0.2030 -0.5723  0.9597
  828MOL0     C11673   2.927   2.503   8.187 -0.4050 -0.0662 -0.2937
  828MOL0     C11674   2.802   2.734   8.217  0.2587 -0.3378 -0.5956
  828MOL0     C11675   2.668   2.671   8.244  0.5436  1.2236  0.5471
  828MOL0     O11676   2.563   2.762   8.240  0.1163 -0.4204  0.4497
  828MOL0     C11677   2.436   2.706   8.257  0.5883 -0.4823 -0.6801
  828MOL0     C11678   2.358   2.680   8.139  0.5378 -0.5529 -0.8142
  828MOL0     C11679   2.232   2.618   8.149  0.2527 -0.6285  0.2329
  828MOL0     C11680   2.175   2.597   8.271 -0.4584 -0.2276 -0.7477
  828MOL0     O11681   2.046   2.562   8.272 -0.6749  0.1585 -0.5103
  828MOL0     C11682   1.958   2.597   8.369  0.0830  0.7771 -0.5595
  828MOL0     C11683   1.952   2.484   8.478  0.2890  0.6142 -0.4353
  828MOL0     C11684   1.854   2.372   8.442  0.1968  0.9816  0.3779
  828MOL0     C11685   1.869   2.258   8.541  0.0285  0.4484 -0.6896
  828MOL0     C11686   1.797   2.121   8.503 -0.3162 -0.5425 -0.1709
  828MOL0     C11687   1.818   2.024   8.615 -0.4633 -0.4536  0.5711
  828MOL0     C11688   1.757   1.891   8.595 -0.0666 -0.1907 -0.0389
  828MOL0     C11689   1.865   1.783   8.584  0.4661  0.5291  0.2597
  828MOL0    Cl11690   1.785   1.633   8.536  0.2689 -0.0280  0.4027
  828MOL0     C11691   2.250   2.623   8.385  0.1010 -0.3373  0.2693
  828MOL0     C11692   2.381   2.681   8.381 -0.2811  0.1733  0.0771
  828MOL0     O11693   2.655   2.553   8.285 -0.0052  0.0977 -0.4472
  828MOL0     C11694   2.816   2.881   8.208  0.4274 -0.1033 -0.2339
  828MOL0     C11695   2.943   2.937   8.187 -0.5574  0.2330  0.8622
  828MOL0     N11696   3.501   3.157   8.431  0.6210  0.8976  0.5037
  828MOL0     N11697   3.589   3.125   8.525  0.3516 -0.2644  0.4789
  828MOL0     C11698   4.822   3.413   8.542 -0.8781 -0.0815  0.0657
  828MOL0     C11699   4.961   3.447   8.570  0.1666  0.0152 -0.3586
  828MOL0     C11700   5.392   3.497   8.569  0.3164 -0.3073 -0.1818
  828MOL0     C11701   5.464   3.413   8.656 -0.2935 -0.1647  0.5861
  828MOL0     C11702   5.595   3.448   8.690  0.1269  0.7427  0.5085
  828MOL0     C11703   5.658   3.570   8.647  0.0089  0.4752 -0.3388
  828MOL0     O11704   5.780   3.617   8.682  0.7356  0.1891  0.0270
  828MOL0     C11705   5.860   3.544   8.768  0.1149 -0.2174 -0.1432
  828MOL0     C11706   5.995   3.611   8.788  0.7247 -0.5263 -0.4996
  828MOL0     C11707   6.095   3.554   8.886  0.0705 -0.4709 -0.5027
  828MOL0     C11708   6.178   3.435   8.838  0.1928 -1.1150 -0.1264
  828MOL0     C11709   6.260   3.472   8.724  0.0834 -0.4311 -0.0326
  828MOL0     C11710   6.332   3.498   8.631  0.7300 -0.1736  0.4707
  828MOL0     C11711   5.577   3.649   8.568 -0.1947  0.1327  0.5465
  828MOL0     C11712   5.446   3.618   8.531 -0.3780  0.8576 -0.1684
  828MOL0     H11713   5.068   3.134   8.605  2.0396  2.8087  2.6581
  828MOL0     H11714   4.833   3.082   8.584 -1.8012  0.3684 -1.2196
  828MOL0     H11715   4.560   3.390   8.586  0.5826 -3.1328  1.8735
  828MOL0     H11716   4.551   3.385   8.398 -1.0931  0.5842  0.0548
  828MOL0     H11717   4.333   3.299   8.443  0.1881 -1.6381 -2.4373
  828MOL0     H11718   4.438   3.159   8.452  0.9756 -0.1617  2.1760
  828MOL0     H11719   4.464   3.192   8.701 -1.8528 -0.8039  1.7965
  828MOL0     H11720   4.359   3.341   8.687  2.5936  0.7496 -0.0326
  828MOL0     H11721   4.293   3.037   8.617 -4.1949 -0.8109  0.0417
  828MOL0     H11722   4.255   3.112   8.766 -0.1194  0.5362 -0.0499
  828MOL0     H11723   4.094   3.253   8.677  0.5327  3.8087 -2.5627
  828MOL0     H11724   4.138   3.229   8.501  0.0545  1.4372  0.2962
  828MOL0     H11725   4.085   2.998   8.516  1.2560  0.4985  1.8943
  828MOL0     H11726   4.028   3.007   8.678 -0.4571 -3.3421 -2.1112
  828MOL0     H11727   3.862   3.190   8.613  0.5235  0.3327  0.0109
  828MOL0     H11728   3.922   3.186   8.445 -1.1940  0.7624  0.4111
  828MOL0     H11729   3.800   2.949   8.605  1.1007 -1.2192 -0.7982
  828MOL0     H11730   3.863   2.936   8.444 -1.3622 -2.2993  0.8331
  828MOL0     H11731   3.716   2.994   8.246 -0.9330  1.2904 -1.1543
  828MOL0     H11732   3.529   3.168   8.116 -2.6799  1.0344 -0.1661
  828MOL0     H11733   3.469   3.004   8.139  2.3354  0.8983 -1.6141
  828MOL0     H11734   3.342   3.263   8.206  2.2661 -0.5285 -0.4736
  828MOL0     H11735   3.276   3.119   8.283 -0.1634 -0.7493 -0.8384
  828MOL0     H11736   3.275   3.182   7.989  1.8304 -0.4234  0.3388
  828MOL0     H11737   3.134   3.170   8.097  0.1534  0.1310  1.0741
  828MOL0     H11738   3.312   2.933   8.024 -0.1479 -1.7110  0.9059
  828MOL0     H11739   3.143   2.961   7.985  1.0024 -1.8949 -0.3133
  828MOL0     H11740   3.138   2.661   8.202 -0.5754 -2.2927 -0.1231
  828MOL0     H11741   2.842   2.468   8.126 -0.3128  0.0867 -0.5107
  828MOL0     H11742   3.024   2.465   8.154 -0.1929  1.4999 -1.5535
  828MOL0     H11743   2.918   2.469   8.291 -2.0633 -0.4211 -0.5197
  828MOL0     H11744   2.403   2.708   8.044  2.5555 -1.5168 -0.2077
  828MOL0     H11745   2.177   2.590   8.060  2.4160 -3.3062 -0.4109
  828MOL0     H11746   1.993   2.689   8.417  2.6171  0.2050 -1.1652
  828MOL0     H11747   1.857   2.614   8.331 -0.3678 -0.8093 -0.1470
  828MOL0     H11748   2.046   2.435   8.503  0.1959  0.7341  0.1752
  828MOL0     H11749   1.916   2.547   8.560 -0.6169  1.5085 -1.4761
  828MOL0     H11750   1.890   2.338   8.344  1.4195  0.8696  0.8494
  828MOL0     H11751   1.752   2.410   8.429 -0.9801 -2.1112 -0.5194
  828MOL0     H11752   1.975   2.233   8.551  0.3681  1.2880 -1.9479
  828MOL0     H11753   1.831   2.287   8.639  2.5113 -1.6398  1.0122
  828MOL0     H11754   1.837   2.088   8.406 -1.3098 -4.3834  0.5789
  828MOL0     H11755   1.690   2.143   8.494 -0.0042  0.9700 -0.5686
  828MOL0     H11756   1.922   2.015   8.647 -0.7237  2.0027  2.4502
  828MOL0     H11757   1.774   2.068   8.705  1.6138  2.1573  0.4240
  828MOL0     H11758   1.699   1.893   8.502  2.6786 -1.5260 -1.9010
  828MOL0     H11759   1.696   1.881   8.686  1.0559  2.6616  1.1358
  828MOL0     H11760   1.909   1.779   8.685 -2.0368  3.2409  1.5781
  828MOL0     H11761   1.941   1.815   8.512 -1.2914  1.4362 -1.2684
  828MOL0     H11762   2.205   2.600   8.481 -0.7453  0.2655  0.0316
  828MOL0     H11763   2.441   2.712   8.466  0.9039  0.5622 -0.8747
  828MOL0     H11764   2.730   2.944   8.223  0.1128  0.0716 -2.5031
  828MOL0     H11765   2.968   3.042   8.181 -1.2377  0.4266  1.2888
  828MOL0     H11766   4.760   3.500   8.525  0.1701  0.7970  0.6023
  828MOL0     H11767   4.990   3.551   8.561 -0.3736  0.2473  0.4885
  828MOL0     H11768   5.416   3.324   8.695  0.2149 -1.2984 -1.2426
  828MOL0     H11769   5.636   3.375   8.758 -1.2866  0.4195  1.0539
  828MOL0     H11770   5.809   3.531   8.863 -2.0546 -1.3698 -1.3956
  828MOL0     H11771   5.871   3.447   8.718 -1.2889 -0.6265  0.3113
  828MOL0     H11772   5.966   3.701   8.844 -0.9076 -0.9212 -0.6462
  828MOL0     H11773   6.041   3.661   8.703 -0.4022 -1.6879 -1.8477
  828MOL0     H11774   6.035   3.525   8.973 -2.4155 -0.7860 -2.2225
  828MOL0     H11775   6.164   3.630   8.924  1.6034 -1.0114 -2.0720
  828MOL0     H11776   6.112   3.355   8.805 -1.9884 -0.3598  2.1099
  828MOL0     H11777   6.252   3.408   8.914  1.5620  0.7742 -0.7051
  828MOL0     H11778   6.388   3.530   8.546 -0.3191 -1.1656 -0.6297
  828MOL0     H11779   5.630   3.730   8.520  0.1421 -1.2702 -1.5780
  828MOL0     H11780   5.384   3.686   8.473 -1.3019  0.4519  0.3091
  829MOL0     O11781   5.343   1.978  10.952  0.1492 -0.5290 -0.2188
  829MOL0     C11782   5.426   1.922  11.025  0.4618 -1.2086  1.0002
  829MOL0     O11783   5.397   1.818  11.110  0.6354 -0.3732  0.2187
  829MOL0     C11784   5.266   1.792  11.135  0.3410  0.5808 -0.2427
  829MOL0     C11785   5.194   1.698  11.067  0.0686  0.2746 -0.1660
  829MOL0     C11786   5.048   1.685  11.092 -0.1318 -0.1359  0.7180
  829MOL0     C11787   4.985   1.747  11.203  0.1916 -0.0789 -0.0219
  829MOL0     O11788   4.850   1.727  11.218  0.1271 -0.7366  0.2706
  829MOL0     C11789   4.769   1.833  11.267  0.2128  0.6809 -0.6147
  829MOL0     C11790   4.627   1.790  11.237 -0.2869 -0.1182 -0.6779
  829MOL0     C11791   4.586   1.701  11.361  0.1881  0.1184 -0.3768
  829MOL0     C11792   4.465   1.614  11.326 -0.6154 -0.2961  0.1854
  829MOL0     C11793   4.450   1.495  11.422 -0.2481  0.7681  0.4710
  829MOL0     C11794   4.331   1.408  11.398 -0.2980  0.3429  0.1121
  829MOL0     C11795   4.215   1.450  11.475  0.0186  0.0232  0.3873
  829MOL0     C11796   4.109   1.336  11.486 -0.1003 -0.9576 -0.2729
  829MOL0     N11797   3.992   1.384  11.560 -0.0356  0.6674  0.2920
  829MOL0     C11798   3.857   1.353  11.523 -0.1585 -0.4833  0.2205
  829MOL0     C11799   3.786   1.403  11.628  0.0703  0.6342  0.4717
  829MOL0     C11800   3.640   1.387  11.639 -0.0030  0.2392  0.3737
  829MOL0     C11801   3.560   1.499  11.564 -1.0002  0.8232  0.2991
  829MOL0     C11802   3.404   1.486  11.600 -0.4943  0.0776  0.1364
  829MOL0     C11803   3.319   1.580  11.517 -0.3806  0.6611 -0.1342
  829MOL0     O11804   3.183   1.579  11.577 -0.8677  0.4597  0.7078
  829MOL0     C11805   3.092   1.508  11.502 -0.0569 -0.5891 -1.0627
  829MOL0     C11806   2.966   1.559  11.493  0.0895  0.4686  0.3620
  829MOL0     C11807   2.861   1.497  11.418 -0.6370 -0.1406 -0.5752
  829MOL0     C11808   2.728   1.571  11.414  0.0377 -0.8198 -0.5551
  829MOL0     C11809   2.899   1.389  11.344  0.4388  0.6679 -0.0067
  829MOL0     C11810   2.800   1.312  11.270 -0.8721 -0.0958 -0.1935
  829MOL0     O11811   2.836   1.275  11.145  0.2271 -0.2313  0.7036
  829MOL0     C11812   2.742   1.192  11.088 -0.1749 -0.0204  0.5461
  829MOL0     C11813   2.661   1.244  10.985 -0.9226  1.4552  0.0130
  829MOL0     C11814   2.582   1.165  10.910 -0.7776  0.0546 -0.0395
  829MOL0     C11815   2.590   1.025  10.937  0.3233 -0.4255  0.4881
  829MOL0     O11816   2.502   0.939  10.879 -0.0551 -0.1985  0.9532
  829MOL0     C11817   2.517   0.950  10.736 -0.3266  0.5534  0.1808
  829MOL0     C11818   2.468   0.829  10.658  0.3385  0.9521  0.6263
  829MOL0     C11819   2.495   0.838  10.507 -0.6288  0.5330  0.2253
  829MOL0     C11820   2.418   0.946  10.438  0.0652  0.3286  0.8508
  829MOL0     C11821   2.431   0.917  10.288  0.4015  0.4010 -0.1699
  829MOL0     C11822   2.326   1.001  10.207 -0.6206 -0.2998  0.0902
  829MOL0     C11823   2.391   1.133  10.171 -0.0758  0.1194  0.2510
  829MOL0     C11824   2.332   1.207  10.046  0.4402 -0.3611 -0.3671
  829MOL0    Cl11825   2.163   1.238  10.082 -0.4475  0.0983 -0.0941
  829MOL0     C11826   2.656   0.973  11.048  0.4615  0.1974  0.2462
  829MOL0     C11827   2.733   1.057  11.119 -0.3614 -0.2072  0.2480
  829MOL0     O11828   2.692   1.285  11.327  0.1051 -0.4603 -0.5685
  829MOL0     C11829   3.028   1.329  11.355 -0.4739  0.0885  0.3803
  829MOL0     C11830   3.118   1.387  11.440  0.3300  0.3431  0.1621
  829MOL0     N11831   3.873   1.443  11.722 -0.4277 -0.1522 -0.4953
  829MOL0     N11832   3.995   1.430  11.690  0.0559  0.2313 -0.1784
  829MOL0     C11833   5.068   1.842  11.266  0.3881  0.7331 -0.1610
  829MOL0     C11834   5.201   1.869  11.239 -0.0925  0.4942 -0.4896
  829MOL0     C11835   5.568   1.965  11.005  0.5935  0.6619 -0.4699
  829MOL0     C11836   5.663   1.921  11.100 -0.1579 -0.5873 -0.0584
  829MOL0     C11837   5.795   1.974  11.098  0.8782 -0.4781  0.7274
  829MOL0     C11838   5.835   2.058  10.992 -0.0466 -0.6233 -0.0152
  829MOL0     O11839   5.964   2.112  10.975  0.7577  0.5630 -0.1520
  829MOL0     C11840   6.073   2.093  11.070 -0.1599 -0.3889 -1.0467
  829MOL0     C11841   6.169   1.996  11.010 -0.6751 -0.1486 -0.9690
  829MOL0     C11842   6.230   2.025  10.874  0.2285  1.0160 -0.8315
  829MOL0     C11843   6.300   1.904  10.811  0.8077 -0.4000 -0.2764
  829MOL0     C11844   6.375   1.953  10.699 -1.3150 -0.5024  0.2006
  829MOL0     C11845   6.436   1.999  10.599 -0.2183 -0.0850  0.0788
  829MOL0     C11846   5.745   2.097  10.892  0.1349  0.0831 -0.4685
  829MOL0     C11847   5.607   2.054  10.902 -0.0430  0.2455  0.1540
  829MOL0     H11848   5.238   1.649  10.981  2.0136  0.1881  0.8217
  829MOL0     H11849   4.979   1.619  11.040 -2.0323 -0.8438  3.8622
  829MOL0     H11850   4.779   1.858  11.373  0.0861  2.9597 -1.0809
  829MOL0     H11851   4.790   1.927  11.214 -0.5127  1.7990  1.0257
  829MOL0     H11852   4.574   1.886  11.242  0.1710  0.0661  2.2112
  829MOL0     H11853   4.610   1.739  11.142  0.8212  0.2398 -1.0785
  829MOL0     H11854   4.664   1.637  11.403 -2.1883 -2.4779  0.3415
  829MOL0     H11855   4.564   1.761  11.450  0.6290 -1.7257  1.0488
  829MOL0     H11856   4.378   1.680  11.326  0.1923  0.8083  1.0856
  829MOL0     H11857   4.479   1.573  11.226 -1.1348 -0.2720  0.0993
  829MOL0     H11858   4.539   1.433  11.432 -0.5227  0.6191  2.4327
  829MOL0     H11859   4.447   1.536  11.523 -0.0658 -0.4720  0.9984
  829MOL0     H11860   4.306   1.406  11.291 -1.2932 -1.5138  0.3349
  829MOL0     H11861   4.357   1.306  11.427 -0.0527  0.9611  2.1847
  829MOL0     H11862   4.247   1.477  11.576  1.4961 -0.0179 -0.0574
  829MOL0     H11863   4.167   1.537  11.429 -1.4175 -2.0527 -2.3579
  829MOL0     H11864   4.169   1.268  11.546  2.3826  0.4320 -1.0515
  829MOL0     H11865   4.092   1.295  11.386 -3.3353 -0.5316 -0.0077
  829MOL0     H11866   3.833   1.292  11.436  3.5696 -2.8922  0.6232
  829MOL0     H11867   3.612   1.291  11.595 -0.2524  0.7715 -0.6530
  829MOL0     H11868   3.614   1.379  11.745  0.8840 -3.0411  0.4479
  829MOL0     H11869   3.581   1.500  11.457 -1.7163 -2.4364  0.0227
  829MOL0     H11870   3.607   1.591  11.599 -1.3576  1.6953 -1.4420
  829MOL0     H11871   3.377   1.517  11.702 -0.8996  3.5958 -0.9050
  829MOL0     H11872   3.375   1.383  11.581 -0.5911  0.2034 -0.4177
  829MOL0     H11873   3.328   1.557  11.410  1.8729  0.8225 -0.0086
  829MOL0     H11874   3.348   1.683  11.536 -1.6849  0.7734  1.4388
  829MOL0     H11875   2.942   1.651  11.545 -0.0938 -0.2760  1.6379
  829MOL0     H11876   2.713   1.595  11.308 -2.0541  1.4984  0.1830
  829MOL0     H11877   2.650   1.505  11.454  0.8017 -0.5299  1.5333
  829MOL0     H11878   2.730   1.671  11.458 -0.6630 -0.0290 -2.2353
  829MOL0     H11879   2.681   1.347  10.956 -0.8148  1.1527 -1.0449
  829MOL0     H11880   2.518   1.207  10.833 -2.6459  0.3496  1.5930
  829MOL0     H11881   2.476   1.043  10.697  0.7194  0.7185 -0.5770
  829MOL0     H11882   2.623   0.954  10.708 -0.2448 -0.4473  0.3014
  829MOL0     H11883   2.520   0.739  10.691 -0.9535  0.7312  2.1364
  829MOL0     H11884   2.362   0.812  10.676 -0.2415  0.0888 -2.8820
  829MOL0     H11885   2.459   0.742  10.469 -1.9296 -0.7579  4.2443
  829MOL0     H11886   2.602   0.842  10.483 -0.2593 -2.2000  1.0274
  829MOL0     H11887   2.314   0.947  10.472  0.0853 -1.7233  1.1396
  829MOL0     H11888   2.480   1.034  10.454 -0.6083  1.7363 -3.1998
  829MOL0     H11889   2.409   0.811  10.269  3.1785  0.0433 -2.0657
  829MOL0     H11890   2.534   0.928  10.254  0.7443  1.7367  1.2102
  829MOL0     H11891   2.302   0.956  10.110 -2.3335 -1.5784  1.0606
  829MOL0     H11892   2.237   1.008  10.270  0.5837  2.4222  1.6686
  829MOL0     H11893   2.497   1.117  10.148 -0.4920  0.0294 -1.7795
  829MOL0     H11894   2.382   1.203  10.255  1.1652 -0.1640  0.6349
  829MOL0     H11895   2.344   1.144   9.958  0.1568 -1.5679  0.4409
  829MOL0     H11896   2.379   1.305  10.028 -0.3178 -0.0106 -0.4493
  829MOL0     H11897   2.632   0.869  11.068 -1.4465  0.4528 -0.5087
  829MOL0     H11898   2.786   1.035  11.211  0.9976  1.8361  0.0197
  829MOL0     H11899   3.067   1.244  11.300  0.5042  2.5676 -3.0823
  829MOL0     H11900   3.219   1.346  11.446  0.1550 -0.0948  0.1758
  829MOL0     H11901   5.013   1.896  11.343  0.0781 -3.1319  2.6552
  829MOL0     H11902   5.254   1.945  11.296  1.4610  0.3052 -1.6277
  829MOL0     H11903   5.639   1.840  11.169 -4.6513 -0.1754 -0.7917
  829MOL0     H11904   5.858   1.925  11.172  1.5482  0.4863  0.8122
  829MOL0     H11905   6.127   2.188  11.070 -0.3293 -0.2657 -2.6789
  829MOL0     H11906   6.053   2.061  11.173  3.2329  0.2997 -0.0449
  829MOL0     H11907   6.120   1.898  11.006 -1.0783  0.0831 -3.1195
  829MOL0     H11908   6.248   1.984  11.085 -1.2380  1.1053 -0.1452
  829MOL0     H11909   6.310   2.097  10.898  0.6541  0.1936  0.2707
  829MOL0     H11910   6.159   2.073  10.805  0.3715  0.8794 -1.0771
  829MOL0     H11911   6.217   1.840  10.780 -3.1144  2.4677  3.1661
  829MOL0     H11912   6.374   1.855  10.875 -0.7446 -2.3653  0.1069
  829MOL0     H11913   6.480   2.035  10.508 -0.5452  0.4796  0.1442
  829MOL0     H11914   5.775   2.170  10.818 -2.5978  0.2538 -1.5255
  829MOL0     H11915   5.538   2.105  10.836  2.0977  1.9508 -0.9095
  830MOL0     O11916   7.465   2.672   7.355  0.3558  0.0344  0.0279
  830MOL0     C11917   7.568   2.668   7.287  0.1702 -0.0428 -0.0411
  830MOL0     O11918   7.570   2.695   7.153 -0.5267 -0.5056  0.3594
  830MOL0     C11919   7.445   2.706   7.094 -0.1435  1.0930  0.0943
  830MOL0     C11920   7.375   2.589   7.046  0.0264 -0.3032  0.6149
  830MOL0     C11921   7.253   2.618   6.978 -0.0122 -0.1075  0.8044
  830MOL0     C11922   7.202   2.739   6.949  0.1142  0.6622  0.9529
  830MOL0     O11923   7.076   2.750   6.880 -0.5358  0.1611 -0.9919
  830MOL0     C11924   7.013   2.882   6.853  0.4279  0.0134 -0.8218
  830MOL0     C11925   7.076   2.941   6.726  0.1994 -0.2364 -0.2779
  830MOL0     C11926   7.076   2.842   6.606 -1.1895  0.1004 -0.0678
  830MOL0     C11927   6.934   2.852   6.532 -0.1271 -0.1839 -0.5183
  830MOL0     C11928   6.909   2.735   6.435 -0.0604  0.2971  0.2909
  830MOL0     C11929   6.772   2.756   6.363 -0.7044  0.2402 -0.9319
  830MOL0     C11930   6.712   2.622   6.324 -0.6558 -0.1877  0.0203
  830MOL0     C11931   6.777   2.562   6.202  0.9196  0.0662  0.6566
  830MOL0     N11932   6.719   2.422   6.206 -0.3370  0.1718  0.0491
  830MOL0     C11933   6.593   2.398   6.184  0.0512 -0.0631 -0.0782
  830MOL0     C11934   6.582   2.261   6.172 -0.1342  0.0252 -0.2463
  830MOL0     C11935   6.452   2.182   6.148  0.4999 -0.3129  0.0707
  830MOL0     C11936   6.354   2.274   6.080 -0.5246  0.6106 -0.4923
  830MOL0     C11937   6.227   2.183   6.049 -0.4156  0.2545 -0.3167
  830MOL0     C11938   6.096   2.256   6.002 -0.4837 -0.9996  0.0900
  830MOL0     O11939   6.042   2.354   6.089 -0.3094 -0.3950 -0.0409
  830MOL0     C11940   5.915   2.406   6.064  0.5606  0.0495 -0.2606
  830MOL0     C11941   5.838   2.383   5.952  0.1085 -0.3744 -0.7402
  830MOL0     C11942   5.701   2.433   5.939  0.2679  0.0007  0.2430
  830MOL0     C11943   5.639   2.396   5.808  0.1264  0.1083  0.7289
  830MOL0     C11944   5.653   2.521   6.036  0.5088  0.3588 -0.4330
  830MOL0     C11945   5.514   2.580   6.042 -0.4176  0.5030 -0.5176
  830MOL0     O11946   5.429   2.546   5.939 -0.4060 -0.4699  0.1082
  830MOL0     C11947   5.302   2.580   5.959 -0.4064  0.1483  0.6679
  830MOL0     C11948   5.216   2.506   6.044 -0.9083  1.2534 -0.1475
  830MOL0     C11949   5.083   2.550   6.061 -1.0849  0.5408  0.2486
  830MOL0     C11950   5.035   2.661   5.996  0.1327 -0.0250  0.2384
  830MOL0     O11951   4.906   2.715   6.002  0.5488  0.2744  0.4790
  830MOL0     C11952   4.810   2.649   6.078 -0.0370  0.5819 -0.0829
  830MOL0     C11953   4.674   2.698   6.042  0.0254  0.3176  0.0702
  830MOL0     C11954   4.573   2.663   6.143  0.6965  0.0101  0.1507
  830MOL0     C11955   4.435   2.729   6.095 -0.4186 -0.2343 -0.0927
  830MOL0     C11956   4.321   2.742   6.185 -0.0758 -0.2402  0.9208
  830MOL0     C11957   4.283   2.607   6.246  0.3101  0.3281 -0.2979
  830MOL0     C11958   4.274   2.479   6.164  0.1012 -0.3097 -0.4325
  830MOL0     C11959   4.182   2.490   6.046  0.1173 -0.8026 -0.1894
  830MOL0    Cl11960   4.181   2.348   5.938 -0.3846 -0.4583 -0.0179
  830MOL0     C11961   5.125   2.729   5.910 -0.1298  0.5172  0.5368
  830MOL0     C11962   5.254   2.687   5.881  0.3633  0.1683 -0.0772
  830MOL0     O11963   5.482   2.640   6.142  0.1711  0.1190  0.0869
  830MOL0     C11964   5.735   2.546   6.148 -0.1580  0.3821  0.0749
  830MOL0     C11965   5.861   2.490   6.159  0.8737  0.4657 -0.1314
  830MOL0     N11966   6.708   2.209   6.194 -0.1039  0.5883  0.2219
  830MOL0     N11967   6.785   2.300   6.229 -0.3039  0.2746  0.3988
  830MOL0     C11968   7.268   2.851   7.003  0.4036 -0.1316  0.8286
  830MOL0     C11969   7.389   2.831   7.073 -0.0986 -0.3978  0.4094
  830MOL0     C11970   7.697   2.621   7.350 -1.2429 -0.4836 -1.2339
  830MOL0     C11971   7.812   2.603   7.276 -0.0358  0.2391  0.9290
  830MOL0     C11972   7.931   2.567   7.337 -0.3203 -0.2737 -0.6778
  830MOL0     C11973   7.948   2.555   7.473  0.3234 -0.2188 -0.9148
  830MOL0     O11974   8.077   2.515   7.521 -0.2256 -0.0937  0.3259
  830MOL0     C11975   8.068   2.408   7.614  0.4125 -0.2636 -0.2732
  830MOL0     C11976   8.191   2.325   7.623 -0.6351  0.1997 -0.1324
  830MOL0     C11977   8.311   2.404   7.666 -0.8040 -0.3492  0.0497
  830MOL0     C11978   8.446   2.322   7.692  0.1489 -0.3258 -0.0434
  830MOL0     C11979   8.468   2.242   7.812  0.0039  0.3264 -0.2056
  830MOL0     C11980   8.502   2.184   7.911 -0.6325 -0.9975  0.1629
  830MOL0     C11981   7.832   2.582   7.558  0.9144 -0.0779 -0.0370
  830MOL0     C11982   7.702   2.606   7.492  0.2608  0.5283  0.4303
  830MOL0     H11983   7.412   2.489   7.065 -1.9796 -1.0180  1.0925
  830MOL0     H11984   7.190   2.535   6.950  0.7602 -0.6000  0.4877
  830MOL0     H11985   6.912   2.848   6.829 -0.0932 -0.6221  1.9446
  830MOL0     H11986   7.014   2.953   6.935 -1.3831  1.0585 -1.6344
  830MOL0     H11987   7.025   3.034   6.701 -0.2576 -0.2114  0.6883
  830MOL0     H11988   7.179   2.970   6.750 -0.1030  0.1701  0.5877
  830MOL0     H11989   7.156   2.868   6.536 -1.1791 -0.2360 -0.1798
  830MOL0     H11990   7.103   2.742   6.643 -3.5478  0.0963  1.8726
  830MOL0     H11991   6.844   2.848   6.593 -0.5965  1.1466 -1.0860
  830MOL0     H11992   6.931   2.949   6.482  1.6621 -0.9604 -2.2751
  830MOL0     H11993   6.982   2.723   6.355  2.3849  3.2350  1.9050
  830MOL0     H11994   6.907   2.639   6.488 -0.7656 -1.3698 -2.5733
  830MOL0     H11995   6.706   2.801   6.438  1.4099 -1.4885  2.1774
  830MOL0     H11996   6.788   2.826   6.280 -4.2584  1.8597 -0.4418
  830MOL0     H11997   6.723   2.552   6.408 -0.6521  0.3111  0.4375
  830MOL0     H11998   6.607   2.644   6.303 -0.6454 -0.5214 -0.3795
  830MOL0     H11999   6.885   2.549   6.210  0.9490 -2.2646 -2.0762
  830MOL0     H12000   6.745   2.618   6.114  0.1581 -0.0994  0.8160
  830MOL0     H12001   6.519   2.477   6.173  2.0213  1.8162 -0.5003
  830MOL0     H12002   6.461   2.089   6.093 -2.8105 -1.6009  1.4686
  830MOL0     H12003   6.416   2.149   6.246 -0.6763  0.0190 -0.2315
  830MOL0     H12004   6.399   2.314   5.989  0.6028  1.2422  0.3117
  830MOL0     H12005   6.323   2.363   6.137  0.5073  0.4404  0.3878
  830MOL0     H12006   6.202   2.119   6.134  0.2453  2.2353  1.4603
  830MOL0     H12007   6.261   2.110   5.976 -1.2318 -0.7622  0.2849
  830MOL0     H12008   6.020   2.179   5.987 -1.4674 -0.3765  1.5983
  830MOL0     H12009   6.117   2.306   5.907  0.2904  1.6630  1.5823
  830MOL0     H12010   5.877   2.316   5.876  1.3067 -2.2240  1.3855
  830MOL0     H12011   5.689   2.306   5.768  0.7028  0.3562  0.8776
  830MOL0     H12012   5.531   2.380   5.815 -0.0245  0.6557 -0.1896
  830MOL0     H12013   5.655   2.476   5.735  1.0652 -0.7758 -0.0743
  830MOL0     H12014   5.276   2.434   6.101 -0.1087  0.5863 -1.7751
  830MOL0     H12015   5.022   2.509   6.142 -2.6010 -0.3496 -1.2812
  830MOL0     H12016   4.806   2.544   6.047  1.0347  0.5603 -0.1886
  830MOL0     H12017   4.826   2.654   6.186 -1.5310 -1.8890  0.3350
  830MOL0     H12018   4.678   2.805   6.021  0.1175 -0.2191 -3.1520
  830MOL0     H12019   4.649   2.645   5.950  2.1643 -0.9946  0.1780
  830MOL0     H12020   4.594   2.711   6.238  0.9777  2.8410 -1.2536
  830MOL0     H12021   4.566   2.553   6.145  4.6654 -0.6866 -4.5843
  830MOL0     H12022   4.440   2.828   6.049  0.6125  0.0972  0.6867
  830MOL0     H12023   4.403   2.675   6.005 -0.0653 -3.2664  1.4698
  830MOL0     H12024   4.240   2.791   6.130 -2.3562 -1.4844  2.9963
  830MOL0     H12025   4.342   2.814   6.264  0.8619 -0.7352  1.1322
  830MOL0     H12026   4.348   2.588   6.332 -2.0208  0.6377  1.6409
  830MOL0     H12027   4.180   2.630   6.274 -0.1332 -1.8636  0.0567
  830MOL0     H12028   4.224   2.407   6.229 -2.3022  1.5060 -0.1356
  830MOL0     H12029   4.372   2.437   6.142  0.5675 -0.0874  1.1085
  830MOL0     H12030   4.214   2.570   5.980 -0.1503 -1.0832 -0.6630
  830MOL0     H12031   4.081   2.498   6.087 -0.8623 -1.5409 -2.3058
  830MOL0     H12032   5.074   2.816   5.870 -1.1598 -0.9468 -1.4963
  830MOL0     H12033   5.319   2.747   5.818  3.6568  0.7506  3.4460
  830MOL0     H12034   5.704   2.617   6.224  1.5495 -0.2293  1.4050
  830MOL0     H12035   5.924   2.505   6.246  2.1695 -2.1160 -0.5357
  830MOL0     H12036   7.235   2.953   6.982  1.4097 -0.1572 -1.1176
  830MOL0     H12037   7.451   2.915   7.104 -1.4758  0.7048  0.2785
  830MOL0     H12038   7.816   2.610   7.168 -1.7510  0.4549  0.8480
  830MOL0     H12039   8.015   2.553   7.270 -0.5936  2.3414 -1.6868
  830MOL0     H12040   8.044   2.444   7.715  1.1978 -1.5099  0.3884
  830MOL0     H12041   7.985   2.340   7.594 -0.0652 -0.6231  2.4892
  830MOL0     H12042   8.208   2.274   7.528 -0.2501 -0.5122  0.3046
  830MOL0     H12043   8.181   2.243   7.696 -0.3318 -0.0542 -0.3738
  830MOL0     H12044   8.293   2.462   7.757 -0.3319 -1.9552  1.2140
  830MOL0     H12045   8.334   2.467   7.580  0.6877  1.5874  1.7637
  830MOL0     H12046   8.527   2.396   7.695  0.6829 -0.8099 -1.3597
  830MOL0     H12047   8.459   2.258   7.604 -2.0871 -0.9621  0.0377
  830MOL0     H12048   8.542   2.119   7.986 -0.1865 -0.9421 -0.0284
  830MOL0     H12049   7.836   2.576   7.666  1.6832  0.4174 -0.0264
  830MOL0     H12050   7.608   2.626   7.543  0.0732  0.8647 -0.0454
  831MOL0     O12051   0.171   7.786  10.372 -0.2842  0.0159  0.0041
  831MOL0     C12052   0.228   7.743  10.476  0.2537  1.4470  1.5138
  831MOL0     O12053   0.167   7.675  10.578 -0.0894  0.3614 -0.7333
  831MOL0     C12054   0.031   7.666  10.582 -0.6058 -0.4695 -0.7284
  831MOL0     C12055  -0.038   7.546  10.562 -0.2976 -0.8756 -0.5784
  831MOL0     C12056  -0.180   7.538  10.566  0.2051  0.4249  0.1672
  831MOL0     C12057  -0.254   7.660  10.578  1.4976  0.5715 -0.2007
  831MOL0     O12058  -0.393   7.671  10.577 -0.6107  0.2517 -0.5451
  831MOL0     C12059  -0.463   7.574  10.498 -0.6338  0.4132  0.4021
  831MOL0     C12060  -0.610   7.613  10.518  0.1082  0.0612  0.0213
  831MOL0     C12061  -0.638   7.762  10.476  0.3286  0.1424  0.2791
  831MOL0     C12062  -0.781   7.803  10.508  1.1319  0.5234  0.1871
  831MOL0     C12063  -0.799   7.951  10.478 -0.7418  0.3909 -0.2811
  831MOL0     C12064  -0.947   7.999  10.483 -0.1208 -0.1400 -0.2774
  831MOL0     C12065  -0.970   8.149  10.487 -0.2114  0.4196  0.4917
  831MOL0     C12066  -1.121   8.178  10.509 -0.1629  0.5968 -0.1457
  831MOL0     N12067  -1.192   8.136  10.387 -0.1944 -0.2565  0.2810
  831MOL0     C12068  -1.324   8.083  10.393 -0.1411 -0.7684  0.5981
  831MOL0     C12069  -1.361   8.066  10.265  0.2081  0.6364 -0.2723
  831MOL0     C12070  -1.481   7.991  10.216 -0.7569  0.1964 -0.2637
  831MOL0     C12071  -1.573   7.938  10.330 -0.1879 -0.5270 -0.8899
  831MOL0     C12072  -1.646   7.815  10.277 -0.1514 -0.1491  0.8867
  831MOL0     C12073  -1.749   7.766  10.360  0.2544  0.5536  1.4682
  831MOL0     O12074  -1.847   7.693  10.278  0.1911  0.4552 -0.0884
  831MOL0     C12075  -1.978   7.708  10.322  0.3850  0.8679  0.4328
  831MOL0     C12076  -2.028   7.752  10.450 -0.2759  1.2035  0.0540
  831MOL0     C12077  -2.162   7.749  10.482 -0.7284 -0.3376 -0.5289
  831MOL0     C12078  -2.194   7.754  10.634  0.0514  0.2511 -0.1445
  831MOL0     C12079  -2.255   7.729  10.382  0.0305  0.5068  0.2254
  831MOL0     C12080  -2.407   7.745  10.397 -1.1472 -0.1698 -0.5666
  831MOL0     O12081  -2.484   7.695  10.299  0.3347 -0.4938 -0.9095
  831MOL0     C12082  -2.619   7.707  10.330  0.6883 -0.2041  0.0656
  831MOL0     C12083  -2.704   7.737  10.218  1.3176  0.7130 -0.2145
  831MOL0     C12084  -2.839   7.734  10.233  0.3005 -1.2474 -0.0844
  831MOL0     C12085  -2.897   7.696  10.356 -0.1897 -0.2113 -0.2628
  831MOL0     O12086  -3.033   7.698  10.381  0.7924  0.7279 -0.4068
  831MOL0     C12087  -3.123   7.767  10.300  0.0028  0.4520  0.1015
  831MOL0     C12088  -3.267   7.721  10.335 -0.1311 -0.0880  0.0648
  831MOL0     C12089  -3.363   7.808  10.258  0.0556  0.4301 -0.0108
  831MOL0     C12090  -3.499   7.771  10.317  0.2169 -0.2157  0.0055
  831MOL0     C12091  -3.605   7.873  10.280 -0.0112 -0.2370  0.1011
  831MOL0     C12092  -3.742   7.857  10.358 -0.6440 -0.3726  0.1935
  831MOL0     C12093  -3.849   7.961  10.317  1.2408 -0.5147  0.1338
  831MOL0     C12094  -3.987   7.921  10.371 -0.6608 -0.0589 -0.0874
  831MOL0    Cl12095  -4.110   8.031  10.311  0.6502  0.3544  0.1250
  831MOL0     C12096  -2.810   7.649  10.454  0.5167  0.6646  0.0570
  831MOL0     C12097  -2.674   7.654  10.444 -1.2082  0.7892  1.2937
  831MOL0     O12098  -2.443   7.823  10.491 -0.3563 -0.3086  0.2879
  831MOL0     C12099  -2.207   7.670  10.263 -0.1798  0.2668 -0.2396
  831MOL0     C12100  -2.072   7.661  10.234 -0.3552  0.5169  0.9135
  831MOL0     N12101  -1.247   8.090  10.186 -0.3737  0.5158 -0.3764
  831MOL0     N12102  -1.152   8.143  10.261 -0.3396 -0.1229 -0.1161
  831MOL0     C12103  -0.183   7.779  10.580  0.1181 -0.4855  0.6585
  831MOL0     C12104  -0.048   7.782  10.582 -0.0613 -0.9241  0.2276
  831MOL0     C12105   0.365   7.763  10.500  0.5375 -0.9449 -0.5206
  831MOL0     C12106   0.424   7.882  10.460  0.0676 -0.3940 -0.3597
  831MOL0     C12107   0.558   7.912  10.497  0.2575  0.3506 -0.1435
  831MOL0     C12108   0.641   7.817  10.558  0.4013 -0.5729 -1.2192
  831MOL0     O12109   0.769   7.843  10.599 -0.0711  0.1073  0.4475
  831MOL0     C12110   0.846   7.928  10.522 -0.8933  0.1492  1.0890
  831MOL0     C12111   0.989   7.924  10.569 -0.1030 -0.9855 -0.9187
  831MOL0     C12112   1.050   7.785  10.597 -0.2608  0.1112 -1.0407
  831MOL0     C12113   1.195   7.795  10.631  0.1995 -0.1684 -0.8703
  831MOL0     C12114   1.264   7.673  10.655  0.4578 -0.2092 -0.6443
  831MOL0     C12115   1.331   7.574  10.660 -0.7030  0.5091  0.2576
  831MOL0     C12116   0.584   7.698  10.595  0.7998  0.3083 -0.9230
  831MOL0     C12117   0.450   7.676  10.571  0.9718  0.8442  0.2082
  831MOL0     H12118   0.029   7.462  10.548  0.1332 -0.5001 -0.7727
  831MOL0     H12119  -0.243   7.451  10.556  0.1634  0.6526 -1.8197
  831MOL0     H12120  -0.435   7.569  10.393  2.4595 -1.1567  1.1745
  831MOL0     H12121  -0.470   7.473  10.540 -2.6459  0.8513  1.2474
  831MOL0     H12122  -0.677   7.553  10.456 -0.7565  0.9340  0.0657
  831MOL0     H12123  -0.640   7.598  10.622  0.1969  1.6970  0.3182
  831MOL0     H12124  -0.571   7.830  10.529  0.3884 -0.0399  0.4371
  831MOL0     H12125  -0.621   7.761  10.368 -0.5059 -0.8896  0.1293
  831MOL0     H12126  -0.852   7.740  10.453  0.9939 -0.9990  1.9949
  831MOL0     H12127  -0.812   7.791  10.613 -0.2142  0.7881 -0.1610
  831MOL0     H12128  -0.740   8.002  10.555  3.0651 -2.8622 -0.6963
  831MOL0     H12129  -0.751   7.964  10.381  0.7822  0.5323  0.4535
  831MOL0     H12130  -0.991   7.962  10.390  0.1631  0.9890 -0.8706
  831MOL0     H12131  -1.002   7.965  10.572 -0.6519  4.1813  1.2484
  831MOL0     H12132  -0.909   8.186  10.570  1.8477 -0.9447 -0.3369
  831MOL0     H12133  -0.933   8.192  10.394  0.3226  1.5712  1.2198
  831MOL0     H12134  -1.139   8.286  10.516  1.7469  1.3539 -4.0874
  831MOL0     H12135  -1.169   8.127  10.593 -0.5908 -0.2042 -0.8525
  831MOL0     H12136  -1.377   8.053  10.482 -0.1084  0.6178  1.1079
  831MOL0     H12137  -1.542   8.051  10.147  0.8602  1.8859 -0.3003
  831MOL0     H12138  -1.453   7.907  10.151  2.6097  1.8395 -1.1295
  831MOL0     H12139  -1.648   8.008  10.369  0.0465 -0.1710 -1.0773
  831MOL0     H12140  -1.518   7.897  10.415 -0.2115 -0.5305 -0.8762
  831MOL0     H12141  -1.568   7.739  10.261  1.7859  2.1321 -1.3014
  831MOL0     H12142  -1.689   7.841  10.181 -0.0008 -0.8177  0.6292
  831MOL0     H12143  -1.807   7.854  10.388 -3.1345  0.4691 -3.7439
  831MOL0     H12144  -1.709   7.710  10.444  3.1552 -2.0262 -1.3742
  831MOL0     H12145  -1.956   7.777  10.527  0.6768  1.4544 -0.9017
  831MOL0     H12146  -2.283   7.697  10.663 -1.1793  2.6832  1.1159
  831MOL0     H12147  -2.110   7.718  10.694 -0.8012  0.7642  1.4118
  831MOL0     H12148  -2.230   7.852  10.665 -2.8604 -1.3876  2.1948
  831MOL0     H12149  -2.662   7.767  10.123  1.4014 -2.7371 -1.4259
  831MOL0     H12150  -2.899   7.758  10.146 -0.3325 -2.4263 -0.0000
  831MOL0     H12151  -3.107   7.874  10.318  1.1077 -0.0152  2.2232
  831MOL0     H12152  -3.108   7.745  10.194  3.1625  1.1567  0.2953
  831MOL0     H12153  -3.284   7.617  10.307  0.7792 -0.2617  0.1171
  831MOL0     H12154  -3.273   7.729  10.444 -1.3890  0.7293 -0.0553
  831MOL0     H12155  -3.362   7.790  10.150  2.5815 -2.3582  0.3670
  831MOL0     H12156  -3.341   7.912  10.286  0.9467  0.5112 -0.9513
  831MOL0     H12157  -3.528   7.671  10.282 -0.9549  1.0161 -2.7919
  831MOL0     H12158  -3.503   7.757  10.426 -3.9008 -0.4894 -0.0155
  831MOL0     H12159  -3.617   7.863  10.172  1.3035 -0.6006 -0.0311
  831MOL0     H12160  -3.553   7.967  10.300  1.5904 -1.3794  1.5591
  831MOL0     H12161  -3.775   7.755  10.336 -1.4030  0.4178 -2.7818
  831MOL0     H12162  -3.725   7.863  10.466 -0.9048  0.4484  0.1949
  831MOL0     H12163  -3.853   7.967  10.208 -0.7164 -0.8840  0.1543
  831MOL0     H12164  -3.825   8.066  10.336  0.6950  0.0494 -1.9992
  831MOL0     H12165  -3.978   7.946  10.477 -0.1295  1.8585 -0.5353
  831MOL0     H12166  -4.021   7.820  10.348 -0.1447 -0.1222 -0.5841
  831MOL0     H12167  -2.842   7.603  10.547  2.0884 -2.1910 -0.7281
  831MOL0     H12168  -2.614   7.607  10.521  0.8165  1.5574  0.2654
  831MOL0     H12169  -2.275   7.638  10.185 -0.7467  0.8777 -0.0056
  831MOL0     H12170  -2.028   7.617  10.145 -0.7221  0.1306  0.9200
  831MOL0     H12171  -0.250   7.865  10.578  1.1713  0.4379  2.6215
  831MOL0     H12172   0.003   7.878  10.577  1.8612 -1.9726 -1.4962
  831MOL0     H12173   0.374   7.957  10.399 -2.1175 -2.6149 -1.4673
  831MOL0     H12174   0.587   8.012  10.466 -0.4518  0.7606  0.4972
  831MOL0     H12175   0.843   7.906  10.415 -1.4297 -1.4954  1.4108
  831MOL0     H12176   0.813   8.032  10.533 -1.2193  0.1825 -0.1123
  831MOL0     H12177   0.987   7.990  10.656 -3.0944  3.3673 -3.8754
  831MOL0     H12178   1.050   7.978  10.497 -0.5056  1.9699  0.8204
  831MOL0     H12179   1.035   7.713  10.515 -0.7522  0.7683 -1.5352
  831MOL0     H12180   1.001   7.748  10.687  0.8772  1.9115  0.3711
  831MOL0     H12181   1.215   7.860  10.717 -0.3010  1.2488 -1.7917
  831MOL0     H12182   1.241   7.834  10.539  0.9712 -0.6947 -0.7221
  831MOL0     H12183   1.380   7.480  10.645 -0.5061  1.0589 -3.4058
  831MOL0     H12184   0.646   7.642  10.663  1.9467  0.3306 -1.9226
  831MOL0     H12185   0.401   7.585  10.602  3.0756 -0.5107 -0.2148
  832MOL0     O12186   1.192   7.882   4.949 -0.1967  0.1517 -0.1634
  832MOL0     C12187   1.255   7.820   5.030 -0.7599  0.6559 -0.0406
  832MOL0     O12188   1.208   7.756   5.145  0.0494 -0.4796  0.4757
  832MOL0     C12189   1.076   7.748   5.187  0.4810 -0.2744 -0.7018
  832MOL0     C12190   1.063   7.756   5.327 -0.3273  0.1623 -0.4137
  832MOL0     C12191   0.929   7.761   5.377 -0.5256  0.4317 -0.2977
  832MOL0     C12192   0.814   7.749   5.299  0.4159 -0.3891  0.2433
  832MOL0     O12193   0.693   7.747   5.372  0.5124 -0.2094  0.0713
  832MOL0     C12194   0.561   7.735   5.311  0.4335 -0.1358 -0.9755
  832MOL0     C12195   0.453   7.721   5.421 -0.2458  0.0098  0.1270
  832MOL0     C12196   0.312   7.710   5.371  0.4159 -0.9429 -0.3464
  832MOL0     C12197   0.218   7.665   5.494 -0.5065  0.3780  0.0704
  832MOL0     C12198   0.072   7.644   5.441 -0.5769 -0.3563 -0.3707
  832MOL0     C12199  -0.013   7.616   5.562  0.3357  0.0736  0.3058
  832MOL0     C12200  -0.144   7.537   5.537  0.8178 -0.1480 -0.1312
  832MOL0     C12201  -0.261   7.636   5.510  1.2501 -0.6113  0.2126
  832MOL0     N12202  -0.333   7.589   5.389 -0.5118 -0.2351 -1.4143
  832MOL0     C12203  -0.395   7.466   5.378 -0.6520 -0.6834 -0.8968
  832MOL0     C12204  -0.460   7.472   5.264 -0.4593  0.8017  0.4903
  832MOL0     C12205  -0.538   7.363   5.197 -0.8046  0.9771  0.2759
  832MOL0     C12206  -0.655   7.325   5.283  0.1888 -0.5066 -0.1745
  832MOL0     C12207  -0.712   7.202   5.227  0.6778  0.0715 -0.5789
  832MOL0     C12208  -0.825   7.157   5.315 -0.6869  0.5413 -0.7851
  832MOL0     O12209  -0.940   7.241   5.302 -0.1975  0.6267 -0.0126
  832MOL0     C12210  -1.057   7.209   5.366  0.5350  0.2565 -0.4906
  832MOL0     C12211  -1.182   7.230   5.290  0.0628  0.9556  0.3034
  832MOL0     C12212  -1.301   7.187   5.346  0.3183  0.6336  0.1472
  832MOL0     C12213  -1.424   7.226   5.266  0.2886  0.8094  0.1319
  832MOL0     C12214  -1.312   7.133   5.479 -0.6806 -0.6616 -0.1763
  832MOL0     C12215  -1.441   7.103   5.546 -0.4480 -0.1227  0.1271
  832MOL0     O12216  -1.556   7.169   5.511  0.1174 -0.1709  0.3099
  832MOL0     C12217  -1.673   7.157   5.585 -0.1541  0.1487 -0.8857
  832MOL0     C12218  -1.796   7.177   5.528 -0.4197  0.1147 -0.0835
  832MOL0     C12219  -1.918   7.175   5.604 -0.1607 -0.9483  0.2498
  832MOL0     C12220  -1.927   7.143   5.739  0.0404 -0.4095  0.7433
  832MOL0     O12221  -2.049   7.147   5.806 -0.1860 -0.5367  0.3671
  832MOL0     C12222  -2.052   7.111   5.941 -0.0651  0.2266 -0.0882
  832MOL0     C12223  -2.185   7.154   5.996 -0.2333 -0.2815  0.5300
  832MOL0     C12224  -2.295   7.062   5.949 -0.2675  0.2931 -0.5610
  832MOL0     C12225  -2.422   7.079   6.022  0.8000 -0.1915 -0.6806
  832MOL0     C12226  -2.531   6.965   5.977 -0.2881 -0.1176 -0.6945
  832MOL0     C12227  -2.656   6.990   6.062  0.1962  0.1254 -0.3001
  832MOL0     C12228  -2.660   6.921   6.196 -0.1258 -0.5157 -0.7926
  832MOL0     C12229  -2.796   6.919   6.267  1.1436 -0.1150 -0.5592
  832MOL0    Cl12230  -2.867   7.079   6.284  0.4259  0.0761  0.0218
  832MOL0     C12231  -1.811   7.095   5.794 -0.3746  0.5204 -0.4347
  832MOL0     C12232  -1.686   7.105   5.723 -0.2362  0.0904 -0.1188
  832MOL0     O12233  -1.432   7.017   5.635 -0.8735  0.1078 -0.2237
  832MOL0     C12234  -1.187   7.115   5.555  0.1435 -0.2184  0.3356
  832MOL0     C12235  -1.062   7.142   5.490  0.7146 -0.4572 -0.2759
  832MOL0     N12236  -0.442   7.597   5.205 -0.0120 -0.0843  0.3051
  832MOL0     N12237  -0.360   7.667   5.287  0.9868  0.5023  0.6086
  832MOL0     C12238   0.827   7.748   5.160  0.9259 -0.0399 -0.8333
  832MOL0     C12239   0.960   7.750   5.106 -0.0313 -0.4567 -0.8096
  832MOL0     C12240   1.403   7.802   5.008  0.2757 -0.2737  1.0490
  832MOL0     C12241   1.460   7.850   4.888  0.0220 -0.8480 -0.4563
  832MOL0     C12242   1.591   7.822   4.847  0.1680 -0.3302  0.1225
  832MOL0     C12243   1.677   7.759   4.938 -0.5558 -0.6484 -0.7751
  832MOL0     O12244   1.811   7.725   4.928 -0.2197  0.4367 -0.3153
  832MOL0     C12245   1.870   7.707   4.800  0.2715 -0.3960  0.6651
  832MOL0     C12246   2.019   7.697   4.816 -0.0992  0.2124  0.8472
  832MOL0     C12247   2.087   7.649   4.684  0.2557 -0.0960  0.5761
  832MOL0     C12248   2.211   7.557   4.705 -0.3013 -1.0295  0.8486
  832MOL0     C12249   2.189   7.411   4.709 -0.3969 -0.5611  0.4527
  832MOL0     C12250   2.186   7.294   4.688  1.2746  0.3718 -0.1195
  832MOL0     C12251   1.629   7.717   5.060 -0.1824  0.4673  0.3857
  832MOL0     C12252   1.495   7.736   5.099  0.3064 -0.0697  0.3753
  832MOL0     H12253   1.147   7.760   5.395  0.3704 -2.2630 -1.0271
  832MOL0     H12254   0.924   7.777   5.485 -0.6505  0.8847 -0.3681
  832MOL0     H12255   0.541   7.832   5.264 -3.9507  0.8203  2.2325
  832MOL0     H12256   0.559   7.650   5.242  1.2834 -0.7058 -0.3166
  832MOL0     H12257   0.470   7.633   5.483  0.5403  0.8001  1.0686
  832MOL0     H12258   0.467   7.808   5.487  0.3256 -0.0404  0.0779
  832MOL0     H12259   0.276   7.801   5.321  2.3912  0.1935  0.1900
  832MOL0     H12260   0.301   7.632   5.295 -0.4538 -1.6461  0.4712
  832MOL0     H12261   0.258   7.573   5.537 -0.1059 -0.4742 -2.0022
  832MOL0     H12262   0.222   7.736   5.577 -0.8777 -2.5425  2.7803
  832MOL0     H12263   0.033   7.729   5.384 -0.1213 -2.0957 -3.5636
  832MOL0     H12264   0.069   7.560   5.371 -0.8836  0.0972 -0.9110
  832MOL0     H12265   0.039   7.540   5.621  2.8513  1.7021  0.3529
  832MOL0     H12266  -0.016   7.712   5.616 -0.1548  0.1303  0.1808
  832MOL0     H12267  -0.128   7.459   5.462  3.5382 -1.0649  1.2687
  832MOL0     H12268  -0.166   7.479   5.627  1.5039 -0.3386 -0.0829
  832MOL0     H12269  -0.241   7.743   5.503  1.2348 -0.6036  0.2757
  832MOL0     H12270  -0.343   7.623   5.581  1.4904 -0.4009  0.5298
  832MOL0     H12271  -0.401   7.378   5.441  0.2250 -0.6135 -0.6989
  832MOL0     H12272  -0.570   7.405   5.101 -1.6856 -0.7824 -0.2499
  832MOL0     H12273  -0.475   7.278   5.171 -0.3998  0.8078  1.7241
  832MOL0     H12274  -0.733   7.401   5.275 -0.6454 -1.4669 -1.6685
  832MOL0     H12275  -0.625   7.299   5.385  0.6743 -1.6621 -0.5947
  832MOL0     H12276  -0.638   7.120   5.225  4.4188  3.0333  1.7895
  832MOL0     H12277  -0.754   7.228   5.130 -1.1453 -0.2747  0.0928
  832MOL0     H12278  -0.790   7.139   5.417 -1.8903  1.1359 -0.2479
  832MOL0     H12279  -0.845   7.060   5.269 -1.5081  1.3459 -2.2091
  832MOL0     H12280  -1.164   7.283   5.197  2.1490  1.4239  0.9070
  832MOL0     H12281  -1.495   7.144   5.253  1.3301  0.1215 -1.4477
  832MOL0     H12282  -1.470   7.306   5.325 -1.6926  0.4274 -0.8101
  832MOL0     H12283  -1.412   7.251   5.161 -2.9251 -0.0143 -0.5380
  832MOL0     H12284  -1.813   7.207   5.425 -0.9789 -0.8077 -0.2651
  832MOL0     H12285  -2.007   7.210   5.553  0.9502  1.7472 -0.0205
  832MOL0     H12286  -2.022   7.006   5.955  1.2448 -0.0451 -3.6630
  832MOL0     H12287  -1.981   7.179   5.989  1.0697 -1.3626  0.5993
  832MOL0     H12288  -2.176   7.157   6.105  0.4897 -1.7426  0.5400
  832MOL0     H12289  -2.218   7.256   5.974 -2.0653 -0.5396  1.8697
  832MOL0     H12290  -2.261   6.959   5.955 -0.0544  0.4458  2.5308
  832MOL0     H12291  -2.313   7.083   5.843 -0.0805  0.3823 -0.5747
  832MOL0     H12292  -2.402   7.074   6.130  0.3626  2.0044 -0.4408
  832MOL0     H12293  -2.466   7.179   6.014 -0.7878 -0.5614  1.9872
  832MOL0     H12294  -2.491   6.865   5.994 -0.5148 -0.2057 -0.6654
  832MOL0     H12295  -2.551   6.968   5.869  1.7295  1.6161 -1.0789
  832MOL0     H12296  -2.654   7.099   6.075 -1.3551 -0.0240  1.6607
  832MOL0     H12297  -2.746   6.966   6.005  0.4076 -0.1327 -0.5304
  832MOL0     H12298  -2.591   6.983   6.252 -0.6646  1.4213 -2.1688
  832MOL0     H12299  -2.624   6.818   6.186 -1.8652 -1.0407 -2.3810
  832MOL0     H12300  -2.775   6.885   6.369  1.7467  1.0232 -0.2895
  832MOL0     H12301  -2.867   6.849   6.224  1.1538 -0.0857 -0.6241
  832MOL0     H12302  -1.798   7.054   5.894  1.7712 -0.0258 -0.9030
  832MOL0     H12303  -1.595   7.083   5.779  1.7857  3.1220 -1.9055
  832MOL0     H12304  -1.180   7.077   5.656 -0.0444 -1.9158 -0.2625
  832MOL0     H12305  -0.971   7.112   5.541  1.2026 -0.8686 -1.3291
  832MOL0     H12306   0.741   7.739   5.094 -0.5671  0.1164  1.0038
  832MOL0     H12307   0.971   7.758   4.999  1.8243  1.9285 -0.5178
  832MOL0     H12308   1.402   7.900   4.810  3.3139 -0.4233 -2.8200
  832MOL0     H12309   1.607   7.840   4.742  2.3992  0.7003  0.6038
  832MOL0     H12310   1.839   7.611   4.757 -2.5568  0.3735  0.8025
  832MOL0     H12311   1.835   7.782   4.728  0.7356 -1.7370 -1.0354
  832MOL0     H12312   2.038   7.624   4.896  0.2245 -0.0718  0.5183
  832MOL0     H12313   2.056   7.796   4.845 -0.8338  0.3676  1.2735
  832MOL0     H12314   2.099   7.740   4.625  1.7636 -0.2541  0.5968
  832MOL0     H12315   2.019   7.587   4.625  2.2931 -1.4693 -0.4371
  832MOL0     H12316   2.247   7.595   4.800 -0.9323  0.0012  0.6898
  832MOL0     H12317   2.279   7.568   4.620 -0.8415 -0.5602  0.4727
  832MOL0     H12318   2.182   7.188   4.672 -0.6269  0.2623  0.8330
  832MOL0     H12319   1.685   7.649   5.123 -3.5486 -1.4318  1.5688
  832MOL0     H12320   1.465   7.691   5.193 -0.2046  0.2825  0.3876
  833MOL0     O12321   8.795   6.843   0.507 -0.1425 -0.3149  0.6676
  833MOL0     C12322   8.847   6.763   0.584 -0.4923 -0.6379  1.1828
  833MOL0     O12323   8.779   6.674   0.660  0.5172  0.3125 -0.2384
  833MOL0     C12324   8.644   6.660   0.628  0.4577 -0.0072  0.1034
  833MOL0     C12325   8.537   6.669   0.722 -0.1805 -0.6209  0.2655
  833MOL0     C12326   8.406   6.640   0.698  0.9036  0.5154 -0.5808
  833MOL0     C12327   8.375   6.568   0.578 -0.8461 -0.1127 -0.2011
  833MOL0     O12328   8.248   6.540   0.555 -0.1844 -0.1354 -0.0469
  833MOL0     C12329   8.196   6.616   0.437  0.7260 -0.5507  0.4074
  833MOL0     C12330   8.110   6.736   0.477  0.0575 -0.7803  0.7616
  833MOL0     C12331   8.009   6.689   0.582 -0.0173  0.2499  0.8707
  833MOL0     C12332   7.894   6.786   0.586  0.0803  0.9695 -0.3653
  833MOL0     C12333   7.763   6.721   0.626  0.4133 -0.5417  0.4865
  833MOL0     C12334   7.653   6.830   0.630 -0.4472  0.0246 -1.2983
  833MOL0     C12335   7.519   6.755   0.673 -0.0342 -0.1518  0.1426
  833MOL0     C12336   7.408   6.852   0.633  0.7073 -0.2146 -0.7634
  833MOL0     N12337   7.290   6.853   0.716 -0.0625 -0.9248  0.5654
  833MOL0     C12338   7.220   6.741   0.743 -0.2194  0.5649 -0.4569
  833MOL0     C12339   7.110   6.781   0.810 -0.7215 -0.1698 -0.4517
  833MOL0     C12340   7.006   6.694   0.872  0.5762 -0.0301  0.1204
  833MOL0     C12341   6.894   6.779   0.942 -0.0176 -0.4982 -0.0894
  833MOL0     C12342   6.777   6.826   0.849 -0.1158  0.5535 -0.2281
  833MOL0     C12343   6.683   6.914   0.930 -0.1354  0.1690  0.2084
  833MOL0     O12344   6.558   6.941   0.860 -0.1456  0.3418 -0.3933
  833MOL0     C12345   6.453   6.850   0.894 -0.1684 -0.1275  0.3416
  833MOL0     C12346   6.336   6.911   0.903  0.3714  0.2133  0.0484
  833MOL0     C12347   6.212   6.844   0.936 -0.3521 -0.3418 -0.2548
  833MOL0     C12348   6.092   6.928   0.947  1.0610 -0.1378  0.8075
  833MOL0     C12349   6.213   6.709   0.965  0.2921  0.0976  0.0766
  833MOL0     C12350   6.099   6.626   1.001  0.0773  0.0022  1.0455
  833MOL0     O12351   5.972   6.640   0.931 -0.8902 -0.3345  0.0717
  833MOL0     C12352   5.859   6.588   0.982 -0.3357  0.2321 -0.5148
  833MOL0     C12353   5.774   6.532   0.893  0.0593 -0.2822  0.2550
  833MOL0     C12354   5.648   6.480   0.920 -0.2178  0.0714  0.2224
  833MOL0     C12355   5.592   6.489   1.054  0.7162  0.1105  0.3052
  833MOL0     O12356   5.472   6.432   1.076 -0.4317 -0.0436  0.2493
  833MOL0     C12357   5.426   6.395   1.210 -0.4913  0.5320 -0.1224
  833MOL0     C12358   5.269   6.389   1.223  0.1061 -0.5820 -0.1650
  833MOL0     C12359   5.214   6.298   1.110  0.3031  0.2155 -0.0061
  833MOL0     C12360   5.066   6.252   1.110  0.0024  0.6621  1.0673
  833MOL0     C12361   5.045   6.151   0.993  0.3404 -0.2504 -0.8305
  833MOL0     C12362   4.894   6.115   0.988 -0.3812  0.7392 -0.5770
  833MOL0     C12363   4.875   5.987   0.909  0.6440 -1.1615  0.6068
  833MOL0     C12364   4.734   5.924   0.899  0.1874  0.3366 -0.1502
  833MOL0    Cl12365   4.648   5.906   1.051 -0.0789 -0.2397 -0.6480
  833MOL0     C12366   5.677   6.559   1.138  0.1879  0.3564 -0.1408
  833MOL0     C12367   5.810   6.605   1.108  0.0399  0.7329  0.3960
  833MOL0     O12368   6.118   6.536   1.077  0.3536 -0.0158  0.4962
  833MOL0     C12369   6.340   6.651   0.959 -0.2809 -0.1277 -0.0686
  833MOL0     C12370   6.459   6.716   0.925  0.1718  0.8344  0.4362
  833MOL0     N12371   7.112   6.921   0.816  0.9956  0.3180 -0.2008
  833MOL0     N12372   7.222   6.962   0.763  0.0759 -0.3954 -0.7417
  833MOL0     C12373   8.483   6.553   0.488  0.3414 -0.2391  0.4907
  833MOL0     C12374   8.612   6.603   0.505 -0.2734  0.6864  0.3405
  833MOL0     C12375   8.994   6.759   0.588  0.5164  1.3717  0.5330
  833MOL0     C12376   9.068   6.816   0.483 -0.8093 -0.1989 -0.3751
  833MOL0     C12377   9.207   6.821   0.490  0.7577 -0.0738 -0.0208
  833MOL0     C12378   9.272   6.758   0.597  0.2340 -0.1275 -0.9912
  833MOL0     O12379   9.404   6.762   0.594 -0.4571  0.6763  0.7580
  833MOL0     C12380   9.491   6.675   0.662 -0.2606  0.2100 -0.5028
  833MOL0     C12381   9.520   6.721   0.800  0.4030 -0.6815  0.1737
  833MOL0     C12382   9.637   6.648   0.868 -0.4607 -0.2117 -0.3090
  833MOL0     C12383   9.775   6.711   0.819  0.0583  0.3765 -0.3627
  833MOL0     C12384   9.882   6.664   0.901  0.3400  0.2413 -0.1492
  833MOL0     C12385   9.981   6.633   0.957 -0.3400  0.0796  0.2928
  833MOL0     C12386   9.202   6.689   0.696 -0.0666  0.4207 -0.3171
  833MOL0     C12387   9.061   6.687   0.687 -0.0606  0.2723 -0.4443
  833MOL0     H12388   8.563   6.695   0.824 -0.2333 -1.0724  0.3937
  833MOL0     H12389   8.338   6.652   0.781  0.2128 -2.9572 -0.5152
  833MOL0     H12390   8.273   6.645   0.365  0.4762 -0.8755  0.0050
  833MOL0     H12391   8.130   6.551   0.379 -0.0391 -1.1256  1.8789
  833MOL0     H12392   8.176   6.806   0.528  3.1714 -3.3778  0.6603
  833MOL0     H12393   8.064   6.769   0.383 -1.1991  1.0854  1.9808
  833MOL0     H12394   7.982   6.585   0.560  1.5659 -0.6776  2.9408
  833MOL0     H12395   8.061   6.678   0.678  0.0924 -0.3030  0.7552
  833MOL0     H12396   7.919   6.858   0.664  2.4687  0.5389 -0.6399
  833MOL0     H12397   7.881   6.844   0.494  1.2660  0.6787 -0.7357
  833MOL0     H12398   7.741   6.644   0.551 -2.7807  0.5684  0.1381
  833MOL0     H12399   7.758   6.671   0.723 -3.5478 -2.7412 -0.6434
  833MOL0     H12400   7.679   6.899   0.710  0.3223 -1.4397 -0.2224
  833MOL0     H12401   7.645   6.874   0.530  0.0008  2.4773 -0.3273
  833MOL0     H12402   7.502   6.663   0.617  2.2339 -0.2495 -0.4843
  833MOL0     H12403   7.517   6.738   0.781  1.0550  0.2023  0.2351
  833MOL0     H12404   7.369   6.838   0.532  0.8623  1.1996 -1.0409
  833MOL0     H12405   7.441   6.956   0.640 -2.9843  0.9972  1.8041
  833MOL0     H12406   7.246   6.646   0.698 -2.7712 -0.7871  0.6961
  833MOL0     H12407   6.953   6.639   0.794  0.8168 -2.0694  1.3123
  833MOL0     H12408   7.049   6.627   0.948  3.3939  0.7586 -0.6645
  833MOL0     H12409   6.937   6.875   0.974  0.1176 -0.2617 -0.9705
  833MOL0     H12410   6.856   6.734   1.034  0.0147  0.0150  0.1841
  833MOL0     H12411   6.724   6.744   0.800 -1.2927  1.1142  0.0735
  833MOL0     H12412   6.819   6.886   0.769  2.3820 -1.3532 -0.4739
  833MOL0     H12413   6.728   7.011   0.949  0.4200 -0.0142 -0.1581
  833MOL0     H12414   6.661   6.871   1.029  3.0019  0.6409  1.2132
  833MOL0     H12415   6.330   7.017   0.879 -1.6604 -0.2545 -1.9227
  833MOL0     H12416   6.123   7.029   0.976  0.6875 -0.0260  0.8278
  833MOL0     H12417   6.043   6.931   0.850 -0.2547  0.6585  1.4691
  833MOL0     H12418   6.021   6.897   1.024 -2.4832  2.3840 -1.1402
  833MOL0     H12419   5.810   6.505   0.794 -1.0282  0.7907 -0.4726
  833MOL0     H12420   5.590   6.424   0.848  0.2155  0.3265 -0.3275
  833MOL0     H12421   5.478   6.305   1.242  1.1717  2.0674  1.7460
  833MOL0     H12422   5.465   6.467   1.282 -0.6666  0.3111  0.1967
  833MOL0     H12423   5.234   6.365   1.324 -2.8010  1.8832 -0.4379
  833MOL0     H12424   5.247   6.496   1.211  0.9843 -0.4631 -0.7532
  833MOL0     H12425   5.271   6.205   1.114  0.9911  0.5254  5.9522
  833MOL0     H12426   5.227   6.340   1.010 -0.0770 -0.0720 -0.1798
  833MOL0     H12427   5.047   6.204   1.207  1.5376 -1.1666  0.5391
  833MOL0     H12428   5.001   6.339   1.099  1.3627  1.4907 -1.0050
  833MOL0     H12429   5.102   6.059   1.005  0.0906 -0.4909 -1.4622
  833MOL0     H12430   5.067   6.208   0.902 -0.8230  2.3152  0.3836
  833MOL0     H12431   4.869   6.088   1.091 -0.9044  0.7425 -0.6982
  833MOL0     H12432   4.841   6.200   0.944  2.4744  1.5702 -2.6561
  833MOL0     H12433   4.941   5.908   0.945  0.6236 -1.8188 -0.7325
  833MOL0     H12434   4.901   6.019   0.807  0.9677  1.8328  1.5220
  833MOL0     H12435   4.735   5.832   0.841 -0.2384 -0.5484  1.2034
  833MOL0     H12436   4.674   5.997   0.843  0.2160 -0.0661 -0.7084
  833MOL0     H12437   5.639   6.583   1.237 -0.4697  0.3056 -0.3714
  833MOL0     H12438   5.857   6.662   1.188 -0.5557 -0.3776  1.5836
  833MOL0     H12439   6.341   6.548   0.994 -2.8926  0.1272  0.9701
  833MOL0     H12440   6.545   6.654   0.946  0.8893  1.6072 -0.1653
  833MOL0     H12441   8.470   6.503   0.392 -3.0637  3.9359 -1.5977
  833MOL0     H12442   8.691   6.590   0.432  0.0906 -1.4302  1.0419
  833MOL0     H12443   9.023   6.862   0.395  0.7095 -0.1820 -1.1834
  833MOL0     H12444   9.261   6.871   0.410 -2.4837 -1.2479 -3.2453
  833MOL0     H12445   9.457   6.571   0.658  0.4129 -0.0505  0.3479
  833MOL0     H12446   9.585   6.671   0.606  0.1173 -0.3792  0.1617
  833MOL0     H12447   9.434   6.727   0.867 -0.2936 -0.8947 -0.6812
  833MOL0     H12448   9.551   6.826   0.787  1.2070 -0.8282  0.8366
  833MOL0     H12449   9.632   6.541   0.845  1.6715  0.0500 -2.3200
  833MOL0     H12450   9.622   6.658   0.976 -1.8935 -1.9579 -0.3070
  833MOL0     H12451   9.779   6.819   0.830  1.6511  0.2046  1.2752
  833MOL0     H12452   9.796   6.678   0.717 -2.4802  1.1169 -1.2076
  833MOL0     H12453  10.069   6.600   1.008  0.9659 -1.6779 -2.8322
  833MOL0     H12454   9.249   6.642   0.782  0.3755 -1.3826 -1.4942
  833MOL0     H12455   9.008   6.650   0.774  0.3239  1.3023  0.2539
  834MOL0     O12456   3.502   4.304   6.380  0.9828  0.1697 -0.3119
  834MOL0     C12457   3.552   4.306   6.495 -0.6092  0.0468 -0.1082
  834MOL0     O12458   3.494   4.269   6.612  0.0131 -0.2007 -0.9959
  834MOL0     C12459   3.358   4.269   6.621 -0.5969  0.3884  0.5561
  834MOL0     C12460   3.273   4.378   6.588  0.6136 -0.5418 -1.5821
  834MOL0     C12461   3.137   4.375   6.585 -0.2379 -1.0629  0.1190
  834MOL0     C12462   3.070   4.254   6.611  0.5272  0.1806 -1.0978
  834MOL0     O12463   2.932   4.252   6.608  0.1997 -0.4302 -0.2753
  834MOL0     C12464   2.873   4.230   6.475  0.3840  0.5351  0.9601
  834MOL0     C12465   2.863   4.082   6.433  0.0311  0.1378 -0.5603
  834MOL0     C12466   2.779   4.064   6.304 -0.8857  0.6322 -0.1443
  834MOL0     C12467   2.634   4.114   6.308 -0.4574  0.0323  0.4720
  834MOL0     C12468   2.561   4.085   6.180  0.0019  0.2202 -0.8771
  834MOL0     C12469   2.502   3.937   6.172  0.3074 -0.8303  0.2004
  834MOL0     C12470   2.423   3.909   6.294 -0.7508  0.0545  0.8642
  834MOL0     C12471   2.318   4.015   6.319 -0.4295 -0.7198  0.4691
  834MOL0     N12472   2.202   3.966   6.392  0.4422  0.0250 -0.3918
  834MOL0     C12473   2.114   3.866   6.350  0.2431  0.1179  0.0946
  834MOL0     C12474   2.028   3.851   6.459  0.8189 -0.4822  0.1920
  834MOL0     C12475   1.906   3.775   6.494  0.0240  0.3749 -0.2379
  834MOL0     C12476   1.888   3.650   6.412  0.7773  0.5858  0.6960
  834MOL0     C12477   1.801   3.559   6.493 -0.2644  0.4591 -0.0486
  834MOL0     C12478   1.797   3.422   6.423 -0.6084 -0.0218 -0.0754
  834MOL0     O12479   1.719   3.333   6.497 -0.2072 -0.1476 -0.6513
  834MOL0     C12480   1.633   3.248   6.424 -0.6069 -0.6120 -0.0282
  834MOL0     C12481   1.644   3.109   6.430  0.6835 -0.6284 -0.0905
  834MOL0     C12482   1.559   3.028   6.344  0.2076 -0.3338 -0.2506
  834MOL0     C12483   1.588   2.883   6.348 -0.0766  0.8024  0.0595
  834MOL0     C12484   1.469   3.090   6.248  0.0322  0.3145 -0.2167
  834MOL0     C12485   1.374   3.017   6.160 -0.1558 -0.0449 -0.3286
  834MOL0     O12486   1.279   3.100   6.100  0.0346  0.1845 -0.0916
  834MOL0     C12487   1.194   3.061   6.003 -0.9754 -0.7161  1.0088
  834MOL0     C12488   1.240   3.008   5.883  0.1650  0.2837  0.2962
  834MOL0     C12489   1.157   2.968   5.782  0.1721 -0.2809 -0.5223
  834MOL0     C12490   1.014   2.981   5.795 -0.0844  0.6466  1.1967
  834MOL0     O12491   0.919   2.931   5.707 -0.8379  0.2875  0.1510
  834MOL0     C12492   0.974   2.891   5.578 -0.3748  0.0639 -0.8026
  834MOL0     C12493   0.883   2.829   5.481  0.8550 -1.0965  0.1411
  834MOL0     C12494   0.761   2.917   5.446  0.0878  0.2348  0.6282
  834MOL0     C12495   0.669   2.860   5.332  0.3667  0.3050  0.5514
  834MOL0     C12496   0.560   2.973   5.303 -0.2709  0.8030 -0.2017
  834MOL0     C12497   0.471   2.912   5.200  0.4055  0.3407 -0.1612
  834MOL0     C12498   0.345   3.004   5.166  0.2004 -0.7594  0.0193
  834MOL0     C12499   0.223   2.934   5.103 -0.8296 -0.2023 -0.0548
  834MOL0    Cl12500   0.108   3.052   5.041  0.3719  0.1977 -0.0344
  834MOL0     C12501   0.977   3.041   5.916 -0.4838  0.2155 -0.0325
  834MOL0     C12502   1.062   3.076   6.020  0.6245 -0.1538 -0.9454
  834MOL0     O12503   1.383   2.895   6.146  0.2837  0.0356  0.5089
  834MOL0     C12504   1.473   3.230   6.238 -0.5723  0.1690 -0.3277
  834MOL0     C12505   1.549   3.305   6.330 -0.0047 -0.8666  0.2407
  834MOL0     N12506   2.089   3.927   6.562  0.2180  0.0797 -0.3249
  834MOL0     N12507   2.192   3.986   6.524 -0.1901 -0.1035  0.5822
  834MOL0     C12508   3.144   4.139   6.652 -0.1049 -0.1198  0.2680
  834MOL0     C12509   3.288   4.152   6.650 -0.3109  0.3792 -0.1183
  834MOL0     C12510   3.705   4.308   6.503  0.4698  0.1063 -0.3761
  834MOL0     C12511   3.778   4.295   6.381  0.0732  0.8135 -0.0515
  834MOL0     C12512   3.914   4.297   6.373  0.0926  0.3146 -0.1110
  834MOL0     C12513   3.987   4.302   6.494  0.2164 -0.0549 -0.8016
  834MOL0     O12514   4.123   4.285   6.501  0.4789  0.3311 -0.3480
  834MOL0     C12515   4.207   4.311   6.387 -0.3008  0.2045 -0.2363
  834MOL0     C12516   4.353   4.261   6.419 -0.0304 -1.0424  0.0155
  834MOL0     C12517   4.443   4.314   6.310 -0.3273  0.7779  0.4200
  834MOL0     C12518   4.590   4.290   6.344 -0.9117  0.0949 -1.2493
  834MOL0     C12519   4.626   4.142   6.336  1.0562  0.4078  0.0109
  834MOL0     C12520   4.649   4.028   6.319  0.3366  0.4794  0.6010
  834MOL0     C12521   3.914   4.300   6.623  0.4489 -0.3806 -0.0701
  834MOL0     C12522   3.779   4.301   6.621  0.4954  0.2276 -0.2822
  834MOL0     H12523   3.318   4.472   6.558  1.3877  0.0106  1.0367
  834MOL0     H12524   3.080   4.463   6.558 -0.6400 -0.9781  1.2104
  834MOL0     H12525   2.774   4.276   6.471  0.4143  0.7017 -4.1670
  834MOL0     H12526   2.935   4.280   6.400 -0.2833  1.9353  1.3082
  834MOL0     H12527   2.962   4.037   6.419 -0.7756 -2.6432  1.6736
  834MOL0     H12528   2.821   4.027   6.517  0.9109  0.3954  0.0559
  834MOL0     H12529   2.827   4.122   6.225  0.3103  2.0184  1.5276
  834MOL0     H12530   2.783   3.959   6.276  2.9273  0.3258  1.0340
  834MOL0     H12531   2.577   4.078   6.394 -0.3178 -2.8141 -0.5459
  834MOL0     H12532   2.633   4.223   6.319  0.0157  0.1310 -0.3749
  834MOL0     H12533   2.479   4.152   6.151 -0.6964 -0.8432 -1.4365
  834MOL0     H12534   2.630   4.088   6.095  1.4177  1.5682  0.2747
  834MOL0     H12535   2.438   3.946   6.085  1.9545 -0.1904 -1.0016
  834MOL0     H12536   2.575   3.858   6.151  0.0301 -0.1039 -4.3558
  834MOL0     H12537   2.369   3.816   6.279 -1.2301  0.4493  0.0938
  834MOL0     H12538   2.486   3.900   6.384 -1.1389 -1.4074  1.0108
  834MOL0     H12539   2.277   4.035   6.219 -0.5016 -1.1553  0.4075
  834MOL0     H12540   2.359   4.101   6.372 -0.7999 -1.1068  1.3936
  834MOL0     H12541   2.110   3.832   6.247 -1.3385  1.0475 -0.1833
  834MOL0     H12542   1.912   3.761   6.603  0.9703 -4.3874 -0.6726
  834MOL0     H12543   1.823   3.844   6.478 -2.6994 -1.2175  4.8011
  834MOL0     H12544   1.984   3.601   6.391  0.3136  0.0551 -0.2239
  834MOL0     H12545   1.833   3.671   6.321  2.1559  2.7408  0.2833
  834MOL0     H12546   1.698   3.596   6.507 -0.3062  0.5091 -0.4858
  834MOL0     H12547   1.841   3.539   6.593  0.4595 -0.0876 -0.4423
  834MOL0     H12548   1.897   3.379   6.422 -0.2384  0.6732  2.2096
  834MOL0     H12549   1.770   3.421   6.317 -0.1498 -0.6210 -0.1889
  834MOL0     H12550   1.718   3.063   6.495  1.1953 -1.7603 -1.4462
  834MOL0     H12551   1.501   2.830   6.389  1.0525 -1.1625  0.0224
  834MOL0     H12552   1.598   2.836   6.250 -2.3751 -1.8730  0.9704
  834MOL0     H12553   1.683   2.872   6.402  1.8386  0.7547 -3.1108
  834MOL0     H12554   1.346   2.994   5.869  0.3283  2.2416 -0.8942
  834MOL0     H12555   1.208   2.913   5.704  1.2872 -0.4130  0.2711
  834MOL0     H12556   1.022   2.978   5.531 -0.7708  1.0977  0.6209
  834MOL0     H12557   1.051   2.821   5.612 -1.2434 -1.5579 -2.0446
  834MOL0     H12558   0.939   2.804   5.390  0.1692 -2.9233  0.1786
  834MOL0     H12559   0.851   2.731   5.518 -0.8941 -0.0293  1.6330
  834MOL0     H12560   0.804   3.015   5.420  0.2709 -0.3283 -1.3516
  834MOL0     H12561   0.698   2.951   5.529 -0.8773 -0.3441  0.1571
  834MOL0     H12562   0.729   2.832   5.245  1.5889 -1.7164  1.9534
  834MOL0     H12563   0.626   2.766   5.369 -0.5719 -0.4874 -2.2811
  834MOL0     H12564   0.602   3.067   5.265  2.6142 -0.6095 -0.8252
  834MOL0     H12565   0.499   2.998   5.390 -2.2313 -1.5037 -0.8008
  834MOL0     H12566   0.524   2.890   5.107 -0.9819 -1.7735 -0.5213
  834MOL0     H12567   0.436   2.815   5.236  0.4332  0.5372  0.4066
  834MOL0     H12568   0.376   3.077   5.091  1.2877 -0.5226  0.6727
  834MOL0     H12569   0.307   3.058   5.254 -1.8561 -0.3203 -1.0630
  834MOL0     H12570   0.174   2.874   5.181 -3.1283  3.0694  1.2150
  834MOL0     H12571   0.243   2.861   5.023 -2.7654 -1.8123  0.8328
  834MOL0     H12572   0.869   3.050   5.926 -0.6141  0.5786 -1.4938
  834MOL0     H12573   1.020   3.119   6.111  0.4997  0.1636 -1.1506
  834MOL0     H12574   1.405   3.290   6.177 -0.4321  0.7496  0.0845
  834MOL0     H12575   1.551   3.414   6.323 -1.8207 -0.6695  1.7355
  834MOL0     H12576   3.098   4.044   6.678  1.6144 -1.2922 -0.8091
  834MOL0     H12577   3.343   4.059   6.666  2.9198  1.8278 -1.8701
  834MOL0     H12578   3.724   4.285   6.287 -1.6691  1.1072  0.8733
  834MOL0     H12579   3.972   4.285   6.282 -0.6565 -0.0383 -0.5515
  834MOL0     H12580   4.175   4.268   6.292  2.2928 -1.3708 -0.4942
  834MOL0     H12581   4.199   4.419   6.373  1.5105  0.3677 -0.3538
  834MOL0     H12582   4.361   4.156   6.448  1.9633 -0.8125  0.4363
  834MOL0     H12583   4.377   4.312   6.513 -0.7574  0.0646 -0.3823
  834MOL0     H12584   4.426   4.421   6.292 -2.0312  0.0782 -2.9943
  834MOL0     H12585   4.425   4.264   6.215 -0.0352  2.2274 -0.4375
  834MOL0     H12586   4.608   4.329   6.444  0.1862 -0.7512 -1.0984
  834MOL0     H12587   4.661   4.340   6.278  0.1385 -1.6505 -1.5059
  834MOL0     H12588   4.689   3.929   6.306 -1.4553  0.1509 -3.9047
  834MOL0     H12589   3.980   4.303   6.709  1.9358  0.3212 -1.1863
  834MOL0     H12590   3.724   4.294   6.714  0.3859  3.2726 -0.0053
  835MOL0     O12591   4.133   3.147   9.612 -0.0640 -0.9781 -0.0390
  835MOL0     C12592   4.112   3.084   9.713 -0.2276  0.1461 -0.0821
  835MOL0     O12593   3.998   3.083   9.788 -0.6142  0.3226  0.5073
  835MOL0     C12594   3.877   3.153   9.763 -0.5131 -0.0058  0.3794
  835MOL0     C12595   3.827   3.158   9.631  0.3780  0.4071  0.0324
  835MOL0     C12596   3.711   3.231   9.609  0.7039  0.3186 -0.1774
  835MOL0     C12597   3.645   3.313   9.710 -0.2508  0.0360 -0.2414
  835MOL0     O12598   3.536   3.382   9.671 -0.0418  0.8295 -0.3695
  835MOL0     C12599   3.493   3.481   9.761 -0.5279  0.5202  0.2955
  835MOL0     C12600   3.364   3.546   9.704 -0.6043  0.7991 -0.1869
  835MOL0     C12601   3.244   3.453   9.724 -0.6272 -0.5548  0.0387
  835MOL0     C12602   3.109   3.519   9.702 -0.8024  0.7883 -0.8185
  835MOL0     C12603   2.992   3.436   9.718  0.3682  0.4420  0.5617
  835MOL0     C12604   2.854   3.493   9.676 -0.6497 -0.0096 -0.5667
  835MOL0     C12605   2.753   3.385   9.665 -0.2723  0.7416 -0.7083
  835MOL0     C12606   2.623   3.443   9.612 -0.6437  0.2971 -1.0517
  835MOL0     N12607   2.516   3.348   9.638 -0.3287 -0.4884 -0.1369
  835MOL0     C12608   2.476   3.272   9.540  0.3131  0.4618  0.7003
  835MOL0     C12609   2.374   3.200   9.586 -0.4716  0.5185 -0.5549
  835MOL0     C12610   2.283   3.107   9.505  0.3957 -0.2887 -0.2630
  835MOL0     C12611   2.129   3.122   9.538 -0.9166  0.7775  0.5495
  835MOL0     C12612   2.095   3.029   9.668 -0.4360 -0.4880  0.8224
  835MOL0     C12613   1.950   3.052   9.715 -0.3174  0.7206 -0.0939
  835MOL0     O12614   1.858   3.066   9.607 -0.1954  0.2888 -0.0642
  835MOL0     C12615   1.723   3.050   9.628 -0.1887  0.3794 -0.0428
  835MOL0     C12616   1.661   3.065   9.754  0.6039  0.3602  0.0500
  835MOL0     C12617   1.520   3.050   9.768  0.1542 -0.1280  0.0150
  835MOL0     C12618   1.469   3.083   9.907 -0.9832  0.1670  0.8818
  835MOL0     C12619   1.443   3.001   9.659 -0.2873  0.4487  0.0576
  835MOL0     C12620   1.298   2.977   9.668  0.3504  0.1660 -0.1700
  835MOL0     O12621   1.230   2.961   9.552 -0.0604  0.0421  0.9032
  835MOL0     C12622   1.096   2.931   9.558 -0.7829 -0.8469 -0.3216
  835MOL0     C12623   1.052   2.825   9.492 -0.4161 -1.0358  0.4505
  835MOL0     C12624   0.913   2.797   9.482  0.0389  0.8581 -0.0745
  835MOL0     C12625   0.818   2.886   9.541  0.1713 -0.1143 -0.6061
  835MOL0     O12626   0.679   2.856   9.539 -0.1327  0.2632  0.1380
  835MOL0     C12627   0.601   2.968   9.512 -0.4152 -1.1757 -0.4417
  835MOL0     C12628   0.463   2.928   9.451 -0.0716 -0.9203  0.2672
  835MOL0     C12629   0.381   3.054   9.418  0.0331 -0.3876 -0.3686
  835MOL0     C12630   0.242   3.023   9.349 -0.5856  0.2076 -0.9010
  835MOL0     C12631   0.131   2.959   9.432  0.4065 -0.6219 -1.0575
  835MOL0     C12632  -0.007   2.945   9.365  0.3856  0.4413  0.3914
  835MOL0     C12633  -0.120   2.892   9.448  0.7935  0.2200  0.5242
  835MOL0     C12634  -0.243   2.873   9.355 -0.6672 -0.3249 -0.2489
  835MOL0    Cl12635  -0.207   2.762   9.217 -0.2459 -0.1126  0.3887
  835MOL0     C12636   0.865   2.992   9.625  0.4645 -0.7252 -0.3650
  835MOL0     C12637   1.002   3.020   9.622 -0.7272 -0.7381  0.0625
  835MOL0     O12638   1.243   2.966   9.779 -0.7270 -0.4532 -0.2667
  835MOL0     C12639   1.500   2.975   9.530 -0.6111  0.3992 -0.6162
  835MOL0     C12640   1.640   2.999   9.521 -0.9271  1.0619  0.0590
  835MOL0     N12641   2.362   3.224   9.723  0.6539 -0.3188 -0.1158
  835MOL0     N12642   2.446   3.315   9.755 -0.4093 -0.4972 -0.0389
  835MOL0     C12643   3.704   3.309   9.837 -0.3373  0.3797 -0.2878
  835MOL0     C12644   3.814   3.234   9.861 -0.0146 -1.0130 -0.6958
  835MOL0     C12645   4.229   2.994   9.745  0.0585 -0.2334  1.0215
  835MOL0     C12646   4.347   2.992   9.665  0.7963  0.1719 -0.2678
  835MOL0     C12647   4.445   2.898   9.696 -0.9275  0.2044  0.1300
  835MOL0     C12648   4.433   2.813   9.804  0.4315 -0.1865 -0.4567
  835MOL0     O12649   4.521   2.708   9.840 -0.4794 -0.7880  0.2991
  835MOL0     C12650   4.639   2.684   9.754  1.0827  0.2322  0.4398
  835MOL0     C12651   4.712   2.554   9.794  0.1506  0.1278  0.4954
  835MOL0     C12652   4.772   2.565   9.933 -0.4370 -0.3959  0.2766
  835MOL0     C12653   4.888   2.659   9.955 -0.6129  0.5582  0.1734
  835MOL0     C12654   4.913   2.666  10.095 -0.4973 -0.1647 -0.9903
  835MOL0     C12655   4.940   2.681  10.218  0.7861  0.5858  0.6635
  835MOL0     C12656   4.329   2.828   9.894 -0.9842  0.7524  0.3867
  835MOL0     C12657   4.236   2.924   9.865 -0.0076 -0.2257 -0.9393
  835MOL0     H12658   3.878   3.107   9.550  1.7019  1.4178  0.1788
  835MOL0     H12659   3.662   3.216   9.514 -1.2622  0.4504  0.7577
  835MOL0     H12660   3.467   3.445   9.861 -0.8735 -0.5478 -0.1596
  835MOL0     H12661   3.569   3.559   9.769 -0.8919  0.9686 -0.4967
  835MOL0     H12662   3.335   3.631   9.766  0.8420  0.5414  0.9235
  835MOL0     H12663   3.392   3.588   9.607  0.5759 -0.4964 -0.4414
  835MOL0     H12664   3.250   3.355   9.675 -2.0320 -0.6872  0.0992
  835MOL0     H12665   3.249   3.431   9.831  1.2556  1.2834  0.3845
  835MOL0     H12666   3.103   3.607   9.767 -0.0226 -0.0105  0.3632
  835MOL0     H12667   3.106   3.553   9.598 -4.8176 -1.4190 -1.5982
  835MOL0     H12668   3.001   3.345   9.658 -1.5445  0.4866  0.1289
  835MOL0     H12669   2.985   3.402   9.821 -1.3690 -1.4022 -0.0934
  835MOL0     H12670   2.824   3.569   9.748  1.9358  1.7146 -1.1498
  835MOL0     H12671   2.869   3.533   9.575  2.7552  1.4823  0.3682
  835MOL0     H12672   2.782   3.301   9.602  0.1612 -1.3718  2.1318
  835MOL0     H12673   2.745   3.343   9.765  1.3730  1.0541 -0.4143
  835MOL0     H12674   2.643   3.476   9.510 -1.4680  0.3611 -1.1942
  835MOL0     H12675   2.601   3.531   9.674  0.6438  0.7886 -1.2619
  835MOL0     H12676   2.507   3.260   9.437  0.9862 -3.1925  1.1713
  835MOL0     H12677   2.289   3.136   9.399 -0.1324  1.3878  0.1377
  835MOL0     H12678   2.319   3.004   9.517  1.8868  0.0065 -1.7847
  835MOL0     H12679   2.069   3.091   9.451  0.8797  2.1004 -1.2543
  835MOL0     H12680   2.116   3.225   9.570  4.2165  1.9043 -0.2003
  835MOL0     H12681   2.159   3.055   9.753  2.4096  0.3485 -1.3824
  835MOL0     H12682   2.106   2.924   9.640 -1.0645 -0.7336  1.4590
  835MOL0     H12683   1.957   3.138   9.782  1.8073  1.6005 -1.3667
  835MOL0     H12684   1.929   2.969   9.783  1.8890 -1.0250 -1.4079
  835MOL0     H12685   1.726   3.100   9.834  0.4997  1.0359 -0.1571
  835MOL0     H12686   1.540   3.156   9.948  0.5462  0.0895 -1.4127
  835MOL0     H12687   1.367   3.122   9.909 -1.0777 -0.1088  1.8195
  835MOL0     H12688   1.473   2.997   9.975 -2.1582  1.5905  2.8769
  835MOL0     H12689   1.118   2.760   9.435  1.6400  0.8571  0.5458
  835MOL0     H12690   0.881   2.707   9.431  0.8277  1.1823 -1.1895
  835MOL0     H12691   0.577   3.028   9.601 -0.3988  1.0911 -1.8905
  835MOL0     H12692   0.655   3.044   9.455 -0.5820  0.2785  1.2263
  835MOL0     H12693   0.496   2.883   9.357  0.3180 -0.5320  0.2144
  835MOL0     H12694   0.404   2.859   9.512 -1.0804 -3.6255 -3.3907
  835MOL0     H12695   0.440   3.123   9.357 -0.2451 -0.4500 -0.7132
  835MOL0     H12696   0.354   3.104   9.511  1.6237 -2.4168  1.2854
  835MOL0     H12697   0.189   3.115   9.321 -2.4264 -0.4777  0.1534
  835MOL0     H12698   0.257   2.959   9.262  1.0963  0.2343 -0.6619
  835MOL0     H12699   0.127   3.007   9.530 -0.3928 -0.6235 -1.0803
  835MOL0     H12700   0.164   2.857   9.453  2.2190  0.4687  1.9605
  835MOL0     H12701  -0.033   3.043   9.324  3.8225  2.1828  1.9208
  835MOL0     H12702   0.015   2.880   9.280  3.7537 -0.1644  1.5557
  835MOL0     H12703  -0.142   2.947   9.540  0.5540 -1.7528  1.6974
  835MOL0     H12704  -0.086   2.798   9.492  0.4330 -0.0930  0.1478
  835MOL0     H12705  -0.280   2.968   9.317  1.3689  0.1381 -1.2508
  835MOL0     H12706  -0.326   2.839   9.417 -0.1262  4.3498  3.5932
  835MOL0     H12707   0.796   3.059   9.675  0.3399 -1.0875 -0.0524
  835MOL0     H12708   1.031   3.106   9.681  0.0830  0.4674 -1.9976
  835MOL0     H12709   1.438   2.942   9.447 -0.7055  1.1945 -0.8612
  835MOL0     H12710   1.676   2.999   9.419 -1.4838 -1.6012 -0.2300
  835MOL0     H12711   3.660   3.347   9.929  2.5203  0.4265  1.1717
  835MOL0     H12712   3.842   3.231   9.966 -1.8434  0.7685 -0.0858
  835MOL0     H12713   4.368   3.057   9.581  1.3746 -0.7841 -0.8715
  835MOL0     H12714   4.534   2.883   9.636 -1.9077 -1.3647 -1.0191
  835MOL0     H12715   4.608   2.668   9.650  3.3608 -2.2850  0.0473
  835MOL0     H12716   4.710   2.767   9.763  2.5898 -0.7273 -1.7963
  835MOL0     H12717   4.789   2.532   9.719  0.5959  2.5840  0.1749
  835MOL0     H12718   4.645   2.467   9.800 -1.7194  1.5612  1.0316
  835MOL0     H12719   4.801   2.463   9.961 -0.3427 -0.1718  1.0253
  835MOL0     H12720   4.690   2.598   9.998  1.3266  1.7012  1.5875
  835MOL0     H12721   4.878   2.761   9.916 -2.0142  1.3863  2.4784
  835MOL0     H12722   4.973   2.624   9.896  0.2603 -0.5312  1.9606
  835MOL0     H12723   4.980   2.695  10.316 -0.4882  0.8503  1.1668
  835MOL0     H12724   4.314   2.761   9.978  1.6750  1.1962  1.3241
  835MOL0     H12725   4.149   2.930   9.930 -0.6506  0.4566 -1.8352
  836MOL0     O12726  11.147  10.669  11.296 -0.7367 -0.2378  0.1558
  836MOL0     C12727  11.193  10.560  11.259 -0.1985  0.4554 -0.3302
  836MOL0     O12728  11.128  10.443  11.249 -0.0077 -0.5133 -0.2035
  836MOL0     C12729  11.006  10.420  11.302 -0.3002  0.2503 -0.5145
  836MOL0     C12730  11.002  10.363  11.430  0.1881  0.1016  0.3296
  836MOL0     C12731  10.876  10.328  11.476  0.7054 -0.0307  0.8735
  836MOL0     C12732  10.756  10.355  11.402 -0.3329  0.3537 -0.9864
  836MOL0     O12733  10.637  10.334  11.472  0.1654  0.4976  0.7923
  836MOL0     C12734  10.526  10.319  11.384  0.5131  0.5186  1.1647
  836MOL0     C12735  10.408  10.275  11.462 -0.1438  0.2960  0.3391
  836MOL0     C12736  10.282  10.247  11.376  0.6952 -0.0354  0.5228
  836MOL0     C12737  10.166  10.223  11.474 -0.0717 -0.2951  0.7656
  836MOL0     C12738  10.047  10.172  11.393  0.0612  0.0184 -0.2283
  836MOL0     C12739   9.931  10.158  11.492  0.0610 -0.0249  0.1718
  836MOL0     C12740   9.799  10.123  11.415 -0.2788  0.2158 -1.2376
  836MOL0     C12741   9.679  10.179  11.487  0.1601  0.0659 -0.0944
  836MOL0     N12742   9.668  10.129  11.625 -0.1471 -1.0242  1.2908
  836MOL0     C12743   9.663   9.994  11.660 -1.3696  0.5653 -0.1205
  836MOL0     C12744   9.675  10.001  11.799  0.6337 -0.2441 -0.1806
  836MOL0     C12745   9.679   9.880  11.888  0.7421 -0.7258 -0.4534
  836MOL0     C12746   9.581   9.879  12.000 -0.2167  0.4037  0.8567
  836MOL0     C12747   9.590   9.739  12.068 -0.1130  1.3239 -0.3381
  836MOL0     C12748   9.536   9.741  12.204 -0.2705  0.0594 -0.4617
  836MOL0     O12749   9.423   9.827  12.228  0.5257  0.2885  0.2202
  836MOL0     C12750   9.302   9.762  12.213 -0.4497  0.0520  0.0572
  836MOL0     C12751   9.256   9.678  12.304  0.6550 -0.1700  1.0135
  836MOL0     C12752   9.122   9.623  12.295  0.0833 -0.9918 -0.2635
  836MOL0     C12753   9.087   9.528  12.406 -0.0235 -0.8865 -0.5463
  836MOL0     C12754   9.038   9.663  12.188 -0.0839 -0.0461 -0.5233
  836MOL0     C12755   8.887   9.628  12.185 -0.1372  0.2174  0.6267
  836MOL0     O12756   8.803   9.724  12.125 -0.1899 -0.2632  0.6619
  836MOL0     C12757   8.669   9.728  12.172 -0.5242 -0.3614  0.3364
  836MOL0     C12758   8.579   9.789  12.078  0.0055 -0.4071 -0.7070
  836MOL0     C12759   8.449   9.809  12.119  0.9879  0.4995  0.5916
  836MOL0     C12760   8.397   9.778  12.245 -0.7787  0.1016 -1.5143
  836MOL0     O12761   8.271   9.794  12.285 -0.3106 -0.0052 -0.5248
  836MOL0     C12762   8.181   9.848  12.195  1.2020 -0.4169 -0.2480
  836MOL0     C12763   8.037   9.836  12.251  0.8564  0.0960 -0.3245
  836MOL0     C12764   7.924   9.874  12.146 -0.1278 -0.6242 -0.6773
  836MOL0     C12765   7.785   9.863  12.209  0.0279 -0.4814 -0.7017
  836MOL0     C12766   7.678   9.923  12.113 -0.8911 -0.4521 -0.7765
  836MOL0     C12767   7.539   9.898  12.173  0.3294  0.1053  0.1175
  836MOL0     C12768   7.430   9.989  12.119  0.3124 -0.1893 -0.0682
  836MOL0     C12769   7.310   9.969  12.204  0.1825 -0.7627 -0.0589
  836MOL0    Cl12770   7.183  10.082  12.131  0.0172  0.1805 -0.4754
  836MOL0     C12771   8.492   9.729  12.337  1.0932  0.5470 -0.9945
  836MOL0     C12772   8.624   9.710  12.301  0.0302  0.7939  0.1467
  836MOL0     O12773   8.848   9.517  12.223  0.5514 -0.6611 -0.2721
  836MOL0     C12774   9.092   9.751  12.096  0.4365  0.0854  0.7545
  836MOL0     C12775   9.221   9.795  12.105 -0.0761 -0.7004 -0.3280
  836MOL0     N12776   9.670  10.137  11.842 -0.1498 -0.4032  0.0978
  836MOL0     N12777   9.659  10.207  11.737 -0.1299  0.2446  0.0303
  836MOL0     C12778  10.770  10.430  11.285 -0.1353 -0.2805  0.0838
  836MOL0     C12779  10.899  10.451  11.230  0.0027 -0.0892 -0.5342
  836MOL0     C12780  11.331  10.558  11.219 -0.3186 -0.7496  0.0122
  836MOL0     C12781  11.397  10.436  11.187 -0.2282  0.3877 -0.3090
  836MOL0     C12782  11.537  10.447  11.154 -0.3218 -0.2247 -0.6041
  836MOL0     C12783  11.617  10.564  11.169  1.3583  0.0197 -0.3429
  836MOL0     O12784  11.758  10.555  11.155 -0.2019  0.3085 -0.3633
  836MOL0     C12785  11.843  10.669  11.172  0.0679 -0.3486  0.3034
  836MOL0     C12786  11.987  10.638  11.198 -0.6108  0.0381 -0.2784
  836MOL0     C12787  12.066  10.595  11.064 -0.2406  0.1871 -0.3068
  836MOL0     C12788  12.208  10.540  11.089 -0.7117  0.2819 -0.2527
  836MOL0     C12789  12.246  10.438  10.986 -1.6725 -0.0360 -0.2279
  836MOL0     C12790  12.280  10.351  10.903  0.1743 -0.0721  0.0786
  836MOL0     C12791  11.548  10.682  11.196 -0.3662 -0.0925  0.0608
  836MOL0     C12792  11.403  10.678  11.224 -0.3087 -0.5956 -0.5276
  836MOL0     H12793  11.090  10.346  11.491  0.0329 -1.2275  0.2126
  836MOL0     H12794  10.864  10.287  11.576 -0.9891 -0.2639  0.5922
  836MOL0     H12795  10.490  10.415  11.348 -1.0821 -0.4747 -0.0031
  836MOL0     H12796  10.553  10.251  11.302  0.0822  0.5538  0.9915
  836MOL0     H12797  10.424  10.192  11.530  0.5475  0.1123 -0.0360
  836MOL0     H12798  10.385  10.360  11.527  0.0978  1.2261 -0.7553
  836MOL0     H12799  10.261  10.321  11.298  0.8343 -0.8814 -0.3261
  836MOL0     H12800  10.307  10.158  11.319 -0.3921  0.9269 -1.5869
  836MOL0     H12801  10.196  10.143  11.543 -0.3905 -1.1749 -0.1061
  836MOL0     H12802  10.145  10.317  11.526  0.6597  1.2965 -1.6919
  836MOL0     H12803  10.020  10.242  11.313 -0.2098  0.8367  0.5643
  836MOL0     H12804  10.069  10.069  11.362  0.9546  0.6689 -1.8577
  836MOL0     H12805   9.957  10.083  11.567  2.1526 -2.0297 -2.3557
  836MOL0     H12806   9.915  10.251  11.548 -0.2620 -0.2229  0.4094
  836MOL0     H12807   9.808  10.163  11.313  2.9926  1.7155 -0.5131
  836MOL0     H12808   9.799  10.014  11.413 -0.1637  0.0202  2.5562
  836MOL0     H12809   9.588  10.158  11.431 -0.3187  2.4934 -0.3437
  836MOL0     H12810   9.689  10.288  11.495 -0.6679  0.1280  0.1628
  836MOL0     H12811   9.653   9.910  11.593 -4.2791  0.8188 -0.1406
  836MOL0     H12812   9.686   9.785  11.834 -0.4860 -2.5974  2.4545
  836MOL0     H12813   9.777   9.887  11.936 -0.7743  0.1846  2.7797
  836MOL0     H12814   9.482   9.905  11.963 -1.2320 -1.9681  1.6655
  836MOL0     H12815   9.615   9.953  12.073 -0.7570 -0.9848  2.6204
  836MOL0     H12816   9.694   9.703  12.067 -0.6309 -0.2646 -2.2703
  836MOL0     H12817   9.534   9.665  12.011 -0.1832  1.6197 -0.6514
  836MOL0     H12818   9.617   9.780  12.266  0.0197 -0.2603 -0.6351
  836MOL0     H12819   9.518   9.637  12.234  1.0622 -0.1191 -0.2135
  836MOL0     H12820   9.309   9.647  12.394 -0.5444  2.1999  2.6317
  836MOL0     H12821   9.170   9.516  12.477 -1.1075 -2.2843  0.5442
  836MOL0     H12822   9.001   9.567  12.461 -0.2712 -2.5023  0.2764
  836MOL0     H12823   9.071   9.427  12.367  0.1060 -1.4621  0.8274
  836MOL0     H12824   8.620   9.822  11.983  0.6385 -1.2943 -0.7605
  836MOL0     H12825   8.382   9.856  12.048  0.3112 -0.0315  0.8681
  836MOL0     H12826   8.202   9.954  12.178  1.4335  0.1326  2.8565
  836MOL0     H12827   8.181   9.781  12.108 -0.3257 -0.7771 -0.0062
  836MOL0     H12828   8.022   9.728  12.266  0.1598  0.3552  1.0513
  836MOL0     H12829   8.034   9.900  12.340 -0.0325 -1.5648  0.9218
  836MOL0     H12830   7.941   9.809  12.060  2.8057 -2.0263  0.8298
  836MOL0     H12831   7.942   9.979  12.121 -0.0896 -0.0649  1.4888
  836MOL0     H12832   7.755   9.759  12.226  0.2718 -0.4120  0.2387
  836MOL0     H12833   7.771   9.919  12.302 -1.1585 -3.2118  0.8914
  836MOL0     H12834   7.686   9.871  12.017  0.8137  2.0413 -2.1028
  836MOL0     H12835   7.697  10.029  12.098 -0.8593 -0.4461 -0.6938
  836MOL0     H12836   7.508   9.795  12.152 -0.9399  0.9501 -2.6278
  836MOL0     H12837   7.553   9.920  12.279  1.3319  1.2737 -0.2327
  836MOL0     H12838   7.412   9.945  12.020 -0.1143  2.2892 -1.1557
  836MOL0     H12839   7.461  10.093  12.112  0.1840 -0.1471 -0.0172
  836MOL0     H12840   7.332   9.991  12.309  0.0550 -1.6428  0.1644
  836MOL0     H12841   7.276   9.865  12.192 -0.7460 -0.5433  0.5628
  836MOL0     H12842   8.471   9.716  12.443  0.4943  0.5485 -1.1072
  836MOL0     H12843   8.690   9.682  12.383 -2.8771 -0.8935  2.0898
  836MOL0     H12844   9.040   9.781  12.006 -0.0131 -0.0067  0.9814
  836MOL0     H12845   9.267   9.848  12.023  0.2989  1.2312  1.0485
  836MOL0     H12846  10.681  10.481  11.248 -2.8651 -2.8140  2.5303
  836MOL0     H12847  10.909  10.512  11.141 -2.4875  2.1540  0.5722
  836MOL0     H12848  11.343  10.342  11.188 -2.7688  1.6367  3.5829
  836MOL0     H12849  11.575  10.346  11.142 -3.5735 -1.6849  0.1898
  836MOL0     H12850  11.835  10.738  11.087  2.7047 -2.4853 -1.8586
  836MOL0     H12851  11.816  10.712  11.269  0.9286 -1.1238  0.9018
  836MOL0     H12852  11.990  10.566  11.281  3.0980 -0.1792 -0.4233
  836MOL0     H12853  12.034  10.731  11.232  1.6121 -0.4139 -1.8559
  836MOL0     H12854  12.065  10.681  10.998 -1.8764 -0.2815 -0.9361
  836MOL0     H12855  12.010  10.518  11.010 -3.3373  2.9669 -1.4221
  836MOL0     H12856  12.207  10.482  11.182 -0.1191 -0.0679 -0.4587
  836MOL0     H12857  12.286  10.618  11.087  1.3860 -1.7086 -0.3107
  836MOL0     H12858  12.300  10.275  10.830  1.6539  0.3432  0.0292
  836MOL0     H12859  11.600  10.777  11.185 -1.3022  0.8704  3.0473
  836MOL0     H12860  11.350  10.770  11.248  0.7127 -0.0818 -0.1841
  837MOL0     O12861   5.639   9.580   6.760  0.3420 -0.8071 -0.2729
  837MOL0     C12862   5.672   9.686   6.807  1.1280 -0.7474 -0.1418
  837MOL0     O12863   5.585   9.787   6.841  0.2551 -0.6743 -0.2730
  837MOL0     C12864   5.451   9.786   6.816  0.6497  0.8922 -0.2244
  837MOL0     C12865   5.381   9.711   6.723  0.0035 -0.5069  0.5426
  837MOL0     C12866   5.243   9.729   6.699 -0.2020 -0.2704  0.5337
  837MOL0     C12867   5.173   9.822   6.764 -0.0189 -0.1949  0.4325
  837MOL0     O12868   5.049   9.854   6.717  0.2553 -0.4505  0.3302
  837MOL0     C12869   4.963   9.912   6.821  0.1660 -1.1186 -0.1312
  837MOL0     C12870   4.816   9.873   6.788  0.2754  0.3366  0.7297
  837MOL0     C12871   4.726   9.938   6.887 -0.3366  0.5917 -1.0129
  837MOL0     C12872   4.573   9.915   6.849  0.1048  0.2645 -0.1662
  837MOL0     C12873   4.539   9.770   6.848 -0.0464  0.4023  0.0861
  837MOL0     C12874   4.389   9.754   6.834  0.0705  0.1641  1.4408
  837MOL0     C12875   4.302   9.831   6.929  0.7265 -0.8404 -0.5948
  837MOL0     C12876   4.159   9.775   6.935  0.5082  0.4274  0.3732
  837MOL0     N12877   4.060   9.859   7.006 -0.0715 -1.4322  0.0971
  837MOL0     C12878   3.921   9.851   6.990 -0.3146  0.9183  0.1936
  837MOL0     C12879   3.869   9.929   7.078  0.0484 -0.4743 -0.7813
  837MOL0     C12880   3.721   9.960   7.105  0.2223 -0.2863  0.7162
  837MOL0     C12881   3.697  10.104   7.098 -0.6227  0.3459 -0.7121
  837MOL0     C12882   3.548  10.126   7.109 -0.0618  0.1954  0.0403
  837MOL0     C12883   3.519  10.272   7.124 -0.4044 -0.5621  0.4686
  837MOL0     O12884   3.398  10.304   7.191  0.1217 -0.3715  0.3541
  837MOL0     C12885   3.271  10.256   7.156 -0.5430 -0.3829 -0.9116
  837MOL0     C12886   3.171  10.288   7.242  0.0819  0.4176  0.4697
  837MOL0     C12887   3.034  10.252   7.213  0.3255  0.3815 -1.2736
  837MOL0     C12888   2.934  10.291   7.324 -0.2099  0.0881  0.3369
  837MOL0     C12889   3.010  10.170   7.098  0.5632 -0.3367 -0.3961
  837MOL0     C12890   2.874  10.120   7.061  0.9321  0.1902 -0.0533
  837MOL0     O12891   2.877   9.992   6.999 -0.2519  0.0627  0.8625
  837MOL0     C12892   2.760   9.952   6.932 -0.6113  0.0915 -0.0872
  837MOL0     C12893   2.767   9.930   6.796  0.0155  0.0482 -0.0890
  837MOL0     C12894   2.661   9.894   6.716  0.3138  0.7206  0.3855
  837MOL0     C12895   2.542   9.864   6.770  0.1323 -0.1348 -0.6977
  837MOL0     O12896   2.432   9.818   6.704  0.0740 -0.9705  0.0870
  837MOL0     C12897   2.419   9.824   6.554  0.7691  0.1270 -0.1847
  837MOL0     C12898   2.291   9.789   6.484  1.0047  0.6093 -0.1187
  837MOL0     C12899   2.169   9.875   6.526 -0.3273 -0.0420  0.5066
  837MOL0     C12900   2.059   9.847   6.422  0.4287 -0.0059 -0.3397
  837MOL0     C12901   1.992   9.707   6.443  0.0913  0.3686  0.5794
  837MOL0     C12902   1.909   9.674   6.327  0.0708 -0.1748 -0.6875
  837MOL0     C12903   1.790   9.770   6.297 -0.0071 -0.6831 -0.1434
  837MOL0     C12904   1.715   9.706   6.185  0.7265 -0.6517 -0.2548
  837MOL0    Cl12905   1.567   9.788   6.148  0.5783  0.0086 -0.2128
  837MOL0     C12906   2.526   9.897   6.908 -0.0397 -0.2497  0.1178
  837MOL0     C12907   2.640   9.932   6.980  0.8453  0.1696 -0.7695
  837MOL0     O12908   2.772  10.185   7.084 -0.2079 -0.2851  0.3613
  837MOL0     C12909   3.118  10.146   7.007  0.4833  0.4302 -0.1388
  837MOL0     C12910   3.245  10.187   7.045  0.4941  0.4306 -0.1772
  837MOL0     N12911   3.969   9.986   7.149  1.0401 -1.0450  0.1238
  837MOL0     N12912   4.084   9.945   7.112 -0.2896 -0.7493  0.6068
  837MOL0     C12913   5.240   9.900   6.860  0.5354 -0.0907  0.4053
  837MOL0     C12914   5.379   9.878   6.889  0.8359 -0.0881  0.6313
  837MOL0     C12915   5.812   9.719   6.822 -0.0912 -1.0682  0.1570
  837MOL0     C12916   5.848   9.835   6.893  1.0708  0.4037  0.0657
  837MOL0     C12917   5.982   9.853   6.918 -0.3714 -0.2291 -0.3430
  837MOL0     C12918   6.087   9.772   6.871  0.0576  0.3819 -0.0441
  837MOL0     O12919   6.219   9.821   6.894  0.7742 -0.4364  0.2944
  837MOL0     C12920   6.324   9.738   6.840 -0.5946  0.5708 -0.5006
  837MOL0     C12921   6.454   9.814   6.883  0.3243  0.5876  0.1130
  837MOL0     C12922   6.459   9.837   7.032 -0.2131 -0.3540 -0.6502
  837MOL0     C12923   6.590   9.915   7.083 -0.0222 -0.6907  0.3195
  837MOL0     C12924   6.557   9.946   7.224 -0.4220  0.0303  0.3034
  837MOL0     C12925   6.530   9.954   7.340  0.3781 -0.3290 -0.6393
  837MOL0     C12926   6.049   9.658   6.796 -0.3031 -0.4118  0.1995
  837MOL0     C12927   5.915   9.628   6.770 -0.3974 -0.5340  0.5140
  837MOL0     H12928   5.436   9.640   6.663  0.6195  1.3243 -1.1547
  837MOL0     H12929   5.190   9.672   6.624  1.1661 -0.3668 -0.4017
  837MOL0     H12930   4.988   9.875   6.921  2.8498  2.7095  0.8258
  837MOL0     H12931   4.993  10.017   6.811  2.2245 -1.6526 -0.0386
  837MOL0     H12932   4.796   9.901   6.684  0.9378  2.5194  1.1347
  837MOL0     H12933   4.802   9.766   6.806  0.4406  0.0311 -0.8651
  837MOL0     H12934   4.750   9.895   6.985 -0.1973  0.8635 -0.9267
  837MOL0     H12935   4.746  10.045   6.895 -1.9372  1.0125 -2.1948
  837MOL0     H12936   4.519   9.968   6.928  0.2734  2.1046 -1.2283
  837MOL0     H12937   4.558   9.964   6.752  0.8404  1.1338  0.1431
  837MOL0     H12938   4.596   9.717   6.771  0.3927  0.3394  0.4519
  837MOL0     H12939   4.575   9.726   6.942  3.0913  1.2366 -0.6190
  837MOL0     H12940   4.354   9.789   6.737  0.5390  0.7709  1.4878
  837MOL0     H12941   4.366   9.647   6.825  0.3211  0.1984  0.3021
  837MOL0     H12942   4.346   9.827   7.029 -1.5447  0.2079  0.5040
  837MOL0     H12943   4.295   9.936   6.899 -1.2105 -0.8079 -0.1644
  837MOL0     H12944   4.166   9.676   6.982  1.5623  1.2432  2.0019
  837MOL0     H12945   4.120   9.754   6.835  1.3146  0.3799  0.0584
  837MOL0     H12946   3.869   9.776   6.931 -0.2031  2.1145 -1.5089
  837MOL0     H12947   3.656   9.913   7.031  0.3835  2.2035 -1.1280
  837MOL0     H12948   3.696   9.917   7.203  0.4114 -0.1784  0.8144
  837MOL0     H12949   3.736  10.151   7.007 -0.2739  0.2421 -0.6161
  837MOL0     H12950   3.747  10.148   7.185 -0.5008 -4.3847  1.9352
  837MOL0     H12951   3.525  10.080   7.206 -0.1341 -0.7561 -0.4240
  837MOL0     H12952   3.489  10.082   7.029  0.9758 -1.1075 -0.0426
  837MOL0     H12953   3.522  10.327   7.030 -0.7167  2.3846  2.0500
  837MOL0     H12954   3.597  10.319   7.184  1.9028 -1.6072 -1.5816
  837MOL0     H12955   3.197  10.343   7.332 -0.4627 -0.4319  1.1708
  837MOL0     H12956   2.962  10.386   7.370  0.1845 -0.4591  1.2596
  837MOL0     H12957   2.832  10.283   7.285  0.4218 -0.0966 -1.3250
  837MOL0     H12958   2.946  10.219   7.406 -1.5235 -2.1460 -1.3093
  837MOL0     H12959   2.860   9.960   6.748 -0.3055  0.8973 -0.1941
  837MOL0     H12960   2.680   9.885   6.610  0.6094  0.3018  0.4735
  837MOL0     H12961   2.437   9.926   6.517 -0.2291 -0.6791 -3.1673
  837MOL0     H12962   2.495   9.756   6.515  0.0166  0.1957 -1.8226
  837MOL0     H12963   2.297   9.797   6.375  0.5454  0.6485 -0.1432
  837MOL0     H12964   2.277   9.682   6.504 -3.5269  1.1042  0.2766
  837MOL0     H12965   2.185   9.983   6.518 -2.8943  0.4617  1.0380
  837MOL0     H12966   2.135   9.858   6.629  1.2861 -0.9623  0.9095
  837MOL0     H12967   1.990   9.931   6.433 -0.1167 -0.4906  0.0426
  837MOL0     H12968   2.105   9.848   6.323 -0.1358 -0.6553 -0.6159
  837MOL0     H12969   1.932   9.700   6.535  0.8447 -0.1901  1.0420
  837MOL0     H12970   2.067   9.628   6.447  0.3150  0.3993 -1.7866
  837MOL0     H12971   1.981   9.665   6.246  0.6650 -0.7573 -0.1059
  837MOL0     H12972   1.869   9.572   6.332 -0.5400  0.0046 -1.7294
  837MOL0     H12973   1.832   9.863   6.257  0.9252 -1.3106 -0.6523
  837MOL0     H12974   1.720   9.803   6.375  1.8058  1.3695  0.7463
  837MOL0     H12975   1.691   9.603   6.212 -0.0294 -0.0847  1.3111
  837MOL0     H12976   1.781   9.702   6.097 -1.4124  0.8246 -2.0377
  837MOL0     H12977   2.436   9.892   6.969  0.0015 -0.7230  0.1429
  837MOL0     H12978   2.633   9.946   7.088  0.3118  1.7774 -0.9946
  837MOL0     H12979   3.096  10.092   6.916 -0.4341 -2.6249  1.7187
  837MOL0     H12980   3.315  10.184   6.961 -0.0985 -0.5649 -0.6654
  837MOL0     H12981   5.194   9.981   6.916 -1.3819  0.7217 -2.1391
  837MOL0     H12982   5.429   9.948   6.956 -0.4720 -0.0504  1.5971
  837MOL0     H12983   5.781   9.911   6.934  0.6093 -1.1857  2.4759
  837MOL0     H12984   6.005   9.945   6.971 -2.6887 -0.2762  0.8509
  837MOL0     H12985   6.336   9.638   6.884 -0.3769 -0.2957 -2.4166
  837MOL0     H12986   6.311   9.729   6.732 -1.1663  2.2116 -0.5892
  837MOL0     H12987   6.465   9.910   6.833 -0.4311 -0.1860 -1.6127
  837MOL0     H12988   6.532   9.744   6.852 -1.6202 -1.8714  0.4553
  837MOL0     H12989   6.456   9.746   7.092  0.9239  1.1220  1.8721
  837MOL0     H12990   6.370   9.893   7.063 -0.5058 -0.3738 -1.4384
  837MOL0     H12991   6.608  10.000   7.017 -2.2303 -0.4301 -0.0298
  837MOL0     H12992   6.670   9.842   7.070  1.9275  1.3380  0.4960
  837MOL0     H12993   6.522   9.982   7.443  1.1017  0.6400 -0.8316
  837MOL0     H12994   6.126   9.589   6.764 -0.9294 -0.7145 -0.6696
  837MOL0     H12995   5.886   9.546   6.705 -1.6068  0.7653 -0.6700
  838MOL0     O12996   9.449   0.049   1.953 -0.6207  0.1654 -0.4644
  838MOL0     C12997   9.485  -0.011   2.058 -0.4408 -0.1323  0.7358
  838MOL0     O12998   9.408  -0.033   2.166 -0.0969  0.0825 -0.0609
  838MOL0     C12999   9.272  -0.034   2.172  0.2514  0.0998  0.3120
  838MOL0     C13000   9.213  -0.043   2.304 -0.1311  0.3142 -0.8291
  838MOL0     C13001   9.075  -0.049   2.317 -0.4165 -0.4863  0.0945
  838MOL0     C13002   8.993  -0.040   2.201  0.0245 -0.5411  0.5430
  838MOL0     O13003   8.859  -0.045   2.233  0.3134  0.2260 -0.1058
  838MOL0     C13004   8.773   0.050   2.154  0.3779  0.4352  0.4214
  838MOL0     C13005   8.638   0.059   2.221 -0.6046  0.1574  0.0293
  838MOL0     C13006   8.555   0.165   2.159  0.6248  0.5078 -0.1452
  838MOL0     C13007   8.416   0.171   2.228 -0.0733 -0.3163  0.1802
  838MOL0     C13008   8.309   0.237   2.146 -0.2583 -0.0272  0.3952
  838MOL0     C13009   8.164   0.228   2.202  0.2040  0.4635 -0.3921
  838MOL0     C13010   8.107   0.084   2.178 -0.3115 -0.0775  0.4951
  838MOL0     C13011   7.963   0.082   2.233  0.2863 -0.4531  0.0940
  838MOL0     N13012   7.895  -0.037   2.186 -0.2773 -0.6171  0.5345
  838MOL0     C13013   7.877  -0.065   2.052 -0.8547  0.4072  0.0773
  838MOL0     C13014   7.799  -0.173   2.050 -0.3939  1.1142 -0.5410
  838MOL0     C13015   7.740  -0.253   1.942  0.1595  0.5792  0.0095
  838MOL0     C13016   7.702  -0.175   1.823 -0.3137  0.1823 -0.5663
  838MOL0     C13017   7.583  -0.095   1.856  0.2514  0.2206  0.1678
  838MOL0     C13018   7.523  -0.041   1.724 -0.4156  0.7855 -0.0238
  838MOL0     O13019   7.424   0.061   1.764 -0.0191  0.2047 -0.1463
  838MOL0     C13020   7.357   0.140   1.668  0.8015 -0.8434 -0.2706
  838MOL0     C13021   7.238   0.201   1.717  0.2644 -0.3752  0.3368
  838MOL0     C13022   7.160   0.291   1.638  0.7185  0.3905  0.3964
  838MOL0     C13023   7.038   0.355   1.718  0.0009  0.0612  0.6329
  838MOL0     C13024   7.206   0.315   1.508  0.3406  0.2133 -0.4093
  838MOL0     C13025   7.140   0.407   1.409 -0.4744  0.0779  0.4395
  838MOL0     O13026   7.196   0.431   1.292  0.8839  0.0946 -0.0602
  838MOL0     C13027   7.150   0.536   1.208  0.2659  0.8763 -0.0913
  838MOL0     C13028   7.012   0.554   1.176 -0.2793  0.1797 -0.2375
  838MOL0     C13029   6.975   0.668   1.104 -0.0691  0.4417  0.2989
  838MOL0     C13030   7.075   0.760   1.065  0.3682  0.6416  1.2618
  838MOL0     O13031   7.030   0.874   0.993 -0.5447 -0.0299 -0.3625
  838MOL0     C13032   7.114   0.968   0.920 -0.4187  0.0847 -0.1035
  838MOL0     C13033   7.035   1.041   0.811 -0.0219 -0.7531 -0.3777
  838MOL0     C13034   6.943   1.151   0.869 -0.2597  0.3854  1.0554
  838MOL0     C13035   6.914   1.256   0.762  0.2677 -0.7462  1.0453
  838MOL0     C13036   6.862   1.203   0.628 -1.0325  0.7899  0.3153
  838MOL0     C13037   6.811   1.300   0.519 -0.2865 -0.7719  0.4342
  838MOL0     C13038   6.690   1.382   0.567 -0.1322  0.1511 -0.3854
  838MOL0     C13039   6.586   1.378   0.470  0.5083  0.5272  0.2006
  838MOL0    Cl13040   6.473   1.247   0.502  0.5323  0.2033 -0.0656
  838MOL0     C13041   7.207   0.741   1.091  0.4728 -0.1895 -0.4181
  838MOL0     C13042   7.243   0.621   1.160 -0.2177 -0.2511  0.8366
  838MOL0     O13043   7.036   0.461   1.440 -0.1913 -0.1050  0.3763
  838MOL0     C13044   7.327   0.253   1.460  0.1622 -0.3379 -0.6006
  838MOL0     C13045   7.395   0.160   1.535  0.1134 -0.3890 -0.4674
  838MOL0     N13046   7.781  -0.218   2.181  0.5255  0.1172 -0.4130
  838MOL0     N13047   7.825  -0.123   2.261  0.6363  0.7871 -0.1301
  838MOL0     C13048   9.050  -0.020   2.079 -0.0860 -0.7020  1.0629
  838MOL0     C13049   9.190  -0.018   2.063  0.4097  0.2834 -0.8002
  838MOL0     C13050   9.628  -0.057   2.072 -0.3438  0.2984  0.7289
  838MOL0     C13051   9.658  -0.150   2.179  0.6960 -0.2925 -0.0517
  838MOL0     C13052   9.789  -0.184   2.209 -0.0325 -0.1723 -0.2896
  838MOL0     C13053   9.895  -0.127   2.134  0.5489  0.0648  0.3959
  838MOL0     O13054  10.020  -0.175   2.169  0.5763 -0.0493  0.1798
  838MOL0     C13055  10.144  -0.139   2.101 -0.2984 -0.5755 -0.0238
  838MOL0     C13056  10.147  -0.171   1.944 -0.5312 -0.1052 -0.5255
  838MOL0     C13057  10.287  -0.179   1.882 -0.1243 -0.0500 -1.0880
  838MOL0     C13058  10.297  -0.206   1.733  1.0703 -0.0403 -0.2365
  838MOL0     C13059  10.235  -0.331   1.702  0.3530 -0.3296 -0.6416
  838MOL0     C13060  10.196  -0.434   1.649  0.4320 -0.3364  0.2680
  838MOL0     C13061   9.864  -0.032   2.034 -0.8764  0.4478  0.4996
  838MOL0     C13062   9.734  -0.001   1.996 -0.6440  0.5521  0.7343
  838MOL0     H13063   9.282  -0.057   2.386  1.1375  3.5917 -1.1922
  838MOL0     H13064   9.036  -0.055   2.418 -1.4136  0.4542 -0.2102
  838MOL0     H13065   8.817   0.149   2.141 -0.0722  0.2801 -3.1543
  838MOL0     H13066   8.763   0.015   2.051  0.2977  2.8930 -0.4592
  838MOL0     H13067   8.584  -0.035   2.209 -0.2615  0.1468 -1.6695
  838MOL0     H13068   8.662   0.082   2.325  0.8117 -0.0231 -0.2392
  838MOL0     H13069   8.590   0.268   2.169  1.8338  0.0890  0.0772
  838MOL0     H13070   8.544   0.144   2.052 -1.8913 -0.5641  0.2431
  838MOL0     H13071   8.386   0.071   2.260 -3.0341  1.1662  2.5170
  838MOL0     H13072   8.431   0.215   2.327 -1.1318 -2.8620  1.5808
  838MOL0     H13073   8.351   0.338   2.149  1.3549 -0.6903  2.5770
  838MOL0     H13074   8.317   0.219   2.039  3.4364 -0.1142  0.5517
  838MOL0     H13075   8.164   0.245   2.310 -1.2206  0.3269 -0.3617
  838MOL0     H13076   8.103   0.298   2.145 -1.0088 -1.0857 -1.0624
  838MOL0     H13077   8.106   0.064   2.071 -2.0457 -0.5126  0.5680
  838MOL0     H13078   8.163   0.013   2.240  0.1065  0.2928  0.5505
  838MOL0     H13079   7.909   0.170   2.197  0.3429 -0.2312  0.5416
  838MOL0     H13080   7.968   0.075   2.342  3.5450 -0.3244  0.0548
  838MOL0     H13081   7.920  -0.016   1.966 -1.4563 -1.6003 -1.4335
  838MOL0     H13082   7.819  -0.324   1.915  1.5352  0.7757  3.0934
  838MOL0     H13083   7.652  -0.306   1.980 -0.4514  1.6695  0.1839
  838MOL0     H13084   7.691  -0.237   1.733 -1.1696 -1.3810  0.5692
  838MOL0     H13085   7.787  -0.110   1.804 -0.1810 -0.2215 -1.4510
  838MOL0     H13086   7.594  -0.012   1.926 -2.2834 -0.6201  1.6978
  838MOL0     H13087   7.506  -0.160   1.898 -1.2357  2.7182  1.4904
  838MOL0     H13088   7.484  -0.128   1.671  1.1914 -0.1191  0.2027
  838MOL0     H13089   7.611  -0.005   1.670  0.8712 -3.0801 -0.8095
  838MOL0     H13090   7.210   0.170   1.817  1.4006 -2.0786  0.1708
  838MOL0     H13091   7.016   0.461   1.703 -0.1109 -0.0676 -0.1470
  838MOL0     H13092   6.948   0.295   1.703 -0.8872  1.5873 -0.5226
  838MOL0     H13093   7.060   0.345   1.824  2.1627  0.5046  0.2605
  838MOL0     H13094   6.937   0.476   1.190 -0.0075 -0.2167 -0.9185
  838MOL0     H13095   6.868   0.669   1.084 -0.2801 -0.6295  1.3056
  838MOL0     H13096   7.146   1.049   0.987 -3.4634  0.4986  0.9811
  838MOL0     H13097   7.200   0.914   0.879 -1.0267 -0.0845 -1.1845
  838MOL0     H13098   7.110   1.094   0.751  0.6299 -0.8408  0.3351
  838MOL0     H13099   6.989   0.971   0.740  3.0752 -1.5977 -1.7654
  838MOL0     H13100   6.979   1.198   0.961 -0.8488 -1.4004  2.2393
  838MOL0     H13101   6.846   1.104   0.886 -0.4159  0.8867  1.5920
  838MOL0     H13102   6.844   1.334   0.794  0.2134  1.5096 -3.6902
  838MOL0     H13103   7.005   1.309   0.731 -1.5106  2.2111  0.5003
  838MOL0     H13104   6.781   1.131   0.646 -0.7103  0.8970  2.3478
  838MOL0     H13105   6.947   1.154   0.579 -2.2478 -0.3988 -0.7222
  838MOL0     H13106   6.887   1.376   0.497 -1.6144  0.6026  0.3983
  838MOL0     H13107   6.786   1.239   0.432  0.3238  1.9085 -1.7749
  838MOL0     H13108   6.725   1.485   0.580  0.9886 -0.0333 -1.6117
  838MOL0     H13109   6.657   1.351   0.666  3.1822  0.2268  0.8708
  838MOL0     H13110   6.623   1.362   0.369  0.1182 -1.0663  0.2719
  838MOL0     H13111   6.533   1.473   0.474  1.2657  0.9329  0.8736
  838MOL0     H13112   7.288   0.802   1.053  0.5828 -0.2740 -0.3204
  838MOL0     H13113   7.348   0.600   1.175 -0.2432 -2.8239 -1.7391
  838MOL0     H13114   7.380   0.278   1.369 -2.0190  1.5940 -1.4354
  838MOL0     H13115   7.488   0.121   1.495  1.8641  2.5354  0.4652
  838MOL0     H13116   8.989  -0.033   1.991  1.2732  1.7672 -0.3294
  838MOL0     H13117   9.231  -0.036   1.964  2.7174  2.2441 -0.2920
  838MOL0     H13118   9.579  -0.194   2.239 -1.7437  2.0605 -1.3203
  838MOL0     H13119   9.813  -0.261   2.282 -1.6524 -0.4309 -0.0022
  838MOL0     H13120  10.154  -0.032   2.118  2.2138 -0.2589 -2.5931
  838MOL0     H13121  10.228  -0.186   2.153 -1.0915  0.3775  2.2467
  838MOL0     H13122  10.090  -0.103   1.879  3.7433  1.3188 -3.2410
  838MOL0     H13123  10.102  -0.271   1.944  2.7222 -1.7568  2.0093
  838MOL0     H13124  10.351  -0.250   1.936  0.7971  4.3383  4.6595
  838MOL0     H13125  10.337  -0.084   1.904 -0.4318  0.0937 -0.9966
  838MOL0     H13126  10.398  -0.197   1.691  2.0624 -0.0341  2.0157
  838MOL0     H13127  10.237  -0.136   1.674  1.3954 -1.1255 -1.9071
  838MOL0     H13128  10.165  -0.528   1.607 -0.3775 -0.6013  1.4307
  838MOL0     H13129   9.949   0.016   1.987 -0.7873  0.5403  0.7539
  838MOL0     H13130   9.705   0.076   1.924 -1.8971  0.9692  1.6459
  839MOL0     O13131   7.414   5.108   0.176 -0.3904 -0.7378  0.2175
  839MOL0     C13132   7.435   5.085   0.293  0.5978 -1.0422 -0.3340
  839MOL0     O13133   7.334   5.093   0.383  0.1473  0.6588 -0.8753
  839MOL0     C13134   7.226   5.169   0.355  0.3844  0.4438 -0.7678
  839MOL0     C13135   7.102   5.106   0.330  0.0221  1.0284  0.2630
  839MOL0     C13136   6.994   5.185   0.311 -0.4701  0.4236 -0.3294
  839MOL0     C13137   6.994   5.329   0.315 -0.1651 -0.6398  0.4944
  839MOL0     O13138   6.874   5.398   0.311 -0.3329  0.1204  0.2889
  839MOL0     C13139   6.865   5.533   0.358  0.6901  0.4561 -0.1384
  839MOL0     C13140   6.727   5.569   0.414 -0.2039 -0.5598 -0.4237
  839MOL0     C13141   6.606   5.566   0.312  0.1878  0.1576 -0.2616
  839MOL0     C13142   6.561   5.424   0.287 -0.1987  0.6908  0.9372
  839MOL0     C13143   6.443   5.413   0.197 -0.5493  0.5423 -0.3434
  839MOL0     C13144   6.415   5.254   0.170 -0.3807 -1.4479 -0.2120
  839MOL0     C13145   6.312   5.250   0.058 -0.2219  0.3797 -0.8003
  839MOL0     C13146   6.179   5.199   0.121  0.0988 -0.1456  1.2013
  839MOL0     N13147   6.098   5.315   0.152  0.2183 -0.2198 -0.1757
  839MOL0     C13148   6.089   5.374   0.272 -1.2035 -0.1815  0.5778
  839MOL0     C13149   6.036   5.496   0.246 -0.8524  0.0243  0.4749
  839MOL0     C13150   6.051   5.599   0.355 -0.2032 -0.1147  0.1716
  839MOL0     C13151   5.908   5.659   0.379  0.3861 -0.0411 -0.8258
  839MOL0     C13152   5.903   5.740   0.511 -0.2896  0.0101 -0.5899
  839MOL0     C13153   5.762   5.775   0.557  0.5606 -0.4625  0.6954
  839MOL0     O13154   5.693   5.839   0.446  0.3734  0.2816  0.2586
  839MOL0     C13155   5.557   5.861   0.456 -0.1352  0.6199 -0.0235
  839MOL0     C13156   5.494   5.898   0.572 -0.6729 -0.4339  0.0682
  839MOL0     C13157   5.356   5.929   0.574 -0.6988 -0.5915  0.1155
  839MOL0     C13158   5.291   5.931   0.710 -0.0678  0.6737 -1.3919
  839MOL0     C13159   5.288   5.940   0.453 -0.1956 -0.2957  0.6027
  839MOL0     C13160   5.144   5.970   0.448 -0.4592  0.7184 -0.0241
  839MOL0     O13161   5.073   5.916   0.341  0.5341 -1.5557 -0.0879
  839MOL0     C13162   4.947   5.947   0.321  0.7094 -0.0507  0.9703
  839MOL0     C13163   4.843   5.948   0.421 -0.8411 -0.3604  0.0649
  839MOL0     C13164   4.706   5.947   0.394  0.2596 -0.0586  0.7467
  839MOL0     C13165   4.661   5.939   0.256  0.0199  0.2690  0.1998
  839MOL0     O13166   4.526   5.919   0.228  0.0232  0.5750 -0.5743
  839MOL0     C13167   4.479   5.985   0.105  0.1157 -0.1515  0.4867
  839MOL0     C13168   4.328   5.983   0.085 -0.1568 -0.7231 -0.7412
  839MOL0     C13169   4.298   6.062  -0.048 -0.4452 -0.2377  0.1086
  839MOL0     C13170   4.147   6.110  -0.057  0.3638  0.2494 -0.8627
  839MOL0     C13171   4.127   6.194  -0.175  0.1934 -0.2202 -0.3997
  839MOL0     C13172   3.985   6.255  -0.161 -0.1704 -0.2013  0.7877
  839MOL0     C13173   3.949   6.355  -0.279 -0.0802  0.3696 -0.2500
  839MOL0     C13174   3.796   6.387  -0.295 -0.4800  0.8157  1.2421
  839MOL0    Cl13175   3.727   6.441  -0.147 -0.1744 -0.1847  0.1023
  839MOL0     C13176   4.760   5.932   0.153 -0.6022  0.6972  0.0208
  839MOL0     C13177   4.898   5.943   0.189 -0.1903 -0.6086 -1.5233
  839MOL0     O13178   5.103   6.060   0.523 -0.4793 -0.3559 -0.0542
  839MOL0     C13179   5.359   5.923   0.334 -0.1054 -0.8714  0.3298
  839MOL0     C13180   5.490   5.880   0.341 -0.3992  0.6461 -0.6061
  839MOL0     N13181   6.002   5.507   0.112 -0.6067 -0.4918 -0.7757
  839MOL0     N13182   6.034   5.396   0.063  0.1102 -0.8251  0.1843
  839MOL0     C13183   7.121   5.388   0.329 -0.1728 -0.0550  0.7763
  839MOL0     C13184   7.237   5.308   0.362 -0.1414  0.3183 -0.2818
  839MOL0     C13185   7.564   5.063   0.341 -0.4078 -0.7031 -0.5453
  839MOL0     C13186   7.595   5.093   0.476  0.1918  1.3156  0.7731
  839MOL0     C13187   7.726   5.075   0.522  0.5182  0.0725 -0.1497
  839MOL0     C13188   7.827   5.021   0.439  0.0434  0.1019  0.4258
  839MOL0     O13189   7.951   5.021   0.501 -0.6717  0.1955  0.5135
  839MOL0     C13190   8.071   4.990   0.421 -0.0401 -0.0418 -0.3354
  839MOL0     C13191   8.190   4.981   0.520  0.3623  0.1135  0.3816
  839MOL0     C13192   8.234   5.103   0.592 -0.0432 -0.2061 -0.3884
  839MOL0     C13193   8.183   5.088   0.739  1.0720 -0.2080 -0.7207
  839MOL0     C13194   8.198   5.214   0.810 -1.1552 -0.0106 -0.0042
  839MOL0     C13195   8.205   5.327   0.860  0.3228 -0.2795 -0.1923
  839MOL0     C13196   7.799   4.984   0.299  0.3597 -0.1600 -1.1667
  839MOL0     C13197   7.664   5.012   0.258  0.1368  0.3000 -0.0176
  839MOL0     H13198   7.093   4.998   0.330 -0.0797  1.0297 -0.7585
  839MOL0     H13199   6.900   5.131   0.302  0.4174 -1.9535  2.7326
  839MOL0     H13200   6.943   5.557   0.431  0.5879  0.9826 -0.1968
  839MOL0     H13201   6.886   5.600   0.274  0.6792 -1.7435 -1.9944
  839MOL0     H13202   6.710   5.502   0.498  1.4914  1.6171  1.8103
  839MOL0     H13203   6.744   5.667   0.459 -0.4683 -1.0130  0.6768
  839MOL0     H13204   6.524   5.630   0.347 -3.0294 -2.0527 -3.1247
  839MOL0     H13205   6.638   5.601   0.214  0.5368 -0.6698 -0.4478
  839MOL0     H13206   6.648   5.373   0.245 -0.2520 -0.5342  2.2729
  839MOL0     H13207   6.537   5.366   0.376 -1.7158 -0.4091 -0.1381
  839MOL0     H13208   6.349   5.453   0.238 -0.7855  1.0612 -1.3612
  839MOL0     H13209   6.460   5.473   0.107  2.8586  0.6443  0.2515
  839MOL0     H13210   6.510   5.213   0.136 -1.2334 -1.9133 -2.1581
  839MOL0     H13211   6.385   5.199   0.259  4.6482 -2.0589  1.4115
  839MOL0     H13212   6.287   5.337  -0.004 -0.2644  0.7495 -0.2739
  839MOL0     H13213   6.336   5.168  -0.010  2.1846 -0.0210  0.4519
  839MOL0     H13214   6.187   5.126   0.202  0.3888 -5.1622 -2.7716
  839MOL0     H13215   6.126   5.134   0.050  3.0294  0.5357 -1.8807
  839MOL0     H13216   6.128   5.339   0.367  2.0704  0.6238 -0.3608
  839MOL0     H13217   6.084   5.562   0.452  0.2590  1.5220  0.6818
  839MOL0     H13218   6.125   5.676   0.331  0.2922 -1.1686 -1.8745
  839MOL0     H13219   5.835   5.578   0.380 -0.9794  1.1198 -1.6027
  839MOL0     H13220   5.890   5.725   0.294  0.1266  1.1580  0.1274
  839MOL0     H13221   5.956   5.834   0.495 -0.7013  0.0938 -1.5338
  839MOL0     H13222   5.960   5.688   0.589 -1.0477  0.4381  0.2717
  839MOL0     H13223   5.777   5.856   0.630 -0.0271 -0.0404  0.3561
  839MOL0     H13224   5.696   5.696   0.591 -0.6363  0.6568  1.0615
  839MOL0     H13225   5.553   5.895   0.663  0.8906 -0.9583 -0.9284
  839MOL0     H13226   5.277   6.031   0.754 -1.1920 -0.1116  0.1382
  839MOL0     H13227   5.196   5.877   0.703  0.5687 -0.5913 -0.6482
  839MOL0     H13228   5.350   5.873   0.782 -0.0968 -2.1313 -3.4755
  839MOL0     H13229   4.862   5.932   0.527 -0.0445  1.7226  0.2703
  839MOL0     H13230   4.631   5.935   0.472 -0.7366 -0.0600 -0.1741
  839MOL0     H13231   4.515   6.088   0.108  0.7351 -0.3602  0.4902
  839MOL0     H13232   4.518   5.941   0.012 -1.8398  2.3892 -1.6975
  839MOL0     H13233   4.288   5.881   0.081 -1.7397 -0.1607 -0.1639
  839MOL0     H13234   4.283   6.048   0.160 -1.2177 -0.5928 -1.4675
  839MOL0     H13235   4.315   5.995  -0.133  1.1059 -0.4185  0.5225
  839MOL0     H13236   4.363   6.149  -0.053  0.1038 -0.5724  0.9950
  839MOL0     H13237   4.076   6.027  -0.054  0.7899 -0.2757 -3.2923
  839MOL0     H13238   4.136   6.179   0.028  3.9172 -2.4623  2.1039
  839MOL0     H13239   4.133   6.147  -0.274 -0.6353 -0.2067 -0.4693
  839MOL0     H13240   4.204   6.271  -0.172 -0.0527 -0.0143  0.9870
  839MOL0     H13241   3.911   6.174  -0.159  0.9471 -1.2327  1.1282
  839MOL0     H13242   3.987   6.312  -0.067  2.9847 -0.6512  1.0953
  839MOL0     H13243   3.978   6.311  -0.375 -0.3884  1.3746 -0.8183
  839MOL0     H13244   4.004   6.449  -0.277 -0.5427  0.6702 -1.2555
  839MOL0     H13245   3.749   6.296  -0.333  0.8027  0.4840  0.3627
  839MOL0     H13246   3.791   6.468  -0.369 -0.6481  0.5305  0.9351
  839MOL0     H13247   4.728   5.934   0.049 -0.4431 -1.2358 -0.1032
  839MOL0     H13248   4.968   5.958   0.107  0.5149  5.4506 -0.2630
  839MOL0     H13249   5.305   5.919   0.240  0.4756 -0.9547 -0.0041
  839MOL0     H13250   5.541   5.859   0.247  0.5063  1.7583 -0.3848
  839MOL0     H13251   7.123   5.495   0.348 -1.2946 -0.2748  2.3448
  839MOL0     H13252   7.321   5.361   0.406 -2.0080  2.4021  0.9952
  839MOL0     H13253   7.515   5.122   0.544 -1.5228  0.1948 -0.6848
  839MOL0     H13254   7.734   5.101   0.627 -0.1376 -1.6964  0.3680
  839MOL0     H13255   8.069   4.896   0.365  1.5299 -0.0690 -0.3981
  839MOL0     H13256   8.081   5.077   0.355 -1.5303 -0.6782 -1.4652
  839MOL0     H13257   8.272   4.947   0.455  0.1701 -1.4282  0.8978
  839MOL0     H13258   8.185   4.901   0.594  0.6833  2.0647  2.6076
  839MOL0     H13259   8.188   5.192   0.549  1.3558  0.9395  0.3819
  839MOL0     H13260   8.342   5.103   0.571 -0.2566 -4.1627 -2.4552
  839MOL0     H13261   8.230   5.005   0.792  1.8073  1.4984  1.4287
  839MOL0     H13262   8.077   5.061   0.744  0.8726  0.6549  3.0365
  839MOL0     H13263   8.201   5.424   0.905  1.0888  0.1411 -1.0047
  839MOL0     H13264   7.876   4.959   0.227 -0.9174 -0.9782 -2.2966
  839MOL0     H13265   7.639   4.990   0.154  0.7961  0.9908 -0.3317
  840MOL0     O13266   2.216   6.468   1.746 -0.2009 -0.3228 -0.6380
  840MOL0     C13267   2.273   6.507   1.652  0.2248 -0.5051  0.6787
  840MOL0     O13268   2.224   6.524   1.529 -0.2649  0.0155  0.1313
  840MOL0     C13269   2.084   6.526   1.501  0.2192 -0.0501  0.0436
  840MOL0     C13270   1.981   6.580   1.591  0.2222 -0.1011 -0.7580
  840MOL0     C13271   1.847   6.591   1.560 -0.1630  0.6600  0.7915
  840MOL0     C13272   1.809   6.553   1.432 -0.1380  0.3454  0.0392
  840MOL0     O13273   1.682   6.559   1.386  0.4434  0.6733  0.6434
  840MOL0     C13274   1.589   6.514   1.489  0.2485 -0.4248 -0.7185
  840MOL0     C13275   1.459   6.485   1.414 -0.1135 -0.2457 -0.4670
  840MOL0     C13276   1.362   6.436   1.526 -0.4834  0.5334  0.1151
  840MOL0     C13277   1.215   6.438   1.467  0.9476 -0.5549 -0.2966
  840MOL0     C13278   1.099   6.396   1.562  0.2913  0.0929 -0.6896
  840MOL0     C13279   0.968   6.439   1.496 -0.9098 -0.0035 -0.4828
  840MOL0     C13280   0.845   6.368   1.548  0.1539 -1.1191 -0.5204
  840MOL0     C13281   0.727   6.400   1.464  0.3026  0.7040 -0.9562
  840MOL0     N13282   0.710   6.307   1.354 -0.3840  0.1960 -0.0628
  840MOL0     C13283   0.774   6.319   1.230  0.5972  0.3305 -0.3774
  840MOL0     C13284   0.726   6.212   1.153  0.0854  0.3746 -0.3260
  840MOL0     C13285   0.767   6.193   1.012 -0.0611  0.3792 -0.0304
  840MOL0     C13286   0.909   6.155   1.003 -0.4396  0.8408 -0.0541
  840MOL0     C13287   0.951   6.158   0.851  0.2329  0.1132 -0.2700
  840MOL0     C13288   1.096   6.127   0.835  0.0650 -0.0243 -0.5495
  840MOL0     O13289   1.178   6.199   0.929  0.0144 -0.3156  1.2559
  840MOL0     C13290   1.317   6.175   0.922 -0.2392 -0.1516 -0.7581
  840MOL0     C13291   1.397   6.261   0.997 -0.5263  0.1642 -0.2176
  840MOL0     C13292   1.545   6.261   1.005 -0.4744 -1.5103 -0.6621
  840MOL0     C13293   1.608   6.367   1.088 -0.6474  0.0886 -0.3522
  840MOL0     C13294   1.609   6.139   0.949  0.7346  0.0439  0.4591
  840MOL0     C13295   1.760   6.124   0.936  0.4045 -1.2390  0.1903
  840MOL0     O13296   1.807   6.022   0.852  0.8507 -0.3465  0.0695
  840MOL0     C13297   1.940   5.998   0.860 -0.5113  0.9132  0.3080
  840MOL0     C13298   2.004   5.952   0.974 -0.0045  0.4040 -0.6339
  840MOL0     C13299   2.139   5.921   0.977 -0.7791  0.4437  0.2147
  840MOL0     C13300   2.207   5.934   0.859  0.5593 -0.1835 -0.0652
  840MOL0     O13301   2.340   5.888   0.859 -0.1529 -0.0404  0.0620
  840MOL0     C13302   2.427   5.886   0.973  0.2159 -0.0589  1.0033
  840MOL0     C13303   2.451   5.744   1.035 -0.5066  0.4806  0.2013
  840MOL0     C13304   2.514   5.639   0.942  0.1503  0.2816  0.2574
  840MOL0     C13305   2.666   5.666   0.905 -1.1323 -0.2635 -0.3172
  840MOL0     C13306   2.700   5.662   0.752 -0.0143 -0.5980  0.4915
  840MOL0     C13307   2.684   5.530   0.683 -0.2444  0.3336 -0.3620
  840MOL0     C13308   2.698   5.539   0.524 -0.7686  0.2251 -0.2099
  840MOL0     C13309   2.592   5.635   0.454  0.6652  1.1042 -0.4311
  840MOL0    Cl13310   2.635   5.642   0.283 -0.0938  0.0931  0.2916
  840MOL0     C13311   2.146   5.986   0.749 -0.1179  0.2594 -0.0581
  840MOL0     C13312   2.008   6.020   0.745  0.2330  0.3523  0.8235
  840MOL0     O13313   1.827   6.206   0.994 -0.0106 -0.3486 -0.2019
  840MOL0     C13314   1.528   6.046   0.885  0.5949 -0.1580  0.3658
  840MOL0     C13315   1.387   6.065   0.867  0.5728 -0.5676  0.3223
  840MOL0     N13316   0.657   6.134   1.240  0.1336 -0.6481 -0.8369
  840MOL0     N13317   0.644   6.194   1.356  0.4324  0.4491  0.2065
  840MOL0     C13318   1.908   6.501   1.337 -0.3144 -0.0244 -0.5661
  840MOL0     C13319   2.041   6.488   1.372  0.9582  0.3756  0.3443
  840MOL0     C13320   2.415   6.537   1.670  0.1386 -0.5963  0.3086
  840MOL0     C13321   2.482   6.517   1.794  1.2859 -0.1594 -0.5144
  840MOL0     C13322   2.620   6.529   1.806 -0.0509 -0.6606 -0.3706
  840MOL0     C13323   2.695   6.559   1.695  0.2775  0.5900 -0.1602
  840MOL0     O13324   2.830   6.571   1.719 -0.5549 -0.0392  0.2884
  840MOL0     C13325   2.910   6.597   1.599 -0.6056  0.9530 -0.2938
  840MOL0     C13326   3.053   6.596   1.641  0.0366  0.0275  0.3885
  840MOL0     C13327   3.158   6.680   1.557  0.1408 -0.7028 -0.0560
  840MOL0     C13328   3.161   6.833   1.583  0.2840  1.2985 -0.4511
  840MOL0     C13329   3.288   6.888   1.543  0.0245 -0.1459 -0.1289
  840MOL0     C13330   3.393   6.938   1.510 -0.7395  0.2298  0.6297
  840MOL0     C13331   2.633   6.589   1.568  0.0758  0.7296 -0.5896
  840MOL0     C13332   2.498   6.572   1.562  0.0469  0.1112  0.0300
  840MOL0     H13333   2.016   6.624   1.684 -0.7989 -1.1612  0.1579
  840MOL0     H13334   1.779   6.638   1.631 -4.0405 -1.8277 -0.9473
  840MOL0     H13335   1.628   6.428   1.543  2.1027  0.4398 -0.6092
  840MOL0     H13336   1.571   6.602   1.551  1.0946 -0.2404 -0.7302
  840MOL0     H13337   1.431   6.572   1.354  1.2806 -0.3656 -1.3639
  840MOL0     H13338   1.470   6.405   1.340  2.1200  0.1546 -0.6517
  840MOL0     H13339   1.395   6.341   1.568 -1.4968 -0.6848 -1.6923
  840MOL0     H13340   1.350   6.513   1.603 -3.3790  1.1920 -0.8507
  840MOL0     H13341   1.185   6.537   1.433 -1.3773 -1.9570 -2.7653
  840MOL0     H13342   1.228   6.373   1.380  2.9317 -3.2842  1.8445
  840MOL0     H13343   1.090   6.293   1.599  0.7666  0.5463  0.7335
  840MOL0     H13344   1.103   6.453   1.655  1.1243 -1.4364  0.2539
  840MOL0     H13345   0.954   6.548   1.504 -2.1025  0.0267 -2.3866
  840MOL0     H13346   0.970   6.414   1.390 -1.6537 -1.9874 -0.0689
  840MOL0     H13347   0.857   6.260   1.559 -1.2714 -1.1111  1.6809
  840MOL0     H13348   0.831   6.396   1.653  0.8381 -0.8832 -0.4863
  840MOL0     H13349   0.730   6.503   1.425  1.2212  0.9656 -0.2233
  840MOL0     H13350   0.632   6.385   1.516  0.2856 -0.2689 -1.2460
  840MOL0     H13351   0.832   6.402   1.192 -0.4720  1.7088  0.8951
  840MOL0     H13352   0.707   6.114   0.966  0.1433 -1.4882  2.7153
  840MOL0     H13353   0.756   6.292   0.965  0.3003  0.9246  1.0136
  840MOL0     H13354   0.930   6.058   1.050 -0.3749  1.3414  0.9768
  840MOL0     H13355   0.965   6.231   1.057  0.1546 -0.3921  1.1141
  840MOL0     H13356   0.932   6.261   0.817 -1.5344  0.3339  1.1899
  840MOL0     H13357   0.884   6.097   0.790 -1.1049 -0.8880  2.0590
  840MOL0     H13358   1.124   6.155   0.733  0.6261  1.3801 -0.0402
  840MOL0     H13359   1.107   6.019   0.843 -0.4449 -0.2986 -2.8431
  840MOL0     H13360   1.350   6.342   1.051 -0.1339  1.5122 -1.8137
  840MOL0     H13361   1.542   6.436   1.141  1.0362  0.2788  1.6388
  840MOL0     H13362   1.680   6.324   1.159 -0.7569  0.1189 -0.2221
  840MOL0     H13363   1.669   6.429   1.023 -0.8501 -0.3437 -0.9608
  840MOL0     H13364   1.947   5.951   1.067  2.8419 -3.2185  1.3244
  840MOL0     H13365   2.178   5.861   1.058 -3.8795 -1.0139  0.7677
  840MOL0     H13366   2.523   5.927   0.940 -0.7840  1.4471 -0.1399
  840MOL0     H13367   2.382   5.955   1.045 -1.7663  1.7857 -1.8188
  840MOL0     H13368   2.516   5.743   1.123 -0.1532 -4.2974  0.1357
  840MOL0     H13369   2.351   5.707   1.059 -0.8867 -0.2844 -2.2632
  840MOL0     H13370   2.459   5.641   0.847  0.4484 -2.0655 -0.0316
  840MOL0     H13371   2.492   5.538   0.979 -1.8516 -0.0118 -1.5258
  840MOL0     H13372   2.691   5.769   0.931 -2.6565 -0.4050  1.9302
  840MOL0     H13373   2.732   5.601   0.965 -0.8499  0.7999  0.5511
  840MOL0     H13374   2.803   5.695   0.734 -0.4277  0.9667  0.8673
  840MOL0     H13375   2.628   5.729   0.707 -1.1880 -1.4079  1.1061
  840MOL0     H13376   2.743   5.449   0.725 -1.4456  0.5286  1.8224
  840MOL0     H13377   2.582   5.491   0.695  0.2098 -0.4927  1.0522
  840MOL0     H13378   2.682   5.442   0.477 -1.4002  0.1740  0.1042
  840MOL0     H13379   2.800   5.576   0.506 -1.6780  1.9416 -2.1078
  840MOL0     H13380   2.600   5.734   0.499  0.6185  1.8903 -2.0671
  840MOL0     H13381   2.492   5.592   0.453  0.3228  1.8748 -1.4198
  840MOL0     H13382   2.193   6.010   0.654 -0.8476  0.7433 -0.3134
  840MOL0     H13383   1.963   6.052   0.651 -0.5943  1.1879  1.4916
  840MOL0     H13384   1.567   5.952   0.848  0.2505 -0.7085  1.3773
  840MOL0     H13385   1.330   5.981   0.829  0.1092 -1.2650  2.4260
  840MOL0     H13386   1.888   6.484   1.232  2.7827 -0.5613 -1.1542
  840MOL0     H13387   2.102   6.444   1.294 -0.6906  1.5179 -1.6634
  840MOL0     H13388   2.419   6.481   1.875 -1.4921 -0.0790 -2.4660
  840MOL0     H13389   2.671   6.513   1.900  1.4661  0.3681 -0.9668
  840MOL0     H13390   2.895   6.522   1.522 -1.0758  0.1930  0.5110
  840MOL0     H13391   2.894   6.694   1.551  1.0144  1.1826 -0.4398
  840MOL0     H13392   3.093   6.494   1.636 -0.6720 -0.3051  1.1209
  840MOL0     H13393   3.068   6.629   1.744  1.8238  1.3299 -0.2450
  840MOL0     H13394   3.132   6.650   1.455 -2.6764  0.7880  0.1186
  840MOL0     H13395   3.256   6.639   1.584  0.4483 -0.4166 -0.7254
  840MOL0     H13396   3.141   6.846   1.690  1.7015 -2.5934  0.4337
  840MOL0     H13397   3.086   6.872   1.514 -3.9272 -2.3866  1.5327
  840MOL0     H13398   3.489   6.963   1.469 -1.2569  1.2577 -0.0042
  840MOL0     H13399   2.693   6.614   1.481  2.6063 -1.8739  0.2711
  840MOL0     H13400   2.456   6.583   1.463  1.6493  3.7123 -0.3983
  841MOL0     O13401   4.362   8.876   9.611  0.2713 -0.2939  0.0510
  841MOL0     C13402   4.405   8.794   9.698 -0.5196  0.1010 -0.0157
  841MOL0     O13403   4.332   8.751   9.802 -0.9841  0.6730 -0.1132
  841MOL0     C13404   4.217   8.813   9.824  0.2625  0.3794 -0.8243
  841MOL0     C13405   4.193   8.903   9.927 -0.7734 -0.3226 -0.2259
  841MOL0     C13406   4.062   8.953   9.950 -0.2354  0.4388 -0.4813
  841MOL0     C13407   3.962   8.936   9.851 -0.1783  0.3201 -0.8376
  841MOL0     O13408   3.838   8.993   9.857  0.0817  0.6015 -0.7338
  841MOL0     C13409   3.799   9.102   9.949 -0.6354  0.4643  0.6500
  841MOL0     C13410   3.656   9.139   9.913  0.2325  0.5122  0.3164
  841MOL0     C13411   3.595   9.253   9.998 -0.7144 -0.3183 -0.1973
  841MOL0     C13412   3.457   9.291   9.965  0.1713  0.3398 -0.5034
  841MOL0     C13413   3.392   9.394  10.063 -0.8521 -0.0636  1.0440
  841MOL0     C13414   3.250   9.447  10.018 -0.5855 -0.6019  0.5365
  841MOL0     C13415   3.262   9.557   9.906 -0.6295 -0.3257 -0.7368
  841MOL0     C13416   3.301   9.699   9.952 -0.0835  0.5924  0.0142
  841MOL0     N13417   3.204   9.772  10.027 -0.5019 -0.3462 -0.1333
  841MOL0     C13418   3.092   9.821   9.975 -0.4293 -0.4431 -0.5025
  841MOL0     C13419   3.022   9.852  10.080  0.0874 -0.4439 -1.0068
  841MOL0     C13420   2.882   9.911  10.073 -0.0628 -0.6752 -0.2578
  841MOL0     C13421   2.895  10.068  10.081  0.3158  0.0371 -0.0838
  841MOL0     C13422   2.757  10.138  10.056  0.1191 -0.4333  0.0612
  841MOL0     C13423   2.761  10.293  10.014  0.1426  0.7674 -0.2308
  841MOL0     O13424   2.632  10.323   9.952  0.5317 -0.0574  0.1676
  841MOL0     C13425   2.519  10.327  10.025 -0.7190 -0.2914 -0.4401
  841MOL0     C13426   2.514  10.337  10.167 -0.0224 -0.4873  0.7191
  841MOL0     C13427   2.398  10.358  10.239  0.4204  0.0407 -0.0516
  841MOL0     C13428   2.419  10.366  10.385 -0.5062 -0.4386 -0.0139
  841MOL0     C13429   2.276  10.358  10.161 -0.0918  0.4724 -0.6205
  841MOL0     C13430   2.147  10.395  10.225 -0.7771  0.3599  0.0877
  841MOL0     O13431   2.036  10.353  10.166 -0.3312  0.2941  0.2590
  841MOL0     C13432   1.916  10.411  10.209 -0.2432 -0.4828 -0.4311
  841MOL0     C13433   1.869  10.420  10.347  0.1395 -1.2368 -0.3292
  841MOL0     C13434   1.746  10.489  10.371 -1.0836  0.2318 -0.2500
  841MOL0     C13435   1.663  10.541  10.275  0.0841 -0.3913  0.6038
  841MOL0     O13436   1.540  10.597  10.310 -0.3141  1.0224  0.5717
  841MOL0     C13437   1.418  10.550  10.238  0.1143  0.2595 -0.8678
  841MOL0     C13438   1.295  10.622  10.272 -0.3118  0.4267 -0.6409
  841MOL0     C13439   1.179  10.563  10.199 -0.1692 -0.3414  0.0508
  841MOL0     C13440   1.048  10.643  10.235  0.8713  0.7887 -0.0754
  841MOL0     C13441   0.935  10.572  10.162  0.5940 -0.5461  0.2633
  841MOL0     C13442   0.802  10.652  10.171  0.1068 -0.7851  0.5255
  841MOL0     C13443   0.688  10.583  10.112  0.2683  0.7453  0.4658
  841MOL0     C13444   0.557  10.663  10.111 -0.7802 -0.7558  0.0759
  841MOL0    Cl13445   0.518  10.720  10.282  0.6812 -0.3300 -0.1604
  841MOL0     C13446   1.699  10.506  10.144  0.0011  0.0306  0.0310
  841MOL0     C13447   1.825  10.444  10.105  0.8475  0.4972 -0.4572
  841MOL0     O13448   2.155  10.462  10.327  0.0162  0.4800 -0.1645
  841MOL0     C13449   2.284  10.331  10.018 -0.0946 -0.5225  0.1711
  841MOL0     C13450   2.401  10.318   9.950 -0.1168 -0.1930 -0.1935
  841MOL0     N13451   3.088   9.829  10.200  0.0452 -0.6008  0.1572
  841MOL0     N13452   3.209   9.787  10.161  0.4693 -0.2274 -0.8880
  841MOL0     C13453   3.988   8.848   9.748 -0.7896  0.2545 -0.1671
  841MOL0     C13454   4.110   8.783   9.736  0.3818 -0.5297  0.0819
  841MOL0     C13455   4.546   8.759   9.696 -0.7195 -0.3649 -1.0060
  841MOL0     C13456   4.616   8.777   9.579  0.0126  0.2168  0.6435
  841MOL0     C13457   4.754   8.759   9.567  0.1407  0.0441  0.2354
  841MOL0     C13458   4.831   8.719   9.681  0.5692 -0.4009 -0.0216
  841MOL0     O13459   4.966   8.723   9.672  0.1221  0.3994 -0.3870
  841MOL0     C13460   5.037   8.730   9.797 -0.5058  0.0101  0.2035
  841MOL0     C13461   5.165   8.817   9.776  0.6293 -1.2215 -0.0544
  841MOL0     C13462   5.244   8.827   9.906 -0.0621 -0.1243 -0.5405
  841MOL0     C13463   5.300   8.703   9.962 -0.7301  0.4701 -0.1804
  841MOL0     C13464   5.397   8.631   9.876 -0.0478  0.0964  0.5458
  841MOL0     C13465   5.471   8.557   9.816 -0.0701  0.5752 -0.0954
  841MOL0     C13466   4.752   8.683   9.797  0.2291 -0.4433  0.9350
  841MOL0     C13467   4.618   8.716   9.810  0.0807  0.8015 -0.1996
  841MOL0     H13468   4.270   8.929   9.999  0.3882 -1.7658 -0.8936
  841MOL0     H13469   4.031   9.007  10.039 -1.2970  0.2913 -0.7485
  841MOL0     H13470   3.821   9.075  10.053 -0.3910 -0.0644  0.4633
  841MOL0     H13471   3.860   9.192   9.936 -2.2291  1.7021  1.3468
  841MOL0     H13472   3.655   9.179   9.811 -0.0628 -2.1914 -0.8501
  841MOL0     H13473   3.592   9.050   9.906 -0.3800  1.0799 -2.8143
  841MOL0     H13474   3.602   9.218  10.101 -2.5549  0.1465  0.1224
  841MOL0     H13475   3.657   9.343   9.992  0.7552 -1.2201  0.7837
  841MOL0     H13476   3.448   9.333   9.865 -2.1535 -0.8779 -0.8759
  841MOL0     H13477   3.400   9.197   9.968  1.9951 -0.8546 -1.7313
  841MOL0     H13478   3.386   9.346  10.161  3.3472 -0.2733  1.3957
  841MOL0     H13479   3.462   9.474  10.090 -0.5131  0.2269 -0.5475
  841MOL0     H13480   3.187   9.368   9.976  0.5541 -1.2492 -0.0365
  841MOL0     H13481   3.200   9.493  10.103  1.2767  3.3431 -0.2828
  841MOL0     H13482   3.328   9.511   9.832 -3.9012 -3.3066 -2.1379
  841MOL0     H13483   3.167   9.577   9.854 -2.2768 -0.2395  2.0867
  841MOL0     H13484   3.340   9.754   9.867 -1.8199  0.0486 -1.1840
  841MOL0     H13485   3.389   9.684  10.016  0.1379 -1.6934 -0.7340
  841MOL0     H13486   3.069   9.820   9.869 -1.5860  1.8959 -0.3342
  841MOL0     H13487   2.820   9.884   9.987 -2.0041 -1.4423  1.3016
  841MOL0     H13488   2.826   9.879  10.162 -1.1047  0.1126 -0.6081
  841MOL0     H13489   2.963  10.104  10.003 -1.3186 -0.4878 -1.8384
  841MOL0     H13490   2.939  10.092  10.178 -0.9453  0.2828  0.4491
  841MOL0     H13491   2.703  10.124  10.150  0.7420 -0.3083  0.4448
  841MOL0     H13492   2.696  10.088   9.980 -0.2160 -0.5543  0.4086
  841MOL0     H13493   2.850  10.307   9.953 -1.2318  2.4349 -1.9862
  841MOL0     H13494   2.789  10.355  10.100  1.6564  1.7265 -1.3764
  841MOL0     H13495   2.603  10.350  10.228  0.5648 -2.4120  0.3443
  841MOL0     H13496   2.362  10.297  10.448  0.9830 -1.4417  0.2922
  841MOL0     H13497   2.525  10.352  10.411 -0.1633  0.4085 -0.9131
  841MOL0     H13498   2.387  10.468  10.406  0.2525  0.1109 -1.4059
  841MOL0     H13499   1.931  10.380  10.426  1.3716 -4.1024 -2.5694
  841MOL0     H13500   1.712  10.510  10.472  1.1548 -3.6685  1.5238
  841MOL0     H13501   1.428  10.554  10.129 -0.8796  2.2336 -0.9312
  841MOL0     H13502   1.406  10.446  10.268 -3.7883  0.7120 -0.4100
  841MOL0     H13503   1.286  10.622  10.381  3.0870  0.8475 -0.2608
  841MOL0     H13504   1.312  10.723  10.235  1.2241 -0.1495 -1.5576
  841MOL0     H13505   1.162  10.456  10.219 -1.6425 -0.3998 -1.2887
  841MOL0     H13506   1.208  10.561  10.093  0.8270  0.1890  0.3060
  841MOL0     H13507   1.030  10.659  10.342  1.0677 -0.0082  0.0790
  841MOL0     H13508   1.060  10.742  10.190  5.2280  0.4904  0.0723
  841MOL0     H13509   0.934  10.471  10.204 -0.6631 -0.2368  1.0027
  841MOL0     H13510   0.962  10.570  10.056 -0.8713 -0.2821 -0.1370
  841MOL0     H13511   0.779  10.679  10.275  3.5759 -0.1566  1.2480
  841MOL0     H13512   0.825  10.745  10.118  4.8539 -0.8438  1.9517
  841MOL0     H13513   0.673  10.491  10.169 -1.1890  1.6531  1.6376
  841MOL0     H13514   0.709  10.566  10.006  6.0507  0.4692  1.3351
  841MOL0     H13515   0.487  10.594  10.063  0.0554 -2.0969  0.7325
  841MOL0     H13516   0.577  10.748  10.045  2.4391 -0.8430  0.7777
  841MOL0     H13517   1.634  10.531  10.061  0.3199  0.8020  0.0038
  841MOL0     H13518   1.843  10.416  10.002 -0.9344 -1.9705 -0.2072
  841MOL0     H13519   2.191  10.325   9.962  1.1116  1.3477 -2.2134
  841MOL0     H13520   2.406  10.301   9.843 -2.4664  1.7169 -0.6921
  841MOL0     H13521   3.911   8.847   9.671  0.2594  0.9916 -1.2585
  841MOL0     H13522   4.113   8.706   9.661  0.1611 -0.4779  0.0208
  841MOL0     H13523   4.571   8.798   9.483  0.9385  1.4586  0.4527
  841MOL0     H13524   4.802   8.788   9.474  1.2897  0.8712  1.0625
  841MOL0     H13525   4.981   8.778   9.877 -1.1212  0.2812 -0.3803
  841MOL0     H13526   5.059   8.626   9.825  2.0034 -0.1999 -2.0561
  841MOL0     H13527   5.120   8.916   9.762  1.5233 -0.8777 -0.5649
  841MOL0     H13528   5.220   8.779   9.689 -2.2660 -2.8795 -1.3393
  841MOL0     H13529   5.183   8.870   9.986 -0.0488  0.6172 -0.9238
  841MOL0     H13530   5.341   8.874   9.889 -0.4362  0.0424 -2.3584
  841MOL0     H13531   5.219   8.631   9.979 -0.3334 -0.0082 -0.3002
  841MOL0     H13532   5.345   8.728  10.058  2.7474 -2.5660 -0.8078
  841MOL0     H13533   5.533   8.492   9.757  1.5022  1.4122  0.5929
  841MOL0     H13534   4.800   8.635   9.882  1.8376  0.7571  0.7516
  841MOL0     H13535   4.588   8.691   9.911  1.8120 -2.3714 -0.3436
  842MOL0     O13536   4.008  10.560   8.045 -0.3045  0.4409  0.6989
  842MOL0     C13537   4.037  10.537   7.930 -0.3673  0.2048  0.0745
  842MOL0     O13538   3.954  10.470   7.843 -0.3035  0.3915  0.2418
  842MOL0     C13539   3.846  10.403   7.890  0.6880  0.1837  0.1478
  842MOL0     C13540   3.730  10.479   7.933 -0.7755  0.7927  0.8739
  842MOL0     C13541   3.615  10.408   7.962 -0.3328  0.2381  0.1509
  842MOL0     C13542   3.606  10.268   7.948  1.0913  0.1526  0.1536
  842MOL0     O13543   3.497  10.197   7.974  0.7682 -0.3120 -0.1797
  842MOL0     C13544   3.375  10.263   7.946  0.6879  0.2051 -0.5335
  842MOL0     C13545   3.262  10.157   7.931  0.6376  0.1175  0.7947
  842MOL0     C13546   3.141  10.217   7.853 -0.6433  1.1471  0.7331
  842MOL0     C13547   3.018  10.125   7.846  0.1664 -0.5444 -0.5786
  842MOL0     C13548   2.922  10.186   7.752  0.2650 -0.7622  0.3337
  842MOL0     C13549   2.837  10.087   7.678 -0.1814 -0.0672  0.1473
  842MOL0     C13550   2.715  10.156   7.616 -0.1121 -0.8730 -0.0932
  842MOL0     C13551   2.630  10.053   7.530 -0.2507  0.3609 -0.3157
  842MOL0     N13552   2.531  10.131   7.456 -0.6066  0.1162  0.0807
  842MOL0     C13553   2.534  10.141   7.320  0.6542  0.4418 -0.0184
  842MOL0     C13554   2.419  10.203   7.292  0.1283  0.1595  0.3488
  842MOL0     C13555   2.362  10.247   7.160  0.5265  0.8362 -0.3311
  842MOL0     C13556   2.424  10.369   7.105 -0.3081  0.0833  0.5274
  842MOL0     C13557   2.329  10.428   6.996  0.0283 -0.4614 -0.6601
  842MOL0     C13558   2.345  10.362   6.863  0.0434  0.2551  0.3998
  842MOL0     O13559   2.289  10.231   6.852  0.0284  0.0428 -0.0848
  842MOL0     C13560   2.159  10.222   6.832  0.2104  0.8861 -0.8751
  842MOL0     C13561   2.074  10.310   6.762 -1.3186 -0.7020 -0.6506
  842MOL0     C13562   1.950  10.287   6.723 -0.0032 -0.7400  0.2602
  842MOL0     C13563   1.897  10.386   6.626 -0.3695  0.2369 -0.0669
  842MOL0     C13564   1.879  10.167   6.766  1.1492 -0.3089 -0.3083
  842MOL0     C13565   1.750  10.119   6.720 -0.4791 -0.8525  0.8912
  842MOL0     O13566   1.671  10.199   6.641 -0.6333 -0.2079 -0.6991
  842MOL0     C13567   1.551  10.148   6.595  0.2041  0.1701 -0.5149
  842MOL0     C13568   1.542  10.087   6.467 -0.5987  0.3637  0.2563
  842MOL0     C13569   1.425  10.030   6.422  1.0235 -0.4469  0.9494
  842MOL0     C13570   1.313  10.022   6.502 -0.0021  0.3597 -1.0323
  842MOL0     O13571   1.204   9.957   6.456  0.2074 -0.1177  0.2525
  842MOL0     C13572   1.085   9.937   6.530  0.5058 -0.5017  0.7540
  842MOL0     C13573   1.101   9.805   6.610  0.7301 -0.1880 -0.6683
  842MOL0     C13574   0.989   9.770   6.718  0.0256  0.0019  0.0462
  842MOL0     C13575   0.850   9.771   6.663 -0.0330  0.5310 -0.0423
  842MOL0     C13576   0.750   9.726   6.772 -0.9163 -0.9785 -0.8887
  842MOL0     C13577   0.624   9.675   6.705 -0.0969 -0.3524  0.2676
  842MOL0     C13578   0.565   9.774   6.606  0.2565  0.1483 -0.0749
  842MOL0     C13579   0.434   9.720   6.543 -0.1480 -0.0864 -0.5331
  842MOL0    Cl13580   0.306   9.700   6.671  0.2687  0.1346  0.0150
  842MOL0     C13581   1.322  10.083   6.643 -0.3879  0.9090  0.2555
  842MOL0     C13582   1.439  10.148   6.684 -0.0819 -0.3129 -0.6056
  842MOL0     O13583   1.724  10.005   6.742  0.0930 -0.2888  0.2707
  842MOL0     C13584   1.961  10.080   6.839  0.6948 -0.4063 -0.1894
  842MOL0     C13585   2.096  10.104   6.871 -0.3227  0.2360  0.9646
  842MOL0     N13586   2.347  10.216   7.412  0.7640  0.3385  0.7416
  842MOL0     N13587   2.420  10.179   7.506  0.3738  0.6078  0.3222
  842MOL0     C13588   3.717  10.196   7.904 -0.3234 -0.2050  0.6463
  842MOL0     C13589   3.834  10.258   7.874  1.5765 -0.0997  0.9294
  842MOL0     C13590   4.170  10.575   7.876  0.5377 -0.4190 -0.8652
  842MOL0     C13591   4.246  10.668   7.941 -0.1840  0.7882  0.1812
  842MOL0     C13592   4.358  10.714   7.884 -0.3562 -0.4904  0.5930
  842MOL0     C13593   4.395  10.683   7.746  0.1018  0.4052  0.8666
  842MOL0     O13594   4.495  10.756   7.686 -1.0944  0.5869 -0.2136
  842MOL0     C13595   4.617  10.784   7.751  0.4636 -0.9857  0.0582
  842MOL0     C13596   4.744  10.764   7.675 -0.9396  0.3057 -0.8842
  842MOL0     C13597   4.765  10.622   7.627  0.5330  0.8869  0.0869
  842MOL0     C13598   4.853  10.610   7.501 -0.0080 -0.2328 -0.5332
  842MOL0     C13599   4.800  10.647   7.371  0.3470 -0.4277 -0.6637
  842MOL0     C13600   4.739  10.684   7.273 -0.9729  0.6999  0.4152
  842MOL0     C13601   4.319  10.594   7.678  1.1575 -0.4417  0.1622
  842MOL0     C13602   4.205  10.541   7.743 -0.1812 -0.4676  0.6982
  842MOL0     H13603   3.741  10.586   7.940  0.3808  0.5954  2.8216
  842MOL0     H13604   3.527  10.466   7.991 -1.9310 -1.3955 -1.1852
  842MOL0     H13605   3.357  10.330   8.031  2.1921  1.7457 -1.3546
  842MOL0     H13606   3.380  10.316   7.851  1.1186 -1.1212 -1.2642
  842MOL0     H13607   3.301  10.069   7.881  1.1608  1.3993 -1.1583
  842MOL0     H13608   3.231  10.111   8.025 -0.2296 -2.5464 -0.7093
  842MOL0     H13609   3.131  10.318   7.894  1.2067  2.1092 -0.9739
  842MOL0     H13610   3.177  10.241   7.752 -2.0156  1.8552  0.3858
  842MOL0     H13611   3.046  10.025   7.810  0.7958  0.1268 -2.0293
  842MOL0     H13612   2.976  10.108   7.945  0.7634 -0.1142 -0.2437
  842MOL0     H13613   2.862  10.258   7.810 -0.4687 -1.1850  0.1036
  842MOL0     H13614   2.973  10.247   7.677 -1.5611 -0.6215 -0.8519
  842MOL0     H13615   2.905  10.034   7.611  1.8023 -0.9950  2.7222
  842MOL0     H13616   2.795  10.010   7.744 -0.6599 -0.5084 -0.6486
  842MOL0     H13617   2.646  10.196   7.690  0.3261 -3.4031  1.7946
  842MOL0     H13618   2.749  10.237   7.550 -1.7016  0.4986  0.6749
  842MOL0     H13619   2.584   9.968   7.582  0.2464  0.1057 -0.2929
  842MOL0     H13620   2.701  10.002   7.465 -0.5251 -0.3996 -0.0323
  842MOL0     H13621   2.617  10.110   7.257 -1.0489 -0.5275 -1.8968
  842MOL0     H13622   2.372  10.170   7.083 -0.6108 -0.1119  0.4241
  842MOL0     H13623   2.256  10.267   7.177  0.2816  0.8725 -1.7342
  842MOL0     H13624   2.526  10.348   7.073  0.0164 -0.2891  1.7486
  842MOL0     H13625   2.432  10.446   7.182  0.8738  1.5060 -0.9606
  842MOL0     H13626   2.363  10.531   6.984 -0.2569 -0.1033  1.1962
  842MOL0     H13627   2.226  10.438   7.031  0.3828  0.2583  0.2271
  842MOL0     H13628   2.450  10.355   6.833  0.6936 -0.5288  2.6218
  842MOL0     H13629   2.299  10.436   6.797 -2.1877  0.6746  2.2763
  842MOL0     H13630   2.129  10.392   6.717 -0.9336  0.7112  2.1693
  842MOL0     H13631   1.968  10.466   6.600 -1.9000  1.6902  0.0455
  842MOL0     H13632   1.853  10.349   6.534 -1.6299  3.4463 -0.9000
  842MOL0     H13633   1.814  10.433   6.679  0.4103 -1.0052  2.4162
  842MOL0     H13634   1.630  10.068   6.407  0.8347  0.6946  2.1922
  842MOL0     H13635   1.419   9.992   6.320  0.8906  1.5178  0.1799
  842MOL0     H13636   1.058  10.026   6.589 -0.3467 -0.7338  0.7145
  842MOL0     H13637   1.006   9.918   6.458 -1.1274  0.9944  2.0655
  842MOL0     H13638   1.114   9.728   6.534 -0.5856  1.2441 -2.4046
  842MOL0     H13639   1.193   9.816   6.669  0.1273  3.5573 -0.1840
  842MOL0     H13640   0.999   9.838   6.804 -0.4394 -0.8228  0.7658
  842MOL0     H13641   1.018   9.669   6.747 -0.2695  0.0723  0.6056
  842MOL0     H13642   0.828   9.874   6.633  0.9858  0.1685 -2.2821
  842MOL0     H13643   0.850   9.709   6.572  0.9175 -3.0849  2.2311
  842MOL0     H13644   0.730   9.814   6.835  0.7524  0.1530 -1.8663
  842MOL0     H13645   0.801   9.651   6.834 -0.2103 -0.6276 -1.0302
  842MOL0     H13646   0.644   9.575   6.665 -0.3163 -0.8790  1.4472
  842MOL0     H13647   0.547   9.667   6.782 -2.0721 -0.8616 -1.6651
  842MOL0     H13648   0.632   9.784   6.520  0.0995  0.0008 -0.2145
  842MOL0     H13649   0.556   9.870   6.659  0.0379 -1.6326  3.4353
  842MOL0     H13650   0.459   9.624   6.498 -0.5550 -2.6770  4.1867
  842MOL0     H13651   0.394   9.778   6.459  0.3444  0.6133 -0.2995
  842MOL0     H13652   1.243  10.079   6.716  1.2766  1.6266  2.1997
  842MOL0     H13653   1.437  10.204   6.778 -0.5476 -0.6239 -0.4278
  842MOL0     H13654   1.929   9.982   6.873  0.3626  0.4757  2.2022
  842MOL0     H13655   2.148  10.016   6.909  0.2104  0.9443  1.8976
  842MOL0     H13656   3.702  10.093   7.874 -3.1281  0.3359 -0.1097
  842MOL0     H13657   3.916  10.194   7.841  1.8011  0.3467  0.6067
  842MOL0     H13658   4.213  10.695   8.041  0.8802  0.6106  0.6000
  842MOL0     H13659   4.430  10.777   7.935  0.7479  0.5278 -2.0364
  842MOL0     H13660   4.611  10.888   7.783 -1.2796 -0.2309 -2.3993
  842MOL0     H13661   4.618  10.732   7.847  1.2679  1.7358  1.6223
  842MOL0     H13662   4.829  10.783   7.740 -0.0242  1.5959 -2.3857
  842MOL0     H13663   4.760  10.829   7.588 -1.6077  0.2304 -1.0718
  842MOL0     H13664   4.668  10.577   7.608  1.4410 -0.6777 -1.0959
  842MOL0     H13665   4.814  10.566   7.708 -2.6076 -0.3602  1.2645
  842MOL0     H13666   4.889  10.507   7.495  1.0330  0.1857 -2.1152
  842MOL0     H13667   4.948  10.663   7.510  0.6123 -1.4992  0.6885
  842MOL0     H13668   4.693  10.703   7.178  2.6084  0.2209 -1.6095
  842MOL0     H13669   4.347  10.569   7.575 -0.5053  1.0279 -0.6836
  842MOL0     H13670   4.145  10.478   7.678  1.3307 -0.1858 -1.0536
  843MOL0     O13671   0.145   8.308   6.606  0.0480 -0.1173 -0.2773
  843MOL0     C13672   0.194   8.193   6.592  0.2639  0.8831  0.0567
  843MOL0     O13673   0.133   8.097   6.511 -0.1862 -0.5662 -0.0178
  843MOL0     C13674   0.019   8.120   6.439  0.6808 -0.3313 -0.2989
  843MOL0     C13675  -0.061   8.004   6.414 -1.0884 -0.4878  0.2767
  843MOL0     C13676  -0.182   8.016   6.345  1.1407  0.6261  0.6715
  843MOL0     C13677  -0.247   8.135   6.315 -0.3153  0.0176 -0.5879
  843MOL0     O13678  -0.371   8.134   6.267  0.4952 -0.0384  0.2980
  843MOL0     C13679  -0.450   8.259   6.282  0.0442 -0.0794 -0.0069
  843MOL0     C13680  -0.597   8.228   6.251 -0.4037  0.2907  0.5621
  843MOL0     C13681  -0.704   8.328   6.305  0.2953  0.1156  0.0514
  843MOL0     C13682  -0.836   8.338   6.220  0.3726  0.6764 -1.4671
  843MOL0     C13683  -0.921   8.214   6.222 -0.7492  0.3021  0.4189
  843MOL0     C13684  -0.989   8.195   6.360 -1.0535  0.6335 -1.4116
  843MOL0     C13685  -1.095   8.084   6.359 -0.2115 -0.2608  0.9457
  843MOL0     C13686  -1.159   8.058   6.508 -0.1302  0.9239  0.1926
  843MOL0     N13687  -1.236   8.179   6.541  0.2028 -0.1724 -0.5562
  843MOL0     C13688  -1.237   8.234   6.666  0.0502  0.3563  0.4558
  843MOL0     C13689  -1.349   8.309   6.659  0.0599  0.1770  0.1611
  843MOL0     C13690  -1.407   8.381   6.776  0.2032 -0.9016 -0.1718
  843MOL0     C13691  -1.552   8.350   6.806 -0.3024 -0.3456 -0.3535
  843MOL0     C13692  -1.583   8.415   6.940 -0.0659 -0.4825 -0.4816
  843MOL0     C13693  -1.721   8.373   6.977  0.0245  0.6507 -0.0944
  843MOL0     O13694  -1.703   8.256   7.063  0.2223  0.4675  0.8529
  843MOL0     C13695  -1.822   8.206   7.124  0.2529 -0.8789 -0.0876
  843MOL0     C13696  -1.814   8.176   7.252  0.1300  0.5044 -0.4000
  843MOL0     C13697  -1.936   8.161   7.331  0.9978 -0.0174 -0.0891
  843MOL0     C13698  -1.917   8.157   7.479 -0.1215 -0.1478 -0.5452
  843MOL0     C13699  -2.063   8.171   7.269 -0.3329 -0.3106 -0.0649
  843MOL0     C13700  -2.200   8.179   7.338 -0.1807 -0.2607  0.1584
  843MOL0     O13701  -2.307   8.134   7.261 -0.3686  0.9460 -0.4066
  843MOL0     C13702  -2.443   8.148   7.287 -0.5077 -0.0939 -0.4592
  843MOL0     C13703  -2.501   8.216   7.391 -0.4140 -0.2044  0.2284
  843MOL0     C13704  -2.639   8.232   7.409 -0.0382  0.8288  0.2115
  843MOL0     C13705  -2.729   8.168   7.327 -0.0392  0.5086  1.0268
  843MOL0     O13706  -2.859   8.172   7.350 -0.4010  0.3897  0.0620
  843MOL0     C13707  -2.959   8.169   7.237 -0.4632  0.3672  0.7462
  843MOL0     C13708  -3.097   8.164   7.294 -0.0191 -0.1109  0.1079
  843MOL0     C13709  -3.143   8.035   7.358 -0.2984  0.1226  0.2044
  843MOL0     C13710  -3.282   8.052   7.419 -0.0271 -0.9738  0.3579
  843MOL0     C13711  -3.334   7.913   7.421 -0.0975 -0.0820  0.1308
  843MOL0     C13712  -3.468   7.900   7.484  0.0408  0.3932 -0.2706
  843MOL0     C13713  -3.577   7.998   7.413 -0.6665 -1.2411  0.1998
  843MOL0     C13714  -3.606   7.996   7.264  0.6193  0.5471  0.3275
  843MOL0    Cl13715  -3.674   7.832   7.223  0.0196  0.2712 -0.2720
  843MOL0     C13716  -2.671   8.096   7.212 -0.8785 -0.2184  0.8595
  843MOL0     C13717  -2.528   8.084   7.200  0.7860  0.3242 -0.3103
  843MOL0     O13718  -2.200   8.221   7.459  0.3071 -0.1204  0.5485
  843MOL0     C13719  -2.063   8.174   7.132 -0.0809  0.3086  0.4836
  843MOL0     C13720  -1.946   8.197   7.065  0.2892 -0.0188 -0.0661
  843MOL0     N13721  -1.403   8.313   6.533 -0.6591  0.0781 -1.3499
  843MOL0     N13722  -1.342   8.229   6.458  0.1740 -0.3663  0.5718
  843MOL0     C13723  -0.172   8.252   6.336  0.1659  0.4259 -0.2249
  843MOL0     C13724  -0.036   8.244   6.384 -0.4148  0.0030  0.2698
  843MOL0     C13725   0.312   8.144   6.668  0.5168  0.3368  0.1010
  843MOL0     C13726   0.357   8.010   6.648 -0.4856  0.6292  0.8280
  843MOL0     C13727   0.458   7.954   6.729 -0.4162  0.3555  0.2632
  843MOL0     C13728   0.517   8.033   6.829 -0.1258 -0.5718 -0.0378
  843MOL0     O13729   0.629   7.981   6.886  0.1290 -0.0881 -0.3535
  843MOL0     C13730   0.718   8.071   6.960  1.0630  0.5508  0.0942
  843MOL0     C13731   0.835   7.995   7.015 -0.2049 -0.2394 -0.1975
  843MOL0     C13732   0.803   7.941   7.151  0.1893  0.3475  0.4575
  843MOL0     C13733   0.895   7.818   7.192 -0.5962 -0.1372 -0.0200
  843MOL0     C13734   1.035   7.856   7.176 -0.3762 -0.0788  0.4111
  843MOL0     C13735   1.149   7.892   7.182 -0.2783  0.0644  0.0016
  843MOL0     C13736   0.467   8.170   6.852 -0.3460 -0.1595  0.1852
  843MOL0     C13737   0.359   8.213   6.780  0.0016  0.1091  1.1412
  843MOL0     H13738  -0.020   7.907   6.440  0.9909 -0.4016 -2.2903
  843MOL0     H13739  -0.246   7.929   6.330  2.5476 -0.4046  0.5093
  843MOL0     H13740  -0.437   8.296   6.384 -2.1521 -2.8606  1.4414
  843MOL0     H13741  -0.421   8.344   6.219 -0.5887 -0.0367 -0.2515
  843MOL0     H13742  -0.596   8.220   6.142 -0.9313  0.2781  0.5549
  843MOL0     H13743  -0.623   8.128   6.288 -0.5963  0.5074  1.0198
  843MOL0     H13744  -0.724   8.296   6.408 -0.4587 -0.2475 -0.1949
  843MOL0     H13745  -0.673   8.432   6.311 -1.3159  0.7717 -1.8314
  843MOL0     H13746  -0.879   8.427   6.268  4.3183  2.2488 -0.3884
  843MOL0     H13747  -0.816   8.360   6.115 -0.2897 -0.1826 -1.7841
  843MOL0     H13748  -0.997   8.227   6.145  1.1410  0.0814 -1.5803
  843MOL0     H13749  -0.856   8.128   6.201  2.2097  2.0490  1.8251
  843MOL0     H13750  -0.914   8.177   6.437  0.2987  1.8729 -2.3836
  843MOL0     H13751  -1.030   8.294   6.386  0.0904  0.2983  2.1245
  843MOL0     H13752  -1.168   8.114   6.283  0.1637 -0.2361  0.5962
  843MOL0     H13753  -1.055   7.993   6.314 -1.0032 -1.0794  1.8367
  843MOL0     H13754  -1.076   8.024   6.570  0.5581 -0.6317 -1.4692
  843MOL0     H13755  -1.231   7.975   6.512 -0.7566  1.5106  2.1369
  843MOL0     H13756  -1.174   8.206   6.749  0.2632 -1.5181 -0.3049
  843MOL0     H13757  -1.352   8.356   6.867 -0.6661  0.7657  0.8704
  843MOL0     H13758  -1.394   8.489   6.759  2.4081 -0.8522  1.3841
  843MOL0     H13759  -1.556   8.241   6.810  4.7130 -0.7706 -0.0914
  843MOL0     H13760  -1.614   8.376   6.720  0.1793  2.1052 -0.0329
  843MOL0     H13761  -1.600   8.522   6.923 -1.3615 -0.1282  2.4636
  843MOL0     H13762  -1.508   8.397   7.017  0.4952  0.9684 -0.6702
  843MOL0     H13763  -1.781   8.326   6.899 -0.6303 -0.2312  0.9034
  843MOL0     H13764  -1.774   8.456   7.025 -1.6856  0.0517 -0.8772
  843MOL0     H13765  -1.717   8.174   7.301  0.2724  3.5537 -0.3658
  843MOL0     H13766  -1.985   8.087   7.530  1.4212  0.9473  3.4074
  843MOL0     H13767  -1.822   8.118   7.519 -0.8456  1.6607  3.4471
  843MOL0     H13768  -1.923   8.262   7.509  1.9455 -0.4508  1.1986
  843MOL0     H13769  -2.443   8.265   7.469  0.1105  1.4823 -1.1440
  843MOL0     H13770  -2.679   8.280   7.498  0.0578  6.2923 -2.2878
  843MOL0     H13771  -2.941   8.249   7.165  1.2008 -4.2915 -4.7376
  843MOL0     H13772  -2.947   8.079   7.176 -3.3297  1.1478 -1.1395
  843MOL0     H13773  -3.113   8.247   7.364 -2.1137 -0.0127 -0.4270
  843MOL0     H13774  -3.165   8.194   7.214 -0.9176  2.1346  1.6036
  843MOL0     H13775  -3.065   7.992   7.421  1.4607 -0.0111 -1.9566
  843MOL0     H13776  -3.158   7.968   7.272 -0.3439  0.4320 -0.0307
  843MOL0     H13777  -3.263   8.097   7.516 -0.6238  0.5767 -0.2080
  843MOL0     H13778  -3.337   8.115   7.348  0.5954  0.4964  1.1458
  843MOL0     H13779  -3.267   7.842   7.470  0.4248  1.1202  1.2150
  843MOL0     H13780  -3.340   7.872   7.319 -1.3135  2.0601 -0.7192
  843MOL0     H13781  -3.505   7.798   7.498  0.5036  0.3410  0.6489
  843MOL0     H13782  -3.447   7.936   7.585  0.5503 -0.5238 -0.0401
  843MOL0     H13783  -3.547   8.102   7.427 -1.9809 -0.4520 -2.2473
  843MOL0     H13784  -3.667   7.973   7.470 -0.6267 -1.9638 -0.0470
  843MOL0     H13785  -3.525   8.033   7.201 -0.3888 -0.2358 -1.5049
  843MOL0     H13786  -3.685   8.072   7.256  1.2089  1.2277  0.7932
  843MOL0     H13787  -2.732   8.051   7.134 -1.2295  1.5171  0.0743
  843MOL0     H13788  -2.482   8.023   7.123 -2.6549 -0.6278 -1.8031
  843MOL0     H13789  -2.156   8.170   7.076 -0.1989  3.0720  0.3225
  843MOL0     H13790  -1.946   8.190   6.957 -0.7661  3.8851 -0.4666
  843MOL0     H13791  -0.222   8.343   6.302 -1.5137 -0.8188 -1.2678
  843MOL0     H13792   0.003   8.343   6.404 -0.8501  0.7100 -2.0892
  843MOL0     H13793   0.308   7.943   6.578  1.1638 -0.0152  0.2647
  843MOL0     H13794   0.497   7.853   6.722  2.6287  1.4577 -0.2995
  843MOL0     H13795   0.761   8.150   6.897 -0.5307  0.3697 -1.2864
  843MOL0     H13796   0.661   8.117   7.041  0.7196 -1.3499  0.9836
  843MOL0     H13797   0.921   8.061   7.028 -0.9313  0.2422  3.2813
  843MOL0     H13798   0.860   7.915   6.945 -3.4028  0.7783 -2.7514
  843MOL0     H13799   0.698   7.912   7.143  0.5807 -0.9402 -0.2608
  843MOL0     H13800   0.802   8.018   7.229 -2.0824 -0.3789  1.2477
  843MOL0     H13801   0.866   7.736   7.125 -0.8026 -2.1790  2.4203
  843MOL0     H13802   0.880   7.768   7.288  0.0050 -0.2577  0.0135
  843MOL0     H13803   1.249   7.924   7.203 -0.9614  1.8341  0.7595
  843MOL0     H13804   0.498   8.252   6.917 -0.0351  2.4735 -3.0261
  843MOL0     H13805   0.314   8.308   6.810 -0.2835 -0.4479  2.5591
  844MOL0     O13806   0.330   3.186   6.470  0.0959  0.0420  0.8831
  844MOL0     C13807   0.399   3.143   6.374  0.3723 -0.8643  0.1005
  844MOL0     O13808   0.350   3.097   6.257 -0.4618 -0.0506 -0.3072
  844MOL0     C13809   0.215   3.093   6.252  0.6490 -0.1047  0.2354
  844MOL0     C13810   0.131   3.193   6.196 -0.7263  0.3655  0.9537
  844MOL0     C13811  -0.002   3.173   6.170 -0.1977  0.0690  0.1811
  844MOL0     C13812  -0.060   3.045   6.209 -0.3644  0.4217  0.4061
  844MOL0     O13813  -0.186   2.998   6.177  1.4242  0.0268 -0.2760
  844MOL0     C13814  -0.271   3.087   6.107 -0.0903 -0.8707 -0.5810
  844MOL0     C13815  -0.417   3.027   6.107 -0.0520 -0.5619  0.4892
  844MOL0     C13816  -0.512   3.130   6.040  0.0534 -0.6612 -0.5701
  844MOL0     C13817  -0.645   3.050   6.005  0.4462  0.0542 -0.0234
  844MOL0     C13818  -0.752   3.152   5.960  0.4364 -0.4569  0.2215
  844MOL0     C13819  -0.881   3.070   5.935 -0.3623 -0.2967  0.1396
  844MOL0     C13820  -1.006   3.156   5.920 -0.0202 -0.4549  0.1501
  844MOL0     C13821  -1.133   3.073   5.892 -0.3420  0.0090 -0.0889
  844MOL0     N13822  -1.257   3.161   5.862  0.2481  0.0013 -0.4323
  844MOL0     C13823  -1.359   3.185   5.953 -0.1352 -0.1373 -0.1083
  844MOL0     C13824  -1.449   3.254   5.866 -0.1921  0.7284 -0.2647
  844MOL0     C13825  -1.584   3.298   5.891  0.6619  0.4233 -0.3112
  844MOL0     C13826  -1.595   3.434   5.957 -0.3109 -1.2005  0.0687
  844MOL0     C13827  -1.565   3.554   5.864  0.3429 -0.6363 -0.7195
  844MOL0     C13828  -1.674   3.595   5.768  0.1377 -0.0042  0.5592
  844MOL0     O13829  -1.791   3.649   5.844  1.0894 -0.4655 -0.1979
  844MOL0     C13830  -1.911   3.604   5.800  0.1928  0.5688 -0.7876
  844MOL0     C13831  -1.952   3.591   5.664 -0.0044 -0.5855  0.8597
  844MOL0     C13832  -2.083   3.547   5.631  0.2773 -0.9623  0.6121
  844MOL0     C13833  -2.130   3.546   5.492  0.4794  0.5223  0.1334
  844MOL0     C13834  -2.171   3.519   5.734  0.2673 -0.0296 -0.4031
  844MOL0     C13835  -2.310   3.475   5.711 -0.5720  0.2675  0.6948
  844MOL0     O13836  -2.397   3.540   5.784  0.0815  0.0401 -0.2270
  844MOL0     C13837  -2.526   3.499   5.778  0.0718 -0.0056 -0.2735
  844MOL0     C13838  -2.575   3.410   5.882  0.7418 -0.8995 -0.5899
  844MOL0     C13839  -2.709   3.370   5.898 -0.0729 -1.2626  0.9883
  844MOL0     C13840  -2.804   3.428   5.804  0.2763 -0.1148 -0.9130
  844MOL0     O13841  -2.933   3.387   5.802 -0.5974 -0.3838 -0.1621
  844MOL0     C13842  -2.987   3.285   5.885  0.0299 -0.3081 -0.0722
  844MOL0     C13843  -3.142   3.268   5.887  0.1649  0.4389 -0.0521
  844MOL0     C13844  -3.215   3.389   5.952 -0.0993  0.3125  0.6254
  844MOL0     C13845  -3.364   3.397   5.913  0.6186 -0.2975 -0.7167
  844MOL0     C13846  -3.440   3.263   5.930 -0.8427 -0.1065 -0.3567
  844MOL0     C13847  -3.569   3.272   5.853  0.4606  0.9399  0.4864
  844MOL0     C13848  -3.678   3.177   5.906 -0.2403 -0.0862  0.2715
  844MOL0     C13849  -3.827   3.204   5.857  1.1897 -1.4048 -0.8720
  844MOL0    Cl13850  -3.838   3.217   5.682 -0.0257 -0.0052  0.2302
  844MOL0     C13851  -2.755   3.519   5.705 -0.0502 -0.4644  0.0206
  844MOL0     C13852  -2.622   3.556   5.691  0.5465 -0.8450  0.1228
  844MOL0     O13853  -2.322   3.371   5.651 -0.2083 -0.2373 -0.0599
  844MOL0     C13854  -2.132   3.514   5.870 -0.2652  1.2314 -0.6185
  844MOL0     C13855  -1.998   3.557   5.901  0.3239 -0.4175 -0.1791
  844MOL0     N13856  -1.386   3.285   5.744 -0.1344 -0.2040 -0.4559
  844MOL0     N13857  -1.277   3.228   5.749 -0.5363  0.1815 -0.0712
  844MOL0     C13858   0.023   2.952   6.276 -0.0267  0.1607 -0.3137
  844MOL0     C13859   0.159   2.980   6.299 -0.0414 -0.1022 -0.4064
  844MOL0     C13860   0.551   3.160   6.388 -0.4022 -0.2952 -0.0284
  844MOL0     C13861   0.643   3.175   6.286  0.0227 -0.9789  0.1274
  844MOL0     C13862   0.777   3.201   6.298  0.5174  0.7131  0.3847
  844MOL0     C13863   0.828   3.219   6.421 -0.4497  0.9326  0.0879
  844MOL0     O13864   0.963   3.240   6.423  0.2135 -0.2840 -0.0862
  844MOL0     C13865   1.000   3.373   6.408  1.2639 -0.5830 -0.0871
  844MOL0     C13866   1.153   3.370   6.376  0.2580 -0.5249 -0.3850
  844MOL0     C13867   1.210   3.509   6.374 -0.3172 -0.8164  0.7237
  844MOL0     C13868   1.290   3.530   6.496  0.5715 -0.3297  0.0309
  844MOL0     C13869   1.360   3.661   6.490  0.4366 -0.4739 -0.8091
  844MOL0     C13870   1.433   3.750   6.475 -0.6798 -0.0806 -1.6438
  844MOL0     C13871   0.742   3.217   6.533 -0.2541  0.1275  0.1170
  844MOL0     C13872   0.606   3.185   6.515 -0.0122 -0.4198 -0.8899
  844MOL0     H13873   0.190   3.278   6.164  1.3288 -0.4159  2.4717
  844MOL0     H13874  -0.063   3.245   6.117 -1.9027 -0.4759  1.3263
  844MOL0     H13875  -0.281   3.183   6.158  2.8996 -1.6753  1.8880
  844MOL0     H13876  -0.250   3.096   6.000 -0.8185 -0.9322 -0.7332
  844MOL0     H13877  -0.414   2.934   6.049  3.9303 -0.1605 -0.2228
  844MOL0     H13878  -0.446   3.013   6.211 -2.9021 -1.0388 -0.2799
  844MOL0     H13879  -0.530   3.218   6.102  1.8710 -0.7902  0.1937
  844MOL0     H13880  -0.459   3.170   5.953  2.8559 -1.2102  0.7643
  844MOL0     H13881  -0.630   2.982   5.921 -0.8926 -0.4091  0.0919
  844MOL0     H13882  -0.690   2.987   6.082 -0.5239 -0.9325 -1.3535
  844MOL0     H13883  -0.763   3.233   6.033 -0.3766 -0.8161  0.5073
  844MOL0     H13884  -0.728   3.199   5.864 -1.5224 -2.1072 -1.1692
  844MOL0     H13885  -0.867   2.995   5.857  0.4386  0.1091 -0.1190
  844MOL0     H13886  -0.890   3.002   6.021  0.3089  0.9296  1.2096
  844MOL0     H13887  -1.009   3.216   6.011  3.8762  1.8963 -1.0086
  844MOL0     H13888  -0.986   3.225   5.837  1.9883 -0.5837  0.4777
  844MOL0     H13889  -1.153   3.006   5.976 -1.1374 -0.8554 -0.9406
  844MOL0     H13890  -1.119   3.016   5.799 -0.0285 -0.5973  0.3234
  844MOL0     H13891  -1.369   3.153   6.056  1.4121  0.7868  0.3620
  844MOL0     H13892  -1.631   3.291   5.793  1.5312 -1.9848 -0.6465
  844MOL0     H13893  -1.639   3.225   5.952  0.0728 -0.1912 -1.5409
  844MOL0     H13894  -1.519   3.439   6.035  0.2286  3.1610 -0.4781
  844MOL0     H13895  -1.697   3.450   5.995 -0.0143  1.4532 -0.0659
  844MOL0     H13896  -1.476   3.525   5.807  0.5606 -2.0063  0.2469
  844MOL0     H13897  -1.538   3.645   5.919 -0.7486 -0.8503  0.2204
  844MOL0     H13898  -1.707   3.501   5.722  1.3202 -1.5019  2.6248
  844MOL0     H13899  -1.643   3.662   5.687 -1.4119  0.5318  0.3626
  844MOL0     H13900  -1.880   3.623   5.590 -0.1038  0.9688  1.3944
  844MOL0     H13901  -2.138   3.444   5.456  4.8716  0.6517 -1.7990
  844MOL0     H13902  -2.220   3.607   5.480  2.1690  3.0166 -0.7646
  844MOL0     H13903  -2.057   3.590   5.424  0.3749  1.2533  0.4809
  844MOL0     H13904  -2.508   3.362   5.952 -1.3841 -1.6292  1.0549
  844MOL0     H13905  -2.726   3.297   5.977  1.8718  1.1507  3.8404
  844MOL0     H13906  -2.945   3.189   5.854  0.9300  0.6424 -2.0319
  844MOL0     H13907  -2.950   3.302   5.986  1.4277 -0.7605 -0.4819
  844MOL0     H13908  -3.168   3.257   5.781  1.5628 -1.2462 -0.2620
  844MOL0     H13909  -3.161   3.177   5.944  1.8283 -1.5460 -2.4561
  844MOL0     H13910  -3.164   3.475   5.908 -0.8747  0.0002 -0.9547
  844MOL0     H13911  -3.207   3.384   6.061 -2.1820 -0.9838  0.7709
  844MOL0     H13912  -3.409   3.474   5.976  0.1957 -2.0953  1.2930
  844MOL0     H13913  -3.373   3.420   5.806 -0.1495 -0.8954 -0.7875
  844MOL0     H13914  -3.450   3.242   6.037  1.1842  2.0268  0.3279
  844MOL0     H13915  -3.381   3.180   5.888 -0.2452  0.4150 -0.5708
  844MOL0     H13916  -3.597   3.377   5.845 -0.1799  0.8733  1.6873
  844MOL0     H13917  -3.549   3.244   5.749  2.1634  1.0319  0.7525
  844MOL0     H13918  -3.674   3.170   6.015  0.7386  2.1482  0.4354
  844MOL0     H13919  -3.643   3.083   5.863  1.2647  1.1066 -1.2786
  844MOL0     H13920  -3.851   3.304   5.895  1.2612 -0.8134 -2.3403
  844MOL0     H13921  -3.902   3.137   5.900  1.5527 -0.7935  0.7854
  844MOL0     H13922  -2.835   3.564   5.648  1.3606 -1.5021 -2.9559
  844MOL0     H13923  -2.606   3.622   5.607 -3.6398  2.2690  1.4470
  844MOL0     H13924  -2.197   3.468   5.943 -2.5715  1.6916 -2.2589
  844MOL0     H13925  -1.957   3.558   6.001  2.4925  1.1540 -1.0080
  844MOL0     H13926  -0.005   2.855   6.315  1.7413 -0.6842 -1.0412
  844MOL0     H13927   0.221   2.905   6.346  1.0588 -0.3628 -2.1868
  844MOL0     H13928   0.623   3.160   6.180 -0.4665  0.1478  0.0427
  844MOL0     H13929   0.836   3.184   6.209  3.8797 -1.4413  2.7776
  844MOL0     H13930   0.947   3.436   6.337  0.4521  2.0270  2.6434
  844MOL0     H13931   0.982   3.423   6.504  0.8350  1.5601 -1.2301
  844MOL0     H13932   1.166   3.324   6.278 -2.4099 -0.5068 -0.8433
  844MOL0     H13933   1.207   3.309   6.448 -1.0543 -0.2527  0.8901
  844MOL0     H13934   1.133   3.587   6.383 -3.0438 -3.3071  0.7269
  844MOL0     H13935   1.267   3.528   6.283  0.2981  1.5509  1.5255
  844MOL0     H13936   1.367   3.454   6.515  1.5317  0.7563  0.6711
  844MOL0     H13937   1.217   3.538   6.577  0.0626  0.2070 -0.4767
  844MOL0     H13938   1.511   3.824   6.474  1.7480 -2.2402  2.1923
  844MOL0     H13939   0.782   3.226   6.633 -0.4084  2.4621  0.0277
  844MOL0     H13940   0.548   3.163   6.605  1.2521 -1.6005 -0.3157
  845MOL0     O13941   0.058   3.177   5.724  0.0904  0.1834  0.1823
  845MOL0     C13942   0.155   3.155   5.662 -0.1897 -0.1710  0.2658
  845MOL0     O13943   0.161   3.135   5.526 -0.0934 -0.1202 -0.8842
  845MOL0     C13944   0.044   3.099   5.463  0.7454 -1.1232  0.1955
  845MOL0     C13945  -0.002   2.968   5.458 -0.2334 -0.0198  0.3726
  845MOL0     C13946  -0.124   2.941   5.382 -0.2473 -0.4881  0.1803
  845MOL0     C13947  -0.200   3.046   5.315 -0.1609  0.6673  0.1738
  845MOL0     O13948  -0.314   3.020   5.242 -0.0159 -0.2546  0.0546
  845MOL0     C13949  -0.384   2.894   5.274 -0.1772 -0.1372 -0.0893
  845MOL0     C13950  -0.516   2.924   5.203 -0.6174  0.7375 -0.4972
  845MOL0     C13951  -0.626   2.829   5.248 -0.7693 -0.7999 -0.3611
  845MOL0     C13952  -0.756   2.875   5.188  0.4073 -0.4862 -0.3429
  845MOL0     C13953  -0.880   2.804   5.246 -0.3173 -0.0105 -0.1794
  845MOL0     C13954  -0.913   2.673   5.169 -0.9934  0.2663  0.9088
  845MOL0     C13955  -1.039   2.603   5.204  0.8566  0.3245  1.0809
  845MOL0     C13956  -1.079   2.487   5.109  0.5028 -0.2999 -0.6319
  845MOL0     N13957  -1.211   2.431   5.150  0.5124  1.0439 -0.5276
  845MOL0     C13958  -1.227   2.374   5.273  0.1139 -0.5064 -0.1093
  845MOL0     C13959  -1.353   2.320   5.267  0.2330 -0.8598  0.7563
  845MOL0     C13960  -1.429   2.261   5.379  0.0947  0.7178 -0.0471
  845MOL0     C13961  -1.440   2.364   5.491 -0.6509 -1.0219 -0.5749
  845MOL0     C13962  -1.489   2.297   5.621 -0.1746 -0.8314 -0.1300
  845MOL0     C13963  -1.454   2.380   5.745  0.8122  0.3420 -0.4400
  845MOL0     O13964  -1.551   2.353   5.841  0.2354 -1.0046 -0.1762
  845MOL0     C13965  -1.677   2.414   5.841  0.0523 -0.8550  0.8246
  845MOL0     C13966  -1.723   2.515   5.748  0.3085 -0.1568 -0.4411
  845MOL0     C13967  -1.864   2.559   5.746 -0.4492 -0.1514  0.3395
  845MOL0     C13968  -1.906   2.653   5.637  1.0930  0.2545  0.2959
  845MOL0     C13969  -1.948   2.514   5.856 -0.1390  0.1395 -0.0566
  845MOL0     C13970  -2.093   2.545   5.867 -0.6402  0.1483  0.7780
  845MOL0     O13971  -2.160   2.478   5.962 -0.1156  0.2811  0.0374
  845MOL0     C13972  -2.298   2.487   5.946 -0.1437  0.1829 -0.3167
  845MOL0     C13973  -2.372   2.366   5.933 -0.8930 -0.5152  0.8104
  845MOL0     C13974  -2.508   2.366   5.890 -0.8374  0.0318  0.1979
  845MOL0     C13975  -2.582   2.484   5.893  0.0480  0.2999  0.1686
  845MOL0     O13976  -2.723   2.495   5.881  0.1611 -0.1494  0.3425
  845MOL0     C13977  -2.792   2.368   5.879 -0.3170 -0.7133 -0.5450
  845MOL0     C13978  -2.939   2.398   5.866  0.5227  0.3533 -0.6477
  845MOL0     C13979  -2.980   2.508   5.767  0.3980 -0.1630  0.0929
  845MOL0     C13980  -3.130   2.499   5.734 -0.1189  0.2102  0.4312
  845MOL0     C13981  -3.173   2.622   5.657 -0.5181  0.6077 -0.0549
  845MOL0     C13982  -3.326   2.645   5.684 -0.2206  0.0136 -0.6752
  845MOL0     C13983  -3.348   2.785   5.620  0.2795 -0.1340  0.0289
  845MOL0     C13984  -3.504   2.807   5.601 -0.1703  0.5516 -0.4959
  845MOL0    Cl13985  -3.549   2.965   5.532 -0.2006  0.0630 -0.1456
  845MOL0     C13986  -2.509   2.607   5.909 -0.1996 -0.0674 -0.6384
  845MOL0     C13987  -2.370   2.604   5.938  0.8581 -0.2127 -1.0491
  845MOL0     O13988  -2.145   2.624   5.789 -0.2357  0.0100 -0.2261
  845MOL0     C13989  -1.899   2.427   5.950 -0.9399  0.9941 -0.5875
  845MOL0     C13990  -1.767   2.379   5.942  0.6459  0.0858 -0.2217
  845MOL0     N13991  -1.409   2.377   5.146  0.4967  0.1609 -0.0307
  845MOL0     N13992  -1.323   2.432   5.073  0.4199  0.2904 -0.1270
  845MOL0     C13993  -0.141   3.173   5.315 -0.2408  0.0693  1.0409
  845MOL0     C13994  -0.027   3.203   5.386 -0.3323 -0.0007 -0.1285
  845MOL0     C13995   0.285   3.163   5.738 -0.5012  0.1061 -0.4937
  845MOL0     C13996   0.401   3.102   5.691 -0.5136 -0.2463  0.3621
  845MOL0     C13997   0.520   3.126   5.754 -0.1451  0.4439  0.7195
  845MOL0     C13998   0.528   3.202   5.870 -0.7326  0.9728  0.4144
  845MOL0     O13999   0.642   3.217   5.947 -0.1262  0.3606  0.4207
  845MOL0     C14000   0.701   3.345   5.925  0.7906 -0.1757  0.1808
  845MOL0     C14001   0.857   3.337   5.909  0.8542 -0.0923 -0.1856
  845MOL0     C14002   0.917   3.471   5.850  0.3177  0.4686  0.1353
  845MOL0     C14003   0.935   3.567   5.965 -0.2204  0.5573 -0.0564
  845MOL0     C14004   1.005   3.685   5.909 -0.9032  0.6703 -0.6117
  845MOL0     C14005   1.079   3.754   5.842 -0.8353  0.3660 -1.4591
  845MOL0     C14006   0.412   3.261   5.918  0.6692  0.2253 -0.2674
  845MOL0     C14007   0.290   3.241   5.852 -0.5609 -0.0971  0.5136
  845MOL0     H14008   0.046   2.895   5.522  0.6781  1.0263  0.9347
  845MOL0     H14009  -0.170   2.843   5.396 -0.2114 -0.4465  0.5835
  845MOL0     H14010  -0.334   2.808   5.230 -2.0001 -0.1226 -2.3704
  845MOL0     H14011  -0.394   2.880   5.382 -0.0193 -0.8119 -0.1594
  845MOL0     H14012  -0.538   3.031   5.214  0.7942  1.1990 -1.7972
  845MOL0     H14013  -0.503   2.912   5.095 -0.4458  0.8321 -0.4867
  845MOL0     H14014  -0.604   2.728   5.212  1.6384 -0.2182 -0.6809
  845MOL0     H14015  -0.633   2.834   5.357  1.9740  0.1423 -0.1700
  845MOL0     H14016  -0.756   2.984   5.201  3.2507 -0.5483  1.0094
  845MOL0     H14017  -0.761   2.851   5.081 -3.7720 -1.4545 -0.0819
  845MOL0     H14018  -0.860   2.764   5.346  0.3361 -2.8855 -1.3583
  845MOL0     H14019  -0.969   2.867   5.248 -0.6693 -0.4475 -1.1427
  845MOL0     H14020  -0.930   2.697   5.064  1.1322 -2.8492 -0.2911
  845MOL0     H14021  -0.822   2.614   5.159 -1.3056  0.1080 -1.7319
  845MOL0     H14022  -1.034   2.568   5.308 -0.0441 -3.1325  0.1119
  845MOL0     H14023  -1.123   2.673   5.206 -0.1465 -0.8361  1.2772
  845MOL0     H14024  -1.007   2.406   5.125 -0.2916 -1.0617 -0.8653
  845MOL0     H14025  -1.087   2.520   5.005  2.0797  1.7914 -0.1542
  845MOL0     H14026  -1.149   2.375   5.348 -0.7428  0.5306  0.7984
  845MOL0     H14027  -1.529   2.232   5.344  0.0217 -0.5026  1.0870
  845MOL0     H14028  -1.381   2.170   5.416 -0.6041  0.3178 -0.1029
  845MOL0     H14029  -1.516   2.440   5.469 -0.4512  0.1770  2.4073
  845MOL0     H14030  -1.349   2.421   5.512 -1.5143  0.6367 -1.1509
  845MOL0     H14031  -1.442   2.199   5.630  0.2991 -0.7087 -1.0766
  845MOL0     H14032  -1.597   2.286   5.609 -0.3418  0.7553 -0.2300
  845MOL0     H14033  -1.454   2.486   5.718 -0.4879 -0.2703 -3.1787
  845MOL0     H14034  -1.363   2.367   5.804 -2.0435 -0.3907  4.3306
  845MOL0     H14035  -1.664   2.556   5.666 -2.5198  2.1318 -1.5263
  845MOL0     H14036  -1.838   2.669   5.553  0.0167  1.6551 -0.3628
  845MOL0     H14037  -1.995   2.620   5.583  2.0121 -1.4827 -0.2231
  845MOL0     H14038  -1.932   2.747   5.687 -2.1556  0.2136 -1.0388
  845MOL0     H14039  -2.314   2.274   5.932  2.1902  1.2884  0.8767
  845MOL0     H14040  -2.545   2.268   5.859 -1.4116 -0.1404  1.3523
  845MOL0     H14041  -2.757   2.301   5.800  1.0722  0.0053 -0.5686
  845MOL0     H14042  -2.763   2.313   5.968  0.3394  0.3626 -0.0715
  845MOL0     H14043  -2.988   2.302   5.850 -0.7936  0.6038  1.5396
  845MOL0     H14044  -2.971   2.421   5.968  0.3064  0.7534 -0.8022
  845MOL0     H14045  -2.919   2.491   5.677  2.0189 -1.4798  1.3550
  845MOL0     H14046  -2.950   2.603   5.813  0.7089  0.1788 -0.7869
  845MOL0     H14047  -3.148   2.406   5.679  0.4508 -0.5067  1.4324
  845MOL0     H14048  -3.177   2.488   5.832 -0.4086  0.0845  0.2788
  845MOL0     H14049  -3.137   2.617   5.554  2.2198 -1.3604  0.9094
  845MOL0     H14050  -3.124   2.710   5.700  0.3534  0.6825 -1.1764
  845MOL0     H14051  -3.386   2.569   5.632  0.4070  0.8555 -2.7277
  845MOL0     H14052  -3.344   2.651   5.792  0.4164 -0.3407 -0.5454
  845MOL0     H14053  -3.315   2.797   5.516  0.7958  2.0621  0.3882
  845MOL0     H14054  -3.295   2.852   5.688  0.2438 -1.8029  1.7726
  845MOL0     H14055  -3.541   2.799   5.704  1.4878 -0.3970  0.0651
  845MOL0     H14056  -3.545   2.723   5.545  0.1636 -1.2293  1.7983
  845MOL0     H14057  -2.557   2.704   5.904  3.3552  1.7895 -3.2278
  845MOL0     H14058  -2.313   2.695   5.952 -0.8588  0.7397  0.2106
  845MOL0     H14059  -1.958   2.381   6.029 -0.3045 -0.2050 -0.7817
  845MOL0     H14060  -1.746   2.313   6.025 -3.2163 -0.3336  0.6227
  845MOL0     H14061  -0.175   3.243   5.240  0.4037 -1.7739 -1.0796
  845MOL0     H14062   0.028   3.294   5.363 -1.0925  0.0892 -1.7362
  845MOL0     H14063   0.410   3.062   5.590  1.2557 -0.4172  0.5441
  845MOL0     H14064   0.613   3.092   5.708 -0.5168  0.6220 -0.1663
  845MOL0     H14065   0.651   3.384   5.836  0.5285 -3.3463 -1.2031
  845MOL0     H14066   0.672   3.405   6.011 -1.7352  1.4503 -1.6642
  845MOL0     H14067   0.868   3.248   5.846 -0.3514 -2.3050  2.4712
  845MOL0     H14068   0.911   3.300   5.997 -2.4040  0.4247  2.2364
  845MOL0     H14069   0.837   3.494   5.778 -0.8695 -0.3739  1.1283
  845MOL0     H14070   1.013   3.456   5.800 -1.0938 -3.0116 -1.9136
  845MOL0     H14071   0.989   3.512   6.042  0.8021 -1.9052 -2.3714
  845MOL0     H14072   0.843   3.599   6.015 -1.6258 -0.7360 -1.6685
  845MOL0     H14073   1.150   3.804   5.779 -1.0174  1.7946 -0.5607
  845MOL0     H14074   0.414   3.296   6.020 -0.9922 -2.8918  0.9770
  845MOL0     H14075   0.199   3.289   5.888 -1.3008  0.8663 -2.3226
  846MOL0     O14076  11.246   2.016  10.765 -0.2744 -0.0793 -0.1676
  846MOL0     C14077  11.231   2.045  10.885  0.7763 -0.0094  0.5075
  846MOL0     O14078  11.114   2.072  10.947 -0.0771 -0.3304 -0.9398
  846MOL0     C14079  11.000   2.070  10.878 -0.5082 -0.0420  1.2811
  846MOL0     C14080  10.961   2.174  10.794  0.1696  0.2652  0.2457
  846MOL0     C14081  10.823   2.185  10.752  0.1793  0.2698 -1.0282
  846MOL0     C14082  10.733   2.073  10.783 -0.7241 -0.4597  0.4469
  846MOL0     O14083  10.602   2.099  10.753 -0.4599  0.7997 -0.0720
  846MOL0     C14084  10.499   2.031  10.838 -0.7133 -0.8552  0.0121
  846MOL0     C14085  10.366   2.115  10.817 -0.6166  0.4593 -0.1366
  846MOL0     C14086  10.255   2.027  10.876  0.8558 -0.5878 -0.5216
  846MOL0     C14087  10.126   2.106  10.930  0.8586  0.1347  0.6477
  846MOL0     C14088   9.998   2.014  10.926 -0.3796  0.8369 -0.5146
  846MOL0     C14089   9.862   2.090  10.933  0.5701  0.4017  1.2031
  846MOL0     C14090   9.845   2.204  11.035 -0.0602  0.7634  0.2313
  846MOL0     C14091   9.889   2.167  11.180 -0.2771  0.9355  0.0906
  846MOL0     N14092   9.870   2.272  11.284 -0.6305 -0.1453 -0.3674
  846MOL0     C14093   9.830   2.243  11.409 -0.0283  0.0583  0.4168
  846MOL0     C14094   9.815   2.365  11.464  0.0611 -0.3996  0.7831
  846MOL0     C14095   9.775   2.384  11.611 -0.0203  0.7655 -0.0305
  846MOL0     C14096   9.692   2.264  11.667  0.3654 -0.5582 -0.6537
  846MOL0     C14097   9.633   2.304  11.808  0.6941  0.2680 -0.6866
  846MOL0     C14098   9.533   2.426  11.803  1.2193 -0.1465 -0.6162
  846MOL0     O14099   9.429   2.396  11.707 -0.0288 -0.3629  0.2527
  846MOL0     C14100   9.313   2.474  11.718  0.2776  1.1936  0.3607
  846MOL0     C14101   9.283   2.578  11.804 -0.0428  0.0679 -0.4936
  846MOL0     C14102   9.152   2.620  11.817  0.0913 -0.1576  0.6065
  846MOL0     C14103   9.123   2.743  11.905 -0.5230  0.2786  0.6303
  846MOL0     C14104   9.052   2.563  11.727  0.1107 -0.6584 -0.4747
  846MOL0     C14105   8.915   2.617  11.728 -0.7013  0.3439  0.4461
  846MOL0     O14106   8.869   2.670  11.615 -0.5516  0.0580 -0.3602
  846MOL0     C14107   8.730   2.691  11.602  0.1073  0.6882  0.4661
  846MOL0     C14108   8.690   2.811  11.543 -1.0687  0.0642 -1.5748
  846MOL0     C14109   8.556   2.829  11.509  0.3278 -0.2453  0.2914
  846MOL0     C14110   8.455   2.734  11.523  0.0310 -0.1421 -0.6336
  846MOL0     O14111   8.321   2.754  11.498  0.1253  0.6265 -0.5223
  846MOL0     C14112   8.254   2.882  11.490 -0.8579 -0.8900 -0.2366
  846MOL0     C14113   8.108   2.873  11.487 -0.1443 -0.4274  0.0499
  846MOL0     C14114   8.043   2.857  11.619  0.0065  0.6996  0.0520
  846MOL0     C14115   7.898   2.887  11.614  0.0736 -0.3050 -0.1894
  846MOL0     C14116   7.816   2.762  11.578 -0.5826  0.2784  0.2412
  846MOL0     C14117   7.680   2.813  11.528 -0.0925 -0.0985  0.3880
  846MOL0     C14118   7.590   2.691  11.497 -0.3345 -0.3605 -0.2477
  846MOL0     C14119   7.517   2.621  11.611  0.0296 -0.0099 -0.8112
  846MOL0    Cl14120   7.360   2.696  11.667  0.0083 -0.4446 -0.6083
  846MOL0     C14121   8.500   2.619  11.587 -0.4781 -0.5934 -0.6291
  846MOL0     C14122   8.633   2.596  11.630 -0.6754  0.4350 -0.3945
  846MOL0     O14123   8.850   2.588  11.822  0.5795 -0.5583  0.0798
  846MOL0     C14124   9.084   2.459  11.642 -0.3288  0.1955 -0.3553
  846MOL0     C14125   9.212   2.419  11.636 -0.6272  0.1159  0.3505
  846MOL0     N14126   9.866   2.463  11.379 -0.7265 -0.2897 -0.6591
  846MOL0     N14127   9.889   2.407  11.268 -0.7298 -0.7330  0.0176
  846MOL0     C14128  10.784   1.969  10.855 -0.0311  0.2231  0.6187
  846MOL0     C14129  10.913   1.972  10.908  0.3973 -0.4510  0.5182
  846MOL0     C14130  11.355   2.051  10.964 -0.6504 -0.5172 -0.3301
  846MOL0     C14131  11.361   2.081  11.101  0.0157  0.4471  0.0733
  846MOL0     C14132  11.478   2.065  11.180  0.7999  0.8906 -0.5844
  846MOL0     C14133  11.595   2.014  11.122 -0.4275 -0.0857  0.6323
  846MOL0     O14134  11.716   1.990  11.174 -0.4275  0.0423 -0.7430
  846MOL0     C14135  11.756   2.054  11.301 -0.3264 -0.3867 -0.6398
  846MOL0     C14136  11.911   2.077  11.296  0.0182  0.2226  0.7964
  846MOL0     C14137  11.999   1.962  11.332  0.1797  0.2162  0.1859
  846MOL0     C14138  11.990   1.842  11.237  0.1980  1.3811  0.1553
  846MOL0     C14139  12.107   1.756  11.265  0.0107 -0.0321 -0.1622
  846MOL0     C14140  12.212   1.697  11.293 -0.0119 -0.9123  0.2966
  846MOL0     C14141  11.595   1.988  10.986  0.2993 -0.0045 -0.4836
  846MOL0     C14142  11.480   2.012  10.912  0.5255 -0.8366 -0.4916
  846MOL0     H14143  11.021   2.261  10.770 -1.1193  0.7653 -1.2908
  846MOL0     H14144  10.784   2.272  10.701 -2.2783 -0.5389 -0.6693
  846MOL0     H14145  10.487   1.931  10.796  0.7655  0.3053 -3.6433
  846MOL0     H14146  10.521   2.031  10.945 -1.9536  0.6343  0.3053
  846MOL0     H14147  10.376   2.215  10.859  2.0987 -0.7161  2.3268
  846MOL0     H14148  10.363   2.131  10.709  1.6294  1.2282 -0.1291
  846MOL0     H14149  10.228   1.950  10.803 -1.5778  0.4185 -0.7619
  846MOL0     H14150  10.282   1.973  10.968 -0.8663 -0.3903  0.1352
  846MOL0     H14151  10.145   2.157  11.025  0.2293  2.8543 -0.6086
  846MOL0     H14152  10.115   2.189  10.861  3.1723  1.0478  1.2705
  846MOL0     H14153   9.986   1.963  10.829 -1.4234  0.0817 -0.0150
  846MOL0     H14154   9.994   1.938  11.004 -2.1867 -0.4747 -1.7775
  846MOL0     H14155   9.842   2.134  10.835  2.0622  0.4711  0.9128
  846MOL0     H14156   9.786   2.013  10.947 -0.8078  1.8884  2.2990
  846MOL0     H14157   9.902   2.291  11.003  0.2867  0.5821  0.3548
  846MOL0     H14158   9.740   2.235  11.040  0.0126  1.3090 -1.2406
  846MOL0     H14159   9.996   2.148  11.178 -0.8157 -2.8754  0.2552
  846MOL0     H14160   9.840   2.074  11.213  0.8393  0.7421  1.2786
  846MOL0     H14161   9.829   2.143  11.449  2.2046 -2.0315 -4.0160
  846MOL0     H14162   9.861   2.386  11.678  0.2723  2.5599 -0.4074
  846MOL0     H14163   9.718   2.478  11.612  1.5533  1.7523  0.2059
  846MOL0     H14164   9.764   2.183  11.683  2.5103  1.4669  0.5103
  846MOL0     H14165   9.601   2.234  11.614 -0.5253 -0.6433  0.8581
  846MOL0     H14166   9.714   2.326  11.877  0.7839 -0.1512 -0.6559
  846MOL0     H14167   9.578   2.217  11.845  0.5593  0.1381 -1.1840
  846MOL0     H14168   9.600   2.508  11.773  0.4104  0.5304 -0.6290
  846MOL0     H14169   9.491   2.433  11.904  2.3202 -1.0722 -0.0731
  846MOL0     H14170   9.361   2.628  11.861  0.1385 -0.7392 -0.0276
  846MOL0     H14171   9.022   2.741  11.946  0.0508 -0.8819  2.0550
  846MOL0     H14172   9.193   2.764  11.986  0.9370 -1.5216 -0.1101
  846MOL0     H14173   9.133   2.833  11.843 -2.6605  0.7676  0.9205
  846MOL0     H14174   8.762   2.886  11.513 -3.6856  2.5510 -2.0125
  846MOL0     H14175   8.522   2.917  11.455  0.4865 -0.9552 -1.0146
  846MOL0     H14176   8.275   2.934  11.584 -1.8166 -1.0916  0.1020
  846MOL0     H14177   8.286   2.938  11.402 -0.7793  0.4763  0.6342
  846MOL0     H14178   8.077   2.962  11.431 -1.4782 -0.7351  0.2449
  846MOL0     H14179   8.085   2.786  11.423 -1.0041 -1.2958  1.4694
  846MOL0     H14180   8.092   2.922  11.692 -0.1483  0.8117  0.0565
  846MOL0     H14181   8.074   2.757  11.653 -0.1599  0.0312 -1.6872
  846MOL0     H14182   7.866   2.924  11.711 -0.7960 -0.9473 -0.2151
  846MOL0     H14183   7.879   2.961  11.536 -0.0149  1.7477  1.7012
  846MOL0     H14184   7.804   2.686  11.655 -1.8396 -0.6269 -0.8141
  846MOL0     H14185   7.866   2.721  11.490 -2.1183 -0.8922 -0.1161
  846MOL0     H14186   7.639   2.880  11.603  1.9136 -0.0082  1.4666
  846MOL0     H14187   7.679   2.878  11.440 -1.4141 -0.7051 -0.0745
  846MOL0     H14188   7.648   2.616  11.444  1.7556 -0.7579  2.3799
  846MOL0     H14189   7.519   2.734  11.426 -0.4082 -0.2660 -0.1183
  846MOL0     H14190   7.583   2.588  11.692  1.2497  3.6018 -0.1567
  846MOL0     H14191   7.480   2.526  11.569 -0.3004 -0.3194  0.1653
  846MOL0     H14192   8.428   2.542  11.611  0.0365 -1.2302 -1.0768
  846MOL0     H14193   8.654   2.492  11.656 -0.9437 -0.3710 -3.0608
  846MOL0     H14194   9.007   2.419  11.578  0.6095 -3.1311  0.4212
  846MOL0     H14195   9.233   2.328  11.582 -0.7581 -1.2365  2.4698
  846MOL0     H14196  10.721   1.885  10.884  1.5131 -1.3036 -0.2502
  846MOL0     H14197  10.950   1.884  10.961  0.0258 -1.0380 -0.1927
  846MOL0     H14198  11.265   2.109  11.142 -1.2220 -1.5538 -1.3273
  846MOL0     H14199  11.477   2.086  11.287 -2.0404  0.9382 -0.5325
  846MOL0     H14200  11.712   2.153  11.312 -0.4758 -0.6841  2.2257
  846MOL0     H14201  11.730   1.994  11.389 -0.3875 -0.2416 -0.5597
  846MOL0     H14202  11.924   2.158  11.369 -1.7288 -0.5361  2.0290
  846MOL0     H14203  11.945   2.112  11.198 -2.2296 -1.3392 -0.6255
  846MOL0     H14204  11.983   1.938  11.438 -1.2230  2.0835  0.4644
  846MOL0     H14205  12.101   2.001  11.326 -0.8699  3.4087  0.8717
  846MOL0     H14206  11.998   1.859  11.129  0.4477 -0.9944 -0.2593
  846MOL0     H14207  11.899   1.784  11.253  0.9606 -0.5581 -1.9708
  846MOL0     H14208  12.307   1.655  11.319  0.0078 -2.2293 -1.7049
  846MOL0     H14209  11.689   1.959  10.941  0.1785 -0.1484 -0.6463
  846MOL0     H14210  11.482   1.991  10.805 -1.9626  0.8999 -0.9780
  847MOL0     O14211   7.609  10.479   3.320 -0.8096  0.0109  0.4041
  847MOL0     C14212   7.637  10.446   3.434 -0.8548  0.9364 -0.6420
  847MOL0     O14213   7.547  10.428   3.538 -0.7354 -1.0285 -0.4256
  847MOL0     C14214   7.414  10.442   3.511  0.5403 -0.2062  0.2935
  847MOL0     C14215   7.338  10.524   3.604 -0.7554  0.3331 -0.6259
  847MOL0     C14216   7.196  10.521   3.599 -0.3509  0.3660 -0.0843
  847MOL0     C14217   7.125  10.453   3.494 -0.1072  0.2621  0.7198
  847MOL0     O14218   6.987  10.459   3.471 -0.4302 -0.0343 -0.0118
  847MOL0     C14219   6.937  10.595   3.475 -0.4418 -0.0354  0.4005
  847MOL0     C14220   6.808  10.620   3.403  0.7317 -0.5728 -0.1613
  847MOL0     C14221   6.696  10.556   3.489 -0.5329 -0.1007 -0.1705
  847MOL0     C14222   6.550  10.578   3.430  0.1653 -0.4709 -0.1409
  847MOL0     C14223   6.442  10.514   3.519  0.2976 -0.3474  0.3221
  847MOL0     C14224   6.304  10.534   3.460  0.4075 -0.4379 -0.2702
  847MOL0     C14225   6.179  10.468   3.526 -0.2630  0.5304 -0.0364
  847MOL0     C14226   6.049  10.510   3.459 -0.3956  0.2152 -0.5317
  847MOL0     N14227   5.949  10.399   3.477 -0.0597 -0.7266 -0.9993
  847MOL0     C14228   5.906  10.355   3.596  0.6780 -0.5429  0.2097
  847MOL0     C14229   5.832  10.251   3.560 -0.5590  0.1380  0.5827
  847MOL0     C14230   5.757  10.169   3.658 -1.1435  0.8077 -0.5944
  847MOL0     C14231   5.823  10.164   3.793 -0.1406 -0.3859 -0.1817
  847MOL0     C14232   5.766  10.068   3.899 -0.4686 -0.1402  0.1708
  847MOL0     C14233   5.612  10.049   3.907  0.0193 -0.4195 -0.1968
  847MOL0     O14234   5.567   9.966   4.015  0.6206  0.0846  0.0124
  847MOL0     C14235   5.435   9.971   4.055 -0.7595 -0.5020  0.8112
  847MOL0     C14236   5.325  10.013   3.982 -0.0871 -0.3987 -0.0316
  847MOL0     C14237   5.202  10.037   4.043  0.9074  0.0271  0.2225
  847MOL0     C14238   5.089  10.076   3.949 -0.2458  0.8403  0.3123
  847MOL0     C14239   5.179  10.004   4.185  0.1938  0.5761  0.0888
  847MOL0     C14240   5.050  10.037   4.255 -0.4530 -0.0750  0.3935
  847MOL0     O14241   5.056  10.108   4.372  0.1615  0.4718 -0.2790
  847MOL0     C14242   4.943  10.105   4.454 -0.1313  0.5058  1.2576
  847MOL0     C14243   4.916  10.226   4.510  1.0484  0.2356 -0.3677
  847MOL0     C14244   4.792  10.244   4.569  1.3875 -0.4456 -0.1391
  847MOL0     C14245   4.705  10.139   4.593  0.2108 -0.8179  0.8899
  847MOL0     O14246   4.592  10.156   4.667  0.1503  0.1490 -0.2372
  847MOL0     C14247   4.510  10.272   4.650  0.1905 -0.0537 -0.7706
  847MOL0     C14248   4.378  10.245   4.718 -0.2379  0.2934  0.1861
  847MOL0     C14249   4.297  10.132   4.661 -0.0199 -0.5725  0.7332
  847MOL0     C14250   4.216  10.182   4.533  1.1799  0.0910 -0.0026
  847MOL0     C14251   4.100  10.079   4.498  0.8074  0.1049  0.2513
  847MOL0     C14252   4.034  10.119   4.355  0.3342 -0.2577 -0.4241
  847MOL0     C14253   3.905  10.038   4.329  0.2466 -0.5486  0.0624
  847MOL0     C14254   3.855  10.064   4.182  0.2946 -0.5599 -0.0716
  847MOL0    Cl14255   3.753  10.215   4.162 -0.1397  0.0781  0.2076
  847MOL0     C14256   4.745  10.014   4.558 -0.1741  0.1207 -0.0616
  847MOL0     C14257   4.865   9.995   4.489 -0.4286 -0.1771 -0.4629
  847MOL0     O14258   4.944  10.002   4.205  0.2256 -0.0079  0.3285
  847MOL0     C14259   5.291   9.954   4.256 -0.0860 -0.4656  0.9402
  847MOL0     C14260   5.417   9.941   4.190  0.1052 -0.2728  0.6993
  847MOL0     N14261   5.827  10.234   3.421  0.2961  0.2811 -1.1138
  847MOL0     N14262   5.899  10.324   3.374 -0.1220  0.0707  0.4221
  847MOL0     C14263   7.203  10.392   3.394 -0.3270  0.2494 -0.1350
  847MOL0     C14264   7.344  10.379   3.412  0.5016 -0.0214  0.7502
  847MOL0     C14265   7.780  10.434   3.457 -0.6073 -0.1240 -0.5121
  847MOL0     C14266   7.823  10.407   3.591  0.8950  0.2659 -0.1285
  847MOL0     C14267   7.959  10.406   3.619  0.7058  0.8767 -0.0050
  847MOL0     C14268   8.055  10.430   3.527  0.5441 -0.4039 -0.7796
  847MOL0     O14269   8.189  10.433   3.567 -0.3461  0.3612 -0.0497
  847MOL0     C14270   8.280  10.513   3.494  0.0325  0.9202  0.9531
  847MOL0     C14271   8.356  10.425   3.389  0.0964  0.2528  0.1928
  847MOL0     C14272   8.467  10.492   3.308  0.1251  0.2095 -0.1571
  847MOL0     C14273   8.515  10.400   3.191  0.3990 -0.5248 -0.2476
  847MOL0     C14274   8.597  10.476   3.095 -0.0452  0.1810  0.0093
  847MOL0     C14275   8.668  10.541   3.026 -0.1771 -0.1425 -0.9142
  847MOL0     C14276   8.008  10.463   3.392 -0.1414  0.2790 -0.7941
  847MOL0     C14277   7.874  10.472   3.360 -0.8776  0.9181  0.2538
  847MOL0     H14278   7.389  10.582   3.680 -0.7789  0.1119 -0.4367
  847MOL0     H14279   7.132  10.560   3.678  0.3555 -0.7966  1.1110
  847MOL0     H14280   6.923  10.633   3.576 -0.2827 -0.4374  0.5745
  847MOL0     H14281   7.006  10.659   3.417 -1.0978  0.9003  0.6372
  847MOL0     H14282   6.799  10.729   3.401  1.5619 -0.4057  2.1750
  847MOL0     H14283   6.812  10.576   3.303 -1.5711  0.2647 -0.6809
  847MOL0     H14284   6.720  10.449   3.490  2.8910  0.5277 -0.7854
  847MOL0     H14285   6.707  10.588   3.593 -0.9297 -1.5915  0.3542
  847MOL0     H14286   6.530  10.685   3.427 -1.0562 -0.7036 -2.2732
  847MOL0     H14287   6.540  10.543   3.327 -1.1883  0.8749 -0.5022
  847MOL0     H14288   6.459  10.410   3.547 -1.0434 -0.1268  2.1181
  847MOL0     H14289   6.437  10.576   3.609  0.6218  1.7247 -0.9909
  847MOL0     H14290   6.275  10.640   3.460 -1.2580 -0.7776  3.0246
  847MOL0     H14291   6.308  10.505   3.354 -0.6567  0.4798 -0.5832
  847MOL0     H14292   6.207  10.363   3.519  0.6378  0.8349 -1.4631
  847MOL0     H14293   6.178  10.489   3.634  2.2875 -3.4336  0.9966
  847MOL0     H14294   6.055  10.526   3.351  0.2453 -1.3248 -0.7511
  847MOL0     H14295   6.007  10.602   3.502 -0.3269 -0.9543  2.1858
  847MOL0     H14296   5.934  10.393   3.694 -0.1797  1.8946 -0.4227
  847MOL0     H14297   5.651  10.195   3.651 -0.8551  2.7362  1.0885
  847MOL0     H14298   5.757  10.065   3.627 -1.6872  0.7083 -0.2806
  847MOL0     H14299   5.798  10.260   3.838 -0.7133 -2.4729  4.4799
  847MOL0     H14300   5.931  10.151   3.784 -0.2610 -1.3297 -0.4022
  847MOL0     H14301   5.799  10.101   3.998 -1.0837  0.4455  0.1908
  847MOL0     H14302   5.810   9.970   3.879  1.4645  0.6609  0.3323
  847MOL0     H14303   5.587   9.994   3.815  0.4044 -1.6816  0.4366
  847MOL0     H14304   5.568  10.148   3.916  1.7230  0.5267 -1.5338
  847MOL0     H14305   5.348  10.043   3.880 -1.7097  0.6293 -0.1247
  847MOL0     H14306   5.114  10.156   3.878 -0.9130  2.1138  1.4595
  847MOL0     H14307   5.056   9.987   3.896 -0.5935  1.5531 -0.6867
  847MOL0     H14308   4.999  10.108   4.002 -0.8965  0.1938 -0.3938
  847MOL0     H14309   4.986  10.306   4.486  2.3109 -0.2692  1.3973
  847MOL0     H14310   4.777  10.347   4.601  2.9169  0.0924 -1.0234
  847MOL0     H14311   4.558  10.362   4.690  2.3051 -0.9011 -1.2809
  847MOL0     H14312   4.489  10.292   4.545 -0.2700  0.3996 -0.5978
  847MOL0     H14313   4.392  10.219   4.824  0.3929 -1.5008 -0.2985
  847MOL0     H14314   4.310  10.330   4.732  0.3336  0.7587  0.1603
  847MOL0     H14315   4.220  10.101   4.733 -0.9004 -0.4956 -0.1531
  847MOL0     H14316   4.359  10.044   4.643  0.8036  0.2249 -0.5301
  847MOL0     H14317   4.170  10.275   4.567  2.9912  0.7589  0.7536
  847MOL0     H14318   4.278  10.201   4.445  1.1429 -1.0878 -0.3078
  847MOL0     H14319   4.024  10.083   4.577 -0.0449 -1.7947 -0.4247
  847MOL0     H14320   4.134   9.975   4.489 -0.2866 -0.1685 -1.0668
  847MOL0     H14321   4.003  10.224   4.356 -0.1956 -0.3959 -1.1685
  847MOL0     H14322   4.108  10.105   4.276  1.6758  0.4821  0.6656
  847MOL0     H14323   3.829  10.062   4.404  1.0557 -1.5194  1.2419
  847MOL0     H14324   3.925   9.930   4.325  0.2910 -0.5387  0.0261
  847MOL0     H14325   3.790   9.981   4.152  1.5401 -2.0450  1.1576
  847MOL0     H14326   3.941  10.068   4.115  0.0866 -2.6745 -0.5426
  847MOL0     H14327   4.685   9.927   4.584 -0.5171  0.6890  1.1064
  847MOL0     H14328   4.893   9.891   4.472 -0.0924 -0.3573  1.0235
  847MOL0     H14329   5.280   9.932   4.362 -2.3088 -0.2467  0.8126
  847MOL0     H14330   5.507   9.911   4.243  1.5536  4.2057  1.1872
  847MOL0     H14331   7.158  10.335   3.314 -2.5486  0.8269  0.6286
  847MOL0     H14332   7.386  10.312   3.337 -0.1585 -0.2864  0.6104
  847MOL0     H14333   7.740  10.379   3.655 -1.0326  0.9241 -2.2239
  847MOL0     H14334   7.978  10.389   3.725 -0.6636  2.7229  0.5886
  847MOL0     H14335   8.227  10.595   3.444  0.0840 -0.4934 -1.5867
  847MOL0     H14336   8.352  10.553   3.566  3.4871 -0.7926 -1.2798
  847MOL0     H14337   8.285  10.385   3.316 -3.0489  0.6974  2.7764
  847MOL0     H14338   8.401  10.339   3.439  0.0330  0.2189  0.1917
  847MOL0     H14339   8.556  10.511   3.370 -0.3308 -1.2158  0.9802
  847MOL0     H14340   8.428  10.586   3.266 -0.5507  1.5697  3.1435
  847MOL0     H14341   8.426  10.358   3.143 -1.4815 -0.8480  3.1621
  847MOL0     H14342   8.576  10.319   3.233 -2.5654 -1.2616  3.1082
  847MOL0     H14343   8.733  10.594   2.959  1.0036 -0.0845  0.2423
  847MOL0     H14344   8.074  10.512   3.322  0.5174  2.3343  1.1263
  847MOL0     H14345   7.835  10.487   3.260 -0.9619 -1.8040 -0.2026
  848MOL0     O14346   3.448   6.270   0.850  0.2755 -0.3686  0.5427
  848MOL0     C14347   3.513   6.357   0.793 -0.1063 -0.1960  0.0130
  848MOL0     O14348   3.461   6.455   0.709 -0.5703  0.4000  0.3251
  848MOL0     C14349   3.328   6.480   0.706 -0.3225  0.2947  0.0900
  848MOL0     C14350   3.230   6.396   0.671  0.6749 -0.5491 -0.0827
  848MOL0     C14351   3.089   6.448   0.665 -0.4752  0.2546  0.3255
  848MOL0     C14352   3.067   6.583   0.694 -0.1799  0.5647 -0.2785
  848MOL0     O14353   2.939   6.630   0.691 -0.0790  0.1912  0.6017
  848MOL0     C14354   2.884   6.664   0.821 -0.7282  0.4482 -1.0754
  848MOL0     C14355   2.741   6.694   0.791  0.4675  0.0622 -0.2993
  848MOL0     C14356   2.656   6.574   0.742  0.4459  0.2690 -0.0570
  848MOL0     C14357   2.508   6.605   0.719 -0.0402  0.2521 -0.4635
  848MOL0     C14358   2.429   6.507   0.630 -0.3703  0.3575 -0.3919
  848MOL0     C14359   2.300   6.570   0.578  0.2147 -0.2442  0.0586
  848MOL0     C14360   2.215   6.459   0.528  0.6863 -0.4850 -0.6495
  848MOL0     C14361   2.088   6.515   0.464 -0.2557 -0.3517 -0.2283
  848MOL0     N14362   1.982   6.413   0.456 -0.4198 -0.5347 -0.1176
  848MOL0     C14363   1.897   6.401   0.563 -0.2259 -0.1719 -0.0892
  848MOL0     C14364   1.790   6.326   0.524 -0.1546 -0.3172  0.3990
  848MOL0     C14365   1.689   6.280   0.622  1.2262 -0.0153 -0.0411
  848MOL0     C14366   1.543   6.315   0.593  0.3323 -0.0912  0.2208
  848MOL0     C14367   1.516   6.466   0.605 -0.6558  0.3877  0.1056
  848MOL0     C14368   1.361   6.497   0.593 -0.6509  0.0646  0.1263
  848MOL0     O14369   1.302   6.446   0.471 -0.0667 -0.1897  0.3098
  848MOL0     C14370   1.167   6.444   0.460 -0.7050  0.6848  0.2153
  848MOL0     C14371   1.118   6.403   0.341  0.0367  0.6168 -0.2796
  848MOL0     C14372   0.975   6.404   0.309 -0.0933  0.7055  0.0200
  848MOL0     C14373   0.935   6.339   0.183 -0.5532 -0.4985 -0.3517
  848MOL0     C14374   0.886   6.456   0.410 -0.4896  0.1734 -0.8135
  848MOL0     C14375   0.738   6.463   0.399 -0.0151 -0.9079  0.5542
  848MOL0     O14376   0.669   6.576   0.458 -0.0121  1.3113 -0.2087
  848MOL0     C14377   0.530   6.585   0.450 -0.1741 -0.4349  0.8521
  848MOL0     C14378   0.467   6.709   0.415 -1.2344  0.1026 -0.6982
  848MOL0     C14379   0.329   6.718   0.426  0.0711  0.5028  0.0207
  848MOL0     C14380   0.248   6.609   0.448 -0.7237  0.0718  0.5763
  848MOL0     O14381   0.110   6.613   0.446 -0.1230 -0.4430 -0.1436
  848MOL0     C14382   0.055   6.680   0.328 -0.0390  0.2442  0.7354
  848MOL0     C14383  -0.089   6.721   0.352  0.5844  0.8409 -0.2026
  848MOL0     C14384  -0.102   6.818   0.476  0.1929  0.4268  0.8380
  848MOL0     C14385  -0.255   6.851   0.493  0.2134  0.1034 -0.4858
  848MOL0     C14386  -0.277   6.944   0.610  0.2473 -0.4577  0.5696
  848MOL0     C14387  -0.428   6.954   0.637 -0.3340 -0.5067  0.5244
  848MOL0     C14388  -0.432   7.019   0.778 -0.1379  0.5116  0.4677
  848MOL0     C14389  -0.572   7.066   0.809 -0.2546 -0.1858  0.0407
  848MOL0    Cl14390  -0.588   7.104   0.989  0.5294 -0.2537 -0.1049
  848MOL0     C14391   0.314   6.488   0.466 -0.3879 -0.1403 -0.0437
  848MOL0     C14392   0.447   6.473   0.467  0.1886 -0.8586  0.1905
  848MOL0     O14393   0.685   6.373   0.333  0.3511  0.7710 -0.4780
  848MOL0     C14394   0.949   6.509   0.523 -0.1653  0.1475 -0.1801
  848MOL0     C14395   1.086   6.504   0.548  0.2996 -0.1640 -0.3415
  848MOL0     N14396   1.808   6.293   0.395  0.3401  0.3302  0.4311
  848MOL0     N14397   1.929   6.345   0.356  0.2636 -0.7175  0.7478
  848MOL0     C14398   3.172   6.661   0.738  0.6209 -0.3745  0.0417
  848MOL0     C14399   3.301   6.611   0.728 -0.6207  0.0785  0.9064
  848MOL0     C14400   3.662   6.363   0.796 -0.3262  0.4428 -0.6537
  848MOL0     C14401   3.732   6.426   0.684 -1.1177  1.0067  0.1221
  848MOL0     C14402   3.867   6.446   0.690 -0.0602 -0.1360  0.0392
  848MOL0     C14403   3.946   6.386   0.790 -0.7211 -0.7992 -0.1558
  848MOL0     O14404   4.086   6.398   0.774  0.4222 -0.2771 -0.4532
  848MOL0     C14405   4.168   6.293   0.831  0.7487 -0.7183  0.0453
  848MOL0     C14406   4.327   6.320   0.799  0.1629  0.3831 -1.0940
  848MOL0     C14407   4.407   6.207   0.864 -0.0098 -0.7117  0.2495
  848MOL0     C14408   4.390   6.072   0.799 -0.4060  0.3895  0.5641
  848MOL0     C14409   4.403   6.068   0.647  0.6791  0.3428 -0.0018
  848MOL0     C14410   4.420   6.079   0.529 -0.4174 -0.0673 -0.1211
  848MOL0     C14411   3.885   6.304   0.889  0.0028  0.5118  1.2207
  848MOL0     C14412   3.747   6.296   0.892  0.4275  0.4775  0.0929
  848MOL0     H14413   3.264   6.297   0.640  0.0975 -0.0492 -2.4961
  848MOL0     H14414   3.010   6.382   0.631 -1.0083  1.1884 -0.2819
  848MOL0     H14415   2.893   6.580   0.890  1.4597  2.3763  1.2026
  848MOL0     H14416   2.926   6.751   0.872 -2.4556  1.1379 -0.7806
  848MOL0     H14417   2.699   6.736   0.883  0.7715 -0.5069  0.1060
  848MOL0     H14418   2.737   6.777   0.721 -0.0790  0.6945  0.4649
  848MOL0     H14419   2.702   6.545   0.647 -1.4635  1.4489 -1.4146
  848MOL0     H14420   2.651   6.493   0.816 -1.8481  0.5946  0.2059
  848MOL0     H14421   2.460   6.620   0.816  1.8409 -0.3956  0.6255
  848MOL0     H14422   2.500   6.701   0.666 -1.1200  0.0632 -0.6618
  848MOL0     H14423   2.487   6.475   0.542  0.5145  2.8369 -0.7792
  848MOL0     H14424   2.410   6.422   0.696  2.5199  1.1327  1.6494
  848MOL0     H14425   2.244   6.609   0.663 -0.7729 -0.0295 -0.6723
  848MOL0     H14426   2.314   6.655   0.510 -1.8999  3.3643  3.6499
  848MOL0     H14427   2.260   6.395   0.452  1.9438  0.1137 -0.4294
  848MOL0     H14428   2.186   6.397   0.613  0.5503 -0.7520 -0.8870
  848MOL0     H14429   2.107   6.558   0.366 -0.7797  0.0103 -0.1793
  848MOL0     H14430   2.046   6.596   0.525  0.4528 -0.4584  0.4089
  848MOL0     H14431   1.905   6.427   0.668 -1.6463 -2.6104  0.7176
  848MOL0     H14432   1.688   6.171   0.613 -0.5390  0.0349 -1.0372
  848MOL0     H14433   1.707   6.322   0.722 -1.5108 -1.0870  1.0064
  848MOL0     H14434   1.488   6.272   0.677 -0.0285  0.0198  0.0397
  848MOL0     H14435   1.519   6.275   0.494  1.2138 -0.6463  0.2180
  848MOL0     H14436   1.585   6.505   0.530 -1.5358  1.9758  0.0773
  848MOL0     H14437   1.544   6.491   0.708 -1.4462  0.5316  0.2874
  848MOL0     H14438   1.354   6.606   0.587  1.1637  0.1864 -0.4241
  848MOL0     H14439   1.323   6.457   0.687  0.0128 -2.3486 -0.5498
  848MOL0     H14440   1.196   6.378   0.269  2.2803  3.0693  1.0950
  848MOL0     H14441   0.872   6.251   0.203 -0.7892  0.1361  2.0238
  848MOL0     H14442   0.879   6.407   0.119  2.5223  0.2135 -2.5140
  848MOL0     H14443   1.019   6.319   0.116 -0.8549  3.7348 -2.2690
  848MOL0     H14444   0.526   6.799   0.400  0.5746 -0.5498  1.8814
  848MOL0     H14445   0.276   6.810   0.402 -1.1388 -0.6519 -1.9870
  848MOL0     H14446   0.109   6.768   0.293 -0.2695 -0.1518 -0.6791
  848MOL0     H14447   0.059   6.617   0.239 -3.2049  0.3377  0.4014
  848MOL0     H14448  -0.143   6.761   0.265  1.0105 -1.9969 -1.8836
  848MOL0     H14449  -0.143   6.628   0.373 -1.0232  1.9131  0.6044
  848MOL0     H14450  -0.056   6.916   0.468  0.6678  0.2840  1.6612
  848MOL0     H14451  -0.055   6.776   0.566  1.1660  3.3320  1.8114
  848MOL0     H14452  -0.297   6.904   0.407  2.2832  1.0721 -0.9613
  848MOL0     H14453  -0.310   6.757   0.505  0.3338  0.0564 -0.2935
  848MOL0     H14454  -0.241   7.043   0.581  1.8300 -1.7429 -2.1776
  848MOL0     H14455  -0.224   6.899   0.694 -1.6081 -2.6376  0.6909
  848MOL0     H14456  -0.473   7.008   0.553 -0.6716 -0.9752  0.3966
  848MOL0     H14457  -0.484   6.860   0.636 -1.4490  0.1412  0.2763
  848MOL0     H14458  -0.358   7.098   0.798  0.9920  1.0269 -4.4262
  848MOL0     H14459  -0.412   6.943   0.854 -2.2960 -0.4242  0.1613
  848MOL0     H14460  -0.645   6.996   0.767  0.6011 -0.4936 -0.9869
  848MOL0     H14461  -0.580   7.163   0.759 -0.4264  0.2828  0.9593
  848MOL0     H14462   0.248   6.402   0.470  0.2862 -0.6348  0.7559
  848MOL0     H14463   0.480   6.370   0.483 -0.6260 -1.1733 -0.0795
  848MOL0     H14464   0.875   6.550   0.592 -0.9056  0.5293 -1.1677
  848MOL0     H14465   1.121   6.539   0.644 -2.1842 -1.6126  1.2117
  848MOL0     H14466   3.164   6.765   0.769  1.3908 -0.2163 -0.2669
  848MOL0     H14467   3.376   6.690   0.734 -1.0770  0.4784  1.4238
  848MOL0     H14468   3.680   6.466   0.598  1.3715  0.8063 -1.5816
  848MOL0     H14469   3.904   6.502   0.605 -0.0072 -2.3473 -1.4821
  848MOL0     H14470   4.151   6.282   0.939 -2.4575 -1.9370 -0.4615
  848MOL0     H14471   4.130   6.201   0.785 -2.9290  0.9024 -0.5512
  848MOL0     H14472   4.356   6.415   0.846 -0.2275  0.8295 -1.7336
  848MOL0     H14473   4.350   6.320   0.692 -1.8576 -0.9107 -1.5922
  848MOL0     H14474   4.386   6.186   0.970  1.1155 -0.7807  0.4726
  848MOL0     H14475   4.510   6.240   0.847 -0.9269  2.0521 -0.4688
  848MOL0     H14476   4.291   6.030   0.819 -0.3181  0.1316  0.4578
  848MOL0     H14477   4.466   6.002   0.834 -0.9649  0.0113  1.0402
  848MOL0     H14478   4.440   6.100   0.426 -0.7343 -0.3202 -0.2393
  848MOL0     H14479   3.934   6.261   0.976  2.5577 -0.8723 -0.7743
  848MOL0     H14480   3.695   6.230   0.961 -1.5378  0.5723 -1.2194
  849MOL0     O14481   3.172   4.260   9.174  0.1402 -0.7546 -0.1645
  849MOL0     C14482   3.238   4.318   9.263 -0.7514  0.3328  0.4259
  849MOL0     O14483   3.205   4.326   9.393  0.3180  0.2408 -0.0519
  849MOL0     C14484   3.079   4.287   9.428 -0.3310 -0.1729  0.0895
  849MOL0     C14485   2.967   4.372   9.402 -0.3301  0.2860 -0.8784
  849MOL0     C14486   2.842   4.334   9.460 -0.8069  0.4325 -0.0285
  849MOL0     C14487   2.822   4.225   9.541 -0.4578 -0.4991 -0.6511
  849MOL0     O14488   2.687   4.199   9.586 -1.5846  0.5631 -0.0007
  849MOL0     C14489   2.665   4.111   9.695  0.4872 -0.0047  0.3451
  849MOL0     C14490   2.537   4.160   9.767 -0.2289 -0.2861  0.6061
  849MOL0     C14491   2.406   4.120   9.696  0.4720 -0.0369 -0.1466
  849MOL0     C14492   2.294   4.155   9.785  0.3800  0.5893  0.3386
  849MOL0     C14493   2.150   4.109   9.741 -0.3210 -0.3058 -0.4127
  849MOL0     C14494   2.033   4.151   9.832 -0.5273  1.3946  0.1943
  849MOL0     C14495   1.917   4.048   9.809  0.4308 -0.8409  0.0260
  849MOL0     C14496   1.785   4.078   9.899 -0.0697  0.1520  0.3704
  849MOL0     N14497   1.679   3.967   9.894 -0.0303  0.4034 -0.2360
  849MOL0     C14498   1.673   3.842   9.946  0.2250  0.3963 -0.3630
  849MOL0     C14499   1.561   3.791   9.892  0.2099 -0.3773 -0.4145
  849MOL0     C14500   1.528   3.650   9.904  1.0135  0.6122  0.7930
  849MOL0     C14501   1.377   3.623   9.936 -0.6925 -0.1691 -0.5606
  849MOL0     C14502   1.360   3.475   9.972 -0.6764 -0.0778  0.0751
  849MOL0     C14503   1.212   3.439   9.984 -0.5930 -0.7894 -0.5619
  849MOL0     O14504   1.199   3.305  10.022  0.6547  0.2032 -0.0701
  849MOL0     C14505   1.080   3.247  10.067  0.7169  0.3505 -0.2343
  849MOL0     C14506   0.970   3.325  10.119 -0.0123  0.6645  0.5115
  849MOL0     C14507   0.841   3.272  10.137 -0.9824  0.2521 -0.1389
  849MOL0     C14508   0.729   3.361  10.162 -0.2359  1.0064  0.0617
  849MOL0     C14509   0.832   3.133  10.111  0.1578  1.4869  0.3183
  849MOL0     C14510   0.701   3.062  10.092  0.1067  0.3997 -0.6309
  849MOL0     O14511   0.677   3.011   9.975  0.1347 -0.3497  0.1689
  849MOL0     C14512   0.554   2.963   9.938 -0.1127  0.2934  0.1649
  849MOL0     C14513   0.467   3.025   9.843 -0.2052  0.1596  0.5808
  849MOL0     C14514   0.352   2.955   9.805  1.1580 -0.0575 -0.3215
  849MOL0     C14515   0.315   2.831   9.857 -0.4782  0.7122 -0.1131
  849MOL0     O14516   0.207   2.771   9.797  0.2337  1.0034 -0.2058
  849MOL0     C14517   0.138   2.677   9.874 -1.0348 -0.3955  0.2233
  849MOL0     C14518  -0.002   2.639   9.813  0.0779 -0.7168 -0.4901
  849MOL0     C14519   0.012   2.555   9.683  0.7639 -1.5703 -0.4499
  849MOL0     C14520  -0.136   2.525   9.626  0.5245 -0.0622 -0.2925
  849MOL0     C14521  -0.123   2.457   9.491  0.3183 -0.2036 -0.2032
  849MOL0     C14522  -0.260   2.405   9.452 -0.2873 -0.0341 -0.0626
  849MOL0     C14523  -0.265   2.346   9.315 -0.4335  0.2513  1.3382
  849MOL0     C14524  -0.411   2.338   9.258 -0.5055  0.6126  0.7362
  849MOL0    Cl14525  -0.494   2.491   9.245  0.1547  0.2179 -0.5268
  849MOL0     C14526   0.413   2.767   9.936 -0.8338 -0.5178  0.6666
  849MOL0     C14527   0.531   2.830   9.974 -0.1549 -0.2682  0.2396
  849MOL0     O14528   0.616   3.068  10.183 -0.1566  0.5505 -0.0501
  849MOL0     C14529   0.941   3.056  10.069  0.1834  0.3681 -0.4350
  849MOL0     C14530   1.068   3.111  10.052  0.9225  0.2398 -0.3726
  849MOL0     N14531   1.500   3.890   9.816  0.0303  0.8715  0.9906
  849MOL0     N14532   1.574   3.993   9.814 -0.0606 -0.8271 -0.0086
  849MOL0     C14533   2.931   4.142   9.561  0.6576 -0.2403  0.2691
  849MOL0     C14534   3.059   4.172   9.504 -1.4788 -0.4551  0.3028
  849MOL0     C14535   3.359   4.385   9.212 -0.2479  0.5581 -0.2018
  849MOL0     C14536   3.401   4.371   9.076  0.8893 -0.7970  0.4267
  849MOL0     C14537   3.519   4.429   9.034  0.5112 -0.6301  0.6009
  849MOL0     C14538   3.610   4.498   9.116  0.1460  0.0650 -0.2801
  849MOL0     O14539   3.729   4.544   9.071 -0.1054  0.6248 -0.3962
  849MOL0     C14540   3.762   4.538   8.929  0.1224  0.6395 -0.4614
  849MOL0     C14541   3.906   4.568   8.900 -0.9582 -0.8799  0.9573
  849MOL0     C14542   3.942   4.508   8.763 -0.0996 -0.5905  0.4935
  849MOL0     C14543   4.084   4.561   8.736  0.2470  0.2222  0.0930
  849MOL0     C14544   4.180   4.494   8.832  0.3170 -0.5012 -0.4914
  849MOL0     C14545   4.254   4.429   8.902 -0.2168 -0.0800 -0.1483
  849MOL0     C14546   3.585   4.507   9.250 -0.5988  0.4362 -0.4486
  849MOL0     C14547   3.458   4.449   9.300 -0.2518  0.4457 -0.2586
  849MOL0     H14548   2.960   4.462   9.343 -0.2493 -0.5024 -2.1165
  849MOL0     H14549   2.763   4.407   9.447  0.4519  1.7697 -0.4731
  849MOL0     H14550   2.642   4.013   9.652 -3.0373  0.9121 -0.2303
  849MOL0     H14551   2.749   4.116   9.764  0.0127  0.8377  0.8715
  849MOL0     H14552   2.537   4.118   9.868  1.7725  2.0325  1.6980
  849MOL0     H14553   2.540   4.269   9.777 -1.6484 -0.1666 -0.0744
  849MOL0     H14554   2.396   4.169   9.598  3.1409  0.2057 -0.3732
  849MOL0     H14555   2.397   4.013   9.677  0.2701  0.0050 -0.2875
  849MOL0     H14556   2.321   4.112   9.882 -0.2562 -0.9254 -0.1260
  849MOL0     H14557   2.300   4.262   9.806 -2.7537  0.8785  0.2262
  849MOL0     H14558   2.135   4.152   9.641  0.9773 -0.7731 -0.8275
  849MOL0     H14559   2.150   4.000   9.733  0.2620 -0.5128  1.7791
  849MOL0     H14560   2.069   4.147   9.935  0.0603 -1.2547 -0.0406
  849MOL0     H14561   1.995   4.247   9.795 -0.6858  0.6546 -1.6782
  849MOL0     H14562   1.885   4.047   9.704 -1.5753  1.0823  0.5347
  849MOL0     H14563   1.957   3.948   9.825  2.1407 -0.0079  1.2819
  849MOL0     H14564   1.737   4.170   9.864 -0.1142  0.1348  0.3854
  849MOL0     H14565   1.818   4.085  10.003  0.8247 -0.9871  0.1922
  849MOL0     H14566   1.746   3.793  10.009  0.4453  1.3140  0.1115
  849MOL0     H14567   1.550   3.605   9.807 -2.3888 -2.7769  1.3357
  849MOL0     H14568   1.588   3.603   9.983  1.8356 -1.4857 -0.9977
  849MOL0     H14569   1.321   3.658   9.849 -1.7966  2.7609  1.1783
  849MOL0     H14570   1.348   3.685  10.020 -1.5113  0.7156 -1.4709
  849MOL0     H14571   1.400   3.466  10.073 -0.4586  3.4830  0.4536
  849MOL0     H14572   1.399   3.410   9.893 -0.8171  2.2572 -2.0578
  849MOL0     H14573   1.165   3.460   9.887 -2.0164 -0.7661  0.1139
  849MOL0     H14574   1.170   3.500  10.064  0.9515 -1.7862  1.0806
  849MOL0     H14575   0.985   3.430  10.137  2.4660  0.7045 -1.3012
  849MOL0     H14576   0.748   3.464  10.133  0.3825  0.2720 -2.3235
  849MOL0     H14577   0.643   3.336  10.100  0.6634 -1.2936 -0.3571
  849MOL0     H14578   0.697   3.355  10.267 -0.7439  1.5444 -0.0591
  849MOL0     H14579   0.490   3.119   9.794 -2.1224  0.2801 -0.1884
  849MOL0     H14580   0.282   2.993   9.731  0.8252 -2.0537 -1.1011
  849MOL0     H14581   0.195   2.584   9.867 -1.8985 -0.7978 -4.0879
  849MOL0     H14582   0.125   2.721   9.974 -0.1193 -0.2729  0.2887
  849MOL0     H14583  -0.062   2.584   9.886 -3.5912  0.5977 -2.2521
  849MOL0     H14584  -0.050   2.734   9.787  0.5256  0.0068  1.2011
  849MOL0     H14585   0.062   2.459   9.703 -0.3949 -2.2216 -0.5692
  849MOL0     H14586   0.073   2.609   9.611  0.7144  2.4091  2.1565
  849MOL0     H14587  -0.189   2.478   9.710  1.2293 -0.1890  0.0841
  849MOL0     H14588  -0.190   2.621   9.625 -0.9902 -0.7970  2.0365
  849MOL0     H14589  -0.047   2.378   9.499 -2.6375 -3.1042  1.6363
  849MOL0     H14590  -0.110   2.531   9.412  0.1232  1.4203  1.2202
  849MOL0     H14591  -0.284   2.322   9.519  2.5065 -0.9305 -0.0369
  849MOL0     H14592  -0.336   2.483   9.460 -2.1024 -1.8340  1.7124
  849MOL0     H14593  -0.209   2.253   9.329  1.3619  1.2214  0.9532
  849MOL0     H14594  -0.213   2.403   9.238 -2.6997 -2.9245 -2.9614
  849MOL0     H14595  -0.472   2.266   9.315 -1.7677  1.4420  0.4693
  849MOL0     H14596  -0.413   2.297   9.156 -1.8194 -2.1569  1.7632
  849MOL0     H14597   0.401   2.662   9.958 -0.8411 -1.0736 -1.6839
  849MOL0     H14598   0.591   2.775  10.045 -1.7752 -2.0803  0.2795
  849MOL0     H14599   0.932   2.952  10.039  0.5370  0.4938 -1.0079
  849MOL0     H14600   1.148   3.044  10.020  0.2617 -1.7730  1.8773
  849MOL0     H14601   2.925   4.048   9.614  0.2747 -0.8077 -0.7592
  849MOL0     H14602   3.153   4.118   9.515  2.1693  4.8355 -0.6705
  849MOL0     H14603   3.337   4.317   9.007 -1.0819  2.2446 -0.3318
  849MOL0     H14604   3.537   4.440   8.928  0.4141 -0.6411  0.5830
  849MOL0     H14605   3.749   4.431   8.910  1.5378  0.1162  1.2804
  849MOL0     H14606   3.700   4.606   8.868  0.4829  2.3227  0.9634
  849MOL0     H14607   3.959   4.511   8.977  0.8110 -0.3366  0.1969
  849MOL0     H14608   3.927   4.673   8.919  0.0149 -1.0077  0.6907
  849MOL0     H14609   3.867   4.541   8.690  1.3711  3.2531  0.4562
  849MOL0     H14610   3.941   4.399   8.751 -0.1645 -0.5168 -0.2188
  849MOL0     H14611   4.086   4.670   8.725  0.6607 -0.0157 -2.9980
  849MOL0     H14612   4.118   4.530   8.637 -2.3305 -1.2128 -0.4433
  849MOL0     H14613   4.319   4.367   8.961  0.2907 -0.2360 -0.8588
  849MOL0     H14614   3.645   4.563   9.321  1.4722 -1.2314 -0.7819
  849MOL0     H14615   3.433   4.472   9.403 -0.2550  0.1599 -0.1957
  850MOL0     O14616   8.072   2.672   7.082 -0.4942  0.5572  0.5804
  850MOL0     C14617   8.135   2.573   7.040  0.1115 -0.1980 -1.0658
  850MOL0     O14618   8.099   2.507   6.925 -0.0661  0.3504 -0.2893
  850MOL0     C14619   8.011   2.571   6.843  0.3142 -0.2467  0.0139
  850MOL0     C14620   7.883   2.535   6.864  0.0091 -0.7636 -0.5972
  850MOL0     C14621   7.786   2.568   6.772 -0.0734 -0.2504  0.1847
  850MOL0     C14622   7.815   2.658   6.664 -0.3463 -0.9144 -0.0986
  850MOL0     O14623   7.721   2.690   6.570 -0.0871 -0.2942 -0.6423
  850MOL0     C14624   7.750   2.791   6.472  0.7068  0.5789  0.2389
  850MOL0     C14625   7.641   2.808   6.367 -0.1216 -0.4947 -0.2082
  850MOL0     C14626   7.519   2.900   6.414  0.0918  0.1772 -0.5882
  850MOL0     C14627   7.439   2.944   6.290 -0.1232 -0.5228  0.6363
  850MOL0     C14628   7.351   3.061   6.330 -0.0774 -0.7710 -0.3297
  850MOL0     C14629   7.299   3.136   6.215  0.4723  0.4944 -0.4901
  850MOL0     C14630   7.221   3.057   6.113  0.4116 -0.0811 -0.2848
  850MOL0     C14631   7.097   2.989   6.176 -0.0829  0.5772  0.4548
  850MOL0     N14632   7.000   2.943   6.069 -0.6943 -0.3004 -0.1696
  850MOL0     C14633   6.941   3.034   5.986  1.3224 -0.2246  0.2794
  850MOL0     C14634   6.878   2.956   5.894  0.4510  0.6573  1.0600
  850MOL0     C14635   6.792   2.999   5.781 -0.1882  0.2885  0.4532
  850MOL0     C14636   6.650   3.027   5.823 -0.6360 -0.2114  0.0880
  850MOL0     C14637   6.577   3.085   5.705  0.4241  1.0467  0.1840
  850MOL0     C14638   6.430   3.114   5.737 -0.2751 -0.3348 -0.2373
  850MOL0     O14639   6.373   2.993   5.786  0.6397 -0.2180  0.0450
  850MOL0     C14640   6.232   3.003   5.798  0.2951 -0.2571  0.9108
  850MOL0     C14641   6.181   2.879   5.843  0.4889 -0.5121 -0.4717
  850MOL0     C14642   6.045   2.854   5.881 -0.3339 -0.4114  0.3065
  850MOL0     C14643   6.022   2.721   5.950 -0.4604 -0.7027  0.6866
  850MOL0     C14644   5.955   2.960   5.837  0.1444  0.5327 -0.4576
  850MOL0     C14645   5.804   2.941   5.836  0.1305  0.1422 -0.3311
  850MOL0     O14646   5.724   3.055   5.839 -0.3207 -0.8108  0.3338
  850MOL0     C14647   5.586   3.054   5.822  0.1957 -0.5854 -0.0488
  850MOL0     C14648   5.512   2.962   5.904  0.3587  0.2786  0.7176
  850MOL0     C14649   5.373   2.975   5.912 -0.1705  0.8785 -0.0209
  850MOL0     C14650   5.307   3.078   5.836  0.4631  0.3075 -0.0412
  850MOL0     O14651   5.167   3.081   5.854 -0.0998 -0.0403  0.6392
  850MOL0     C14652   5.102   3.197   5.800 -0.8469 -0.1586  0.5267
  850MOL0     C14653   4.954   3.202   5.852  0.2981  0.2316  0.6692
  850MOL0     C14654   4.866   3.307   5.775  0.0298  0.3260  0.3494
  850MOL0     C14655   4.727   3.292   5.831  0.3897 -0.4627 -0.3519
  850MOL0     C14656   4.626   3.375   5.756 -0.1519  0.0535 -0.6810
  850MOL0     C14657   4.492   3.384   5.834  0.6577  0.3952 -0.7009
  850MOL0     C14658   4.383   3.458   5.754 -0.0973  0.0756 -0.8266
  850MOL0     C14659   4.310   3.365   5.658  0.4808  0.2696  0.3529
  850MOL0    Cl14660   4.207   3.479   5.543 -0.2336  0.1551 -0.1876
  850MOL0     C14661   5.380   3.158   5.745  0.8627 -0.8554 -0.7695
  850MOL0     C14662   5.517   3.150   5.743  0.1632  0.1881  0.4760
  850MOL0     O14663   5.760   2.823   5.835 -0.0890 -0.5601  0.4673
  850MOL0     C14664   6.005   3.080   5.791  0.6019  0.3555  0.0021
  850MOL0     C14665   6.142   3.101   5.778  0.5736 -0.5501  0.1563
  850MOL0     N14666   6.905   2.825   5.923  0.3984  1.1488 -0.0746
  850MOL0     N14667   6.974   2.818   6.028  0.6885 -0.1807  0.0693
  850MOL0     C14668   7.941   2.714   6.661  0.9795 -0.5437  0.1154
  850MOL0     C14669   8.045   2.667   6.746  0.7754  0.1874  1.0038
  850MOL0     C14670   8.246   2.524   7.121 -0.4052  0.3033  0.1911
  850MOL0     C14671   8.305   2.597   7.231 -0.1478 -0.0318  0.8616
  850MOL0     C14672   8.409   2.536   7.296 -1.0078 -0.4582 -0.9971
  850MOL0     C14673   8.455   2.408   7.263 -0.5487 -0.2597 -0.1350
  850MOL0     O14674   8.552   2.348   7.337 -0.0504 -0.0746  0.3712
  850MOL0     C14675   8.658   2.431   7.387 -0.3228  0.8775  0.3773
  850MOL0     C14676   8.757   2.337   7.458 -0.8898 -0.4331  0.2272
  850MOL0     C14677   8.838   2.433   7.557 -0.4425  0.5723  0.0917
  850MOL0     C14678   8.989   2.438   7.544  0.1664  0.4568 -0.4657
  850MOL0     C14679   9.043   2.315   7.599 -0.5024  0.2354 -0.1835
  850MOL0     C14680   9.092   2.213   7.640 -0.2283  0.4815 -0.2484
  850MOL0     C14681   8.404   2.340   7.149 -0.6729 -0.2985  0.3275
  850MOL0     C14682   8.303   2.400   7.077 -0.0029 -1.1902 -0.6880
  850MOL0     H14683   7.860   2.463   6.942 -1.4298 -0.2936 -0.5618
  850MOL0     H14684   7.682   2.539   6.785 -0.2246  1.1779  3.1546
  850MOL0     H14685   7.777   2.886   6.519  1.4431 -0.8717  2.9427
  850MOL0     H14686   7.839   2.759   6.418  1.3240 -1.0173  2.0780
  850MOL0     H14687   7.682   2.853   6.277 -3.1334 -0.9111 -1.9002
  850MOL0     H14688   7.606   2.710   6.334  0.2920 -0.4374 -0.8346
  850MOL0     H14689   7.451   2.860   6.489 -0.7671  0.5127 -1.1807
  850MOL0     H14690   7.559   2.985   6.470 -0.4937  0.1366 -0.1042
  850MOL0     H14691   7.513   2.977   6.216  0.3908 -0.7274  1.0547
  850MOL0     H14692   7.383   2.857   6.256  1.5920 -1.7087  0.7077
  850MOL0     H14693   7.268   3.032   6.395  0.0324 -2.3030 -0.8342
  850MOL0     H14694   7.416   3.140   6.372 -1.6776 -0.0344  0.8729
  850MOL0     H14695   7.227   3.204   6.261 -0.7796  0.5191 -2.3827
  850MOL0     H14696   7.385   3.186   6.169  2.3319 -1.1153  1.0221
  850MOL0     H14697   7.201   3.135   6.039  1.4833  0.4059 -0.0772
  850MOL0     H14698   7.284   2.983   6.062  0.0593 -0.9763  0.5432
  850MOL0     H14699   7.036   3.060   6.234 -1.8503  0.4502 -1.1303
  850MOL0     H14700   7.144   2.911   6.236 -0.6869 -0.6856 -0.6603
  850MOL0     H14701   6.955   3.141   5.978  1.6488 -0.2309  0.7664
  850MOL0     H14702   6.840   3.089   5.740 -0.4997  1.0587  1.7354
  850MOL0     H14703   6.788   2.921   5.705  2.9999  0.6896 -0.2844
  850MOL0     H14704   6.646   3.090   5.912 -1.4220 -2.0949  1.4694
  850MOL0     H14705   6.601   2.937   5.860  1.5146 -0.9165  1.4188
  850MOL0     H14706   6.573   3.007   5.628  4.3035  0.1819  0.6724
  850MOL0     H14707   6.639   3.168   5.672  1.7544 -0.9076 -2.6118
  850MOL0     H14708   6.377   3.156   5.651  0.0318  1.9121  0.6016
  850MOL0     H14709   6.412   3.199   5.804 -0.0505 -2.0101  2.0687
  850MOL0     H14710   6.248   2.796   5.860 -0.6280 -1.3452 -0.0140
  850MOL0     H14711   5.971   2.657   5.878 -0.3419 -0.4665  0.3900
  850MOL0     H14712   6.121   2.681   5.976  1.5330  3.1444 -0.1949
  850MOL0     H14713   5.960   2.741   6.038 -0.2990  2.5203  0.1821
  850MOL0     H14714   5.566   2.885   5.958  1.3043  1.3386  1.3361
  850MOL0     H14715   5.318   2.913   5.982  0.8323  0.2670  0.2445
  850MOL0     H14716   5.148   3.294   5.820 -1.5505 -0.0038  1.4557
  850MOL0     H14717   5.104   3.190   5.691  0.9352 -0.6190  0.5567
  850MOL0     H14718   4.927   3.097   5.840  1.7877 -0.6556  3.9251
  850MOL0     H14719   4.952   3.230   5.958 -0.4682 -0.9332  0.9803
  850MOL0     H14720   4.880   3.287   5.668  0.4879  1.0379  0.2690
  850MOL0     H14721   4.904   3.409   5.792  0.8877 -0.1985  1.8284
  850MOL0     H14722   4.693   3.189   5.821 -1.2240  0.1090 -1.1857
  850MOL0     H14723   4.715   3.318   5.937 -0.3455 -2.3740  0.0739
  850MOL0     H14724   4.594   3.320   5.667 -2.7368 -2.6760  1.6958
  850MOL0     H14725   4.672   3.472   5.738  2.6150 -1.2549 -1.1877
  850MOL0     H14726   4.462   3.280   5.854  0.9317  0.4621  0.0694
  850MOL0     H14727   4.513   3.438   5.926 -1.9691 -0.1386  0.3040
  850MOL0     H14728   4.422   3.548   5.707 -1.1101  1.2493  0.4630
  850MOL0     H14729   4.306   3.501   5.820 -0.1137  0.0332 -0.8179
  850MOL0     H14730   4.237   3.303   5.712  2.2227 -2.8757 -0.6309
  850MOL0     H14731   4.375   3.300   5.599  1.5253  0.5099  1.2016
  850MOL0     H14732   5.327   3.231   5.685  1.6771  1.5717  1.2673
  850MOL0     H14733   5.574   3.223   5.686 -1.0391  0.1343 -0.8586
  850MOL0     H14734   5.934   3.160   5.771 -0.6870 -0.0957  2.3283
  850MOL0     H14735   6.160   3.199   5.734 -0.0977  0.1785  1.4377
  850MOL0     H14736   7.972   2.790   6.591  0.6400  1.1941  1.7659
  850MOL0     H14737   8.147   2.703   6.738  0.5493  0.6912  0.2598
  850MOL0     H14738   8.260   2.688   7.271  1.2057  1.0008  0.1177
  850MOL0     H14739   8.460   2.590   7.375  0.2760 -0.7893 -1.5732
  850MOL0     H14740   8.706   2.495   7.312  1.2603 -0.0756  0.5192
  850MOL0     H14741   8.610   2.489   7.466  1.4203  0.9964  1.3945
  850MOL0     H14742   8.833   2.298   7.389 -0.3942  0.5163  0.2183
  850MOL0     H14743   8.708   2.253   7.507 -4.4858  0.0558 -2.1147
  850MOL0     H14744   8.800   2.414   7.658 -2.2125 -0.3147 -0.7037
  850MOL0     H14745   8.803   2.534   7.535 -0.9935  0.6566  1.2814
  850MOL0     H14746   9.028   2.525   7.598  1.7280 -1.8527  2.3774
  850MOL0     H14747   9.014   2.450   7.438  2.6413  1.7676  0.1928
  850MOL0     H14748   9.134   2.129   7.692  0.6296  0.5078 -0.8751
  850MOL0     H14749   8.443   2.240   7.137  0.0796 -0.5493  3.6813
  850MOL0     H14750   8.267   2.348   6.989 -2.0144  1.6725 -1.7029
  851MOL0     O14751   6.864   3.287  11.141  0.0025  0.5485  1.0048
  851MOL0     C14752   6.915   3.388  11.188 -0.1424 -0.5742 -0.0860
  851MOL0     O14753   6.867   3.466  11.289  0.4242 -0.2336 -0.2079
  851MOL0     C14754   6.738   3.458  11.338 -0.4109  1.1825 -1.2709
  851MOL0     C14755   6.626   3.387  11.282 -0.3828 -0.6796  0.2749
  851MOL0     C14756   6.499   3.394  11.340 -0.3719  0.4629 -0.1815
  851MOL0     C14757   6.488   3.471  11.457 -0.4764  0.0775  0.1711
  851MOL0     O14758   6.358   3.491  11.501  0.5791  0.7280 -0.5996
  851MOL0     C14759   6.331   3.496  11.638 -0.3299  0.3964  0.2188
  851MOL0     C14760   6.177   3.470  11.632 -0.2180 -0.1122  0.2449
  851MOL0     C14761   6.127   3.470  11.778  0.2511  0.0030 -0.4843
  851MOL0     C14762   6.164   3.602  11.860 -0.0098 -0.4095  0.2559
  851MOL0     C14763   6.155   3.568  12.011  0.6140 -0.6817 -0.5790
  851MOL0     C14764   6.020   3.533  12.056  0.2372  0.7290  0.3793
  851MOL0     C14765   6.015   3.466  12.200 -0.0663  0.4864  0.4950
  851MOL0     C14766   6.047   3.561  12.309 -0.7433  0.1165 -0.5609
  851MOL0     N14767   5.986   3.503  12.429 -0.7464  0.2299 -0.5440
  851MOL0     C14768   5.853   3.493  12.461  0.5888 -0.1389 -0.0475
  851MOL0     C14769   5.858   3.443  12.583  0.4758 -0.4392  0.1141
  851MOL0     C14770   5.741   3.396  12.679 -0.1471 -0.4816  0.5016
  851MOL0     C14771   5.630   3.331  12.600  0.1235 -0.3829  0.4379
  851MOL0     C14772   5.494   3.326  12.685 -0.6938 -0.7227  0.2653
  851MOL0     C14773   5.372   3.282  12.602  0.4122 -0.0619 -0.0243
  851MOL0     O14774   5.260   3.271  12.686 -0.3050  0.1587  0.3596
  851MOL0     C14775   5.143   3.277  12.617  0.7354 -1.1087  0.3138
  851MOL0     C14776   5.123   3.266  12.480  0.1374  0.5401  0.0775
  851MOL0     C14777   4.997   3.247  12.419  0.5234 -0.0839  0.4443
  851MOL0     C14778   4.993   3.242  12.279  0.2115 -0.1909 -0.1734
  851MOL0     C14779   4.882   3.240  12.504 -0.8001 -0.1681  0.2749
  851MOL0     C14780   4.738   3.216  12.460  0.1805  0.2924  0.1899
  851MOL0     O14781   4.632   3.218  12.552 -0.6039 -0.1655  0.1203
  851MOL0     C14782   4.505   3.234  12.501 -0.7704 -0.2835 -0.0455
  851MOL0     C14783   4.450   3.129  12.427  0.0700 -0.1497 -0.0515
  851MOL0     C14784   4.315   3.141  12.385 -0.6740 -0.5011  0.1716
  851MOL0     C14785   4.229   3.247  12.419 -0.2125  0.1150 -0.6179
  851MOL0     O14786   4.095   3.249  12.384 -0.2738  0.2861  0.2711
  851MOL0     C14787   4.027   3.120  12.411 -0.3068 -0.9721  0.1617
  851MOL0     C14788   3.876   3.132  12.382  1.0304  0.0052 -0.2027
  851MOL0     C14789   3.850   3.143  12.237 -0.3151 -0.2545  0.5423
  851MOL0     C14790   3.704   3.117  12.198  0.1309  1.1965  0.4236
  851MOL0     C14791   3.699   3.122  12.047  1.0231  0.4086  0.1234
  851MOL0     C14792   3.553   3.100  11.988  0.0568  0.2328 -0.3786
  851MOL0     C14793   3.495   2.965  12.018 -0.3822  0.0001  0.6049
  851MOL0     C14794   3.372   2.941  11.936 -0.5419  0.3582 -0.3809
  851MOL0    Cl14795   3.235   3.029  12.008 -0.0250 -0.1229 -0.3629
  851MOL0     C14796   4.291   3.348  12.503  0.9709 -0.0117  0.2562
  851MOL0     C14797   4.427   3.342  12.550 -0.1167  0.2838 -0.4323
  851MOL0     O14798   4.723   3.189  12.345  0.3393 -0.2556  1.2412
  851MOL0     C14799   4.895   3.259  12.642 -0.4537  0.3413  0.6297
  851MOL0     C14800   5.025   3.274  12.689  0.9768  0.0824  0.0756
  851MOL0     N14801   5.986   3.404  12.619 -0.1216  0.5568  0.2568
  851MOL0     N14802   6.067   3.446  12.526 -0.2573  1.0964 -0.0137
  851MOL0     C14803   6.585   3.545  11.515  0.0233  0.7929  0.3144
  851MOL0     C14804   6.710   3.539  11.449  0.2045 -0.1684 -1.3194
  851MOL0     C14805   7.058   3.396  11.164  0.0244 -0.1365 -0.1104
  851MOL0     C14806   7.138   3.489  11.227 -0.2322 -0.1067  0.5994
  851MOL0     C14807   7.273   3.490  11.207  0.8896 -0.6470 -0.6060
  851MOL0     C14808   7.339   3.394  11.117 -0.9783 -1.0950 -0.8904
  851MOL0     O14809   7.479   3.397  11.089 -0.3441  0.8294 -0.4860
  851MOL0     C14810   7.571   3.470  11.176  0.4057  1.1177  0.0604
  851MOL0     C14811   7.706   3.472  11.106  0.3012  0.1159  0.1567
  851MOL0     C14812   7.708   3.567  10.986 -0.3405  0.4551  0.3232
  851MOL0     C14813   7.852   3.602  10.939  0.0279 -0.0737  0.5030
  851MOL0     C14814   7.946   3.492  10.926 -1.1555 -0.5824 -0.3948
  851MOL0     C14815   8.014   3.388  10.919 -0.0482  0.5287  0.9409
  851MOL0     C14816   7.258   3.298  11.056  0.3870  0.0317 -0.1930
  851MOL0     C14817   7.116   3.308  11.071 -0.5706  0.3578  0.6718
  851MOL0     H14818   6.629   3.330  11.189  1.2307 -0.4135  0.1420
  851MOL0     H14819   6.411   3.344  11.301 -0.0696 -1.2585  1.2192
  851MOL0     H14820   6.390   3.427  11.698  1.2884  1.3348 -0.2521
  851MOL0     H14821   6.352   3.601  11.658  2.6757  0.1691 -1.1623
  851MOL0     H14822   6.130   3.556  11.582  2.3512  2.2078  1.5150
  851MOL0     H14823   6.153   3.376  11.582 -1.6317 -0.4147  1.4345
  851MOL0     H14824   6.019   3.458  11.788  0.6490 -2.3922  2.7536
  851MOL0     H14825   6.173   3.381  11.823 -2.3140  0.2843  3.0854
  851MOL0     H14826   6.270   3.623  11.846 -0.1529  0.6300  0.6947
  851MOL0     H14827   6.108   3.689  11.826 -3.2895 -2.1602  0.7340
  851MOL0     H14828   6.223   3.483  12.026  0.2235 -0.5185  2.8991
  851MOL0     H14829   6.194   3.650  12.072 -0.1897  2.3468 -3.7871
  851MOL0     H14830   5.963   3.626  12.065  0.0008  0.5005  1.2848
  851MOL0     H14831   5.971   3.469  11.981  0.2580  1.3037 -0.1333
  851MOL0     H14832   5.915   3.427  12.220 -0.8262  1.5037 -1.0535
  851MOL0     H14833   6.079   3.378  12.203  0.1102  0.4965 -1.6272
  851MOL0     H14834   6.010   3.661  12.284  1.8076  1.5682  1.0057
  851MOL0     H14835   6.155   3.575  12.318 -0.7942  1.6466 -1.7764
  851MOL0     H14836   5.766   3.511  12.399  1.1577 -2.7401 -1.7528
  851MOL0     H14837   5.772   3.325  12.756  2.7560  0.7621  0.6058
  851MOL0     H14838   5.703   3.493  12.715 -1.5328 -1.4263  1.7167
  851MOL0     H14839   5.664   3.234  12.561  1.2597 -0.6309  1.9298
  851MOL0     H14840   5.611   3.395  12.515 -1.2703 -0.3232  0.7798
  851MOL0     H14841   5.485   3.430  12.717  0.7514 -0.2646 -0.7233
  851MOL0     H14842   5.497   3.253  12.766 -1.0056 -2.3720 -1.1344
  851MOL0     H14843   5.397   3.195  12.541 -2.6138 -1.1581  0.1475
  851MOL0     H14844   5.361   3.367  12.535  1.1225 -0.2858 -0.4291
  851MOL0     H14845   5.204   3.260  12.408  0.9139 -0.3658  0.9867
  851MOL0     H14846   4.933   3.325  12.240  0.1574  0.1946  0.7037
  851MOL0     H14847   5.093   3.252  12.235  1.0841  1.5215  2.0397
  851MOL0     H14848   4.955   3.147  12.240  0.5446  0.0275 -1.0554
  851MOL0     H14849   4.510   3.042  12.403 -1.3523 -0.2807 -3.8336
  851MOL0     H14850   4.275   3.053  12.335 -0.1138 -1.1376  0.8296
  851MOL0     H14851   4.061   3.044  12.340 -0.6614 -1.2449  0.2830
  851MOL0     H14852   4.041   3.083  12.513 -1.1727 -1.3829  0.1368
  851MOL0     H14853   3.820   3.045  12.419 -1.0890  0.4722 -2.1063
  851MOL0     H14854   3.829   3.209  12.444  1.4805  0.7622 -0.7851
  851MOL0     H14855   3.913   3.081  12.174  0.1261 -0.7209  1.4290
  851MOL0     H14856   3.882   3.239  12.195 -0.6043 -0.8211 -1.0404
  851MOL0     H14857   3.677   3.012  12.216 -1.2863  1.1647 -1.5014
  851MOL0     H14858   3.626   3.183  12.236 -2.3270  0.0407 -2.1780
  851MOL0     H14859   3.768   3.048  12.006  1.9871 -0.0473  2.3803
  851MOL0     H14860   3.743   3.217  12.015  2.6415 -0.5573 -0.6188
  851MOL0     H14861   3.482   3.177  12.020 -0.7802 -0.3976 -0.6831
  851MOL0     H14862   3.555   3.120  11.880 -3.3633  1.0045 -0.4050
  851MOL0     H14863   3.477   2.958  12.125  3.6235 -0.2420  1.4163
  851MOL0     H14864   3.566   2.888  11.986 -0.3537 -0.2916  1.3655
  851MOL0     H14865   3.339   2.837  11.940 -2.8194  1.0248  3.7649
  851MOL0     H14866   3.382   2.985  11.837  0.5253  1.4020  0.1636
  851MOL0     H14867   4.226   3.427  12.540 -1.8151 -1.9893 -0.1241
  851MOL0     H14868   4.467   3.414  12.621 -0.1615  0.1211 -0.2426
  851MOL0     H14869   4.805   3.250  12.702  0.3868 -2.2771  1.6331
  851MOL0     H14870   5.033   3.282  12.797  1.4627 -0.1243  0.0566
  851MOL0     H14871   6.575   3.606  11.603 -0.0226  1.7323 -0.3282
  851MOL0     H14872   6.794   3.591  11.494 -0.7881  0.0033  0.4205
  851MOL0     H14873   7.103   3.557  11.305  0.2348 -0.0187  0.7355
  851MOL0     H14874   7.334   3.565  11.256  0.7073  0.1462 -1.5645
  851MOL0     H14875   7.549   3.574  11.203 -0.7604  0.8340  0.2635
  851MOL0     H14876   7.594   3.414  11.267  0.5505 -0.9879 -1.2172
  851MOL0     H14877   7.735   3.371  11.077  0.9038  0.0638  0.9018
  851MOL0     H14878   7.779   3.503  11.181  1.2961 -2.6245  0.4315
  851MOL0     H14879   7.669   3.668  11.000 -2.8427 -0.2233 -1.0989
  851MOL0     H14880   7.638   3.530  10.910  1.2054 -0.5320 -0.6836
  851MOL0     H14881   7.893   3.679  11.005 -1.6608  1.6391 -0.3772
  851MOL0     H14882   7.837   3.654  10.844  0.4607 -2.2035 -0.7891
  851MOL0     H14883   8.072   3.298  10.907  1.0852  1.4126 -0.4984
  851MOL0     H14884   7.310   3.231  10.989  2.4351  0.2137  1.0910
  851MOL0     H14885   7.052   3.254  11.002  1.7469  2.2868 -3.3425
  852MOL0     O14886   9.696   2.656   8.844 -0.1766 -0.3295  0.2527
  852MOL0     C14887   9.775   2.719   8.918  0.2301 -1.1426  0.8096
  852MOL0     O14888   9.739   2.835   8.971 -0.1155  0.5592 -1.0518
  852MOL0     C14889   9.612   2.879   8.957 -0.5408  0.5579 -0.0225
  852MOL0     C14890   9.582   2.974   8.867  1.4396  1.8648  0.2690
  852MOL0     C14891   9.454   3.022   8.854  0.3093 -0.3953  1.0749
  852MOL0     C14892   9.347   2.952   8.907  0.5353 -0.3483 -0.9639
  852MOL0     O14893   9.218   2.994   8.885 -0.9843 -0.3235 -0.0626
  852MOL0     C14894   9.134   2.994   8.999  0.5799  0.1049 -0.2344
  852MOL0     C14895   8.991   3.004   8.958  0.4337 -0.7688  0.0120
  852MOL0     C14896   8.931   2.864   8.939  0.7733 -0.4569 -0.0075
  852MOL0     C14897   8.785   2.880   8.891  0.1648 -0.5696 -0.6023
  852MOL0     C14898   8.748   2.754   8.811  0.7391 -0.0858 -0.1722
  852MOL0     C14899   8.801   2.749   8.663  0.6978 -0.7875 -0.4404
  852MOL0     C14900   8.706   2.647   8.588 -0.3151 -1.2451 -0.8487
  852MOL0     C14901   8.740   2.632   8.446  0.0164 -0.5710  0.5024
  852MOL0     N14902   8.652   2.523   8.384  0.3837  0.3418 -0.1027
  852MOL0     C14903   8.681   2.388   8.404 -0.6677 -0.6482 -0.4255
  852MOL0     C14904   8.579   2.328   8.342 -0.6098  0.0264  0.1956
  852MOL0     C14905   8.552   2.179   8.313  0.1817 -0.9012 -0.3876
  852MOL0     C14906   8.604   2.077   8.418  0.0575 -0.4034 -0.6008
  852MOL0     C14907   8.515   2.074   8.545  0.0337  0.4785  0.6822
  852MOL0     C14908   8.567   1.972   8.648 -0.4142  0.1688 -0.3083
  852MOL0     O14909   8.524   1.990   8.784  0.1689 -0.3171  0.3911
  852MOL0     C14910   8.389   1.982   8.800 -0.2334 -0.1418 -0.1298
  852MOL0     C14911   8.315   2.094   8.840 -0.6038  0.7887  0.5024
  852MOL0     C14912   8.181   2.097   8.845 -0.3469 -0.0564 -0.1930
  852MOL0     C14913   8.120   2.236   8.849 -0.6455  0.3149  0.3471
  852MOL0     C14914   8.108   1.980   8.833  0.1594  0.0495  0.2587
  852MOL0     C14915   7.960   1.963   8.841 -0.5512  0.6356 -0.1191
  852MOL0     O14916   7.892   2.040   8.926 -0.6227  0.5640 -0.0119
  852MOL0     C14917   7.758   2.019   8.941  0.1364  0.2342  0.4691
  852MOL0     C14918   7.701   1.934   9.043  0.1100 -0.4267 -0.3059
  852MOL0     C14919   7.571   1.903   9.038  0.3367 -0.1034 -0.0712
  852MOL0     C14920   7.488   1.944   8.940  0.6176  0.2825 -0.3064
  852MOL0     O14921   7.355   1.903   8.952 -0.4623  0.0602  1.0049
  852MOL0     C14922   7.323   1.761   8.948 -0.3009  0.2906  0.3544
  852MOL0     C14923   7.184   1.760   8.906  1.3052 -0.1283  0.2030
  852MOL0     C14924   7.123   1.621   8.926  0.1738 -0.1323 -0.3503
  852MOL0     C14925   6.973   1.618   8.925  0.0989  0.9604  0.0526
  852MOL0     C14926   6.943   1.463   8.920  0.1714 -0.0986 -0.0558
  852MOL0     C14927   6.789   1.432   8.899 -0.7633 -0.2934 -0.7204
  852MOL0     C14928   6.748   1.295   8.952  0.4735  0.4139 -0.3709
  852MOL0     C14929   6.602   1.261   8.902 -0.0208  0.2730 -0.6413
  852MOL0    Cl14930   6.463   1.345   8.978  0.1187 -0.0540 -0.0925
  852MOL0     C14931   7.536   2.031   8.842 -0.2332  0.1157  0.2365
  852MOL0     C14932   7.672   2.076   8.842 -0.0182  0.7343  0.6238
  852MOL0     O14933   7.904   1.871   8.778 -0.0414  0.0861 -0.2278
  852MOL0     C14934   8.177   1.859   8.809  0.2812 -0.2891  0.5140
  852MOL0     C14935   8.314   1.859   8.786 -0.2767 -0.3848  0.7489
  852MOL0     N14936   8.496   2.423   8.289  0.8679  0.4469  0.0401
  852MOL0     N14937   8.540   2.538   8.312 -0.7062 -0.0616 -1.1059
  852MOL0     C14938   9.368   2.847   8.990  0.0494 -0.4335 -0.6244
  852MOL0     C14939   9.505   2.807   9.013  0.3999 -0.4131 -1.1992
  852MOL0     C14940   9.912   2.667   8.948 -0.6263  0.2819 -0.4980
  852MOL0     C14941  10.002   2.721   9.046  0.3704  0.0843  0.3274
  852MOL0     C14942  10.124   2.660   9.069 -1.0329 -0.8350  0.6905
  852MOL0     C14943  10.175   2.563   8.992  1.6342  0.1156 -0.1122
  852MOL0     O14944  10.292   2.492   9.015  0.3631  0.4584 -0.0499
  852MOL0     C14945  10.350   2.496   9.145 -0.1708  0.5207  1.1830
  852MOL0     C14946  10.283   2.421   9.259  0.1253  0.2965 -0.0873
  852MOL0     C14947  10.386   2.406   9.372  0.7826 -0.3295 -0.3285
  852MOL0     C14948  10.334   2.318   9.496 -0.9637 -0.1447  0.1578
  852MOL0     C14949  10.444   2.303   9.599  0.7009  0.2253 -0.7049
  852MOL0     C14950  10.532   2.281   9.681 -0.4446  0.2854 -0.2307
  852MOL0     C14951  10.103   2.508   8.883  0.2603 -0.6555 -0.1063
  852MOL0     C14952   9.969   2.560   8.869  0.7321  0.2595  0.6499
  852MOL0     H14953   9.668   3.021   8.821  2.1313  0.1917 -0.2185
  852MOL0     H14954   9.433   3.097   8.778  0.5663 -1.8485 -0.5048
  852MOL0     H14955   9.141   2.903   9.058  0.4908 -0.2110 -0.7090
  852MOL0     H14956   9.160   3.082   9.059 -3.0308  1.1800  0.0235
  852MOL0     H14957   8.922   3.048   9.031  2.0077  1.1675  0.4310
  852MOL0     H14958   8.980   3.074   8.874 -2.7182 -0.6399  0.4084
  852MOL0     H14959   8.997   2.803   8.876 -0.4511 -1.0081 -0.7950
  852MOL0     H14960   8.935   2.807   9.033  1.0414  0.5725  0.6173
  852MOL0     H14961   8.724   2.893   8.980 -0.0015  0.7773 -0.8802
  852MOL0     H14962   8.776   2.970   8.829 -3.1649 -0.4006 -0.0311
  852MOL0     H14963   8.786   2.661   8.854  1.9376 -0.5829 -2.1756
  852MOL0     H14964   8.639   2.759   8.806  0.8011  1.0672 -0.6569
  852MOL0     H14965   8.785   2.845   8.614  1.4092 -0.0741  0.6578
  852MOL0     H14966   8.906   2.721   8.649  1.7345  2.8987 -1.2752
  852MOL0     H14967   8.722   2.548   8.632  3.4354 -0.9763 -1.2627
  852MOL0     H14968   8.603   2.678   8.605  0.4532 -0.1031  2.6778
  852MOL0     H14969   8.847   2.611   8.444  1.1057  3.3693  3.7803
  852MOL0     H14970   8.724   2.729   8.399 -1.0283 -0.9672 -0.0060
  852MOL0     H14971   8.766   2.355   8.463 -0.9032 -2.5975 -1.1281
  852MOL0     H14972   8.445   2.157   8.302 -0.0274 -0.6993  0.9969
  852MOL0     H14973   8.584   2.158   8.211  0.9296 -0.8007 -0.1787
  852MOL0     H14974   8.705   2.101   8.453 -0.8053 -0.4597  2.1731
  852MOL0     H14975   8.606   1.979   8.370  1.9983 -1.8239  2.0560
  852MOL0     H14976   8.410   2.050   8.524 -0.0647  0.3906  1.2486
  852MOL0     H14977   8.520   2.171   8.596  2.7488  0.0492  1.4043
  852MOL0     H14978   8.675   1.973   8.635 -0.6229  0.2144 -2.2570
  852MOL0     H14979   8.550   1.869   8.615  0.1990 -0.7127  1.9389
  852MOL0     H14980   8.378   2.182   8.848 -0.0875  0.6235 -1.3024
  852MOL0     H14981   8.199   2.307   8.875 -0.0889  0.3170 -1.2117
  852MOL0     H14982   8.070   2.270   8.758  1.7306  4.6778  0.4199
  852MOL0     H14983   8.050   2.246   8.932 -0.8610  2.7987 -0.0735
  852MOL0     H14984   7.766   1.899   9.122 -0.9959  1.4508  1.5332
  852MOL0     H14985   7.529   1.837   9.113 -1.8237 -0.1937 -1.2849
  852MOL0     H14986   7.377   1.699   8.876  0.7218 -0.2717  1.5599
  852MOL0     H14987   7.336   1.712   9.045  1.9058 -2.7586 -1.3198
  852MOL0     H14988   7.132   1.829   8.974  3.0232  2.4289 -0.9069
  852MOL0     H14989   7.175   1.786   8.799 -1.9760 -0.2498  0.3312
  852MOL0     H14990   7.155   1.576   9.020 -1.2660 -3.8814 -1.4747
  852MOL0     H14991   7.172   1.563   8.847  2.3281  0.3990  0.5212
  852MOL0     H14992   6.931   1.676   9.008 -0.1735  0.0543  0.5581
  852MOL0     H14993   6.932   1.659   8.832 -0.8752  0.7134  0.3672
  852MOL0     H14994   6.969   1.416   9.015 -0.0438 -2.5142 -1.1244
  852MOL0     H14995   7.000   1.420   8.837  0.4094 -5.0718  2.3618
  852MOL0     H14996   6.730   1.497   8.964 -2.2693  0.4937 -2.7280
  852MOL0     H14997   6.763   1.436   8.792  0.8064  1.1698 -1.0964
  852MOL0     H14998   6.756   1.284   9.060 -2.2303  0.1446 -0.1432
  852MOL0     H14999   6.801   1.209   8.909  0.0374  0.7022 -1.5232
  852MOL0     H15000   6.594   1.154   8.923 -0.5195  0.4600  0.1699
  852MOL0     H15001   6.599   1.286   8.795 -2.7397  0.7760 -0.5272
  852MOL0     H15002   7.462   2.069   8.771 -1.9741 -2.3128  0.6473
  852MOL0     H15003   7.703   2.147   8.766 -1.6769 -0.8837 -1.6857
  852MOL0     H15004   8.118   1.769   8.801 -0.7673  0.0070  3.5117
  852MOL0     H15005   8.378   1.780   8.748 -0.9766 -1.4540  1.7364
  852MOL0     H15006   9.282   2.789   9.022 -2.5212  2.6906 -1.3133
  852MOL0     H15007   9.532   2.723   9.075 -2.3308  0.8190  1.9730
  852MOL0     H15008   9.962   2.805   9.101 -0.4023 -0.0125 -0.0745
  852MOL0     H15009  10.182   2.701   9.150 -1.8485  0.4149  0.6646
  852MOL0     H15010  10.449   2.453   9.126  0.1608  1.0223  1.7339
  852MOL0     H15011  10.366   2.604   9.159 -1.7026  0.9027  0.1878
  852MOL0     H15012  10.242   2.327   9.221  0.6751 -0.4868  1.2186
  852MOL0     H15013  10.203   2.488   9.293  0.9095  3.0327 -3.0539
  852MOL0     H15014  10.401   2.506   9.413 -0.5098 -0.6825  1.0932
  852MOL0     H15015  10.480   2.366   9.332  0.6675  2.0489 -3.3180
  852MOL0     H15016  10.293   2.223   9.462 -1.4469  0.5073 -1.1567
  852MOL0     H15017  10.246   2.372   9.531 -1.5515  0.7292 -2.4500
  852MOL0     H15018  10.605   2.258   9.755 -1.0783 -0.0052  0.3201
  852MOL0     H15019  10.135   2.425   8.821  0.7597 -0.5730  0.0369
  852MOL0     H15020   9.913   2.514   8.788  0.9224  1.6101 -0.2750
  853MOL0     O15021   8.279   6.731   2.979 -0.7567 -0.6128 -0.0354
  853MOL0     C15022   8.362   6.819   2.993  0.2389 -0.9697 -0.2182
  853MOL0     O15023   8.332   6.957   3.031 -0.0090 -0.1534  0.4256
  853MOL0     C15024   8.194   6.981   3.071 -0.3745 -0.6953 -0.5357
  853MOL0     C15025   8.149   7.112   3.051  0.2347 -0.2110  0.0200
  853MOL0     C15026   8.016   7.149   3.081 -0.8258 -0.0340  0.4084
  853MOL0     C15027   7.921   7.061   3.129 -0.6242 -0.3640 -0.7060
  853MOL0     O15028   7.794   7.108   3.164 -0.2612 -0.0439  0.5222
  853MOL0     C15029   7.810   7.212   3.268  0.4555 -0.1030 -0.0965
  853MOL0     C15030   7.690   7.302   3.247 -0.5898  0.9336 -0.6328
  853MOL0     C15031   7.572   7.244   3.327 -0.4676 -0.5742 -0.7872
  853MOL0     C15032   7.444   7.319   3.297  1.1065 -0.4584  0.1726
  853MOL0     C15033   7.331   7.257   3.385 -0.9202 -1.4333  0.1990
  853MOL0     C15034   7.192   7.332   3.350  0.6541  0.3431  1.3921
  853MOL0     C15035   7.128   7.273   3.217 -0.1268  0.9729 -0.2134
  853MOL0     C15036   6.974   7.245   3.221 -0.0203  0.4896 -0.1912
  853MOL0     N15037   6.877   7.353   3.225  0.0762 -0.5967  1.2321
  853MOL0     C15038   6.827   7.423   3.332  0.2262  0.3190  0.2088
  853MOL0     C15039   6.722   7.492   3.286 -0.1276  0.4289  0.5655
  853MOL0     C15040   6.659   7.604   3.361 -0.4688  0.1833 -0.0084
  853MOL0     C15041   6.716   7.731   3.310 -0.3122  0.5604  0.1853
  853MOL0     C15042   6.636   7.847   3.366  0.5093  0.3323 -0.8278
  853MOL0     C15043   6.484   7.845   3.354  0.7126 -0.7157 -0.2806
  853MOL0     O15044   6.440   7.972   3.405  0.2889 -0.4303 -0.8780
  853MOL0     C15045   6.315   8.011   3.380  0.0674  0.5791 -0.2280
  853MOL0     C15046   6.217   7.944   3.303 -0.4544 -0.5031 -0.7825
  853MOL0     C15047   6.084   7.993   3.280  0.2219  0.7103 -0.0337
  853MOL0     C15048   5.988   7.899   3.205  0.1437 -0.1414 -0.2613
  853MOL0     C15049   6.052   8.121   3.335  0.1405 -0.0026  0.6582
  853MOL0     C15050   5.924   8.196   3.303  0.3177 -0.4165  0.4541
  853MOL0     O15051   5.843   8.131   3.216  0.2483  0.1125 -0.1453
  853MOL0     C15052   5.730   8.196   3.168 -0.1280 -0.1682  0.2689
  853MOL0     C15053   5.724   8.311   3.083 -0.2980 -0.2953 -0.3965
  853MOL0     C15054   5.597   8.361   3.048  0.3224  0.2103  0.4133
  853MOL0     C15055   5.474   8.315   3.107 -0.1214 -0.2972 -0.3154
  853MOL0     O15056   5.351   8.359   3.070 -0.0335 -0.2927 -0.2963
  853MOL0     C15057   5.302   8.431   3.179  0.4294  0.2803 -0.8954
  853MOL0     C15058   5.168   8.502   3.167  0.3974  0.2623  0.2784
  853MOL0     C15059   5.065   8.395   3.123  0.4589  0.7803  0.3366
  853MOL0     C15060   4.925   8.464   3.131 -0.9336 -0.2221 -0.1176
  853MOL0     C15061   4.813   8.377   3.058 -0.1310  0.3879 -0.6459
  853MOL0     C15062   4.668   8.435   3.078 -0.9427 -0.5412  0.6004
  853MOL0     C15063   4.564   8.346   3.007 -0.2454  0.9607  0.9157
  853MOL0     C15064   4.416   8.398   3.014  0.3134  0.0066  0.3694
  853MOL0    Cl15065   4.313   8.296   2.925 -0.1404  0.1568  0.1444
  853MOL0     C15066   5.480   8.201   3.190  0.3394  0.4391 -1.0243
  853MOL0     C15067   5.608   8.153   3.217 -0.0157  1.0812  0.9039
  853MOL0     O15068   5.903   8.300   3.356  0.0793 -0.2054  0.3227
  853MOL0     C15069   6.153   8.191   3.405 -0.3027 -0.1571 -0.6360
  853MOL0     C15070   6.279   8.134   3.420  0.0651 -0.9669  0.3492
  853MOL0     N15071   6.699   7.463   3.154  0.2389 -0.3242 -1.2760
  853MOL0     N15072   6.791   7.383   3.120  0.1230  0.2928  0.0639
  853MOL0     C15073   7.962   6.928   3.148 -0.1844  0.4057  1.1732
  853MOL0     C15074   8.098   6.889   3.127 -0.6845  0.3256 -0.2559
  853MOL0     C15075   8.503   6.780   2.979  0.7817 -0.9085  0.7055
  853MOL0     C15076   8.607   6.870   2.987 -0.1361  0.2408  0.2881
  853MOL0     C15077   8.737   6.835   2.944 -0.4063  0.8123 -0.1703
  853MOL0     C15078   8.764   6.706   2.892  0.7228 -0.2873  0.6305
  853MOL0     O15079   8.884   6.659   2.844 -0.0294 -0.3827 -0.0463
  853MOL0     C15080   9.001   6.741   2.835  0.1920 -0.6654  0.5026
  853MOL0     C15081   9.070   6.760   2.965  0.2700 -0.1991 -0.3968
  853MOL0     C15082   9.125   6.625   3.017 -0.5801  0.7113  0.4552
  853MOL0     C15083   9.213   6.638   3.140 -1.2918  0.2000  0.3259
  853MOL0     C15084   9.325   6.735   3.124  0.5832 -0.5929  0.2342
  853MOL0     C15085   9.423   6.803   3.106  0.1833 -0.9567 -0.5094
  853MOL0     C15086   8.654   6.615   2.893 -1.3331 -0.3062  0.4574
  853MOL0     C15087   8.530   6.657   2.934  0.1702 -0.0676  0.0614
  853MOL0     H15088   8.216   7.187   3.011 -1.8821  1.8008  0.0557
  853MOL0     H15089   7.983   7.252   3.077  0.5454  0.3937 -1.2653
  853MOL0     H15090   7.808   7.176   3.372  0.2069  0.2141  0.0125
  853MOL0     H15091   7.907   7.262   3.269  1.2981 -1.4582  3.8252
  853MOL0     H15092   7.716   7.400   3.290  0.5789  1.7449 -3.0095
  853MOL0     H15093   7.658   7.316   3.144 -1.4607 -0.1395 -0.5310
  853MOL0     H15094   7.560   7.135   3.324  2.1264 -0.9575  0.0911
  853MOL0     H15095   7.600   7.274   3.428  0.4672  2.4796 -1.8525
  853MOL0     H15096   7.460   7.424   3.323  0.1443 -0.3635  0.4318
  853MOL0     H15097   7.415   7.315   3.191  0.1330  2.8088  0.2109
  853MOL0     H15098   7.330   7.150   3.361  2.0659 -1.1362 -1.8768
  853MOL0     H15099   7.354   7.275   3.491  0.0969  1.0207 -0.3633
  853MOL0     H15100   7.119   7.322   3.431 -1.4663 -1.2819 -0.6039
  853MOL0     H15101   7.206   7.440   3.336 -2.1847  0.5360 -0.7773
  853MOL0     H15102   7.149   7.346   3.138 -1.8978  3.1891  1.2674
  853MOL0     H15103   7.172   7.176   3.190 -1.3184  0.0907  0.9341
  853MOL0     H15104   6.956   7.180   3.307 -2.9272  0.8438 -0.4414
  853MOL0     H15105   6.947   7.180   3.138  1.5082 -2.6269  1.5914
  853MOL0     H15106   6.867   7.432   3.432  3.6144 -1.0000 -0.8931
  853MOL0     H15107   6.552   7.587   3.344 -0.9815  1.7836  1.3434
  853MOL0     H15108   6.680   7.604   3.468 -0.2890 -1.8546  0.0038
  853MOL0     H15109   6.711   7.733   3.201 -0.5047 -0.9094  0.1507
  853MOL0     H15110   6.821   7.744   3.337 -0.3259  1.6687 -0.2604
  853MOL0     H15111   6.678   7.932   3.312  0.2317  0.4646 -0.8378
  853MOL0     H15112   6.670   7.863   3.468  0.4740  0.7846 -0.8841
  853MOL0     H15113   6.445   7.766   3.419 -0.8884  2.8155  3.5272
  853MOL0     H15114   6.455   7.831   3.250 -2.9703  2.8552 -0.0120
  853MOL0     H15115   6.255   7.849   3.266  0.4399 -0.5052  0.0991
  853MOL0     H15116   5.976   7.946   3.107  0.7228  4.1884  1.4741
  853MOL0     H15117   6.034   7.803   3.182 -2.5376 -1.5744  0.0619
  853MOL0     H15118   5.901   7.876   3.267 -0.4344  2.4244  0.0073
  853MOL0     H15119   5.818   8.356   3.052 -1.4087 -1.0150 -5.7987
  853MOL0     H15120   5.598   8.447   2.982  1.4671 -0.3402 -0.3177
  853MOL0     H15121   5.295   8.370   3.269  0.2994  1.4125 -0.1091
  853MOL0     H15122   5.378   8.502   3.214  1.4891 -2.3921  2.8937
  853MOL0     H15123   5.135   8.541   3.263 -1.4034  2.5468 -1.1616
  853MOL0     H15124   5.176   8.586   3.096  0.5935  1.9304  2.1870
  853MOL0     H15125   5.078   8.306   3.185  3.2860  0.5331 -0.4934
  853MOL0     H15126   5.087   8.371   3.018  1.0988 -0.6199  0.7823
  853MOL0     H15127   4.878   8.465   3.230  0.0962 -1.2118  0.3992
  853MOL0     H15128   4.928   8.566   3.091  2.2348 -1.5895 -4.1228
  853MOL0     H15129   4.803   8.274   3.096 -0.8898  0.4941 -0.5507
  853MOL0     H15130   4.842   8.375   2.953  0.0803  2.4706 -0.6672
  853MOL0     H15131   4.639   8.448   3.183 -0.2524  1.7934  0.5511
  853MOL0     H15132   4.671   8.533   3.030  1.1927 -2.0950 -2.8582
  853MOL0     H15133   4.563   8.242   3.040 -0.7970  0.4498 -0.6449
  853MOL0     H15134   4.593   8.329   2.903  0.2239  0.2449  1.1540
  853MOL0     H15135   4.419   8.500   2.973  0.0556 -0.3280 -0.5024
  853MOL0     H15136   4.368   8.405   3.112 -0.2500 -0.6775  0.1520
  853MOL0     H15137   5.390   8.153   3.226 -0.8105  2.7065 -0.7174
  853MOL0     H15138   5.617   8.064   3.278 -0.1987 -0.2137 -0.8810
  853MOL0     H15139   6.137   8.289   3.450  3.1861  1.6934 -3.0127
  853MOL0     H15140   6.355   8.188   3.476  1.1103  0.5073 -2.3176
  853MOL0     H15141   7.897   6.860   3.201 -1.2677  0.2950 -0.2409
  853MOL0     H15142   8.122   6.785   3.142 -2.2728  0.2003  1.9070
  853MOL0     H15143   8.578   6.968   3.026 -3.5209  0.4867 -2.3534
  853MOL0     H15144   8.821   6.903   2.957 -0.5132  1.1396 -1.1328
  853MOL0     H15145   9.071   6.694   2.766  0.8297  1.9813 -0.7782
  853MOL0     H15146   8.969   6.833   2.785  1.6583 -0.3783  0.0433
  853MOL0     H15147   9.014   6.807   3.046  1.2283 -0.3304  0.3679
  853MOL0     H15148   9.156   6.825   2.950  0.0053  0.3106  0.2186
  853MOL0     H15149   9.187   6.585   2.936 -0.6469  0.8611  0.3305
  853MOL0     H15150   9.040   6.557   3.028  0.8090 -1.1934  0.0757
  853MOL0     H15151   9.258   6.539   3.152 -0.9389 -0.1059 -2.7714
  853MOL0     H15152   9.149   6.667   3.224 -2.5545 -0.0891 -0.5037
  853MOL0     H15153   9.512   6.862   3.091 -0.2024 -0.6771 -1.8383
  853MOL0     H15154   8.661   6.515   2.852  2.2505 -0.5422  1.2798
  853MOL0     H15155   8.462   6.573   2.928  0.0248 -0.0072  0.7363
  854MOL0     O15156   1.147   3.304   9.527  0.1353 -1.1057 -0.1172
  854MOL0     C15157   1.176   3.421   9.555  0.8439  0.0786 -0.4481
  854MOL0     O15158   1.084   3.512   9.607 -1.0339 -0.3373 -0.0610
  854MOL0     C15159   0.955   3.478   9.627  0.6660  0.2228  0.8068
  854MOL0     C15160   0.923   3.373   9.707 -0.2031  0.7359 -0.1903
  854MOL0     C15161   0.793   3.352   9.754  0.0638 -0.5015  0.0909
  854MOL0     C15162   0.689   3.435   9.703  0.5551  1.1863 -0.4059
  854MOL0     O15163   0.558   3.421   9.739  0.1587 -0.5919  0.5147
  854MOL0     C15164   0.466   3.390   9.626  0.2816  0.4456 -0.5030
  854MOL0     C15165   0.324   3.352   9.684  0.3507 -0.3137 -0.0883
  854MOL0     C15166   0.211   3.376   9.581 -0.2519  0.1200 -0.3068
  854MOL0     C15167   0.067   3.363   9.648  0.4874 -0.3130 -0.0947
  854MOL0     C15168  -0.035   3.359   9.531  0.5484  0.2798  0.3015
  854MOL0     C15169  -0.062   3.497   9.473  0.1434  0.2721 -0.1071
  854MOL0     C15170  -0.153   3.480   9.349  0.5170 -0.4832  0.1679
  854MOL0     C15171  -0.298   3.475   9.396  0.7534 -0.0253 -0.2876
  854MOL0     N15172  -0.366   3.397   9.293  0.5620 -0.0796 -0.0050
  854MOL0     C15173  -0.423   3.443   9.174 -0.0832 -0.2021  0.1136
  854MOL0     C15174  -0.477   3.337   9.104  0.3918 -0.5628  0.0438
  854MOL0     C15175  -0.551   3.345   8.974 -0.1471 -0.2659 -0.1877
  854MOL0     C15176  -0.691   3.290   8.984  0.2754 -0.2443 -0.0200
  854MOL0     C15177  -0.677   3.136   8.993 -0.2821  0.7611 -0.2502
  854MOL0     C15178  -0.756   3.086   9.113  0.3533  0.1101 -0.0337
  854MOL0     O15179  -0.897   3.128   9.115  0.2887 -0.3118  0.3447
  854MOL0     C15180  -0.987   3.070   9.022 -0.3457  0.1101 -0.3750
  854MOL0     C15181  -1.107   3.129   9.001  0.4199  1.7865 -0.4943
  854MOL0     C15182  -1.204   3.074   8.917  0.1170 -0.3306  0.4945
  854MOL0     C15183  -1.342   3.150   8.949  0.1268 -0.0469  0.2281
  854MOL0     C15184  -1.175   2.960   8.834  0.8054  0.2569  0.9097
  854MOL0     C15185  -1.259   2.907   8.723  0.5673  0.6657 -0.0043
  854MOL0     O15186  -1.223   2.785   8.665  0.5363  0.1114  0.0091
  854MOL0     C15187  -1.311   2.702   8.609  0.7590  1.1808  0.6223
  854MOL0     C15188  -1.445   2.718   8.585  0.1340 -0.2066  0.5509
  854MOL0     C15189  -1.518   2.618   8.527  0.4987  0.7932  0.1142
  854MOL0     C15190  -1.460   2.501   8.470 -0.0236 -0.0544  0.9209
  854MOL0     O15191  -1.515   2.408   8.386  0.1813  0.4885 -0.4040
  854MOL0     C15192  -1.657   2.397   8.395  0.3223 -0.0704 -0.8041
  854MOL0     C15193  -1.737   2.291   8.317 -0.0577 -0.2494 -0.7275
  854MOL0     C15194  -1.884   2.264   8.371  0.2170  0.8218  0.0540
  854MOL0     C15195  -1.948   2.141   8.302 -0.1524 -0.5534 -0.0705
  854MOL0     C15196  -1.869   2.016   8.341 -0.8498 -0.5659 -0.1841
  854MOL0     C15197  -1.961   1.896   8.367 -1.0463 -0.4563  0.1278
  854MOL0     C15198  -2.026   1.837   8.242  0.1743 -0.2745  0.0240
  854MOL0     C15199  -2.158   1.759   8.269  0.3717 -0.8541  0.8602
  854MOL0    Cl15200  -2.216   1.691   8.106  0.3371  0.0099 -0.2044
  854MOL0     C15201  -1.318   2.490   8.485  0.0684  0.0728 -0.4958
  854MOL0     C15202  -1.252   2.581   8.562 -0.1999  0.4404 -0.3448
  854MOL0     O15203  -1.339   2.989   8.673  0.4407  1.1015  0.3067
  854MOL0     C15204  -1.047   2.906   8.847 -0.4763 -0.3951  0.3698
  854MOL0     C15205  -0.952   2.962   8.930  0.1819  0.0398 -0.3795
  854MOL0     N15206  -0.471   3.229   9.193  0.2971  0.1315  0.5767
  854MOL0     N15207  -0.388   3.263   9.293 -0.0584  0.3314  0.6753
  854MOL0     C15208   0.719   3.535   9.618 -1.0441  0.5414  0.1549
  854MOL0     C15209   0.849   3.554   9.576 -0.9640 -0.0333 -0.9089
  854MOL0     C15210   1.324   3.456   9.555  0.0752  1.1809 -1.0737
  854MOL0     C15211   1.366   3.591   9.567  0.1028 -0.3424  0.1343
  854MOL0     C15212   1.499   3.622   9.551  0.0618  0.1310 -0.4900
  854MOL0     C15213   1.597   3.513   9.535 -0.3927 -0.4567  0.5279
  854MOL0     O15214   1.735   3.541   9.523  0.7175  0.4118  0.6319
  854MOL0     C15215   1.775   3.681   9.493  0.2302  0.0484  0.2990
  854MOL0     C15216   1.925   3.669   9.443 -0.0413 -0.6628 -0.3763
  854MOL0     C15217   2.025   3.612   9.543 -0.4655  0.5992 -0.0607
  854MOL0     C15218   2.116   3.501   9.488 -0.7753 -0.0760 -1.2652
  854MOL0     C15219   2.222   3.548   9.401  0.2314  0.0857 -0.0389
  854MOL0     C15220   2.304   3.590   9.318 -0.7970 -0.4997 -0.1753
  854MOL0     C15221   1.557   3.382   9.538  0.4580  0.1610  0.0210
  854MOL0     C15222   1.422   3.359   9.542 -0.3502 -0.0214 -0.4462
  854MOL0     H15223   1.006   3.307   9.728 -0.1819  0.6003 -0.6962
  854MOL0     H15224   0.768   3.271   9.822 -1.2524 -0.8392 -0.7650
  854MOL0     H15225   0.456   3.459   9.542 -1.0699 -1.4054 -1.9216
  854MOL0     H15226   0.501   3.302   9.572 -1.5691 -0.3742 -0.4101
  854MOL0     H15227   0.327   3.248   9.720  0.7055  0.0286  0.9223
  854MOL0     H15228   0.289   3.406   9.772 -1.0364 -0.1372 -0.7195
  854MOL0     H15229   0.205   3.481   9.552 -1.3700  0.3278  0.5877
  854MOL0     H15230   0.214   3.305   9.498 -3.6536 -0.1849 -0.3256
  854MOL0     H15231   0.066   3.267   9.701  1.3320 -0.5707 -0.5316
  854MOL0     H15232   0.052   3.445   9.718  3.5549  1.3898 -1.2456
  854MOL0     H15233  -0.005   3.289   9.453 -2.4015  3.4386 -4.1915
  854MOL0     H15234  -0.134   3.328   9.566  0.3295  0.7999  0.1606
  854MOL0     H15235  -0.098   3.575   9.541  0.9508  0.1690  0.4501
  854MOL0     H15236   0.027   3.545   9.433 -1.2734  0.2344 -3.6237
  854MOL0     H15237  -0.144   3.562   9.277 -0.6335  1.1468  1.8013
  854MOL0     H15238  -0.133   3.379   9.312 -0.8269 -1.5499  2.1482
  854MOL0     H15239  -0.342   3.575   9.410  0.0760 -0.3851  0.2227
  854MOL0     H15240  -0.316   3.420   9.488 -0.1030  1.4817  0.4979
  854MOL0     H15241  -0.399   3.543   9.137  0.2255  1.0315  3.3586
  854MOL0     H15242  -0.566   3.447   8.938  0.6589 -0.1642 -0.2404
  854MOL0     H15243  -0.499   3.294   8.893 -0.9433  1.9836 -2.2524
  854MOL0     H15244  -0.744   3.311   8.890 -1.1197 -3.9262 -0.2467
  854MOL0     H15245  -0.747   3.340   9.063 -2.5565  0.3228 -2.2386
  854MOL0     H15246  -0.575   3.098   9.005  0.1649  2.2412  1.1071
  854MOL0     H15247  -0.728   3.094   8.907 -2.1770  1.8141  0.3004
  854MOL0     H15248  -0.706   3.128   9.201  0.4637  0.3108 -0.1914
  854MOL0     H15249  -0.743   2.978   9.124 -3.1339 -0.6104 -1.8198
  854MOL0     H15250  -1.126   3.212   9.068  1.9737  1.4568  0.3821
  854MOL0     H15251  -1.329   3.258   8.938 -0.3477  0.1793  1.7525
  854MOL0     H15252  -1.417   3.123   8.875  0.3334  2.4491 -1.0025
  854MOL0     H15253  -1.378   3.120   9.047  0.1102 -1.0485 -0.0738
  854MOL0     H15254  -1.496   2.810   8.611 -0.7823  0.0512 -1.9023
  854MOL0     H15255  -1.625   2.632   8.514  0.4595  2.4439  1.7168
  854MOL0     H15256  -1.681   2.380   8.500 -0.8632  2.3865 -0.6112
  854MOL0     H15257  -1.703   2.492   8.367 -2.5199 -0.3258  2.3508
  854MOL0     H15258  -1.731   2.323   8.212 -0.6130  1.2335 -0.3323
  854MOL0     H15259  -1.675   2.203   8.337  1.2907  1.0610  1.2420
  854MOL0     H15260  -1.937   2.358   8.354  2.3140  1.8725 -1.0590
  854MOL0     H15261  -1.876   2.247   8.479  2.2859 -1.5063 -0.3772
  854MOL0     H15262  -2.053   2.143   8.335 -0.6092 -1.1378 -1.3930
  854MOL0     H15263  -1.957   2.151   8.194 -0.4779  0.8127  0.0657
  854MOL0     H15264  -1.808   2.040   8.429 -0.6056 -0.8784 -0.2677
  854MOL0     H15265  -1.796   1.993   8.263  1.8079  2.1305  1.3056
  854MOL0     H15266  -1.903   1.815   8.411 -0.8915 -0.2995  0.2147
  854MOL0     H15267  -2.034   1.921   8.445  1.4591  2.2959  1.8021
  854MOL0     H15268  -1.955   1.775   8.185 -0.5037 -0.2443 -0.8864
  854MOL0     H15269  -2.062   1.918   8.177  1.8570 -1.9446 -3.2334
  854MOL0     H15270  -2.245   1.821   8.295 -1.1811 -0.8698 -3.4382
  854MOL0     H15271  -2.146   1.680   8.343  0.1008 -0.6792  1.0906
  854MOL0     H15272  -1.266   2.412   8.430  0.6369  1.6572 -2.2967
  854MOL0     H15273  -1.144   2.577   8.575  0.1130 -0.8680 -2.7494
  854MOL0     H15274  -0.997   2.829   8.788  1.7471  1.9165 -0.9905
  854MOL0     H15275  -0.853   2.919   8.946 -0.2597 -0.7213  0.3989
  854MOL0     H15276   0.643   3.604   9.581  2.1069  2.7585 -2.8003
  854MOL0     H15277   0.865   3.647   9.522  0.1398 -0.8699 -2.0965
  854MOL0     H15278   1.291   3.668   9.577  2.2176  1.8602 -0.0267
  854MOL0     H15279   1.522   3.728   9.553  1.3253 -0.1384  0.4534
  854MOL0     H15280   1.724   3.721   9.404 -0.2203 -0.8304  0.1557
  854MOL0     H15281   1.756   3.742   9.582  2.3176 -0.8190  1.3947
  854MOL0     H15282   1.968   3.764   9.410 -1.1021  0.4539  1.2661
  854MOL0     H15283   1.924   3.606   9.353 -0.0029 -0.4673 -0.5139
  854MOL0     H15284   1.970   3.566   9.626  0.1298  0.6179  0.3500
  854MOL0     H15285   2.078   3.699   9.583  0.7777 -0.3542  0.4463
  854MOL0     H15286   2.051   3.421   9.451 -1.8285 -0.4346  1.1635
  854MOL0     H15287   2.181   3.464   9.568 -1.0751  2.0880  0.0690
  854MOL0     H15288   2.376   3.611   9.242  1.0370  0.9132  1.8473
  854MOL0     H15289   1.615   3.290   9.533 -2.2367 -1.6652  0.6172
  854MOL0     H15290   1.383   3.257   9.535 -1.6665  0.5118 -1.3630
  855MOL0     O15291   4.776   2.257   5.219 -0.0978  0.1943  0.1873
  855MOL0     C15292   4.807   2.357   5.151 -0.9372 -0.0338  0.0054
  855MOL0     O15293   4.745   2.478   5.141  0.1922 -0.2071 -0.7370
  855MOL0     C15294   4.629   2.506   5.216  0.3328  0.5522 -0.1598
  855MOL0     C15295   4.616   2.637   5.257 -0.3742 -0.6232  0.0995
  855MOL0     C15296   4.505   2.682   5.341 -0.2095  0.7239 -0.1201
  855MOL0     C15297   4.415   2.580   5.385  0.3011  0.1844  0.8566
  855MOL0     O15298   4.303   2.614   5.453  0.6191 -0.1548 -0.7742
  855MOL0     C15299   4.279   2.536   5.576  0.5208  0.1387  0.0161
  855MOL0     C15300   4.129   2.513   5.599  0.4297 -0.1981 -0.6912
  855MOL0     C15301   4.075   2.447   5.471  0.1925 -0.1368 -0.7099
  855MOL0     C15302   3.946   2.502   5.439  0.3461 -0.7097  0.0668
  855MOL0     C15303   3.873   2.437   5.331 -0.3229  0.7608 -1.1087
  855MOL0     C15304   3.756   2.523   5.287  0.3966  0.5626 -0.3274
  855MOL0     C15305   3.672   2.435   5.184 -0.4642  0.0416  0.2536
  855MOL0     C15306   3.529   2.486   5.168  0.1543 -0.4778 -0.2466
  855MOL0     N15307   3.449   2.393   5.081  0.0994 -0.7324  0.2804
  855MOL0     C15308   3.472   2.259   5.048 -0.9870 -0.6663  0.9750
  855MOL0     C15309   3.374   2.230   4.963  0.0651 -0.4787  0.2037
  855MOL0     C15310   3.376   2.104   4.887  0.8508  0.2373  0.5295
  855MOL0     C15311   3.235   2.071   4.835 -0.4898  0.4038 -1.2581
  855MOL0     C15312   3.245   1.922   4.798  0.6033 -0.3961  0.3586
  855MOL0     C15313   3.110   1.871   4.753  0.3861  0.1909 -0.0619
  855MOL0     O15314   3.018   1.876   4.868 -0.1833 -0.0159  0.5776
  855MOL0     C15315   2.883   1.854   4.855  0.5347  0.2433  0.2614
  855MOL0     C15316   2.816   1.835   4.970 -0.4095 -0.1352  0.7640
  855MOL0     C15317   2.671   1.847   4.975  0.6095 -0.2761  0.5325
  855MOL0     C15318   2.610   1.837   5.112  0.0027 -0.1431  0.1951
  855MOL0     C15319   2.596   1.845   4.854  1.2498 -0.0190  0.0520
  855MOL0     C15320   2.445   1.865   4.842 -0.3081  0.6219  0.8330
  855MOL0     O15321   2.389   1.819   4.720 -0.0613  1.1114 -0.0191
  855MOL0     C15322   2.253   1.797   4.702 -0.6702  0.5824 -0.5802
  855MOL0     C15323   2.158   1.754   4.803  0.4782 -0.4329  0.0066
  855MOL0     C15324   2.021   1.737   4.761  0.0930  0.0800  0.8729
  855MOL0     C15325   1.984   1.737   4.619  0.2730  0.3833 -0.5214
  855MOL0     O15326   1.851   1.715   4.594 -0.3470 -0.3200  0.3978
  855MOL0     C15327   1.823   1.623   4.490 -0.4430  0.7559 -0.4512
  855MOL0     C15328   1.686   1.574   4.490 -0.4783  0.5839  0.6968
  855MOL0     C15329   1.578   1.677   4.507 -0.0669  0.0569  0.7688
  855MOL0     C15330   1.435   1.628   4.471 -0.1619  0.4527  0.2099
  855MOL0     C15331   1.429   1.605   4.317  0.8406  0.2557 -0.1719
  855MOL0     C15332   1.291   1.556   4.277  0.7390 -0.3288  0.5053
  855MOL0     C15333   1.285   1.498   4.133 -0.0312  1.0257  0.1853
  855MOL0     C15334   1.148   1.480   4.080 -0.0351 -0.0865  0.5202
  855MOL0    Cl15335   1.091   1.652   4.040 -0.0717 -0.2159  0.3156
  855MOL0     C15336   2.079   1.776   4.530 -0.7514 -0.7662  0.4349
  855MOL0     C15337   2.214   1.794   4.561 -0.4927 -0.2950 -1.2428
  855MOL0     O15338   2.377   1.888   4.941 -0.4146 -0.4730 -0.3276
  855MOL0     C15339   2.675   1.849   4.739  1.0761  0.5221 -0.2497
  855MOL0     C15340   2.815   1.846   4.733  0.5302 -0.9021 -0.8210
  855MOL0     N15341   3.294   2.338   4.938 -0.7736 -0.3032  0.0885
  855MOL0     N15342   3.337   2.436   5.011  0.1287  0.5040  0.3738
  855MOL0     C15343   4.424   2.455   5.335  0.1486  0.6682  0.6331
  855MOL0     C15344   4.534   2.413   5.256 -0.0984  0.0855 -0.3358
  855MOL0     C15345   4.945   2.357   5.110  0.6420  0.1191 -0.2295
  855MOL0     C15346   5.008   2.479   5.067 -0.0962  0.2698  0.4336
  855MOL0     C15347   5.148   2.472   5.041  0.8844  0.6920  0.4381
  855MOL0     C15348   5.217   2.355   5.066  0.1046 -0.0354  0.1887
  855MOL0     O15349   5.356   2.350   5.049 -0.7554  0.2178  1.0030
  855MOL0     C15350   5.422   2.473   4.993  0.4747  0.1657  0.3867
  855MOL0     C15351   5.563   2.444   4.968 -0.2803 -0.8632 -0.7574
  855MOL0     C15352   5.580   2.351   4.851  0.0371  0.8169 -0.0921
  855MOL0     C15353   5.576   2.419   4.714 -0.3056  0.0016 -0.4406
  855MOL0     C15354   5.700   2.477   4.673  0.3369 -0.7441 -0.5791
  855MOL0     C15355   5.800   2.515   4.613  0.5986 -0.2140 -0.5489
  855MOL0     C15356   5.154   2.235   5.087  0.0235 -0.7454  0.0517
  855MOL0     C15357   5.020   2.241   5.118  0.0713 -0.1807  0.2837
  855MOL0     H15358   4.692   2.708   5.225 -1.1770  0.4831  0.5945
  855MOL0     H15359   4.494   2.788   5.358  0.0727  0.8786 -0.8470
  855MOL0     H15360   4.334   2.442   5.577  0.5806  0.1738  1.3356
  855MOL0     H15361   4.317   2.594   5.661  0.5179  0.9016 -0.4888
  855MOL0     H15362   4.121   2.453   5.690  0.8050  1.1889  0.2934
  855MOL0     H15363   4.080   2.607   5.624 -3.1783 -1.6655 -1.6008
  855MOL0     H15364   4.138   2.474   5.386 -1.6388  3.0885 -1.2060
  855MOL0     H15365   4.067   2.340   5.490 -1.6414  0.1914  0.7578
  855MOL0     H15366   3.886   2.503   5.530  1.1648 -1.0103  0.6260
  855MOL0     H15367   3.968   2.606   5.410 -0.4087  0.2295  2.6370
  855MOL0     H15368   3.943   2.429   5.247  2.9388  3.0327  1.1416
  855MOL0     H15369   3.831   2.339   5.358  0.2062  0.6511 -0.6722
  855MOL0     H15370   3.690   2.546   5.371 -1.1196  1.3892 -1.6878
  855MOL0     H15371   3.790   2.622   5.256 -1.3251  1.9929  2.0088
  855MOL0     H15372   3.717   2.441   5.084  1.1011  1.4844  0.9947
  855MOL0     H15373   3.663   2.331   5.216  1.3649 -0.0806  0.4871
  855MOL0     H15374   3.527   2.583   5.117 -3.2192 -0.9977 -1.3535
  855MOL0     H15375   3.474   2.491   5.263 -0.9150 -1.1744 -0.8153
  855MOL0     H15376   3.547   2.189   5.081  0.2548  0.8259  1.4649
  855MOL0     H15377   3.444   2.107   4.801  0.8226 -0.4552  0.4770
  855MOL0     H15378   3.420   2.029   4.952 -0.7245 -0.9819  0.2587
  855MOL0     H15379   3.194   2.137   4.758 -3.0734  0.1206 -0.2150
  855MOL0     H15380   3.170   2.078   4.923  1.4603 -1.4207  0.4434
  855MOL0     H15381   3.277   1.864   4.884 -0.0786  0.9005  1.5217
  855MOL0     H15382   3.313   1.917   4.712  0.3591  2.7036 -0.1319
  855MOL0     H15383   3.114   1.766   4.721  0.3991  0.2778 -0.3468
  855MOL0     H15384   3.074   1.938   4.675 -0.9088  0.2933  0.5864
  855MOL0     H15385   2.870   1.832   5.065 -0.2339 -0.5987  0.6510
  855MOL0     H15386   2.556   1.927   5.143 -0.0644 -0.0392 -0.2153
  855MOL0     H15387   2.542   1.751   5.112  0.0435 -0.1755  0.1223
  855MOL0     H15388   2.684   1.805   5.186 -1.3652  0.4422  1.8809
  855MOL0     H15389   2.188   1.732   4.905  0.4701  1.8672  0.5798
  855MOL0     H15390   1.944   1.699   4.827 -0.0267 -0.1849  0.5837
  855MOL0     H15391   1.852   1.671   4.396  4.4991 -3.0920 -1.3000
  855MOL0     H15392   1.896   1.545   4.513 -0.9391 -0.1342 -1.7824
  855MOL0     H15393   1.684   1.525   4.393  1.0015  2.7849 -0.5311
  855MOL0     H15394   1.686   1.513   4.581 -0.8124 -1.4337 -0.5964
  855MOL0     H15395   1.606   1.758   4.439  2.3143 -0.8543  0.5632
  855MOL0     H15396   1.566   1.719   4.608 -3.1219  0.5928  0.2897
  855MOL0     H15397   1.417   1.528   4.511 -1.0811 -0.1226 -1.5347
  855MOL0     H15398   1.360   1.698   4.508  0.8812  0.8913  1.5867
  855MOL0     H15399   1.502   1.528   4.290  2.1510  1.4723 -0.1989
  855MOL0     H15400   1.450   1.697   4.262 -1.9765  1.6527  0.8848
  855MOL0     H15401   1.260   1.476   4.345  3.0026 -2.2712 -0.5760
  855MOL0     H15402   1.220   1.639   4.271  0.6224 -0.5657 -2.2330
  855MOL0     H15403   1.340   1.404   4.125  0.8812  1.2303  2.9479
  855MOL0     H15404   1.338   1.567   4.066  2.0438 -0.9709 -0.3571
  855MOL0     H15405   1.073   1.434   4.144  0.4785 -0.1918  1.0653
  855MOL0     H15406   1.157   1.420   3.989 -0.7645  1.4952 -0.6409
  855MOL0     H15407   2.060   1.791   4.424  2.4064  2.8887  0.1376
  855MOL0     H15408   2.284   1.812   4.480  1.0503  0.9945  0.3095
  855MOL0     H15409   2.637   1.852   4.637  1.5475  2.5360 -0.4040
  855MOL0     H15410   2.863   1.848   4.636  4.7782  1.4360  1.0571
  855MOL0     H15411   4.352   2.380   5.365  0.3007  1.3060  2.6928
  855MOL0     H15412   4.529   2.314   5.212 -3.5137 -0.0956  0.1779
  855MOL0     H15413   4.946   2.567   5.076 -0.6998 -0.2551  1.6745
  855MOL0     H15414   5.196   2.560   5.000  0.6198 -0.1103 -1.7526
  855MOL0     H15415   5.375   2.488   4.896  2.5941  2.9015 -0.3294
  855MOL0     H15416   5.404   2.563   5.053  0.5593 -0.5881  1.5817
  855MOL0     H15417   5.597   2.404   5.064 -0.3657  1.1237  0.1571
  855MOL0     H15418   5.605   2.543   4.947 -2.2263  0.9614  2.8814
  855MOL0     H15419   5.495   2.283   4.841  0.8016 -0.0166 -1.1628
  855MOL0     H15420   5.676   2.298   4.851  0.0617  0.8309  1.2786
  855MOL0     H15421   5.498   2.493   4.695 -0.7645 -0.2093  0.5565
  855MOL0     H15422   5.556   2.341   4.641  2.7199 -0.7362 -0.5894
  855MOL0     H15423   5.889   2.552   4.565 -0.2056 -1.2571 -3.0240
  855MOL0     H15424   5.215   2.145   5.089  0.3358 -0.5453 -0.2442
  855MOL0     H15425   4.970   2.153   5.155  0.7977 -1.2416 -1.1585
  856MOL0     O15426   1.210   5.810   5.587  0.5061 -0.3258  0.3881
  856MOL0     C15427   1.131   5.770   5.507 -0.2111 -0.0293  0.3074
  856MOL0     O15428   1.000   5.717   5.543  0.0565 -0.7188 -0.1603
  856MOL0     C15429   0.940   5.746   5.659  0.6163 -1.2421  0.0152
  856MOL0     C15430   0.848   5.663   5.718 -0.5405 -1.0002  0.4740
  856MOL0     C15431   0.776   5.687   5.828  0.3311 -0.1166  0.5439
  856MOL0     C15432   0.802   5.804   5.897  0.3112 -0.6962 -0.0779
  856MOL0     O15433   0.759   5.828   6.030  0.0252  0.0617 -0.3644
  856MOL0     C15434   0.623   5.781   6.058 -0.8591 -0.1895  0.0698
  856MOL0     C15435   0.509   5.876   6.000  0.0085 -0.4083  1.0333
  856MOL0     C15436   0.380   5.815   6.065 -1.0759 -0.4254 -0.4652
  856MOL0     C15437   0.253   5.868   5.998  1.0692  1.4020 -0.2339
  856MOL0     C15438   0.127   5.800   6.045  0.1545  0.1014 -0.0265
  856MOL0     C15439   0.002   5.884   6.005 -0.0774  0.1310 -0.0019
  856MOL0     C15440  -0.129   5.852   6.088 -0.3802  0.1710  0.0649
  856MOL0     C15441  -0.120   5.890   6.234 -0.3802  1.0554 -0.2505
  856MOL0     N15442  -0.190   5.794   6.314 -0.3172 -0.2525  0.9212
  856MOL0     C15443  -0.324   5.794   6.335  0.3670 -0.6821  0.2261
  856MOL0     C15444  -0.338   5.716   6.441  0.6925 -0.2507 -0.0731
  856MOL0     C15445  -0.475   5.704   6.515 -0.3211  0.2079 -0.0476
  856MOL0     C15446  -0.552   5.578   6.489 -0.1687  0.6078  0.6194
  856MOL0     C15447  -0.685   5.586   6.552  0.0059 -0.8248 -0.1387
  856MOL0     C15448  -0.733   5.454   6.604  0.4307  0.4238  0.7296
  856MOL0     O15449  -0.722   5.364   6.489  0.5276  0.5546  0.6496
  856MOL0     C15450  -0.806   5.379   6.377 -0.9073 -0.4475  0.0706
  856MOL0     C15451  -0.767   5.316   6.261  0.5057  0.5873 -0.5807
  856MOL0     C15452  -0.829   5.334   6.139  0.6336  0.9071 -1.7324
  856MOL0     C15453  -0.751   5.280   6.019  0.2722 -0.4548  0.0604
  856MOL0     C15454  -0.943   5.422   6.134 -0.2010  0.1960 -0.1060
  856MOL0     C15455  -1.010   5.458   6.001 -0.1791  1.0828 -0.3251
  856MOL0     O15456  -1.077   5.568   6.012 -0.1523 -0.4162 -0.1143
  856MOL0     C15457  -1.162   5.604   5.916 -0.4993 -0.3273  0.4451
  856MOL0     C15458  -1.129   5.686   5.810  0.1531  0.2065  0.7721
  856MOL0     C15459  -1.228   5.715   5.718  0.1075  0.0184 -0.2422
  856MOL0     C15460  -1.346   5.650   5.705  0.3023  0.4552 -0.7380
  856MOL0     O15461  -1.427   5.684   5.595 -0.8593  0.3778 -0.3296
  856MOL0     C15462  -1.556   5.629   5.603  0.1220 -0.2426 -0.0421
  856MOL0     C15463  -1.629   5.634   5.466 -0.3596 -0.1243 -0.2112
  856MOL0     C15464  -1.778   5.611   5.480  0.5544 -0.0432 -0.1126
  856MOL0     C15465  -1.862   5.720   5.536 -0.2898  0.3169 -0.4896
  856MOL0     C15466  -2.006   5.682   5.560  0.3234  0.4741 -0.1840
  856MOL0     C15467  -2.073   5.803   5.618  0.4955 -0.3932 -0.3296
  856MOL0     C15468  -2.219   5.783   5.653  0.0943 -0.2005 -0.5346
  856MOL0     C15469  -2.271   5.916   5.718 -0.0560  0.4756 -0.6471
  856MOL0    Cl15470  -2.439   5.936   5.750  0.2805  0.6190  0.4143
  856MOL0     C15471  -1.377   5.560   5.805  0.1212  0.5957 -0.0993
  856MOL0     C15472  -1.290   5.534   5.912 -0.4097  0.1299 -0.2337
  856MOL0     O15473  -0.986   5.388   5.901  0.0324  0.1475  0.2910
  856MOL0     C15474  -0.988   5.476   6.257  0.4432  0.9448 -0.4558
  856MOL0     C15475  -0.924   5.450   6.382 -0.4707 -0.1427  0.7265
  856MOL0     N15476  -0.211   5.674   6.489  0.3290 -0.3342 -0.1490
  856MOL0     N15477  -0.119   5.719   6.407  0.0978 -0.1848 -0.1319
  856MOL0     C15478   0.890   5.901   5.844  0.3367 -0.4642 -0.1143
  856MOL0     C15479   0.962   5.868   5.719 -0.0331  0.3529 -0.0039
  856MOL0     C15480   1.167   5.730   5.369 -0.3591  0.3570  0.9635
  856MOL0     C15481   1.294   5.761   5.322  0.2133 -0.6876 -0.1641
  856MOL0     C15482   1.344   5.718   5.191  1.4128 -0.5964 -0.9695
  856MOL0     C15483   1.253   5.651   5.112 -0.6185  1.0161  0.6796
  856MOL0     O15484   1.306   5.598   5.000 -0.0706 -0.1087  0.2224
  856MOL0     C15485   1.247   5.646   4.884 -0.0589 -0.0493 -0.3982
  856MOL0     C15486   1.342   5.672   4.770  0.2619 -0.2042  0.9510
  856MOL0     C15487   1.283   5.767   4.662  0.3836 -0.2459 -0.4124
  856MOL0     C15488   1.167   5.707   4.584 -0.7829  0.0308  0.1243
  856MOL0     C15489   1.200   5.575   4.535 -0.1463  0.5874 -0.3468
  856MOL0     C15490   1.259   5.467   4.519  0.3719 -0.2720  0.4958
  856MOL0     C15491   1.127   5.629   5.152 -0.1023 -0.0961  0.6535
  856MOL0     C15492   1.082   5.663   5.281 -0.6253 -0.4342 -0.5530
  856MOL0     H15493   0.828   5.570   5.667  1.1661 -1.4391  0.5313
  856MOL0     H15494   0.706   5.615   5.867 -0.5775  0.5288  0.1313
  856MOL0     H15495   0.601   5.682   6.015 -0.3796  0.1796 -1.0754
  856MOL0     H15496   0.610   5.769   6.166  1.0352 -0.1843  0.3409
  856MOL0     H15497   0.538   5.979   6.022 -0.8467  0.6525 -2.2200
  856MOL0     H15498   0.506   5.872   5.890 -0.1203 -0.7036  1.0483
  856MOL0     H15499   0.396   5.707   6.063  1.8994 -0.2441  3.0785
  856MOL0     H15500   0.368   5.848   6.169 -1.4386  2.6605 -1.3948
  856MOL0     H15501   0.255   5.973   6.029  0.6500  0.8813  1.6911
  856MOL0     H15502   0.267   5.852   5.891 -1.6093 -0.4589 -0.4130
  856MOL0     H15503   0.126   5.695   6.016  1.8986  0.0396  0.0577
  856MOL0     H15504   0.140   5.797   6.154 -0.6968  1.6086  0.1414
  856MOL0     H15505   0.021   5.992   6.008 -1.7695  0.6300 -2.9448
  856MOL0     H15506  -0.026   5.863   5.901 -0.7263 -0.0894  0.2121
  856MOL0     H15507  -0.213   5.901   6.038 -0.4211  0.3183  0.2745
  856MOL0     H15508  -0.145   5.744   6.080 -0.0588  0.1564 -0.4310
  856MOL0     H15509  -0.169   5.987   6.240 -2.3565  0.0902  0.0630
  856MOL0     H15510  -0.014   5.885   6.258 -0.5262  0.6565  0.3541
  856MOL0     H15511  -0.394   5.856   6.280  1.4972 -0.0811 -0.5744
  856MOL0     H15512  -0.459   5.713   6.622 -0.7537 -1.4430  0.1889
  856MOL0     H15513  -0.540   5.779   6.470 -1.9193 -0.7994  0.5241
  856MOL0     H15514  -0.502   5.490   6.530  1.8513  0.9215 -1.0458
  856MOL0     H15515  -0.558   5.554   6.383  1.6702 -2.2602  1.0597
  856MOL0     H15516  -0.758   5.621   6.477  0.7690  0.1734 -0.4390
  856MOL0     H15517  -0.691   5.665   6.628 -0.6280 -0.9601 -0.0406
  856MOL0     H15518  -0.836   5.465   6.639  0.9911 -0.0297  2.6298
  856MOL0     H15519  -0.669   5.403   6.676  1.4470  0.4160 -0.1487
  856MOL0     H15520  -0.677   5.257   6.271  0.7120  0.7806 -1.2573
  856MOL0     H15521  -0.650   5.243   6.041 -0.1319 -0.9112  1.1771
  856MOL0     H15522  -0.803   5.200   5.967  1.2261 -2.2522  1.7487
  856MOL0     H15523  -0.738   5.360   5.946  1.1523 -0.0906  0.5915
  856MOL0     H15524  -1.035   5.741   5.813  0.5187 -0.3929  0.4258
  856MOL0     H15525  -1.195   5.793   5.651  1.0352 -0.0987  0.0553
  856MOL0     H15526  -1.567   5.529   5.646  2.1470 -1.5265 -2.2872
  856MOL0     H15527  -1.610   5.693   5.673 -1.4473 -2.3021  0.7078
  856MOL0     H15528  -1.625   5.734   5.420  1.3491 -0.1587 -0.2198
  856MOL0     H15529  -1.597   5.566   5.387 -1.0583 -0.6986 -0.0080
  856MOL0     H15530  -1.790   5.519   5.537  0.8084  1.5850  2.7112
  856MOL0     H15531  -1.815   5.586   5.380  1.3521  0.1267 -0.4642
  856MOL0     H15532  -1.810   5.759   5.624 -1.1366  1.0701 -0.3080
  856MOL0     H15533  -1.853   5.799   5.461  1.5620  0.2162 -0.4142
  856MOL0     H15534  -2.019   5.589   5.616  2.2894 -1.2197 -2.3387
  856MOL0     H15535  -2.042   5.663   5.458  1.0573 -1.9459 -0.0456
  856MOL0     H15536  -2.026   5.838   5.710 -2.3609  0.7375  0.8353
  856MOL0     H15537  -2.066   5.885   5.546 -0.0314  0.9940  1.1282
  856MOL0     H15538  -2.231   5.698   5.720 -1.7047 -1.5733 -2.4888
  856MOL0     H15539  -2.272   5.753   5.562  2.9885 -0.1774 -2.3634
  856MOL0     H15540  -2.244   5.998   5.650 -2.2770  2.3235  0.5742
  856MOL0     H15541  -2.215   5.926   5.811  0.1210 -2.4212 -0.3636
  856MOL0     H15542  -1.468   5.501   5.808  1.1857 -1.0837  2.7843
  856MOL0     H15543  -1.321   5.479   6.001  0.5688  2.6478  1.7794
  856MOL0     H15544  -1.081   5.532   6.261 -1.4183 -2.0054 -0.1487
  856MOL0     H15545  -0.957   5.495   6.475  0.3449  3.9174 -0.7296
  856MOL0     H15546   0.901   5.996   5.896 -2.5881  0.0132 -0.1958
  856MOL0     H15547   1.019   5.944   5.666  0.8790 -0.3658 -0.0810
  856MOL0     H15548   1.366   5.822   5.375 -0.0472 -0.2297 -0.3271
  856MOL0     H15549   1.444   5.738   5.156  2.1466  2.7081  2.3556
  856MOL0     H15550   1.164   5.581   4.855 -0.4731  0.0169  0.6218
  856MOL0     H15551   1.199   5.741   4.905 -0.2156 -0.3479  0.6250
  856MOL0     H15552   1.378   5.577   4.729 -1.6358 -0.5262 -0.0824
  856MOL0     H15553   1.433   5.718   4.809  1.2682 -3.0717  2.3308
  856MOL0     H15554   1.363   5.787   4.591  1.3963  1.2003  1.0484
  856MOL0     H15555   1.259   5.867   4.701 -0.2387 -0.2067 -0.8846
  856MOL0     H15556   1.133   5.771   4.502 -2.9193 -0.1904  0.7870
  856MOL0     H15557   1.082   5.698   4.652 -1.3632 -0.8767 -0.6839
  856MOL0     H15558   1.316   5.380   4.491 -1.3326 -0.5995 -2.3054
  856MOL0     H15559   1.061   5.575   5.085 -0.2706 -0.2137  0.9104
  856MOL0     H15560   0.983   5.624   5.299 -0.4242 -0.5386  0.3799
  857MOL0     O15561   8.066   3.469   3.323  0.4559  0.1132  0.2125
  857MOL0     C15562   8.104   3.534   3.414  0.2694  0.2073 -0.4041
  857MOL0     O15563   8.031   3.622   3.476  1.0189  0.1023 -0.0258
  857MOL0     C15564   7.916   3.665   3.416 -0.5676 -0.5146  0.1938
  857MOL0     C15565   7.800   3.658   3.487 -0.3394 -0.4530 -0.3124
  857MOL0     C15566   7.686   3.711   3.434 -0.9657 -0.6206 -0.1551
  857MOL0     C15567   7.685   3.771   3.310 -0.4280 -0.5404 -0.1440
  857MOL0     O15568   7.570   3.831   3.271 -0.6378  0.1320 -0.5768
  857MOL0     C15569   7.519   3.790   3.145  0.3892 -0.2234 -0.1956
  857MOL0     C15570   7.404   3.883   3.114  0.1897 -1.0488  0.2479
  857MOL0     C15571   7.272   3.841   3.188 -0.7588  0.2405  0.5842
  857MOL0     C15572   7.169   3.936   3.151  0.8043 -0.1239  0.3323
  857MOL0     C15573   7.030   3.874   3.204  0.7527 -0.0084  0.3390
  857MOL0     C15574   6.912   3.952   3.142 -0.1688  0.4931 -0.6365
  857MOL0     C15575   6.783   3.897   3.205  0.5670 -1.3886  0.1178
  857MOL0     C15576   6.759   3.952   3.343 -0.0033 -0.5373  0.4186
  857MOL0     N15577   6.620   3.933   3.392  0.5853  0.1443  0.1494
  857MOL0     C15578   6.515   4.012   3.358  0.1202  0.3763  0.5192
  857MOL0     C15579   6.411   3.981   3.436  0.0093  0.1355 -0.9981
  857MOL0     C15580   6.291   4.073   3.436  0.7553  0.1583  0.4621
  857MOL0     C15581   6.179   4.015   3.521 -0.6138 -0.4231  0.2149
  857MOL0     C15582   6.037   4.075   3.483 -0.0270  0.9781  0.1394
  857MOL0     C15583   5.943   4.042   3.592  0.5574 -0.0711  0.0661
  857MOL0     O15584   5.820   4.091   3.535 -0.2819  0.4587 -0.1858
  857MOL0     C15585   5.710   4.111   3.608  0.5788 -0.2086  0.3250
  857MOL0     C15586   5.699   4.092   3.747  0.4509  0.8385  0.4155
  857MOL0     C15587   5.579   4.113   3.817  1.4611 -0.3699 -0.7154
  857MOL0     C15588   5.589   4.118   3.965 -0.1619  0.1892  0.3050
  857MOL0     C15589   5.459   4.138   3.750 -0.3436  0.3905  0.4012
  857MOL0     C15590   5.319   4.152   3.821  0.4720 -0.3942  0.5185
  857MOL0     O15591   5.214   4.151   3.731  0.3926  0.9346 -0.3100
  857MOL0     C15592   5.089   4.191   3.776 -0.2575 -0.1625  0.5192
  857MOL0     C15593   5.068   4.313   3.841 -1.1246 -0.3793  0.4633
  857MOL0     C15594   4.944   4.342   3.889 -0.6942 -0.5710 -0.1835
  857MOL0     C15595   4.829   4.269   3.873  0.4407 -0.2457  1.0528
  857MOL0     O15596   4.697   4.307   3.909 -0.8729  0.1267  0.2971
  857MOL0     C15597   4.679   4.432   3.980  0.2602 -0.4203 -0.0772
  857MOL0     C15598   4.531   4.460   4.012 -0.4222 -0.0356 -0.3774
  857MOL0     C15599   4.504   4.583   4.103  0.2195 -0.2839  0.6523
  857MOL0     C15600   4.462   4.707   4.019 -0.3898  0.4888 -0.8794
  857MOL0     C15601   4.398   4.807   4.100  0.0816 -0.5865 -0.1813
  857MOL0     C15602   4.261   4.774   4.166  0.2990  0.3577 -1.4556
  857MOL0     C15603   4.174   4.685   4.068 -0.1129 -0.0945  0.4695
  857MOL0     C15604   4.043   4.653   4.135  0.2069 -0.7235  0.2982
  857MOL0    Cl15605   3.952   4.803   4.175  0.0577 -0.2810 -0.4747
  857MOL0     C15606   4.846   4.151   3.799  0.1875 -0.1312  0.4559
  857MOL0     C15607   4.977   4.106   3.750  0.3072 -0.2101  0.1095
  857MOL0     O15608   5.309   4.156   3.941  0.4466 -0.1013  0.0755
  857MOL0     C15609   5.466   4.145   3.609  0.0072  0.8531  0.2952
  857MOL0     C15610   5.591   4.144   3.540 -0.1072  0.3582  0.5669
  857MOL0     N15611   6.453   3.882   3.528  0.1480 -0.7275 -0.4200
  857MOL0     N15612   6.574   3.852   3.488  0.3843  0.0222 -0.6170
  857MOL0     C15613   7.804   3.781   3.243 -0.3957 -0.7096  0.7604
  857MOL0     C15614   7.921   3.724   3.290 -0.3785 -0.7237 -0.2838
  857MOL0     C15615   8.253   3.528   3.437  0.2876  1.3297 -0.3758
  857MOL0     C15616   8.332   3.440   3.361  0.5714  0.5145  0.3419
  857MOL0     C15617   8.476   3.436   3.376  1.0264  0.5282  0.8145
  857MOL0     C15618   8.532   3.525   3.462 -0.8261  0.9420  0.4736
  857MOL0     O15619   8.668   3.535   3.468 -0.3791 -0.6441  0.1653
  857MOL0     C15620   8.742   3.407   3.482 -0.4102 -0.0394  0.2780
  857MOL0     C15621   8.821   3.420   3.611 -0.1930  0.0080 -0.3619
  857MOL0     C15622   8.895   3.549   3.623  0.2399 -0.3159 -0.5747
  857MOL0     C15623   9.034   3.532   3.693 -0.1512  0.0657  0.0407
  857MOL0     C15624   9.104   3.661   3.714 -0.1417  0.4730  0.1600
  857MOL0     C15625   9.176   3.750   3.741 -0.6865  0.5951  0.9308
  857MOL0     C15626   8.457   3.610   3.544 -0.6567  0.1874  0.8222
  857MOL0     C15627   8.318   3.612   3.528 -0.3831 -0.1404 -0.2465
  857MOL0     H15628   7.799   3.632   3.593  0.8469 -1.0828 -0.4359
  857MOL0     H15629   7.600   3.710   3.501 -1.7675  0.7843 -1.0971
  857MOL0     H15630   7.584   3.793   3.057 -0.8167 -1.8995 -1.2139
  857MOL0     H15631   7.481   3.687   3.143  1.1927 -0.6107  1.7614
  857MOL0     H15632   7.428   3.986   3.141  1.4175 -1.0042 -0.9265
  857MOL0     H15633   7.390   3.893   3.006 -0.8065  0.1213  0.4637
  857MOL0     H15634   7.245   3.741   3.155  1.6865  0.3863 -2.3362
  857MOL0     H15635   7.285   3.843   3.297  2.6589  2.3376  0.3002
  857MOL0     H15636   7.189   4.036   3.191 -0.6538  0.2715  0.1287
  857MOL0     H15637   7.170   3.947   3.042  0.3955  0.4909  0.3849
  857MOL0     H15638   7.024   3.770   3.172 -1.3392  0.9162 -2.6844
  857MOL0     H15639   7.012   3.872   3.312 -3.5330 -0.9576 -0.1908
  857MOL0     H15640   6.930   4.060   3.153  0.4536  0.3029  0.3099
  857MOL0     H15641   6.904   3.934   3.035  0.3187  1.3957 -0.8392
  857MOL0     H15642   6.692   3.918   3.147 -0.1955 -0.3209  1.6393
  857MOL0     H15643   6.784   3.788   3.213  0.5412 -1.8167 -3.7306
  857MOL0     H15644   6.778   4.060   3.342  2.8825 -0.9639  0.4088
  857MOL0     H15645   6.823   3.912   3.422  1.1805 -0.6161 -0.5566
  857MOL0     H15646   6.519   4.092   3.284 -2.4988 -1.4957 -1.8453
  857MOL0     H15647   6.310   4.177   3.465  0.3294  0.6677 -0.9989
  857MOL0     H15648   6.254   4.075   3.333 -1.6618  1.1257  1.2893
  857MOL0     H15649   6.209   4.046   3.622  2.5500  1.7928 -1.2671
  857MOL0     H15650   6.169   3.906   3.527 -2.2461 -0.3399 -0.5620
  857MOL0     H15651   5.989   4.022   3.400  0.2997 -0.5742  0.9011
  857MOL0     H15652   6.049   4.183   3.471 -0.2556  0.9140 -0.7949
  857MOL0     H15653   5.968   4.106   3.678 -0.8196 -0.3351  0.6824
  857MOL0     H15654   5.952   3.935   3.613 -0.2259 -0.3946 -1.1516
  857MOL0     H15655   5.787   4.076   3.809  0.8129 -1.3892 -0.5824
  857MOL0     H15656   5.536   4.198   4.017 -1.2838 -0.4485  0.1790
  857MOL0     H15657   5.540   4.027   4.001  1.1022  0.0999  1.8755
  857MOL0     H15658   5.695   4.104   3.985 -0.2495 -1.0559  0.0017
  857MOL0     H15659   5.149   4.383   3.856  1.6466 -2.9198 -1.4507
  857MOL0     H15660   4.921   4.430   3.949 -1.2169 -0.0248 -1.1647
  857MOL0     H15661   4.725   4.424   4.079 -0.0636 -1.3761  0.0104
  857MOL0     H15662   4.705   4.523   3.925 -1.8103 -0.2603 -0.8944
  857MOL0     H15663   4.488   4.475   3.913  2.0001 -0.0330 -1.4914
  857MOL0     H15664   4.494   4.371   4.064  1.5659  0.5959  2.3864
  857MOL0     H15665   4.592   4.606   4.163 -0.1886 -2.1504  2.0481
  857MOL0     H15666   4.425   4.553   4.173  0.8752 -0.4326  1.3379
  857MOL0     H15667   4.549   4.758   3.977 -1.0097 -0.3726 -3.3894
  857MOL0     H15668   4.397   4.671   3.939 -1.8427 -0.3831  0.6170
  857MOL0     H15669   4.382   4.892   4.034  1.1753 -0.4985 -0.3475
  857MOL0     H15670   4.466   4.832   4.182 -2.7157  0.4282  2.0129
  857MOL0     H15671   4.276   4.714   4.256  2.1098  0.3648 -1.7158
  857MOL0     H15672   4.208   4.868   4.182  2.0323  1.4857 -2.0660
  857MOL0     H15673   4.219   4.590   4.035  0.0092  0.3456 -0.6955
  857MOL0     H15674   4.150   4.750   3.983  1.6673  0.3924  0.2901
  857MOL0     H15675   4.067   4.600   4.227 -0.8984  0.2140  1.1658
  857MOL0     H15676   3.977   4.591   4.072 -0.4110  0.9132 -0.7392
  857MOL0     H15677   4.763   4.084   3.774  1.0052 -1.1358  0.3769
  857MOL0     H15678   4.997   4.010   3.704  4.2513 -0.6952  2.3716
  857MOL0     H15679   5.375   4.174   3.557 -0.2708  0.5258  0.5939
  857MOL0     H15680   5.600   4.155   3.432 -0.4259 -2.3297  0.1759
  857MOL0     H15681   7.813   3.829   3.146  2.1876 -0.3037  1.1228
  857MOL0     H15682   8.013   3.729   3.233  0.0200  1.8803  0.4585
  857MOL0     H15683   8.283   3.376   3.288 -0.2678  1.6611 -0.1396
  857MOL0     H15684   8.542   3.389   3.304 -0.4140  0.7520 -0.7115
  857MOL0     H15685   8.678   3.320   3.461 -0.3371  0.5706 -2.8958
  857MOL0     H15686   8.811   3.398   3.397 -0.2549 -0.6544  0.4571
  857MOL0     H15687   8.886   3.333   3.618  1.5202  0.9860 -2.7854
  857MOL0     H15688   8.740   3.419   3.684 -1.8443  4.1758 -1.7863
  857MOL0     H15689   8.835   3.615   3.686  1.3832 -1.2497  1.5956
  857MOL0     H15690   8.916   3.599   3.527 -1.0553  0.6334 -0.3942
  857MOL0     H15691   9.102   3.470   3.633 -1.3009 -0.1834 -1.0645
  857MOL0     H15692   9.012   3.482   3.788  0.1247  2.1203  1.2332
  857MOL0     H15693   9.252   3.821   3.766  1.7095 -0.7101 -2.0824
  857MOL0     H15694   8.509   3.680   3.609  1.5319  0.3321 -0.9791
  857MOL0     H15695   8.256   3.676   3.589  0.7680  1.3800 -0.6036
  858MOL0     O15696   8.714   0.413   3.178 -0.8126 -0.8086  0.5064
  858MOL0     C15697   8.735   0.390   3.294 -0.0108  0.7471 -0.2268
  858MOL0     O15698   8.635   0.371   3.396 -0.2972  0.0118 -0.2208
  858MOL0     C15699   8.500   0.404   3.371 -0.4351  0.9831 -0.9271
  858MOL0     C15700   8.410   0.420   3.473  0.2966  0.3215  0.1923
  858MOL0     C15701   8.270   0.443   3.463  0.7409  1.0970 -0.1480
  858MOL0     C15702   8.211   0.431   3.340 -0.0386  0.2573  0.0577
  858MOL0     O15703   8.074   0.438   3.317 -0.5372  0.4695 -0.5607
  858MOL0     C15704   8.025   0.439   3.185 -0.1438 -0.3486 -0.1766
  858MOL0     C15705   7.883   0.489   3.199 -0.1381  0.3672  0.3495
  858MOL0     C15706   7.884   0.630   3.256  0.2591 -0.4651 -0.3965
  858MOL0     C15707   7.736   0.682   3.243 -0.4088 -0.6785  0.7139
  858MOL0     C15708   7.721   0.824   3.292  0.3351  0.0509 -0.2622
  858MOL0     C15709   7.583   0.867   3.338 -0.2882 -0.9427 -0.4057
  858MOL0     C15710   7.541   0.833   3.486 -0.6147 -0.1068 -0.3269
  858MOL0     C15711   7.425   0.933   3.520  0.5284  0.3716  0.1036
  858MOL0     N15712   7.303   0.872   3.477  0.8001  0.3520  0.8657
  858MOL0     C15713   7.202   0.940   3.418  1.0232 -0.4108 -0.0023
  858MOL0     C15714   7.093   0.863   3.421  0.2590  0.4475  0.2455
  858MOL0     C15715   6.973   0.900   3.336  0.0456 -0.7733 -0.7954
  858MOL0     C15716   6.856   0.811   3.352 -0.0577  0.1953  0.1497
  858MOL0     C15717   6.803   0.791   3.494 -0.8640 -0.6437  0.0570
  858MOL0     C15718   6.658   0.729   3.501  0.0990 -1.0552  0.4113
  858MOL0     O15719   6.555   0.824   3.451 -0.0755 -0.1089  0.4803
  858MOL0     C15720   6.420   0.782   3.456 -0.4373  0.2607 -0.5202
  858MOL0     C15721   6.380   0.651   3.498 -0.8755  0.4531  1.1110
  858MOL0     C15722   6.249   0.612   3.488 -0.4212 -0.5080 -0.2952
  858MOL0     C15723   6.219   0.472   3.527 -0.0859 -0.2240  0.7142
  858MOL0     C15724   6.144   0.706   3.453 -0.4415 -0.5096  0.5236
  858MOL0     C15725   5.997   0.692   3.456 -0.7743 -0.0399  0.1303
  858MOL0     O15726   5.942   0.637   3.569  0.1067 -0.0273  0.2313
  858MOL0     C15727   5.800   0.630   3.583  0.9112 -0.2611  0.4179
  858MOL0     C15728   5.734   0.504   3.579 -0.3954 -0.8294 -0.5721
  858MOL0     C15729   5.588   0.497   3.587 -0.0046 -0.4231  0.1084
  858MOL0     C15730   5.512   0.618   3.588  0.2818  0.5880  0.0262
  858MOL0     O15731   5.374   0.616   3.574 -0.5185  0.1658 -1.1566
  858MOL0     C15732   5.298   0.515   3.649  0.0063  0.8299  0.0570
  858MOL0     C15733   5.148   0.542   3.666  0.0335 -0.2600  0.6571
  858MOL0     C15734   5.073   0.419   3.747  0.2319 -0.1474 -1.1323
  858MOL0     C15735   4.922   0.436   3.764 -0.9670  0.3294  0.0440
  858MOL0     C15736   4.895   0.543   3.867 -0.1068  0.1713  0.6643
  858MOL0     C15737   4.746   0.535   3.916  0.0132 -0.5771 -0.3959
  858MOL0     C15738   4.753   0.541   4.067 -0.8223  0.4600 -0.3923
  858MOL0     C15739   4.613   0.551   4.131 -0.1446  0.3185  0.3048
  858MOL0    Cl15740   4.546   0.715   4.127  0.8336 -0.2462  0.5942
  858MOL0     C15741   5.576   0.739   3.578 -0.6465 -0.2767 -0.1397
  858MOL0     C15742   5.718   0.750   3.589 -0.9840 -0.2663  1.6352
  858MOL0     O15743   5.933   0.724   3.353 -0.2282 -0.0484 -0.4957
  858MOL0     C15744   6.190   0.835   3.416  0.0533  0.3923  0.7020
  858MOL0     C15745   6.322   0.868   3.415 -0.4972  1.6839  0.5647
  858MOL0     N15746   7.122   0.747   3.497 -0.8779 -0.6619 -0.3868
  858MOL0     N15747   7.247   0.755   3.522  0.3675 -0.0115 -0.1407
  858MOL0     C15748   8.297   0.417   3.230 -0.6429  0.0920 -0.0541
  858MOL0     C15749   8.437   0.402   3.248  0.1134  0.1981  0.8892
  858MOL0     C15750   8.875   0.380   3.345  0.0254  0.0306 -0.4053
  858MOL0     C15751   8.986   0.385   3.255  0.0825 -0.0004  0.5300
  858MOL0     C15752   9.110   0.410   3.300  0.5242 -0.1272  0.2199
  858MOL0     C15753   9.147   0.389   3.429  0.0183 -0.2703 -0.2093
  858MOL0     O15754   9.277   0.376   3.480  0.5800  0.4725 -0.5519
  858MOL0     C15755   9.392   0.369   3.391 -0.4122 -0.5888  0.2143
  858MOL0     C15756   9.528   0.352   3.460 -1.2700 -0.2310  0.2924
  858MOL0     C15757   9.571   0.470   3.542  0.1263  0.1483 -0.0150
  858MOL0     C15758   9.509   0.460   3.677  0.2156  0.2185 -0.3073
  858MOL0     C15759   9.583   0.554   3.765  0.4222  0.3195  0.8971
  858MOL0     C15760   9.655   0.625   3.830  0.3509 -0.0769 -0.0186
  858MOL0     C15761   9.043   0.381   3.518  0.1191  0.6446  0.4850
  858MOL0     C15762   8.913   0.375   3.482  0.1849 -0.1419  0.0196
  858MOL0     H15763   8.448   0.403   3.573  2.4493 -0.5284 -0.7005
  858MOL0     H15764   8.217   0.469   3.553  0.7060  0.8783 -0.1035
  858MOL0     H15765   8.070   0.513   3.118 -0.1563 -0.8531 -0.7571
  858MOL0     H15766   8.032   0.344   3.131  2.4777  0.9216 -2.3305
  858MOL0     H15767   7.833   0.481   3.101  1.8517 -0.6254 -0.6404
  858MOL0     H15768   7.834   0.427   3.275  0.8825  0.9140  1.4747
  858MOL0     H15769   7.915   0.630   3.361  0.5291 -1.5121 -0.4660
  858MOL0     H15770   7.959   0.689   3.201  1.4004  1.4872  2.9328
  858MOL0     H15771   7.702   0.665   3.141  3.3099 -1.4968 -0.5463
  858MOL0     H15772   7.675   0.615   3.303 -1.2020  0.9520  1.8129
  858MOL0     H15773   7.784   0.840   3.380  1.9922  0.4152 -1.4644
  858MOL0     H15774   7.755   0.897   3.218 -0.6707 -0.6237 -1.4457
  858MOL0     H15775   7.580   0.976   3.329  1.1494 -1.0022 -2.4057
  858MOL0     H15776   7.503   0.831   3.273 -0.4079 -0.8681 -0.3009
  858MOL0     H15777   7.510   0.728   3.488  1.7029 -0.9002 -1.9300
  858MOL0     H15778   7.628   0.840   3.552 -1.5571 -0.5614  0.9881
  858MOL0     H15779   7.441   1.031   3.476  0.3985  0.4819  0.3010
  858MOL0     H15780   7.422   0.953   3.627  2.0312 -1.4621  0.5439
  858MOL0     H15781   7.196   1.039   3.372  1.4331 -0.1311  0.5337
  858MOL0     H15782   6.947   1.003   3.358  0.1933 -1.3557  2.5730
  858MOL0     H15783   7.011   0.900   3.233 -1.1401 -0.6933 -1.2495
  858MOL0     H15784   6.881   0.710   3.317 -0.0957  0.1704  0.1939
  858MOL0     H15785   6.772   0.849   3.294 -0.5694 -2.9554 -1.4075
  858MOL0     H15786   6.782   0.890   3.537  1.6465  0.7220 -1.5924
  858MOL0     H15787   6.879   0.743   3.555 -0.7138 -3.3509 -2.0627
  858MOL0     H15788   6.625   0.706   3.603 -1.4808  1.7959  0.6278
  858MOL0     H15789   6.663   0.642   3.434 -0.0628  0.8648 -2.2152
  858MOL0     H15790   6.456   0.585   3.539  0.8329  0.2579 -2.1036
  858MOL0     H15791   6.196   0.427   3.430 -0.8473  0.8460  0.3838
  858MOL0     H15792   6.305   0.418   3.566  1.1413  1.0802 -0.1105
  858MOL0     H15793   6.138   0.473   3.601 -0.6915 -0.0114  0.0616
  858MOL0     H15794   5.786   0.409   3.570 -0.4454 -1.0416  1.0333
  858MOL0     H15795   5.532   0.405   3.573 -2.3999  0.9640 -0.0389
  858MOL0     H15796   5.308   0.413   3.611 -4.7113 -0.0180  0.4577
  858MOL0     H15797   5.323   0.513   3.755 -0.7027 -1.2417  0.2389
  858MOL0     H15798   5.135   0.628   3.732 -1.5670 -0.0002  0.0419
  858MOL0     H15799   5.088   0.555   3.575  1.1607 -1.7200 -0.3455
  858MOL0     H15800   5.119   0.400   3.844 -3.8682  0.7476  1.1978
  858MOL0     H15801   5.078   0.325   3.691  1.4330 -3.4625  3.8854
  858MOL0     H15802   4.880   0.469   3.669 -3.0524 -0.7043  0.5524
  858MOL0     H15803   4.884   0.337   3.792  0.0209  0.9339  4.2929
  858MOL0     H15804   4.930   0.637   3.825  2.8313 -0.8436  0.6323
  858MOL0     H15805   4.963   0.516   3.948  1.0813  0.6758 -0.1463
  858MOL0     H15806   4.687   0.618   3.876 -0.1128  0.5713  1.9959
  858MOL0     H15807   4.696   0.444   3.881 -1.8154  0.3949 -0.4235
  858MOL0     H15808   4.811   0.627   4.099  0.1754  0.0718 -1.1098
  858MOL0     H15809   4.797   0.448   4.104 -0.0205  1.2556  0.6929
  858MOL0     H15810   4.610   0.512   4.233 -2.5158 -2.9406 -0.8858
  858MOL0     H15811   4.548   0.480   4.080  0.9144  0.1379 -0.8427
  858MOL0     H15812   5.512   0.825   3.559  1.9421  1.9785  0.6682
  858MOL0     H15813   5.762   0.847   3.571  0.4406 -1.3364 -1.3376
  858MOL0     H15814   6.120   0.915   3.393  0.9597  1.0511  0.1453
  858MOL0     H15815   6.340   0.967   3.376 -1.5334  1.3592 -0.8350
  858MOL0     H15816   8.271   0.402   3.126  1.6906 -0.9082 -0.5555
  858MOL0     H15817   8.491   0.390   3.154  1.0641  0.9591  1.3181
  858MOL0     H15818   8.974   0.389   3.147 -0.5841  2.5309  0.6415
  858MOL0     H15819   9.194   0.421   3.232  1.0393 -0.1474  0.8368
  858MOL0     H15820   9.371   0.287   3.322  0.0375 -1.1147  0.6905
  858MOL0     H15821   9.395   0.462   3.334 -0.0587 -1.0862 -0.6032
  858MOL0     H15822   9.605   0.346   3.383  0.7259 -1.4648  2.2535
  858MOL0     H15823   9.531   0.256   3.513 -1.9947 -0.3217  0.1891
  858MOL0     H15824   9.541   0.560   3.487 -1.3969 -1.6411 -2.3350
  858MOL0     H15825   9.679   0.459   3.549  0.1389 -0.3290 -0.7973
  858MOL0     H15826   9.504   0.358   3.716  0.4930  1.1858  2.4271
  858MOL0     H15827   9.403   0.486   3.685  0.8638  2.6046  1.5189
  858MOL0     H15828   9.721   0.684   3.890  0.5112  0.5326 -0.7983
  858MOL0     H15829   9.067   0.369   3.624  1.6759  0.2518  0.1158
  858MOL0     H15830   8.841   0.368   3.562  0.9470 -0.5592  0.6929
  859MOL0     O15831   6.605   7.230   9.622 -0.0869  0.0764 -0.5123
  859MOL0     C15832   6.686   7.170   9.693  0.0534 -0.2629 -0.4252
  859MOL0     O15833   6.661   7.108   9.812 -0.3284  0.2471  0.2171
  859MOL0     C15834   6.530   7.098   9.850 -0.0060  0.4004  0.0963
  859MOL0     C15835   6.450   6.996   9.793 -0.4928 -0.4627 -0.1129
  859MOL0     C15836   6.320   6.972   9.842  0.4360  0.1725 -0.2168
  859MOL0     C15837   6.268   7.059   9.935  0.2996  0.0594 -1.0299
  859MOL0     O15838   6.137   7.046   9.978  0.0623  0.0604  0.0178
  859MOL0     C15839   6.060   7.162  10.022 -0.1303  0.1370  0.2776
  859MOL0     C15840   5.915   7.107  10.036 -0.7333 -0.7284  0.3530
  859MOL0     C15841   5.826   7.210  10.106  0.0651  0.3997 -1.5678
  859MOL0     C15842   5.682   7.162  10.123 -0.3998 -0.5263  1.0006
  859MOL0     C15843   5.585   7.276  10.167 -0.5834 -0.4888  0.3105
  859MOL0     C15844   5.432   7.262  10.174 -0.2812 -0.3409 -0.2555
  859MOL0     C15845   5.395   7.141  10.259 -0.3073 -0.0386  0.6842
  859MOL0     C15846   5.271   7.170  10.345 -0.1519  0.5867  0.1024
  859MOL0     N15847   5.141   7.199  10.282  0.4752 -0.2017 -0.1668
  859MOL0     C15848   5.087   7.141  10.172 -0.2436  0.1644  1.1349
  859MOL0     C15849   4.994   7.231  10.132  0.0996 -0.5560  1.0298
  859MOL0     C15850   4.926   7.218   9.998  0.0026  0.4335 -0.0760
  859MOL0     C15851   4.805   7.121  10.006  0.6705 -0.3453  0.1281
  859MOL0     C15852   4.699   7.135  10.121 -0.2595  0.6238  0.3763
  859MOL0     C15853   4.621   7.264  10.108 -1.0037 -0.5147  0.1350
  859MOL0     O15854   4.564   7.252   9.978  0.4372 -0.1398  0.5659
  859MOL0     C15855   4.462   7.335   9.949 -0.3024 -1.0246  0.4710
  859MOL0     C15856   4.449   7.475   9.988  1.1141  0.0891 -0.7644
  859MOL0     C15857   4.341   7.558   9.945  0.0701 -0.3899  0.2644
  859MOL0     C15858   4.342   7.701  10.005 -0.2945 -0.6375  0.2269
  859MOL0     C15859   4.243   7.504   9.856  0.0424 -0.7187 -0.2227
  859MOL0     C15860   4.126   7.588   9.816 -0.1988  0.6932  0.7007
  859MOL0     O15861   4.037   7.517   9.727 -0.2244  0.3121  0.1834
  859MOL0     C15862   3.929   7.579   9.675  0.0908 -0.7468  0.6622
  859MOL0     C15863   3.842   7.503   9.608  0.4463 -0.9482  0.0385
  859MOL0     C15864   3.734   7.559   9.531  0.2742 -0.1557  0.2606
  859MOL0     C15865   3.710   7.690   9.523  0.3730 -0.0090  0.8785
  859MOL0     O15866   3.609   7.733   9.443 -0.8966  0.5512  0.6536
  859MOL0     C15867   3.575   7.867   9.416 -0.5620  0.2255 -0.1947
  859MOL0     C15868   3.489   7.915   9.525 -0.0209  0.3463  0.2658
  859MOL0     C15869   3.345   7.851   9.534  0.1245  0.9575  0.7029
  859MOL0     C15870   3.273   7.846   9.397 -0.4081  0.0152 -0.5934
  859MOL0     C15871   3.137   7.910   9.387  0.0591  0.4175  0.3194
  859MOL0     C15872   3.073   7.900   9.258  0.4984 -0.3410  0.9248
  859MOL0     C15873   3.047   7.753   9.217 -0.0248  0.3325 -0.0310
  859MOL0     C15874   2.939   7.765   9.115  0.2395 -0.0388 -0.1841
  859MOL0    Cl15875   2.885   7.613   9.047  0.1468  0.0547  0.0123
  859MOL0     C15876   3.790   7.774   9.604  0.1667  0.1442  0.4916
  859MOL0     C15877   3.897   7.720   9.677 -0.9617 -0.3200 -0.2777
  859MOL0     O15878   4.092   7.677   9.885  0.3622  0.5615 -1.2817
  859MOL0     C15879   4.269   7.375   9.805  0.2901  0.1932 -0.4184
  859MOL0     C15880   4.374   7.296   9.855 -0.3228  0.0389  0.6147
  859MOL0     N15881   4.970   7.332  10.229  0.6356  0.3133  0.0889
  859MOL0     N15882   5.054   7.298  10.323  0.0049  0.0702 -0.4503
  859MOL0     C15883   6.348   7.165   9.991 -0.5699 -0.2757  0.5744
  859MOL0     C15884   6.480   7.182   9.946 -0.0388  0.1992 -0.4853
  859MOL0     C15885   6.829   7.189   9.665 -1.0276  0.2557  0.3488
  859MOL0     C15886   6.873   7.244   9.539  0.2876  0.2563  0.2697
  859MOL0     C15887   7.007   7.266   9.506  0.1654 -0.1566 -0.6807
  859MOL0     C15888   7.103   7.232   9.596 -0.4823  0.9692 -0.4633
  859MOL0     O15889   7.238   7.254   9.576 -0.2016 -0.3696 -0.1077
  859MOL0     C15890   7.280   7.340   9.474 -0.4833 -0.2808 -0.5935
  859MOL0     C15891   7.430   7.381   9.501 -0.8135  0.1482  0.1275
  859MOL0     C15892   7.543   7.273   9.466  1.1035 -0.1873 -0.0265
  859MOL0     C15893   7.680   7.335   9.466 -0.4964 -0.2128 -0.3823
  859MOL0     C15894   7.791   7.232   9.473 -0.0361 -0.4126 -0.5228
  859MOL0     C15895   7.883   7.151   9.474 -0.0808  0.2222  0.0969
  859MOL0     C15896   7.069   7.164   9.715  0.4483  0.4533 -0.4445
  859MOL0     C15897   6.936   7.149   9.751 -0.9655  0.2054 -1.3496
  859MOL0     H15898   6.487   6.934   9.713  1.2730 -0.2345  0.4888
  859MOL0     H15899   6.255   6.902   9.791 -2.0847  2.6975 -0.7491
  859MOL0     H15900   6.095   7.197  10.119  0.4248  2.7024 -0.7536
  859MOL0     H15901   6.069   7.246   9.952 -0.8815 -0.9686 -1.2144
  859MOL0     H15902   5.874   7.084   9.937 -1.0452 -4.1686  1.1667
  859MOL0     H15903   5.921   7.007  10.078  0.7484  0.6870  3.8965
  859MOL0     H15904   5.858   7.228  10.209  0.6174  0.1749 -1.6995
  859MOL0     H15905   5.837   7.302  10.048  0.6136 -0.9249 -3.7017
  859MOL0     H15906   5.646   7.135  10.023  2.6199  1.8941 -0.9504
  859MOL0     H15907   5.678   7.081  10.196  1.4088 -0.3010  1.3949
  859MOL0     H15908   5.615   7.302  10.269 -1.0205  2.5574 -0.2349
  859MOL0     H15909   5.619   7.359  10.104  1.0172 -2.0092 -0.9470
  859MOL0     H15910   5.377   7.345  10.219 -0.3703 -1.3325  1.5740
  859MOL0     H15911   5.392   7.247  10.073 -1.5259 -0.7009  0.2579
  859MOL0     H15912   5.390   7.049  10.199  2.5553 -0.1863  0.5432
  859MOL0     H15913   5.476   7.135  10.331 -0.5601  0.7696  1.0397
  859MOL0     H15914   5.307   7.250  10.411  1.9692  0.3576 -0.7292
  859MOL0     H15915   5.251   7.085  10.412  1.4046  0.9962  1.1289
  859MOL0     H15916   5.120   7.065  10.102  1.3981  2.5764 -0.8837
  859MOL0     H15917   4.895   7.317   9.961 -0.3160  0.9379  1.4879
  859MOL0     H15918   4.998   7.171   9.931  3.1868  0.0334  3.3215
  859MOL0     H15919   4.842   7.019  10.014 -1.0544 -1.0600 -0.5970
  859MOL0     H15920   4.746   7.118   9.914 -1.0225 -0.1399  1.1657
  859MOL0     H15921   4.736   7.129  10.223  0.6030 -0.3061  0.0196
  859MOL0     H15922   4.621   7.060  10.103  0.0145  0.5317 -0.4629
  859MOL0     H15923   4.681   7.351  10.136  0.1660 -1.9005  2.2054
  859MOL0     H15924   4.539   7.270  10.181 -0.4822  1.8288  0.6222
  859MOL0     H15925   4.530   7.513  10.050 -0.2344 -0.3264  1.3865
  859MOL0     H15926   4.435   7.708  10.063 -0.3977 -2.8009  0.7366
  859MOL0     H15927   4.342   7.774   9.923  0.3237 -0.3645  0.4626
  859MOL0     H15928   4.261   7.720  10.075 -1.7361 -0.0846 -1.5117
  859MOL0     H15929   3.845   7.394   9.600  1.5723 -0.9285 -0.0267
  859MOL0     H15930   3.671   7.494   9.472  1.1742  0.3696 -1.3443
  859MOL0     H15931   3.667   7.926   9.412  1.4512 -2.7664 -2.4673
  859MOL0     H15932   3.525   7.877   9.319 -2.3870  1.3618  0.8015
  859MOL0     H15933   3.535   7.903   9.624 -0.9190 -1.9974  0.4603
  859MOL0     H15934   3.472   8.022   9.510 -0.6971  0.0939 -0.9108
  859MOL0     H15935   3.284   7.915   9.597 -0.4728  0.3191  0.7908
  859MOL0     H15936   3.344   7.753   9.584 -1.3868  1.4571  1.7086
  859MOL0     H15937   3.329   7.899   9.320  2.7669 -0.8769  0.9198
  859MOL0     H15938   3.275   7.740   9.369  0.9912  0.1882 -1.1859
  859MOL0     H15939   3.134   8.015   9.418  0.4772 -0.2035  2.6842
  859MOL0     H15940   3.074   7.847   9.452 -1.6420  0.8750 -0.8301
  859MOL0     H15941   2.981   7.960   9.259  1.2637  0.8489  0.9631
  859MOL0     H15942   3.143   7.941   9.184  1.7081 -1.3268  1.5018
  859MOL0     H15943   3.010   7.696   9.302 -3.7423  0.4386 -1.3824
  859MOL0     H15944   3.138   7.710   9.174  0.5369 -0.3992  1.7801
  859MOL0     H15945   2.969   7.819   9.024  0.6972 -0.6968 -0.4358
  859MOL0     H15946   2.858   7.821   9.161  0.4857  1.7200 -1.7638
  859MOL0     H15947   3.791   7.882   9.598 -1.1201  0.1494 -0.0462
  859MOL0     H15948   3.966   7.788   9.725 -0.6853 -0.1401 -0.9219
  859MOL0     H15949   4.216   7.332   9.720 -0.6299  1.0275 -0.2805
  859MOL0     H15950   4.394   7.199   9.810 -1.1494  0.0443  0.2264
  859MOL0     H15951   6.299   7.235  10.057 -0.2454  0.1447  0.3792
  859MOL0     H15952   6.536   7.256  10.003 -0.7431 -0.0571  0.5632
  859MOL0     H15953   6.797   7.271   9.466 -0.4464 -0.8672  0.5996
  859MOL0     H15954   7.050   7.293   9.411  0.7239 -1.4166 -0.8111
  859MOL0     H15955   7.263   7.291   9.377 -2.6121  3.1934 -2.1494
  859MOL0     H15956   7.217   7.429   9.480 -1.6620 -1.1791  3.0804
  859MOL0     H15957   7.443   7.423   9.601  0.5748  1.3469 -0.5239
  859MOL0     H15958   7.453   7.466   9.437 -0.8637  1.0039  1.2235
  859MOL0     H15959   7.517   7.238   9.365 -1.0290  0.3553  0.2799
  859MOL0     H15960   7.542   7.189   9.536  2.5528 -0.6407 -0.5130
  859MOL0     H15961   7.692   7.410   9.545  0.1018  1.9137 -2.3663
  859MOL0     H15962   7.693   7.390   9.372 -1.6500 -1.9744 -1.6211
  859MOL0     H15963   7.971   7.091   9.460  0.1774  0.6085  0.0203
  859MOL0     H15964   7.148   7.146   9.787  0.6967  3.8075  0.2635
  859MOL0     H15965   6.916   7.103   9.847 -1.7717  0.4201 -1.4065
  860MOL0     O15966   0.153  10.982   2.714 -0.1530 -0.7986 -0.7263
  860MOL0     C15967   0.186  11.050   2.612 -0.0589  1.1551  0.2125
  860MOL0     O15968   0.314  11.086   2.575 -0.3784  0.2911  0.1174
  860MOL0     C15969   0.411  11.117   2.667 -0.0979 -0.6714 -0.0543
  860MOL0     C15970   0.544  11.106   2.624 -0.1260  0.5924  0.0840
  860MOL0     C15971   0.650  11.146   2.712  0.5950 -0.1403  0.9015
  860MOL0     C15972   0.627  11.185   2.850 -0.2691 -0.4970  0.0414
  860MOL0     O15973   0.722  11.234   2.937  0.2649  0.1535 -0.3008
  860MOL0     C15974   0.857  11.253   2.891 -0.3613 -0.4315 -0.9218
  860MOL0     C15975   0.948  11.333   2.985  0.8635  0.0017  1.0131
  860MOL0     C15976   0.897  11.478   2.989 -0.2084 -0.1974  0.9252
  860MOL0     C15977   0.970  11.572   3.087 -0.6350 -0.2637  0.1044
  860MOL0     C15978   1.123  11.595   3.066  0.2039 -0.2062  0.4459
  860MOL0     C15979   1.166  11.699   3.156  0.8257 -0.2910  0.3776
  860MOL0     C15980   1.318  11.731   3.129 -0.0351  0.4083 -0.3282
  860MOL0     C15981   1.363  11.861   3.198  0.3591 -0.5709  0.1533
  860MOL0     N15982   1.275  11.973   3.165 -0.1110  0.0248  0.2525
  860MOL0     C15983   1.275  12.045   3.046  0.4924 -0.3145  0.1491
  860MOL0     C15984   1.176  12.138   3.056  0.0470  0.3725 -0.2260
  860MOL0     C15985   1.146  12.233   2.945 -0.4925 -0.1166  0.1010
  860MOL0     C15986   1.018  12.202   2.872 -0.2336 -0.8105  0.3095
  860MOL0     C15987   0.898  12.175   2.969  0.9209 -0.0101 -0.5334
  860MOL0     C15988   0.772  12.190   2.898 -0.1252 -0.0016 -0.1748
  860MOL0     O15989   0.666  12.168   2.987  0.1541  0.5131 -0.2823
  860MOL0     C15990   0.537  12.159   2.941  0.9124  1.0725  0.2441
  860MOL0     C15991   0.498  12.153   2.807  0.2263  0.1030 -1.1492
  860MOL0     C15992   0.362  12.120   2.763 -0.1515 -0.2633  0.8706
  860MOL0     C15993   0.338  12.138   2.608  0.4241  0.3805 -0.3969
  860MOL0     C15994   0.266  12.099   2.861  0.0329 -0.1447 -0.0352
  860MOL0     C15995   0.127  12.080   2.837  0.2147  0.5018  0.4376
  860MOL0     O15996   0.034  12.142   2.915 -0.2872  0.9192  0.5226
  860MOL0     C15997  -0.086  12.084   2.913  0.0324  0.5521  0.2773
  860MOL0     C15998  -0.187  12.155   2.850 -0.1337  0.7670  0.1307
  860MOL0     C15999  -0.314  12.089   2.841 -0.0793 -0.1624 -0.1281
  860MOL0     C16000  -0.339  11.964   2.900 -1.1643 -0.1055 -0.2745
  860MOL0     O16001  -0.462  11.913   2.896  0.6228  0.1469 -0.2886
  860MOL0     C16002  -0.572  12.015   2.901 -0.3043 -0.3241 -0.2380
  860MOL0     C16003  -0.702  11.942   2.934  0.4693  0.8059  0.6891
  860MOL0     C16004  -0.818  12.038   2.898 -0.3512  0.3237  0.0716
  860MOL0     C16005  -0.946  11.952   2.923 -0.0073  0.5358 -0.4328
  860MOL0     C16006  -1.069  12.021   2.852  0.2135  0.2502 -0.0928
  860MOL0     C16007  -1.198  11.950   2.882  0.2804  0.6554  0.0026
  860MOL0     C16008  -1.324  12.005   2.813 -0.4225 -0.0118  0.1195
  860MOL0     C16009  -1.447  11.920   2.835  0.0669  0.0950 -0.6056
  860MOL0    Cl16010  -1.580  11.990   2.743  0.0212 -0.3199 -0.0580
  860MOL0     C16011  -0.231  11.900   2.963  0.1020 -0.1713 -0.1456
  860MOL0     C16012  -0.110  11.966   2.975  0.6096  0.1654 -0.6783
  860MOL0     O16013   0.103  12.024   2.731  0.4181  0.2888  0.3183
  860MOL0     C16014   0.300  12.093   2.998  0.4851 -0.4846 -1.0476
  860MOL0     C16015   0.437  12.116   3.033  0.0621 -0.2029 -0.3657
  860MOL0     N16016   1.120  12.121   3.178 -0.2373 -0.2574 -0.2605
  860MOL0     N16017   1.180  12.027   3.252 -0.4443  0.0341  0.7808
  860MOL0     C16018   0.489  11.199   2.884 -0.1167  0.4595  0.8810
  860MOL0     C16019   0.383  11.158   2.796 -0.2142 -1.0432 -0.5688
  860MOL0     C16020   0.071  11.080   2.525  0.0267 -0.1383  0.1638
  860MOL0     C16021  -0.060  11.062   2.566 -0.1590 -0.5107 -0.5743
  860MOL0     C16022  -0.170  11.084   2.488  0.6275 -1.1452 -0.3329
  860MOL0     C16023  -0.154  11.126   2.351 -0.2096  0.0915 -0.2940
  860MOL0     O16024  -0.266  11.146   2.272 -0.0043 -0.4109  0.1428
  860MOL0     C16025  -0.304  11.030   2.211  0.2716 -0.2589 -0.2919
  860MOL0     C16026  -0.440  11.060   2.149  0.7862  0.1970  0.6150
  860MOL0     C16027  -0.556  11.018   2.250 -0.3102 -0.1377  0.5873
  860MOL0     C16028  -0.695  11.062   2.206  0.0629 -1.2576  0.6249
  860MOL0     C16029  -0.802  10.999   2.284  0.3558  0.1444 -0.7259
  860MOL0     C16030  -0.892  10.944   2.336 -0.4321  0.3608 -0.0160
  860MOL0     C16031  -0.024  11.146   2.306  0.0990  0.1924 -0.1210
  860MOL0     C16032   0.080  11.107   2.390  0.0207  0.2158 -0.0031
  860MOL0     H16033   0.553  11.081   2.519 -2.1788 -0.8759  0.1913
  860MOL0     H16034   0.752  11.158   2.677  0.1668  2.0575  0.2436
  860MOL0     H16035   0.909  11.157   2.883  0.4786 -0.2624  1.5999
  860MOL0     H16036   0.858  11.304   2.794 -0.3880  2.1617  0.3687
  860MOL0     H16037   0.928  11.294   3.085 -3.5532  1.9752  1.1346
  860MOL0     H16038   1.051  11.324   2.950  0.1912 -1.4778 -0.8123
  860MOL0     H16039   0.920  11.531   2.896 -2.5272 -1.9920 -0.7778
  860MOL0     H16040   0.791  11.492   3.010  0.2577  4.0438  1.3871
  860MOL0     H16041   0.921  11.670   3.085 -1.6326 -0.7475 -1.1350
  860MOL0     H16042   0.948  11.537   3.188 -1.1354  2.4312  1.0102
  860MOL0     H16043   1.179  11.508   3.102  1.5085  1.8873  3.9000
  860MOL0     H16044   1.134  11.611   2.958  0.7190 -1.1424  0.3514
  860MOL0     H16045   1.110  11.791   3.135 -1.1617 -1.8258 -1.5633
  860MOL0     H16046   1.145  11.655   3.254 -2.6067 -3.3490 -1.4399
  860MOL0     H16047   1.373  11.642   3.160 -0.2723  0.7579  1.1843
  860MOL0     H16048   1.336  11.746   3.022 -1.8103 -0.1011 -0.7400
  860MOL0     H16049   1.463  11.888   3.162  0.6537 -0.4019  1.0592
  860MOL0     H16050   1.374  11.838   3.305  2.0503  0.8300  0.3338
  860MOL0     H16051   1.327  12.019   2.955 -2.2490  0.3055 -1.7171
  860MOL0     H16052   1.129  12.333   2.985 -3.2370 -0.4783  0.0352
  860MOL0     H16053   1.229  12.228   2.874  0.2404 -2.1399  1.0082
  860MOL0     H16054   1.034  12.120   2.802 -0.2820 -0.2751 -0.3480
  860MOL0     H16055   0.995  12.296   2.821 -1.7808 -1.4600 -0.2484
  860MOL0     H16056   0.906  12.251   3.047  1.1572 -0.8648  0.2924
  860MOL0     H16057   0.906  12.078   3.019 -0.6735 -0.0827 -0.3569
  860MOL0     H16058   0.761  12.128   2.808 -0.4999  1.9346 -1.5145
  860MOL0     H16059   0.762  12.294   2.867 -1.1721  0.8045  2.6539
  860MOL0     H16060   0.570  12.165   2.726 -3.7168  2.4474 -4.7671
  860MOL0     H16061   0.259  12.210   2.584 -1.6969 -1.7339 -0.2082
  860MOL0     H16062   0.432  12.171   2.564 -0.4241  1.7356 -1.2661
  860MOL0     H16063   0.305  12.045   2.559 -1.3082  1.2301 -0.9220
  860MOL0     H16064  -0.159  12.245   2.796  2.0895 -0.9670 -1.8421
  860MOL0     H16065  -0.388  12.130   2.773  0.2001 -0.7528 -0.7938
  860MOL0     H16066  -0.545  12.087   2.979 -0.5290 -0.0978 -0.3659
  860MOL0     H16067  -0.579  12.077   2.812  1.5321 -0.3784 -0.4435
  860MOL0     H16068  -0.706  11.849   2.877  2.0495  0.7043  0.6830
  860MOL0     H16069  -0.704  11.912   3.039  0.0088 -2.8811 -0.2465
  860MOL0     H16070  -0.822  12.066   2.793 -1.3548  1.1892  0.3124
  860MOL0     H16071  -0.821  12.120   2.970  2.6552 -0.1441  0.8544
  860MOL0     H16072  -0.942  11.843   2.909  1.5493  0.5306 -0.0981
  860MOL0     H16073  -0.965  11.959   3.030  0.2456 -4.3831  0.1900
  860MOL0     H16074  -1.054  12.003   2.746 -2.0807 -3.2526 -0.0028
  860MOL0     H16075  -1.075  12.128   2.876  0.4988  1.0203 -3.1140
  860MOL0     H16076  -1.190  11.845   2.855 -0.2549  1.2135 -2.6653
  860MOL0     H16077  -1.205  11.968   2.990  1.5204 -0.9022  0.3769
  860MOL0     H16078  -1.296  12.019   2.709  3.6296 -1.1162  0.8690
  860MOL0     H16079  -1.334  12.105   2.855 -2.3309 -0.5613  1.1133
  860MOL0     H16080  -1.468  11.914   2.942  0.2655  0.7509 -0.5259
  860MOL0     H16081  -1.427  11.816   2.810 -0.8850 -0.6384  1.4286
  860MOL0     H16082  -0.246  11.806   3.015  1.1089  0.1244  0.7120
  860MOL0     H16083  -0.031  11.916   3.030 -0.9233  1.4787  3.0215
  860MOL0     H16084   0.227  12.069   3.075  1.2637  3.2905  1.1213
  860MOL0     H16085   0.477  12.109   3.134  1.7869 -2.7307 -1.1075
  860MOL0     H16086   0.447  11.227   2.980 -5.0960 -0.8025 -0.6728
  860MOL0     H16087   0.282  11.160   2.834 -0.0068 -2.3866  0.1204
  860MOL0     H16088  -0.080  11.019   2.664  0.8244  0.3915  0.0444
  860MOL0     H16089  -0.268  11.062   2.529  0.3078 -0.0860 -0.5012
  860MOL0     H16090  -0.229  11.012   2.133 -0.9282  0.6476 -1.6955
  860MOL0     H16091  -0.321  10.950   2.283 -3.1327 -1.0659 -1.8240
  860MOL0     H16092  -0.456  11.013   2.052 -1.5938 -1.1379  1.5634
  860MOL0     H16093  -0.450  11.169   2.137  1.4982  0.4407  2.0679
  860MOL0     H16094  -0.529  11.058   2.349 -0.2927 -2.0961  1.4062
  860MOL0     H16095  -0.552  10.910   2.264 -1.2562 -0.2987 -0.2601
  860MOL0     H16096  -0.724  11.042   2.102 -0.0776  0.5295  0.2951
  860MOL0     H16097  -0.698  11.170   2.220  0.4262 -1.0902 -0.4837
  860MOL0     H16098  -0.975  10.900   2.388 -2.1686  3.6164  0.2380
  860MOL0     H16099  -0.007  11.157   2.200  0.4087  0.8569 -0.0050
  860MOL0     H16100   0.178  11.113   2.344 -0.5464  2.9474 -1.0376
  861MOL0     O16101   7.826   6.558   3.407  0.4460  0.5784 -0.1036
  861MOL0     C16102   7.887   6.658   3.419 -0.0249 -0.1029 -0.6419
  861MOL0     O16103   7.834   6.779   3.453 -0.2041 -0.4445 -0.4623
  861MOL0     C16104   7.697   6.797   3.460 -0.5571 -0.5560 -0.2554
  861MOL0     C16105   7.623   6.848   3.349  0.0567  0.1922  0.1666
  861MOL0     C16106   7.492   6.866   3.357  0.3082 -0.8602 -0.0523
  861MOL0     C16107   7.425   6.846   3.475  0.4293 -0.3388 -0.6525
  861MOL0     O16108   7.288   6.848   3.458 -0.1471 -0.6974 -0.3228
  861MOL0     C16109   7.216   6.772   3.550  0.3537  0.4046 -0.3750
  861MOL0     C16110   7.078   6.744   3.492  0.8545  0.2977  0.2011
  861MOL0     C16111   6.989   6.868   3.503  0.4490  0.8273  0.3924
  861MOL0     C16112   6.857   6.846   3.421 -0.1367  0.3860 -0.7076
  861MOL0     C16113   6.761   6.971   3.431  0.6492 -0.6324 -0.1004
  861MOL0     C16114   6.648   6.959   3.335 -0.1545  0.6923  0.6283
  861MOL0     C16115   6.576   7.085   3.307 -0.2400 -0.4743  0.3355
  861MOL0     C16116   6.480   7.076   3.198  0.8038 -0.3398  0.7768
  861MOL0     N16117   6.407   7.200   3.201  0.6681 -0.0564  0.5945
  861MOL0     C16118   6.441   7.312   3.119  0.7423 -0.0756 -0.3207
  861MOL0     C16119   6.335   7.399   3.154  0.0594 -0.0689  0.5010
  861MOL0     C16120   6.325   7.547   3.132  0.0014 -0.1363  0.1529
  861MOL0     C16121   6.203   7.598   3.052 -0.2978 -0.0587  0.6202
  861MOL0     C16122   6.218   7.542   2.913  0.3028  0.0424 -0.5320
  861MOL0     C16123   6.112   7.591   2.818  0.0026  0.1233 -0.9708
  861MOL0     O16124   5.981   7.563   2.866 -0.0847  1.1384 -0.0721
  861MOL0     C16125   5.881   7.594   2.786 -0.2219 -0.7019  0.3901
  861MOL0     C16126   5.761   7.529   2.812 -0.1091 -0.4147 -0.0472
  861MOL0     C16127   5.643   7.557   2.738 -0.4681  0.3902  0.9152
  861MOL0     C16128   5.525   7.468   2.771  0.2771  0.0625  0.0854
  861MOL0     C16129   5.646   7.656   2.644 -0.0405  0.2702 -0.1462
  861MOL0     C16130   5.532   7.680   2.555  0.1001  0.0091  0.6536
  861MOL0     O16131   5.518   7.806   2.490 -0.4799 -0.1973 -0.0860
  861MOL0     C16132   5.392   7.838   2.445 -0.0999 -0.0129 -0.7150
  861MOL0     C16133   5.372   7.889   2.321 -0.2407  0.2434  0.5568
  861MOL0     C16134   5.249   7.926   2.278  0.1898 -0.1686 -0.1247
  861MOL0     C16135   5.128   7.914   2.357  0.3545 -0.3387 -0.1744
  861MOL0     O16136   5.008   7.946   2.290 -0.3112  0.0711  0.3411
  861MOL0     C16137   4.890   7.963   2.365  0.2099 -0.2314 -0.0785
  861MOL0     C16138   4.807   7.837   2.361 -0.1348  0.3287  0.1204
  861MOL0     C16139   4.658   7.864   2.386  0.0806  0.0479  1.1661
  861MOL0     C16140   4.573   7.766   2.309  0.3013  0.5545  0.1243
  861MOL0     C16141   4.418   7.790   2.316 -0.3744 -0.1883  0.8029
  861MOL0     C16142   4.364   7.908   2.219 -0.0478 -0.8010 -0.3217
  861MOL0     C16143   4.370   7.865   2.075  0.1905  0.4093  0.1693
  861MOL0     C16144   4.250   7.904   1.984 -0.0116 -0.5514 -0.6663
  861MOL0    Cl16145   4.261   8.079   1.959 -0.2454  0.1257  0.1912
  861MOL0     C16146   5.151   7.860   2.488 -0.4005  0.3993 -0.0867
  861MOL0     C16147   5.284   7.822   2.527  0.5508 -0.9135  0.1566
  861MOL0     O16148   5.450   7.587   2.543 -0.2963  0.1832 -0.1010
  861MOL0     C16149   5.765   7.725   2.615 -1.6182 -0.4616  0.1197
  861MOL0     C16150   5.877   7.696   2.683 -0.0522  0.2158 -0.4034
  861MOL0     N16151   6.236   7.334   3.232  0.4334 -0.0712  0.1136
  861MOL0     N16152   6.283   7.218   3.266 -0.2122  0.5815 -0.1257
  861MOL0     C16153   7.491   6.805   3.588 -0.7044 -0.2499  0.4099
  861MOL0     C16154   7.629   6.781   3.579  0.4813 -0.8532  0.2032
  861MOL0     C16155   8.032   6.658   3.399 -0.0703  1.1141 -0.1392
  861MOL0     C16156   8.082   6.570   3.305  0.0351 -0.1193 -0.3238
  861MOL0     C16157   8.223   6.571   3.276 -0.4848  0.1545  0.0978
  861MOL0     C16158   8.311   6.648   3.352 -0.1869  0.1433 -0.0566
  861MOL0     O16159   8.446   6.651   3.336 -0.6623  0.9318 -0.6111
  861MOL0     C16160   8.515   6.525   3.308  0.3944  0.5576 -0.0630
  861MOL0     C16161   8.661   6.578   3.311 -0.8766  0.0916  0.4478
  861MOL0     C16162   8.703   6.661   3.448  0.0961  0.1412 -0.4801
  861MOL0     C16163   8.846   6.686   3.433  0.0160 -0.6735  0.7883
  861MOL0     C16164   8.892   6.751   3.553 -0.2587 -0.0699  0.1677
  861MOL0     C16165   8.926   6.799   3.663 -0.2374 -0.4848  0.3400
  861MOL0     C16166   8.265   6.720   3.458  0.3710  0.1059 -0.6104
  861MOL0     C16167   8.127   6.729   3.481 -0.1431  0.2995  0.4527
  861MOL0     H16168   7.681   6.851   3.257 -1.7213 -0.9711 -1.0462
  861MOL0     H16169   7.426   6.894   3.276 -0.6381 -1.0702  0.6265
  861MOL0     H16170   7.270   6.680   3.573 -1.7057 -0.4504  1.4361
  861MOL0     H16171   7.194   6.822   3.645 -2.0597 -0.3453 -0.4891
  861MOL0     H16172   7.098   6.711   3.389  0.0423  0.7366 -0.0972
  861MOL0     H16173   7.030   6.667   3.553  0.0091  0.8746  0.2717
  861MOL0     H16174   6.972   6.895   3.608  1.1863  0.8641  0.5119
  861MOL0     H16175   7.047   6.954   3.468  2.2627  0.5003  2.3673
  861MOL0     H16176   6.880   6.822   3.317  0.7237 -1.6847 -0.0991
  861MOL0     H16177   6.805   6.757   3.458  2.6248 -1.5883 -1.2149
  861MOL0     H16178   6.730   6.990   3.534  0.3346  1.4058 -0.5318
  861MOL0     H16179   6.825   7.057   3.411 -0.2860 -0.1625 -1.1481
  861MOL0     H16180   6.677   6.906   3.244  0.0077  0.7789  0.6285
  861MOL0     H16181   6.569   6.899   3.380 -1.6989  1.9290 -0.3299
  861MOL0     H16182   6.519   7.104   3.399  0.6886  0.8107  0.6700
  861MOL0     H16183   6.653   7.161   3.298 -1.0224  0.2951 -0.0512
  861MOL0     H16184   6.405   6.998   3.215  0.2664 -0.6069 -2.2535
  861MOL0     H16185   6.531   7.045   3.106  2.0852  1.7232  0.7346
  861MOL0     H16186   6.525   7.334   3.054 -1.2979  0.8092 -2.8227
  861MOL0     H16187   6.317   7.580   3.236  0.5819 -2.1374  0.8885
  861MOL0     H16188   6.412   7.603   3.098  0.0902  2.5153  4.0495
  861MOL0     H16189   6.209   7.707   3.045  3.2268 -0.0883  1.2807
  861MOL0     H16190   6.111   7.559   3.097  0.6663 -1.3040  1.6099
  861MOL0     H16191   6.206   7.433   2.915  0.9904 -0.0203  1.1872
  861MOL0     H16192   6.318   7.557   2.873  0.2355 -0.1579 -0.7847
  861MOL0     H16193   6.126   7.551   2.717  2.5056  0.1247 -0.6934
  861MOL0     H16194   6.129   7.699   2.813 -0.4577  0.2542  0.1388
  861MOL0     H16195   5.758   7.453   2.889  0.7806  0.5243  0.9579
  861MOL0     H16196   5.527   7.390   2.695  0.0318 -0.7741  0.9105
  861MOL0     H16197   5.539   7.428   2.872  0.4889 -0.2520 -0.0644
  861MOL0     H16198   5.428   7.518   2.770  1.0599  1.6633 -1.9866
  861MOL0     H16199   5.456   7.894   2.252 -1.7217 -0.5121 -1.3708
  861MOL0     H16200   5.241   7.961   2.175  1.2058  1.9704  0.4469
  861MOL0     H16201   4.914   7.991   2.468  0.3288  3.9358 -1.0934
  861MOL0     H16202   4.832   8.045   2.323 -2.2995 -0.2727  2.9815
  861MOL0     H16203   4.815   7.788   2.264 -1.7216 -1.2909  0.7588
  861MOL0     H16204   4.846   7.762   2.430 -1.9682  0.4545  1.3618
  861MOL0     H16205   4.634   7.963   2.348  1.8393 -0.5058 -1.6762
  861MOL0     H16206   4.639   7.869   2.494  0.5499  1.4404  1.1920
  861MOL0     H16207   4.610   7.760   2.206 -0.2990 -0.3791 -0.0452
  861MOL0     H16208   4.593   7.668   2.352  1.3000 -0.9436 -3.4039
  861MOL0     H16209   4.402   7.811   2.422  1.8684  0.2049  1.1167
  861MOL0     H16210   4.371   7.694   2.291 -3.6765  1.1730  1.3928
  861MOL0     H16211   4.259   7.936   2.235 -0.4620 -1.1389 -2.2711
  861MOL0     H16212   4.426   7.996   2.237 -0.3563 -0.9024  1.4162
  861MOL0     H16213   4.388   7.758   2.058  1.6633  1.0139 -2.8701
  861MOL0     H16214   4.460   7.916   2.039 -0.2259  1.1230  0.1249
  861MOL0     H16215   4.156   7.861   2.019  0.1919 -0.6739 -0.2569
  861MOL0     H16216   4.260   7.867   1.881 -0.9057  0.3824 -1.1002
  861MOL0     H16217   5.070   7.837   2.556 -1.8930  2.6673 -1.0034
  861MOL0     H16218   5.294   7.785   2.628  1.1728 -0.5457  0.2342
  861MOL0     H16219   5.772   7.801   2.537 -1.6131 -0.1964  0.3759
  861MOL0     H16220   5.965   7.753   2.654 -1.1094  0.0481 -4.5215
  861MOL0     H16221   7.438   6.788   3.681  0.1252 -2.9325  0.4691
  861MOL0     H16222   7.690   6.747   3.663  0.4048 -0.1766  0.5393
  861MOL0     H16223   8.023   6.510   3.236  2.9396 -3.4946 -0.1492
  861MOL0     H16224   8.256   6.510   3.193 -0.7020  2.9370 -2.1772
  861MOL0     H16225   8.504   6.447   3.383 -0.5746  1.7773  1.1180
  861MOL0     H16226   8.481   6.483   3.213 -2.1322 -0.3768  1.1603
  861MOL0     H16227   8.686   6.643   3.226  0.9409 -0.7961  0.2575
  861MOL0     H16228   8.730   6.493   3.307 -2.7969 -1.4897 -0.4626
  861MOL0     H16229   8.689   6.596   3.535 -0.6177 -1.8419 -2.0174
  861MOL0     H16230   8.655   6.758   3.464  0.7991  0.4924 -0.4401
  861MOL0     H16231   8.868   6.745   3.344 -0.3129 -1.9394 -0.1495
  861MOL0     H16232   8.901   6.592   3.432  1.2810 -0.0052  2.4811
  861MOL0     H16233   8.950   6.845   3.756  1.3144  1.6638 -1.0147
  861MOL0     H16234   8.339   6.777   3.512 -0.9377 -0.4938  1.9694
  861MOL0     H16235   8.080   6.784   3.562  0.7555 -0.1771  1.3133
  862MOL0     O16236   7.434   5.443   4.990  0.0086 -0.2415  0.5415
  862MOL0     C16237   7.451   5.353   5.078  0.3324  0.0004  0.0734
  862MOL0     O16238   7.361   5.313   5.172 -0.4906 -0.7458  0.6015
  862MOL0     C16239   7.235   5.384   5.188  0.6821  1.0020 -0.2820
  862MOL0     C16240   7.151   5.424   5.077  0.2092 -0.0299 -0.4021
  862MOL0     C16241   7.052   5.514   5.103 -0.1001  0.8239 -0.8399
  862MOL0     C16242   7.041   5.569   5.225  1.1373  0.0227 -1.4685
  862MOL0     O16243   6.926   5.655   5.241  0.3968 -1.3942  0.0820
  862MOL0     C16244   6.876   5.687   5.370  0.2640  0.2482 -0.3404
  862MOL0     C16245   6.746   5.767   5.375 -0.1761 -0.2696  0.2620
  862MOL0     C16246   6.701   5.801   5.522 -0.0132  0.2413 -0.1213
  862MOL0     C16247   6.544   5.821   5.515 -1.1173 -0.1274 -0.8892
  862MOL0     C16248   6.490   5.869   5.660 -0.3961 -0.0856  1.0473
  862MOL0     C16249   6.340   5.891   5.642  0.6032 -0.7166 -0.2929
  862MOL0     C16250   6.279   5.946   5.776 -0.0737  0.4507  1.3159
  862MOL0     C16251   6.169   6.052   5.751 -0.2786 -0.4963  0.2211
  862MOL0     N16252   6.076   6.065   5.857  0.6502 -0.4399 -0.0766
  862MOL0     C16253   6.107   6.101   5.989 -0.2185  0.9721  0.1387
  862MOL0     C16254   5.988   6.094   6.056 -1.4102  0.5914  0.0366
  862MOL0     C16255   5.970   6.109   6.199 -0.1757  0.8385 -0.7744
  862MOL0     C16256   5.900   5.988   6.264 -0.0630  0.0959  0.1927
  862MOL0     C16257   5.974   5.862   6.210 -0.7687  1.2655 -0.0925
  862MOL0     C16258   5.938   5.740   6.301 -0.0245 -1.4125  0.2094
  862MOL0     O16259   5.795   5.736   6.309  0.2225  0.1728  0.3903
  862MOL0     C16260   5.742   5.643   6.403 -0.0141 -0.2006 -0.4656
  862MOL0     C16261   5.606   5.633   6.406  0.2952  0.4294  0.1122
  862MOL0     C16262   5.534   5.539   6.474 -0.0346  0.5574 -0.3213
  862MOL0     C16263   5.378   5.529   6.441 -0.4432 -0.7867 -0.9486
  862MOL0     C16264   5.607   5.451   6.560 -0.3687 -0.6411 -0.1601
  862MOL0     C16265   5.533   5.365   6.656 -0.0371 -0.2927 -0.4455
  862MOL0     O16266   5.612   5.297   6.735 -0.2384 -0.1406 -0.1394
  862MOL0     C16267   5.574   5.206   6.833 -0.0894  0.7242 -0.4024
  862MOL0     C16268   5.521   5.247   6.957 -0.0456  0.8896 -0.0809
  862MOL0     C16269   5.477   5.147   7.046 -0.9978  0.7087  0.6868
  862MOL0     C16270   5.465   5.009   7.001  0.8041  0.0296 -1.0395
  862MOL0     O16271   5.407   4.915   7.088 -0.4944  0.0230  0.3433
  862MOL0     C16272   5.432   4.773   7.089  0.1899  0.0841 -0.5560
  862MOL0     C16273   5.329   4.704   7.010  0.7407  0.1219  0.0416
  862MOL0     C16274   5.201   4.711   7.081 -0.1324  1.0092 -0.3831
  862MOL0     C16275   5.118   4.830   7.054  0.4435 -0.2394  0.6932
  862MOL0     C16276   4.999   4.836   7.149 -0.3304 -1.5612  0.1350
  862MOL0     C16277   4.895   4.937   7.092  0.3220 -0.3629  0.2810
  862MOL0     C16278   4.777   4.954   7.180  1.6117  0.5237  0.9963
  862MOL0     C16279   4.659   5.036   7.116 -0.7083 -0.3779  0.3871
  862MOL0    Cl16280   4.518   5.032   7.224 -0.4461  0.4726  0.0103
  862MOL0     C16281   5.516   4.971   6.875  0.0279  0.0108 -0.3990
  862MOL0     C16282   5.556   5.071   6.788 -0.2753 -0.4780 -0.4461
  862MOL0     O16283   5.407   5.355   6.655 -0.0678 -0.2924 -0.6449
  862MOL0     C16284   5.751   5.471   6.569  0.1289 -0.0779  0.7483
  862MOL0     C16285   5.817   5.559   6.487  0.3254  0.3261  0.2529
  862MOL0     N16286   5.887   6.080   5.965  0.4960 -0.2825 -0.2138
  862MOL0     N16287   5.940   6.074   5.851  0.3356  0.0202 -0.4275
  862MOL0     C16288   7.123   5.537   5.334  0.1042 -0.0297  0.4954
  862MOL0     C16289   7.218   5.439   5.313 -0.0879 -0.8146  0.4831
  862MOL0     C16290   7.586   5.296   5.079 -0.1576  0.6236  0.7519
  862MOL0     C16291   7.593   5.168   5.138 -0.0794  0.5508  0.5438
  862MOL0     C16292   7.712   5.100   5.146 -0.3528  0.5102  0.4436
  862MOL0     C16293   7.826   5.137   5.073  0.8414  0.3652 -1.3751
  862MOL0     O16294   7.934   5.053   5.092  0.3457 -0.1781  0.2677
  862MOL0     C16295   8.053   5.099   5.036  0.5894  0.1994  0.7775
  862MOL0     C16296   8.173   5.008   5.084 -0.3344  0.1515  0.3590
  862MOL0     C16297   8.317   5.041   5.035 -0.1769 -0.4371  0.3994
  862MOL0     C16298   8.310   5.045   4.889  1.2895  0.3071  0.3637
  862MOL0     C16299   8.449   5.049   4.841 -1.0572 -0.5193  0.2129
  862MOL0     C16300   8.563   5.044   4.803  0.3782  0.0458 -0.1805
  862MOL0     C16301   7.812   5.254   4.998  0.6914  0.3302 -0.3913
  862MOL0     C16302   7.697   5.332   4.997 -0.4630  0.1937 -0.6045
  862MOL0     H16303   7.164   5.385   4.976  2.1399  0.4672 -0.3903
  862MOL0     H16304   6.992   5.539   5.017 -1.9073 -0.7848 -0.1331
  862MOL0     H16305   6.853   5.595   5.425 -1.2685  1.4526  1.1143
  862MOL0     H16306   6.953   5.746   5.421  0.3268  0.3084 -0.5040
  862MOL0     H16307   6.765   5.865   5.331  2.6122  0.6683  3.1312
  862MOL0     H16308   6.665   5.710   5.329 -2.0957  1.6193  1.1731
  862MOL0     H16309   6.740   5.731   5.596 -0.9613 -0.0285  0.1359
  862MOL0     H16310   6.738   5.897   5.560  2.2953 -0.8835  0.6583
  862MOL0     H16311   6.524   5.904   5.447  1.4375  0.2512 -1.2476
  862MOL0     H16312   6.488   5.733   5.482 -0.7399  0.0321 -1.9614
  862MOL0     H16313   6.507   5.791   5.735 -4.2554 -2.7643 -0.5137
  862MOL0     H16314   6.538   5.964   5.682  0.1366  0.0459 -0.5676
  862MOL0     H16315   6.333   5.967   5.564 -0.9172 -0.3431  0.1711
  862MOL0     H16316   6.289   5.802   5.604 -0.1094  0.4517 -2.1823
  862MOL0     H16317   6.224   5.863   5.821 -0.0708 -1.4004 -1.7888
  862MOL0     H16318   6.356   5.993   5.838 -0.1265  1.8831  0.3453
  862MOL0     H16319   6.116   6.038   5.656  0.8168  0.0315 -0.4908
  862MOL0     H16320   6.224   6.145   5.733  0.1227 -0.7807 -0.0369
  862MOL0     H16321   6.208   6.092   6.028  0.0866 -3.1335 -1.0455
  862MOL0     H16322   6.066   6.125   6.248 -1.1818 -1.5450  2.3120
  862MOL0     H16323   5.922   6.203   6.228 -0.8254  0.0754  0.7404
  862MOL0     H16324   5.800   5.990   6.219  0.4318  0.1856 -0.9540
  862MOL0     H16325   5.886   5.990   6.372 -0.7016 -0.3711  0.1262
  862MOL0     H16326   6.080   5.888   6.207 -0.8788  1.6727 -0.6895
  862MOL0     H16327   5.940   5.842   6.108 -1.2273  1.3163  0.0503
  862MOL0     H16328   5.975   5.758   6.403  0.1748  1.0351 -0.2305
  862MOL0     H16329   5.973   5.642   6.266  0.4867 -1.7210  1.5175
  862MOL0     H16330   5.546   5.696   6.340 -0.9172 -0.7995 -0.0219
  862MOL0     H16331   5.344   5.575   6.347  1.1107 -0.3605 -1.3210
  862MOL0     H16332   5.334   5.430   6.459 -1.9895  0.2864  1.7141
  862MOL0     H16333   5.318   5.589   6.510 -0.4382 -0.3003 -1.3631
  862MOL0     H16334   5.530   5.351   6.985  0.5474 -0.1509  4.2238
  862MOL0     H16335   5.432   5.166   7.143  0.3154  2.4715  0.9941
  862MOL0     H16336   5.531   4.745   7.053 -0.1428 -1.5940 -0.2869
  862MOL0     H16337   5.431   4.739   7.194 -0.6733  2.1247  0.1427
  862MOL0     H16338   5.323   4.741   6.907  1.8662 -3.3467 -1.4250
  862MOL0     H16339   5.364   4.601   7.001  1.2097  0.4208 -2.4154
  862MOL0     H16340   5.209   4.696   7.189 -1.6391 -0.6222 -0.4503
  862MOL0     H16341   5.133   4.634   7.045 -0.7048  1.2991  0.0472
  862MOL0     H16342   5.177   4.921   7.067  1.0480 -0.4887 -0.2236
  862MOL0     H16343   5.084   4.816   6.951  3.4139 -0.0845 -0.3876
  862MOL0     H16344   5.031   4.873   7.247 -1.7279  0.5179 -0.1269
  862MOL0     H16345   4.945   4.743   7.169 -1.7999 -0.8490 -0.3142
  862MOL0     H16346   4.947   5.031   7.075  1.8585 -1.3147 -0.5048
  862MOL0     H16347   4.861   4.908   6.992 -1.7164  1.7601  0.2771
  862MOL0     H16348   4.800   5.002   7.275  1.5454  0.0851  1.2391
  862MOL0     H16349   4.740   4.854   7.205 -0.4341  0.8775 -0.3948
  862MOL0     H16350   4.623   4.998   7.021 -1.3790  2.7358 -0.7313
  862MOL0     H16351   4.693   5.139   7.098  1.4929 -0.8659  1.3872
  862MOL0     H16352   5.505   4.871   6.834 -1.8117  0.0253 -0.0226
  862MOL0     H16353   5.580   5.049   6.685  1.7427  0.6309 -0.2681
  862MOL0     H16354   5.821   5.410   6.627  2.5163 -1.2222 -2.9626
  862MOL0     H16355   5.925   5.559   6.482  0.4528 -1.2705  1.8970
  862MOL0     H16356   7.119   5.586   5.431  0.5578  0.5552  0.2240
  862MOL0     H16357   7.273   5.395   5.395  1.1744 -2.2780 -1.0923
  862MOL0     H16358   7.503   5.128   5.184 -0.8117  2.4833  0.9104
  862MOL0     H16359   7.739   5.012   5.204  1.5082  1.0278  0.4355
  862MOL0     H16360   8.039   5.100   4.927 -0.9124 -1.6390  0.9081
  862MOL0     H16361   8.064   5.201   5.073  1.0390  0.7588 -0.8099
  862MOL0     H16362   8.140   4.908   5.053 -1.1875  0.4406  0.2972
  862MOL0     H16363   8.176   5.018   5.192 -0.8839  0.0600  0.3856
  862MOL0     H16364   8.387   4.969   5.078  0.8614  0.6347  0.5535
  862MOL0     H16365   8.345   5.143   5.062  2.2243  0.6003 -4.7485
  862MOL0     H16366   8.254   5.135   4.860 -0.3015  0.1180  2.5109
  862MOL0     H16367   8.256   4.959   4.847  1.3988  0.4205 -0.0126
  862MOL0     H16368   8.664   5.016   4.781  0.2875 -0.2390 -0.2298
  862MOL0     H16369   7.900   5.290   4.946  1.1487 -1.2789 -0.7917
  862MOL0     H16370   7.705   5.431   4.952 -0.3428 -0.0504 -1.1299
  863MOL0     O16371  11.290   8.512   8.320 -1.0565  0.0774 -0.3981
  863MOL0     C16372  11.360   8.492   8.419  0.8723 -0.9579 -0.3920
  863MOL0     O16373  11.333   8.547   8.548 -0.1888 -0.3412 -0.4540
  863MOL0     C16374  11.215   8.607   8.584 -0.1031  0.0711 -0.0348
  863MOL0     C16375  11.083   8.569   8.538 -0.8986 -0.8550  0.9723
  863MOL0     C16376  10.968   8.619   8.582  0.0867 -0.6780 -0.4830
  863MOL0     C16377  10.976   8.718   8.689 -0.4554 -0.2844 -0.0260
  863MOL0     O16378  10.874   8.786   8.751 -0.1010  0.1753  0.4027
  863MOL0     C16379  10.736   8.739   8.753 -0.0733 -0.8285 -0.1918
  863MOL0     C16380  10.666   8.808   8.632  0.2903  0.2589 -0.0336
  863MOL0     C16381  10.686   8.955   8.620 -0.2142 -0.2251  0.3887
  863MOL0     C16382  10.578   9.013   8.520  0.1029 -0.2545  0.6606
  863MOL0     C16383  10.615   9.143   8.456 -0.3860  0.3881  0.8813
  863MOL0     C16384  10.504   9.234   8.393 -0.1180  0.0047  0.2148
  863MOL0     C16385  10.452   9.154   8.269  0.2932 -0.5387  0.6343
  863MOL0     C16386  10.324   9.210   8.207 -0.0006 -0.2814  0.1160
  863MOL0     N16387  10.201   9.151   8.261 -0.4665 -0.4079 -0.1083
  863MOL0     C16388  10.179   9.109   8.390  0.4910 -1.0454 -0.2763
  863MOL0     C16389  10.060   9.055   8.377 -0.5916  0.1202 -1.1359
  863MOL0     C16390   9.990   8.994   8.493 -0.7269  0.4069 -0.5027
  863MOL0     C16391   9.860   8.919   8.452  0.0555  0.0170  0.7540
  863MOL0     C16392   9.746   9.025   8.431 -0.2238  0.3776 -0.2407
  863MOL0     C16393   9.603   8.971   8.425  0.2545 -0.9641 -0.0669
  863MOL0     O16394   9.600   8.874   8.319 -0.4315 -0.1009 -0.1150
  863MOL0     C16395   9.479   8.833   8.287  0.7559  0.0938 -0.5312
  863MOL0     C16396   9.414   8.771   8.395 -0.8689  0.6694  0.3955
  863MOL0     C16397   9.277   8.741   8.387  0.6696  0.1815 -0.0075
  863MOL0     C16398   9.212   8.672   8.508  0.3350 -0.1677  0.6630
  863MOL0     C16399   9.204   8.783   8.270  0.2712 -0.5431  0.0018
  863MOL0     C16400   9.062   8.765   8.242  0.6802  0.1171 -0.0576
  863MOL0     O16401   9.008   8.790   8.111  0.3666 -0.0245  0.0919
  863MOL0     C16402   8.871   8.809   8.075 -0.4250 -0.0856  0.0606
  863MOL0     C16403   8.770   8.742   8.140  1.6449 -0.3383 -0.2439
  863MOL0     C16404   8.638   8.775   8.111  1.1177 -0.4009  0.3425
  863MOL0     C16405   8.607   8.867   8.007  0.1943  0.5596  0.1217
  863MOL0     O16406   8.476   8.874   7.982 -0.4948  0.7689  0.6201
  863MOL0     C16407   8.436   8.961   7.881 -0.0516  0.1602  0.6727
  863MOL0     C16408   8.287   8.944   7.850 -0.4276  0.2179 -0.2807
  863MOL0     C16409   8.190   8.960   7.972 -0.3733 -0.8104 -0.2831
  863MOL0     C16410   8.056   9.033   7.959 -0.4593  0.5671  0.5038
  863MOL0     C16411   7.989   9.052   8.095  0.3298 -0.2964  0.5209
  863MOL0     C16412   7.848   9.100   8.086 -1.2647 -0.8837  0.2923
  863MOL0     C16413   7.781   9.105   8.221 -0.9201  0.9228 -0.7191
  863MOL0     C16414   7.646   9.168   8.225 -0.4558 -0.3831  0.3388
  863MOL0    Cl16415   7.586   9.198   8.392 -0.0718 -0.0094  0.1138
  863MOL0     C16416   8.706   8.937   7.942 -0.3041 -0.5982 -0.6749
  863MOL0     C16417   8.836   8.903   7.971  0.2165 -0.4129 -0.2855
  863MOL0     O16418   8.995   8.734   8.338  0.1572  0.3911 -0.8982
  863MOL0     C16419   9.275   8.850   8.167  0.2568  0.2465 -0.0912
  863MOL0     C16420   9.410   8.881   8.173 -0.5487  1.4054 -0.9833
  863MOL0     N16421  10.006   9.070   8.257 -0.1803 -0.5853  0.3139
  863MOL0     N16422  10.089   9.131   8.185  0.0366  0.1499 -0.1443
  863MOL0     C16423  11.103   8.751   8.737 -0.1957  0.4963  0.0415
  863MOL0     C16424  11.222   8.705   8.680 -0.8454  0.3496 -0.0811
  863MOL0     C16425  11.490   8.410   8.401  0.3566 -0.4635 -0.8781
  863MOL0     C16426  11.530   8.357   8.286 -0.2809  0.5503 -0.3807
  863MOL0     C16427  11.662   8.299   8.278  0.2133  0.5251  0.0371
  863MOL0     C16428  11.742   8.290   8.390 -0.2184  0.3283 -0.5548
  863MOL0     O16429  11.866   8.236   8.397 -0.0580 -0.4485  0.2623
  863MOL0     C16430  11.933   8.181   8.278  1.0647 -0.0941 -0.5505
  863MOL0     C16431  12.069   8.106   8.291  0.2857 -0.9679  0.0385
  863MOL0     C16432  12.185   8.194   8.318  0.2403 -0.8183  0.4530
  863MOL0     C16433  12.182   8.331   8.242  0.0205  0.7577 -0.4985
  863MOL0     C16434  12.170   8.318   8.097 -0.1900  0.1481  0.2444
  863MOL0     C16435  12.141   8.311   7.981 -0.2508 -0.1827 -0.8633
  863MOL0     C16436  11.683   8.329   8.506 -0.3270  0.2423 -0.5918
  863MOL0     C16437  11.563   8.392   8.515 -0.2332  0.0400  0.4673
  863MOL0     H16438  11.073   8.488   8.466 -3.2878 -0.9273  1.3323
  863MOL0     H16439  10.875   8.575   8.548  1.3024 -3.8088 -0.1179
  863MOL0     H16440  10.730   8.629   8.758  0.7052 -0.9123 -0.7753
  863MOL0     H16441  10.689   8.773   8.845  0.2401 -0.9169  0.0029
  863MOL0     H16442  10.698   8.763   8.537  0.6618 -1.3343  0.8098
  863MOL0     H16443  10.558   8.793   8.646  0.1817 -0.1853 -1.1919
  863MOL0     H16444  10.671   9.006   8.715 -1.7123  2.6483 -1.2337
  863MOL0     H16445  10.787   8.980   8.584 -0.2468 -1.3308 -0.5290
  863MOL0     H16446  10.562   8.933   8.446  1.0150 -0.1933  0.3909
  863MOL0     H16447  10.479   9.026   8.566 -1.2141  2.1689 -2.4818
  863MOL0     H16448  10.678   9.194   8.529  1.8649  0.6841 -1.1390
  863MOL0     H16449  10.685   9.119   8.376  0.3258  3.0727  0.5812
  863MOL0     H16450  10.439   9.258   8.477 -0.3701  1.7233 -0.4305
  863MOL0     H16451  10.542   9.329   8.356  2.0830 -0.4702  1.0682
  863MOL0     H16452  10.524   9.154   8.186  0.0063  0.1259  0.3756
  863MOL0     H16453  10.438   9.048   8.292  0.2301 -0.3406  1.5353
  863MOL0     H16454  10.330   9.192   8.099  1.1575  0.9069 -0.0390
  863MOL0     H16455  10.303   9.316   8.218  0.4277 -0.0378 -1.2194
  863MOL0     H16456  10.248   9.116   8.474  0.3522 -0.6123 -0.1970
  863MOL0     H16457  10.053   8.923   8.547 -0.8420  0.8266  0.2070
  863MOL0     H16458   9.956   9.068   8.566 -2.8789 -1.7704  0.8668
  863MOL0     H16459   9.834   8.848   8.532  1.1853  1.1517  2.1892
  863MOL0     H16460   9.879   8.868   8.357  1.8601  0.2785  0.9386
  863MOL0     H16461   9.763   9.089   8.344 -0.8190 -1.6371 -1.9255
  863MOL0     H16462   9.755   9.090   8.518  3.8562  0.0650 -0.2690
  863MOL0     H16463   9.533   9.055   8.413  1.7994  0.5898  1.1637
  863MOL0     H16464   9.584   8.927   8.524 -1.2556  0.6284  0.4141
  863MOL0     H16465   9.470   8.739   8.483 -2.1362 -0.1671  0.9230
  863MOL0     H16466   9.165   8.755   8.562 -1.6124  0.7175 -2.1526
  863MOL0     H16467   9.142   8.595   8.474  0.2030  0.9942 -1.9100
  863MOL0     H16468   9.288   8.621   8.569  0.7014  1.3235  1.4987
  863MOL0     H16469   8.796   8.670   8.216  0.1971 -0.1383  0.4752
  863MOL0     H16470   8.562   8.714   8.158  0.3788 -0.0331 -0.3490
  863MOL0     H16471   8.465   9.064   7.904  2.2289 -0.5262  1.1874
  863MOL0     H16472   8.486   8.937   7.787 -1.4735 -2.5502  0.5116
  863MOL0     H16473   8.259   9.014   7.770  1.2084 -0.4837 -1.5166
  863MOL0     H16474   8.274   8.842   7.812 -0.5535  0.0940  0.0906
  863MOL0     H16475   8.245   9.023   8.042 -0.4545  1.3063 -2.0177
  863MOL0     H16476   8.167   8.865   8.020  0.7296 -0.9275  0.0331
  863MOL0     H16477   8.063   9.130   7.910  1.3834 -0.4960 -1.4745
  863MOL0     H16478   7.991   8.984   7.885 -0.0737  1.6165 -0.5608
  863MOL0     H16479   8.037   9.123   8.163 -2.8347  0.5482  2.0341
  863MOL0     H16480   7.974   8.956   8.146 -1.0950  0.2702  1.2148
  863MOL0     H16481   7.863   9.201   8.048 -1.4572 -1.2753 -0.8486
  863MOL0     H16482   7.799   9.024   8.025 -0.4096 -1.2412  0.0269
  863MOL0     H16483   7.843   9.164   8.288 -2.3896  1.5045  0.1702
  863MOL0     H16484   7.778   9.008   8.271  2.9643  2.6892  3.6050
  863MOL0     H16485   7.583   9.108   8.159 -1.2948  0.7052  0.1227
  863MOL0     H16486   7.653   9.265   8.175 -1.4787 -0.2710  0.3971
  863MOL0     H16487   8.674   9.011   7.870 -1.4836 -0.5276 -0.0910
  863MOL0     H16488   8.910   8.965   7.921  0.7460 -0.2751  0.6426
  863MOL0     H16489   9.219   8.886   8.081  1.1576 -0.7947 -1.1396
  863MOL0     H16490   9.472   8.914   8.090  3.8599 -0.6286  1.2159
  863MOL0     H16491  11.114   8.823   8.817  0.8266 -1.3539  1.6649
  863MOL0     H16492  11.318   8.731   8.723  0.6474 -0.8888 -2.4738
  863MOL0     H16493  11.454   8.344   8.210  1.2620  0.1039 -1.9008
  863MOL0     H16494  11.675   8.241   8.187 -3.1143 -0.0705 -0.1770
  863MOL0     H16495  11.877   8.099   8.231  1.9823 -1.1486  0.1308
  863MOL0     H16496  11.934   8.260   8.203 -2.9326  0.3462 -0.3508
  863MOL0     H16497  12.081   8.050   8.197  0.6800 -0.5594 -0.1583
  863MOL0     H16498  12.071   8.033   8.372  1.6734 -0.4404  0.4938
  863MOL0     H16499  12.279   8.144   8.292  0.0916 -1.5570  1.3218
  863MOL0     H16500  12.202   8.220   8.423  2.3884  1.6553 -0.4012
  863MOL0     H16501  12.281   8.365   8.273  0.5890 -1.3549  0.1497
  863MOL0     H16502  12.103   8.397   8.281 -0.5754  1.4821 -2.7817
  863MOL0     H16503  12.114   8.319   7.877 -0.5535  0.8163 -0.7221
  863MOL0     H16504  11.736   8.306   8.597 -2.3040 -0.9220  0.3399
  863MOL0     H16505  11.526   8.429   8.610 -0.1674 -2.8295  1.7208
  864MOL0     O16506   2.579   3.119   4.589  0.1283 -0.0359  0.2221
  864MOL0     C16507   2.549   3.055   4.490 -0.4026  0.5335  0.3509
  864MOL0     O16508   2.427   3.006   4.464 -0.4949  0.6215 -0.7224
  864MOL0     C16509   2.316   3.082   4.505  0.2174 -0.2405 -0.8029
  864MOL0     C16510   2.313   3.217   4.539  1.0032 -0.3143  0.4286
  864MOL0     C16511   2.187   3.278   4.575 -0.1148 -0.8639 -0.6364
  864MOL0     C16512   2.069   3.202   4.585 -0.7927  0.7503 -0.1949
  864MOL0     O16513   1.957   3.272   4.617 -0.1960 -0.5052 -0.4353
  864MOL0     C16514   1.839   3.199   4.658  0.4546 -0.5846  0.5131
  864MOL0     C16515   1.727   3.191   4.555 -0.7446  0.4519 -0.3771
  864MOL0     C16516   1.644   3.321   4.551 -0.1881 -0.1281 -1.5023
  864MOL0     C16517   1.504   3.330   4.485 -0.7217  0.4168 -0.0757
  864MOL0     C16518   1.521   3.311   4.330  0.2866  0.2909 -0.6450
  864MOL0     C16519   1.391   3.317   4.252 -0.4202 -0.9929 -0.1399
  864MOL0     C16520   1.296   3.436   4.289 -0.3870 -1.0568 -0.3252
  864MOL0     C16521   1.168   3.444   4.208  0.0786 -0.4056 -0.1942
  864MOL0     N16522   1.197   3.491   4.072  0.3604 -0.1336 -0.2876
  864MOL0     C16523   1.292   3.575   4.022  0.2050 -0.2807 -0.1073
  864MOL0     C16524   1.280   3.574   3.886 -0.1870 -0.2323 -0.9105
  864MOL0     C16525   1.358   3.656   3.790  0.3527 -0.4007  0.9189
  864MOL0     C16526   1.437   3.561   3.704 -0.1830  0.2028 -0.1603
  864MOL0     C16527   1.353   3.502   3.585 -0.1583 -0.3966 -0.5630
  864MOL0     C16528   1.297   3.613   3.485 -0.4843 -0.0957  0.0061
  864MOL0     O16529   1.392   3.721   3.465 -0.6140 -0.4150  0.1263
  864MOL0     C16530   1.467   3.724   3.355 -0.5326 -0.6746  0.2036
  864MOL0     C16531   1.599   3.679   3.369  0.2791  0.3086  0.9650
  864MOL0     C16532   1.698   3.725   3.272 -0.0538  0.1646 -0.4756
  864MOL0     C16533   1.843   3.697   3.300  0.3511  0.1883 -0.3180
  864MOL0     C16534   1.660   3.796   3.157 -0.0383  0.5531 -0.2345
  864MOL0     C16535   1.743   3.825   3.032  0.1167 -0.3801 -0.2102
  864MOL0     O16536   1.706   3.939   2.953 -0.1017 -0.2263  1.1436
  864MOL0     C16537   1.739   3.963   2.817  0.3411 -0.1592  1.0621
  864MOL0     C16538   1.823   3.881   2.732  0.2625  1.0198 -0.3114
  864MOL0     C16539   1.851   3.923   2.605  0.0465 -0.4610  0.5907
  864MOL0     C16540   1.806   4.035   2.541 -0.9610 -0.2053 -0.5441
  864MOL0     O16541   1.830   4.094   2.416 -0.2193  0.0649 -0.1573
  864MOL0     C16542   1.878   4.011   2.316 -0.3359 -0.1125 -0.8809
  864MOL0     C16543   1.758   3.973   2.219 -0.0855 -0.1957 -0.0613
  864MOL0     C16544   1.691   4.092   2.155 -0.2381  0.0207  0.9955
  864MOL0     C16545   1.574   4.046   2.064 -0.3924 -0.1265 -0.3079
  864MOL0     C16546   1.501   4.169   2.015 -0.4578  0.2988  0.2151
  864MOL0     C16547   1.390   4.113   1.912 -0.6374  0.1160 -0.3770
  864MOL0     C16548   1.273   4.201   1.871 -0.2115  0.4366  0.3300
  864MOL0     C16549   1.197   4.272   1.986  0.1657  0.4941 -1.4562
  864MOL0    Cl16550   1.135   4.128   2.078 -0.1344 -0.4294  0.5283
  864MOL0     C16551   1.742   4.120   2.626 -0.3213 -0.1134 -0.4536
  864MOL0     C16552   1.703   4.086   2.754 -0.3084 -0.0576 -0.0208
  864MOL0     O16553   1.833   3.748   2.998  0.0238 -0.1028  0.1782
  864MOL0     C16554   1.522   3.824   3.149 -0.2941  0.0281 -0.4703
  864MOL0     C16555   1.438   3.797   3.243  0.2494  0.1824  0.0161
  864MOL0     N16556   1.167   3.491   3.856 -0.4474 -0.5245  0.3800
  864MOL0     N16557   1.121   3.436   3.966 -0.0710  0.3336  0.1387
  864MOL0     C16558   2.081   3.059   4.562  0.8322 -0.6042  0.2180
  864MOL0     C16559   2.201   3.005   4.511 -0.3268  0.3451 -1.2728
  864MOL0     C16560   2.648   3.019   4.391 -0.0286  0.5886  0.0271
  864MOL0     C16561   2.617   2.947   4.276 -0.0036  0.3779  0.0052
  864MOL0     C16562   2.723   2.906   4.185  0.7764 -0.4580  0.2283
  864MOL0     C16563   2.857   2.926   4.214 -0.6137  0.0269 -0.0902
  864MOL0     O16564   2.957   2.896   4.123 -0.1915  0.4368 -0.1264
  864MOL0     C16565   3.091   2.931   4.155  0.3610  0.3528 -0.6199
  864MOL0     C16566   3.170   2.843   4.061 -0.2029 -0.5999  0.7060
  864MOL0     C16567   3.311   2.905   4.058 -0.2120 -0.7463 -0.6760
  864MOL0     C16568   3.418   2.819   3.997 -0.2587  1.0600  0.2145
  864MOL0     C16569   3.548   2.880   4.028  0.1446  0.6937  0.2929
  864MOL0     C16570   3.663   2.915   4.039 -0.3244 -0.1876  0.2214
  864MOL0     C16571   2.888   2.993   4.337  0.5583  0.3492  0.3000
  864MOL0     C16572   2.787   3.045   4.416  0.8122 -0.3259  0.0316
  864MOL0     H16573   2.404   3.275   4.532 -0.4375  1.8499 -2.8601
  864MOL0     H16574   2.177   3.384   4.597  0.2676 -0.3663 -2.6644
  864MOL0     H16575   1.862   3.102   4.702  1.2447 -0.0437  1.3090
  864MOL0     H16576   1.803   3.259   4.741  1.4502  1.8691 -0.7174
  864MOL0     H16577   1.759   3.174   4.452  2.2135 -1.2917  0.7058
  864MOL0     H16578   1.658   3.113   4.586  0.8596 -0.6592  0.5631
  864MOL0     H16579   1.628   3.352   4.655  0.6420 -1.6958 -0.8734
  864MOL0     H16580   1.716   3.395   4.518 -1.3561  1.9539  0.3447
  864MOL0     H16581   1.439   3.252   4.525 -0.1740 -0.7069 -1.2737
  864MOL0     H16582   1.462   3.427   4.510  3.2187  2.1642  0.5626
  864MOL0     H16583   1.595   3.382   4.293 -1.2705  3.4551  1.7830
  864MOL0     H16584   1.568   3.213   4.320 -0.3448 -0.1707  0.6075
  864MOL0     H16585   1.416   3.330   4.146 -1.9376 -0.4654 -0.4481
  864MOL0     H16586   1.331   3.228   4.275 -1.0731 -0.1006  1.7275
  864MOL0     H16587   1.262   3.425   4.392 -0.2885  0.8543 -0.0648
  864MOL0     H16588   1.347   3.532   4.279 -3.6611  0.8838  0.1632
  864MOL0     H16589   1.096   3.514   4.253  0.0440 -1.0676  0.8245
  864MOL0     H16590   1.134   3.340   4.210  1.2446 -0.8215  1.8211
  864MOL0     H16591   1.357   3.635   4.086  1.4144  0.4933 -1.9565
  864MOL0     H16592   1.294   3.719   3.727  1.5056 -0.3673 -0.2669
  864MOL0     H16593   1.426   3.726   3.839  1.0986 -1.5344  1.5620
  864MOL0     H16594   1.476   3.477   3.762  1.5413  1.8453  1.1771
  864MOL0     H16595   1.523   3.611   3.659  0.4904 -0.7561  0.0151
  864MOL0     H16596   1.275   3.439   3.628  1.0354 -0.6087  1.4137
  864MOL0     H16597   1.422   3.442   3.525  1.9609 -1.1258  2.3797
  864MOL0     H16598   1.209   3.660   3.530 -0.6834 -2.1647  1.9490
  864MOL0     H16599   1.267   3.568   3.390 -1.2803  0.6740 -0.1202
  864MOL0     H16600   1.612   3.619   3.459 -0.3868 -0.4620  0.5586
  864MOL0     H16601   1.908   3.730   3.219  1.7929 -3.8351 -1.0424
  864MOL0     H16602   1.863   3.747   3.395  2.4887 -0.0770 -0.5950
  864MOL0     H16603   1.876   3.595   3.321  0.0992  0.2316  0.3150
  864MOL0     H16604   1.868   3.787   2.764 -0.0611  1.4699  1.6043
  864MOL0     H16605   1.919   3.866   2.541  0.2726 -3.2399  3.0918
  864MOL0     H16606   1.961   4.058   2.264  0.3205  0.1381  0.3611
  864MOL0     H16607   1.924   3.919   2.353 -0.1176 -0.1377 -1.2087
  864MOL0     H16608   1.793   3.914   2.134 -2.2871 -2.5080  0.5247
  864MOL0     H16609   1.682   3.911   2.267 -2.1674  1.8152 -0.5782
  864MOL0     H16610   1.767   4.147   2.101 -0.3305 -0.0738  0.7663
  864MOL0     H16611   1.643   4.156   2.230  1.3550 -0.5191  2.5181
  864MOL0     H16612   1.621   3.981   1.989  3.4688 -0.1749  1.9074
  864MOL0     H16613   1.505   3.989   2.128  1.1956  0.7527  2.3202
  864MOL0     H16614   1.571   4.225   1.953 -0.1856 -0.6749 -0.3647
  864MOL0     H16615   1.454   4.228   2.095 -4.3477 -2.8620  0.6066
  864MOL0     H16616   1.447   4.090   1.822 -2.0872 -2.7391 -0.6948
  864MOL0     H16617   1.352   4.018   1.951  2.7294 -1.8253 -1.4563
  864MOL0     H16618   1.203   4.138   1.815  0.6404 -3.4190  3.1750
  864MOL0     H16619   1.320   4.273   1.804  2.8330  0.6521  2.4603
  864MOL0     H16620   1.121   4.336   1.942 -1.3374  1.3629  2.0510
  864MOL0     H16621   1.261   4.331   2.053 -1.7103 -0.5855  1.4930
  864MOL0     H16622   1.703   4.209   2.576 -0.0881 -0.3078 -0.9867
  864MOL0     H16623   1.636   4.159   2.798  0.4876  1.2934 -0.9745
  864MOL0     H16624   1.480   3.877   3.063 -1.3053 -1.9886 -1.2769
  864MOL0     H16625   1.337   3.833   3.229 -0.1186 -1.6184 -2.7470
  864MOL0     H16626   1.992   2.996   4.557 -1.5208  2.3358  1.8439
  864MOL0     H16627   2.206   2.903   4.473  2.2499  0.0081 -0.2327
  864MOL0     H16628   2.513   2.925   4.254  0.0265  0.2540 -0.0088
  864MOL0     H16629   2.714   2.854   4.090  0.4779  0.2629 -0.1391
  864MOL0     H16630   3.098   3.040   4.150  1.0582  0.4201  1.0416
  864MOL0     H16631   3.115   2.899   4.257 -1.4875 -1.8446 -0.7778
  864MOL0     H16632   3.125   2.835   3.961  1.3124 -2.2117  0.0878
  864MOL0     H16633   3.179   2.746   4.111  0.8008 -0.8629  0.0605
  864MOL0     H16634   3.347   2.903   4.162  0.4397  1.0666 -0.8258
  864MOL0     H16635   3.300   3.001   4.007  1.0372 -0.5023 -0.5103
  864MOL0     H16636   3.390   2.801   3.893 -0.3784 -3.2344  0.7865
  864MOL0     H16637   3.409   2.720   4.044  0.5931  1.4602  1.2687
  864MOL0     H16638   3.767   2.940   4.039  0.4957 -2.9767 -2.3884
  864MOL0     H16639   2.986   3.004   4.383  0.6611 -2.4080  0.9198
  864MOL0     H16640   2.812   3.098   4.507 -1.4035 -0.7555  0.9732
  865MOL0     O16641   0.793   4.948   4.704 -0.8349 -0.4561 -0.2516
  865MOL0     C16642   0.830   4.984   4.595  0.4355  0.1077  1.0548
  865MOL0     O16643   0.751   4.998   4.487  0.1488 -0.6695  0.2154
  865MOL0     C16644   0.613   4.995   4.493 -0.3198 -0.2837 -1.1939
  865MOL0     C16645   0.541   4.919   4.405  0.1145  0.3365 -0.2695
  865MOL0     C16646   0.400   4.922   4.403 -0.5154  0.2632 -0.7306
  865MOL0     C16647   0.330   5.000   4.493  0.3114  0.2008 -0.5913
  865MOL0     O16648   0.190   5.006   4.470  1.0879 -0.0276  0.2024
  865MOL0     C16649   0.125   5.128   4.481  0.9968 -0.3204 -0.2346
  865MOL0     C16650  -0.028   5.109   4.439 -1.0172  1.0523 -1.0055
  865MOL0     C16651  -0.106   5.239   4.395 -0.0933 -0.0532 -0.1073
  865MOL0     C16652  -0.260   5.204   4.386 -0.5116  0.0967  0.6353
  865MOL0     C16653  -0.348   5.322   4.345 -0.8373  0.5568 -0.5907
  865MOL0     C16654  -0.491   5.279   4.338 -0.1320  0.5503 -0.4546
  865MOL0     C16655  -0.579   5.405   4.307 -0.0409  0.0188 -0.0177
  865MOL0     C16656  -0.718   5.354   4.269 -1.1940 -0.3765 -0.1539
  865MOL0     N16657  -0.804   5.473   4.248 -0.4768  1.0993  0.1880
  865MOL0     C16658  -0.882   5.545   4.342 -0.3625  0.1543  0.3833
  865MOL0     C16659  -0.900   5.667   4.280  0.8813  0.1313 -0.4045
  865MOL0     C16660  -0.959   5.798   4.338  0.3631  0.9539 -0.0084
  865MOL0     C16661  -1.119   5.807   4.309 -0.4906 -0.1040 -1.2108
  865MOL0     C16662  -1.153   5.840   4.172  0.2979  0.3986  0.1728
  865MOL0     C16663  -1.304   5.827   4.146  0.4506  0.3563  0.6982
  865MOL0     O16664  -1.377   5.709   4.180  0.8277  0.0392 -0.1903
  865MOL0     C16665  -1.513   5.726   4.206 -0.0360 -0.6391  0.3660
  865MOL0     C16666  -1.578   5.628   4.281 -0.2797 -1.1767  0.6524
  865MOL0     C16667  -1.713   5.645   4.326 -0.0774 -0.4610 -0.3576
  865MOL0     C16668  -1.769   5.539   4.419  0.6110  0.9346  0.4499
  865MOL0     C16669  -1.788   5.746   4.265  0.5320  0.6083 -0.2091
  865MOL0     C16670  -1.932   5.756   4.289 -0.3689  0.5027 -0.1485
  865MOL0     O16671  -1.958   5.817   4.413 -0.4260  0.0664 -0.3399
  865MOL0     C16672  -2.082   5.827   4.466 -0.2782  0.2362  0.7547
  865MOL0     C16673  -2.178   5.726   4.477  0.7716  0.7704  0.3773
  865MOL0     C16674  -2.292   5.743   4.556 -1.1904  0.4499  0.4366
  865MOL0     C16675  -2.313   5.854   4.635  0.4013 -0.4499 -0.0761
  865MOL0     O16676  -2.426   5.875   4.711  0.1482  0.0877 -0.4628
  865MOL0     C16677  -2.558   5.851   4.653 -0.3372 -0.7482 -0.0722
  865MOL0     C16678  -2.587   5.970   4.566  0.8391  0.4024  0.1559
  865MOL0     C16679  -2.732   5.955   4.526 -0.5103 -1.0553 -0.1503
  865MOL0     C16680  -2.838   5.973   4.637 -0.0324 -0.2714  0.1814
  865MOL0     C16681  -2.970   6.021   4.581 -0.4902 -0.2137  0.0387
  865MOL0     C16682  -3.077   6.026   4.684  0.4066 -0.4533 -0.5986
  865MOL0     C16683  -3.228   6.035   4.628  0.3462 -0.3118 -0.0576
  865MOL0     C16684  -3.246   6.159   4.541  0.5689  0.5182  0.0242
  865MOL0    Cl16685  -3.415   6.181   4.499  0.4086 -0.2890  0.5229
  865MOL0     C16686  -2.204   5.948   4.639 -0.0989  0.1529  0.3863
  865MOL0     C16687  -2.093   5.933   4.554  0.0517 -0.3750  0.1528
  865MOL0     O16688  -2.018   5.697   4.227  0.2378  0.0959 -0.0034
  865MOL0     C16689  -1.728   5.836   4.182 -0.6050 -0.0595  0.4258
  865MOL0     C16690  -1.591   5.817   4.144  0.0779 -0.6198  0.0236
  865MOL0     N16691  -0.852   5.664   4.147  0.5058 -0.2343 -0.3423
  865MOL0     N16692  -0.794   5.549   4.137 -0.8009 -0.0599 -0.1347
  865MOL0     C16693   0.403   5.073   4.589  0.2643  0.4310  0.6590
  865MOL0     C16694   0.545   5.071   4.588 -0.2040 -0.3455 -0.5779
  865MOL0     C16695   0.975   4.999   4.566  0.7004  0.0126 -0.1284
  865MOL0     C16696   1.077   4.997   4.663 -0.3292 -0.0957 -0.0016
  865MOL0     C16697   1.208   5.018   4.630 -0.1456 -0.7199  0.0138
  865MOL0     C16698   1.251   5.044   4.499  1.0469  0.9219  0.8894
  865MOL0     O16699   1.382   5.054   4.464 -0.3046 -0.3560 -0.3373
  865MOL0     C16700   1.494   5.033   4.554  0.6283  0.9043  0.0513
  865MOL0     C16701   1.623   5.086   4.492  0.4245  0.4475  0.5091
  865MOL0     C16702   1.605   5.233   4.501 -0.8931 -0.7181  0.2082
  865MOL0     C16703   1.746   5.304   4.503  0.8572 -0.1790  0.6692
  865MOL0     C16704   1.823   5.274   4.377 -0.3425 -0.7707 -0.7782
  865MOL0     C16705   1.890   5.266   4.277  0.9187 -0.4182  0.3162
  865MOL0     C16706   1.157   5.047   4.406 -0.1032  0.2196  1.2817
  865MOL0     C16707   1.012   5.024   4.432 -0.1624  0.3238 -0.5689
  865MOL0     H16708   0.589   4.857   4.330  1.4834 -1.4282  1.9267
  865MOL0     H16709   0.355   4.859   4.327  0.2291 -2.3342  0.8529
  865MOL0     H16710   0.131   5.162   4.585  0.8970 -2.0967  0.3955
  865MOL0     H16711   0.161   5.199   4.407  0.4254  0.5698  0.3189
  865MOL0     H16712  -0.034   5.034   4.359 -1.3405 -0.2113  0.1782
  865MOL0     H16713  -0.077   5.061   4.524  1.6419 -2.8916 -1.4685
  865MOL0     H16714  -0.096   5.322   4.466  1.2321  1.2621 -1.7169
  865MOL0     H16715  -0.070   5.268   4.295 -0.5649  0.3591 -0.1591
  865MOL0     H16716  -0.277   5.131   4.307 -0.3132  0.0878  0.6008
  865MOL0     H16717  -0.291   5.173   4.486  2.1714  0.6973  1.7669
  865MOL0     H16718  -0.327   5.403   4.416  5.2247 -1.6188  0.7183
  865MOL0     H16719  -0.320   5.365   4.249  2.8879  1.6294  0.7732
  865MOL0     H16720  -0.498   5.192   4.271 -1.0848  0.1791  0.0965
  865MOL0     H16721  -0.528   5.250   4.437  4.4331  0.7214  1.5588
  865MOL0     H16722  -0.581   5.471   4.394  1.5107  2.5765 -1.7735
  865MOL0     H16723  -0.537   5.456   4.220 -0.8269 -0.1694 -0.5179
  865MOL0     H16724  -0.752   5.301   4.359 -0.6514 -0.3414  0.0785
  865MOL0     H16725  -0.707   5.291   4.181  2.6497 -1.3362  0.8382
  865MOL0     H16726  -0.915   5.516   4.441  0.1317 -1.5532  0.0888
  865MOL0     H16727  -0.946   5.789   4.447 -1.1199  1.2326  0.2099
  865MOL0     H16728  -0.908   5.887   4.301  0.9752 -0.1509 -1.9369
  865MOL0     H16729  -1.154   5.883   4.378 -1.2859 -1.6340  0.1475
  865MOL0     H16730  -1.171   5.715   4.337 -0.3987  0.8312  2.6065
  865MOL0     H16731  -1.110   5.768   4.102 -0.7910 -0.5575  0.4533
  865MOL0     H16732  -1.122   5.943   4.150  1.7869  0.2214  1.3038
  865MOL0     H16733  -1.308   5.836   4.037  1.4401  1.4812  0.7361
  865MOL0     H16734  -1.359   5.915   4.180 -1.7029 -0.5605 -0.2340
  865MOL0     H16735  -1.513   5.552   4.324  1.7138 -1.1083 -1.9693
  865MOL0     H16736  -1.830   5.582   4.499 -1.6384  2.0412 -1.6992
  865MOL0     H16737  -1.838   5.484   4.354 -0.8942  2.0638  1.0138
  865MOL0     H16738  -1.708   5.457   4.457 -1.8531 -0.4554  1.6576
  865MOL0     H16739  -2.169   5.634   4.421  0.0209  1.2394 -0.5439
  865MOL0     H16740  -2.366   5.665   4.544 -0.0996 -0.2552 -2.5015
  865MOL0     H16741  -2.562   5.756   4.599  1.4994 -1.1200  0.3828
  865MOL0     H16742  -2.635   5.840   4.729 -0.7016  0.1688 -0.2953
  865MOL0     H16743  -2.555   6.062   4.617 -0.1775  0.4722  0.6930
  865MOL0     H16744  -2.530   5.961   4.473  0.0241 -0.1218 -0.3081
  865MOL0     H16745  -2.742   5.857   4.479 -2.4899 -2.0170  2.0956
  865MOL0     H16746  -2.737   6.035   4.452  1.7501 -2.6220 -2.1361
  865MOL0     H16747  -2.837   5.874   4.684  0.6250 -0.9857 -1.2891
  865MOL0     H16748  -2.799   6.041   4.714  1.5093 -2.3309  1.3331
  865MOL0     H16749  -3.003   5.958   4.498  0.2222 -0.8808  0.2450
  865MOL0     H16750  -2.951   6.118   4.534  2.6772 -1.1179 -0.7836
  865MOL0     H16751  -3.076   5.936   4.747 -1.9445  1.3557  2.3019
  865MOL0     H16752  -3.054   6.111   4.749  1.3960  0.5120 -2.1541
  865MOL0     H16753  -3.301   6.041   4.709 -0.0572  1.3646 -0.5146
  865MOL0     H16754  -3.241   5.953   4.556  0.5773  0.1515 -0.6392
  865MOL0     H16755  -3.185   6.148   4.451  4.1654 -3.2987  2.5702
  865MOL0     H16756  -3.213   6.248   4.595 -4.2146  1.5209  1.8607
  865MOL0     H16757  -2.203   6.035   4.704 -2.9597  1.8525 -1.6488
  865MOL0     H16758  -2.007   5.996   4.575 -2.7935  3.3347  1.9011
  865MOL0     H16759  -1.785   5.922   4.147  1.2668  0.9233 -0.3338
  865MOL0     H16760  -1.553   5.888   4.071  0.2224 -2.1163 -1.4384
  865MOL0     H16761   0.340   5.119   4.664 -0.4599 -1.0669  1.0121
  865MOL0     H16762   0.609   5.122   4.660  1.5981 -2.2634 -0.7360
  865MOL0     H16763   1.054   4.976   4.767  0.6549 -0.9211  0.0640
  865MOL0     H16764   1.274   5.002   4.715  2.6929 -1.8016 -2.2438
  865MOL0     H16765   1.474   5.070   4.655 -1.3239 -2.7933  1.2104
  865MOL0     H16766   1.518   4.927   4.571  2.4146  1.3940  0.7561
  865MOL0     H16767   1.624   5.049   4.389 -1.1237 -1.3984  1.1126
  865MOL0     H16768   1.714   5.056   4.545  1.5088  3.4069  0.5053
  865MOL0     H16769   1.550   5.262   4.590 -0.6809  0.7694 -0.1111
  865MOL0     H16770   1.566   5.277   4.409  0.2996 -1.5799 -0.7462
  865MOL0     H16771   1.797   5.258   4.587  2.3830 -0.8838 -0.5920
  865MOL0     H16772   1.743   5.412   4.515 -1.1880 -0.4115  3.1314
  865MOL0     H16773   1.943   5.256   4.185  0.0750  0.4497 -0.2807
  865MOL0     H16774   1.192   5.055   4.303  0.2465  0.2869  1.4069
  865MOL0     H16775   0.948   5.016   4.344  1.0267  2.0985 -1.6565
  866MOL0     O16776   1.226   2.310   0.008 -0.1824 -1.1443 -0.3343
  866MOL0     C16777   1.318   2.279  -0.077  0.4300 -0.8346 -0.4371
  866MOL0     O16778   1.291   2.251  -0.210  0.4691 -0.4735 -0.5141
  866MOL0     C16779   1.161   2.241  -0.249 -0.2776 -0.0575  0.2307
  866MOL0     C16780   1.104   2.323  -0.346 -0.5596  0.2764  0.1562
  866MOL0     C16781   0.982   2.298  -0.418  0.7285 -0.0159  0.3753
  866MOL0     C16782   0.907   2.186  -0.380  0.6368 -0.6314 -0.3418
  866MOL0     O16783   0.779   2.165  -0.442  0.0354 -0.0731  0.0951
  866MOL0     C16784   0.713   2.274  -0.502  0.2250  0.2091 -0.6041
  866MOL0     C16785   0.559   2.234  -0.509 -0.2479 -0.2204 -0.2672
  866MOL0     C16786   0.467   2.354  -0.544 -0.3144  0.4901 -0.7866
  866MOL0     C16787   0.344   2.303  -0.631 -0.1239  0.6412  0.0469
  866MOL0     C16788   0.233   2.407  -0.638  0.1204  0.2966  0.0515
  866MOL0     C16789   0.126   2.342  -0.727 -0.7162 -0.1686  0.2351
  866MOL0     C16790   0.013   2.440  -0.753  0.3108  0.2477 -0.5099
  866MOL0     C16791  -0.111   2.373  -0.816  0.4585 -0.4892 -0.3522
  866MOL0     N16792  -0.238   2.454  -0.835  0.2187 -0.3199 -0.2031
  866MOL0     C16793  -0.262   2.548  -0.937  0.2479  0.1018  0.1780
  866MOL0     C16794  -0.398   2.574  -0.927 -0.3609 -0.5763  0.6308
  866MOL0     C16795  -0.466   2.686  -1.007  0.6851 -0.6871 -1.0017
  866MOL0     C16796  -0.617   2.704  -0.964 -0.1247  0.7345 -0.3585
  866MOL0     C16797  -0.681   2.837  -1.001  0.3789 -0.6784 -0.3606
  866MOL0     C16798  -0.831   2.828  -0.966  0.3120 -0.1755  0.2749
  866MOL0     O16799  -0.897   2.959  -0.959 -0.5480  0.8850  0.0180
  866MOL0     C16800  -1.034   2.949  -0.959 -0.3177 -0.3225 -0.3232
  866MOL0     C16801  -1.100   2.867  -0.871  0.1814 -0.3590  0.2304
  866MOL0     C16802  -1.238   2.868  -0.850  0.1429  0.0177  0.9909
  866MOL0     C16803  -1.297   2.794  -0.735 -0.4291 -1.0605  0.1695
  866MOL0     C16804  -1.313   2.939  -0.951  0.1004  0.4879  0.2975
  866MOL0     C16805  -1.463   2.919  -0.962 -0.5595 -0.1737  0.7656
  866MOL0     O16806  -1.547   2.874  -0.862  0.1299  0.4039 -0.6092
  866MOL0     C16807  -1.686   2.886  -0.879 -0.0611 -0.5161  0.2822
  866MOL0     C16808  -1.754   2.999  -0.830 -0.1861  0.4725 -0.1613
  866MOL0     C16809  -1.893   3.010  -0.841 -0.6430  0.2094  0.0523
  866MOL0     C16810  -1.971   2.900  -0.892 -0.1318 -1.1559 -0.2570
  866MOL0     O16811  -2.110   2.911  -0.903 -0.6806 -0.0543 -0.7043
  866MOL0     C16812  -2.185   3.008  -0.828 -0.5421  0.6147  0.6206
  866MOL0     C16813  -2.333   2.959  -0.812 -0.5464 -0.1065  0.0067
  866MOL0     C16814  -2.388   2.917  -0.949  0.3587  0.4471  0.0361
  866MOL0     C16815  -2.530   2.872  -0.936  1.0594  0.8143 -0.3236
  866MOL0     C16816  -2.597   2.833  -1.073 -0.8571 -0.3136 -0.9633
  866MOL0     C16817  -2.747   2.799  -1.067  0.1898  0.6042  0.7124
  866MOL0     C16818  -2.781   2.688  -0.969  0.2155  0.5808  0.6023
  866MOL0     C16819  -2.906   2.618  -1.011  0.4437 -0.3900  0.4522
  866MOL0    Cl16820  -3.036   2.734  -1.036 -0.1973 -0.5114  0.3767
  866MOL0     C16821  -1.900   2.793  -0.944  0.0708  0.0309  0.0818
  866MOL0     C16822  -1.765   2.788  -0.947  0.3521 -0.7299  0.7631
  866MOL0     O16823  -1.497   2.953  -1.074  0.8010  0.2406 -0.1078
  866MOL0     C16824  -1.246   3.018  -1.055  0.6304 -0.0623 -0.3675
  866MOL0     C16825  -1.110   3.036  -1.043  0.2679  0.9003 -0.9202
  866MOL0     N16826  -0.449   2.493  -0.828  0.1578  0.5702  0.3834
  866MOL0     N16827  -0.358   2.420  -0.778 -0.5004 -0.2853 -0.3353
  866MOL0     C16828   0.956   2.112  -0.277  0.0520  0.3549 -0.7544
  866MOL0     C16829   1.075   2.134  -0.209 -0.6982  0.5616 -0.2400
  866MOL0     C16830   1.451   2.272  -0.020  0.2917 -0.0680 -0.7917
  866MOL0     C16831   1.482   2.333   0.109  0.5458  0.3067 -0.5935
  866MOL0     C16832   1.613   2.316   0.163  0.4295  0.2562 -1.3683
  866MOL0     C16833   1.713   2.260   0.085  0.0251  0.0773 -0.2739
  866MOL0     O16834   1.839   2.238   0.130  0.1334 -0.0020 -0.2904
  866MOL0     C16835   1.899   2.357   0.175  0.2500  0.0775  0.2193
  866MOL0     C16836   2.019   2.327   0.267  0.1017  0.9565  0.4418
  866MOL0     C16837   2.068   2.446   0.351 -0.6593  0.1012  0.3694
  866MOL0     C16838   2.199   2.423   0.427  0.3028 -0.0537  0.0930
  866MOL0     C16839   2.250   2.563   0.462 -0.5478  0.1240  0.1705
  866MOL0     C16840   2.278   2.680   0.494 -0.5861  0.0450 -1.0927
  866MOL0     C16841   1.677   2.209  -0.044 -0.6134  0.4830 -0.0386
  866MOL0     C16842   1.548   2.207  -0.097 -0.1892 -0.4379  0.4892
  866MOL0     H16843   1.172   2.395  -0.390 -0.0331 -1.1825 -1.5579
  866MOL0     H16844   0.954   2.347  -0.511 -0.5869  0.7923  1.1618
  866MOL0     H16845   0.712   2.366  -0.442 -4.6287 -0.8825  1.4644
  866MOL0     H16846   0.749   2.301  -0.602  0.8989  1.4440 -0.0500
  866MOL0     H16847   0.536   2.150  -0.575  1.4911 -1.0404  0.1122
  866MOL0     H16848   0.529   2.205  -0.408 -0.5481  0.7993 -0.0484
  866MOL0     H16849   0.429   2.398  -0.451  0.7021  0.6033 -0.4145
  866MOL0     H16850   0.527   2.427  -0.598  1.6097  0.4477  1.1672
  866MOL0     H16851   0.375   2.267  -0.729  1.6724 -1.0482  1.1773
  866MOL0     H16852   0.306   2.212  -0.584  1.5003 -2.2926 -3.8270
  866MOL0     H16853   0.203   2.428  -0.534  1.3081 -1.7386  0.8610
  866MOL0     H16854   0.259   2.508  -0.673 -3.2495  1.5914  0.8500
  866MOL0     H16855   0.171   2.323  -0.825 -2.4525  2.0309 -1.1132
  866MOL0     H16856   0.088   2.251  -0.681  0.7877 -0.8144  0.2524
  866MOL0     H16857  -0.012   2.488  -0.658  0.6056 -2.5720  1.1050
  866MOL0     H16858   0.046   2.518  -0.822 -0.6193  1.0080 -0.1169
  866MOL0     H16859  -0.137   2.284  -0.758  0.4308 -1.1708 -1.3802
  866MOL0     H16860  -0.092   2.330  -0.914  0.0403 -0.6468 -0.3664
  866MOL0     H16861  -0.186   2.600  -0.994  0.8637  0.6457  1.4587
  866MOL0     H16862  -0.427   2.786  -0.988  2.1186 -1.2042 -1.1595
  866MOL0     H16863  -0.457   2.659  -1.113 -1.1158 -2.8754 -0.6834
  866MOL0     H16864  -0.610   2.708  -0.855  3.9376  0.5906 -0.4508
  866MOL0     H16865  -0.681   2.623  -1.002 -1.1102  2.1773 -1.9465
  866MOL0     H16866  -0.666   2.847  -1.109  0.3793 -1.9107 -0.4893
  866MOL0     H16867  -0.637   2.922  -0.948  0.5651 -2.3520  2.3698
  866MOL0     H16868  -0.845   2.783  -0.868 -0.9687 -1.0691 -0.2973
  866MOL0     H16869  -0.884   2.775  -1.045 -0.9769  0.4171  0.7279
  866MOL0     H16870  -1.038   2.814  -0.799 -1.0179  2.8498  3.9945
  866MOL0     H16871  -1.370   2.855  -0.681 -0.4450  0.4825 -1.5143
  866MOL0     H16872  -1.348   2.704  -0.771  0.6668  0.1644 -5.3323
  866MOL0     H16873  -1.225   2.769  -0.656 -2.7299 -0.9199  2.4503
  866MOL0     H16874  -1.693   3.081  -0.795  0.2737 -0.0395  0.2565
  866MOL0     H16875  -1.942   3.100  -0.805  0.6456  0.4893  1.1796
  866MOL0     H16876  -2.148   3.024  -0.726  0.2428  2.9145  0.0228
  866MOL0     H16877  -2.171   3.106  -0.874  0.7224  0.1607 -0.0136
  866MOL0     H16878  -2.338   2.874  -0.743 -1.1911 -0.6497 -0.7004
  866MOL0     H16879  -2.390   3.043  -0.771  1.4554  0.0713  2.7239
  866MOL0     H16880  -2.321   2.839  -0.987  1.4109  1.1400  0.4299
  866MOL0     H16881  -2.385   2.997  -1.024  0.6143 -0.3418 -0.8230
  866MOL0     H16882  -2.541   2.784  -0.872 -1.0172  1.5584  0.4388
  866MOL0     H16883  -2.596   2.941  -0.881  2.2113  1.4684  0.2767
  866MOL0     H16884  -2.537   2.747  -1.103 -1.2496 -2.1184  2.9063
  866MOL0     H16885  -2.575   2.907  -1.151  0.3039  0.0297 -0.3332
  866MOL0     H16886  -2.817   2.883  -1.057  0.3372  1.1102 -1.9909
  866MOL0     H16887  -2.765   2.761  -1.168  5.5606  0.9625 -0.6987
  866MOL0     H16888  -2.801   2.744  -0.877 -2.0321  1.2151 -0.2081
  866MOL0     H16889  -2.700   2.616  -0.958 -0.0946  0.0297 -0.5579
  866MOL0     H16890  -2.940   2.549  -0.933 -0.5635 -1.5264 -0.9456
  866MOL0     H16891  -2.900   2.554  -1.099 -0.6881 -1.2255  0.9522
  866MOL0     H16892  -1.954   2.714  -0.996  1.6329 -1.7398  1.0612
  866MOL0     H16893  -1.712   2.702  -0.988  0.2439 -1.0279  1.2437
  866MOL0     H16894  -1.303   3.057  -1.138 -0.2534 -0.3622  0.0911
  866MOL0     H16895  -1.061   3.101  -1.114 -1.1862  0.6885 -2.1588
  866MOL0     H16896   0.896   2.029  -0.244 -1.1198  1.4094 -0.1602
  866MOL0     H16897   1.109   2.055  -0.142 -1.4674  0.2092 -0.2540
  866MOL0     H16898   1.412   2.384   0.174  2.9732 -1.0927  3.4693
  866MOL0     H16899   1.625   2.351   0.265 -0.4179 -2.2954 -0.3081
  866MOL0     H16900   1.937   2.425   0.098 -0.4814  1.0875  0.7223
  866MOL0     H16901   1.827   2.422   0.227  1.6309  2.1591 -0.3514
  866MOL0     H16902   2.099   2.292   0.202  1.1143 -1.0771  2.6230
  866MOL0     H16903   1.983   2.247   0.332 -1.9391  1.5162  0.0779
  866MOL0     H16904   1.993   2.470   0.427 -1.3275 -2.9144  0.7532
  866MOL0     H16905   2.083   2.529   0.281 -1.5840  0.8230  1.0006
  866MOL0     H16906   2.266   2.375   0.355 -1.1610  0.0895 -1.4263
  866MOL0     H16907   2.187   2.349   0.506 -0.7889 -0.2334 -0.2270
  866MOL0     H16908   2.292   2.783   0.521 -1.4263  0.2275 -1.3406
  866MOL0     H16909   1.758   2.171  -0.106  0.4143  0.4838  1.2766
  866MOL0     H16910   1.534   2.167  -0.196 -2.0240  0.6626  0.2653
  867MOL0     O16911   8.232   1.277   9.292  0.0913 -0.5246  0.2118
  867MOL0     C16912   8.250   1.343   9.189 -0.4764 -0.8006 -0.9241
  867MOL0     O16913   8.182   1.321   9.072 -0.0250 -0.0913 -0.0568
  867MOL0     C16914   8.085   1.223   9.071 -0.3955 -0.7409 -0.3313
  867MOL0     C16915   8.117   1.085   9.075  0.8819  0.6377 -1.0308
  867MOL0     C16916   8.018   0.988   9.069 -0.1476 -0.4029  0.1343
  867MOL0     C16917   7.883   1.029   9.042 -0.3297  0.2858  0.3953
  867MOL0     O16918   7.780   0.939   9.010  0.1382 -0.0079 -0.9978
  867MOL0     C16919   7.821   0.815   8.966  0.0991  0.2107  0.4000
  867MOL0     C16920   7.700   0.720   8.936 -0.7947  0.2888 -0.2855
  867MOL0     C16921   7.597   0.728   9.043 -0.0684 -1.0262  0.0880
  867MOL0     C16922   7.502   0.605   9.028 -0.7232  0.0627 -0.4928
  867MOL0     C16923   7.434   0.567   9.159 -0.5300 -0.3788 -1.3980
  867MOL0     C16924   7.330   0.458   9.143  0.9695  0.1413  0.3517
  867MOL0     C16925   7.251   0.434   9.280 -0.1208 -0.2063  0.5828
  867MOL0     C16926   7.123   0.361   9.247  0.0438  0.2305  0.3747
  867MOL0     N16927   7.154   0.251   9.154  0.0219  0.0037  0.2639
  867MOL0     C16928   7.212   0.131   9.179 -0.2284 -0.4321 -0.7255
  867MOL0     C16929   7.232   0.070   9.058  0.4896  0.3906 -0.0202
  867MOL0     C16930   7.305  -0.058   9.048  0.5286 -0.2039  0.2717
  867MOL0     C16931   7.350  -0.097   8.905 -1.0165 -0.1873 -0.0650
  867MOL0     C16932   7.435   0.005   8.833 -0.9340 -0.5288  0.6962
  867MOL0     C16933   7.538   0.077   8.926 -0.1735 -0.6468 -1.0548
  867MOL0     O16934   7.615   0.161   8.847  0.4277  0.3973 -0.2839
  867MOL0     C16935   7.720   0.232   8.903  0.4821 -0.2678  0.4072
  867MOL0     C16936   7.799   0.318   8.825  0.7391  0.2626 -0.4187
  867MOL0     C16937   7.896   0.395   8.880  0.4580  0.2946  0.6543
  867MOL0     C16938   7.968   0.473   8.775  0.1782  0.4199 -1.0208
  867MOL0     C16939   7.927   0.377   9.020  0.4077 -0.4701 -0.0434
  867MOL0     C16940   8.041   0.439   9.091 -0.1384  0.5235 -0.2156
  867MOL0     O16941   8.031   0.443   9.230  0.1728  0.1039 -0.5081
  867MOL0     C16942   8.130   0.493   9.304 -1.0082  0.4315 -0.8479
  867MOL0     C16943   8.137   0.632   9.304 -0.0541 -0.7154  0.1559
  867MOL0     C16944   8.218   0.700   9.390 -0.9352 -0.1073  0.4546
  867MOL0     C16945   8.303   0.624   9.477  0.6495  0.1771  0.9123
  867MOL0     O16946   8.395   0.677   9.573  0.2010 -1.0030  0.4081
  867MOL0     C16947   8.431   0.819   9.563 -0.5478  0.1193 -0.3570
  867MOL0     C16948   8.521   0.847   9.686  0.0836 -0.2905  0.1456
  867MOL0     C16949   8.588   0.996   9.688 -0.4370 -0.4634  0.5228
  867MOL0     C16950   8.731   0.999   9.632 -0.7188  0.2169  0.6907
  867MOL0     C16951   8.775   1.118   9.549  0.9726 -0.3912  0.9293
  867MOL0     C16952   8.904   1.086   9.460  0.4747 -0.5590  0.0486
  867MOL0     C16953   9.031   1.076   9.548  0.0815  0.0005 -0.1136
  867MOL0     C16954   9.161   1.109   9.466 -0.3983 -0.8283  0.2223
  867MOL0    Cl16955   9.178   0.966   9.361  0.0105  0.1245  0.0053
  867MOL0     C16956   8.292   0.484   9.471 -0.1677 -0.2420 -0.9067
  867MOL0     C16957   8.209   0.414   9.386 -0.4741 -0.6177  0.8973
  867MOL0     O16958   8.141   0.479   9.029  0.1576  0.4229 -0.0923
  867MOL0     C16959   7.844   0.302   9.094  0.1062  0.6518 -0.0451
  867MOL0     C16960   7.748   0.218   9.036  0.6099 -0.1242 -0.5554
  867MOL0     N16961   7.177   0.151   8.962  0.3592 -0.4219  0.1927
  867MOL0     N16962   7.133   0.262   9.019 -0.0218  0.4121 -0.1565
  867MOL0     C16963   7.848   1.168   9.036  0.3260  0.1200 -0.7489
  867MOL0     C16964   7.953   1.263   9.047  0.5873 -1.1117 -0.8275
  867MOL0     C16965   8.349   1.456   9.190  0.5206  0.3443  0.6562
  867MOL0     C16966   8.346   1.547   9.078  0.5477 -0.0787  0.1377
  867MOL0     C16967   8.433   1.654   9.078 -0.0242 -0.5471 -0.0755
  867MOL0     C16968   8.524   1.684   9.178  0.7529 -0.3852 -0.5308
  867MOL0     O16969   8.602   1.797   9.186  0.3571  0.0420 -0.3143
  867MOL0     C16970   8.612   1.906   9.084 -0.4165  0.5121  0.1696
  867MOL0     C16971   8.674   2.025   9.160 -0.0210 -0.7654 -0.6475
  867MOL0     C16972   8.638   2.159   9.092 -1.3870 -0.2057  0.9201
  867MOL0     C16973   8.744   2.183   8.970  0.0158  0.0559  0.0759
  867MOL0     C16974   8.701   2.303   8.902  0.7271 -0.5758 -1.0458
  867MOL0     C16975   8.653   2.404   8.859  1.5764 -0.2252 -1.0334
  867MOL0     C16976   8.542   1.587   9.277 -0.0754 -0.0438 -0.2113
  867MOL0     C16977   8.454   1.471   9.288 -0.1191  1.2831  0.9546
  867MOL0     H16978   8.218   1.049   9.088  0.2685 -0.5094  1.1543
  867MOL0     H16979   8.053   0.886   9.071  1.7621  0.2333  1.0622
  867MOL0     H16980   7.889   0.825   8.881  0.7402  0.2911  0.9199
  867MOL0     H16981   7.879   0.765   9.043  2.2987 -1.8906 -2.4012
  867MOL0     H16982   7.667   0.735   8.832 -0.4453 -0.8487 -0.5841
  867MOL0     H16983   7.744   0.622   8.958 -0.3669  0.7029  0.7771
  867MOL0     H16984   7.646   0.732   9.141 -0.4144  0.6954  0.2245
  867MOL0     H16985   7.541   0.821   9.030  1.6446 -0.1659 -1.8220
  867MOL0     H16986   7.422   0.632   8.958  0.1431  0.6649 -1.2730
  867MOL0     H16987   7.544   0.513   8.987  0.8286  0.5129  0.0291
  867MOL0     H16988   7.505   0.537   9.237 -1.3662  1.3139  0.0797
  867MOL0     H16989   7.384   0.658   9.193 -0.1776 -0.2780 -1.1469
  867MOL0     H16990   7.262   0.474   9.059  0.3660  1.6505  1.0959
  867MOL0     H16991   7.389   0.367   9.130  0.6432 -0.1434  0.7950
  867MOL0     H16992   7.310   0.371   9.347  0.1693 -0.6212 -0.0535
  867MOL0     H16993   7.233   0.528   9.334 -0.2378  1.9718 -2.9208
  867MOL0     H16994   7.053   0.442   9.226  2.3396  2.9938  2.4621
  867MOL0     H16995   7.086   0.317   9.340  0.4982 -1.2664 -0.1235
  867MOL0     H16996   7.230   0.087   9.276 -1.6376 -0.7584 -0.5987
  867MOL0     H16997   7.389  -0.065   9.118  0.0810  1.0340  0.9504
  867MOL0     H16998   7.248  -0.148   9.072  1.6221 -0.6555  1.3403
  867MOL0     H16999   7.258  -0.123   8.852 -2.6285  0.2483  2.3404
  867MOL0     H17000   7.408  -0.190   8.911  0.8160  0.8254 -0.9068
  867MOL0     H17001   7.372   0.086   8.794  1.3439  0.7433 -0.5671
  867MOL0     H17002   7.499  -0.041   8.758 -2.3319 -0.5459 -0.5278
  867MOL0     H17003   7.598   0.006   8.983 -0.7786  1.3868  2.4124
  867MOL0     H17004   7.487   0.143   8.997 -0.6449 -1.8492 -0.2515
  867MOL0     H17005   7.788   0.315   8.718 -2.2696 -0.2657 -0.1737
  867MOL0     H17006   7.985   0.572   8.818  2.7753 -0.5849  0.5118
  867MOL0     H17007   8.067   0.429   8.759  0.7175 -0.1545  2.9551
  867MOL0     H17008   7.903   0.491   8.689 -1.0561  3.4684  0.4383
  867MOL0     H17009   8.069   0.669   9.228 -3.1554 -5.4513  0.2152
  867MOL0     H17010   8.230   0.808   9.389  0.3505 -0.1896  2.1605
  867MOL0     H17011   8.496   0.827   9.475 -0.6634  0.5682 -0.4064
  867MOL0     H17012   8.350   0.891   9.552  0.2679  0.7878 -2.5263
  867MOL0     H17013   8.447   0.852   9.767  0.1862  0.0975  0.2189
  867MOL0     H17014   8.596   0.771   9.707  0.2658 -0.4882 -1.1280
  867MOL0     H17015   8.587   1.033   9.791 -1.5600  1.1329 -0.0187
  867MOL0     H17016   8.515   1.059   9.636 -2.3118  0.3627  3.8443
  867MOL0     H17017   8.805   0.965   9.705 -0.8077  1.0631  1.1852
  867MOL0     H17018   8.725   0.919   9.557 -1.3070  2.6288 -2.0378
  867MOL0     H17019   8.801   1.198   9.618  5.9018  0.4422 -1.5250
  867MOL0     H17020   8.691   1.142   9.484  0.6789  0.7880  1.7188
  867MOL0     H17021   8.887   0.991   9.408  3.9877 -0.9807 -0.5852
  867MOL0     H17022   8.917   1.162   9.383 -0.3627 -0.4882 -0.0254
  867MOL0     H17023   9.044   0.977   9.593  3.4580  0.9191  1.2791
  867MOL0     H17024   9.026   1.146   9.633  1.4059  0.0647 -0.0671
  867MOL0     H17025   9.237   1.119   9.544  0.3243 -2.3887 -0.2373
  867MOL0     H17026   9.152   1.204   9.413 -0.1251 -1.0920 -0.3031
  867MOL0     H17027   8.354   0.428   9.540  0.6607 -0.5052 -1.8351
  867MOL0     H17028   8.218   0.306   9.390  3.0834 -0.4035  4.0263
  867MOL0     H17029   7.864   0.290   9.200 -1.5365 -2.6436  0.0280
  867MOL0     H17030   7.680   0.167   9.103 -0.2914 -0.0791 -1.4232
  867MOL0     H17031   7.750   1.209   9.017  1.3912  3.2098 -0.1509
  867MOL0     H17032   7.930   1.368   9.041 -2.7092 -1.6435  0.4571
  867MOL0     H17033   8.294   1.524   8.986 -0.2135 -0.7144  0.7153
  867MOL0     H17034   8.438   1.715   8.988 -0.6380 -0.9774 -0.4127
  867MOL0     H17035   8.672   1.870   9.000 -0.9832  0.9334 -0.4235
  867MOL0     H17036   8.515   1.943   9.050 -0.7844 -2.2200 -2.1155
  867MOL0     H17037   8.782   2.013   9.171  0.3929  2.5255 -0.1877
  867MOL0     H17038   8.641   2.036   9.264  1.4172  0.6368 -0.3089
  867MOL0     H17039   8.654   2.241   9.163  0.0104  0.7193 -0.3821
  867MOL0     H17040   8.534   2.155   9.059 -0.9768  1.0975 -0.6815
  867MOL0     H17041   8.757   2.100   8.900  3.0845  0.3463  0.1714
  867MOL0     H17042   8.844   2.190   9.015 -0.2474 -1.0897  0.8695
  867MOL0     H17043   8.618   2.492   8.810  1.5392 -0.9653 -2.3995
  867MOL0     H17044   8.620   1.594   9.353  0.9653 -0.8404 -1.1743
  867MOL0     H17045   8.476   1.409   9.374  0.6793 -0.6171 -0.5592
  868MOL0     O17046  10.256   8.250   7.226 -0.0788 -0.3423 -0.5992
  868MOL0     C17047  10.274   8.195   7.335  0.9010 -0.0258  0.2111
  868MOL0     O17048  10.227   8.074   7.366 -0.1528  0.1081  0.0102
  868MOL0     C17049  10.112   8.017   7.309 -1.2335 -0.8543  0.0794
  868MOL0     C17050  10.012   8.085   7.247 -0.3681  0.7903  0.5631
  868MOL0     C17051   9.903   8.017   7.193  0.6894  0.6892  0.0083
  868MOL0     C17052   9.892   7.878   7.201 -0.3124 -0.3548 -0.3188
  868MOL0     O17053   9.802   7.799   7.132 -0.0834 -0.1501  0.2900
  868MOL0     C17054   9.670   7.836   7.122 -0.1507 -0.5123 -0.3642
  868MOL0     C17055   9.578   7.790   7.242 -0.6052 -0.7307 -0.3145
  868MOL0     C17056   9.428   7.806   7.203 -0.4229 -0.4116  0.0227
  868MOL0     C17057   9.342   7.788   7.331  0.2505 -0.2716 -0.0154
  868MOL0     C17058   9.193   7.798   7.299 -1.0267 -0.1326 -0.6972
  868MOL0     C17059   9.107   7.743   7.410  0.4926 -0.0705 -0.1214
  868MOL0     C17060   8.965   7.804   7.424 -0.3421 -0.0577 -0.4884
  868MOL0     C17061   8.914   7.808   7.571  0.0573  0.1470  0.4320
  868MOL0     N17062   8.770   7.841   7.581  0.5261  0.4319 -0.6647
  868MOL0     C17063   8.712   7.948   7.642  0.2421 -0.4275 -0.1826
  868MOL0     C17064   8.577   7.936   7.606 -0.9208  0.3614 -0.4514
  868MOL0     C17065   8.460   8.018   7.664 -1.0394  0.8140  0.5790
  868MOL0     C17066   8.409   7.985   7.803 -0.3607  1.3136  0.6411
  868MOL0     C17067   8.317   7.863   7.783 -0.3524  0.4516  0.6399
  868MOL0     C17068   8.268   7.806   7.923 -0.0099  0.0211  0.4247
  868MOL0     O17069   8.190   7.907   7.977 -0.3525  0.1944  0.3077
  868MOL0     C17070   8.058   7.893   7.953  0.0318  0.3621 -1.0899
  868MOL0     C17071   7.991   7.997   7.903  0.1248  0.2971  0.1254
  868MOL0     C17072   7.848   7.998   7.891 -0.1878 -0.2433  0.2165
  868MOL0     C17073   7.796   8.125   7.814 -0.3041  0.3773  0.2091
  868MOL0     C17074   7.772   7.894   7.943  0.6451 -0.0339  0.4580
  868MOL0     C17075   7.620   7.891   7.931  0.8845  0.1172 -0.7845
  868MOL0     O17076   7.551   7.802   8.013 -0.2842 -0.3476  0.7844
  868MOL0     C17077   7.417   7.769   7.996 -0.0188 -0.5673  0.1180
  868MOL0     C17078   7.308   7.863   8.018 -0.4225  1.0117 -0.0787
  868MOL0     C17079   7.179   7.826   7.996 -0.3297 -0.3955  0.6851
  868MOL0     C17080   7.152   7.695   7.962  0.1592 -0.0011 -0.4870
  868MOL0     O17081   7.017   7.681   7.951  0.5610  0.2425 -0.3852
  868MOL0     C17082   6.952   7.556   7.957 -0.3096  0.3693  0.2435
  868MOL0     C17083   6.819   7.567   7.884 -0.3595 -0.0112 -0.7043
  868MOL0     C17084   6.721   7.464   7.928  0.6227  0.7157 -0.2305
  868MOL0     C17085   6.597   7.480   7.839  0.6636  0.2311 -0.1402
  868MOL0     C17086   6.472   7.424   7.900 -0.4828  0.0401 -0.5151
  868MOL0     C17087   6.367   7.430   7.799  0.4228 -0.0149  0.4365
  868MOL0     C17088   6.220   7.428   7.853  0.2229 -0.6193 -0.0116
  868MOL0     C17089   6.121   7.464   7.746  0.2685 -0.5743  0.1670
  868MOL0    Cl17090   6.132   7.353   7.592 -0.0800 -0.3629 -0.2975
  868MOL0     C17091   7.255   7.600   7.945 -0.7114  0.3924  0.5708
  868MOL0     C17092   7.391   7.638   7.955  0.0844  0.3411  0.3673
  868MOL0     O17093   7.560   7.965   7.848 -0.1795  0.0359  0.1383
  868MOL0     C17094   7.842   7.784   7.998 -0.7512  0.1521 -0.3113
  868MOL0     C17095   7.985   7.782   7.997 -0.1247 -0.1805 -0.0116
  868MOL0     N17096   8.559   7.842   7.513  0.0362  0.5486 -0.3086
  868MOL0     N17097   8.671   7.777   7.510 -0.4107 -0.5100  0.5357
  868MOL0     C17098  10.003   7.815   7.263  0.7221 -0.0441 -0.1841
  868MOL0     C17099  10.110   7.884   7.310  0.1338  0.4305  0.0122
  868MOL0     C17100  10.346   8.273   7.437  0.0148  0.1063  0.1234
  868MOL0     C17101  10.358   8.218   7.569  0.2994  0.2757  0.4903
  868MOL0     C17102  10.419   8.300   7.661 -1.1070  0.9129 -0.5691
  868MOL0     C17103  10.469   8.433   7.636  0.4408  0.3874 -0.2011
  868MOL0     O17104  10.538   8.516   7.730  0.4636  0.0800  0.1972
  868MOL0     C17105  10.573   8.471   7.861 -0.3286  0.0935 -0.2845
  868MOL0     C17106  10.552   8.597   7.953 -0.0378  0.6627 -0.4627
  868MOL0     C17107  10.591   8.552   8.101  0.1827 -0.1181 -0.9668
  868MOL0     C17108  10.583   8.674   8.201 -0.2006  0.9339 -0.9580
  868MOL0     C17109  10.440   8.700   8.219  0.8291  0.3903  0.5803
  868MOL0     C17110  10.323   8.724   8.240 -0.7809  0.4705 -0.2495
  868MOL0     C17111  10.445   8.485   7.511 -0.9942  0.1240 -0.1151
  868MOL0     C17112  10.386   8.407   7.410 -1.0541 -0.5483  0.3589
  868MOL0     H17113  10.018   8.194   7.254 -1.7920  0.7973  2.9195
  868MOL0     H17114   9.825   8.069   7.139 -0.2878 -0.4081  0.3357
  868MOL0     H17115   9.658   7.944   7.108 -1.9540 -0.6192  0.1019
  868MOL0     H17116   9.637   7.789   7.029  3.2197  0.3487 -2.1808
  868MOL0     H17117   9.596   7.687   7.274 -2.4022 -1.1267 -0.4723
  868MOL0     H17118   9.596   7.843   7.336 -1.6894 -1.9822  0.6343
  868MOL0     H17119   9.400   7.902   7.157 -2.5969  0.3660  2.7261
  868MOL0     H17120   9.397   7.728   7.133 -0.6941 -0.5735  0.3236
  868MOL0     H17121   9.362   7.694   7.384 -0.6498  0.9085  2.5881
  868MOL0     H17122   9.372   7.865   7.403  0.5013 -1.0907  0.7822
  868MOL0     H17123   9.154   7.898   7.277 -3.6916 -1.1732 -1.0575
  868MOL0     H17124   9.172   7.750   7.203  1.0299 -0.3355 -1.1107
  868MOL0     H17125   9.095   7.634   7.398  0.0792 -0.1706  1.0726
  868MOL0     H17126   9.154   7.752   7.508  1.9837 -1.3838 -0.6653
  868MOL0     H17127   8.977   7.911   7.402  3.2443  0.0940  1.4947
  868MOL0     H17128   8.893   7.751   7.361 -3.0129  1.7116  0.8579
  868MOL0     H17129   8.974   7.866   7.642  2.8417 -2.0436  0.0290
  868MOL0     H17130   8.926   7.704   7.602  1.9744 -0.3576 -1.7321
  868MOL0     H17131   8.770   8.013   7.708  1.7087  1.8188 -3.4315
  868MOL0     H17132   8.501   8.119   7.656 -0.7153  0.6510  0.1560
  868MOL0     H17133   8.380   8.007   7.590 -0.0718 -1.5709 -0.2454
  868MOL0     H17134   8.349   8.072   7.831 -2.1019 -0.2414  2.0066
  868MOL0     H17135   8.496   7.970   7.868  0.7821 -0.5652 -1.2062
  868MOL0     H17136   8.370   7.785   7.727 -1.6594 -0.9428  1.2632
  868MOL0     H17137   8.233   7.887   7.718 -1.3736  3.4802  2.8633
  868MOL0     H17138   8.348   7.788   7.994  0.3540 -1.3293 -0.2920
  868MOL0     H17139   8.227   7.709   7.892 -1.4528  1.3642 -2.3090
  868MOL0     H17140   8.053   8.083   7.879  1.0907 -0.3633  0.2016
  868MOL0     H17141   7.713   8.105   7.746 -0.4895 -1.2043  0.8716
  868MOL0     H17142   7.758   8.208   7.874 -2.3241  1.3520 -2.2465
  868MOL0     H17143   7.881   8.165   7.758 -0.0071 -0.0488  0.3495
  868MOL0     H17144   7.316   7.960   8.066 -3.8970  1.8071 -0.8692
  868MOL0     H17145   7.097   7.895   8.014 -1.9148 -2.4350  1.5145
  868MOL0     H17146   7.018   7.483   7.909  1.6952  0.9688  1.9500
  868MOL0     H17147   6.940   7.531   8.063 -1.2768  0.5426  0.1845
  868MOL0     H17148   6.780   7.668   7.900  0.2587  0.4989 -2.2663
  868MOL0     H17149   6.843   7.572   7.777 -0.9021 -2.1707 -0.9706
  868MOL0     H17150   6.700   7.491   8.032  1.7489  0.7188  0.0032
  868MOL0     H17151   6.765   7.364   7.923  1.1478  0.8969  0.6572
  868MOL0     H17152   6.574   7.587   7.831 -2.9722 -0.1326  2.4145
  868MOL0     H17153   6.601   7.450   7.734 -0.2591  1.4616 -0.5530
  868MOL0     H17154   6.445   7.489   7.984  0.4597 -2.2200  1.6644
  868MOL0     H17155   6.476   7.324   7.944 -1.6555  1.0964  2.1770
  868MOL0     H17156   6.372   7.529   7.753 -0.3718  0.0306  0.4421
  868MOL0     H17157   6.382   7.349   7.727  0.2555 -2.7081  3.2406
  868MOL0     H17158   6.210   7.499   7.935  0.0611  1.4715 -1.7640
  868MOL0     H17159   6.202   7.327   7.893  0.6084 -0.3277  0.9261
  868MOL0     H17160   6.138   7.571   7.731  0.4723 -0.7203 -0.7518
  868MOL0     H17161   6.020   7.459   7.789 -0.8821  0.5129 -2.2007
  868MOL0     H17162   7.237   7.496   7.919  0.3070  0.5716 -0.9514
  868MOL0     H17163   7.467   7.565   7.929 -1.6599 -2.0708  1.6017
  868MOL0     H17164   7.800   7.695   8.045  1.7134 -0.7368  0.3790
  868MOL0     H17165   8.027   7.694   8.044 -0.2502 -0.5849 -0.6396
  868MOL0     H17166   9.998   7.707   7.263 -0.8123 -0.0417  2.0616
  868MOL0     H17167  10.185   7.825   7.363  0.7190  1.5976  0.5179
  868MOL0     H17168  10.325   8.118   7.597  1.5996  0.1970  1.8964
  868MOL0     H17169  10.431   8.250   7.756  0.3099  1.0378 -0.6705
  868MOL0     H17170  10.514   8.387   7.899  0.1005  0.9146  2.3977
  868MOL0     H17171  10.676   8.435   7.856 -0.1965  0.3752  0.3124
  868MOL0     H17172  10.449   8.636   7.953 -0.1181  0.4653  0.2736
  868MOL0     H17173  10.624   8.676   7.930  0.1556  0.5421 -0.2782
  868MOL0     H17174  10.686   8.499   8.099 -1.0485 -2.4945 -0.2880
  868MOL0     H17175  10.521   8.476   8.136 -2.3374  1.1664 -2.8403
  868MOL0     H17176  10.626   8.765   8.158 -4.5757  2.7982 -1.9531
  868MOL0     H17177  10.634   8.655   8.296 -1.5310  2.2395  0.0616
  868MOL0     H17178  10.217   8.733   8.253 -0.6994 -0.8947  1.8394
  868MOL0     H17179  10.481   8.585   7.490 -1.5975  0.1897 -0.8827
  868MOL0     H17180  10.368   8.448   7.311 -0.4542 -0.4362  0.2949
  869MOL0     O17181   4.566   1.682   9.901  0.0385  0.5131 -0.1215
  869MOL0     C17182   4.550   1.600   9.809 -0.4052  0.3518 -0.5125
  869MOL0     O17183   4.430   1.551   9.762 -0.3045  0.3558 -0.1850
  869MOL0     C17184   4.314   1.586   9.815  0.2631 -0.2031 -0.1052
  869MOL0     C17185   4.211   1.590   9.729  0.5860 -0.0558  0.3807
  869MOL0     C17186   4.072   1.598   9.774  0.4445  0.2109  0.4891
  869MOL0     C17187   4.035   1.605   9.898 -0.7601 -0.3934 -0.9292
  869MOL0     O17188   3.909   1.605   9.959 -0.0660 -0.7570  0.0550
  869MOL0     C17189   3.796   1.563   9.877 -0.3702 -0.3454 -0.3753
  869MOL0     C17190   3.670   1.534   9.947  0.2721  0.0454  0.0221
  869MOL0     C17191   3.551   1.508   9.849 -0.2182 -0.4761 -0.7684
  869MOL0     C17192   3.586   1.401   9.747 -0.3153 -0.0196  0.7101
  869MOL0     C17193   3.459   1.366   9.667 -0.7246 -0.7808  0.6247
  869MOL0     C17194   3.419   1.480   9.569  0.4635  1.0302  0.6821
  869MOL0     C17195   3.311   1.438   9.465  0.0680 -0.1969  0.1605
  869MOL0     C17196   3.177   1.406   9.525 -0.5408  0.4018 -0.1993
  869MOL0     N17197   3.126   1.516   9.610 -0.2349  0.3037  0.3135
  869MOL0     C17198   3.024   1.608   9.575 -0.4750  0.2906 -0.2598
  869MOL0     C17199   2.985   1.658   9.698  0.0459 -0.2448 -0.1970
  869MOL0     C17200   2.881   1.755   9.737 -0.0455 -0.7394 -0.8868
  869MOL0     C17201   2.759   1.772   9.645  1.0896 -0.6211 -0.0406
  869MOL0     C17202   2.680   1.894   9.713  0.2197  0.9153  0.0398
  869MOL0     C17203   2.539   1.880   9.653  0.6920  0.4653 -0.0645
  869MOL0     O17204   2.468   1.758   9.698  0.2370  0.7239 -0.1694
  869MOL0     C17205   2.327   1.755   9.688  0.1082  0.3335 -0.0503
  869MOL0     C17206   2.271   1.631   9.708 -0.2712 -0.6134 -0.4518
  869MOL0     C17207   2.132   1.620   9.692  0.1689  1.1524 -0.2383
  869MOL0     C17208   2.071   1.478   9.716 -0.3151  0.0572  0.1027
  869MOL0     C17209   2.047   1.727   9.649 -0.7996  0.0532  0.6109
  869MOL0     C17210   1.900   1.711   9.628  0.1052 -0.2755  0.8518
  869MOL0     O17211   1.835   1.824   9.614  0.5299 -0.4821  0.6692
  869MOL0     C17212   1.698   1.830   9.610 -0.2729  0.2756 -0.0260
  869MOL0     C17213   1.603   1.747   9.556  0.3843  0.8660  0.5622
  869MOL0     C17214   1.466   1.781   9.553  0.0977  0.0610 -0.3153
  869MOL0     C17215   1.418   1.905   9.600  0.0463 -0.4312 -0.2835
  869MOL0     O17216   1.279   1.944   9.597 -0.1730  0.4039 -0.2429
  869MOL0     C17217   1.170   1.841   9.568 -0.4723 -0.6323  0.1447
  869MOL0     C17218   1.148   1.855   9.420  0.4131 -0.2950  0.5670
  869MOL0     C17219   1.036   1.756   9.368 -1.2110  0.5501 -0.8282
  869MOL0     C17220   1.011   1.776   9.220 -0.5887  0.8605  0.3172
  869MOL0     C17221   0.870   1.828   9.192  0.3395  0.4002 -0.2399
  869MOL0     C17222   0.856   1.856   9.045  0.8620  0.5434 -0.2477
  869MOL0     C17223   0.726   1.930   9.023  0.1185 -0.9210 -0.4007
  869MOL0     C17224   0.594   1.843   9.024 -0.1090  0.8694 -0.6959
  869MOL0    Cl17225   0.511   1.862   9.185  0.1855 -0.2547  0.6390
  869MOL0     C17226   1.510   1.982   9.671 -0.0724  0.7937 -0.0910
  869MOL0     C17227   1.650   1.950   9.676 -0.0212  0.5087 -0.2486
  869MOL0     O17228   1.846   1.605   9.631  0.2651  0.3372 -0.5665
  869MOL0     C17229   2.107   1.851   9.638  0.1056  1.0170  0.1872
  869MOL0     C17230   2.248   1.869   9.663 -0.3413  0.1580 -0.2737
  869MOL0     N17231   3.070   1.607   9.790 -0.4647 -0.2597 -0.0201
  869MOL0     N17232   3.156   1.527   9.741  0.2817 -0.6789  0.1892
  869MOL0     C17233   4.143   1.618   9.994 -0.5992  0.5993  1.0929
  869MOL0     C17234   4.282   1.618   9.955  0.2806 -0.4514 -0.3760
  869MOL0     C17235   4.673   1.575   9.731  0.4076  0.4379 -0.4690
  869MOL0     C17236   4.801   1.626   9.761  0.7459 -0.6104 -0.2842
  869MOL0     C17237   4.910   1.599   9.694 -0.6262 -0.0844  0.8522
  869MOL0     C17238   4.906   1.519   9.576  0.0237 -0.3895 -0.2831
  869MOL0     O17239   5.022   1.483   9.503  0.5680 -0.5509 -0.7247
  869MOL0     C17240   5.033   1.562   9.391 -0.4534 -0.6262  0.2652
  869MOL0     C17241   5.164   1.533   9.320  0.1431  0.2266 -0.3291
  869MOL0     C17242   5.193   1.657   9.231 -0.2225 -0.3702  0.6149
  869MOL0     C17243   5.306   1.624   9.132  0.0302  0.0747  0.1336
  869MOL0     C17244   5.432   1.629   9.209  1.1720 -0.4286  0.2194
  869MOL0     C17245   5.543   1.642   9.276 -0.4552  0.1817 -0.4091
  869MOL0     C17246   4.777   1.462   9.543  0.0058  0.3375  0.0835
  869MOL0     C17247   4.660   1.491   9.618 -0.2934  0.6057  0.2608
  869MOL0     H17248   4.231   1.583   9.622 -0.6700  1.9166 -0.0254
  869MOL0     H17249   3.998   1.607   9.695  0.0371  0.1766  0.8639
  869MOL0     H17250   3.789   1.634   9.794 -0.3490  1.3580  1.0301
  869MOL0     H17251   3.827   1.469   9.830  1.4304  1.0328 -2.1355
  869MOL0     H17252   3.685   1.449  10.014  1.0567 -1.4718 -1.9632
  869MOL0     H17253   3.643   1.625  10.000 -0.1062  1.1054 -1.8800
  869MOL0     H17254   3.471   1.472   9.915  0.1620  2.1029  1.2779
  869MOL0     H17255   3.514   1.598   9.799  0.1282 -0.1860 -0.5056
  869MOL0     H17256   3.654   1.444   9.673 -1.9697 -0.5448 -1.2392
  869MOL0     H17257   3.628   1.311   9.793 -0.7746 -1.8964 -2.2715
  869MOL0     H17258   3.482   1.278   9.606  0.4958  0.4174 -0.7264
  869MOL0     H17259   3.384   1.326   9.736 -0.2230 -3.7554 -0.4187
  869MOL0     H17260   3.383   1.568   9.624  0.6593  0.6012  1.5076
  869MOL0     H17261   3.512   1.505   9.518  2.5291 -0.1476  3.6540
  869MOL0     H17262   3.307   1.522   9.395 -1.9633 -0.6792 -0.3640
  869MOL0     H17263   3.357   1.364   9.398  0.6789 -0.1119  0.4772
  869MOL0     H17264   3.175   1.320   9.593 -1.9762 -1.8171 -2.8607
  869MOL0     H17265   3.102   1.393   9.447 -0.6531 -0.3431  0.0245
  869MOL0     H17266   2.976   1.625   9.479 -1.8883  1.2811  0.5838
  869MOL0     H17267   2.851   1.726   9.838 -2.4981 -0.7576 -1.5469
  869MOL0     H17268   2.931   1.852   9.738 -2.0889  0.3744 -1.7835
  869MOL0     H17269   2.698   1.682   9.651  1.4957 -1.0029 -1.3773
  869MOL0     H17270   2.786   1.795   9.542  0.1522 -1.6214 -0.5216
  869MOL0     H17271   2.723   1.993   9.693  2.3652  0.0147 -0.0862
  869MOL0     H17272   2.669   1.882   9.821 -0.6253  0.0190 -0.1336
  869MOL0     H17273   2.545   1.883   9.544 -2.6350 -0.8649 -0.4280
  869MOL0     H17274   2.479   1.966   9.683 -0.3344  1.3167 -4.0336
  869MOL0     H17275   2.330   1.547   9.743 -2.3176 -2.3082 -0.8047
  869MOL0     H17276   2.022   1.438   9.627  0.9695 -2.0117  0.2516
  869MOL0     H17277   2.154   1.412   9.743  1.0854  0.7113 -2.2818
  869MOL0     H17278   2.001   1.480   9.799 -3.8550  0.3579 -2.6684
  869MOL0     H17279   1.639   1.653   9.514 -1.5996  0.6023 -0.6967
  869MOL0     H17280   1.400   1.711   9.503 -1.1287  0.4908  0.6384
  869MOL0     H17281   1.209   1.743   9.599 -1.6276 -1.5278 -1.1118
  869MOL0     H17282   1.077   1.854   9.626 -1.1841 -2.7628 -0.4147
  869MOL0     H17283   1.125   1.957   9.389  1.0141 -1.4143 -4.3534
  869MOL0     H17284   1.242   1.835   9.368 -0.0674 -1.2519  0.0339
  869MOL0     H17285   0.948   1.790   9.423 -0.4615  2.9228 -0.9918
  869MOL0     H17286   1.053   1.648   9.381  1.1615  1.1031  1.6660
  869MOL0     H17287   1.083   1.849   9.181  0.7926 -0.2674  0.6549
  869MOL0     H17288   1.026   1.680   9.170 -0.9375  0.4235  1.0544
  869MOL0     H17289   0.871   1.924   9.243  2.6620  1.0586 -1.3695
  869MOL0     H17290   0.798   1.751   9.224  1.8206 -1.6938 -1.6509
  869MOL0     H17291   0.939   1.914   9.003  0.6060  0.7999 -0.4029
  869MOL0     H17292   0.855   1.760   8.992 -1.5859 -0.4577  1.4438
  869MOL0     H17293   0.725   1.975   8.923 -0.1145 -1.5336 -0.6841
  869MOL0     H17294   0.716   2.013   9.093 -4.4406 -1.2622 -0.3466
  869MOL0     H17295   0.609   1.735   9.014  0.3150  0.3605  3.4396
  869MOL0     H17296   0.529   1.886   8.948 -1.5771  1.6724  0.9661
  869MOL0     H17297   1.484   2.082   9.704  2.8485  0.8621  2.3959
  869MOL0     H17298   1.726   2.019   9.712 -0.5562  1.5897 -1.1082
  869MOL0     H17299   2.055   1.936   9.594 -1.1429  0.0184 -0.3214
  869MOL0     H17300   2.291   1.964   9.635  0.2356 -0.1725 -0.5448
  869MOL0     H17301   4.122   1.625  10.100 -0.3577 -2.5840  1.4452
  869MOL0     H17302   4.348   1.618  10.042 -0.2589 -0.8176  0.0424
  869MOL0     H17303   4.803   1.681   9.854 -1.5967 -0.3960 -0.2842
  869MOL0     H17304   5.005   1.625   9.739 -0.2624 -2.1424  1.3787
  869MOL0     H17305   4.951   1.551   9.320 -0.4951 -0.8256  0.3446
  869MOL0     H17306   5.029   1.667   9.421 -0.9568  0.1137 -2.1527
  869MOL0     H17307   5.150   1.441   9.262 -0.2517  1.2298 -1.8869
  869MOL0     H17308   5.245   1.510   9.390  0.1578  0.9633 -0.0932
  869MOL0     H17309   5.223   1.738   9.298 -0.3232 -1.2442  1.7555
  869MOL0     H17310   5.109   1.667   9.161  2.2911 -1.5532 -2.8288
  869MOL0     H17311   5.301   1.692   9.046  2.5302 -0.2785 -0.3536
  869MOL0     H17312   5.295   1.525   9.088  2.6012 -0.7822  1.2183
  869MOL0     H17313   5.638   1.658   9.323 -0.0799  2.2132 -1.7405
  869MOL0     H17314   4.779   1.388   9.463  1.7227  0.1548  0.2415
  869MOL0     H17315   4.562   1.447   9.599 -0.3209 -0.3236  2.2650
  870MOL0     O17316   7.039   4.187   0.481  0.3580 -0.3140  0.1080
  870MOL0     C17317   7.088   4.295   0.451 -0.0946  0.9876  0.4889
  870MOL0     O17318   7.066   4.420   0.511  0.1149  0.2858 -0.2591
  870MOL0     C17319   6.941   4.437   0.553  0.9652 -0.9521  0.2321
  870MOL0     C17320   6.831   4.440   0.459 -0.1928  0.3673 -0.8269
  870MOL0     C17321   6.702   4.484   0.504 -0.6259 -0.5111  0.2243
  870MOL0     C17322   6.671   4.499   0.639 -0.4420  0.0393  0.2280
  870MOL0     O17323   6.540   4.531   0.677  0.1125  0.3956 -0.2574
  870MOL0     C17324   6.483   4.458   0.792  0.4909 -0.2141  0.0854
  870MOL0     C17325   6.341   4.422   0.755  0.8775  0.0279 -0.3919
  870MOL0     C17326   6.266   4.386   0.882  0.5197  0.0166 -0.3058
  870MOL0     C17327   6.119   4.345   0.854  0.2182 -0.5833  0.2846
  870MOL0     C17328   6.039   4.367   0.985  0.1132 -0.7627 -0.2054
  870MOL0     C17329   5.890   4.391   0.952 -0.8479 -0.1256 -0.1557
  870MOL0     C17330   5.804   4.377   1.075  0.0399 -0.1819  0.4709
  870MOL0     C17331   5.775   4.519   1.142 -0.7373  0.7806 -0.4872
  870MOL0     N17332   5.635   4.559   1.171  0.5254  0.4631  0.2253
  870MOL0     C17333   5.538   4.578   1.072 -0.3243  0.5202 -0.2847
  870MOL0     C17334   5.414   4.560   1.131 -0.2763 -0.7952 -1.2926
  870MOL0     C17335   5.283   4.576   1.073  0.4607 -0.1767  0.0501
  870MOL0     C17336   5.218   4.718   1.090 -0.2303  0.3868  0.1763
  870MOL0     C17337   5.104   4.743   0.995 -0.0066 -0.5117 -0.2342
  870MOL0     C17338   5.156   4.812   0.868  0.1877  0.4253  0.1049
  870MOL0     O17339   5.062   4.795   0.757  1.1640 -0.3598 -0.0320
  870MOL0     C17340   4.944   4.871   0.742 -0.9957 -0.5161 -0.4955
  870MOL0     C17341   4.853   4.807   0.652  0.3255  0.0474  0.2443
  870MOL0     C17342   4.720   4.852   0.650 -0.4196 -0.1075  0.4305
  870MOL0     C17343   4.634   4.785   0.547 -0.6098 -0.1540 -0.0941
  870MOL0     C17344   4.671   4.958   0.729  0.4289 -0.1572 -0.2532
  870MOL0     C17345   4.528   5.005   0.737 -0.0528  0.5921 -0.0795
  870MOL0     O17346   4.512   5.136   0.755  0.1495 -0.2180 -0.7736
  870MOL0     C17347   4.383   5.185   0.767  0.9558  0.3513  0.2850
  870MOL0     C17348   4.325   5.203   0.897 -0.2668  0.3359  1.2696
  870MOL0     C17349   4.193   5.260   0.907 -0.2571 -0.3397 -0.1593
  870MOL0     C17350   4.115   5.297   0.795  0.2703 -0.1362 -0.2326
  870MOL0     O17351   3.997   5.353   0.824 -0.4743  0.7836 -0.2977
  870MOL0     C17352   3.933   5.432   0.717  0.5054 -0.1529 -0.4304
  870MOL0     C17353   3.804   5.489   0.773 -0.2821  0.4257 -0.2262
  870MOL0     C17354   3.705   5.381   0.801  0.1160  0.2237 -0.1267
  870MOL0     C17355   3.569   5.428   0.835  0.2393  0.0538  0.4927
  870MOL0     C17356   3.495   5.498   0.722 -0.6238 -0.4303 -0.1930
  870MOL0     C17357   3.388   5.593   0.770  0.6593  0.6346 -0.3125
  870MOL0     C17358   3.258   5.505   0.803  0.3566  0.4801 -0.0525
  870MOL0     C17359   3.198   5.544   0.947 -0.0504 -0.9199 -0.7414
  870MOL0    Cl17360   3.034   5.485   0.985  0.3833 -0.0285  0.0555
  870MOL0     C17361   4.172   5.288   0.669 -0.2229  0.0942  0.5670
  870MOL0     C17362   4.302   5.224   0.663 -0.8313 -0.5689  1.5230
  870MOL0     O17363   4.437   4.921   0.726 -0.3992 -0.6975 -0.5804
  870MOL0     C17364   4.765   5.015   0.824 -0.1545 -1.0602  0.0688
  870MOL0     C17365   4.900   4.971   0.828 -0.1789 -0.9658 -0.0565
  870MOL0     N17366   5.437   4.547   1.267 -1.3267 -0.0714 -0.2666
  870MOL0     N17367   5.562   4.545   1.286 -0.4498 -0.8597 -0.2739
  870MOL0     C17368   6.777   4.479   0.735 -1.2723  1.3147 -1.0348
  870MOL0     C17369   6.910   4.451   0.691  0.9915  0.9239  0.3064
  870MOL0     C17370   7.222   4.285   0.377 -0.2385  0.8425  0.6542
  870MOL0     C17371   7.295   4.400   0.365  0.4482 -0.7972 -0.5714
  870MOL0     C17372   7.421   4.394   0.300  0.0334  0.6129  0.5374
  870MOL0     C17373   7.481   4.277   0.259 -0.2155 -0.1011  0.1299
  870MOL0     O17374   7.607   4.275   0.210 -0.8626 -0.2458 -0.1766
  870MOL0     C17375   7.671   4.160   0.153  0.7652  0.3973 -0.6215
  870MOL0     C17376   7.814   4.184   0.109 -0.3362  0.8070  0.4560
  870MOL0     C17377   7.900   4.215   0.226 -1.4147  0.7608 -0.2197
  870MOL0     C17378   8.044   4.276   0.184  0.9773 -0.1174 -0.2506
  870MOL0     C17379   8.023   4.417   0.162  0.1484  0.5375  0.6652
  870MOL0     C17380   8.009   4.531   0.121 -0.2648  0.9245  0.4258
  870MOL0     C17381   7.416   4.159   0.284  0.6627 -0.7106  0.5391
  870MOL0     C17382   7.279   4.166   0.333 -0.3731  0.8281 -0.1137
  870MOL0     H17383   6.855   4.409   0.358 -0.5611 -1.1021 -0.4907
  870MOL0     H17384   6.631   4.503   0.425 -1.5721 -0.9918  0.9438
  870MOL0     H17385   6.539   4.364   0.801  0.2521 -0.6161 -2.1458
  870MOL0     H17386   6.487   4.511   0.888  0.6574  0.1882 -0.1416
  870MOL0     H17387   6.296   4.514   0.716 -2.2381 -1.1980  0.0091
  870MOL0     H17388   6.338   4.346   0.677  1.6636 -0.1338 -0.2674
  870MOL0     H17389   6.326   4.314   0.939 -0.5083 -0.2585  0.4488
  870MOL0     H17390   6.264   4.480   0.938 -1.0369  0.3820 -0.9320
  870MOL0     H17391   6.072   4.410   0.779 -0.7089 -0.2400  1.1441
  870MOL0     H17392   6.099   4.243   0.819 -1.6414  0.4014 -1.8129
  870MOL0     H17393   6.052   4.278   1.047  0.3115 -0.4721  0.1753
  870MOL0     H17394   6.088   4.451   1.035  3.2886  0.1874 -4.3574
  870MOL0     H17395   5.880   4.488   0.902  2.7045 -1.2112 -3.4665
  870MOL0     H17396   5.842   4.314   0.891 -1.6546 -1.2979  1.8492
  870MOL0     H17397   5.709   4.327   1.055 -0.6978  0.7312  1.5259
  870MOL0     H17398   5.851   4.317   1.153 -0.0606 -1.7073 -0.6142
  870MOL0     H17399   5.820   4.602   1.087 -1.9069  0.2940 -2.3017
  870MOL0     H17400   5.823   4.518   1.240 -1.6869  0.5412 -0.0023
  870MOL0     H17401   5.560   4.578   0.966  2.0313 -0.8458  0.1263
  870MOL0     H17402   5.300   4.561   0.966  1.4229  0.5701  0.0812
  870MOL0     H17403   5.210   4.504   1.111 -1.7173  1.3503 -1.0221
  870MOL0     H17404   5.299   4.791   1.092  1.2672 -1.2046  0.5274
  870MOL0     H17405   5.164   4.712   1.186 -3.2016 -2.0249 -1.4530
  870MOL0     H17406   5.031   4.807   1.046  0.5079  0.2033 -0.3864
  870MOL0     H17407   5.052   4.649   0.975 -2.3032  0.1859  1.8544
  870MOL0     H17408   5.248   4.765   0.830 -0.7291 -1.2063 -0.2337
  870MOL0     H17409   5.179   4.917   0.885  0.7759  0.1825  0.8361
  870MOL0     H17410   4.892   4.731   0.586  0.9792  1.5919 -1.2168
  870MOL0     H17411   4.661   4.679   0.554  0.5447  0.1794  0.8162
  870MOL0     H17412   4.529   4.771   0.573 -1.0747  0.7786 -1.3723
  870MOL0     H17413   4.663   4.825   0.450  0.5160  0.3078  0.4168
  870MOL0     H17414   4.366   5.154   0.985  0.5133  0.6615  1.0899
  870MOL0     H17415   4.157   5.264   1.009 -3.4688 -0.1677 -1.1920
  870MOL0     H17416   4.005   5.509   0.687  0.9049  1.0740  3.2193
  870MOL0     H17417   3.916   5.376   0.625  1.4620 -3.7557  1.3979
  870MOL0     H17418   3.813   5.544   0.868  0.2096 -0.9970  0.5923
  870MOL0     H17419   3.765   5.559   0.699 -2.2016 -0.7869 -0.4541
  870MOL0     H17420   3.744   5.323   0.885  1.1357  1.1203  0.0427
  870MOL0     H17421   3.690   5.309   0.720 -1.2329 -0.2434  0.4950
  870MOL0     H17422   3.501   5.350   0.869 -0.4845 -0.0891 -1.1893
  870MOL0     H17423   3.590   5.501   0.914  4.5083 -0.8264  0.4182
  870MOL0     H17424   3.460   5.417   0.657 -0.1394 -0.3598 -0.5492
  870MOL0     H17425   3.558   5.559   0.657 -2.0158 -0.8844 -2.0548
  870MOL0     H17426   3.427   5.645   0.857 -0.8549 -0.5816  1.1625
  870MOL0     H17427   3.362   5.661   0.689  0.5059 -0.9070 -1.6139
  870MOL0     H17428   3.273   5.397   0.797  1.2684  0.5987  0.0494
  870MOL0     H17429   3.185   5.530   0.726 -0.1978 -2.2266 -0.4976
  870MOL0     H17430   3.182   5.652   0.939 -0.3122 -1.0322 -2.0634
  870MOL0     H17431   3.265   5.515   1.028 -0.2628 -1.7134 -0.8462
  870MOL0     H17432   4.123   5.313   0.575  0.9779 -1.8259 -0.6600
  870MOL0     H17433   4.335   5.211   0.560 -2.0014  0.9544  0.9105
  870MOL0     H17434   4.727   5.085   0.897 -1.6164 -2.6230  0.8718
  870MOL0     H17435   4.973   5.005   0.900 -1.6777  0.6377  0.7955
  870MOL0     H17436   6.755   4.500   0.839  2.0954  2.7022 -0.4860
  870MOL0     H17437   6.985   4.449   0.770  1.0362  1.2270  0.2709
  870MOL0     H17438   7.266   4.501   0.389  0.8891 -0.9704  0.7907
  870MOL0     H17439   7.484   4.481   0.282  0.6917  0.3482  1.4523
  870MOL0     H17440   7.672   4.071   0.217  1.3200  0.6776 -0.2275
  870MOL0     H17441   7.617   4.139   0.061 -0.0865  0.5739 -0.1692
  870MOL0     H17442   7.823   4.272   0.045 -0.9650  0.4261 -0.1739
  870MOL0     H17443   7.845   4.088   0.067  0.9361  0.4518  2.1012
  870MOL0     H17444   7.930   4.124   0.279  2.0661  2.2595  0.6858
  870MOL0     H17445   7.842   4.280   0.293 -0.1427  0.5014  1.1864
  870MOL0     H17446   8.089   4.220   0.101  2.9508 -2.9236  2.4997
  870MOL0     H17447   8.126   4.265   0.255 -0.0857 -2.8530  0.7048
  870MOL0     H17448   8.005   4.629   0.079 -2.1941  0.9012  0.4658
  870MOL0     H17449   7.463   4.063   0.263 -0.3498 -0.7839 -1.6371
  870MOL0     H17450   7.221   4.075   0.331 -0.8483  1.1218  0.2077
  871MOL0     O17451   1.385   6.802   0.717  0.1669  0.2167 -0.3127
  871MOL0     C17452   1.415   6.774   0.836  0.4456  0.2618  0.9570
  871MOL0     O17453   1.322   6.750   0.929  0.1602 -0.4768 -0.5648
  871MOL0     C17454   1.198   6.709   0.899 -0.3233 -0.5168  0.2205
  871MOL0     C17455   1.104   6.785   0.828 -0.2830  0.2157 -0.0147
  871MOL0     C17456   0.977   6.737   0.802 -0.1464  0.2576  0.2415
  871MOL0     C17457   0.931   6.616   0.857 -0.5140 -0.3225  0.9060
  871MOL0     O17458   0.806   6.554   0.872 -0.3993 -0.1783 -0.5664
  871MOL0     C17459   0.690   6.633   0.857  0.3073 -0.2050 -0.0390
  871MOL0     C17460   0.570   6.536   0.835  0.2042  0.4531 -0.3888
  871MOL0     C17461   0.439   6.617   0.805 -0.1622  0.4513 -0.2027
  871MOL0     C17462   0.320   6.517   0.801 -0.4457  0.4431 -0.4273
  871MOL0     C17463   0.181   6.587   0.783  0.1807 -0.1076 -1.0553
  871MOL0     C17464   0.068   6.485   0.752  0.1348 -0.2423  0.2747
  871MOL0     C17465  -0.073   6.554   0.753 -0.6108 -0.5680 -0.3230
  871MOL0     C17466  -0.139   6.543   0.896 -0.0758 -0.4056  0.0792
  871MOL0     N17467  -0.288   6.576   0.900  0.4207  0.0402 -0.2069
  871MOL0     C17468  -0.381   6.488   0.949 -0.1452 -0.4835 -0.6883
  871MOL0     C17469  -0.489   6.565   0.983 -0.6339 -0.3947  0.0529
  871MOL0     C17470  -0.616   6.509   1.035 -0.3683 -0.4315  0.3958
  871MOL0     C17471  -0.707   6.455   0.924  0.8177  0.6870  0.0335
  871MOL0     C17472  -0.667   6.316   0.876  0.5653 -0.2119 -0.8386
  871MOL0     C17473  -0.774   6.254   0.785  0.2084 -0.4954 -0.3832
  871MOL0     O17474  -0.896   6.237   0.862 -0.8627 -0.3712 -0.1026
  871MOL0     C17475  -1.016   6.234   0.799  0.8661 -0.3735 -0.0587
  871MOL0     C17476  -1.042   6.183   0.670  0.0185 -0.4063  0.2046
  871MOL0     C17477  -1.176   6.160   0.623  0.1223 -0.8815 -0.8754
  871MOL0     C17478  -1.200   6.108   0.481 -0.5045 -0.1933 -0.6174
  871MOL0     C17479  -1.284   6.191   0.705 -0.2764 -0.1152  0.7057
  871MOL0     C17480  -1.426   6.178   0.670  0.2073  0.6232 -0.0019
  871MOL0     O17481  -1.466   6.177   0.544  0.2065  0.0562 -0.6313
  871MOL0     C17482  -1.599   6.194   0.515  0.1066  0.3809  0.8930
  871MOL0     C17483  -1.680   6.086   0.466 -0.0988 -0.3056 -0.0302
  871MOL0     C17484  -1.817   6.108   0.425 -0.3877  0.0017 -0.2432
  871MOL0     C17485  -1.867   6.241   0.426 -0.1199  0.2903  0.1177
  871MOL0     O17486  -1.997   6.278   0.403  0.2579  0.1004  0.1877
  871MOL0     C17487  -2.089   6.178   0.347  0.4705 -0.9499  0.6280
  871MOL0     C17488  -2.236   6.214   0.326 -0.0544 -0.3426  0.3946
  871MOL0     C17489  -2.247   6.366   0.277 -0.0416  0.1414 -0.3703
  871MOL0     C17490  -2.392   6.414   0.258  0.1398  0.2064 -0.2983
  871MOL0     C17491  -2.387   6.519   0.146 -0.3553 -0.0909 -0.4982
  871MOL0     C17492  -2.506   6.616   0.124  0.2436  0.2640 -0.2868
  871MOL0     C17493  -2.637   6.549   0.111 -0.6035  0.2265 -0.1250
  871MOL0     C17494  -2.762   6.641   0.119 -0.4288 -0.6623 -0.1645
  871MOL0    Cl17495  -2.908   6.545   0.101  0.0811 -0.0080 -0.0971
  871MOL0     C17496  -1.783   6.341   0.465 -0.3336  0.2259 -0.3212
  871MOL0     C17497  -1.649   6.320   0.500 -0.2000  0.1599  0.3541
  871MOL0     O17498  -1.505   6.171   0.770  0.5866 -0.1834 -0.1139
  871MOL0     C17499  -1.251   6.252   0.826  0.1581  0.0331 -0.1910
  871MOL0     C17500  -1.125   6.264   0.871 -0.0782  0.1287 -1.0475
  871MOL0     N17501  -0.459   6.696   0.964 -0.1432  0.1163  0.1180
  871MOL0     N17502  -0.337   6.698   0.919 -0.3626 -0.7295 -0.2187
  871MOL0     C17503   1.027   6.545   0.925  0.1324  0.5012 -0.1892
  871MOL0     C17504   1.155   6.582   0.945 -0.2612 -0.4248 -0.1513
  871MOL0     C17505   1.552   6.743   0.868 -0.5199  0.1430 -0.5338
  871MOL0     C17506   1.584   6.725   1.004  0.4329 -0.6634 -0.3075
  871MOL0     C17507   1.711   6.704   1.042 -0.1037  0.8473 -0.2156
  871MOL0     C17508   1.817   6.682   0.950  0.0801 -0.4703  0.2057
  871MOL0     O17509   1.942   6.653   1.006  0.1975 -0.7143 -0.1768
  871MOL0     C17510   2.048   6.643   0.920 -0.6739  0.3095  0.7308
  871MOL0     C17511   2.169   6.555   0.980  0.3174 -0.7034 -0.2897
  871MOL0     C17512   2.144   6.400   0.958  0.2582  0.1827  0.4585
  871MOL0     C17513   2.263   6.309   1.000  1.1281 -0.9840  0.0285
  871MOL0     C17514   2.343   6.351   1.124 -0.6806  0.2166 -0.2511
  871MOL0     C17515   2.416   6.371   1.221 -0.1734 -0.3634  0.2259
  871MOL0     C17516   1.785   6.712   0.814 -0.3598 -0.1297  0.3643
  871MOL0     C17517   1.654   6.727   0.776 -0.1512 -0.1625  0.2072
  871MOL0     H17518   1.132   6.887   0.803  1.0058  0.4637  2.1681
  871MOL0     H17519   0.912   6.801   0.743  0.4609  0.8284  0.1857
  871MOL0     H17520   0.655   6.683   0.948 -1.6996  0.0279 -0.8913
  871MOL0     H17521   0.709   6.700   0.774  3.9891 -0.9807  0.0138
  871MOL0     H17522   0.597   6.468   0.754 -0.4126  0.6964 -0.8070
  871MOL0     H17523   0.553   6.478   0.926 -1.2347 -0.0092 -0.9288
  871MOL0     H17524   0.429   6.681   0.894  3.3605 -1.2868  1.6225
  871MOL0     H17525   0.433   6.679   0.716 -1.3242 -0.8080 -1.0339
  871MOL0     H17526   0.343   6.440   0.727  1.1134  1.7447 -1.3714
  871MOL0     H17527   0.322   6.460   0.895  2.0167  1.3590  0.1587
  871MOL0     H17528   0.163   6.628   0.883  1.1040 -0.9545 -0.5186
  871MOL0     H17529   0.180   6.668   0.710 -0.6129  0.9562  0.0974
  871MOL0     H17530   0.089   6.447   0.652 -0.0841  0.5095 -0.0667
  871MOL0     H17531   0.060   6.394   0.812 -1.6218  1.3552  2.6525
  871MOL0     H17532  -0.072   6.659   0.723  0.1657 -0.1431  1.0947
  871MOL0     H17533  -0.136   6.506   0.677  0.2803  1.4514 -2.4480
  871MOL0     H17534  -0.089   6.618   0.958 -0.8019 -0.0703  0.2731
  871MOL0     H17535  -0.121   6.448   0.946 -1.5887 -0.2304  1.0088
  871MOL0     H17536  -0.368   6.382   0.933 -1.6793 -0.6731 -0.8171
  871MOL0     H17537  -0.605   6.427   1.106 -0.8612 -2.3004 -1.5742
  871MOL0     H17538  -0.658   6.594   1.090  0.9113  0.1152  0.5474
  871MOL0     H17539  -0.719   6.518   0.836 -0.7415  0.5621  0.1321
  871MOL0     H17540  -0.809   6.451   0.964  0.7834  0.6853 -0.0553
  871MOL0     H17541  -0.655   6.256   0.966  1.5592  2.0390  0.5998
  871MOL0     H17542  -0.569   6.319   0.828 -0.8965 -0.2092 -4.1270
  871MOL0     H17543  -0.733   6.158   0.751 -1.3725 -0.4010 -2.7735
  871MOL0     H17544  -0.793   6.316   0.697  0.9967  0.0298 -0.1920
  871MOL0     H17545  -0.954   6.168   0.608 -0.4738 -0.2036 -0.5685
  871MOL0     H17546  -1.204   6.191   0.410 -0.2618  0.1638 -0.2179
  871MOL0     H17547  -1.108   6.056   0.451  1.1208  1.8933  0.4947
  871MOL0     H17548  -1.282   6.037   0.467 -2.5229  1.9455 -0.1668
  871MOL0     H17549  -1.643   5.984   0.472  3.1583  0.6908 -1.2119
  871MOL0     H17550  -1.859   6.016   0.386  0.7094 -0.6188  0.0038
  871MOL0     H17551  -2.053   6.139   0.251 -0.0055  1.7474 -0.7401
  871MOL0     H17552  -2.085   6.088   0.409 -3.9104 -0.1137  2.5036
  871MOL0     H17553  -2.286   6.143   0.259 -2.0728  0.0430  1.4185
  871MOL0     H17554  -2.288   6.186   0.418 -1.1447 -1.7133 -0.6091
  871MOL0     H17555  -2.194   6.373   0.182  1.0425 -2.8868 -0.0930
  871MOL0     H17556  -2.190   6.435   0.340  2.5748 -0.4490 -1.9657
  871MOL0     H17557  -2.457   6.334   0.222 -1.2999  0.9670  0.5067
  871MOL0     H17558  -2.448   6.460   0.340  0.7920 -0.9287  0.8132
  871MOL0     H17559  -2.372   6.479   0.045 -2.9738 -2.2229 -0.1505
  871MOL0     H17560  -2.300   6.582   0.165  1.0976 -2.2618  0.4596
  871MOL0     H17561  -2.508   6.701   0.193 -1.0569  1.2769 -1.5182
  871MOL0     H17562  -2.497   6.654   0.022 -2.1461  0.9639 -0.2982
  871MOL0     H17563  -2.646   6.472   0.189 -1.1383 -0.1574 -0.5597
  871MOL0     H17564  -2.638   6.501   0.013 -1.1376  1.2645 -0.6378
  871MOL0     H17565  -2.756   6.716   0.039 -0.4606 -1.6356 -1.1023
  871MOL0     H17566  -2.764   6.693   0.215  2.4603 -0.5846 -0.0420
  871MOL0     H17567  -1.830   6.439   0.457 -1.3387  0.0828  2.5974
  871MOL0     H17568  -1.586   6.408   0.514  1.7976 -1.3541  1.4183
  871MOL0     H17569  -1.336   6.279   0.889 -0.3352 -3.3687  0.7691
  871MOL0     H17570  -1.102   6.314   0.964 -1.6905  0.3412 -0.7337
  871MOL0     H17571   1.000   6.451   0.972 -2.7358  0.9178 -0.8496
  871MOL0     H17572   1.215   6.520   1.012  0.7341 -0.2522 -0.8602
  871MOL0     H17573   1.517   6.753   1.085 -3.8594  0.4723 -3.8406
  871MOL0     H17574   1.745   6.700   1.144 -0.0755 -0.3752 -0.2620
  871MOL0     H17575   2.015   6.581   0.836  0.5728 -0.6688  0.9356
  871MOL0     H17576   2.080   6.737   0.874 -0.9633 -0.2332 -0.6432
  871MOL0     H17577   2.183   6.575   1.087  0.1508  0.9099 -0.5466
  871MOL0     H17578   2.257   6.593   0.928  0.8173 -0.8721  0.4237
  871MOL0     H17579   2.127   6.372   0.853 -0.4003 -2.9403  1.2986
  871MOL0     H17580   2.051   6.369   1.005 -0.1206  2.6106  1.4230
  871MOL0     H17581   2.340   6.307   0.923  0.6373  3.7374 -0.9235
  871MOL0     H17582   2.223   6.211   1.025 -1.7261  0.5997  2.3327
  871MOL0     H17583   2.475   6.391   1.308  0.0941  0.9218 -0.2198
  871MOL0     H17584   1.866   6.712   0.741 -1.2960 -0.7033 -0.6976
  871MOL0     H17585   1.635   6.738   0.670  1.3163  1.6367  0.0749
  872MOL0     O17586  10.388   9.517   4.081  0.0914 -0.1083 -0.3520
  872MOL0     C17587  10.432   9.627   4.106 -0.2522 -0.1773  0.9046
  872MOL0     O17588  10.358   9.740   4.148  0.3824  0.8964 -0.1035
  872MOL0     C17589  10.223   9.717   4.180 -0.1041 -0.3899 -0.3699
  872MOL0     C17590  10.135   9.822   4.152  0.9327 -0.7330 -0.5630
  872MOL0     C17591   9.995   9.816   4.180 -0.1908 -0.4517 -0.2229
  872MOL0     C17592   9.937   9.705   4.241 -0.2074 -0.1001 -0.2216
  872MOL0     O17593   9.801   9.690   4.268 -0.5225  0.1503  0.4566
  872MOL0     C17594   9.711   9.678   4.158 -0.4554  0.1829  0.2409
  872MOL0     C17595   9.583   9.632   4.208  0.6349 -0.2766  0.6847
  872MOL0     C17596   9.459   9.647   4.116  0.7314  0.0875 -0.6181
  872MOL0     C17597   9.333   9.590   4.173  0.9630  0.3629  0.5627
  872MOL0     C17598   9.213   9.590   4.078 -0.2975  0.8181 -0.6865
  872MOL0     C17599   9.085   9.596   4.168 -0.4074 -0.0611 -0.0296
  872MOL0     C17600   8.964   9.615   4.082  0.2573  0.0011 -0.7885
  872MOL0     C17601   8.827   9.593   4.141 -0.5281  0.0631  0.2221
  872MOL0     N17602   8.733   9.637   4.037  0.1038 -0.7039 -0.1172
  872MOL0     C17603   8.715   9.578   3.914 -0.4740  0.5730 -0.4316
  872MOL0     C17604   8.596   9.632   3.872 -0.2401 -0.2310 -0.7197
  872MOL0     C17605   8.507   9.565   3.765 -0.1882 -0.5202  0.9696
  872MOL0     C17606   8.387   9.643   3.705 -0.2017  0.3572 -0.4386
  872MOL0     C17607   8.320   9.586   3.580 -0.1814 -0.3889 -0.7623
  872MOL0     C17608   8.190   9.649   3.538 -0.1081  0.0461 -0.1822
  872MOL0     O17609   8.163   9.591   3.411  0.4855 -0.2713  0.2146
  872MOL0     C17610   8.036   9.601   3.362  0.2824 -0.4701 -0.6884
  872MOL0     C17611   8.001   9.528   3.247  0.6987 -0.2135  0.1328
  872MOL0     C17612   7.878   9.535   3.178 -0.3777 -0.1969  0.0420
  872MOL0     C17613   7.854   9.445   3.058 -0.1094 -0.9244 -1.4427
  872MOL0     C17614   7.780   9.614   3.246  0.2300  0.3384 -0.6264
  872MOL0     C17615   7.635   9.626   3.202  0.0313  0.7219  0.3364
  872MOL0     O17616   7.556   9.662   3.307 -0.6404  0.2099 -0.7454
  872MOL0     C17617   7.422   9.652   3.307 -0.6786  0.1773  0.2689
  872MOL0     C17618   7.347   9.763   3.344 -0.2927  0.0881  0.2910
  872MOL0     C17619   7.206   9.761   3.335 -0.3584  0.8553 -0.1836
  872MOL0     C17620   7.137   9.643   3.299 -0.3985 -0.5651  0.3312
  872MOL0     O17621   7.004   9.646   3.294  0.8076 -1.1282  0.1014
  872MOL0     C17622   6.932   9.529   3.313 -0.2331  0.0241 -0.7439
  872MOL0     C17623   6.786   9.573   3.329 -0.2823  0.3169  0.9513
  872MOL0     C17624   6.723   9.489   3.448 -0.8130  0.6706 -0.4072
  872MOL0     C17625   6.574   9.529   3.462 -0.4851 -0.8282 -0.4154
  872MOL0     C17626   6.523   9.459   3.579  0.1062  0.4773 -0.7606
  872MOL0     C17627   6.389   9.511   3.631  0.1829 -0.2946  0.0421
  872MOL0     C17628   6.274   9.441   3.562 -0.5093 -0.2297 -0.4940
  872MOL0     C17629   6.139   9.479   3.637 -0.8121  0.6737  0.6067
  872MOL0    Cl17630   6.008   9.398   3.565  0.0961 -0.0396 -0.0153
  872MOL0     C17631   7.215   9.529   3.263  0.4850  0.1327 -0.3790
  872MOL0     C17632   7.354   9.532   3.276 -0.2283  0.3954  0.0837
  872MOL0     O17633   7.601   9.609   3.089  0.7037  0.2188  0.0317
  872MOL0     C17634   7.816   9.692   3.358 -0.6331 -1.1060  1.2649
  872MOL0     C17635   7.943   9.695   3.409 -0.6511 -0.4438  0.3821
  872MOL0     N17636   8.540   9.713   3.971 -0.5556  0.1168  0.4881
  872MOL0     N17637   8.634   9.723   4.060 -0.3420  0.0043  0.2596
  872MOL0     C17638  10.031   9.604   4.285  0.5734  0.1173 -0.4086
  872MOL0     C17639  10.173   9.611   4.255 -0.1298 -0.8704 -1.2418
  872MOL0     C17640  10.581   9.635   4.101 -0.2041  0.1077 -0.3137
  872MOL0     C17641  10.652   9.753   4.129 -0.1235  0.3061 -0.7523
  872MOL0     C17642  10.795   9.760   4.125  0.1332  0.6395  0.2604
  872MOL0     C17643  10.866   9.635   4.086 -0.1668 -0.9985  0.2116
  872MOL0     O17644  11.004   9.628   4.064  0.0477  0.4026  0.2438
  872MOL0     C17645  11.077   9.755   4.037  0.2397  1.0777 -0.2463
  872MOL0     C17646  11.205   9.734   3.973 -0.2545 -0.1557  0.2377
  872MOL0     C17647  11.291   9.630   4.041  0.1166 -1.0962  0.4120
  872MOL0     C17648  11.408   9.595   3.940 -0.2853  0.3640  0.5476
  872MOL0     C17649  11.515   9.547   4.023  0.5533  0.2728 -0.4206
  872MOL0     C17650  11.609   9.514   4.088 -0.4672 -0.3563 -0.2190
  872MOL0     C17651  10.796   9.523   4.061 -0.3392 -0.3692 -0.2930
  872MOL0     C17652  10.660   9.526   4.076  0.5336  0.1882  0.6005
  872MOL0     H17653  10.167   9.907   4.092 -0.2409  0.1645  0.0349
  872MOL0     H17654   9.933   9.893   4.136  0.8907  0.9888  0.6625
  872MOL0     H17655   9.710   9.767   4.095  1.8533 -1.3057 -2.0957
  872MOL0     H17656   9.747   9.604   4.086 -0.5715  0.6984 -0.3537
  872MOL0     H17657   9.596   9.531   4.246  3.0088 -1.3109 -2.4005
  872MOL0     H17658   9.561   9.698   4.293 -1.6997  0.1763 -0.2110
  872MOL0     H17659   9.447   9.755   4.104  2.7907  0.2264 -1.8135
  872MOL0     H17660   9.474   9.605   4.017 -1.0140 -0.8161 -0.5394
  872MOL0     H17661   9.344   9.483   4.196 -1.0608  0.7299  3.8875
  872MOL0     H17662   9.309   9.637   4.269 -2.0653 -0.6303  0.4176
  872MOL0     H17663   9.213   9.687   4.027  1.5851  1.6631  0.7780
  872MOL0     H17664   9.209   9.516   3.998 -1.3582 -0.7726  0.7780
  872MOL0     H17665   9.072   9.506   4.230  0.4584  0.7013  1.3104
  872MOL0     H17666   9.098   9.691   4.220 -1.1210  0.2390 -0.3886
  872MOL0     H17667   8.967   9.716   4.040 -2.7415  0.1838 -0.7827
  872MOL0     H17668   8.977   9.545   3.999 -0.9952  0.2302 -1.1910
  872MOL0     H17669   8.817   9.654   4.231 -2.7678  1.6715 -1.0006
  872MOL0     H17670   8.806   9.489   4.167 -4.0959  1.5414  4.5657
  872MOL0     H17671   8.770   9.494   3.874 -0.0541 -0.0404  1.3482
  872MOL0     H17672   8.577   9.545   3.683  0.0090  1.8700  0.5042
  872MOL0     H17673   8.480   9.462   3.791  2.4307 -1.2893  0.9852
  872MOL0     H17674   8.434   9.739   3.681  0.4578 -0.2605 -1.6965
  872MOL0     H17675   8.314   9.655   3.786 -0.1820  2.9661 -0.7252
  872MOL0     H17676   8.303   9.479   3.599  2.1390 -0.7745 -0.5068
  872MOL0     H17677   8.394   9.595   3.500  2.9509  0.4786  2.0088
  872MOL0     H17678   8.190   9.759   3.538 -0.4476  0.0523 -0.7548
  872MOL0     H17679   8.108   9.623   3.606  0.5827 -0.8205  0.3322
  872MOL0     H17680   8.076   9.457   3.214  1.0841  1.8080 -3.9438
  872MOL0     H17681   7.933   9.370   3.048  0.7069 -0.6907  2.1188
  872MOL0     H17682   7.759   9.392   3.072 -1.0011  1.1912  1.6454
  872MOL0     H17683   7.845   9.501   2.964  0.9067  3.9173  1.0074
  872MOL0     H17684   7.399   9.857   3.360 -1.5893  0.9194 -0.1417
  872MOL0     H17685   7.145   9.848   3.356 -2.7937 -0.6118 -0.7754
  872MOL0     H17686   6.939   9.449   3.237  2.1948 -1.1219  0.5718
  872MOL0     H17687   6.963   9.495   3.412 -1.9748  3.3132  1.0689
  872MOL0     H17688   6.785   9.680   3.351 -0.3906  1.2923 -3.0877
  872MOL0     H17689   6.727   9.571   3.237  0.3116  5.3996  0.1607
  872MOL0     H17690   6.776   9.512   3.541  0.3308  3.2827 -1.6064
  872MOL0     H17691   6.729   9.381   3.436 -2.2323  0.6052 -0.7591
  872MOL0     H17692   6.569   9.637   3.478 -1.6908 -0.9434  0.1330
  872MOL0     H17693   6.515   9.508   3.372 -2.7585 -0.7395  0.9673
  872MOL0     H17694   6.594   9.485   3.658  2.0834 -1.5270 -1.7865
  872MOL0     H17695   6.519   9.350   3.570 -3.0009  0.2826  1.4960
  872MOL0     H17696   6.381   9.483   3.736  1.5096 -0.4806  0.1141
  872MOL0     H17697   6.374   9.619   3.625  1.3348 -0.1656 -0.9350
  872MOL0     H17698   6.299   9.336   3.580  1.5358  0.5254  1.7141
  872MOL0     H17699   6.269   9.467   3.456  0.8898 -0.8289 -0.7341
  872MOL0     H17700   6.135   9.589   3.641 -3.6511  0.6107  2.9183
  872MOL0     H17701   6.158   9.430   3.733 -0.5117 -0.9215 -0.2382
  872MOL0     H17702   7.161   9.436   3.247 -1.1893  0.8598  0.7602
  872MOL0     H17703   7.421   9.454   3.240 -0.7242  1.5880 -3.9118
  872MOL0     H17704   7.741   9.762   3.391  0.7427  0.8817  0.4174
  872MOL0     H17705   7.966   9.761   3.492  1.3569 -1.9749  1.1285
  872MOL0     H17706  10.000   9.523   4.350  0.5874 -0.0188 -0.5742
  872MOL0     H17707  10.238   9.526   4.272 -1.1734 -2.0892 -3.0352
  872MOL0     H17708  10.602   9.847   4.150  0.2828  0.4814 -0.5512
  872MOL0     H17709  10.851   9.847   4.157 -1.0947  1.8692 -0.8227
  872MOL0     H17710  11.020   9.825   3.974 -1.1102  1.0671  0.9065
  872MOL0     H17711  11.092   9.814   4.128  1.1820  1.3337 -0.5621
  872MOL0     H17712  11.249   9.834   3.964 -1.1718  0.7395  3.8018
  872MOL0     H17713  11.181   9.688   3.877  3.2349 -1.5969 -0.0773
  872MOL0     H17714  11.229   9.542   4.058  0.6784 -1.9871 -1.8003
  872MOL0     H17715  11.331   9.664   4.137  0.1012  0.9682 -0.2504
  872MOL0     H17716  11.445   9.682   3.884  1.3942  0.0275  1.0943
  872MOL0     H17717  11.374   9.510   3.881  0.0536 -0.2521  1.2268
  872MOL0     H17718  11.687   9.501   4.160  0.6812  4.7671 -0.1635
  872MOL0     H17719  10.845   9.427   4.047 -1.3766 -0.9336 -0.1413
  872MOL0     H17720  10.625   9.425   4.062  1.9574 -0.0389 -1.9483
  873MOL0     O17721   8.319  10.153   5.432 -0.4159  0.7267  0.4540
  873MOL0     C17722   8.430  10.168   5.481 -0.1386  0.2818 -0.6948
  873MOL0     O17723   8.456  10.191   5.610  0.1604  0.3393 -0.1107
  873MOL0     C17724   8.352  10.218   5.693  0.0849 -0.3133  0.4929
  873MOL0     C17725   8.328  10.153   5.822 -1.0507 -0.0542  0.8354
  873MOL0     C17726   8.215  10.183   5.896  0.3321 -0.1335 -0.1513
  873MOL0     C17727   8.125  10.281   5.854 -0.4654  0.2527  0.2514
  873MOL0     O17728   8.020  10.322   5.930 -0.1360  0.2571 -0.0110
  873MOL0     C17729   8.062  10.350   6.063  0.1925  0.2762  0.3525
  873MOL0     C17730   7.975  10.447   6.139  0.1618 -0.2375 -0.0137
  873MOL0     C17731   7.829  10.413   6.130  0.5593  0.3017 -0.1525
  873MOL0     C17732   7.752  10.530   6.186  0.8483 -0.0283 -0.2079
  873MOL0     C17733   7.598  10.520   6.183 -0.0710  0.6706  0.4324
  873MOL0     C17734   7.548  10.491   6.043  0.2969  0.0605 -0.6269
  873MOL0     C17735   7.397  10.473   6.028 -0.3347  0.4262 -0.1777
  873MOL0     C17736   7.328  10.601   6.061 -0.0293 -0.1678 -0.0602
  873MOL0     N17737   7.180  10.600   6.031 -0.7166 -0.3420 -0.2140
  873MOL0     C17738   7.089  10.539   6.110  1.1664  0.9229 -1.8510
  873MOL0     C17739   6.983  10.522   6.037  1.1897  0.4101  0.0495
  873MOL0     C17740   6.867  10.440   6.086  0.1581 -0.1328 -0.4635
  873MOL0     C17741   6.768  10.514   6.168 -0.1966 -0.7693  0.7333
  873MOL0     C17742   6.633  10.434   6.181 -0.4460 -0.1436 -0.4392
  873MOL0     C17743   6.533  10.506   6.267  0.6492 -0.3713 -0.5294
  873MOL0     O17744   6.405  10.439   6.274 -0.1722 -0.3454 -0.4278
  873MOL0     C17745   6.304  10.487   6.363  0.1163 -0.8816 -0.1368
  873MOL0     C17746   6.178  10.430   6.351  0.6369  0.6058  0.1675
  873MOL0     C17747   6.060  10.475   6.410  0.2461  0.7019 -0.4936
  873MOL0     C17748   5.932  10.409   6.364  0.4119  0.0932  0.0749
  873MOL0     C17749   6.063  10.591   6.488 -0.0803 -1.3403 -0.1831
  873MOL0     C17750   5.944  10.646   6.560 -0.9489  0.0829  0.4194
  873MOL0     O17751   5.817  10.646   6.503 -0.7596  0.3537  0.9870
  873MOL0     C17752   5.715  10.712   6.565 -0.2289 -0.0150 -0.5295
  873MOL0     C17753   5.730  10.839   6.618 -0.0803  0.2769  0.7421
  873MOL0     C17754   5.628  10.898   6.686  0.2869  0.0630  0.1254
  873MOL0     C17755   5.500  10.842   6.701 -0.8420  0.0731  0.9100
  873MOL0     O17756   5.400  10.922   6.757 -0.1375 -0.3607 -0.2581
  873MOL0     C17757   5.285  10.926   6.673 -0.3152 -0.0722  0.1632
  873MOL0     C17758   5.213  11.061   6.689  0.6586  0.4541  0.1619
  873MOL0     C17759   5.071  11.070   6.637 -0.1729  0.4569  0.0945
  873MOL0     C17760   5.033  11.220   6.626 -0.2405  0.7092  0.1842
  873MOL0     C17761   4.881  11.244   6.614 -0.1546 -0.4351  0.1328
  873MOL0     C17762   4.821  11.162   6.501 -0.0538 -0.4053  0.6259
  873MOL0     C17763   4.674  11.195   6.504 -0.2067 -0.0611 -0.2940
  873MOL0     C17764   4.618  11.130   6.378  0.4861  0.2482 -0.0429
  873MOL0    Cl17765   4.461  11.206   6.359  0.0975  0.2558 -0.1517
  873MOL0     C17766   5.486  10.713   6.655  0.2496 -0.3059  0.9213
  873MOL0     C17767   5.595  10.645   6.587 -0.7252  0.6241  0.4551
  873MOL0     O17768   5.972  10.700   6.666  0.4121  0.5583  0.3621
  873MOL0     C17769   6.192  10.654   6.504 -0.0714  0.1427  0.6216
  873MOL0     C17770   6.309  10.603   6.439  0.0953 -0.1416 -0.0943
  873MOL0     N17771   7.009  10.570   5.904 -0.0313 -0.3562 -0.1312
  873MOL0     N17772   7.134  10.606   5.904  0.1484  0.0446 -0.4867
  873MOL0     C17773   8.158  10.359   5.743 -0.0248  0.1513  0.0575
  873MOL0     C17774   8.270  10.331   5.662 -0.7610 -0.1268 -0.9047
  873MOL0     C17775   8.546  10.142   5.394  0.2575  0.0959 -0.8636
  873MOL0     C17776   8.543  10.170   5.257  0.4686  0.2034  0.0944
  873MOL0     C17777   8.658  10.177   5.180  0.2370 -0.8324  1.0984
  873MOL0     C17778   8.784  10.143   5.237  0.5029 -0.7539  0.1619
  873MOL0     O17779   8.906  10.159   5.175 -0.3990 -0.6605  0.0275
  873MOL0     C17780   8.928  10.297   5.141 -0.3681  0.2136  0.4133
  873MOL0     C17781   9.073  10.321   5.115 -0.4405  0.1489  0.8585
  873MOL0     C17782   9.107  10.422   5.013 -1.2039 -0.5277  0.2843
  873MOL0     C17783   9.247  10.405   4.944  0.4658 -0.0934  0.1839
  873MOL0     C17784   9.350  10.409   5.046 -0.1948  0.5241  0.5600
  873MOL0     C17785   9.436  10.400   5.135  0.1366 -1.5134  0.9482
  873MOL0     C17786   8.785  10.097   5.368  0.2690 -0.8497 -1.2535
  873MOL0     C17787   8.666  10.100   5.444 -0.1052  0.8205  0.1840
  873MOL0     H17788   8.387  10.077   5.872  0.1909  1.3944  1.6516
  873MOL0     H17789   8.198  10.129   5.989 -0.0328  1.4457  0.7483
  873MOL0     H17790   8.063  10.256   6.119  1.1446 -1.5504 -2.5305
  873MOL0     H17791   8.165  10.385   6.060 -0.0838  1.0444 -0.6398
  873MOL0     H17792   8.012  10.447   6.242 -0.2757 -2.1302  0.1774
  873MOL0     H17793   7.986  10.551   6.106  0.5416 -0.5399 -0.8731
  873MOL0     H17794   7.802  10.388   6.027 -1.0129  0.3664  0.2153
  873MOL0     H17795   7.813  10.325   6.192  1.5900  0.5759  0.5303
  873MOL0     H17796   7.787  10.560   6.285 -0.9199  1.4363  0.0184
  873MOL0     H17797   7.771  10.613   6.118  1.7839 -2.7129 -3.5223
  873MOL0     H17798   7.561  10.452   6.261  3.5271  1.9207  3.5588
  873MOL0     H17799   7.558  10.615   6.219 -0.2820  0.4500  0.7915
  873MOL0     H17800   7.581  10.568   5.973 -0.5413  0.4625 -0.5950
  873MOL0     H17801   7.592  10.398   6.005 -0.4800 -0.1554 -1.0103
  873MOL0     H17802   7.371  10.439   5.928 -1.8128 -1.7101  0.8446
  873MOL0     H17803   7.366  10.385   6.086 -1.7621  0.7798 -0.3717
  873MOL0     H17804   7.367  10.684   6.002 -1.1218 -0.9360 -1.9386
  873MOL0     H17805   7.335  10.627   6.167 -1.4984  0.8299 -0.1752
  873MOL0     H17806   7.085  10.525   6.218 -2.1437 -1.8153 -2.1728
  873MOL0     H17807   6.824  10.396   5.995 -1.7379  0.3319  0.1715
  873MOL0     H17808   6.907  10.359   6.148 -1.5478  0.8900  2.0859
  873MOL0     H17809   6.747  10.609   6.119  1.1609  0.3858  2.2951
  873MOL0     H17810   6.807  10.543   6.266  3.1060  1.5018 -1.0289
  873MOL0     H17811   6.663  10.342   6.232 -0.9430 -0.2374 -0.3130
  873MOL0     H17812   6.588  10.413   6.084  0.6555 -0.3537 -0.9265
  873MOL0     H17813   6.520  10.605   6.221  1.6211 -1.0751 -2.4184
  873MOL0     H17814   6.566  10.511   6.371 -1.2893 -0.2497  0.1130
  873MOL0     H17815   6.171  10.347   6.282 -3.5560  0.6008  0.3638
  873MOL0     H17816   5.874  10.493   6.325  0.0592 -0.4814 -0.6536
  873MOL0     H17817   5.955  10.341   6.282  0.9674  0.2336  0.1095
  873MOL0     H17818   5.881  10.356   6.444  2.6257 -2.4784 -0.0815
  873MOL0     H17819   5.825  10.890   6.605 -0.4410  1.0076  0.8908
  873MOL0     H17820   5.658  10.995   6.725  3.0284 -1.1306  1.2574
  873MOL0     H17821   5.314  10.927   6.568  0.7798 -0.6416  0.4463
  873MOL0     H17822   5.220  10.839   6.693 -3.2792  1.9322 -0.0825
  873MOL0     H17823   5.212  11.081   6.796  2.6217 -0.8069  0.4606
  873MOL0     H17824   5.284  11.126   6.636  2.2200 -3.3418 -2.9099
  873MOL0     H17825   4.994  11.016   6.692 -1.7167  0.9841 -1.4467
  873MOL0     H17826   5.079  11.029   6.536  1.0977 -2.4401  1.2565
  873MOL0     H17827   5.060  11.281   6.713 -2.4747  3.1330 -0.7008
  873MOL0     H17828   5.084  11.267   6.541 -1.7778  3.7761  0.8138
  873MOL0     H17829   4.855  11.351   6.610  1.6371  0.0056 -1.7481
  873MOL0     H17830   4.839  11.198   6.703  3.3752 -2.2441  1.0421
  873MOL0     H17831   4.869  11.177   6.404  1.0670  0.4512  1.2777
  873MOL0     H17832   4.849  11.057   6.515  3.5418  0.2081 -0.8518
  873MOL0     H17833   4.671  11.304   6.493  0.8483 -0.0467 -0.5483
  873MOL0     H17834   4.630  11.156   6.597  1.0329  1.4396  0.9817
  873MOL0     H17835   4.612  11.022   6.391  1.5300 -0.0025 -1.4859
  873MOL0     H17836   4.683  11.147   6.292 -1.1114  0.1152 -1.3271
  873MOL0     H17837   5.386  10.671   6.655 -1.3303  3.0972 -0.1011
  873MOL0     H17838   5.587  10.547   6.541 -1.2252  1.5795 -1.6106
  873MOL0     H17839   6.203  10.738   6.572 -2.0207  0.1045  1.0372
  873MOL0     H17840   6.404  10.655   6.453  0.6232 -1.0456 -0.2287
  873MOL0     H17841   8.097  10.443   5.710  1.4736  0.3942 -2.3171
  873MOL0     H17842   8.285  10.390   5.572  2.1350  0.9605  0.1864
  873MOL0     H17843   8.450  10.194   5.205  1.2056 -1.9321 -2.4303
  873MOL0     H17844   8.654  10.201   5.074 -0.1445 -1.9528  0.8455
  873MOL0     H17845   8.875  10.323   5.048  0.8018 -2.2262 -1.0390
  873MOL0     H17846   8.886  10.352   5.226  1.6298 -0.1858  1.7087
  873MOL0     H17847   9.124  10.227   5.090  0.2377 -1.3252  6.4189
  873MOL0     H17848   9.101  10.353   5.216 -1.5985 -3.2247  2.3879
  873MOL0     H17849   9.099  10.523   5.055  0.0192 -0.0056 -0.6500
  873MOL0     H17850   9.032  10.421   4.933 -0.4778  0.3191 -0.4287
  873MOL0     H17851   9.262  10.493   4.881  1.9782  0.4581  1.2421
  873MOL0     H17852   9.262  10.318   4.880  1.4047 -0.6142  1.0735
  873MOL0     H17853   9.509  10.402   5.213  2.0409  1.0265 -0.7277
  873MOL0     H17854   8.877  10.064   5.415 -0.7232 -1.6817  0.1798
  873MOL0     H17855   8.663  10.069   5.548 -2.6087  0.7003  0.1192
  874MOL0     O17856   3.895   1.653   2.356  0.3926  0.3081 -0.1240
  874MOL0     C17857   3.942   1.602   2.456  0.4013 -0.0522  0.0335
  874MOL0     O17858   3.868   1.530   2.555 -0.8027 -0.2494  0.2026
  874MOL0     C17859   3.738   1.506   2.537 -0.8794  0.4215  0.4032
  874MOL0     C17860   3.680   1.477   2.415  0.0827  0.4341 -0.6505
  874MOL0     C17861   3.546   1.436   2.417  0.1200  0.0737 -0.3564
  874MOL0     C17862   3.475   1.418   2.532  0.7045 -0.4979 -0.4485
  874MOL0     O17863   3.338   1.382   2.524 -0.1859 -0.2277  0.4810
  874MOL0     C17864   3.297   1.255   2.599  0.6700  0.1263 -0.2599
  874MOL0     C17865   3.144   1.246   2.623  0.8443 -0.6655  0.6980
  874MOL0     C17866   3.092   1.116   2.683  0.1642  0.2892  0.1782
  874MOL0     C17867   3.105   0.992   2.598 -0.3812 -0.1811  0.2493
  874MOL0     C17868   3.090   0.862   2.677  0.2758  0.0916 -0.3227
  874MOL0     C17869   2.970   0.846   2.757  0.3530 -0.4297  0.0138
  874MOL0     C17870   2.842   0.843   2.682 -0.1147  0.1004 -1.0392
  874MOL0     C17871   2.724   0.815   2.778  0.1278  0.7174 -0.4650
  874MOL0     N17872   2.696   0.919   2.875  0.7009 -0.1109  0.4851
  874MOL0     C17873   2.638   1.032   2.841  0.0735  0.3576 -0.4674
  874MOL0     C17874   2.575   1.072   2.950  0.2210  0.2973 -0.3816
  874MOL0     C17875   2.487   1.190   2.976 -0.0477  0.1279  0.5559
  874MOL0     C17876   2.346   1.185   2.919  0.3671 -0.0072 -0.4863
  874MOL0     C17877   2.278   1.057   2.972  0.4201  0.2036 -0.3717
  874MOL0     C17878   2.130   1.046   2.960 -0.3812  0.0095  0.5587
  874MOL0     O17879   2.086   0.996   2.834 -0.4539  0.0641 -0.0635
  874MOL0     C17880   1.951   0.972   2.818 -0.3866 -0.2563  0.0864
  874MOL0     C17881   1.851   1.005   2.908  0.1282  0.4308  0.6965
  874MOL0     C17882   1.716   0.981   2.883  0.0574  0.0110  0.1614
  874MOL0     C17883   1.625   1.022   2.997 -0.5022  1.0307  0.5420
  874MOL0     C17884   1.676   0.916   2.760  0.0014  0.0939 -0.7792
  874MOL0     C17885   1.535   0.895   2.720 -0.4598 -0.2393 -0.2796
  874MOL0     O17886   1.506   0.899   2.582 -0.4828 -0.0109  0.1385
  874MOL0     C17887   1.389   0.849   2.542  0.3586 -0.2071  1.1460
  874MOL0     C17888   1.393   0.759   2.438  0.4185  0.5445  0.2402
  874MOL0     C17889   1.271   0.725   2.371 -0.7510  0.2340  0.1049
  874MOL0     C17890   1.148   0.780   2.408  0.0252 -0.0559  0.7412
  874MOL0     O17891   1.022   0.725   2.363  0.0851  0.2057 -0.1733
  874MOL0     C17892   1.009   0.616   2.272 -0.6408 -0.4419 -0.4086
  874MOL0     C17893   0.861   0.584   2.267 -0.4428  0.6958 -1.0605
  874MOL0     C17894   0.759   0.684   2.207 -0.0651  0.2988 -0.4473
  874MOL0     C17895   0.620   0.621   2.228  1.1670  0.1475 -0.1620
  874MOL0     C17896   0.504   0.729   2.239  0.9300  0.6180 -0.1347
  874MOL0     C17897   0.368   0.654   2.243  0.3109 -0.4553 -0.0286
  874MOL0     C17898   0.239   0.752   2.262 -0.1557 -1.4633 -0.0079
  874MOL0     C17899   0.231   0.828   2.132  0.7129  0.5631 -0.3492
  874MOL0    Cl17900   0.060   0.885   2.106  0.1498  0.0551 -0.1817
  874MOL0     C17901   1.143   0.876   2.510  0.6822 -0.2515  1.1084
  874MOL0     C17902   1.265   0.914   2.572 -1.0555 -0.4187 -0.0103
  874MOL0     O17903   1.457   0.878   2.812  0.5262  0.2099  0.1469
  874MOL0     C17904   1.773   0.900   2.664 -0.8931 -0.4163  0.7741
  874MOL0     C17905   1.912   0.919   2.695 -0.5393 -0.3713 -1.0681
  874MOL0     N17906   2.600   0.979   3.048  0.4072  0.2105 -0.2306
  874MOL0     N17907   2.671   0.892   3.001 -0.9066 -0.4563  0.4688
  874MOL0     C17908   3.540   1.442   2.656  0.0947  0.1428 -0.2729
  874MOL0     C17909   3.672   1.476   2.659 -0.7862  0.0222 -0.6994
  874MOL0     C17910   4.083   1.628   2.482  0.0471 -0.0247 -0.0575
  874MOL0     C17911   4.129   1.591   2.606 -1.0081 -0.2481  0.5761
  874MOL0     C17912   4.269   1.596   2.637 -0.1299  0.5054  0.1565
  874MOL0     C17913   4.361   1.641   2.538  0.3525  1.0762  0.6224
  874MOL0     O17914   4.495   1.628   2.566  0.0167  0.4004 -0.1081
  874MOL0     C17915   4.589   1.661   2.469  0.2354  0.2699 -0.0551
  874MOL0     C17916   4.714   1.580   2.487  0.2370  0.1091 -0.5263
  874MOL0     C17917   4.686   1.429   2.474  0.1689 -0.5527  0.1473
  874MOL0     C17918   4.816   1.352   2.507  0.2646 -0.3852 -0.4567
  874MOL0     C17919   4.796   1.212   2.468 -0.1794  0.5653 -0.2640
  874MOL0     C17920   4.783   1.087   2.449  0.0831  0.3889  0.0748
  874MOL0     C17921   4.310   1.679   2.413 -0.6488  0.0227 -0.1173
  874MOL0     C17922   4.173   1.674   2.383  0.2790 -0.1136  0.2150
  874MOL0     H17923   3.716   1.500   2.315 -0.3707  2.7775 -0.3446
  874MOL0     H17924   3.492   1.419   2.324 -0.9770  0.5344  0.1759
  874MOL0     H17925   3.334   1.169   2.543 -2.4569 -0.5240 -1.5540
  874MOL0     H17926   3.334   1.265   2.701  3.2097  0.9743 -1.1786
  874MOL0     H17927   3.130   1.336   2.683 -0.5804  1.0987 -2.0977
  874MOL0     H17928   3.093   1.260   2.527  0.7007  1.8575  1.0909
  874MOL0     H17929   3.151   1.098   2.774  0.0649  0.2257  0.2305
  874MOL0     H17930   2.987   1.127   2.712  0.5460 -1.8119  2.6957
  874MOL0     H17931   3.030   0.993   2.518  0.6068  1.1117 -0.7164
  874MOL0     H17932   3.200   0.988   2.544  0.6497  0.9969  1.8615
  874MOL0     H17933   3.093   0.779   2.605 -1.0940 -0.3132  0.0620
  874MOL0     H17934   3.177   0.849   2.743 -0.8754 -0.3028  1.1679
  874MOL0     H17935   2.973   0.756   2.820 -0.8249 -0.3156  0.2505
  874MOL0     H17936   2.967   0.930   2.827 -1.2247  0.5208 -1.1373
  874MOL0     H17937   2.826   0.940   2.633 -0.0427  1.0243  0.6816
  874MOL0     H17938   2.848   0.757   2.615  0.1186 -0.7996  0.1120
  874MOL0     H17939   2.740   0.722   2.834  0.0235  2.7448  3.2303
  874MOL0     H17940   2.636   0.800   2.715 -0.2335 -0.3912  0.2708
  874MOL0     H17941   2.641   1.084   2.746  2.3748  1.3413  0.0773
  874MOL0     H17942   2.483   1.205   3.084 -0.8904  2.5382  0.2349
  874MOL0     H17943   2.527   1.282   2.932  0.9554 -1.4927 -2.2007
  874MOL0     H17944   2.360   1.179   2.810 -1.2492 -1.3538 -0.6585
  874MOL0     H17945   2.292   1.276   2.948  1.5566 -0.0789  2.2520
  874MOL0     H17946   2.299   1.067   3.079 -0.0606  0.4641 -0.2960
  874MOL0     H17947   2.329   0.967   2.937  0.4684  0.3721 -0.7475
  874MOL0     H17948   2.087   1.141   2.996  1.5248  1.1906 -0.1424
  874MOL0     H17949   2.102   0.970   3.033  0.4364 -0.0857  0.7763
  874MOL0     H17950   1.879   1.062   2.996 -1.0654  0.5856  1.0026
  874MOL0     H17951   1.555   0.943   3.024  1.7580 -0.5329  2.2085
  874MOL0     H17952   1.681   1.049   3.087 -1.3872  1.9724  0.8307
  874MOL0     H17953   1.569   1.112   2.968 -0.7215  0.1320 -2.1467
  874MOL0     H17954   1.488   0.727   2.396 -0.3247  0.0993 -1.1734
  874MOL0     H17955   1.257   0.667   2.280 -3.2674 -2.4293  2.0222
  874MOL0     H17956   1.036   0.639   2.169  0.0239  0.1901 -0.1018
  874MOL0     H17957   1.068   0.533   2.312 -0.2485  0.1574  0.2669
  874MOL0     H17958   0.837   0.494   2.210 -1.4592  1.3945 -1.7663
  874MOL0     H17959   0.833   0.557   2.369  3.2658 -0.9683 -0.3340
  874MOL0     H17960   0.787   0.691   2.102 -0.1207 -1.7109 -0.6346
  874MOL0     H17961   0.773   0.776   2.265  1.7167  0.6144 -1.3046
  874MOL0     H17962   0.599   0.545   2.153 -2.2416  0.2326  0.5719
  874MOL0     H17963   0.616   0.568   2.324 -1.7394  0.1933 -0.1680
  874MOL0     H17964   0.501   0.789   2.148 -1.0317 -0.9327 -1.1860
  874MOL0     H17965   0.529   0.794   2.323 -0.6700  0.9229  0.1281
  874MOL0     H17966   0.346   0.584   2.162  0.3521  0.6620 -1.0175
  874MOL0     H17967   0.364   0.594   2.335 -1.4817 -0.3310  0.0145
  874MOL0     H17968   0.244   0.821   2.347 -0.0326 -2.5095  0.8650
  874MOL0     H17969   0.150   0.693   2.287 -1.0125 -0.7513 -1.2919
  874MOL0     H17970   0.248   0.752   2.055  0.1782  0.7399 -0.6487
  874MOL0     H17971   0.306   0.908   2.122 -1.6109  2.9097 -0.2169
  874MOL0     H17972   1.046   0.915   2.540  0.9233  0.3282  1.1518
  874MOL0     H17973   1.272   0.994   2.645  3.1070 -0.4754 -0.1420
  874MOL0     H17974   1.741   0.877   2.563 -0.8188  0.5807  0.5117
  874MOL0     H17975   1.987   0.896   2.620  1.6183  2.2263  0.1644
  874MOL0     H17976   3.487   1.422   2.749 -0.7176 -2.5359 -1.2124
  874MOL0     H17977   3.710   1.486   2.760 -1.6240  0.0604 -0.3811
  874MOL0     H17978   4.080   1.545   2.691  1.1284 -2.4856  0.7253
  874MOL0     H17979   4.308   1.574   2.736 -0.5349 -0.0571  0.1988
  874MOL0     H17980   4.554   1.647   2.366  2.9443 -2.2902 -0.7903
  874MOL0     H17981   4.632   1.760   2.487 -0.2410  0.0221  2.8528
  874MOL0     H17982   4.742   1.577   2.593 -0.1194 -1.5758 -0.4462
  874MOL0     H17983   4.799   1.619   2.432  0.1063 -0.5079 -1.1809
  874MOL0     H17984   4.647   1.407   2.375 -0.1378 -2.2780  0.6284
  874MOL0     H17985   4.607   1.391   2.538 -1.4573  0.6555 -1.0581
  874MOL0     H17986   4.850   1.372   2.608  0.3934  1.6818 -0.8623
  874MOL0     H17987   4.897   1.394   2.447 -0.0079  1.8278  0.6546
  874MOL0     H17988   4.785   0.980   2.441  0.3143  0.4177 -0.2910
  874MOL0     H17989   4.373   1.725   2.339  1.9177 -0.9223  1.3681
  874MOL0     H17990   4.126   1.707   2.291  0.2932 -1.7454 -0.4006
  875MOL0     O17991  10.109   6.799   1.865 -0.1054  0.2769 -0.1364
  875MOL0     C17992  10.185   6.711   1.837  0.0429  0.0695  0.4384
  875MOL0     O17993  10.154   6.595   1.780  0.4065  0.3278 -0.3528
  875MOL0     C17994  10.026   6.562   1.743 -0.0549  0.3706  0.0437
  875MOL0     C17995  10.007   6.470   1.640 -0.7255  0.3236 -0.2306
  875MOL0     C17996   9.881   6.423   1.610  0.4451 -0.4309  0.3823
  875MOL0     C17997   9.765   6.461   1.682  0.5380  0.6181  0.7081
  875MOL0     O17998   9.642   6.401   1.656  0.4315 -0.2614 -0.6802
  875MOL0     C17999   9.639   6.261   1.689 -0.0198  0.3450 -0.1992
  875MOL0     C18000   9.666   6.221   1.837  0.5407 -0.0958  1.3997
  875MOL0     C18001   9.711   6.069   1.848 -0.5162 -0.3259 -0.3957
  875MOL0     C18002   9.726   6.039   1.992 -0.8019 -0.2891 -0.2648
  875MOL0     C18003   9.829   5.925   2.017  0.1916 -0.1376 -1.0474
  875MOL0     C18004   9.980   5.931   1.974 -0.6031  0.1154  0.6082
  875MOL0     C18005  10.042   6.060   2.009 -1.1098 -0.3891 -0.6534
  875MOL0     C18006  10.184   6.070   1.949 -0.4859  0.4669  1.0996
  875MOL0     N18007  10.240   6.196   1.995  0.4536 -0.1761  0.2991
  875MOL0     C18008  10.324   6.207   2.105 -0.1074  0.2420  0.4756
  875MOL0     C18009  10.338   6.334   2.130 -0.2803 -0.4134 -0.2352
  875MOL0     C18010  10.421   6.397   2.241  0.3174 -0.1128  0.1037
  875MOL0     C18011  10.392   6.337   2.375 -0.1917 -0.1334  0.1660
  875MOL0     C18012  10.495   6.235   2.409 -1.3663  0.6949 -0.4004
  875MOL0     C18013  10.459   6.151   2.527 -0.5813  0.2351  0.8096
  875MOL0     O18014  10.553   6.050   2.554 -0.5575  0.1472  0.8676
  875MOL0     C18015  10.657   6.075   2.645  0.0505 -0.4609 -0.1100
  875MOL0     C18016  10.781   6.016   2.619  0.4379  0.7919  0.5449
  875MOL0     C18017  10.901   6.070   2.673 -1.0176 -0.0512 -0.1885
  875MOL0     C18018  11.015   5.992   2.638 -0.3410  0.3088 -0.8516
  875MOL0     C18019  10.904   6.189   2.749 -0.0731 -0.7118  0.0055
  875MOL0     C18020  11.017   6.266   2.794 -0.4497 -0.1435 -1.8079
  875MOL0     O18021  10.990   6.387   2.853 -0.2274  0.0499 -0.4786
  875MOL0     C18022  11.093   6.455   2.900 -0.4610 -0.1335  0.0676
  875MOL0     C18023  11.182   6.544   2.820  0.0898 -0.2574 -0.2234
  875MOL0     C18024  11.269   6.629   2.887 -1.1271 -0.9858  0.1783
  875MOL0     C18025  11.297   6.625   3.022  0.2737 -0.3860  0.3957
  875MOL0     O18026  11.396   6.694   3.087  0.5593 -0.4634 -0.3439
  875MOL0     C18027  11.467   6.802   3.020  0.3698 -0.1626  0.3950
  875MOL0     C18028  11.389   6.928   3.021 -0.4895 -0.4838  0.3071
  875MOL0     C18029  11.347   6.988   3.150  0.0332  1.2129 -0.1123
  875MOL0     C18030  11.299   7.129   3.135 -0.4812  0.5071  0.8657
  875MOL0     C18031  11.212   7.177   3.247  0.4103  0.3825  0.8108
  875MOL0     C18032  11.274   7.183   3.389 -0.2881 -0.2880  0.3612
  875MOL0     C18033  11.410   7.242   3.397  0.1139 -0.1959  0.3976
  875MOL0     C18034  11.445   7.271   3.533 -0.7606 -0.0231 -0.0483
  875MOL0    Cl18035  11.499   7.125   3.625 -0.0825  0.0487 -0.3169
  875MOL0     C18036  11.232   6.530   3.094  0.5738 -0.5236  0.4998
  875MOL0     C18037  11.129   6.451   3.037 -0.1830  0.3215 -0.3772
  875MOL0     O18038  11.129   6.215   2.785 -0.4906 -0.5860 -0.1785
  875MOL0     C18039  10.778   6.247   2.776 -0.8008 -0.4094 -0.5639
  875MOL0     C18040  10.660   6.190   2.729  0.0694 -0.4740  0.5491
  875MOL0     N18041  10.255   6.409   2.046 -0.8208  0.3679  0.3465
  875MOL0     N18042  10.200   6.327   1.966 -0.5417 -0.1008  0.9869
  875MOL0     C18043   9.781   6.561   1.775  0.2450  0.4152 -0.6173
  875MOL0     C18044   9.907   6.601   1.821  0.1392  0.1045  1.2328
  875MOL0     C18045  10.328   6.739   1.861 -0.0152 -0.8953 -0.9335
  875MOL0     C18046  10.431   6.646   1.869 -0.2339  0.6108 -0.1380
  875MOL0     C18047  10.564   6.681   1.886  0.1055  0.0626  0.9545
  875MOL0     C18048  10.610   6.812   1.895 -0.2102 -0.0824  0.0940
  875MOL0     O18049  10.739   6.852   1.920 -0.4685 -0.1550 -0.0309
  875MOL0     C18050  10.796   6.884   1.784 -0.3290  1.2626 -0.5867
  875MOL0     C18051  10.930   6.942   1.792 -1.5480 -0.3624 -0.1446
  875MOL0     C18052  10.921   7.084   1.851 -0.0939  0.5629  0.9159
  875MOL0     C18053  11.063   7.147   1.853 -0.4631  0.1896  0.1497
  875MOL0     C18054  11.085   7.194   1.720 -0.2830 -0.1481 -0.6358
  875MOL0     C18055  11.113   7.247   1.615  0.1708  0.1318  0.7383
  875MOL0     C18056  10.504   6.908   1.887 -0.9971 -0.4927 -0.3059
  875MOL0     C18057  10.367   6.875   1.884 -0.2426 -0.5207 -1.1494
  875MOL0     H18058  10.095   6.432   1.588 -0.7190  0.9010 -0.6529
  875MOL0     H18059   9.878   6.351   1.529 -0.5725 -0.1514  0.1562
  875MOL0     H18060   9.542   6.216   1.663 -0.3077  0.2540  0.9574
  875MOL0     H18061   9.714   6.216   1.624  0.4482  0.4468  0.2604
  875MOL0     H18062   9.745   6.284   1.879  0.4841  1.5273 -0.7446
  875MOL0     H18063   9.578   6.227   1.901 -0.1799 -1.7197  0.6067
  875MOL0     H18064   9.638   5.999   1.807 -1.9523  1.7663 -1.5944
  875MOL0     H18065   9.805   6.060   1.794 -0.8216  0.0017 -0.9927
  875MOL0     H18066   9.753   6.133   2.041 -1.9014  0.6298 -1.3586
  875MOL0     H18067   9.632   6.009   2.038 -0.8183  1.4418  0.9166
  875MOL0     H18068   9.832   5.911   2.126  0.1027 -0.7801 -1.1258
  875MOL0     H18069   9.785   5.834   1.976 -2.3223  0.4715  0.1047
  875MOL0     H18070  10.042   5.860   2.030 -0.4055  0.0431  0.3006
  875MOL0     H18071   9.993   5.915   1.866 -1.1736  1.0878  0.3822
  875MOL0     H18072   9.974   6.140   1.978  1.1962  1.1141 -2.1133
  875MOL0     H18073  10.067   6.064   2.115 -0.0449 -2.1520 -0.7891
  875MOL0     H18074  10.176   6.076   1.840  2.4423  5.3673  0.8757
  875MOL0     H18075  10.245   5.979   1.958 -1.1694  0.0943  2.0758
  875MOL0     H18076  10.367   6.124   2.159 -2.1159 -2.5184 -1.8206
  875MOL0     H18077  10.529   6.395   2.222  0.9356 -0.6294  3.2076
  875MOL0     H18078  10.386   6.500   2.232  1.7708  0.5389  1.5324
  875MOL0     H18079  10.290   6.298   2.385  0.5432 -2.1687  0.3149
  875MOL0     H18080  10.385   6.418   2.448 -0.9095  4.1865 -4.1758
  875MOL0     H18081  10.586   6.279   2.452 -0.9584  0.6364 -1.1663
  875MOL0     H18082  10.530   6.165   2.333  2.3278 -0.0833  1.7530
  875MOL0     H18083  10.367   6.097   2.503  0.1611 -0.8112  0.2045
  875MOL0     H18084  10.428   6.213   2.612  0.6957  0.0360  1.4465
  875MOL0     H18085  10.779   5.926   2.557  0.2484 -0.3305  2.1218
  875MOL0     H18086  10.985   5.902   2.584 -0.2634  0.3791 -1.0109
  875MOL0     H18087  11.087   6.047   2.578 -0.1715 -0.7458 -1.6434
  875MOL0     H18088  11.059   5.955   2.731 -0.2156  2.5560  0.0399
  875MOL0     H18089  11.166   6.549   2.713 -2.6488 -0.0375  0.1127
  875MOL0     H18090  11.320   6.706   2.831  0.5409 -0.4240  2.3225
  875MOL0     H18091  11.559   6.833   3.070  2.0336 -0.8773 -2.0681
  875MOL0     H18092  11.510   6.772   2.924 -1.9928 -1.9399 -0.2038
  875MOL0     H18093  11.447   7.002   2.965 -1.4081 -1.0561 -1.4541
  875MOL0     H18094  11.299   6.908   2.962 -1.4845  1.3222  1.1508
  875MOL0     H18095  11.426   6.994   3.226 -0.9572  2.9974  0.8405
  875MOL0     H18096  11.259   6.932   3.184 -0.1830  1.2085 -0.6672
  875MOL0     H18097  11.387   7.193   3.123 -0.4529  0.0848 -1.9029
  875MOL0     H18098  11.248   7.131   3.038  2.0080 -0.1605 -0.5395
  875MOL0     H18099  11.117   7.122   3.247  0.5930 -0.0028 -1.2727
  875MOL0     H18100  11.181   7.275   3.210 -1.3131 -0.8991 -1.3907
  875MOL0     H18101  11.208   7.232   3.461 -3.0192  0.9604 -2.7435
  875MOL0     H18102  11.292   7.081   3.422  3.6752 -0.5324 -1.9403
  875MOL0     H18103  11.416   7.337   3.343  0.5588 -1.5109 -2.0224
  875MOL0     H18104  11.485   7.175   3.354 -0.7862  0.2303 -1.9880
  875MOL0     H18105  11.369   7.331   3.583 -1.6133  0.2927 -1.6874
  875MOL0     H18106  11.533   7.335   3.537 -1.3758  0.7940  3.2780
  875MOL0     H18107  11.266   6.531   3.197  0.3637  1.4530  0.5796
  875MOL0     H18108  11.067   6.383   3.095 -1.6924  0.4913 -1.7053
  875MOL0     H18109  10.768   6.328   2.847 -1.4828 -0.4713 -0.5858
  875MOL0     H18110  10.569   6.243   2.754  0.0436 -0.5429  0.6012
  875MOL0     H18111   9.690   6.585   1.830  0.7570  0.2989  0.3040
  875MOL0     H18112   9.905   6.648   1.919  0.2106 -0.4581  1.5058
  875MOL0     H18113  10.406   6.540   1.862  0.7133  0.3879 -0.1726
  875MOL0     H18114  10.638   6.601   1.884 -0.5014 -0.4968  0.2998
  875MOL0     H18115  10.795   6.802   1.711 -1.6008  1.6781 -1.0619
  875MOL0     H18116  10.734   6.959   1.735 -2.6398 -1.5376 -2.3228
  875MOL0     H18117  10.974   6.951   1.692  0.7496  1.1608  0.9023
  875MOL0     H18118  11.000   6.888   1.856 -1.0741  1.5236  1.0005
  875MOL0     H18119  10.887   7.090   1.955  0.9117 -0.2676  1.3233
  875MOL0     H18120  10.853   7.147   1.794 -1.4555 -0.8123  0.9772
  875MOL0     H18121  11.150   7.086   1.881  0.4150  0.7513 -1.2668
  875MOL0     H18122  11.040   7.228   1.923  1.9873  1.4891 -0.4552
  875MOL0     H18123  11.116   7.299   1.522 -4.0699  0.5303  0.6453
  875MOL0     H18124  10.524   7.015   1.897 -0.3283 -0.5844 -0.6558
  875MOL0     H18125  10.287   6.950   1.887  0.4968  0.2667  0.8531
  876MOL0     O18126   7.252   6.798   8.874  0.0193  0.4790 -0.6462
  876MOL0     C18127   7.339   6.780   8.960  0.5785 -0.2596  0.3267
  876MOL0     O18128   7.320   6.746   9.086 -0.0247 -0.0208  0.1342
  876MOL0     C18129   7.196   6.779   9.123  0.1466  0.7910  0.5643
  876MOL0     C18130   7.177   6.898   9.205 -0.1776 -0.3132  0.3571
  876MOL0     C18131   7.054   6.919   9.269 -0.9457 -0.6230 -0.0814
  876MOL0     C18132   6.946   6.854   9.237 -0.5024  0.6577  0.7592
  876MOL0     O18133   6.823   6.897   9.280 -0.1393  0.3656 -0.7103
  876MOL0     C18134   6.708   6.807   9.296 -0.4723 -0.3245  0.1162
  876MOL0     C18135   6.608   6.872   9.379 -0.1778 -0.6478 -0.0154
  876MOL0     C18136   6.539   6.996   9.318  0.4549 -0.3663  0.6533
  876MOL0     C18137   6.414   7.031   9.410  1.0160 -0.2672 -0.6352
  876MOL0     C18138   6.310   7.139   9.362 -0.0410  0.4010 -0.1740
  876MOL0     C18139   6.223   7.083   9.246  0.2234 -0.5334 -0.5367
  876MOL0     C18140   6.123   7.187   9.199  0.7872 -1.1726  0.1237
  876MOL0     C18141   6.180   7.330   9.198  0.1408  0.8992 -0.1881
  876MOL0     N18142   6.098   7.410   9.110 -0.0011  0.2828  0.4284
  876MOL0     C18143   5.975   7.450   9.135  0.1214 -0.0684  0.3932
  876MOL0     C18144   5.947   7.547   9.038 -0.0158  0.1908  0.2695
  876MOL0     C18145   5.814   7.617   9.011  0.1785  0.2855  0.2304
  876MOL0     C18146   5.745   7.565   8.883  0.0758  0.4887 -0.6095
  876MOL0     C18147   5.616   7.481   8.921 -0.0809 -0.7660 -0.4840
  876MOL0     C18148   5.546   7.430   8.784 -0.1329  0.0724 -0.4386
  876MOL0     O18149   5.439   7.334   8.807 -0.3674  0.4984 -0.5922
  876MOL0     C18150   5.318   7.379   8.872  0.2781 -0.1354  0.1401
  876MOL0     C18151   5.234   7.280   8.900  0.8723 -0.2359  0.1229
  876MOL0     C18152   5.099   7.298   8.949  0.8841 -0.3177 -0.5814
  876MOL0     C18153   5.018   7.175   8.966  0.3574  0.4679  0.3484
  876MOL0     C18154   5.051   7.430   8.954 -0.0157  1.1979  0.6514
  876MOL0     C18155   4.909   7.458   8.987 -0.3654  0.0264 -0.1833
  876MOL0     O18156   4.818   7.362   9.027  0.3538  0.1637 -0.2814
  876MOL0     C18157   4.691   7.394   9.063  0.3449 -0.4535 -0.0653
  876MOL0     C18158   4.577   7.342   8.993 -0.3306  0.3831  0.6542
  876MOL0     C18159   4.451   7.358   9.035  0.3101 -0.3619  0.0475
  876MOL0     C18160   4.429   7.446   9.144 -0.4475 -0.7027 -0.0224
  876MOL0     O18161   4.299   7.460   9.183 -0.4240  0.4351 -0.4587
  876MOL0     C18162   4.259   7.584   9.247 -0.0629 -0.7889  0.0093
  876MOL0     C18163   4.109   7.596   9.242  0.4144 -0.2473  0.6392
  876MOL0     C18164   4.056   7.629   9.099 -0.3666 -0.8409 -0.1010
  876MOL0     C18165   3.914   7.666   9.080  0.2836 -0.8197 -0.5271
  876MOL0     C18166   3.892   7.691   8.923 -0.3784  0.1176 -0.6755
  876MOL0     C18167   3.748   7.709   8.882 -0.0632 -0.3772  0.2135
  876MOL0     C18168   3.730   7.705   8.734  0.6819 -0.1012 -0.0954
  876MOL0     C18169   3.771   7.834   8.662 -0.0139 -0.0446  0.2327
  876MOL0    Cl18170   3.703   7.838   8.494  0.1006 -0.0648 -0.5253
  876MOL0     C18171   4.537   7.518   9.200  0.0765  0.2286 -0.5167
  876MOL0     C18172   4.667   7.488   9.158  0.0020 -0.0214  0.0135
  876MOL0     O18173   4.885   7.581   8.989 -0.0477  0.6805  0.3203
  876MOL0     C18174   5.143   7.533   8.930 -0.4351 -0.1847  0.7712
  876MOL0     C18175   5.273   7.507   8.893 -0.4454  0.1793 -0.2613
  876MOL0     N18176   6.056   7.552   8.953  0.7408  0.6289 -0.2176
  876MOL0     N18177   6.145   7.472   8.998  0.1965 -0.0415 -0.3092
  876MOL0     C18178   6.958   6.750   9.147  0.3929  0.3629  1.2010
  876MOL0     C18179   7.082   6.713   9.094  0.0920 -0.8576 -0.1613
  876MOL0     C18180   7.477   6.790   8.907 -0.7632  0.8594 -0.6886
  876MOL0     C18181   7.510   6.787   8.766 -0.2215 -0.3920  0.3940
  876MOL0     C18182   7.646   6.789   8.721  1.1282 -0.1493  0.1112
  876MOL0     C18183   7.751   6.771   8.811 -0.1241 -0.0323  0.2697
  876MOL0     O18184   7.881   6.775   8.760  0.1985  0.0377 -0.0470
  876MOL0     C18185   7.982   6.739   8.853 -0.0674 -0.1262  0.2437
  876MOL0     C18186   8.116   6.712   8.783 -0.9312 -0.0593 -0.1960
  876MOL0     C18187   8.201   6.839   8.778  0.0896  0.4691 -0.2137
  876MOL0     C18188   8.322   6.824   8.694 -0.1269  0.3249 -0.0825
  876MOL0     C18189   8.288   6.795   8.551 -0.7636 -0.7688 -0.1531
  876MOL0     C18190   8.254   6.758   8.442 -0.2252 -1.1301  0.1224
  876MOL0     C18191   7.725   6.750   8.950  0.8056 -1.0436 -1.0338
  876MOL0     C18192   7.586   6.772   8.992 -0.8532 -0.3801 -0.0424
  876MOL0     H18193   7.258   6.963   9.238 -1.7549  1.4708  0.8627
  876MOL0     H18194   7.038   6.998   9.342 -0.7786 -1.5287  0.9655
  876MOL0     H18195   6.672   6.784   9.196 -0.9001 -1.6115  0.5517
  876MOL0     H18196   6.738   6.719   9.355  0.8635  0.6346  0.9201
  876MOL0     H18197   6.535   6.792   9.398  1.9941 -2.4168  1.3657
  876MOL0     H18198   6.646   6.912   9.473 -0.8843  2.2402 -0.8416
  876MOL0     H18199   6.607   7.081   9.309 -1.4610  1.0890 -1.2297
  876MOL0     H18200   6.502   6.978   9.216 -0.9015  0.4953  0.9764
  876MOL0     H18201   6.362   6.941   9.444 -1.9685  1.6408  0.2512
  876MOL0     H18202   6.457   7.064   9.504 -0.2182  0.7051 -0.3838
  876MOL0     H18203   6.247   7.179   9.442 -0.8617 -0.6565 -0.2791
  876MOL0     H18204   6.359   7.230   9.327  0.8977 -0.3068 -0.7507
  876MOL0     H18205   6.281   7.055   9.158  0.0396  0.2383 -0.9091
  876MOL0     H18206   6.169   6.994   9.279  1.0557 -0.7522  0.2967
  876MOL0     H18207   6.094   7.146   9.102  1.2551  1.3613 -1.1762
  876MOL0     H18208   6.029   7.200   9.253 -0.8377  4.1115 -3.1317
  876MOL0     H18209   6.281   7.325   9.157  0.1454  1.3808 -0.2450
  876MOL0     H18210   6.180   7.370   9.300  0.5877  0.2143  0.0864
  876MOL0     H18211   5.914   7.415   9.218  0.2649  0.3053  0.6621
  876MOL0     H18212   5.746   7.601   9.095 -2.0476 -0.9783 -1.6919
  876MOL0     H18213   5.839   7.721   8.991  1.1574 -0.1127 -0.7765
  876MOL0     H18214   5.806   7.492   8.830  1.6329 -0.6075  2.4861
  876MOL0     H18215   5.719   7.642   8.810  2.6060  0.5768 -1.5001
  876MOL0     H18216   5.539   7.533   8.978  0.3284 -2.7817  2.0899
  876MOL0     H18217   5.647   7.395   8.981 -0.1251  1.0204  2.2802
  876MOL0     H18218   5.626   7.378   8.731  2.8270  1.8881  1.9465
  876MOL0     H18219   5.519   7.516   8.722  0.3472 -1.0765 -2.3311
  876MOL0     H18220   5.268   7.178   8.883 -2.2805 -1.1184 -1.6810
  876MOL0     H18221   4.945   7.161   8.886 -0.8103  1.6835  1.1614
  876MOL0     H18222   5.087   7.090   8.960  0.3227  0.4329  0.4395
  876MOL0     H18223   4.968   7.174   9.063  1.3384 -0.4954  0.8618
  876MOL0     H18224   4.601   7.280   8.907  0.2851  0.7230  0.5730
  876MOL0     H18225   4.371   7.305   8.984  2.2134 -0.6809 -2.8452
  876MOL0     H18226   4.280   7.565   9.353  0.6155  1.8120  0.4211
  876MOL0     H18227   4.315   7.671   9.213 -3.0137  0.9564 -0.7559
  876MOL0     H18228   4.070   7.498   9.271  1.4834 -1.6579 -2.3047
  876MOL0     H18229   4.084   7.674   9.315  1.4175  1.7235 -1.0229
  876MOL0     H18230   4.092   7.541   9.045  2.5630 -0.2182  0.6663
  876MOL0     H18231   4.116   7.711   9.058 -0.4546 -0.3937  0.6448
  876MOL0     H18232   3.852   7.579   9.106 -1.7186 -0.0746 -2.4707
  876MOL0     H18233   3.871   7.740   9.148 -2.3796 -1.3043 -1.5431
  876MOL0     H18234   3.936   7.604   8.874 -1.1061 -1.2342  0.9931
  876MOL0     H18235   3.952   7.782   8.909  0.2496  0.1434  1.6974
  876MOL0     H18236   3.695   7.626   8.930 -2.2995  1.5162  1.2418
  876MOL0     H18237   3.705   7.801   8.922  1.7082 -0.2512  2.0305
  876MOL0     H18238   3.622   7.705   8.716  0.6159  5.4271 -1.4120
  876MOL0     H18239   3.771   7.617   8.683 -1.1374 -0.8627 -0.3586
  876MOL0     H18240   3.880   7.829   8.664 -0.0935 -3.1161  1.6670
  876MOL0     H18241   3.726   7.925   8.704 -2.6894 -1.5305  0.8157
  876MOL0     H18242   4.525   7.590   9.280 -1.5107 -1.0343  0.4510
  876MOL0     H18243   4.748   7.537   9.211 -0.5106 -0.1346  0.9201
  876MOL0     H18244   5.110   7.636   8.934 -0.3775 -0.1661  0.7800
  876MOL0     H18245   5.338   7.589   8.862  1.9537 -2.1817 -1.8856
  876MOL0     H18246   6.871   6.701   9.103  0.8675  0.6267 -0.0702
  876MOL0     H18247   7.088   6.637   9.017  4.2552  0.5406 -1.4722
  876MOL0     H18248   7.436   6.818   8.692 -1.0936 -0.9642  1.0057
  876MOL0     H18249   7.668   6.806   8.616  1.2732 -1.3337 -0.0630
  876MOL0     H18250   7.992   6.823   8.923 -2.6681  0.5120 -0.0139
  876MOL0     H18251   7.948   6.647   8.901  0.6727 -1.0680 -0.9905
  876MOL0     H18252   8.098   6.673   8.682 -0.5001  0.0166 -0.3079
  876MOL0     H18253   8.165   6.629   8.835  2.0981 -0.1448 -2.8468
  876MOL0     H18254   8.231   6.862   8.881  3.3796  3.2345 -1.5698
  876MOL0     H18255   8.132   6.913   8.737 -1.2715 -0.2697  0.6976
  876MOL0     H18256   8.378   6.741   8.739  0.3784  0.2108 -0.8919
  876MOL0     H18257   8.378   6.917   8.701 -0.1571  0.2364  1.6148
  876MOL0     H18258   8.237   6.739   8.338 -0.3531 -1.1788  0.1518
  876MOL0     H18259   7.795   6.733   9.031 -0.1662 -1.3195 -0.2321
  876MOL0     H18260   7.565   6.774   9.098  1.1588  0.8339  0.3970
  877MOL0     O18261   3.634   1.466   4.261  0.3136  0.0691 -0.2168
  877MOL0     C18262   3.716   1.456   4.169 -0.1186 -0.2484  0.3546
  877MOL0     O18263   3.688   1.434   4.042  0.1998  0.1165  0.3873
  877MOL0     C18264   3.560   1.453   3.982 -0.2194  0.1888 -0.1178
  877MOL0     C18265   3.435   1.499   4.040  0.4733 -0.3637 -0.1115
  877MOL0     C18266   3.327   1.503   3.957  0.4214  0.3204  0.5274
  877MOL0     C18267   3.328   1.466   3.822  0.0381  0.2828 -0.0145
  877MOL0     O18268   3.216   1.469   3.740  0.4064 -0.2051  0.0208
  877MOL0     C18269   3.088   1.504   3.802 -0.2193 -0.7512  0.1605
  877MOL0     C18270   2.958   1.487   3.716  0.0084 -0.0042 -0.1050
  877MOL0     C18271   2.960   1.354   3.641 -0.1535 -0.1996 -0.1645
  877MOL0     C18272   2.826   1.323   3.588  0.0825  0.1166  0.0985
  877MOL0     C18273   2.813   1.193   3.505 -0.3714  0.2302 -0.9332
  877MOL0     C18274   2.677   1.173   3.441 -0.1007 -0.3641  0.5974
  877MOL0     C18275   2.664   1.046   3.357 -0.0374 -0.2339 -0.6322
  877MOL0     C18276   2.617   0.919   3.433 -0.2849 -0.7448  1.0266
  877MOL0     N18277   2.477   0.915   3.465  0.1520  1.1728 -0.0627
  877MOL0     C18278   2.381   0.834   3.402  0.9271  0.3045 -0.6127
  877MOL0     C18279   2.265   0.856   3.473 -0.1935  0.4315  1.6535
  877MOL0     C18280   2.134   0.794   3.453 -0.2179 -0.1638 -0.8175
  877MOL0     C18281   2.098   0.749   3.306 -0.2654 -0.2088 -0.8561
  877MOL0     C18282   1.951   0.748   3.276  0.1625  0.8418 -0.0124
  877MOL0     C18283   1.862   0.640   3.356  1.2256  0.9301  0.4810
  877MOL0     O18284   1.904   0.508   3.301 -0.0420 -0.1904 -1.0085
  877MOL0     C18285   1.804   0.423   3.276  0.5458 -0.3039 -1.1873
  877MOL0     C18286   1.816   0.338   3.170  0.3497  0.0077  0.9695
  877MOL0     C18287   1.719   0.241   3.139 -0.5321 -0.3053  0.2716
  877MOL0     C18288   1.744   0.155   3.015  0.6238 -0.7022 -0.2910
  877MOL0     C18289   1.613   0.228   3.222 -0.8372  0.6122  0.4882
  877MOL0     C18290   1.512   0.119   3.208  0.4019  0.1563 -0.1757
  877MOL0     O18291   1.420   0.116   3.311 -0.4740  0.6340 -0.3749
  877MOL0     C18292   1.345  -0.003   3.325 -0.7462  0.1673  0.5241
  877MOL0     C18293   1.212  -0.000   3.318  0.3093  0.0585  0.1934
  877MOL0     C18294   1.129  -0.113   3.315  0.3775 -0.1051 -0.2531
  877MOL0     C18295   1.196  -0.235   3.324  0.0063  1.0733 -0.0294
  877MOL0     O18296   1.119  -0.349   3.323  0.1999 -0.0141 -0.7933
  877MOL0     C18297   1.166  -0.472   3.385 -0.4315  0.1286 -0.5128
  877MOL0     C18298   1.051  -0.571   3.394  1.0959  0.2823 -0.1342
  877MOL0     C18299   0.928  -0.547   3.492  0.7515  0.5222 -0.2630
  877MOL0     C18300   0.813  -0.643   3.473 -0.0982  0.5384  0.2077
  877MOL0     C18301   0.699  -0.588   3.386 -0.2909 -0.0095  0.5314
  877MOL0     C18302   0.583  -0.683   3.374  0.7015 -0.1587 -0.4308
  877MOL0     C18303   0.475  -0.617   3.283  0.4339 -0.0343  0.6942
  877MOL0     C18304   0.354  -0.707   3.262  0.3699 -0.1854  1.1088
  877MOL0    Cl18305   0.269  -0.761   3.407 -0.4619 -0.0780 -0.0477
  877MOL0     C18306   1.333  -0.252   3.334  0.1496 -0.0891 -0.6672
  877MOL0     C18307   1.408  -0.129   3.330 -0.3242  0.7377  0.1697
  877MOL0     O18308   1.504   0.046   3.110 -0.3497  0.0108 -0.8877
  877MOL0     C18309   1.597   0.317   3.334 -0.5228  0.1458  0.3520
  877MOL0     C18310   1.693   0.410   3.359  0.3507  0.3370 -0.1969
  877MOL0     N18311   2.285   0.956   3.566  0.9112 -0.5257  0.3717
  877MOL0     N18312   2.407   0.989   3.558 -0.2198 -0.2954  0.2021
  877MOL0     C18313   3.452   1.408   3.775  0.5984 -0.2503  0.7155
  877MOL0     C18314   3.570   1.400   3.850  0.2036  0.4688 -0.4684
  877MOL0     C18315   3.858   1.455   4.205  0.7390  0.1429  0.9233
  877MOL0     C18316   3.954   1.454   4.109  0.8202 -0.7724  0.0283
  877MOL0     C18317   4.083   1.439   4.146 -0.9056  0.1625  0.2640
  877MOL0     C18318   4.129   1.448   4.278  0.7447 -0.4815 -0.3505
  877MOL0     O18319   4.258   1.436   4.315 -0.5757  0.2663  0.3913
  877MOL0     C18320   4.296   1.430   4.455 -0.7836  0.5810  0.0692
  877MOL0     C18321   4.444   1.410   4.460 -0.2981  0.2354  0.4706
  877MOL0     C18322   4.520   1.523   4.396  1.1134  1.5552 -0.4844
  877MOL0     C18323   4.675   1.517   4.420 -0.1041 -0.9432  0.3469
  877MOL0     C18324   4.712   1.498   4.564 -0.0964 -0.1570 -0.4078
  877MOL0     C18325   4.781   1.475   4.671  0.0353 -0.8642 -0.0717
  877MOL0     C18326   4.030   1.463   4.382  0.7277 -0.0456  0.2292
  877MOL0     C18327   3.901   1.460   4.340  0.4135  0.0262 -0.3776
  877MOL0     H18328   3.417   1.527   4.143 -0.5543 -0.3478 -0.2904
  877MOL0     H18329   3.234   1.531   4.007  0.7775 -0.2972  1.5722
  877MOL0     H18330   3.074   1.435   3.886 -1.8957 -1.2484 -0.4878
  877MOL0     H18331   3.091   1.609   3.834  1.9464 -0.3220 -1.1972
  877MOL0     H18332   2.871   1.498   3.781 -1.3095 -1.2548 -1.5790
  877MOL0     H18333   2.960   1.564   3.638 -0.6798 -1.0159 -1.1636
  877MOL0     H18334   3.032   1.368   3.559  1.0641 -2.1321  0.5057
  877MOL0     H18335   3.004   1.273   3.700  1.2508 -0.6194 -1.7009
  877MOL0     H18336   2.763   1.301   3.675  1.6310 -0.7633  1.0399
  877MOL0     H18337   2.782   1.413   3.544 -1.2544 -0.6541 -0.1695
  877MOL0     H18338   2.893   1.199   3.430  1.7268  3.1346  1.2789
  877MOL0     H18339   2.833   1.109   3.572 -1.2089 -0.6205 -1.7257
  877MOL0     H18340   2.612   1.177   3.528  0.4419 -3.1715  1.2447
  877MOL0     H18341   2.663   1.251   3.366 -0.3637 -2.1918 -1.3610
  877MOL0     H18342   2.594   1.068   3.276 -0.4690  0.7121 -0.0194
  877MOL0     H18343   2.760   1.030   3.305  0.2912  1.4355 -0.5872
  877MOL0     H18344   2.671   0.911   3.528 -1.8580  1.1528  2.1738
  877MOL0     H18345   2.642   0.830   3.375 -0.5693 -0.9411  1.1968
  877MOL0     H18346   2.407   0.762   3.325  0.1758 -0.3333 -0.2915
  877MOL0     H18347   2.149   0.708   3.519 -1.3996  0.4305  0.2684
  877MOL0     H18348   2.056   0.865   3.482 -0.3611 -0.6224 -0.0781
  877MOL0     H18349   2.147   0.652   3.296 -0.2719 -0.3686  0.4219
  877MOL0     H18350   2.143   0.821   3.237  4.0483 -0.4418  1.3343
  877MOL0     H18351   1.923   0.741   3.171 -1.2467  0.1944  0.3835
  877MOL0     H18352   1.920   0.846   3.316 -0.1328 -0.5627  3.5953
  877MOL0     H18353   1.757   0.666   3.337  0.7810 -0.2790  1.2204
  877MOL0     H18354   1.871   0.651   3.465 -0.0580  1.2651  0.5701
  877MOL0     H18355   1.902   0.348   3.105  0.3046  0.9008  1.0345
  877MOL0     H18356   1.666   0.181   2.942  1.0748  1.1186 -0.1853
  877MOL0     H18357   1.834   0.198   2.971 -0.3280 -1.2782 -2.9581
  877MOL0     H18358   1.750   0.047   3.030 -1.8869 -1.1094 -1.7348
  877MOL0     H18359   1.180   0.103   3.310  2.3442  0.8448  1.4905
  877MOL0     H18360   1.026  -0.103   3.282  1.0577 -0.9519 -2.8552
  877MOL0     H18361   1.247  -0.507   3.321  1.3122  0.1599  1.5734
  877MOL0     H18362   1.189  -0.456   3.491 -3.1264  0.0006  0.1613
  877MOL0     H18363   1.019  -0.599   3.293 -0.2974 -0.9141  0.5954
  877MOL0     H18364   1.083  -0.668   3.431 -3.0798 -0.3017  2.7022
  877MOL0     H18365   0.900  -0.442   3.486  1.0338  0.5149 -2.3938
  877MOL0     H18366   0.970  -0.555   3.593  0.5853  0.9943 -0.1539
  877MOL0     H18367   0.851  -0.737   3.433 -0.4735  0.2070  0.6168
  877MOL0     H18368   0.772  -0.673   3.570 -0.5227 -1.4350 -0.5453
  877MOL0     H18369   0.730  -0.557   3.285 -0.4948  3.6336  1.4302
  877MOL0     H18370   0.665  -0.496   3.436  2.2230  1.2129  0.1385
  877MOL0     H18371   0.623  -0.778   3.335  2.1379  0.6025 -0.8721
  877MOL0     H18372   0.542  -0.693   3.475 -0.5084 -2.4855 -1.0739
  877MOL0     H18373   0.513  -0.581   3.187 -5.1189  2.4460 -0.9587
  877MOL0     H18374   0.444  -0.522   3.329  0.1873 -0.8409  2.2910
  877MOL0     H18375   0.382  -0.797   3.207  0.9233  0.3305  0.5285
  877MOL0     H18376   0.290  -0.634   3.210  2.3621  0.2724 -0.8405
  877MOL0     H18377   1.388  -0.345   3.334  0.1793 -0.1120  1.3701
  877MOL0     H18378   1.516  -0.128   3.341 -0.3644  0.7491  0.5649
  877MOL0     H18379   1.524   0.309   3.413 -0.9271  0.3015 -0.0025
  877MOL0     H18380   1.687   0.467   3.451 -1.3295  1.3317 -0.8723
  877MOL0     H18381   3.448   1.369   3.674 -3.0176  3.9045 -1.0715
  877MOL0     H18382   3.666   1.362   3.817 -0.0062 -0.0793 -0.4567
  877MOL0     H18383   3.919   1.445   4.007  1.5328 -3.7101 -0.0479
  877MOL0     H18384   4.155   1.401   4.074 -0.9260 -0.3042  0.4841
  877MOL0     H18385   4.278   1.525   4.507  2.3651  0.6686  1.2160
  877MOL0     H18386   4.244   1.351   4.510 -0.1031  0.7347  0.9651
  877MOL0     H18387   4.471   1.312   4.418  2.7023  2.0624 -2.2922
  877MOL0     H18388   4.469   1.410   4.567  3.0428  1.9085 -0.1604
  877MOL0     H18389   4.482   1.619   4.434  3.9079  1.5762  2.7441
  877MOL0     H18390   4.503   1.530   4.288 -0.6850 -0.3441 -0.3981
  877MOL0     H18391   4.722   1.610   4.389  1.7759 -2.0211 -0.2036
  877MOL0     H18392   4.715   1.429   4.368  1.6017 -0.2400  0.4084
  877MOL0     H18393   4.846   1.446   4.751  0.8083 -1.1099 -0.7706
  877MOL0     H18394   4.050   1.465   4.488  0.4718 -0.6515  0.2918
  877MOL0     H18395   3.819   1.463   4.410  0.2941 -1.4327 -0.4095
  878MOL0     O18396   0.007   1.542   1.739 -0.6024 -0.2851  0.7674
  878MOL0     C18397   0.018   1.609   1.848 -0.6202  0.5249  0.7868
  878MOL0     O18398  -0.087   1.661   1.911  0.1504 -0.5701 -1.4418
  878MOL0     C18399  -0.212   1.643   1.869 -0.0825 -0.2740  0.4722
  878MOL0     C18400  -0.256   1.691   1.745 -1.0501  0.0016 -0.4742
  878MOL0     C18401  -0.390   1.689   1.704  0.4744  0.2892 -0.5425
  878MOL0     C18402  -0.478   1.616   1.783 -0.6988  0.2483 -0.0275
  878MOL0     O18403  -0.611   1.598   1.752  0.1674  0.1899 -0.0906
  878MOL0     C18404  -0.670   1.708   1.684 -0.3684  0.5521 -0.3164
  878MOL0     C18405  -0.827   1.701   1.670 -1.4604  0.1114  0.4619
  878MOL0     C18406  -0.859   1.581   1.585  0.5866  0.5846  0.4394
  878MOL0     C18407  -1.008   1.589   1.545 -0.3892  0.2631 -0.3919
  878MOL0     C18408  -1.051   1.445   1.496  0.0553 -0.0140 -0.1339
  878MOL0     C18409  -1.206   1.447   1.470  0.0445  0.1577  0.2047
  878MOL0     C18410  -1.283   1.476   1.603 -0.0047  0.8592  0.1684
  878MOL0     C18411  -1.435   1.472   1.578 -0.2272 -0.3981 -1.3660
  878MOL0     N18412  -1.506   1.438   1.700 -0.7719  0.7295  0.0435
  878MOL0     C18413  -1.564   1.313   1.727 -1.2380  0.4584  0.6734
  878MOL0     C18414  -1.620   1.328   1.852 -0.1935 -0.0927  0.1337
  878MOL0     C18415  -1.702   1.209   1.908  0.5505 -0.9706  0.8105
  878MOL0     C18416  -1.850   1.256   1.931 -0.0902  0.1569 -0.6735
  878MOL0     C18417  -1.923   1.285   1.797 -0.9870 -0.7573 -0.4451
  878MOL0     C18418  -2.083   1.296   1.796  0.1004 -0.5430 -0.1067
  878MOL0     O18419  -2.133   1.363   1.684  0.4124 -0.3508  0.7320
  878MOL0     C18420  -2.269   1.376   1.680 -0.5247 -0.5005  0.7584
  878MOL0     C18421  -2.318   1.457   1.581 -0.5373  0.2548  0.3258
  878MOL0     C18422  -2.461   1.484   1.586  1.2559 -0.4288 -1.4642
  878MOL0     C18423  -2.513   1.588   1.496  0.6426 -0.5584 -0.2047
  878MOL0     C18424  -2.551   1.416   1.680  0.3376 -0.1217 -0.1437
  878MOL0     C18425  -2.695   1.430   1.696 -0.7651 -0.0748  0.0350
  878MOL0     O18426  -2.766   1.332   1.759 -0.0237  0.3777 -0.4021
  878MOL0     C18427  -2.901   1.317   1.743 -0.7246 -0.3952  0.0635
  878MOL0     C18428  -2.946   1.266   1.626 -0.1996  1.0245  0.6263
  878MOL0     C18429  -3.077   1.244   1.597 -0.3897 -0.1386  0.6076
  878MOL0     C18430  -3.166   1.247   1.704  0.3713  0.0747 -0.0092
  878MOL0     O18431  -3.302   1.214   1.682 -0.4416 -0.2316 -0.1199
  878MOL0     C18432  -3.334   1.086   1.633 -0.3900  0.2820  0.7638
  878MOL0     C18433  -3.478   1.049   1.661  0.0958  0.6818  0.0511
  878MOL0     C18434  -3.486   1.033   1.814  0.2990 -0.1264 -0.5987
  878MOL0     C18435  -3.628   0.992   1.856 -0.3504  0.5344 -0.6889
  878MOL0     C18436  -3.633   0.938   2.003 -0.1855  0.7687  0.1641
  878MOL0     C18437  -3.763   0.860   2.016  0.1526  0.7363  0.6621
  878MOL0     C18438  -3.790   0.854   2.167 -0.1107 -0.6330  0.2251
  878MOL0     C18439  -3.920   0.788   2.211 -0.1275  0.2711  0.3927
  878MOL0    Cl18440  -4.065   0.870   2.145 -0.3488  0.5425 -0.1353
  878MOL0     C18441  -3.125   1.284   1.824 -0.9225  0.3736 -1.2261
  878MOL0     C18442  -2.993   1.325   1.840  0.6701 -0.2576  0.1729
  878MOL0     O18443  -2.750   1.532   1.645 -0.0752 -0.1664 -0.3288
  878MOL0     C18444  -2.495   1.329   1.770 -0.4281  0.7576 -0.6072
  878MOL0     C18445  -2.356   1.320   1.781  0.1219  0.0091 -0.0612
  878MOL0     N18446  -1.597   1.457   1.897  0.5434 -0.6280  0.3841
  878MOL0     N18447  -1.534   1.523   1.803  0.1387 -0.4669  0.7062
  878MOL0     C18448  -0.436   1.573   1.909  0.6376 -0.7081  0.4128
  878MOL0     C18449  -0.302   1.584   1.949  0.6438 -0.0776  0.1148
  878MOL0     C18450   0.155   1.632   1.886  0.1331 -0.5360 -0.0267
  878MOL0     C18451   0.258   1.585   1.800  0.6015  0.2798 -0.5884
  878MOL0     C18452   0.390   1.624   1.838 -1.1604 -0.5204 -0.4737
  878MOL0     C18453   0.410   1.694   1.960 -0.0915 -0.2917 -0.0069
  878MOL0     O18454   0.528   1.737   2.006  0.5945  0.0803  0.4698
  878MOL0     C18455   0.652   1.681   1.951  0.1094 -0.7149 -0.5412
  878MOL0     C18456   0.759   1.693   2.059 -0.7618  0.4217 -0.9629
  878MOL0     C18457   0.742   1.620   2.197  0.6768  0.0268  0.1907
  878MOL0     C18458   0.843   1.682   2.293 -0.9635  0.3655  0.1161
  878MOL0     C18459   0.847   1.612   2.424 -0.0279  0.3004  0.1448
  878MOL0     C18460   0.842   1.543   2.527  0.0684 -0.0980  0.8093
  878MOL0     C18461   0.306   1.722   2.044 -0.1974 -0.3414 -0.5873
  878MOL0     C18462   0.179   1.699   2.003  0.0769  0.2369 -0.6795
  878MOL0     H18463  -0.175   1.728   1.683  0.3922 -0.6746  0.9279
  878MOL0     H18464  -0.419   1.713   1.602 -1.0095 -3.3887 -1.1400
  878MOL0     H18465  -0.634   1.791   1.745  1.4882 -0.0572 -0.5153
  878MOL0     H18466  -0.633   1.720   1.582 -0.2867 -0.8471 -0.4683
  878MOL0     H18467  -0.885   1.694   1.763  0.1238 -0.7828  1.4197
  878MOL0     H18468  -0.859   1.793   1.620 -0.4812 -0.0251 -0.4545
  878MOL0     H18469  -0.794   1.581   1.497 -2.9773  2.8014 -2.5159
  878MOL0     H18470  -0.847   1.492   1.646  0.5106  0.0152 -0.3555
  878MOL0     H18471  -1.062   1.615   1.636  0.9801 -0.6651  0.7249
  878MOL0     H18472  -1.030   1.650   1.456 -1.3735 -0.7876 -0.8962
  878MOL0     H18473  -1.001   1.428   1.400 -1.0206 -2.9930 -0.2837
  878MOL0     H18474  -1.006   1.371   1.563  0.0394 -1.9684 -2.1524
  878MOL0     H18475  -1.230   1.521   1.393 -0.5440 -1.2319 -0.9900
  878MOL0     H18476  -1.229   1.348   1.429 -0.1638 -0.5039  1.8263
  878MOL0     H18477  -1.257   1.401   1.678 -0.4742 -0.3870 -0.8726
  878MOL0     H18478  -1.254   1.568   1.654  2.2150  0.7416 -0.7412
  878MOL0     H18479  -1.463   1.389   1.513  0.9972 -1.9259 -0.0145
  878MOL0     H18480  -1.477   1.568   1.546 -0.5202 -0.9567 -2.7344
  878MOL0     H18481  -1.572   1.225   1.663 -1.7110  1.4605 -0.6940
  878MOL0     H18482  -1.697   1.114   1.854 -1.5796 -1.6896  1.7552
  878MOL0     H18483  -1.662   1.189   2.008  0.8915  2.5577  1.5076
  878MOL0     H18484  -1.848   1.347   1.993  1.1006 -0.0392 -0.3950
  878MOL0     H18485  -1.905   1.176   1.981  0.1243  0.3809 -0.0700
  878MOL0     H18486  -1.888   1.206   1.729 -0.2566 -0.4727 -0.4000
  878MOL0     H18487  -1.880   1.378   1.759  2.1808 -1.0236  2.0887
  878MOL0     H18488  -2.113   1.338   1.893 -0.7484  1.5941 -1.2434
  878MOL0     H18489  -2.125   1.195   1.794 -1.0812 -0.1094  1.0430
  878MOL0     H18490  -2.253   1.504   1.507  0.5771 -1.6870  0.0006
  878MOL0     H18491  -2.609   1.563   1.450  0.9420  1.7343 -2.2756
  878MOL0     H18492  -2.525   1.687   1.541 -1.2503  0.4645 -2.7321
  878MOL0     H18493  -2.453   1.601   1.406 -2.1120  3.9224 -1.7405
  878MOL0     H18494  -2.864   1.251   1.557 -0.4397 -0.0854  0.5601
  878MOL0     H18495  -3.101   1.212   1.496  1.0403  2.3653 -0.6348
  878MOL0     H18496  -3.320   1.090   1.525 -0.5908 -1.6916  0.6256
  878MOL0     H18497  -3.262   1.013   1.672  0.2065 -0.0489 -0.8835
  878MOL0     H18498  -3.549   1.125   1.628 -1.3870 -0.7773 -0.2868
  878MOL0     H18499  -3.503   0.955   1.611 -0.1079 -0.5205  2.2422
  878MOL0     H18500  -3.465   1.127   1.867 -0.4765 -0.2762 -0.0025
  878MOL0     H18501  -3.407   0.967   1.849  1.0312  1.0646  0.0889
  878MOL0     H18502  -3.697   1.077   1.848 -1.7539 -0.5595 -0.6107
  878MOL0     H18503  -3.671   0.921   1.786 -1.6902  2.1742 -1.6087
  878MOL0     H18504  -3.614   1.023   2.070  3.0434  0.3075  0.0164
  878MOL0     H18505  -3.553   0.868   2.031  1.0688  2.3123  0.6378
  878MOL0     H18506  -3.843   0.909   1.959  0.4989 -0.8576 -1.3049
  878MOL0     H18507  -3.756   0.762   1.969 -1.0302  1.4837 -1.1739
  878MOL0     H18508  -3.805   0.957   2.201 -0.9947 -0.8578  0.5467
  878MOL0     H18509  -3.711   0.813   2.230  1.1710  2.6036  0.9021
  878MOL0     H18510  -3.934   0.781   2.319 -0.6129 -3.9995  0.2385
  878MOL0     H18511  -3.923   0.685   2.174  0.7614  0.6997 -0.9501
  878MOL0     H18512  -3.194   1.279   1.908 -0.3527  0.7069 -0.7199
  878MOL0     H18513  -2.960   1.346   1.942 -1.2856 -0.0303  0.7902
  878MOL0     H18514  -2.546   1.280   1.853  1.3359  1.2345  0.8264
  878MOL0     H18515  -2.325   1.270   1.873 -0.4485  0.3253  0.3123
  878MOL0     H18516  -0.516   1.534   1.970 -1.5175  1.7800 -0.6308
  878MOL0     H18517  -0.279   1.557   2.051  0.4398  1.9337  0.7293
  878MOL0     H18518   0.244   1.519   1.715 -0.9301 -2.8183  1.8024
  878MOL0     H18519   0.478   1.594   1.781  0.1202  0.8854  0.6708
  878MOL0     H18520   0.646   1.575   1.923 -1.6663  0.0215 -3.2778
  878MOL0     H18521   0.677   1.742   1.864 -0.2220  1.6650  0.9575
  878MOL0     H18522   0.780   1.797   2.085  0.3497 -0.3584  1.6678
  878MOL0     H18523   0.854   1.658   2.016 -1.1023 -1.2034 -0.4927
  878MOL0     H18524   0.758   1.512   2.188  0.2615 -0.2507  2.3018
  878MOL0     H18525   0.641   1.639   2.232  0.2735 -0.1565 -0.8471
  878MOL0     H18526   0.812   1.785   2.313 -1.1058  0.1526  1.0546
  878MOL0     H18527   0.942   1.665   2.250 -0.8858 -0.5178  0.6205
  878MOL0     H18528   0.835   1.466   2.601 -2.5139 -0.3581  0.3816
  878MOL0     H18529   0.317   1.762   2.144  2.3525 -4.1807  0.8965
  878MOL0     H18530   0.099   1.724   2.072  0.2767  0.0120 -0.3638
  879MOL0     O18531   0.550   8.315   8.852 -0.2841  0.1045  0.4378
  879MOL0     C18532   0.596   8.272   8.953 -0.0572 -0.7707 -0.0107
  879MOL0     O18533   0.530   8.269   9.078 -0.1842 -0.8047  0.5962
  879MOL0     C18534   0.402   8.307   9.087  0.5728  0.0766  1.6360
  879MOL0     C18535   0.364   8.372   9.203 -0.0854  0.1681 -0.0750
  879MOL0     C18536   0.225   8.390   9.223 -0.4951  0.8523  0.4857
  879MOL0     C18537   0.124   8.354   9.134  0.7144  0.8684 -0.7799
  879MOL0     O18538  -0.006   8.373   9.171 -0.0443 -0.3247  0.0439
  879MOL0     C18539  -0.097   8.439   9.073 -0.1250  0.3357  0.0156
  879MOL0     C18540  -0.198   8.509   9.161 -0.4299  0.1122  0.6190
  879MOL0     C18541  -0.295   8.603   9.091  0.4552 -0.2892  0.0980
  879MOL0     C18542  -0.344   8.712   9.192 -0.1669  0.2032  0.0140
  879MOL0     C18543  -0.426   8.809   9.115 -0.5031 -0.0643 -0.0557
  879MOL0     C18544  -0.340   8.916   9.068  0.0405 -0.3269  0.8415
  879MOL0     C18545  -0.407   9.022   8.979  0.8955 -0.5686  0.2336
  879MOL0     C18546  -0.492   9.120   9.060  0.2508 -0.7162  0.8268
  879MOL0     N18547  -0.638   9.095   9.048  0.4924  0.1195 -0.1808
  879MOL0     C18548  -0.717   9.138   8.944  0.2362  0.1950  1.0179
  879MOL0     C18549  -0.839   9.086   8.970 -0.1867 -0.0592 -0.1352
  879MOL0     C18550  -0.953   9.112   8.874  0.8655 -0.8248  0.4167
  879MOL0     C18551  -1.038   9.227   8.906  0.1894  0.1568  0.5392
  879MOL0     C18552  -1.117   9.288   8.787  0.8532 -0.8845 -0.0322
  879MOL0     C18553  -1.237   9.216   8.755 -0.4069 -0.3606 -0.2355
  879MOL0     O18554  -1.322   9.227   8.865  0.6011 -0.4145 -0.1936
  879MOL0     C18555  -1.444   9.174   8.845  0.3285 -0.4056 -0.0676
  879MOL0     C18556  -1.463   9.037   8.845  0.3667  0.9605 -0.3530
  879MOL0     C18557  -1.577   8.969   8.818 -0.4490 -0.1656 -0.2589
  879MOL0     C18558  -1.572   8.817   8.813  0.1454 -0.7635  0.0580
  879MOL0     C18559  -1.698   9.050   8.811  0.2564 -0.0239 -0.5437
  879MOL0     C18560  -1.838   8.999   8.779 -0.5447 -0.1272 -0.2580
  879MOL0     O18561  -1.931   9.097   8.756 -0.1962  0.3786 -0.5531
  879MOL0     C18562  -2.060   9.063   8.725 -0.4212  0.0127  0.5417
  879MOL0     C18563  -2.161   9.098   8.816 -0.1850  0.3916  0.8703
  879MOL0     C18564  -2.289   9.065   8.787  0.6098 -0.1556  0.1911
  879MOL0     C18565  -2.326   9.008   8.662  0.4779 -0.3316 -0.7701
  879MOL0     O18566  -2.455   8.967   8.657 -0.5691 -0.2517 -0.0680
  879MOL0     C18567  -2.472   8.843   8.603 -0.4015  0.8596 -0.0830
  879MOL0     C18568  -2.610   8.774   8.636  0.6880 -0.2892 -0.4358
  879MOL0     C18569  -2.738   8.849   8.605  0.3774  0.6308  0.1748
  879MOL0     C18570  -2.754   8.839   8.453  0.1062 -0.0816 -0.2435
  879MOL0     C18571  -2.831   8.953   8.384 -0.5692 -0.3307 -1.1439
  879MOL0     C18572  -2.965   8.975   8.444  0.6395  1.0200 -0.3821
  879MOL0     C18573  -3.054   8.853   8.422  0.9106  0.4639  0.2169
  879MOL0     C18574  -3.188   8.907   8.359  0.8179  0.2547  0.3732
  879MOL0    Cl18575  -3.284   9.001   8.464  0.4403  0.0050 -0.0712
  879MOL0     C18576  -2.229   8.999   8.566  0.1921  1.0089 -0.1804
  879MOL0     C18577  -2.097   9.020   8.594 -0.2644 -0.5270 -0.1849
  879MOL0     O18578  -1.861   8.883   8.791 -0.1829 -0.2814 -0.3702
  879MOL0     C18579  -1.682   9.189   8.808  0.4470  1.0169  0.4823
  879MOL0     C18580  -1.557   9.250   8.821  0.2504  0.4613  0.5345
  879MOL0     N18581  -0.828   9.000   9.078  0.0508 -0.1286  0.4756
  879MOL0     N18582  -0.704   9.001   9.122 -0.1824 -0.1504  0.1865
  879MOL0     C18583   0.163   8.300   9.010 -1.1793  0.2057  0.1126
  879MOL0     C18584   0.299   8.267   8.990  0.1936  0.2121 -0.5349
  879MOL0     C18585   0.735   8.223   8.945 -0.1811  0.4663 -0.1393
  879MOL0     C18586   0.803   8.192   9.071 -0.1810  0.2599 -0.2214
  879MOL0     C18587   0.936   8.156   9.082  0.4275 -1.0003  0.0821
  879MOL0     C18588   1.005   8.141   8.954  0.6702 -0.1977 -0.2926
  879MOL0     O18589   1.128   8.095   8.950 -0.2550 -0.1368 -0.2128
  879MOL0     C18590   1.133   7.964   9.006 -0.9647  0.2762 -0.4796
  879MOL0     C18591   1.228   7.891   8.907  0.0096  0.7877 -0.0581
  879MOL0     C18592   1.370   7.953   8.900 -0.0730  0.0788  0.0380
  879MOL0     C18593   1.471   7.842   8.908 -0.0870  0.4411 -0.7960
  879MOL0     C18594   1.610   7.889   8.940 -0.1744  0.0830 -0.0682
  879MOL0     C18595   1.720   7.927   8.959  0.3704  0.0544  0.4110
  879MOL0     C18596   0.944   8.160   8.830 -0.0558  0.0326  0.2479
  879MOL0     C18597   0.809   8.202   8.823 -0.9380  0.4819  0.8469
  879MOL0     H18598   0.439   8.397   9.277  0.2785 -0.9115 -0.0579
  879MOL0     H18599   0.191   8.430   9.318 -1.6117 -0.8435  0.8484
  879MOL0     H18600  -0.041   8.502   9.004 -1.7701 -2.5625 -4.4082
  879MOL0     H18601  -0.155   8.374   9.006  2.0968 -2.5528  0.6939
  879MOL0     H18602  -0.252   8.434   9.219  3.9933 -0.7490  4.1348
  879MOL0     H18603  -0.153   8.554   9.250  1.9009 -2.2801  0.7459
  879MOL0     H18604  -0.244   8.640   9.002  0.6472 -1.7952 -0.4450
  879MOL0     H18605  -0.382   8.548   9.055 -0.6255 -0.5831  2.8536
  879MOL0     H18606  -0.406   8.656   9.264  1.1646 -1.1709  0.1335
  879MOL0     H18607  -0.266   8.768   9.243  0.4218  1.6128 -2.3242
  879MOL0     H18608  -0.465   8.756   9.027  0.7563 -2.0923  0.5370
  879MOL0     H18609  -0.511   8.842   9.174 -2.0223 -2.0181 -1.0195
  879MOL0     H18610  -0.304   8.976   9.152 -0.3235 -0.2985  0.9781
  879MOL0     H18611  -0.254   8.870   9.019 -0.3112 -2.3183  2.0039
  879MOL0     H18612  -0.333   9.075   8.919  0.3129 -1.1889 -1.0967
  879MOL0     H18613  -0.473   8.968   8.910  3.1271 -2.4829 -0.5432
  879MOL0     H18614  -0.477   9.220   9.018  0.6472  0.1366  2.8652
  879MOL0     H18615  -0.458   9.127   9.164  2.8855  1.6266 -0.0830
  879MOL0     H18616  -0.691   9.203   8.862  1.0128 -0.3071  0.8630
  879MOL0     H18617  -0.913   9.132   8.774 -0.6370  3.1518  0.4197
  879MOL0     H18618  -1.015   9.022   8.878 -1.3297  0.5188 -1.1449
  879MOL0     H18619  -0.974   9.313   8.931 -0.8420  1.2547 -0.4665
  879MOL0     H18620  -1.112   9.215   8.986 -1.3929 -1.1872 -1.0534
  879MOL0     H18621  -1.062   9.297   8.693 -0.2890  0.4542 -0.6115
  879MOL0     H18622  -1.146   9.391   8.811 -1.6029  0.2069 -6.0635
  879MOL0     H18623  -1.197   9.114   8.744 -1.0647 -0.6457  0.0000
  879MOL0     H18624  -1.270   9.259   8.660  1.8354  0.6388 -0.6237
  879MOL0     H18625  -1.375   8.976   8.863  0.2616  0.8633 -0.1650
  879MOL0     H18626  -1.467   8.788   8.814 -0.1725 -1.9648  1.0049
  879MOL0     H18627  -1.617   8.784   8.907  4.2532  0.7383  2.8481
  879MOL0     H18628  -1.619   8.775   8.724  2.5192 -0.6906 -1.3205
  879MOL0     H18629  -2.126   9.149   8.906  1.3870  1.0302 -0.0482
  879MOL0     H18630  -2.361   9.093   8.863 -0.8881 -3.5028  0.1654
  879MOL0     H18631  -2.468   8.869   8.497  0.0398  1.8762  0.1765
  879MOL0     H18632  -2.391   8.773   8.622 -0.5155  0.8072  0.2132
  879MOL0     H18633  -2.597   8.672   8.599 -1.5924  0.2828 -3.1723
  879MOL0     H18634  -2.611   8.778   8.746 -0.8831  0.7089 -0.4614
  879MOL0     H18635  -2.722   8.950   8.644  3.4260  0.4056 -0.2763
  879MOL0     H18636  -2.821   8.800   8.658  1.1142  0.5993  1.3264
  879MOL0     H18637  -2.653   8.849   8.414  0.3805  2.1853  0.8779
  879MOL0     H18638  -2.799   8.744   8.422  1.0028 -0.6775  0.2599
  879MOL0     H18639  -2.839   8.929   8.278  0.1098 -1.0746 -1.0467
  879MOL0     H18640  -2.777   9.046   8.402 -2.2324  0.1469  2.2183
  879MOL0     H18641  -2.964   8.996   8.552  1.6624 -1.5213  0.1590
  879MOL0     H18642  -3.014   9.065   8.407 -0.7225 -0.0287 -1.2059
  879MOL0     H18643  -3.071   8.793   8.512 -0.1085 -1.6367 -1.2969
  879MOL0     H18644  -3.016   8.784   8.347 -1.8307  1.0306 -1.8492
  879MOL0     H18645  -3.250   8.824   8.324 -0.0093  1.0759 -0.1297
  879MOL0     H18646  -3.165   8.979   8.281 -1.0230  2.1580  1.4687
  879MOL0     H18647  -2.261   8.967   8.467  0.0330  1.9149 -0.4392
  879MOL0     H18648  -2.016   9.006   8.522  0.6185 -0.5825  0.7945
  879MOL0     H18649  -1.766   9.254   8.788  0.6555  1.1116 -0.1097
  879MOL0     H18650  -1.533   9.356   8.817  0.3875  0.4649  1.4272
  879MOL0     H18651   0.090   8.261   8.940 -0.9577 -0.1652  0.0852
  879MOL0     H18652   0.336   8.218   8.901  2.9266  3.0434 -1.1662
  879MOL0     H18653   0.746   8.174   9.162 -2.0255 -2.0468 -1.6980
  879MOL0     H18654   0.978   8.126   9.177 -0.1517  1.5763  1.2160
  879MOL0     H18655   1.186   7.964   9.102  2.2049  2.0037 -2.0708
  879MOL0     H18656   1.033   7.923   9.021 -1.2937  1.3765  0.4817
  879MOL0     H18657   1.188   7.893   8.805 -0.7519 -0.0766  0.2177
  879MOL0     H18658   1.235   7.785   8.930 -1.7168  0.7547  0.4275
  879MOL0     H18659   1.374   8.018   8.988 -0.4619  0.0641  0.0697
  879MOL0     H18660   1.400   8.012   8.813 -0.2237 -0.8947 -0.6915
  879MOL0     H18661   1.476   7.784   8.816  3.0140 -2.6255  1.0237
  879MOL0     H18662   1.443   7.769   8.985  3.4067  0.0039  0.2561
  879MOL0     H18663   1.822   7.962   8.960  0.2453  0.4227  0.7508
  879MOL0     H18664   0.983   8.132   8.733 -0.3331  1.2062 -0.2213
  879MOL0     H18665   0.767   8.214   8.724 -1.3682  1.1849  1.1044
  880MOL0     O18666   8.379   2.205   2.905  0.3317 -0.2825 -0.0276
  880MOL0     C18667   8.455   2.154   2.826 -0.3830  0.3870 -0.3757
  880MOL0     O18668   8.425   2.073   2.716 -0.4452 -0.0115  0.0443
  880MOL0     C18669   8.291   2.050   2.687  0.5277 -0.0473  0.2474
  880MOL0     C18670   8.223   1.989   2.792 -0.0926  0.4850 -0.5727
  880MOL0     C18671   8.090   1.954   2.774 -0.2431 -0.5301  0.1817
  880MOL0     C18672   8.031   1.964   2.648  0.5278 -0.5158  0.6680
  880MOL0     O18673   7.905   1.915   2.633 -0.5767 -0.2354  0.3848
  880MOL0     C18674   7.828   1.962   2.521 -0.4418 -0.1768  0.0558
  880MOL0     C18675   7.687   1.904   2.519  0.3365 -0.0381  0.5396
  880MOL0     C18676   7.617   1.912   2.664  0.2514  0.1821  0.5326
  880MOL0     C18677   7.497   1.826   2.687 -0.6809 -0.7267  0.1455
  880MOL0     C18678   7.383   1.858   2.593  0.5193  1.2004 -0.0435
  880MOL0     C18679   7.288   1.968   2.640 -0.0784 -0.3709  0.8050
  880MOL0     C18680   7.188   2.005   2.529  0.7665  0.2398  0.7396
  880MOL0     C18681   7.067   2.089   2.573  0.0162  1.1402  0.2614
  880MOL0     N18682   6.981   2.103   2.458  0.5447  0.1892  0.0978
  880MOL0     C18683   6.913   2.006   2.391  0.1331 -0.0550  0.1271
  880MOL0     C18684   6.836   2.068   2.294  0.1434 -0.7311  0.1135
  880MOL0     C18685   6.728   2.002   2.211 -0.1708 -0.5987 -0.4178
  880MOL0     C18686   6.618   2.102   2.171  0.0027  0.4207 -0.8148
  880MOL0     C18687   6.505   2.022   2.107 -0.2038 -0.6560  0.1320
  880MOL0     C18688   6.384   2.110   2.062 -0.1988 -0.7884  0.0610
  880MOL0     O18689   6.301   2.038   1.971 -0.3149 -0.4130 -0.3391
  880MOL0     C18690   6.195   2.092   1.916 -0.3409  0.6049 -0.7100
  880MOL0     C18691   6.138   2.215   1.953  0.0114  1.1864  0.4097
  880MOL0     C18692   6.019   2.267   1.887 -0.5398  1.1111 -0.1963
  880MOL0     C18693   5.972   2.391   1.951 -0.2618  0.3987  0.1744
  880MOL0     C18694   5.956   2.193   1.781 -0.9156  0.5245  0.1402
  880MOL0     C18695   5.833   2.240   1.709  0.9686  0.9490 -1.1445
  880MOL0     O18696   5.811   2.177   1.592  0.2168  0.5981 -0.0912
  880MOL0     C18697   5.725   2.232   1.499  0.0532 -1.0150 -0.2529
  880MOL0     C18698   5.677   2.139   1.412  0.6057 -0.3322  0.3327
  880MOL0     C18699   5.584   2.176   1.310 -0.1337 -0.0621  0.1640
  880MOL0     C18700   5.548   2.312   1.293  0.0446  0.0549  0.7922
  880MOL0     O18701   5.457   2.323   1.194  0.1438  0.5430  0.9689
  880MOL0     C18702   5.395   2.454   1.176 -0.8185  0.1285  0.2442
  880MOL0     C18703   5.281   2.459   1.077 -0.0990  0.3083 -0.8662
  880MOL0     C18704   5.138   2.431   1.124 -0.0310  0.1115 -0.3294
  880MOL0     C18705   5.055   2.371   1.009  0.1589  0.5313  0.0537
  880MOL0     C18706   4.919   2.337   1.067 -0.1461 -0.4198 -0.2731
  880MOL0     C18707   4.825   2.277   0.960 -0.3490  0.1573  0.4348
  880MOL0     C18708   4.847   2.132   0.938 -0.0235  0.9052  0.2264
  880MOL0     C18709   4.757   2.063   0.833 -0.1377  0.7713  0.0255
  880MOL0    Cl18710   4.760   2.146   0.678 -0.2652 -0.5150  0.3320
  880MOL0     C18711   5.602   2.408   1.374 -0.2278  0.5456 -1.1573
  880MOL0     C18712   5.684   2.368   1.479 -0.1604  0.6042 -0.7073
  880MOL0     O18713   5.752   2.312   1.767  0.5159 -1.1261  0.5399
  880MOL0     C18714   6.013   2.068   1.749  0.2556 -0.0257  0.0819
  880MOL0     C18715   6.131   2.027   1.814  0.3797 -0.0256 -0.4006
  880MOL0     N18716   6.873   2.203   2.294 -0.7705  0.5583 -0.0539
  880MOL0     N18717   6.968   2.214   2.375  0.0915  0.0699 -0.4871
  880MOL0     C18718   8.098   2.032   2.541 -0.4084 -1.2730 -0.7718
  880MOL0     C18719   8.237   2.073   2.562 -0.3181 -0.1066  0.2083
  880MOL0     C18720   8.593   2.176   2.857  0.1276  0.6637 -0.4131
  880MOL0     C18721   8.644   2.224   2.978 -0.0166  0.2735 -0.0430
  880MOL0     C18722   8.777   2.226   3.010 -0.9633 -0.1085 -1.2297
  880MOL0     C18723   8.881   2.189   2.922  0.4797 -0.7328  1.0343
  880MOL0     O18724   9.015   2.219   2.945  0.7163  0.3771 -0.2840
  880MOL0     C18725   9.109   2.231   2.838  0.8344  0.8452 -0.3434
  880MOL0     C18726   9.235   2.291   2.902 -0.5828  0.9797 -0.4460
  880MOL0     C18727   9.202   2.429   2.952  0.0534 -0.4013  0.4150
  880MOL0     C18728   9.317   2.530   2.967  0.2565 -0.4751 -0.2292
  880MOL0     C18729   9.432   2.478   3.037 -0.2972 -0.0014  0.1014
  880MOL0     C18730   9.518   2.411   3.094 -0.5309 -0.4749 -0.7127
  880MOL0     C18731   8.832   2.133   2.795  0.1778 -0.5184 -0.5803
  880MOL0     C18732   8.691   2.123   2.772 -0.3060 -0.1030 -0.4113
  880MOL0     H18733   8.264   1.962   2.889 -1.7742 -0.6235 -0.1240
  880MOL0     H18734   8.035   1.902   2.852  3.0702 -0.9391  2.4874
  880MOL0     H18735   7.822   2.069   2.542  1.6951  0.3511 -1.6558
  880MOL0     H18736   7.875   1.955   2.423 -0.5868  0.4790 -0.0667
  880MOL0     H18737   7.634   1.965   2.445  5.0051  2.2605 -1.2722
  880MOL0     H18738   7.685   1.799   2.490 -1.2992  0.0494  0.2343
  880MOL0     H18739   7.682   1.900   2.751  0.4707  0.0296  0.3495
  880MOL0     H18740   7.587   2.018   2.663  3.1362  1.0809 -0.3004
  880MOL0     H18741   7.531   1.724   2.669  0.6652 -0.2591 -0.1068
  880MOL0     H18742   7.473   1.844   2.792  0.9265  0.2996  0.3771
  880MOL0     H18743   7.422   1.862   2.491  1.2340 -2.0363  0.0002
  880MOL0     H18744   7.322   1.768   2.595  3.7315 -1.1258  1.5404
  880MOL0     H18745   7.238   1.931   2.730  0.1233  0.3707  1.2330
  880MOL0     H18746   7.338   2.060   2.672  0.0755  0.3495 -1.3274
  880MOL0     H18747   7.227   2.058   2.442 -2.0399  1.4102  0.1025
  880MOL0     H18748   7.153   1.904   2.507 -2.1999  1.2141  0.5065
  880MOL0     H18749   7.104   2.186   2.608  2.1621 -0.1161  1.7126
  880MOL0     H18750   7.013   2.038   2.653  1.0744  1.2370  1.0604
  880MOL0     H18751   6.917   1.900   2.416 -0.4172 -0.7775 -2.4860
  880MOL0     H18752   6.777   1.977   2.116  1.4171 -0.5540  0.3720
  880MOL0     H18753   6.682   1.918   2.264 -1.0508 -0.9779 -1.7292
  880MOL0     H18754   6.656   2.170   2.094 -1.7324  0.7644 -1.4029
  880MOL0     H18755   6.570   2.158   2.252  1.5972 -0.5299  0.8542
  880MOL0     H18756   6.469   1.940   2.171  2.3775  0.2785  3.0190
  880MOL0     H18757   6.537   1.979   2.012 -3.2963 -1.4268 -0.6704
  880MOL0     H18758   6.425   2.197   2.010 -2.3581  0.7772  0.7987
  880MOL0     H18759   6.331   2.149   2.150  0.2720  0.9478 -0.4071
  880MOL0     H18760   6.182   2.278   2.029 -1.5286  0.8106  1.6524
  880MOL0     H18761   6.053   2.434   2.010  1.7335 -2.8278  0.0003
  880MOL0     H18762   5.947   2.472   1.881 -1.4770  1.9585  2.2771
  880MOL0     H18763   5.886   2.369   2.015  0.1675  0.5069  0.7844
  880MOL0     H18764   5.702   2.034   1.427 -1.5103 -1.0793 -0.9885
  880MOL0     H18765   5.541   2.106   1.239 -0.6331  1.3338 -0.9512
  880MOL0     H18766   5.351   2.474   1.274 -2.3130  0.2584 -0.4283
  880MOL0     H18767   5.464   2.531   1.141  0.2263 -0.9180 -0.0898
  880MOL0     H18768   5.261   2.553   1.024 -3.6391 -0.8239 -1.8506
  880MOL0     H18769   5.313   2.383   1.006 -1.5347 -0.5908 -0.5992
  880MOL0     H18770   5.101   2.531   1.149 -1.3681 -0.1257 -1.2303
  880MOL0     H18771   5.137   2.365   1.211  3.3379 -1.2501 -1.1788
  880MOL0     H18772   5.059   2.431   0.918  1.0939 -1.1196 -1.0572
  880MOL0     H18773   5.094   2.273   0.978 -1.6423 -0.6392  1.2761
  880MOL0     H18774   4.870   2.425   1.109 -1.0698 -1.7700  1.6433
  880MOL0     H18775   4.931   2.266   1.150 -0.7295  0.3013  0.4442
  880MOL0     H18776   4.723   2.305   0.986 -1.1799 -0.2945 -2.0805
  880MOL0     H18777   4.831   2.326   0.862  2.0309 -1.7696 -0.4815
  880MOL0     H18778   4.836   2.093   1.040 -1.1775 -0.9107 -0.5559
  880MOL0     H18779   4.953   2.117   0.913 -0.1236  3.0188 -1.7700
  880MOL0     H18780   4.652   2.063   0.865  0.6746 -1.8183  3.1621
  880MOL0     H18781   4.783   1.958   0.814 -1.9955  0.1235  0.7762
  880MOL0     H18782   5.585   2.516   1.373  1.7956  0.9124 -0.1317
  880MOL0     H18783   5.715   2.442   1.552 -0.4229  0.6468 -0.6382
  880MOL0     H18784   5.962   2.003   1.678  0.9501 -0.1653 -0.2900
  880MOL0     H18785   6.180   1.935   1.783 -0.9103 -1.0886  0.6261
  880MOL0     H18786   8.058   2.061   2.444 -0.4009 -0.9690 -0.6830
  880MOL0     H18787   8.302   2.120   2.489 -0.6047 -0.4149 -0.2537
  880MOL0     H18788   8.569   2.257   3.050 -1.5467  0.5137 -1.6747
  880MOL0     H18789   8.805   2.283   3.098  2.8787 -1.3681 -1.4599
  880MOL0     H18790   9.124   2.132   2.793 -4.0557  1.2029 -3.5166
  880MOL0     H18791   9.066   2.294   2.760 -0.1414  0.0145 -0.5032
  880MOL0     H18792   9.313   2.305   2.827 -1.2237 -0.0787 -1.3203
  880MOL0     H18793   9.264   2.223   2.983 -3.0266  1.3963  0.8808
  880MOL0     H18794   9.169   2.409   3.055 -0.1419  0.2370  0.4868
  880MOL0     H18795   9.128   2.480   2.890  0.7069 -1.7643 -1.5665
  880MOL0     H18796   9.273   2.616   3.018 -1.9400  0.5874 -3.5438
  880MOL0     H18797   9.350   2.561   2.867 -1.3780  0.3445 -0.5471
  880MOL0     H18798   9.597   2.344   3.122  0.8038 -0.0528 -3.1924
  880MOL0     H18799   8.902   2.108   2.716 -1.8113 -0.8448 -2.3195
  880MOL0     H18800   8.660   2.087   2.674 -1.9706  1.0555 -0.3490
  881MOL0     O18801   8.731   9.290  10.707 -0.9368  0.0610 -0.6607
  881MOL0     C18802   8.828   9.259  10.781 -0.6019  0.7625 -0.1889
  881MOL0     O18803   8.830   9.158  10.869  0.4032  0.2344  0.4935
  881MOL0     C18804   8.713   9.098  10.900 -0.2543 -0.5183 -0.6640
  881MOL0     C18805   8.634   9.123  11.024  0.4321 -0.0202 -0.7248
  881MOL0     C18806   8.515   9.060  11.050  1.0665  1.0505  1.3590
  881MOL0     C18807   8.472   8.956  10.967  0.0822  0.2250 -0.8431
  881MOL0     O18808   8.365   8.869  10.987  0.0170  0.2117 -0.1330
  881MOL0     C18809   8.269   8.904  11.088 -0.3646 -0.0887 -0.9433
  881MOL0     C18810   8.161   8.797  11.084 -1.0892 -0.3099  0.5266
  881MOL0     C18811   8.079   8.794  11.215  0.6490  0.1928  0.3595
  881MOL0     C18812   7.959   8.697  11.201 -0.7797  0.6862  0.6299
  881MOL0     C18813   7.851   8.697  11.308 -0.5412 -0.6030 -0.1910
  881MOL0     C18814   7.904   8.702  11.453 -0.3031 -1.3859  0.2502
  881MOL0     C18815   7.788   8.681  11.547 -0.5559  0.0139  0.5619
  881MOL0     C18816   7.748   8.536  11.550 -1.0627 -0.6580  0.0070
  881MOL0     N18817   7.624   8.509  11.622 -0.0848 -0.1793 -0.6148
  881MOL0     C18818   7.492   8.527  11.576 -0.6159  0.0693 -0.6418
  881MOL0     C18819   7.413   8.493  11.684  0.4430 -0.4815 -0.5506
  881MOL0     C18820   7.265   8.481  11.683 -0.2165  0.1488  0.1570
  881MOL0     C18821   7.213   8.340  11.665 -0.2078 -0.6114  0.0621
  881MOL0     C18822   7.066   8.322  11.651  0.0442  0.5352  0.0920
  881MOL0     C18823   6.983   8.411  11.551  0.3445  0.6845  0.1710
  881MOL0     O18824   6.869   8.333  11.518  0.0700  0.2357  0.1808
  881MOL0     C18825   6.791   8.379  11.411  0.6189  0.0978  0.2740
  881MOL0     C18826   6.699   8.291  11.362 -0.5587 -0.5610 -0.0114
  881MOL0     C18827   6.614   8.323  11.263 -0.1119  0.3823 -0.1229
  881MOL0     C18828   6.508   8.224  11.229  0.1451 -0.1550  0.0359
  881MOL0     C18829   6.625   8.447  11.205  0.4765 -0.8788  1.5991
  881MOL0     C18830   6.544   8.496  11.090 -0.6319  0.6364  0.7007
  881MOL0     O18831   6.452   8.411  11.031  0.1873  0.2259  0.1762
  881MOL0     C18832   6.360   8.466  10.946 -0.1008  0.3557  0.4236
  881MOL0     C18833   6.343   8.395  10.821 -0.2880  0.0927  0.1451
  881MOL0     C18834   6.261   8.451  10.719  0.9578  0.0153  0.6636
  881MOL0     C18835   6.179   8.552  10.747  0.1527 -0.1503  0.4969
  881MOL0     O18836   6.073   8.606  10.668 -0.0327 -0.7007  0.4714
  881MOL0     C18837   6.072   8.574  10.532 -0.1352  0.2707  0.6014
  881MOL0     C18838   5.988   8.672  10.444 -0.8629  0.3841 -0.2316
  881MOL0     C18839   5.831   8.654  10.451 -0.4269  0.5833 -0.5392
  881MOL0     C18840   5.748   8.758  10.374  0.3211 -0.0103  0.3164
  881MOL0     C18841   5.778   8.771  10.230 -0.2960 -0.7871  0.6557
  881MOL0     C18842   5.734   8.666  10.127 -0.7694  0.6964  0.1087
  881MOL0     C18843   5.756   8.715   9.979 -0.5700 -0.3913  0.7018
  881MOL0     C18844   5.898   8.755   9.951 -0.6616 -0.5676  0.1862
  881MOL0    Cl18845   5.915   8.749   9.767 -0.1737  0.2233 -0.5180
  881MOL0     C18846   6.183   8.612  10.875  0.2438  1.5789 -1.1056
  881MOL0     C18847   6.276   8.571  10.972 -0.2055  0.1270  1.2785
  881MOL0     O18848   6.575   8.602  11.034 -0.1139  0.3564 -0.5929
  881MOL0     C18849   6.730   8.535  11.248 -0.4446 -0.3097 -0.6738
  881MOL0     C18850   6.810   8.500  11.357 -0.6573 -1.0888  0.6944
  881MOL0     N18851   7.496   8.467  11.792  0.9893 -0.2267 -0.1406
  881MOL0     N18852   7.622   8.478  11.752  0.4141 -0.5260  0.9348
  881MOL0     C18853   8.542   8.931  10.854 -0.0651 -0.5090  0.2797
  881MOL0     C18854   8.661   9.003  10.816  0.6357  1.3256 -0.2882
  881MOL0     C18855   8.947   9.332  10.770  0.7413 -0.7457 -0.5993
  881MOL0     C18856   9.061   9.283  10.828  0.8469 -0.6347 -0.0808
  881MOL0     C18857   9.180   9.345  10.805  0.1824 -0.7564 -1.2959
  881MOL0     C18858   9.195   9.470  10.737  0.4422 -0.4410 -0.2497
  881MOL0     O18859   9.318   9.528  10.710 -0.0351  0.5677 -0.1560
  881MOL0     C18860   9.339   9.597  10.587  0.6179 -0.6801  0.1375
  881MOL0     C18861   9.356   9.745  10.631  0.1744  0.6117  0.2040
  881MOL0     C18862   9.399   9.847  10.523 -0.1334  0.1125  0.6080
  881MOL0     C18863   9.404   9.980  10.580  0.1937 -1.0464  0.4674
  881MOL0     C18864   9.516   9.998  10.678 -0.2657  0.3999 -0.2720
  881MOL0     C18865   9.598  10.023  10.768 -0.1309  0.2290 -0.6695
  881MOL0     C18866   9.072   9.532  10.702  0.2182 -0.1266 -0.1101
  881MOL0     C18867   8.950   9.457  10.712  0.2645 -0.4306 -0.1523
  881MOL0     H18868   8.663   9.188  11.106  0.7064 -0.0207 -0.8203
  881MOL0     H18869   8.463   9.077  11.143 -0.6296 -0.7159  0.7895
  881MOL0     H18870   8.307   8.906  11.190 -1.6014 -0.6625 -0.4500
  881MOL0     H18871   8.213   8.993  11.060 -2.1698 -1.0003 -0.3771
  881MOL0     H18872   8.101   8.820  10.996  0.7026  2.8350 -0.0099
  881MOL0     H18873   8.223   8.707  11.079  0.1689  0.2985  3.2003
  881MOL0     H18874   8.141   8.762  11.298  0.9004 -1.8404 -0.5636
  881MOL0     H18875   8.027   8.889  11.234 -2.4248 -1.1115 -0.9443
  881MOL0     H18876   7.909   8.715  11.105 -0.1615 -0.8379 -0.0112
  881MOL0     H18877   8.011   8.601  11.196 -1.5317  0.2839  0.3748
  881MOL0     H18878   7.791   8.786  11.286 -1.1546 -0.3915  2.0494
  881MOL0     H18879   7.792   8.607  11.290  3.5798 -3.0555 -3.0268
  881MOL0     H18880   7.976   8.623  11.475  1.7451  1.1628  3.8584
  881MOL0     H18881   7.947   8.799  11.480  1.8656 -2.4259  0.7236
  881MOL0     H18882   7.817   8.689  11.652 -1.2139 -2.9514  1.0455
  881MOL0     H18883   7.703   8.745  11.520 -2.7131 -3.1528 -0.8142
  881MOL0     H18884   7.825   8.477  11.602 -1.3090 -0.6404  0.3960
  881MOL0     H18885   7.743   8.483  11.454 -1.0477 -0.6043 -0.0231
  881MOL0     H18886   7.460   8.562  11.479  0.3611 -0.0239 -1.0110
  881MOL0     H18887   7.225   8.526  11.774 -0.7075  0.3984 -0.1728
  881MOL0     H18888   7.229   8.541  11.598  0.8278 -1.2854 -1.3643
  881MOL0     H18889   7.231   8.282  11.755 -3.2148 -2.3280 -0.2970
  881MOL0     H18890   7.265   8.293  11.581  0.9443 -3.0835  2.0589
  881MOL0     H18891   7.027   8.331  11.752  2.8863 -0.0485  1.3397
  881MOL0     H18892   7.038   8.217  11.636  0.9663  0.3265 -0.2279
  881MOL0     H18893   7.043   8.428  11.462  1.9277 -1.5695  0.7270
  881MOL0     H18894   6.951   8.502  11.602 -2.4234  0.1149 -0.3644
  881MOL0     H18895   6.692   8.194  11.411 -1.4686 -1.6112 -2.0557
  881MOL0     H18896   6.496   8.146  11.304  0.5095  0.3029  0.5744
  881MOL0     H18897   6.409   8.270  11.222  0.8679  1.6862  1.2226
  881MOL0     H18898   6.534   8.179  11.132 -0.0810 -0.8517  0.2913
  881MOL0     H18899   6.392   8.298  10.816  0.8852  0.6819  0.0591
  881MOL0     H18900   6.264   8.398  10.624 -1.5661  1.8231 -0.5394
  881MOL0     H18901   6.169   8.558  10.484 -0.8097 -0.2881 -0.6185
  881MOL0     H18902   6.028   8.474  10.521  0.3734 -0.6836  5.1723
  881MOL0     H18903   6.011   8.767  10.494  0.7598 -0.7153  1.2800
  881MOL0     H18904   6.021   8.680  10.340  0.4719 -3.8972 -0.3312
  881MOL0     H18905   5.803   8.662  10.557  1.8679 -2.9730  0.5207
  881MOL0     H18906   5.808   8.556  10.410  1.3092  0.8286 -2.2561
  881MOL0     H18907   5.643   8.728  10.375  0.9360 -2.5444 -1.2806
  881MOL0     H18908   5.767   8.852  10.427 -0.9423  1.4939 -1.7228
  881MOL0     H18909   5.884   8.794  10.218 -0.1493 -2.2429 -1.2300
  881MOL0     H18910   5.721   8.860  10.200 -0.6085  0.2220  3.7827
  881MOL0     H18911   5.795   8.576  10.135 -1.4414  0.1051 -1.1909
  881MOL0     H18912   5.630   8.636  10.142 -0.6870  0.2890 -0.1334
  881MOL0     H18913   5.692   8.801   9.955 -0.7820 -0.9107 -0.7199
  881MOL0     H18914   5.728   8.630   9.915 -0.4476  0.2365 -0.2156
  881MOL0     H18915   5.981   8.692   9.986  1.3414  2.0014  0.3337
  881MOL0     H18916   5.909   8.860   9.978  0.1657 -0.1064 -1.7903
  881MOL0     H18917   6.115   8.693  10.902 -2.1403 -0.3765 -0.9022
  881MOL0     H18918   6.274   8.625  11.066  0.2489  2.4742  0.0325
  881MOL0     H18919   6.741   8.633  11.204  0.1945 -0.4000 -0.7196
  881MOL0     H18920   6.881   8.577  11.385 -1.5832 -0.1729  0.6348
  881MOL0     H18921   8.508   8.851  10.789 -2.4631  0.9559 -0.4176
  881MOL0     H18922   8.708   8.973  10.723  0.4428 -2.9473  0.7857
  881MOL0     H18923   9.055   9.186  10.875 -0.7389 -0.2879  0.4907
  881MOL0     H18924   9.266   9.305  10.857 -1.4421 -1.7871  0.7244
  881MOL0     H18925   9.434   9.574  10.538  0.3090 -1.7972  0.0578
  881MOL0     H18926   9.262   9.589  10.510  2.6741  1.4021 -2.3295
  881MOL0     H18927   9.427   9.747  10.714  0.7713  3.3479 -0.2982
  881MOL0     H18928   9.260   9.781  10.667  0.4718 -0.4343  2.2067
  881MOL0     H18929   9.329   9.838  10.439 -1.1913 -0.9194  1.5617
  881MOL0     H18930   9.500   9.827  10.484  0.7218  4.3929  0.1603
  881MOL0     H18931   9.309   9.995  10.632  0.3325 -2.7601  1.2977
  881MOL0     H18932   9.413  10.059  10.506 -1.5909  0.2599  1.5832
  881MOL0     H18933   9.664  10.069  10.839 -1.2962 -2.3000  2.2724
  881MOL0     H18934   9.081   9.635  10.668  0.6351 -0.2862 -0.4983
  881MOL0     H18935   8.856   9.500  10.679  0.1944 -0.6587 -0.2488
  882MOL0     O18936   8.721   5.276   4.771 -0.9022  0.1990  0.0694
  882MOL0     C18937   8.794   5.326   4.688 -0.8542  0.2593  0.5421
  882MOL0     O18938   8.764   5.399   4.579  0.5736  0.3793 -0.1297
  882MOL0     C18939   8.630   5.431   4.565  0.8257 -0.2257  0.0798
  882MOL0     C18940   8.556   5.334   4.489 -0.5894 -0.1278  0.0188
  882MOL0     C18941   8.421   5.327   4.491  0.7774 -0.0540  0.1308
  882MOL0     C18942   8.347   5.429   4.559  0.4868 -0.3299  0.4229
  882MOL0     O18943   8.209   5.427   4.546  0.8795  0.3933 -0.6109
  882MOL0     C18944   8.150   5.337   4.639 -0.1729  0.2175 -0.3323
  882MOL0     C18945   8.061   5.261   4.548  0.0109  0.6511 -0.8287
  882MOL0     C18946   7.953   5.174   4.619  0.9047 -0.2414 -0.1197
  882MOL0     C18947   7.807   5.221   4.617 -0.5633 -0.6922  0.5476
  882MOL0     C18948   7.706   5.108   4.653  0.1106 -0.2017 -0.1698
  882MOL0     C18949   7.565   5.165   4.682 -0.2281  0.2310  0.5516
  882MOL0     C18950   7.453   5.052   4.729 -0.0882 -0.1501 -0.5407
  882MOL0     C18951   7.327   5.119   4.784 -0.8206  0.2423  0.1500
  882MOL0     N18952   7.284   5.219   4.689 -0.2999  0.2141  0.1192
  882MOL0     C18953   7.316   5.348   4.700 -0.2107 -0.9258  0.3696
  882MOL0     C18954   7.268   5.401   4.581 -0.1073 -0.0921  0.0193
  882MOL0     C18955   7.258   5.547   4.549  1.0901  0.2734  0.1490
  882MOL0     C18956   7.121   5.600   4.616 -0.9382 -0.5542  0.1785
  882MOL0     C18957   7.090   5.745   4.562 -0.8573  1.1113 -0.1728
  882MOL0     C18958   6.980   5.805   4.642  0.0128  0.2931  0.7514
  882MOL0     O18959   6.857   5.738   4.621  0.1895  0.2770 -0.7539
  882MOL0     C18960   6.755   5.777   4.703 -0.0302  0.0447 -0.3322
  882MOL0     C18961   6.728   5.706   4.825 -0.2387 -0.7354 -0.6101
  882MOL0     C18962   6.615   5.737   4.901 -0.4033  0.1823 -0.8475
  882MOL0     C18963   6.597   5.665   5.033  0.6925  0.2974  0.5965
  882MOL0     C18964   6.521   5.834   4.845  0.4151  0.4783 -0.9266
  882MOL0     C18965   6.390   5.861   4.915 -0.8772 -0.4962  0.1247
  882MOL0     O18966   6.392   5.852   5.050  0.3343 -0.0912  0.5395
  882MOL0     C18967   6.286   5.904   5.128 -0.2050  0.1175  0.0747
  882MOL0     C18968   6.247   6.034   5.113  1.3676 -0.2474 -0.7007
  882MOL0     C18969   6.135   6.082   5.183  0.0038 -0.0807  0.2082
  882MOL0     C18970   6.063   6.002   5.273 -0.2132  0.2236  0.1423
  882MOL0     O18971   5.960   6.027   5.353  0.5049 -0.6661  0.3394
  882MOL0     C18972   5.936   6.159   5.416  0.1240  0.6859 -0.2854
  882MOL0     C18973   5.789   6.147   5.456  0.0084  0.1282 -0.0121
  882MOL0     C18974   5.735   6.281   5.492 -0.0993  0.1136 -0.0300
  882MOL0     C18975   5.583   6.271   5.489 -0.3344  0.2382 -0.4728
  882MOL0     C18976   5.523   6.383   5.570  0.7500 -0.8094  0.6461
  882MOL0     C18977   5.534   6.512   5.488 -0.1820 -0.0123  0.0727
  882MOL0     C18978   5.474   6.626   5.578  0.3087 -0.4002 -0.0240
  882MOL0     C18979   5.477   6.754   5.506  0.1649  0.1625  0.0229
  882MOL0    Cl18980   5.636   6.810   5.482  0.1414  0.3200 -0.2295
  882MOL0     C18981   6.100   5.863   5.282  0.4454 -0.0271 -0.0467
  882MOL0     C18982   6.209   5.824   5.211  0.1456 -0.5439  0.1726
  882MOL0     O18983   6.298   5.891   4.848 -0.2816  0.2262  0.6063
  882MOL0     C18984   6.542   5.886   4.722  0.3764 -0.2161  0.5549
  882MOL0     C18985   6.658   5.868   4.655  0.2077  0.2622  0.2014
  882MOL0     N18986   7.203   5.304   4.513  0.3624 -0.1432 -0.3959
  882MOL0     N18987   7.209   5.196   4.579 -0.3078  0.3188 -0.3337
  882MOL0     C18988   8.416   5.533   4.630 -0.4392 -1.2333 -0.6242
  882MOL0     C18989   8.560   5.538   4.627 -0.2647 -0.0955 -0.3586
  882MOL0     C18990   8.941   5.294   4.693 -1.0906 -0.1494  0.0099
  882MOL0     C18991   9.038   5.362   4.608  0.3476  0.5828  0.4421
  882MOL0     C18992   9.174   5.313   4.614  0.0954  0.2296  0.4691
  882MOL0     C18993   9.210   5.220   4.709 -0.4655  0.1422  0.3203
  882MOL0     O18994   9.338   5.171   4.701 -0.0892 -0.3881  0.2789
  882MOL0     C18995   9.443   5.263   4.739  0.2068 -0.5592  0.1929
  882MOL0     C18996   9.574   5.194   4.758 -0.6669  0.4557  0.3790
  882MOL0     C18997   9.668   5.278   4.850  0.4802 -0.0195  0.6532
  882MOL0     C18998   9.794   5.198   4.875 -0.0463 -0.8550 -0.1826
  882MOL0     C18999   9.877   5.195   4.756  0.8401 -0.3936 -0.7169
  882MOL0     C19000   9.946   5.181   4.657  0.1257 -0.2256  0.3543
  882MOL0     C19001   9.125   5.183   4.811 -0.6625 -0.0651  0.7639
  882MOL0     C19002   8.988   5.212   4.792  0.5855  0.4848  0.0767
  882MOL0     H19003   8.604   5.248   4.444  0.9927  1.2134 -0.9676
  882MOL0     H19004   8.369   5.247   4.440  1.5090  1.0097 -2.4501
  882MOL0     H19005   8.231   5.281   4.687  1.7603  3.7748  0.8973
  882MOL0     H19006   8.096   5.394   4.715  0.5385  2.2064 -1.2620
  882MOL0     H19007   8.009   5.328   4.478 -1.9092 -0.2474 -0.3308
  882MOL0     H19008   8.113   5.192   4.481  0.9790  2.3857 -1.9469
  882MOL0     H19009   7.949   5.077   4.568 -4.3603  0.1601 -1.0891
  882MOL0     H19010   7.978   5.156   4.724  2.0581 -0.3446 -0.3979
  882MOL0     H19011   7.803   5.318   4.667  1.3233 -0.2222 -0.1280
  882MOL0     H19012   7.790   5.243   4.511  0.3061  2.0499  0.8820
  882MOL0     H19013   7.708   5.046   4.563  0.7893 -0.1841 -0.1738
  882MOL0     H19014   7.741   5.057   4.743 -2.6596  1.5723  2.1059
  882MOL0     H19015   7.563   5.250   4.751  1.7661  1.5694 -0.8915
  882MOL0     H19016   7.527   5.202   4.586  1.4483 -2.2605 -1.1839
  882MOL0     H19017   7.424   4.983   4.649  0.3806  0.3226 -1.1314
  882MOL0     H19018   7.494   4.991   4.810  0.4738  2.5727  1.3295
  882MOL0     H19019   7.341   5.166   4.882  0.9589  1.9841 -0.8544
  882MOL0     H19020   7.267   5.028   4.789  1.6290 -1.4002  2.1913
  882MOL0     H19021   7.358   5.406   4.781  1.3938  3.0237 -2.9513
  882MOL0     H19022   7.339   5.603   4.597  1.9450 -0.0541 -0.8767
  882MOL0     H19023   7.263   5.565   4.442  4.4374 -0.6041  0.0526
  882MOL0     H19024   7.148   5.582   4.720  3.1313 -1.9005 -0.8929
  882MOL0     H19025   7.037   5.535   4.587 -1.9552  0.2916  1.1604
  882MOL0     H19026   7.051   5.746   4.460  1.8598  0.8868 -1.3103
  882MOL0     H19027   7.184   5.801   4.563 -0.2380  0.1709 -1.8872
  882MOL0     H19028   6.969   5.908   4.609 -1.3732  0.3795  1.3972
  882MOL0     H19029   7.011   5.801   4.746  2.5210 -1.3168  0.0296
  882MOL0     H19030   6.804   5.632   4.851  1.2952  0.7450 -0.7175
  882MOL0     H19031   6.622   5.743   5.106  0.7102  1.0748 -0.2310
  882MOL0     H19032   6.496   5.631   5.056  0.8259  0.6733  1.8107
  882MOL0     H19033   6.671   5.584   5.045  1.5171  1.0866  0.9299
  882MOL0     H19034   6.295   6.099   5.041 -0.0376 -1.2733 -2.6819
  882MOL0     H19035   6.098   6.184   5.170 -4.5103 -1.6632 -1.1793
  882MOL0     H19036   5.992   6.187   5.506  0.3580  0.4797 -0.3660
  882MOL0     H19037   5.955   6.236   5.341  0.4405 -1.6542 -2.7814
  882MOL0     H19038   5.734   6.112   5.368 -1.1275 -0.9412  1.0819
  882MOL0     H19039   5.782   6.078   5.541  1.1801  0.2966  0.2267
  882MOL0     H19040   5.751   6.347   5.406 -2.4686  0.3126 -0.3879
  882MOL0     H19041   5.779   6.303   5.590 -0.3156 -1.1622  0.3834
  882MOL0     H19042   5.540   6.248   5.391 -0.5360 -1.7177  0.0222
  882MOL0     H19043   5.552   6.181   5.545  2.5922 -0.3035  0.4270
  882MOL0     H19044   5.579   6.386   5.664  0.2687  1.6870  0.9081
  882MOL0     H19045   5.416   6.378   5.587  0.2505  0.9488 -1.4793
  882MOL0     H19046   5.639   6.538   5.469 -0.3449 -1.1018 -2.6989
  882MOL0     H19047   5.485   6.518   5.391  2.0704  0.8274 -1.0911
  882MOL0     H19048   5.529   6.638   5.672 -2.7338 -1.9032  2.1188
  882MOL0     H19049   5.369   6.611   5.603 -0.2923  0.8503 -1.6722
  882MOL0     H19050   5.416   6.826   5.561 -0.2427  0.2173 -0.4914
  882MOL0     H19051   5.452   6.739   5.400  1.0651 -0.6446 -0.0843
  882MOL0     H19052   6.045   5.798   5.349  2.6657 -0.8937  1.0392
  882MOL0     H19053   6.240   5.721   5.228  3.0128  0.1792 -0.1155
  882MOL0     H19054   6.467   5.952   4.681  0.8786 -0.8591 -1.4987
  882MOL0     H19055   6.676   5.898   4.552  0.5616  1.9154  0.7120
  882MOL0     H19056   8.356   5.604   4.687  0.1643 -0.4699 -0.9248
  882MOL0     H19057   8.615   5.605   4.692 -0.7681 -1.4244  1.5172
  882MOL0     H19058   9.005   5.433   4.533  0.6832  0.7930  0.4945
  882MOL0     H19059   9.249   5.339   4.540  0.0421 -1.3629 -0.1709
  882MOL0     H19060   9.458   5.345   4.668  2.0647  0.0886  1.2775
  882MOL0     H19061   9.415   5.325   4.824  3.2357  2.0402 -0.5228
  882MOL0     H19062   9.627   5.179   4.663 -1.3741 -0.1351  0.0642
  882MOL0     H19063   9.558   5.093   4.797 -0.3021 -0.0215 -0.6595
  882MOL0     H19064   9.609   5.299   4.940  0.9866  0.3531  0.9026
  882MOL0     H19065   9.690   5.369   4.793  1.2360 -1.2173 -1.0456
  882MOL0     H19066   9.785   5.094   4.906  2.7167 -2.7944 -4.8192
  882MOL0     H19067   9.847   5.256   4.951 -3.5061 -0.8976  2.4822
  882MOL0     H19068  10.021   5.182   4.580  1.6343  0.5090  1.7638
  882MOL0     H19069   9.154   5.123   4.897 -0.7593  1.3024  1.7870
  882MOL0     H19070   8.920   5.161   4.859  1.2143 -1.1851 -0.5092
  883MOL0     O19071   7.410  10.676   4.251  0.5840  0.0959  0.3500
  883MOL0     C19072   7.448  10.600   4.342 -0.4977 -0.5372  0.1508
  883MOL0     O19073   7.398  10.475   4.363 -0.0423  0.4692  0.3741
  883MOL0     C19074   7.334  10.407   4.271 -0.7027 -0.0326 -0.7049
  883MOL0     C19075   7.223  10.334   4.319 -0.7587  0.0493  0.1590
  883MOL0     C19076   7.142  10.261   4.229 -0.4785 -0.8060 -0.0549
  883MOL0     C19077   7.183  10.243   4.094 -0.5701  0.8915  0.7427
  883MOL0     O19078   7.097  10.164   4.023  0.0221  0.1660 -0.3546
  883MOL0     C19079   7.087  10.168   3.874  0.0150  0.4648 -0.5697
  883MOL0     C19080   7.032  10.295   3.817  0.5900  0.3207 -0.6907
  883MOL0     C19081   6.885  10.341   3.865 -0.4469 -0.7145 -0.9123
  883MOL0     C19082   6.770  10.236   3.861  0.1177 -0.3857  0.4348
  883MOL0     C19083   6.623  10.280   3.890 -0.0897 -0.6054 -0.9529
  883MOL0     C19084   6.520  10.166   3.869  0.7569 -0.3216 -0.1491
  883MOL0     C19085   6.376  10.197   3.899 -0.1132 -0.7537  0.2612
  883MOL0     C19086   6.286  10.074   3.892  0.1503 -0.2492  0.6291
  883MOL0     N19087   6.286  10.024   3.751 -0.1629  0.6594  0.0241
  883MOL0     C19088   6.188  10.069   3.661  0.0861 -0.4693  0.0332
  883MOL0     C19089   6.193   9.973   3.565  0.4697 -0.5909 -0.6050
  883MOL0     C19090   6.105   9.978   3.442 -0.5013 -0.5115  0.2629
  883MOL0     C19091   6.001   9.858   3.442  0.3271 -0.3381 -0.2400
  883MOL0     C19092   5.908   9.860   3.325  0.6421 -0.0282 -0.5941
  883MOL0     C19093   5.827   9.732   3.299 -0.3007 -0.6883 -0.5480
  883MOL0     O19094   5.726   9.751   3.195  0.2356 -0.2623 -0.1737
  883MOL0     C19095   5.606   9.682   3.192 -0.5839  0.2475  0.9032
  883MOL0     C19096   5.564   9.570   3.264 -0.4351 -0.3270 -0.7447
  883MOL0     C19097   5.436   9.516   3.267  0.2865  0.5207 -0.2263
  883MOL0     C19098   5.416   9.411   3.364  0.3429  0.0292  1.1226
  883MOL0     C19099   5.343   9.570   3.177  0.0927 -1.1226  0.2181
  883MOL0     C19100   5.206   9.510   3.159  0.5546  0.6938  0.6828
  883MOL0     O19101   5.162   9.404   3.248 -0.4862 -0.1938  0.9472
  883MOL0     C19102   5.038   9.361   3.222  0.2775  0.3956 -0.2049
  883MOL0     C19103   4.935   9.406   3.301  0.0596  0.0004 -0.5540
  883MOL0     C19104   4.801   9.383   3.267  0.2217  0.6285  0.1955
  883MOL0     C19105   4.770   9.306   3.155  0.3151  0.8378  0.0689
  883MOL0     O19106   4.633   9.286   3.128 -0.2988 -0.0863 -0.3503
  883MOL0     C19107   4.590   9.188   3.036  0.3339  0.6740 -0.3919
  883MOL0     C19108   4.436   9.185   3.008  0.1025 -0.7500  0.8840
  883MOL0     C19109   4.323   9.153   3.117  0.1724  0.2274  0.4162
  883MOL0     C19110   4.381   9.177   3.256  0.0220 -0.8941  0.0396
  883MOL0     C19111   4.286   9.159   3.372  0.0072 -0.6813  0.1598
  883MOL0     C19112   4.166   9.253   3.359  0.9645  0.9942 -0.4837
  883MOL0     C19113   4.123   9.310   3.492  0.3579 -0.0239 -1.4006
  883MOL0     C19114   3.968   9.306   3.499  0.3831 -0.3894 -0.9276
  883MOL0    Cl19115   3.919   9.450   3.578  0.1963  0.3565 -0.4175
  883MOL0     C19116   4.874   9.243   3.087 -1.0574 -0.8994 -0.5450
  883MOL0     C19117   5.004   9.279   3.114 -0.6334 -0.3248 -0.8641
  883MOL0     O19118   5.140   9.546   3.058  0.3375  0.8445 -0.2239
  883MOL0     C19119   5.386   9.672   3.090  0.4255 -0.1356 -0.1121
  883MOL0     C19120   5.511   9.727   3.099 -0.4908  0.4563  0.0978
  883MOL0     N19121   6.275   9.876   3.598 -0.3899  0.4540 -0.7160
  883MOL0     N19122   6.329   9.907   3.711 -0.1782  0.0368  0.0248
  883MOL0     C19123   7.297  10.309   4.050  0.2142  0.1912 -0.0107
  883MOL0     C19124   7.368  10.400   4.135  0.4953  0.3954 -0.0934
  883MOL0     C19125   7.560  10.638   4.423  0.5839  0.1547 -0.2990
  883MOL0     C19126   7.626  10.553   4.515  0.6817 -0.5189 -0.0579
  883MOL0     C19127   7.742  10.599   4.569 -0.3125 -0.2486 -0.9976
  883MOL0     C19128   7.794  10.730   4.559  0.5683 -0.3886  0.5504
  883MOL0     O19129   7.913  10.747   4.617  0.0241 -0.9716 -0.6277
  883MOL0     C19130   7.963  10.884   4.617  0.0348  0.0404  0.4834
  883MOL0     C19131   8.104  10.865   4.674 -0.7973  0.6138 -0.4363
  883MOL0     C19132   8.112  10.825   4.826 -0.6868  0.4148  0.2612
  883MOL0     C19133   8.025  10.903   4.925  0.3804 -0.2501  0.3950
  883MOL0     C19134   8.037  11.051   4.913 -0.1059  0.6902 -0.4388
  883MOL0     C19135   8.080  11.160   4.950 -0.2478  0.1810  0.8887
  883MOL0     C19136   7.724  10.819   4.480  1.1678 -0.3088 -0.2650
  883MOL0     C19137   7.607  10.773   4.407  0.0885 -0.6952  0.2782
  883MOL0     H19138   7.203  10.337   4.425 -0.3313 -0.5202  0.2613
  883MOL0     H19139   7.049  10.222   4.267 -0.4786 -2.0009 -1.2041
  883MOL0     H19140   7.183  10.145   3.826 -0.1372  1.1888 -1.2465
  883MOL0     H19141   7.012  10.092   3.851 -0.4902  0.6606  0.3847
  883MOL0     H19142   7.104  10.375   3.838  0.8773  0.2274 -1.2989
  883MOL0     H19143   7.020  10.292   3.708 -2.7615 -2.8194 -0.4136
  883MOL0     H19144   6.891  10.377   3.968 -0.5926 -2.2670 -0.3337
  883MOL0     H19145   6.855  10.428   3.805 -0.3963 -0.3389 -0.3968
  883MOL0     H19146   6.784  10.187   3.764 -0.3220  1.4600 -0.5939
  883MOL0     H19147   6.813  10.165   3.933  0.1529 -1.2818 -0.4569
  883MOL0     H19148   6.616  10.304   3.997 -1.7275 -3.4620 -0.3070
  883MOL0     H19149   6.599  10.369   3.832  0.0645  0.4127  0.4870
  883MOL0     H19150   6.524  10.128   3.767  0.1070  1.1462 -0.7448
  883MOL0     H19151   6.546  10.090   3.944  2.8292 -0.5328 -1.0031
  883MOL0     H19152   6.370  10.236   4.001  0.8028  0.0721  0.0139
  883MOL0     H19153   6.340  10.272   3.827  2.6258 -0.2450 -0.6745
  883MOL0     H19154   6.184  10.102   3.919  0.2956  2.4834 -1.2929
  883MOL0     H19155   6.320   9.997   3.962 -2.1425  0.7037  2.9264
  883MOL0     H19156   6.122  10.154   3.670  0.3081 -0.2972  0.0646
  883MOL0     H19157   6.043  10.068   3.429  2.2427  1.9160  2.4662
  883MOL0     H19158   6.168   9.966   3.354 -1.3701 -0.7896 -0.3276
  883MOL0     H19159   5.949   9.850   3.538  0.4735 -0.9739 -0.2052
  883MOL0     H19160   6.053   9.761   3.444  2.6992  0.8187 -1.7316
  883MOL0     H19161   5.969   9.883   3.237 -0.7936 -0.6652 -1.7955
  883MOL0     H19162   5.834   9.940   3.335 -0.9399 -1.5159 -0.1418
  883MOL0     H19163   5.776   9.718   3.394 -0.7347  1.6033 -0.3991
  883MOL0     H19164   5.901   9.652   3.283 -1.2807 -1.1766 -3.1891
  883MOL0     H19165   5.639   9.529   3.332  1.9548  2.8586 -1.2099
  883MOL0     H19166   5.326   9.432   3.423  1.5557  1.5510  2.5496
  883MOL0     H19167   5.418   9.317   3.308  1.4904 -0.0426  1.2667
  883MOL0     H19168   5.493   9.408   3.442 -0.8496 -1.0403  2.3019
  883MOL0     H19169   4.961   9.478   3.378 -0.4691 -0.4640  0.0699
  883MOL0     H19170   4.714   9.419   3.321  0.5421  1.0975  0.4066
  883MOL0     H19171   4.646   9.209   2.945  1.7788 -0.6037  0.1414
  883MOL0     H19172   4.623   9.088   3.066  1.4290  0.0150 -3.4470
  883MOL0     H19173   4.413   9.287   2.975 -1.9918 -1.2882  0.4936
  883MOL0     H19174   4.408   9.117   2.927 -1.6280  1.4359 -0.4737
  883MOL0     H19175   4.296   9.048   3.103 -1.4801  0.8322 -1.4374
  883MOL0     H19176   4.233   9.211   3.093 -0.9340 -1.3137  0.6870
  883MOL0     H19177   4.468   9.114   3.277  0.1698 -3.4592 -6.0201
  883MOL0     H19178   4.414   9.280   3.237 -1.5268 -0.6016 -1.3795
  883MOL0     H19179   4.346   9.184   3.461  1.2141 -0.3609 -0.7225
  883MOL0     H19180   4.249   9.059   3.397 -2.2790 -0.2165 -1.1474
  883MOL0     H19181   4.178   9.338   3.291 -0.0006  1.1731 -0.4325
  883MOL0     H19182   4.087   9.193   3.315  0.0627  0.3796  1.8212
  883MOL0     H19183   4.157   9.414   3.494  1.2076 -0.2947  0.2699
  883MOL0     H19184   4.178   9.266   3.576  1.9636  1.0009 -1.8704
  883MOL0     H19185   3.934   9.219   3.556  0.2021 -0.4469 -1.1233
  883MOL0     H19186   3.934   9.311   3.395  1.8906  0.0831 -1.4239
  883MOL0     H19187   4.863   9.170   3.008  0.7270  0.0890 -1.7786
  883MOL0     H19188   5.087   9.229   3.064 -0.6120 -2.0075  0.7602
  883MOL0     H19189   5.325   9.726   3.019  0.9433  1.6558  0.7332
  883MOL0     H19190   5.541   9.816   3.044 -1.4932  1.2800  0.8313
  883MOL0     H19191   7.329  10.315   3.946 -0.6835 -0.5708 -0.3463
  883MOL0     H19192   7.449  10.453   4.087  1.4505  0.8328  1.9061
  883MOL0     H19193   7.605  10.447   4.527  0.7697 -0.7983 -2.0546
  883MOL0     H19194   7.796  10.532   4.635  0.5564  1.9448  0.6317
  883MOL0     H19195   7.975  10.909   4.511  4.1552 -2.8140  0.0242
  883MOL0     H19196   7.904  10.954   4.678  2.5833  1.3132  1.6526
  883MOL0     H19197   8.166  10.954   4.659  3.5707 -2.0762  0.1170
  883MOL0     H19198   8.151  10.784   4.618 -0.0401  0.7977 -0.0706
  883MOL0     H19199   8.218  10.818   4.852 -0.7874  0.2803  0.6340
  883MOL0     H19200   8.073  10.723   4.834 -1.9297  0.9836  2.0387
  883MOL0     H19201   8.045  10.881   5.030 -0.3127 -1.4465  0.2947
  883MOL0     H19202   7.922  10.875   4.905  0.0886  1.1255 -0.1866
  883MOL0     H19203   8.115  11.253   4.990 -1.2736  0.9135  0.1294
  883MOL0     H19204   7.742  10.926   4.480 -1.6532  0.2692  0.8472
  883MOL0     H19205   7.551  10.837   4.338  1.1016  0.8887  0.8679
  884MOL0     O19206   2.263   6.749   7.073 -0.5992  0.0737  0.4564
  884MOL0     C19207   2.143   6.721   7.076  0.0387  0.5705 -0.1162
  884MOL0     O19208   2.038   6.805   7.053 -0.4439 -0.7276 -0.0782
  884MOL0     C19209   2.071   6.935   7.037  0.0554  0.7270  1.3399
  884MOL0     C19210   2.105   7.021   7.140 -0.4872 -0.0520 -0.0113
  884MOL0     C19211   2.142   7.153   7.109 -0.1964 -0.2650  0.1960
  884MOL0     C19212   2.143   7.201   6.977  0.3333 -0.2309 -0.3300
  884MOL0     O19213   2.177   7.335   6.970  0.6503 -0.3804 -0.1307
  884MOL0     C19214   2.209   7.378   6.838 -0.1221 -0.1365  1.1813
  884MOL0     C19215   2.164   7.526   6.823  0.2718 -0.7552  0.6997
  884MOL0     C19216   2.007   7.542   6.782  0.3268 -0.3920  0.4255
  884MOL0     C19217   1.995   7.522   6.627  0.8995 -0.1711 -0.6925
  884MOL0     C19218   1.869   7.450   6.587 -0.0405  0.8141  0.1449
  884MOL0     C19219   1.739   7.526   6.615 -0.7133 -0.1785  0.4664
  884MOL0     C19220   1.617   7.466   6.550 -0.0607 -0.0555  0.0312
  884MOL0     C19221   1.491   7.535   6.602 -0.4481  0.3492  0.2661
  884MOL0     N19222   1.361   7.479   6.556  0.1236 -0.0624 -0.0869
  884MOL0     C19223   1.306   7.369   6.618  0.1842  0.3945  0.0507
  884MOL0     C19224   1.203   7.335   6.536  0.1617 -0.0175 -0.5086
  884MOL0     C19225   1.112   7.213   6.553  0.8885 -0.4031 -0.1304
  884MOL0     C19226   0.963   7.240   6.572  0.2683 -0.3957 -0.1169
  884MOL0     C19227   0.902   7.106   6.597  0.4719  0.0571 -0.2736
  884MOL0     C19228   0.748   7.110   6.602 -0.5178 -0.6891  0.7070
  884MOL0     O19229   0.715   6.991   6.665  0.3836 -0.2890 -0.3691
  884MOL0     C19230   0.584   6.966   6.692 -0.7056 -0.4623  0.2725
  884MOL0     C19231   0.561   6.846   6.752 -0.1072  0.2894 -0.4283
  884MOL0     C19232   0.437   6.801   6.781 -0.3903  0.7221 -0.3157
  884MOL0     C19233   0.430   6.665   6.840 -1.0558  0.6807  0.7041
  884MOL0     C19234   0.325   6.872   6.745 -0.3970 -0.1291 -0.4285
  884MOL0     C19235   0.180   6.832   6.760  0.2185  0.4772 -0.3130
  884MOL0     O19236   0.163   6.701   6.726 -0.5787  0.4389  0.1208
  884MOL0     C19237   0.051   6.633   6.766 -0.3505 -0.2731  0.6892
  884MOL0     C19238  -0.051   6.593   6.678 -0.2059  0.6299  0.4371
  884MOL0     C19239  -0.147   6.500   6.723 -0.0352 -0.6616 -0.3781
  884MOL0     C19240  -0.142   6.449   6.857 -0.6209  0.3087 -0.0547
  884MOL0     O19241  -0.246   6.360   6.895  0.4812  0.4840 -0.7993
  884MOL0     C19242  -0.234   6.289   7.022  0.0398 -0.3063 -0.7972
  884MOL0     C19243  -0.270   6.142   7.007 -0.4350 -1.1562  0.5700
  884MOL0     C19244  -0.425   6.117   7.017 -0.5268  0.0200 -0.1048
  884MOL0     C19245  -0.453   5.963   7.019 -0.4316 -0.0972 -0.9867
  884MOL0     C19246  -0.604   5.928   7.011 -0.0385 -0.6847  0.3914
  884MOL0     C19247  -0.622   5.784   7.066 -0.7753 -0.0750  0.3497
  884MOL0     C19248  -0.772   5.746   7.080  0.3653  0.5146 -0.1429
  884MOL0     C19249  -0.828   5.695   6.952  0.6142 -0.6740 -0.4717
  884MOL0    Cl19250  -0.740   5.558   6.886 -0.0212  0.2884 -0.0194
  884MOL0     C19251  -0.043   6.494   6.945  0.0868 -0.2147  0.7636
  884MOL0     C19252   0.053   6.584   6.897  0.0298  0.6601  0.4194
  884MOL0     O19253   0.086   6.899   6.799 -0.1033 -0.5737  0.0635
  884MOL0     C19254   0.350   6.999   6.696  0.2410  0.0432  0.7489
  884MOL0     C19255   0.473   7.049   6.659 -0.7814 -0.6161 -0.5820
  884MOL0     N19256   1.190   7.434   6.440  0.1303 -0.4524  0.2874
  884MOL0     N19257   1.292   7.515   6.443  0.7797 -0.1126 -0.1476
  884MOL0     C19258   2.119   7.101   6.877  0.3335  0.4049 -0.4355
  884MOL0     C19259   2.081   6.971   6.906 -0.5452  0.3302 -0.3435
  884MOL0     C19260   2.099   6.581   7.096 -0.0437 -0.8401 -0.0384
  884MOL0     C19261   1.962   6.558   7.114  0.0230  0.1787 -0.4092
  884MOL0     C19262   1.928   6.423   7.144 -0.6543  0.2955 -0.2430
  884MOL0     C19263   2.026   6.319   7.135  0.2748  0.1745 -0.8823
  884MOL0     O19264   1.994   6.188   7.150 -0.2108 -0.4081 -0.1872
  884MOL0     C19265   1.867   6.156   7.202 -0.7026  0.1779  0.1750
  884MOL0     C19266   1.864   6.004   7.252 -0.7335  0.2405  0.0848
  884MOL0     C19267   1.730   5.961   7.314  0.0584 -0.1719 -0.0052
  884MOL0     C19268   1.690   5.823   7.271 -1.2325  0.0852  0.6716
  884MOL0     C19269   1.634   5.829   7.141 -0.0053 -0.3131  0.6404
  884MOL0     C19270   1.574   5.817   7.039 -0.7050 -0.0549  0.3341
  884MOL0     C19271   2.162   6.345   7.116  0.8240 -0.2830  0.9868
  884MOL0     C19272   2.198   6.482   7.096  0.7621  0.3130  0.4278
  884MOL0     H19273   2.099   6.990   7.244 -2.1961 -1.8012 -0.5762
  884MOL0     H19274   2.164   7.229   7.183  1.7220 -0.0343 -0.5376
  884MOL0     H19275   2.317   7.368   6.848 -0.2560 -0.3793  2.6146
  884MOL0     H19276   2.159   7.323   6.757 -2.4896  0.9606  1.8006
  884MOL0     H19277   2.158   7.560   6.927  1.1331 -1.6763  1.0615
  884MOL0     H19278   2.231   7.584   6.760  1.6351 -1.3521  1.5569
  884MOL0     H19279   1.937   7.481   6.841 -1.8370 -0.1337 -1.7344
  884MOL0     H19280   1.970   7.644   6.798 -2.7927 -1.1033 -1.4008
  884MOL0     H19281   2.008   7.608   6.561  1.5185 -0.1552 -0.5549
  884MOL0     H19282   2.082   7.462   6.599  1.0207 -2.1621  3.1813
  884MOL0     H19283   1.867   7.424   6.481  0.1471 -3.6417  1.0396
  884MOL0     H19284   1.870   7.355   6.640  1.7509  1.2166  0.8944
  884MOL0     H19285   1.719   7.536   6.722 -0.6495 -1.2678  0.5860
  884MOL0     H19286   1.741   7.627   6.573 -0.0800 -0.1055  0.6588
  884MOL0     H19287   1.619   7.482   6.442 -2.6735  0.3820 -0.0382
  884MOL0     H19288   1.600   7.360   6.571 -2.2090  0.6245  2.1505
  884MOL0     H19289   1.482   7.639   6.572 -0.4645  1.1448  2.7594
  884MOL0     H19290   1.502   7.538   6.711  1.1983 -1.7687  0.2412
  884MOL0     H19291   1.341   7.322   6.710  1.3958  1.0729 -0.0497
  884MOL0     H19292   1.112   7.156   6.460 -3.2094 -1.3056  0.2589
  884MOL0     H19293   1.148   7.149   6.634  0.8587  0.7669  0.8416
  884MOL0     H19294   0.920   7.290   6.485 -2.5203 -1.9068  0.2911
  884MOL0     H19295   0.931   7.302   6.657 -0.2174  1.0850 -1.3421
  884MOL0     H19296   0.931   7.062   6.693 -0.5158  2.2431  1.0799
  884MOL0     H19297   0.936   7.037   6.519 -0.7825 -1.4680  0.4879
  884MOL0     H19298   0.716   7.113   6.497 -1.2602 -1.0806  0.9097
  884MOL0     H19299   0.709   7.200   6.650 -2.1206 -0.7436 -0.3987
  884MOL0     H19300   0.643   6.787   6.791  0.5817  2.0930  0.9652
  884MOL0     H19301   0.370   6.609   6.767 -0.8343  0.2776  0.8272
  884MOL0     H19302   0.523   6.614   6.868 -0.7416  1.8199  1.8273
  884MOL0     H19303   0.378   6.667   6.936  0.5783 -1.0043  1.7049
  884MOL0     H19304  -0.045   6.638   6.579 -2.3323 -2.6826 -1.4196
  884MOL0     H19305  -0.224   6.461   6.658 -2.5166  1.4588  1.0911
  884MOL0     H19306  -0.130   6.286   7.055  1.0498 -0.6562 -3.7471
  884MOL0     H19307  -0.294   6.328   7.105 -1.8742 -0.4028 -2.0750
  884MOL0     H19308  -0.222   6.103   6.917 -1.4252 -0.6272 -0.2221
  884MOL0     H19309  -0.224   6.090   7.091  0.9690 -1.1149 -0.1463
  884MOL0     H19310  -0.466   6.168   6.930 -2.5842 -1.9546 -0.4089
  884MOL0     H19311  -0.474   6.156   7.107 -0.6783 -0.2442 -0.0700
  884MOL0     H19312  -0.400   5.911   6.940 -0.1255 -1.0088 -0.2043
  884MOL0     H19313  -0.408   5.927   7.112 -0.2545 -0.5646 -1.2513
  884MOL0     H19314  -0.632   5.937   6.906 -0.0793  0.6826  0.4910
  884MOL0     H19315  -0.665   6.007   7.057 -1.2594  0.1001 -2.3773
  884MOL0     H19316  -0.569   5.710   7.005 -1.2174 -0.7110  0.7283
  884MOL0     H19317  -0.586   5.792   7.169 -0.6631  1.8782  0.1928
  884MOL0     H19318  -0.829   5.837   7.103 -1.2839  0.0286 -2.0090
  884MOL0     H19319  -0.794   5.662   7.147  3.6428 -0.0292  0.4235
  884MOL0     H19320  -0.828   5.775   6.876 -1.5619 -0.0868  0.0667
  884MOL0     H19321  -0.931   5.667   6.974 -0.6768  1.6341 -2.9326
  884MOL0     H19322  -0.050   6.460   7.047 -0.9856  0.3041  0.8707
  884MOL0     H19323   0.126   6.608   6.974 -0.0166 -3.4521  1.9392
  884MOL0     H19324   0.263   7.061   6.675  0.2544  0.3042  1.4079
  884MOL0     H19325   0.489   7.150   6.623 -2.5712 -0.1255 -0.1153
  884MOL0     H19326   2.144   7.124   6.774  0.4401  3.7738  0.2212
  884MOL0     H19327   2.070   6.901   6.824  1.0978 -0.9131  0.4388
  884MOL0     H19328   1.887   6.635   7.129  1.7636  2.3432 -2.1932
  884MOL0     H19329   1.826   6.396   7.170  0.0792 -0.3111  2.2590
  884MOL0     H19330   1.844   6.217   7.290  3.3220  0.8753  0.9326
  884MOL0     H19331   1.787   6.163   7.128 -1.8262  1.9272  1.4740
  884MOL0     H19332   1.945   5.986   7.323 -0.7070  1.3829  0.3644
  884MOL0     H19333   1.883   5.933   7.171  1.9486 -1.7573  2.2803
  884MOL0     H19334   1.656   6.030   7.273 -0.2624 -1.0264 -0.9069
  884MOL0     H19335   1.724   5.964   7.423 -4.1277 -1.8414 -0.0233
  884MOL0     H19336   1.607   5.780   7.328  0.2116 -3.0402  0.6036
  884MOL0     H19337   1.782   5.765   7.279 -0.8317  0.3185 -1.5470
  884MOL0     H19338   1.511   5.819   6.952  2.0832 -0.0155 -1.8036
  884MOL0     H19339   2.240   6.270   7.111  1.5839  0.6014 -1.5184
  884MOL0     H19340   2.298   6.508   7.065  0.1664  0.6899 -1.3055
  885MOL0     O19341   0.364  10.797   8.864 -0.4201 -0.1016  0.3863
  885MOL0     C19342   0.439  10.895   8.880  0.4734 -0.1513  1.5250
  885MOL0     O19343   0.405  11.031   8.897  0.4856 -0.0477 -0.3043
  885MOL0     C19344   0.283  11.088   8.882  0.6312  1.2488  0.7383
  885MOL0     C19345   0.277  11.215   8.929 -1.0468  0.3850  0.0291
  885MOL0     C19346   0.158  11.277   8.935 -0.1811 -0.2745 -0.8451
  885MOL0     C19347   0.038  11.219   8.889 -0.7336 -0.1886  0.4986
  885MOL0     O19348  -0.069  11.302   8.892 -0.4915  0.0359 -0.3183
  885MOL0     C19349  -0.176  11.268   8.797 -0.2938 -0.1496 -0.2574
  885MOL0     C19350  -0.281  11.385   8.798 -0.2416  0.5234 -0.3345
  885MOL0     C19351  -0.356  11.411   8.936  0.3263  0.1207 -0.3327
  885MOL0     C19352  -0.440  11.290   8.992 -0.5227 -0.1996 -0.6655
  885MOL0     C19353  -0.558  11.346   9.077 -0.6891  0.1070 -0.7576
  885MOL0     C19354  -0.637  11.226   9.123 -0.2015  0.5776 -0.6247
  885MOL0     C19355  -0.712  11.155   9.005 -1.1694 -0.2060 -0.7025
  885MOL0     C19356  -0.670  11.006   8.992 -0.5033 -0.4921 -0.0151
  885MOL0     N19357  -0.735  10.926   8.887 -0.4163 -0.2266 -0.8417
  885MOL0     C19358  -0.867  10.894   8.903 -0.3565  0.2421  0.2084
  885MOL0     C19359  -0.894  10.817   8.790 -1.5777 -0.2082 -0.1654
  885MOL0     C19360  -1.030  10.763   8.748 -0.4026  0.7709 -0.1940
  885MOL0     C19361  -1.136  10.869   8.713 -0.4718  0.6695  0.3140
  885MOL0     C19362  -1.159  10.966   8.822 -0.1251 -0.5335  0.2674
  885MOL0     C19363  -1.290  11.063   8.812  0.2960 -0.0962 -0.9307
  885MOL0     O19364  -1.411  10.988   8.772 -0.1263 -0.7755 -0.5276
  885MOL0     C19365  -1.531  11.049   8.792 -0.2055  0.7441  0.8182
  885MOL0     C19366  -1.638  10.961   8.756 -1.0869 -0.3195 -0.4947
  885MOL0     C19367  -1.775  11.002   8.760 -0.4932  0.2342 -0.3331
  885MOL0     C19368  -1.875  10.901   8.718  0.5362 -0.3633  0.0708
  885MOL0     C19369  -1.810  11.133   8.810 -0.3183  0.0326 -1.1040
  885MOL0     C19370  -1.944  11.180   8.848  0.0929 -0.4161  0.1422
  885MOL0     O19371  -1.950  11.268   8.955 -0.2778  0.9321 -0.0616
  885MOL0     C19372  -2.071  11.315   8.979 -0.2826  0.1222 -0.3126
  885MOL0     C19373  -2.124  11.434   8.924  0.4378 -0.5043  1.2161
  885MOL0     C19374  -2.256  11.471   8.946  0.0793  0.0360 -0.4012
  885MOL0     C19375  -2.337  11.399   9.035  0.7007  0.6832 -0.0980
  885MOL0     O19376  -2.465  11.433   9.073  1.0774 -0.4913  0.8119
  885MOL0     C19377  -2.498  11.576   9.071  0.7172  1.3678 -0.1568
  885MOL0     C19378  -2.638  11.601   9.128 -0.1713 -0.4497 -0.0441
  885MOL0     C19379  -2.748  11.535   9.045 -0.1999 -0.1962  0.0145
  885MOL0     C19380  -2.891  11.555   9.093  0.1095 -0.2253  0.2820
  885MOL0     C19381  -2.991  11.472   9.018 -0.2557 -0.7926  0.3106
  885MOL0     C19382  -3.001  11.324   9.064 -0.4455  0.4589  0.5203
  885MOL0     C19383  -3.123  11.254   8.998 -0.4823 -0.2491 -0.1745
  885MOL0     C19384  -3.266  11.298   9.031 -0.5318  0.3574  0.8339
  885MOL0    Cl19385  -3.376  11.266   8.905  0.4200 -0.0121 -0.0618
  885MOL0     C19386  -2.282  11.286   9.091  0.3704 -0.3897  0.4367
  885MOL0     C19387  -2.151  11.245   9.074 -0.7198  0.2443  0.0869
  885MOL0     O19388  -2.047  11.144   8.795  0.0628 -0.6381  0.8076
  885MOL0     C19389  -1.703  11.217   8.838  0.5094 -0.7462 -0.4612
  885MOL0     C19390  -1.570  11.179   8.824  0.5749 -0.3490 -0.1598
  885MOL0     N19391  -0.778  10.805   8.713 -0.6482 -0.7665 -0.6658
  885MOL0     N19392  -0.688  10.873   8.779 -0.0246  0.6765 -0.3829
  885MOL0     C19393   0.051  11.091   8.841  0.2259  0.3290  0.0289
  885MOL0     C19394   0.167  11.020   8.836 -0.2975  0.2051 -0.0596
  885MOL0     C19395   0.592  10.872   8.885  1.3447 -0.1264 -0.2753
  885MOL0     C19396   0.688  10.974   8.892  0.8617 -0.1643  0.4970
  885MOL0     C19397   0.821  10.944   8.907  0.3714 -0.0801  0.0469
  885MOL0     C19398   0.869  10.815   8.910 -0.7359  0.0738  0.4657
  885MOL0     O19399   1.000  10.794   8.914  0.8153  0.3418  0.1893
  885MOL0     C19400   1.062  10.670   8.932 -0.5028  0.4289 -0.2604
  885MOL0     C19401   1.206  10.704   8.960 -0.4469  0.5809 -0.6620
  885MOL0     C19402   1.279  10.758   8.845  0.6905 -0.1079  0.9564
  885MOL0     C19403   1.422  10.781   8.871  0.1084 -0.4954 -0.3095
  885MOL0     C19404   1.512  10.669   8.916 -0.2409 -0.1778  0.8004
  885MOL0     C19405   1.588  10.583   8.952  0.2011 -0.2476  0.1843
  885MOL0     C19406   0.781  10.717   8.888  0.0744  0.3600 -0.1369
  885MOL0     C19407   0.644  10.741   8.872  0.4760  0.0219 -0.6870
  885MOL0     H19408   0.368  11.267   8.959  0.1751  0.2292 -3.0800
  885MOL0     H19409   0.156  11.380   8.970  3.7180 -0.6715  1.0383
  885MOL0     H19410  -0.143  11.256   8.694 -0.4246  1.5885 -0.5300
  885MOL0     H19411  -0.231  11.175   8.818 -0.2783  0.2889  1.9760
  885MOL0     H19412  -0.232  11.477   8.766 -0.3502  0.3806 -0.9216
  885MOL0     H19413  -0.358  11.365   8.723 -0.5801 -0.9439  0.3726
  885MOL0     H19414  -0.284  11.431   9.015 -0.0772 -3.6106  1.1740
  885MOL0     H19415  -0.425  11.496   8.922 -2.9017 -2.5882 -2.4153
  885MOL0     H19416  -0.480  11.236   8.906 -0.7906 -0.5840 -0.3016
  885MOL0     H19417  -0.377  11.235   9.061  0.2952  1.7471  0.2297
  885MOL0     H19418  -0.519  11.402   9.163  0.0092  0.7305 -1.4631
  885MOL0     H19419  -0.619  11.413   9.016 -1.6122 -0.3835 -0.3844
  885MOL0     H19420  -0.570  11.172   9.190 -1.3224  1.5424  1.3673
  885MOL0     H19421  -0.723  11.257   9.183  1.8573  0.3347  2.7284
  885MOL0     H19422  -0.820  11.166   9.016 -0.8797  1.8773  0.5282
  885MOL0     H19423  -0.676  11.194   8.909 -0.0265 -1.9489 -1.0335
  885MOL0     H19424  -0.679  10.954   9.088 -1.3577 -0.1517  0.0934
  885MOL0     H19425  -0.563  11.015   8.970  0.4014 -2.0562  3.1922
  885MOL0     H19426  -0.935  10.925   8.983 -1.2652  1.3028 -0.9295
  885MOL0     H19427  -1.012  10.697   8.663  1.2039  1.9280 -0.8094
  885MOL0     H19428  -1.075  10.697   8.823  3.0264 -1.5335  0.0369
  885MOL0     H19429  -1.226  10.827   8.667  1.0512 -2.2718 -0.2124
  885MOL0     H19430  -1.103  10.925   8.626  0.2063 -2.8861 -1.8947
  885MOL0     H19431  -1.070  11.028   8.831 -0.2630 -0.4634  1.3121
  885MOL0     H19432  -1.162  10.917   8.920 -0.6708 -1.1078 -0.0295
  885MOL0     H19433  -1.270  11.151   8.750  1.0989  1.7840  1.8091
  885MOL0     H19434  -1.317  11.112   8.905 -2.9511 -1.4015 -1.0505
  885MOL0     H19435  -1.609  10.862   8.723  3.1332 -0.5148  2.9161
  885MOL0     H19436  -1.901  10.928   8.615  0.4954 -2.0853 -0.4032
  885MOL0     H19437  -1.835  10.800   8.723 -0.3092 -0.6677  1.5039
  885MOL0     H19438  -1.961  10.914   8.786 -0.4239 -1.4888 -0.8921
  885MOL0     H19439  -2.060  11.497   8.863 -1.2934 -0.1149 -0.3143
  885MOL0     H19440  -2.297  11.561   8.901 -0.0519  1.1404  1.7766
  885MOL0     H19441  -2.415  11.626   9.122  3.3736 -1.8366 -0.9702
  885MOL0     H19442  -2.504  11.614   8.968  0.3165  1.5488 -0.0693
  885MOL0     H19443  -2.637  11.550   9.225  0.5657  1.2713  0.9071
  885MOL0     H19444  -2.647  11.710   9.137  1.8127 -0.3864  2.6042
  885MOL0     H19445  -2.728  11.427   9.050  2.2699  0.2298  0.8506
  885MOL0     H19446  -2.730  11.566   8.941  2.0328 -0.7119  0.1955
  885MOL0     H19447  -2.905  11.523   9.197 -2.1137 -1.6484 -0.3923
  885MOL0     H19448  -2.908  11.662   9.075  1.2585 -0.4823 -2.9331
  885MOL0     H19449  -2.972  11.477   8.910  1.0696 -1.1968  0.5047
  885MOL0     H19450  -3.084  11.527   9.036  1.6630  2.7333  0.2164
  885MOL0     H19451  -2.910  11.271   9.034 -1.3756 -0.3514 -1.0050
  885MOL0     H19452  -3.016  11.320   9.172 -1.8681  4.0848  0.5939
  885MOL0     H19453  -3.117  11.146   9.009 -1.8349 -0.4990 -1.5958
  885MOL0     H19454  -3.113  11.287   8.894 -1.7577  2.1574  0.3949
  885MOL0     H19455  -3.275  11.406   9.041 -2.0543  0.2190  1.2018
  885MOL0     H19456  -3.299  11.255   9.126 -6.1673 -1.5414 -1.5272
  885MOL0     H19457  -2.342  11.231   9.163 -2.7142  1.8903 -0.1808
  885MOL0     H19458  -2.112  11.153   9.117  0.1886 -0.2941 -1.8129
  885MOL0     H19459  -1.725  11.319   8.867 -2.2243 -2.0244  2.5838
  885MOL0     H19460  -1.488  11.250   8.832  0.6338 -0.2039 -1.6408
  885MOL0     H19461  -0.041  11.042   8.812 -1.3675  2.0601  1.8915
  885MOL0     H19462   0.176  10.921   8.794 -1.8956 -0.3545  0.8233
  885MOL0     H19463   0.659  11.078   8.878 -0.9528 -0.8226 -1.0416
  885MOL0     H19464   0.896  11.022   8.917 -1.1943  1.2865  2.2310
  885MOL0     H19465   1.022  10.619   9.020  1.0421  1.0513  0.8375
  885MOL0     H19466   1.060  10.607   8.843 -1.3602 -1.4361  1.0201
  885MOL0     H19467   1.262  10.614   8.987  0.2272  0.7703 -1.3749
  885MOL0     H19468   1.214  10.774   9.044 -0.2331 -0.5532  0.2887
  885MOL0     H19469   1.227  10.846   8.807 -0.6996 -0.3720  2.1554
  885MOL0     H19470   1.268  10.682   8.767 -0.3147  0.5771  0.3999
  885MOL0     H19471   1.425  10.857   8.950 -0.6456  0.3297 -1.0481
  885MOL0     H19472   1.468  10.832   8.786  1.2557  0.0246  0.5906
  885MOL0     H19473   1.669  10.514   8.965  0.3917 -0.9641 -3.5828
  885MOL0     H19474   0.819  10.615   8.887 -1.5447 -0.2678  0.0999
  885MOL0     H19475   0.576  10.656   8.869 -2.5638  2.2682 -0.1459
  886MOL0     O19476   6.672   5.888   6.970 -0.4177  0.1208 -0.8392
  886MOL0     C19477   6.714   5.890   6.857 -0.0724 -0.0831 -0.3675
  886MOL0     O19478   6.638   5.864   6.748 -0.8351  0.4224 -0.1979
  886MOL0     C19479   6.501   5.865   6.742 -0.5610  0.1186 -0.1588
  886MOL0     C19480   6.427   5.757   6.683  0.2814 -0.5111  0.9085
  886MOL0     C19481   6.287   5.764   6.676  0.0570 -0.6748  0.4428
  886MOL0     C19482   6.212   5.865   6.732  0.5674 -0.1759  0.0489
  886MOL0     O19483   6.075   5.860   6.713  0.0288  0.2414 -0.5881
  886MOL0     C19484   5.988   5.957   6.770 -1.0533  0.9330  0.3718
  886MOL0     C19485   5.845   5.925   6.733  0.7754 -0.2069 -0.4713
  886MOL0     C19486   5.775   5.825   6.824  0.7501 -0.5626 -0.3746
  886MOL0     C19487   5.618   5.821   6.793  0.2255 -0.3526  0.1007
  886MOL0     C19488   5.556   5.717   6.882  0.4574  0.3029 -0.2899
  886MOL0     C19489   5.416   5.700   6.838  0.4869  0.8276  0.4482
  886MOL0     C19490   5.335   5.608   6.929 -0.8020 -0.4418  0.5971
  886MOL0     C19491   5.201   5.562   6.883 -0.1364  0.1997 -0.4012
  886MOL0     N19492   5.115   5.685   6.876  0.3166  0.0494  0.2685
  886MOL0     C19493   5.046   5.733   6.767 -0.7121 -0.7243  0.6902
  886MOL0     C19494   4.959   5.826   6.815  0.1616  0.2058 -0.2638
  886MOL0     C19495   4.868   5.912   6.727 -0.5598 -0.2120 -0.1997
  886MOL0     C19496   4.721   5.918   6.787  0.6477 -0.3218  0.3994
  886MOL0     C19497   4.644   6.026   6.715 -0.1817  0.3195  0.5581
  886MOL0     C19498   4.490   5.992   6.731 -0.5942 -0.1830 -0.1978
  886MOL0     O19499   4.437   6.002   6.863  0.2007 -0.1260 -0.3912
  886MOL0     C19500   4.303   6.002   6.882 -0.1059 -0.2877 -0.4691
  886MOL0     C19501   4.265   6.057   7.002 -0.4783 -0.6219 -0.6430
  886MOL0     C19502   4.124   6.048   7.050  0.1594  0.0976  0.5491
  886MOL0     C19503   4.083   6.096   7.190  0.0924 -0.2581 -0.2172
  886MOL0     C19504   4.034   5.983   6.961  0.6500  0.1242 -0.3613
  886MOL0     C19505   3.893   5.965   6.994 -0.3789  1.5109  0.4653
  886MOL0     O19506   3.826   6.084   6.990  0.3877 -0.3241 -1.1615
  886MOL0     C19507   3.687   6.088   6.973 -0.3498  0.3879 -0.2916
  886MOL0     C19508   3.628   6.010   6.874  0.2750  0.2664 -0.3429
  886MOL0     C19509   3.486   6.022   6.864  0.1133 -0.0565  0.5545
  886MOL0     C19510   3.410   6.111   6.941  0.2038  1.0952 -0.4556
  886MOL0     O19511   3.276   6.135   6.911  0.0973 -0.7387 -0.5541
  886MOL0     C19512   3.178   6.145   7.019  0.0946  0.3487 -0.2757
  886MOL0     C19513   3.042   6.156   6.942 -0.3749  0.4200 -0.8585
  886MOL0     C19514   2.925   6.187   7.034  0.4283  0.0882  0.1514
  886MOL0     C19515   2.795   6.200   6.949 -0.2914 -0.3634 -0.5366
  886MOL0     C19516   2.692   6.228   7.054  0.2147  0.3545  1.3924
  886MOL0     C19517   2.552   6.243   7.000  0.2364 -0.6318  0.0103
  886MOL0     C19518   2.523   6.373   6.928  0.0493 -0.3088 -0.4638
  886MOL0     C19519   2.408   6.366   6.819  0.6152 -0.2003 -0.1372
  886MOL0    Cl19520   2.354   6.534   6.782  0.2678 -0.0215 -0.0240
  886MOL0     C19521   3.477   6.182   7.030 -0.5667 -0.1371 -0.6057
  886MOL0     C19522   3.619   6.179   7.046  0.0218 -0.3685 -0.4028
  886MOL0     O19523   3.845   5.860   7.026  0.3240  0.4863  0.5949
  886MOL0     C19524   4.078   5.930   6.836 -0.6489 -0.7716 -0.2438
  886MOL0     C19525   4.213   5.933   6.798 -0.4999 -1.1635 -0.5498
  886MOL0     N19526   4.984   5.841   6.954  0.3600 -0.5237  0.0573
  886MOL0     N19527   5.079   5.756   6.989  0.1977  0.0929  1.1976
  886MOL0     C19528   6.283   5.962   6.796 -1.2946 -0.5419  0.2028
  886MOL0     C19529   6.432   5.967   6.800  0.0222 -0.2969 -0.5695
  886MOL0     C19530   6.862   5.921   6.828 -0.6714  0.0079  0.3371
  886MOL0     C19531   6.941   5.989   6.924  0.1139 -0.7918  0.0239
  886MOL0     C19532   7.071   6.024   6.897  0.3791  0.0560  0.6649
  886MOL0     C19533   7.127   5.988   6.771 -0.0269 -0.2612  0.8651
  886MOL0     O19534   7.260   6.023   6.753  0.2134  0.6056 -0.7526
  886MOL0     C19535   7.310   6.001   6.620  0.6845  0.1415  0.2137
  886MOL0     C19536   7.459   6.038   6.630 -0.4602  0.8630  0.3266
  886MOL0     C19537   7.538   5.957   6.733 -0.3156 -0.6229  0.7030
  886MOL0     C19538   7.678   6.003   6.749  0.5596 -0.5966  0.7914
  886MOL0     C19539   7.744   5.922   6.844 -0.8713  0.2848 -0.3744
  886MOL0     C19540   7.819   5.859   6.920 -0.4094 -0.3613 -0.4981
  886MOL0     C19541   7.051   5.908   6.676 -0.7150  0.2077 -0.2925
  886MOL0     C19542   6.915   5.882   6.704 -0.0644  0.3442 -0.0559
  886MOL0     H19543   6.474   5.677   6.626 -1.8621  0.2868 -2.2328
  886MOL0     H19544   6.227   5.687   6.628 -1.0410  1.9554 -2.8059
  886MOL0     H19545   6.008   5.968   6.876 -1.1506 -0.0710  0.5045
  886MOL0     H19546   6.005   6.058   6.732  0.9552  0.3690 -0.3967
  886MOL0     H19547   5.787   6.017   6.740  1.3926  0.0565  3.1897
  886MOL0     H19548   5.849   5.892   6.628  1.5602  0.1520 -0.5584
  886MOL0     H19549   5.811   5.727   6.790  0.4046 -1.1084  0.7809
  886MOL0     H19550   5.785   5.847   6.931  1.0729  2.6609 -0.9815
  886MOL0     H19551   5.576   5.920   6.815 -1.2800 -0.3206 -2.4975
  886MOL0     H19552   5.614   5.787   6.689  0.4859 -2.7115  0.8043
  886MOL0     H19553   5.606   5.620   6.870 -0.0613  0.1773 -1.5881
  886MOL0     H19554   5.557   5.750   6.986  0.2751 -0.3646 -0.0707
  886MOL0     H19555   5.365   5.797   6.826  1.3714  1.3458  0.7635
  886MOL0     H19556   5.428   5.656   6.739  0.4605  2.4965 -0.3435
  886MOL0     H19557   5.395   5.517   6.935  0.5646  0.4417  0.7194
  886MOL0     H19558   5.324   5.646   7.030  1.0071 -1.6990  1.3204
  886MOL0     H19559   5.158   5.488   6.950  1.2680  0.6705  1.0781
  886MOL0     H19560   5.199   5.519   6.782 -6.6357 -1.2781 -0.0581
  886MOL0     H19561   5.053   5.706   6.662  0.5049 -3.6322  1.4374
  886MOL0     H19562   4.904   6.014   6.745  1.8861 -1.0366 -0.0414
  886MOL0     H19563   4.861   5.894   6.619 -2.4884  1.4228 -0.4076
  886MOL0     H19564   4.723   5.938   6.894 -0.0972 -1.0670  0.5626
  886MOL0     H19565   4.661   5.826   6.779  0.4625 -0.1993  0.3598
  886MOL0     H19566   4.659   6.007   6.608 -0.8410 -0.7940  0.6505
  886MOL0     H19567   4.678   6.127   6.743  2.8451 -0.7628  1.1606
  886MOL0     H19568   4.477   5.891   6.692  2.8936 -0.7668 -0.1912
  886MOL0     H19569   4.424   6.054   6.670 -1.1092 -1.6501 -1.1696
  886MOL0     H19570   4.331   6.111   7.069 -1.0510 -0.9719  0.2229
  886MOL0     H19571   4.071   6.014   7.261  0.3027  1.2145  1.5824
  886MOL0     H19572   4.165   6.155   7.233 -2.5291  3.3294  0.2861
  886MOL0     H19573   3.989   6.150   7.201 -1.0904 -2.6466  2.3194
  886MOL0     H19574   3.676   5.955   6.794  1.5506  0.5163  0.2311
  886MOL0     H19575   3.433   5.966   6.788 -0.0022 -0.7039  1.0991
  886MOL0     H19576   3.175   6.056   7.082 -1.3995 -0.8069 -1.8737
  886MOL0     H19577   3.188   6.239   7.074  0.0855  1.2251 -1.7085
  886MOL0     H19578   3.056   6.246   6.883  1.7569  0.0088 -1.0621
  886MOL0     H19579   3.021   6.071   6.876  0.4159  0.8456 -1.6671
  886MOL0     H19580   2.940   6.285   7.081 -0.4817  2.3042 -3.6368
  886MOL0     H19581   2.927   6.103   7.104  0.5179 -2.7792 -3.0219
  886MOL0     H19582   2.819   6.289   6.890 -1.5531  2.0884  2.3562
  886MOL0     H19583   2.772   6.111   6.890 -0.1282 -0.2080 -0.8402
  886MOL0     H19584   2.707   6.324   7.105  0.1767  0.8302  0.5263
  886MOL0     H19585   2.695   6.149   7.129  0.5266 -0.6677  0.3325
  886MOL0     H19586   2.521   6.165   6.929 -4.0387 -0.7343  1.6894
  886MOL0     H19587   2.487   6.240   7.088  0.7705 -1.3942  0.3928
  886MOL0     H19588   2.615   6.399   6.875  1.0991 -2.2623  0.3011
  886MOL0     H19589   2.491   6.451   6.998 -2.6704 -0.9716 -0.8525
  886MOL0     H19590   2.318   6.320   6.860 -1.0174 -0.8764 -4.0802
  886MOL0     H19591   2.434   6.308   6.730 -0.5161  1.3650 -1.5643
  886MOL0     H19592   3.417   6.262   7.073  0.0605 -1.0894  2.2892
  886MOL0     H19593   3.672   6.246   7.113 -2.4892  3.5180 -2.0123
  886MOL0     H19594   4.008   5.887   6.764 -1.5472  1.4667 -0.7959
  886MOL0     H19595   4.244   5.902   6.699  0.5265 -1.1518 -0.2392
  886MOL0     H19596   6.229   6.050   6.829  1.8176  1.7766 -0.3653
  886MOL0     H19597   6.479   6.059   6.834 -0.2878 -0.5668  0.6262
  886MOL0     H19598   6.877   6.020   7.006  0.4498 -4.0680  1.7090
  886MOL0     H19599   7.126   6.080   6.972  2.0330 -1.0012  0.2953
  886MOL0     H19600   7.296   5.897   6.587  2.1116 -0.5024  1.4804
  886MOL0     H19601   7.271   6.076   6.552  0.7953 -0.6475 -0.7419
  886MOL0     H19602   7.472   6.141   6.664  0.5423  0.5252  1.0083
  886MOL0     H19603   7.509   6.019   6.534 -1.6698  1.8972 -0.5416
  886MOL0     H19604   7.540   5.852   6.703 -1.5800 -0.8243  1.2684
  886MOL0     H19605   7.489   5.973   6.829  0.1042  0.3253  0.7682
  886MOL0     H19606   7.679   6.106   6.786 -2.6821  0.4976 -1.6660
  886MOL0     H19607   7.729   5.983   6.654  0.4558 -4.1039  1.3206
  886MOL0     H19608   7.879   5.807   6.992 -1.0170 -0.8065 -0.2990
  886MOL0     H19609   7.093   5.883   6.579  1.9162  1.0643  0.5492
  886MOL0     H19610   6.854   5.837   6.626  2.1094 -1.6380 -0.7672
  887MOL0     O19611   7.893   9.205   7.163 -0.2582 -0.2428  0.5752
  887MOL0     C19612   7.970   9.290   7.207  0.1800 -0.2504  0.0437
  887MOL0     O19613   7.929   9.394   7.286  0.6196  0.1908 -0.3003
  887MOL0     C19614   7.801   9.398   7.327  0.2830  0.2170  0.3876
  887MOL0     C19615   7.728   9.297   7.399  0.2124 -0.7338  0.3787
  887MOL0     C19616   7.590   9.314   7.437 -0.1714 -0.8476  0.1995
  887MOL0     C19617   7.533   9.434   7.413  0.2820  0.0560  0.0472
  887MOL0     O19618   7.403   9.447   7.449 -0.2714  0.7557 -0.2939
  887MOL0     C19619   7.329   9.564   7.422  0.9868 -0.1956 -0.0600
  887MOL0     C19620   7.171   9.518   7.420 -0.4983 -0.4280  0.4797
  887MOL0     C19621   7.109   9.497   7.560  0.4309 -1.1375  0.0637
  887MOL0     C19622   7.094   9.632   7.640 -0.5328 -0.2633 -0.5501
  887MOL0     C19623   7.024   9.632   7.777  0.1433  0.0854  0.2443
  887MOL0     C19624   6.992   9.776   7.831 -0.1560 -0.4293  0.3892
  887MOL0     C19625   7.112   9.864   7.807 -0.6627 -0.4570 -0.2178
  887MOL0     C19626   7.090  10.005   7.859 -0.6338  0.6936 -0.2198
  887MOL0     N19627   7.008  10.093   7.777 -0.1867  0.2328 -0.6651
  887MOL0     C19628   6.882  10.077   7.717 -0.0287  0.8390 -0.1127
  887MOL0     C19629   6.863  10.185   7.638  0.4678  0.5279 -0.0787
  887MOL0     C19630   6.758  10.199   7.534 -0.5264 -0.4185  0.4444
  887MOL0     C19631   6.631  10.243   7.608  0.5651  0.1311  0.6205
  887MOL0     C19632   6.558  10.130   7.689  0.7397 -0.2936 -1.2236
  887MOL0     C19633   6.405  10.142   7.686 -1.2270  0.6817  0.3378
  887MOL0     O19634   6.352  10.046   7.778 -0.0268 -0.1318  1.1703
  887MOL0     C19635   6.216  10.022   7.771  0.4516 -0.0680  0.4251
  887MOL0     C19636   6.165   9.933   7.869 -0.3295 -0.3231 -0.4810
  887MOL0     C19637   6.028   9.892   7.875 -1.0861 -0.0471 -0.8734
  887MOL0     C19638   5.997   9.788   7.974  0.1566  0.4095 -0.0957
  887MOL0     C19639   5.933   9.959   7.790 -0.0250 -1.1673  0.6692
  887MOL0     C19640   5.787   9.931   7.786 -0.1552 -0.4195  0.2512
  887MOL0     O19641   5.715   9.985   7.684 -0.5003  0.5382  0.5799
  887MOL0     C19642   5.579  10.004   7.681  0.8361 -0.9576 -0.0257
  887MOL0     C19643   5.487   9.900   7.711  0.8934  0.5379  0.3365
  887MOL0     C19644   5.347   9.930   7.704  0.0142 -0.1230  0.2043
  887MOL0     C19645   5.293  10.042   7.647 -0.1325 -0.1603 -1.2697
  887MOL0     O19646   5.158  10.061   7.634 -0.6888  0.0613 -0.1544
  887MOL0     C19647   5.101  10.193   7.627 -0.5261  0.2161  0.3770
  887MOL0     C19648   4.946  10.196   7.622  0.2411  0.7011 -0.2374
  887MOL0     C19649   4.893  10.162   7.481 -1.0259 -0.0048 -0.1951
  887MOL0     C19650   4.744  10.190   7.492  0.1656  0.8368 -0.8882
  887MOL0     C19651   4.653  10.161   7.367 -0.6409 -0.3639 -0.0944
  887MOL0     C19652   4.504  10.204   7.393 -0.0205  0.5742  0.2563
  887MOL0     C19653   4.467  10.354   7.380 -0.3402  0.0646 -0.2901
  887MOL0     C19654   4.314  10.386   7.365 -1.0143  0.7027  0.4056
  887MOL0    Cl19655   4.310  10.562   7.326 -0.1584 -0.3025  0.3958
  887MOL0     C19656   5.385  10.142   7.609  0.2837 -0.4899 -0.0874
  887MOL0     C19657   5.532  10.125   7.633 -0.5011 -0.1001 -0.1091
  887MOL0     O19658   5.739   9.853   7.870  0.9756 -0.0142  0.5216
  887MOL0     C19659   5.986  10.053   7.698 -0.4666  0.1627 -0.0932
  887MOL0     C19660   6.120  10.079   7.685 -0.1189  0.1592 -0.8352
  887MOL0     N19661   6.983  10.256   7.652 -0.2633 -0.2533  0.3450
  887MOL0     N19662   7.063  10.205   7.734  0.6257 -0.7877 -0.1160
  887MOL0     C19663   7.605   9.544   7.361  0.4502  0.2527 -0.2847
  887MOL0     C19664   7.734   9.525   7.316  0.3397  0.0070 -0.1427
  887MOL0     C19665   8.117   9.280   7.180 -0.5541  0.4498  0.7711
  887MOL0     C19666   8.181   9.156   7.155  0.9096  0.0980 -0.3577
  887MOL0     C19667   8.312   9.159   7.109 -0.4681  0.1876 -0.5955
  887MOL0     C19668   8.384   9.272   7.097  0.0479  0.4534 -1.1244
  887MOL0     O19669   8.518   9.251   7.058  0.6123  0.3046 -0.8189
  887MOL0     C19670   8.605   9.362   7.040 -0.0890  0.0367  0.6974
  887MOL0     C19671   8.735   9.321   6.986 -0.7778  0.2865 -0.0755
  887MOL0     C19672   8.719   9.228   6.866 -0.2291  0.5520  0.0636
  887MOL0     C19673   8.842   9.187   6.796  0.0341  0.5647 -0.2223
  887MOL0     C19674   8.928   9.299   6.746  0.4391  0.9133 -0.2477
  887MOL0     C19675   9.002   9.390   6.704 -0.2753 -1.5726  0.3537
  887MOL0     C19676   8.331   9.394   7.125  0.4989  0.3193  0.2984
  887MOL0     C19677   8.194   9.400   7.166  0.0683  0.4079  0.0038
  887MOL0     H19678   7.778   9.202   7.417 -0.3742 -1.0452  0.4025
  887MOL0     H19679   7.552   9.243   7.510  1.1369 -2.3283 -0.5048
  887MOL0     H19680   7.337   9.642   7.498 -2.9584  1.0137 -0.6074
  887MOL0     H19681   7.348   9.602   7.321 -1.1001  1.7794  0.1967
  887MOL0     H19682   7.117   9.600   7.372  1.4170 -0.6839 -2.3003
  887MOL0     H19683   7.156   9.429   7.357 -4.8911 -1.3926  2.4968
  887MOL0     H19684   7.013   9.445   7.564 -1.4624  1.9921 -0.4994
  887MOL0     H19685   7.172   9.432   7.621  0.4058 -0.9615  0.2783
  887MOL0     H19686   7.195   9.664   7.667 -0.6488 -0.4548  0.1160
  887MOL0     H19687   7.039   9.710   7.585 -0.5725 -0.8786 -1.4080
  887MOL0     H19688   6.933   9.571   7.780  0.3248 -0.1500  1.6527
  887MOL0     H19689   7.094   9.590   7.850  2.6976  2.8321 -0.4657
  887MOL0     H19690   6.905   9.818   7.779  1.2803  1.2707 -0.7452
  887MOL0     H19691   6.952   9.774   7.932  0.1945 -2.3333  0.5327
  887MOL0     H19692   7.193   9.823   7.868 -0.5086 -2.8194 -1.8850
  887MOL0     H19693   7.147   9.881   7.705 -2.7040  0.3613 -0.8458
  887MOL0     H19694   7.194  10.038   7.860 -0.9636  1.7426  0.5028
  887MOL0     H19695   7.043  10.006   7.958  1.2277 -0.2664  0.7248
  887MOL0     H19696   6.823   9.986   7.710  1.8302 -0.5691  1.4496
  887MOL0     H19697   6.782  10.279   7.463  0.3086 -0.1352  1.0340
  887MOL0     H19698   6.746  10.103   7.483  1.5970 -0.0411 -0.8723
  887MOL0     H19699   6.564  10.277   7.529 -1.2863  0.9310  2.4484
  887MOL0     H19700   6.649  10.322   7.682  3.8850  0.3162 -0.2313
  887MOL0     H19701   6.583  10.146   7.795 -0.5990 -0.2118 -0.8989
  887MOL0     H19702   6.604  10.033   7.666  1.3342  0.4067 -3.1013
  887MOL0     H19703   6.356  10.117   7.591 -1.3156 -4.1761  1.3805
  887MOL0     H19704   6.378  10.242   7.722  2.4591  0.7261  3.7478
  887MOL0     H19705   6.235   9.888   7.939  0.2595  1.7708  0.3712
  887MOL0     H19706   5.919   9.808   8.048 -0.4844 -3.7754  0.6097
  887MOL0     H19707   5.978   9.686   7.938  0.0577  0.3942  0.0018
  887MOL0     H19708   6.086   9.781   8.038  0.4522  1.2580 -0.3993
  887MOL0     H19709   5.515   9.811   7.766  0.6570 -0.8683 -1.7110
  887MOL0     H19710   5.268   9.860   7.730 -0.7437  0.5396 -0.2620
  887MOL0     H19711   5.132  10.250   7.715  0.2164  1.3143 -0.5684
  887MOL0     H19712   5.151  10.250   7.548  0.5733  1.6249  2.0163
  887MOL0     H19713   4.897  10.122   7.687  0.3599 -0.7826 -1.7660
  887MOL0     H19714   4.918  10.300   7.643 -0.7646  0.4311 -0.1472
  887MOL0     H19715   4.916  10.061   7.446 -0.9744 -0.1707  0.3144
  887MOL0     H19716   4.952  10.218   7.408  1.4101 -2.2885 -0.1017
  887MOL0     H19717   4.701  10.146   7.582  2.2447  0.3042 -0.0907
  887MOL0     H19718   4.740  10.296   7.517  1.5127  0.6101  0.4096
  887MOL0     H19719   4.656  10.052   7.359 -0.8481 -0.5383  1.7529
  887MOL0     H19720   4.692  10.208   7.276 -1.5608 -1.4621 -1.0966
  887MOL0     H19721   4.441  10.140   7.330  0.5413  0.0361  0.2305
  887MOL0     H19722   4.476  10.176   7.496  3.5697  2.2354  1.8361
  887MOL0     H19723   4.529  10.396   7.301  2.7526 -1.4284  1.1515
  887MOL0     H19724   4.503  10.410   7.467  0.0980  2.0026 -1.6666
  887MOL0     H19725   4.251  10.358   7.450  2.1933 -0.0177  2.7319
  887MOL0     H19726   4.286  10.322   7.281  1.1191  0.2552 -0.0242
  887MOL0     H19727   5.365  10.242   7.571  1.6957  0.0728  0.5756
  887MOL0     H19728   5.585  10.218   7.616 -1.5463  1.0429  2.3958
  887MOL0     H19729   5.920  10.106   7.630 -1.7088  1.7725  2.2221
  887MOL0     H19730   6.131  10.153   7.607 -1.5150  0.1482 -1.0691
  887MOL0     H19731   7.562   9.643   7.351  1.9635  0.9050 -0.7356
  887MOL0     H19732   7.785   9.604   7.263 -1.5877  0.1948 -1.8561
  887MOL0     H19733   8.128   9.062   7.170  1.6610 -0.1584  0.9062
  887MOL0     H19734   8.345   9.057   7.101 -0.8518 -0.1368  1.4068
  887MOL0     H19735   8.557   9.424   6.964 -0.2948 -3.2652 -2.1232
  887MOL0     H19736   8.628   9.420   7.130  2.6912  0.8140 -0.4346
  887MOL0     H19737   8.792   9.266   7.062 -1.6760 -1.4122 -0.5859
  887MOL0     H19738   8.798   9.407   6.960  1.9987 -0.5989  2.9224
  887MOL0     H19739   8.650   9.274   6.795 -0.8933 -0.4902  0.0076
  887MOL0     H19740   8.685   9.138   6.919  1.1739  0.0110  0.0906
  887MOL0     H19741   8.809   9.140   6.703  0.7350 -1.6420  0.5858
  887MOL0     H19742   8.902   9.121   6.858 -0.3171 -0.1333 -0.6139
  887MOL0     H19743   9.068   9.465   6.666  1.7067 -2.4328  1.9062
  887MOL0     H19744   8.381   9.488   7.107  2.6217 -1.1204 -1.9959
  887MOL0     H19745   8.159   9.501   7.185  2.5550  1.0291  1.8030
  888MOL0     O19746   5.801   8.261   5.374  0.0716 -1.1744  0.5537
  888MOL0     C19747   5.796   8.277   5.252 -0.2976  0.3316  0.1858
  888MOL0     O19748   5.690   8.320   5.183 -0.4937  0.4664 -0.1182
  888MOL0     C19749   5.576   8.373   5.252 -0.2627 -0.0329  0.2071
  888MOL0     C19750   5.527   8.491   5.198  0.6634 -0.8048 -1.5127
  888MOL0     C19751   5.410   8.548   5.258 -0.4298 -1.3412  0.4157
  888MOL0     C19752   5.339   8.493   5.368 -0.3355 -0.4151  0.5839
  888MOL0     O19753   5.232   8.541   5.439  0.4950  0.3532  1.0898
  888MOL0     C19754   5.170   8.665   5.384  0.6413  0.5635  0.0359
  888MOL0     C19755   5.063   8.719   5.484 -0.5033 -0.2975 -0.5239
  888MOL0     C19756   4.974   8.609   5.539  0.4256  0.0323 -0.3684
  888MOL0     C19757   4.884   8.543   5.422 -0.4495  0.2383  0.2399
  888MOL0     C19758   4.861   8.408   5.473 -0.8393  0.1609  0.1430
  888MOL0     C19759   4.774   8.321   5.388  0.1012 -1.1143  0.5608
  888MOL0     C19760   4.720   8.200   5.460 -0.0910  0.4425 -0.5628
  888MOL0     C19761   4.609   8.240   5.556  0.6165 -0.8087  0.5196
  888MOL0     N19762   4.529   8.126   5.608 -0.4120 -0.2959  0.4854
  888MOL0     C19763   4.555   8.059   5.723 -0.0951  0.7423  0.0459
  888MOL0     C19764   4.449   7.970   5.740  0.2313  0.6285 -0.6062
  888MOL0     C19765   4.432   7.859   5.843 -0.4239 -0.6824  1.0673
  888MOL0     C19766   4.436   7.898   5.992  0.0333 -0.2104 -0.1773
  888MOL0     C19767   4.316   7.990   6.047 -0.6091  0.1483  0.7063
  888MOL0     C19768   4.353   8.038   6.186 -0.7223  0.1824  0.5230
  888MOL0     O19769   4.284   8.157   6.232  0.0798  0.9391 -0.3220
  888MOL0     C19770   4.149   8.153   6.240 -0.2810  0.6867 -0.7274
  888MOL0     C19771   4.077   8.045   6.295  0.2901 -0.5495 -0.1072
  888MOL0     C19772   3.941   8.051   6.319 -0.2700 -0.9627  0.2440
  888MOL0     C19773   3.871   7.938   6.381  0.1104  0.9457 -0.2634
  888MOL0     C19774   3.877   8.180   6.299  0.2150 -0.0431  0.3845
  888MOL0     C19775   3.739   8.214   6.332 -0.3510  0.4109  0.2871
  888MOL0     O19776   3.670   8.281   6.238  0.0746 -0.3857  0.0683
  888MOL0     C19777   3.551   8.333   6.263 -0.6662 -0.4818 -0.2605
  888MOL0     C19778   3.438   8.255   6.245  0.9189 -0.6877 -0.1699
  888MOL0     C19779   3.312   8.296   6.289 -0.1184  0.2642  0.3748
  888MOL0     C19780   3.297   8.422   6.349  0.1788 -0.3261  0.9304
  888MOL0     O19781   3.181   8.473   6.410  0.5762  0.2526  0.4904
  888MOL0     C19782   3.057   8.431   6.344 -0.4588 -0.1134 -0.7555
  888MOL0     C19783   2.940   8.532   6.376  1.0834 -0.4397 -0.0660
  888MOL0     C19784   2.813   8.492   6.305  0.2101  0.1703  0.4324
  888MOL0     C19785   2.713   8.610   6.303 -0.0738  0.7226  0.1149
  888MOL0     C19786   2.614   8.595   6.189  0.2305 -0.1454 -0.7627
  888MOL0     C19787   2.515   8.481   6.223 -0.2815  0.0660  0.9714
  888MOL0     C19788   2.396   8.492   6.130  0.0200 -0.2978 -0.2749
  888MOL0     C19789   2.287   8.385   6.157  0.1879 -0.5927 -0.0085
  888MOL0    Cl19790   2.221   8.417   6.310  0.3182  0.0688 -0.0359
  888MOL0     C19791   3.411   8.492   6.367  0.3886 -0.9093  0.0955
  888MOL0     C19792   3.541   8.460   6.322  0.3908 -0.0114 -0.0636
  888MOL0     O19793   3.695   8.175   6.438  0.0518 -0.6080 -0.2818
  888MOL0     C19794   3.944   8.280   6.241 -0.7110 -0.5597 -0.0030
  888MOL0     C19795   4.076   8.266   6.206  0.3161 -0.2607 -0.6867
  888MOL0     N19796   4.361   7.994   5.643 -0.5927 -0.2578  0.6645
  888MOL0     N19797   4.405   8.085   5.560 -0.6980  0.1351 -0.3980
  888MOL0     C19798   5.404   8.389   5.429  0.0405  0.5382 -0.4965
  888MOL0     C19799   5.515   8.320   5.368 -0.3252  0.0284 -0.7387
  888MOL0     C19800   5.916   8.257   5.174  0.6893  0.4135  0.1452
  888MOL0     C19801   6.044   8.233   5.226  0.8239  0.2563 -0.5133
  888MOL0     C19802   6.154   8.212   5.148 -0.2690  0.6805 -0.9544
  888MOL0     C19803   6.144   8.222   5.004  0.2621 -0.4166 -0.4240
  888MOL0     O19804   6.249   8.182   4.929  0.9988 -0.0795  1.1637
  888MOL0     C19805   6.369   8.126   4.987  0.1662 -0.2214 -0.0464
  888MOL0     C19806   6.482   8.090   4.880 -0.6078  0.3389 -0.1886
  888MOL0     C19807   6.603   8.027   4.951 -0.4904 -0.0854  0.4760
  888MOL0     C19808   6.711   8.127   5.013  1.0395  0.2029 -0.4197
  888MOL0     C19809   6.758   8.222   4.916  0.6430  0.5930  0.5629
  888MOL0     C19810   6.794   8.314   4.847  0.3523 -0.8620  0.4193
  888MOL0     C19811   6.016   8.247   4.947 -0.1339  0.4449 -0.2397
  888MOL0     C19812   5.912   8.270   5.032  0.0106  0.5236  1.0517
  888MOL0     H19813   5.582   8.544   5.120  3.0856  0.1183  0.6712
  888MOL0     H19814   5.364   8.633   5.207  1.3016 -0.8728 -0.4563
  888MOL0     H19815   5.247   8.742   5.372  0.5364  0.3021 -3.6847
  888MOL0     H19816   5.117   8.648   5.289 -0.4245 -0.4007  0.7722
  888MOL0     H19817   5.125   8.752   5.568 -0.0829 -1.7449 -0.2386
  888MOL0     H19818   4.997   8.798   5.448 -2.2753 -0.8523  1.3204
  888MOL0     H19819   5.037   8.536   5.592  0.1993  1.0077  1.3028
  888MOL0     H19820   4.907   8.653   5.613 -0.8527 -0.6286 -1.1076
  888MOL0     H19821   4.793   8.602   5.406  0.0394  1.0033  0.2268
  888MOL0     H19822   4.943   8.540   5.330  2.3053 -1.0962  1.9359
  888MOL0     H19823   4.948   8.352   5.507 -2.5602 -1.4550  2.1839
  888MOL0     H19824   4.811   8.423   5.570  0.4099 -1.2120  1.0396
  888MOL0     H19825   4.687   8.380   5.358  1.9135  1.0351 -0.8633
  888MOL0     H19826   4.826   8.294   5.295  1.3146 -0.5742  1.0669
  888MOL0     H19827   4.673   8.131   5.390  1.0777 -1.8215  0.7617
  888MOL0     H19828   4.806   8.151   5.508 -2.1732 -1.4458  1.5199
  888MOL0     H19829   4.537   8.300   5.500  2.3913 -0.2416 -1.2988
  888MOL0     H19830   4.652   8.299   5.637  1.1652  1.2079 -1.1529
  888MOL0     H19831   4.644   8.070   5.784  1.4257  0.6651 -2.0633
  888MOL0     H19832   4.335   7.808   5.835 -0.0549 -1.1734 -1.0364
  888MOL0     H19833   4.511   7.788   5.817 -1.0141  0.0382 -3.5960
  888MOL0     H19834   4.528   7.946   6.026 -0.8635  0.4456  1.4475
  888MOL0     H19835   4.445   7.802   6.043 -0.7236  1.0304  2.4936
  888MOL0     H19836   4.219   7.939   6.049 -0.0534 -0.9751 -0.0441
  888MOL0     H19837   4.304   8.082   5.989  0.0653  0.6633  1.3625
  888MOL0     H19838   4.455   8.075   6.190 -0.6880 -0.0328  3.2641
  888MOL0     H19839   4.354   7.950   6.251 -1.3440 -0.5849 -0.4660
  888MOL0     H19840   4.127   7.952   6.321  0.0424 -0.1105  2.1972
  888MOL0     H19841   3.849   7.953   6.487 -1.6484 -1.0102 -0.2811
  888MOL0     H19842   3.780   7.910   6.326  0.0577 -3.4102  1.6017
  888MOL0     H19843   3.940   7.853   6.377  2.4555  2.7565 -0.0405
  888MOL0     H19844   3.450   8.152   6.211  1.3285 -0.2501 -1.3583
  888MOL0     H19845   3.227   8.231   6.274 -1.2949  1.1347  2.7702
  888MOL0     H19846   3.079   8.424   6.237  0.6930 -2.1232 -0.4283
  888MOL0     H19847   3.025   8.332   6.376 -4.0014  0.3977 -2.2130
  888MOL0     H19848   2.919   8.533   6.484  0.6941 -0.1296 -0.1427
  888MOL0     H19849   2.964   8.636   6.353  1.1775 -0.3571  0.3889
  888MOL0     H19850   2.778   8.401   6.355  0.6382 -1.3608 -1.8773
  888MOL0     H19851   2.840   8.470   6.201  0.3796  0.4981  0.4067
  888MOL0     H19852   2.669   8.615   6.403 -0.1700  0.2510  0.0970
  888MOL0     H19853   2.761   8.708   6.287 -0.5173  0.8732 -0.3112
  888MOL0     H19854   2.670   8.572   6.098 -1.1718 -2.0480 -1.2152
  888MOL0     H19855   2.568   8.694   6.181  0.0757 -0.1398  0.0931
  888MOL0     H19856   2.560   8.382   6.209  1.4309  0.6882  1.7954
  888MOL0     H19857   2.476   8.503   6.323 -0.3336  3.0575  0.3896
  888MOL0     H19858   2.425   8.464   6.029 -0.6082 -0.3019 -0.4562
  888MOL0     H19859   2.351   8.591   6.140  0.6886 -0.1546  2.2103
  888MOL0     H19860   2.334   8.286   6.148 -0.5306 -0.9537  0.1797
  888MOL0     H19861   2.212   8.388   6.078  0.4814 -3.1091 -0.4804
  888MOL0     H19862   3.404   8.588   6.418  2.6275 -0.4024 -0.4286
  888MOL0     H19863   3.634   8.506   6.352  2.2871 -3.5616  0.0259
  888MOL0     H19864   3.886   8.370   6.222 -3.6180 -2.5240 -1.1461
  888MOL0     H19865   4.137   8.344   6.160  2.4419 -1.0412  0.6551
  888MOL0     H19866   5.350   8.339   5.508 -2.1920  1.7687 -1.1382
  888MOL0     H19867   5.545   8.222   5.401  3.0805  0.6692 -1.5933
  888MOL0     H19868   6.045   8.211   5.332 -0.5976  0.3666 -0.4595
  888MOL0     H19869   6.250   8.201   5.198 -0.3660  2.0114 -0.4407
  888MOL0     H19870   6.421   8.173   5.071 -1.3102 -1.0669  1.4107
  888MOL0     H19871   6.338   8.028   5.024  1.3695 -1.0091 -1.0631
  888MOL0     H19872   6.520   8.172   4.819  2.2923 -1.1045 -0.4682
  888MOL0     H19873   6.439   8.018   4.810 -1.2329  0.6794 -0.1642
  888MOL0     H19874   6.660   7.961   4.885  0.7065 -0.2404  1.6203
  888MOL0     H19875   6.560   7.966   5.031  0.3952  0.9181  1.7571
  888MOL0     H19876   6.801   8.074   5.047  0.1509 -0.8435  0.3682
  888MOL0     H19877   6.661   8.171   5.099 -2.4441 -1.6244 -1.3220
  888MOL0     H19878   6.818   8.390   4.775  2.6769 -1.2413  0.7331
  888MOL0     H19879   5.995   8.249   4.841  2.5234 -1.1740 -0.8775
  888MOL0     H19880   5.820   8.296   4.979  1.2513 -1.0100 -2.1091
  889MOL0     O19881   3.159   6.989   9.062 -0.2844 -0.1029 -0.2578
  889MOL0     C19882   3.183   6.957   8.946 -0.1375  0.2866 -0.9399
  889MOL0     O19883   3.104   6.866   8.871 -0.9071 -0.4816  0.3247
  889MOL0     C19884   3.001   6.797   8.932  0.3966  0.2596  0.2969
  889MOL0     C19885   3.002   6.738   9.067 -0.0590 -0.1401  0.3867
  889MOL0     C19886   2.886   6.682   9.121 -0.2210  0.9077  0.9228
  889MOL0     C19887   2.772   6.684   9.050 -0.0200  0.5921 -0.4507
  889MOL0     O19888   2.656   6.620   9.092 -0.7766 -0.3153 -0.4273
  889MOL0     C19889   2.658   6.557   9.213  0.4365  0.1016 -0.6002
  889MOL0     C19890   2.523   6.489   9.240 -0.0877  0.2964 -0.4455
  889MOL0     C19891   2.418   6.600   9.278 -0.4229  0.0529  0.3282
  889MOL0     C19892   2.284   6.563   9.232  0.1867 -0.8759  0.3458
  889MOL0     C19893   2.173   6.667   9.263 -0.3913  0.4913  0.3192
  889MOL0     C19894   2.026   6.617   9.275 -0.1135  0.2648 -0.4455
  889MOL0     C19895   1.939   6.741   9.305 -0.0594 -0.0880  0.0901
  889MOL0     C19896   1.798   6.696   9.334 -0.0173 -0.9570 -0.1166
  889MOL0     N19897   1.698   6.800   9.355 -0.1364  0.4286  0.6076
  889MOL0     C19898   1.572   6.789   9.405  0.7536  0.2234 -0.0608
  889MOL0     C19899   1.525   6.915   9.431  1.1719 -0.3214  0.3645
  889MOL0     C19900   1.386   6.940   9.481 -0.0468 -0.5593  0.1029
  889MOL0     C19901   1.336   7.073   9.430  0.3800  0.2946 -0.1766
  889MOL0     C19902   1.193   7.101   9.483  0.2406 -0.4027 -0.1263
  889MOL0     C19903   1.099   6.985   9.473 -0.3988  0.0418  0.2212
  889MOL0     O19904   0.978   7.027   9.545  1.0456 -0.3586  0.8346
  889MOL0     C19905   0.852   7.019   9.486  0.0951 -0.0948  0.0759
  889MOL0     C19906   0.756   7.121   9.510  0.0401 -0.3950 -0.8662
  889MOL0     C19907   0.636   7.131   9.447 -0.3756 -0.8135 -0.3594
  889MOL0     C19908   0.542   7.256   9.461 -0.4739  0.0064 -0.0350
  889MOL0     C19909   0.592   7.024   9.364 -0.1786 -0.1252 -0.3971
  889MOL0     C19910   0.454   7.030   9.299  0.0232  0.2498  0.0007
  889MOL0     O19911   0.367   6.929   9.331 -0.4719  0.1097  0.4124
  889MOL0     C19912   0.245   6.927   9.277  0.4184 -0.8009  0.7267
  889MOL0     C19913   0.139   6.936   9.366 -0.0915 -0.6220  0.1699
  889MOL0     C19914   0.005   6.931   9.331 -0.0682 -0.7628  0.3715
  889MOL0     C19915  -0.028   6.906   9.196  0.4394 -0.4120  0.3581
  889MOL0     O19916  -0.161   6.901   9.155  0.1430  0.5798 -0.0151
  889MOL0     C19917  -0.266   6.922   9.244  0.2382 -0.2778  0.2602
  889MOL0     C19918  -0.398   6.903   9.170  0.2168 -0.4147  0.1178
  889MOL0     C19919  -0.519   6.904   9.272  0.4761  0.0250  0.1535
  889MOL0     C19920  -0.642   6.834   9.214 -0.6457 -0.0716  0.2667
  889MOL0     C19921  -0.754   6.818   9.314  0.6323  0.1488  0.6983
  889MOL0     C19922  -0.795   6.954   9.380 -0.3900 -0.8939  0.0999
  889MOL0     C19923  -0.856   7.041   9.274  0.0148 -0.9240 -0.4488
  889MOL0     C19924  -0.934   7.168   9.335 -0.7005 -0.1043 -0.1146
  889MOL0    Cl19925  -1.090   7.110   9.413 -0.3256 -0.5004  0.1044
  889MOL0     C19926   0.076   6.889   9.101  0.1315  0.7959  0.3521
  889MOL0     C19927   0.211   6.889   9.143 -0.1876 -0.4415 -0.4893
  889MOL0     O19928   0.437   7.117   9.216  0.7866  0.2562 -0.2557
  889MOL0     C19929   0.685   6.921   9.353  0.7471  0.8514  0.1007
  889MOL0     C19930   0.810   6.920   9.406 -1.4690 -0.7696  0.8543
  889MOL0     N19931   1.634   7.006   9.391 -0.3075 -0.0760 -0.0472
  889MOL0     N19932   1.731   6.936   9.347  0.5875  0.4236  0.4190
  889MOL0     C19933   2.759   6.733   8.921  0.2706 -0.9081  0.2038
  889MOL0     C19934   2.875   6.800   8.866  0.1859  0.1506  0.2629
  889MOL0     C19935   3.295   7.028   8.870 -0.4379  0.6623 -0.1115
  889MOL0     C19936   3.353   7.143   8.916 -1.0756  0.1644  0.4766
  889MOL0     C19937   3.458   7.210   8.849 -0.3799  0.1836  0.8990
  889MOL0     C19938   3.502   7.159   8.726 -0.3692 -0.6761 -0.0055
  889MOL0     O19939   3.608   7.209   8.652  0.0022 -0.1790  1.1755
  889MOL0     C19940   3.703   7.280   8.724  0.3982  0.0767  1.0989
  889MOL0     C19941   3.776   7.200   8.835 -0.5176 -0.3794 -0.4966
  889MOL0     C19942   3.870   7.079   8.809  0.5929 -0.1214  0.1519
  889MOL0     C19943   3.972   7.108   8.702  0.4922 -0.3381 -0.1804
  889MOL0     C19944   3.917   7.121   8.566 -0.5748 -0.3188 -0.9905
  889MOL0     C19945   3.881   7.129   8.447  0.5728  0.2554 -0.7919
  889MOL0     C19946   3.446   7.043   8.678  0.5178  0.0982 -0.0760
  889MOL0     C19947   3.336   6.987   8.741 -0.9850  0.5476 -0.3545
  889MOL0     H19948   3.094   6.734   9.125 -0.8751 -1.4221  1.6461
  889MOL0     H19949   2.896   6.645   9.223  2.0193  1.9860  1.1562
  889MOL0     H19950   2.735   6.480   9.216 -1.4826 -1.9653 -1.8794
  889MOL0     H19951   2.674   6.634   9.289 -0.1422  2.1675 -2.4570
  889MOL0     H19952   2.490   6.433   9.152 -1.4974 -1.0776  0.9067
  889MOL0     H19953   2.547   6.426   9.326  1.7076  3.0241  1.1863
  889MOL0     H19954   2.431   6.617   9.386 -1.0831  0.1064  0.4070
  889MOL0     H19955   2.448   6.690   9.224 -1.0755  0.5274  0.7311
  889MOL0     H19956   2.285   6.563   9.122  0.0617 -0.3714  0.3427
  889MOL0     H19957   2.263   6.464   9.271 -0.1076 -0.6420  0.7838
  889MOL0     H19958   2.198   6.709   9.362  0.8989  1.1583 -0.2628
  889MOL0     H19959   2.170   6.737   9.179 -0.2302 -1.5754 -1.4842
  889MOL0     H19960   1.998   6.576   9.177  2.1359  0.8539 -1.3916
  889MOL0     H19961   2.019   6.543   9.356  3.2216  0.1720 -0.1271
  889MOL0     H19962   1.973   6.805   9.387 -1.1489  1.8623 -0.9068
  889MOL0     H19963   1.941   6.806   9.217 -0.1070  0.4904  0.5077
  889MOL0     H19964   1.798   6.636   9.425 -1.8259  1.6089  1.7047
  889MOL0     H19965   1.754   6.647   9.247 -0.7197 -0.2452 -0.1720
  889MOL0     H19966   1.519   6.696   9.420 -0.1260  0.6473 -0.4642
  889MOL0     H19967   1.318   6.857   9.458 -1.2369  1.1617 -3.2203
  889MOL0     H19968   1.395   6.932   9.590  1.4440 -0.6969 -0.0014
  889MOL0     H19969   1.326   7.068   9.321  0.1844 -0.2610 -0.1401
  889MOL0     H19970   1.411   7.151   9.447  1.7293 -0.5705 -1.8017
  889MOL0     H19971   1.154   7.186   9.425  0.1620 -1.2141 -1.2919
  889MOL0     H19972   1.195   7.142   9.584  0.2295  2.5884 -1.2247
  889MOL0     H19973   1.135   6.890   9.514 -1.6664  1.0443  4.1452
  889MOL0     H19974   1.068   6.967   9.370  4.4304 -0.4939 -1.3992
  889MOL0     H19975   0.787   7.202   9.576 -3.0640 -1.7873  2.6569
  889MOL0     H19976   0.526   7.306   9.365 -2.7419 -0.0265  0.2500
  889MOL0     H19977   0.439   7.237   9.494 -2.5356  0.1851 -5.2950
  889MOL0     H19978   0.594   7.328   9.524 -0.9608  1.0122 -0.7377
  889MOL0     H19979   0.157   6.957   9.471 -0.9633 -0.9022  0.3882
  889MOL0     H19980  -0.065   6.957   9.410 -0.4063  2.6398 -0.8470
  889MOL0     H19981  -0.259   6.854   9.329  0.5064  2.5453  2.6677
  889MOL0     H19982  -0.256   7.028   9.271  3.6653 -0.1043 -1.1446
  889MOL0     H19983  -0.403   6.976   9.089  1.3193  1.1307  1.3614
  889MOL0     H19984  -0.395   6.804   9.124 -0.6352 -0.6168  0.4699
  889MOL0     H19985  -0.540   7.007   9.304  1.9605 -0.1720  1.9813
  889MOL0     H19986  -0.497   6.849   9.364 -1.2482  0.4787  0.8807
  889MOL0     H19987  -0.682   6.889   9.128 -0.2220  0.2185  0.2520
  889MOL0     H19988  -0.614   6.733   9.182 -1.0859 -0.2602  0.4670
  889MOL0     H19989  -0.724   6.752   9.396  1.8241 -0.8606 -0.5150
  889MOL0     H19990  -0.842   6.772   9.267 -2.8060  3.5749  3.1027
  889MOL0     H19991  -0.863   6.926   9.461 -0.6501 -1.6861 -0.3774
  889MOL0     H19992  -0.709   7.003   9.427  0.4501 -2.1883 -0.0398
  889MOL0     H19993  -0.927   6.993   9.207 -0.7954  0.5547 -0.6845
  889MOL0     H19994  -0.767   7.085   9.228  0.6731 -0.1785  1.4373
  889MOL0     H19995  -0.955   7.243   9.259  1.6370  0.2971 -0.4168
  889MOL0     H19996  -0.860   7.216   9.400 -0.8090 -1.1038  0.7800
  889MOL0     H19997   0.053   6.841   9.006 -1.3762 -0.7905  1.4397
  889MOL0     H19998   0.293   6.876   9.073  0.7372  1.6697  0.1158
  889MOL0     H19999   0.662   6.834   9.292  0.2405  1.0818 -0.0455
  889MOL0     H20000   0.881   6.841   9.386 -0.1555  0.4935  0.3343
  889MOL0     H20001   2.667   6.727   8.864 -0.5804  2.0026  1.1162
  889MOL0     H20002   2.862   6.847   8.769 -1.6730  1.6073  1.1569
  889MOL0     H20003   3.324   7.186   9.012  0.4091  0.1649  0.9544
  889MOL0     H20004   3.490   7.302   8.898 -3.2429  2.7502 -1.5850
  889MOL0     H20005   3.776   7.320   8.652 -3.5852  3.4758 -1.5043
  889MOL0     H20006   3.670   7.376   8.765  0.7864  1.0341 -0.7119
  889MOL0     H20007   3.714   7.156   8.914  2.9763 -0.7875  2.2609
  889MOL0     H20008   3.825   7.285   8.884 -2.3740 -1.1747  3.1061
  889MOL0     H20009   3.817   6.993   8.765 -1.1518  1.4418 -0.9666
  889MOL0     H20010   3.909   7.047   8.906  0.2375  2.0159  1.0698
  889MOL0     H20011   4.036   7.020   8.694  0.0458 -0.6253 -0.6130
  889MOL0     H20012   4.031   7.195   8.734 -1.6686  0.8387  0.8326
  889MOL0     H20013   3.860   7.118   8.343  1.5833  1.9366 -1.2009
  889MOL0     H20014   3.481   7.003   8.583 -0.0520 -1.9571  0.5289
  889MOL0     H20015   3.302   6.893   8.700 -0.4615 -0.8602  2.2493
  890MOL0     O20016   3.720   1.703   8.723 -0.0958 -0.0865  0.1205
  890MOL0     C20017   3.711   1.813   8.773 -0.2069 -0.5347  0.6221
  890MOL0     O20018   3.609   1.898   8.764  0.1830  0.0704  0.2646
  890MOL0     C20019   3.505   1.844   8.695  0.9591  0.0687 -0.0893
  890MOL0     C20020   3.473   1.896   8.569 -0.3419 -1.0292 -0.8421
  890MOL0     C20021   3.364   1.853   8.497 -0.2354  0.4854  0.6908
  890MOL0     C20022   3.269   1.766   8.558 -0.4687  0.8015  0.0021
  890MOL0     O20023   3.143   1.748   8.506 -0.0017 -0.1146 -0.0220
  890MOL0     C20024   3.080   1.845   8.420 -0.6859  0.3660 -0.1036
  890MOL0     C20025   2.958   1.764   8.363  0.0132  0.3213  0.0812
  890MOL0     C20026   2.868   1.849   8.269  0.4168 -0.8498 -0.2911
  890MOL0     C20027   2.793   1.757   8.174 -0.0176 -0.0818  1.0192
  890MOL0     C20028   2.679   1.830   8.105  0.1615 -0.0379  0.2526
  890MOL0     C20029   2.730   1.946   8.018  0.9812  0.1985  0.0520
  890MOL0     C20030   2.624   1.980   7.905  0.0891  0.3266  0.5400
  890MOL0     C20031   2.675   2.099   7.817  0.0246 -0.6411 -0.7960
  890MOL0     N20032   2.815   2.080   7.778  0.5767 -0.1197  0.2249
  890MOL0     C20033   2.870   1.987   7.693  0.0850 -0.1751  0.4134
  890MOL0     C20034   3.000   2.026   7.684  0.4679  0.1044 -0.1985
  890MOL0     C20035   3.101   1.946   7.604  0.1189  0.3632  0.3558
  890MOL0     C20036   3.062   1.935   7.451  0.0690  0.9531  0.3126
  890MOL0     C20037   3.094   2.067   7.380 -0.6657 -0.2491 -0.6113
  890MOL0     C20038   2.968   2.156   7.385 -0.0013 -0.0903 -0.6310
  890MOL0     O20039   2.868   2.115   7.284 -0.8439  0.1172 -0.6829
  890MOL0     C20040   2.737   2.151   7.299  0.4287  0.0273 -0.4384
  890MOL0     C20041   2.674   2.200   7.420 -0.6346  0.4527  0.8634
  890MOL0     C20042   2.537   2.231   7.415 -0.6058 -0.6744 -0.4627
  890MOL0     C20043   2.472   2.288   7.539 -0.4623  0.3594  0.1106
  890MOL0     C20044   2.454   2.201   7.295 -0.8925  0.5680 -0.2345
  890MOL0     C20045   2.314   2.234   7.276  0.7058 -0.7906  0.5635
  890MOL0     O20046   2.252   2.171   7.169  0.5516 -0.1518 -0.4067
  890MOL0     C20047   2.112   2.186   7.147 -0.3957 -0.0364  0.7260
  890MOL0     C20048   2.009   2.213   7.251 -0.3066  0.5043  0.5726
  890MOL0     C20049   1.874   2.225   7.215  0.0359 -0.4493 -0.6428
  890MOL0     C20050   1.833   2.221   7.082 -0.4383  0.2088 -0.1249
  890MOL0     O20051   1.698   2.238   7.066 -0.0248  0.0317 -0.1312
  890MOL0     C20052   1.638   2.141   6.969 -0.2208  0.8995  0.2710
  890MOL0     C20053   1.487   2.145   6.990  0.6121 -0.3927 -0.5733
  890MOL0     C20054   1.429   2.292   6.986 -0.0425 -0.3000  0.1460
  890MOL0     C20055   1.278   2.303   6.977  0.2670  0.0312 -0.4023
  890MOL0     C20056   1.229   2.444   7.025  0.3099 -0.2298  0.0734
  890MOL0     C20057   1.076   2.463   7.005 -0.0359 -0.2966  0.6439
  890MOL0     C20058   1.052   2.491   6.860  0.7591  0.5282  0.0230
  890MOL0     C20059   0.912   2.525   6.829  0.3229 -0.9527 -1.0835
  890MOL0    Cl20060   0.904   2.605   6.659  0.1554  0.1672  0.2790
  890MOL0     C20061   1.929   2.182   6.984  0.1040  0.0495 -0.3448
  890MOL0     C20062   2.064   2.166   7.013 -0.0730  0.0931  0.2280
  890MOL0     O20063   2.267   2.313   7.354 -0.1290  1.0204 -0.8321
  890MOL0     C20064   2.530   2.157   7.181 -0.3562 -0.3601 -0.1265
  890MOL0     C20065   2.666   2.137   7.186  0.4333 -0.3719  0.9161
  890MOL0     N20066   3.018   2.124   7.785 -0.4209  0.0457 -0.1338
  890MOL0     N20067   2.905   2.174   7.825 -0.3013  1.1168  0.6638
  890MOL0     C20068   3.305   1.717   8.688 -0.2246  0.4247  0.9774
  890MOL0     C20069   3.423   1.750   8.757  0.6020  0.3560  0.2178
  890MOL0     C20070   3.832   1.863   8.849 -0.2881  0.0356 -0.0966
  890MOL0     C20071   3.816   1.974   8.938  0.8404  0.1361  0.1652
  890MOL0     C20072   3.931   2.033   8.993 -0.5096  0.3356 -0.8127
  890MOL0     C20073   4.052   1.971   8.977  0.3564  0.0801  0.3077
  890MOL0     O20074   4.165   2.029   9.043 -0.1094  0.6382  0.3142
  890MOL0     C20075   4.292   1.961   9.048 -0.7649  0.3517  0.1546
  890MOL0     C20076   4.301   1.842   9.141  0.3024  0.0725 -0.3439
  890MOL0     C20077   4.228   1.871   9.276  0.4609 -0.2419 -0.0812
  890MOL0     C20078   4.232   1.749   9.365  0.1134  0.0536 -0.0349
  890MOL0     C20079   4.358   1.748   9.435 -0.3048  0.5083  0.6841
  890MOL0     C20080   4.464   1.735   9.488 -0.7399  0.4551  0.0642
  890MOL0     C20081   4.066   1.850   8.905  0.3550 -0.6546  0.5560
  890MOL0     C20082   3.956   1.795   8.843 -0.3486 -0.5599 -0.4614
  890MOL0     H20083   3.546   1.964   8.524 -2.6871  1.6990 -0.7913
  890MOL0     H20084   3.360   1.893   8.396 -0.8782 -1.3287 -0.0610
  890MOL0     H20085   3.043   1.929   8.480 -0.5078  0.8497 -0.6587
  890MOL0     H20086   3.127   1.884   8.329 -2.4500  0.2768 -1.1130
  890MOL0     H20087   3.002   1.681   8.307 -1.5138  0.4412 -1.3825
  890MOL0     H20088   2.894   1.722   8.442 -0.0438 -1.3074 -0.8031
  890MOL0     H20089   2.798   1.907   8.330  0.7640 -0.4888 -0.2350
  890MOL0     H20090   2.926   1.930   8.224  1.0253  0.3215  2.4331
  890MOL0     H20091   2.865   1.711   8.106  1.2633  0.0897  2.2070
  890MOL0     H20092   2.740   1.674   8.224 -1.9189  0.0860 -0.5779
  890MOL0     H20093   2.629   1.763   8.035 -0.5664  2.0124 -1.2874
  890MOL0     H20094   2.602   1.870   8.171 -0.4305 -0.1542 -0.3581
  890MOL0     H20095   2.737   2.036   8.080  0.9001 -1.7362  3.0452
  890MOL0     H20096   2.831   1.918   7.986  0.5590 -3.5513  1.5580
  890MOL0     H20097   2.609   1.891   7.843 -2.8238 -0.3209  2.0166
  890MOL0     H20098   2.529   2.003   7.954 -1.3242 -0.3644 -1.7085
  890MOL0     H20099   2.683   2.189   7.878  1.4156 -2.0454  1.2458
  890MOL0     H20100   2.612   2.125   7.732  0.8810  4.1362 -0.2566
  890MOL0     H20101   2.827   1.904   7.639  0.4955  0.5449 -1.0812
  890MOL0     H20102   3.197   1.998   7.615 -0.0869  1.0969 -1.0449
  890MOL0     H20103   3.111   1.845   7.644  0.3288 -1.0552 -2.9514
  890MOL0     H20104   2.957   1.910   7.433  0.8586 -0.3822 -3.1699
  890MOL0     H20105   3.113   1.859   7.391  0.5781  3.3529 -2.5523
  890MOL0     H20106   3.115   2.055   7.273 -2.0766  0.6139 -1.0198
  890MOL0     H20107   3.180   2.118   7.423  0.4326 -1.8303 -0.8740
  890MOL0     H20108   2.973   2.264   7.367 -0.7334  0.3573  1.4861
  890MOL0     H20109   2.922   2.157   7.485  0.4660 -2.1831 -0.3420
  890MOL0     H20110   2.726   2.216   7.514 -2.3304  2.3346  1.5599
  890MOL0     H20111   2.394   2.219   7.574 -1.5779 -0.0565 -2.8839
  890MOL0     H20112   2.556   2.300   7.608  0.1212 -0.1067 -0.5109
  890MOL0     H20113   2.430   2.387   7.523 -2.1830 -0.5211 -1.1695
  890MOL0     H20114   2.024   2.244   7.353 -0.1585  1.1750  0.3514
  890MOL0     H20115   1.798   2.249   7.288  1.2815 -2.2123  1.3630
  890MOL0     H20116   1.664   2.165   6.866 -0.0740 -1.6678 -0.3567
  890MOL0     H20117   1.675   2.040   6.988 -1.1176 -0.3800 -3.7792
  890MOL0     H20118   1.428   2.081   6.923 -0.7028 -2.4276  2.3350
  890MOL0     H20119   1.464   2.104   7.088  0.3119 -2.0741 -1.3105
  890MOL0     H20120   1.466   2.345   6.898 -0.3621  1.3640  0.9657
  890MOL0     H20121   1.454   2.341   7.081 -0.4434  0.4639 -0.1310
  890MOL0     H20122   1.249   2.282   6.873 -0.9592  2.8728 -0.7160
  890MOL0     H20123   1.242   2.221   7.041 -3.1936  1.6464 -0.0223
  890MOL0     H20124   1.288   2.528   6.987 -1.7398  1.8955  1.3509
  890MOL0     H20125   1.247   2.451   7.133 -0.3378 -3.1738  0.4535
  890MOL0     H20126   1.027   2.368   7.031 -1.8243  0.5283  0.4278
  890MOL0     H20127   1.043   2.547   7.066  0.6563 -0.0059  0.6188
  890MOL0     H20128   1.073   2.403   6.799 -0.0827 -2.5321  3.7620
  890MOL0     H20129   1.110   2.579   6.833 -2.5630  2.3101 -2.0353
  890MOL0     H20130   0.881   2.598   6.904  0.0451 -0.8624 -1.2860
  890MOL0     H20131   0.846   2.438   6.839  0.7906 -1.3694 -1.5033
  890MOL0     H20132   1.897   2.169   6.881 -1.6879  0.2880  0.1461
  890MOL0     H20133   2.120   2.148   6.922 -0.1026  1.6355 -0.1301
  890MOL0     H20134   2.468   2.122   7.100  1.8926 -0.7967 -1.7461
  890MOL0     H20135   2.714   2.098   7.097  4.1076  2.9741  1.1554
  890MOL0     H20136   3.232   1.647   8.728  1.0902 -1.6824 -0.1201
  890MOL0     H20137   3.453   1.707   8.852 -0.8569  2.7371  1.8666
  890MOL0     H20138   3.717   2.015   8.956  0.7736 -0.0457  0.2118
  890MOL0     H20139   3.931   2.128   9.044 -0.3241 -0.1694  0.1545
  890MOL0     H20140   4.326   1.949   8.945 -0.5445  1.7777  0.0330
  890MOL0     H20141   4.348   2.044   9.093 -1.8836  3.0772 -3.0315
  890MOL0     H20142   4.405   1.825   9.170  0.4272 -1.8340 -1.7327
  890MOL0     H20143   4.268   1.747   9.098  1.0540 -0.7437  0.7955
  890MOL0     H20144   4.124   1.890   9.248 -0.2619 -4.3319 -0.8102
  890MOL0     H20145   4.277   1.954   9.328  0.8704 -0.5019 -0.0448
  890MOL0     H20146   4.219   1.654   9.313 -1.6581  0.1731  0.1439
  890MOL0     H20147   4.155   1.757   9.442 -1.7774 -2.5590 -1.4899
  890MOL0     H20148   4.566   1.726   9.517 -0.2952  1.5275 -1.0761
  890MOL0     H20149   4.161   1.800   8.890  0.5793 -0.3456  0.9005
  890MOL0     H20150   3.955   1.702   8.786  1.7174 -0.6403 -0.4397
  891MOL0     O20151   4.385   4.349   5.147  0.1181  0.1320  0.1713
  891MOL0     C20152   4.432   4.242   5.185 -0.3717 -0.4046 -0.4640
  891MOL0     O20153   4.364   4.135   5.207  0.5086 -0.2426  0.6807
  891MOL0     C20154   4.227   4.124   5.223  0.0467  0.2583  0.3921
  891MOL0     C20155   4.167   3.996   5.243  0.0416  0.0429 -0.3386
  891MOL0     C20156   4.029   3.979   5.273  0.0250  0.2817  0.9273
  891MOL0     C20157   3.946   4.086   5.262 -0.2064 -0.0986 -0.1130
  891MOL0     O20158   3.808   4.085   5.279  0.1477  0.0822  0.2449
  891MOL0     C20159   3.735   3.961   5.287 -0.2752  0.2918  0.7163
  891MOL0     C20160   3.590   3.991   5.332  0.5917 -0.2039 -0.2955
  891MOL0     C20161   3.488   3.886   5.291  0.2925 -0.3234 -1.0646
  891MOL0     C20162   3.345   3.937   5.291 -1.1878 -0.9107  0.4212
  891MOL0     C20163   3.250   3.814   5.296  1.1783  0.9314  0.5218
  891MOL0     C20164   3.106   3.871   5.280 -0.3789  0.9500 -0.1470
  891MOL0     C20165   3.015   3.754   5.318  0.0396 -0.2711 -0.7172
  891MOL0     C20166   2.874   3.817   5.348  0.2566 -0.1497 -0.4144
  891MOL0     N20167   2.777   3.710   5.379 -0.0850  0.2052 -0.0863
  891MOL0     C20168   2.670   3.737   5.463  0.1418 -0.5033  0.5777
  891MOL0     C20169   2.610   3.613   5.473 -0.3036  0.2374 -0.2587
  891MOL0     C20170   2.483   3.574   5.539  0.2051  0.2041 -0.8418
  891MOL0     C20171   2.479   3.426   5.581  0.2774 -0.5050 -0.5264
  891MOL0     C20172   2.328   3.386   5.622 -0.3673 -0.4714 -0.0687
  891MOL0     C20173   2.332   3.241   5.682 -0.1840  0.1851  0.4822
  891MOL0     O20174   2.208   3.190   5.726 -0.3087  0.7026  0.0751
  891MOL0     C20175   2.116   3.155   5.628  0.4666 -0.1279 -0.0311
  891MOL0     C20176   2.153   3.107   5.500  0.2336 -0.5481 -0.3678
  891MOL0     C20177   2.061   3.092   5.401  0.3381  0.6359 -0.0149
  891MOL0     C20178   2.117   3.058   5.262  0.5584  0.2144  0.7432
  891MOL0     C20179   1.925   3.112   5.429 -0.3658 -0.0148 -0.7346
  891MOL0     C20180   1.820   3.082   5.327  0.1324  0.6188  0.2832
  891MOL0     O20181   1.842   3.111   5.199  0.3347  0.1017 -0.0454
  891MOL0     C20182   1.742   3.115   5.105 -0.1373 -0.4273  0.0630
  891MOL0     C20183   1.697   2.999   5.044  0.4740 -0.3840 -0.2181
  891MOL0     C20184   1.602   3.005   4.939  1.2209 -0.3933 -0.1487
  891MOL0     C20185   1.541   3.130   4.904 -0.9488 -0.7244  0.4198
  891MOL0     O20186   1.437   3.146   4.816 -0.1714 -0.0850  0.1899
  891MOL0     C20187   1.320   3.065   4.840  0.0936  0.3468  0.3224
  891MOL0     C20188   1.214   3.095   4.724 -0.9658 -0.1043 -0.0028
  891MOL0     C20189   1.098   3.002   4.738  0.1287  0.1881 -0.1056
  891MOL0     C20190   0.967   3.067   4.698 -0.5521 -0.4336  1.0073
  891MOL0     C20191   0.976   3.132   4.551 -0.3151 -0.3290  0.1975
  891MOL0     C20192   0.835   3.161   4.498 -0.2384  0.4302  0.2900
  891MOL0     C20193   0.855   3.245   4.370 -0.4037  0.6223  0.4648
  891MOL0     C20194   0.717   3.302   4.322 -0.6810  0.0962 -0.0827
  891MOL0    Cl20195   0.644   3.424   4.426 -0.0851 -0.2761 -0.3093
  891MOL0     C20196   1.589   3.240   4.971  0.1745 -0.6435 -0.8599
  891MOL0     C20197   1.685   3.238   5.066 -0.5135 -0.4388  0.3973
  891MOL0     O20198   1.707   3.051   5.363  0.2715  0.0362 -0.2279
  891MOL0     C20199   1.883   3.159   5.558  0.2492 -0.1822  0.1589
  891MOL0     C20200   1.984   3.178   5.653  0.6071 -0.1111 -0.1934
  891MOL0     N20201   2.694   3.516   5.401 -0.1917 -0.8765  0.1413
  891MOL0     N20202   2.798   3.577   5.359 -0.1770  0.6849  0.0986
  891MOL0     C20203   3.998   4.215   5.241 -0.0492 -0.2780 -0.4272
  891MOL0     C20204   4.133   4.231   5.221  0.4699 -0.1118  0.3127
  891MOL0     C20205   4.579   4.238   5.207 -0.4409  0.1706 -0.7772
  891MOL0     C20206   4.668   4.349   5.178  0.1705  0.4524  0.3165
  891MOL0     C20207   4.806   4.337   5.204 -0.0566 -0.3392 -0.1137
  891MOL0     C20208   4.860   4.225   5.257 -0.2957  0.8433 -0.4781
  891MOL0     O20209   4.998   4.230   5.279 -0.4381  0.2026 -0.6702
  891MOL0     C20210   5.068   4.133   5.355 -0.3556  0.5477  0.1769
  891MOL0     C20211   5.213   4.137   5.307  0.8518  0.8534 -0.6734
  891MOL0     C20212   5.313   4.214   5.384  0.5548  0.3768  0.2309
  891MOL0     C20213   5.458   4.178   5.340 -0.0939 -0.3925  0.2158
  891MOL0     C20214   5.506   4.043   5.373 -0.1932  0.4548 -0.1040
  891MOL0     C20215   5.551   3.934   5.394  1.9377  0.5313  0.1273
  891MOL0     C20216   4.776   4.110   5.284  0.2753 -1.7217 -0.4644
  891MOL0     C20217   4.637   4.117   5.258 -0.9871 -0.6370 -0.0417
  891MOL0     H20218   4.245   3.921   5.242 -1.2752 -1.4070 -2.8725
  891MOL0     H20219   3.992   3.879   5.293 -0.2426  0.1180 -0.2964
  891MOL0     H20220   3.728   3.903   5.195 -2.8761 -0.7229  1.4580
  891MOL0     H20221   3.776   3.888   5.357  0.2747 -1.2789 -1.1613
  891MOL0     H20222   3.581   4.022   5.436 -0.5633 -0.7631 -0.2163
  891MOL0     H20223   3.568   4.084   5.277  0.0389  0.0647  0.3701
  891MOL0     H20224   3.524   3.849   5.195  2.1669  0.9199 -0.8965
  891MOL0     H20225   3.507   3.811   5.368  0.0670  1.5243  0.9200
  891MOL0     H20226   3.345   3.996   5.383 -0.6158 -1.1876  0.6016
  891MOL0     H20227   3.332   4.001   5.204  1.0234  0.5911  1.1367
  891MOL0     H20228   3.272   3.742   5.217  3.2214  0.4880  1.4110
  891MOL0     H20229   3.267   3.759   5.389 -1.8223 -1.3853 -0.1590
  891MOL0     H20230   3.087   3.957   5.345 -2.8050  0.4168 -0.0855
  891MOL0     H20231   3.095   3.909   5.178  0.3530 -2.0944 -1.4909
  891MOL0     H20232   3.022   3.678   5.239  0.0290 -0.7174 -0.2938
  891MOL0     H20233   3.050   3.705   5.409 -0.0270 -1.6360 -1.3877
  891MOL0     H20234   2.836   3.868   5.259 -0.4850 -0.0779 -0.0725
  891MOL0     H20235   2.892   3.892   5.425  0.8656  0.4779 -1.1590
  891MOL0     H20236   2.637   3.832   5.504  0.7723 -0.7027  1.6078
  891MOL0     H20237   2.461   3.635   5.627 -2.7260  1.4410 -2.3407
  891MOL0     H20238   2.399   3.591   5.473 -0.9791 -2.9517 -0.3528
  891MOL0     H20239   2.546   3.417   5.667  0.6136  0.3157 -0.6884
  891MOL0     H20240   2.508   3.354   5.504  0.8905  2.0477 -2.8761
  891MOL0     H20241   2.262   3.385   5.535 -0.3724  1.0357 -0.1093
  891MOL0     H20242   2.281   3.462   5.684 -0.9530 -1.6626  1.0070
  891MOL0     H20243   2.396   3.252   5.770  0.1523  1.9464  0.0392
  891MOL0     H20244   2.387   3.173   5.616  0.3485 -0.3131  1.4200
  891MOL0     H20245   2.259   3.109   5.478  1.0180 -0.8238  2.9185
  891MOL0     H20246   2.058   2.978   5.217  3.5271 -1.1275 -0.9914
  891MOL0     H20247   2.115   3.143   5.193 -0.8411 -1.5003 -1.4849
  891MOL0     H20248   2.221   3.024   5.259 -0.0914 -2.0263 -2.6066
  891MOL0     H20249   1.749   2.907   5.071 -2.7206 -2.0962  0.6488
  891MOL0     H20250   1.571   2.909   4.901  1.2501 -0.9796  1.2520
  891MOL0     H20251   1.352   2.962   4.822  3.5199  1.6812 -2.1900
  891MOL0     H20252   1.280   3.073   4.941  0.2627 -3.1678  0.7974
  891MOL0     H20253   1.194   3.201   4.742 -0.3624 -0.1274  0.8748
  891MOL0     H20254   1.257   3.075   4.626  0.4300  2.6210 -0.0375
  891MOL0     H20255   1.095   2.967   4.841  4.0322 -0.0252  0.0691
  891MOL0     H20256   1.121   2.920   4.670  0.1051 -2.1312  2.5041
  891MOL0     H20257   0.889   2.990   4.696 -1.1654  0.1459  1.8879
  891MOL0     H20258   0.935   3.153   4.758 -2.0574  1.4623 -2.2069
  891MOL0     H20259   1.028   3.076   4.473 -0.1174  0.3934 -0.1990
  891MOL0     H20260   1.035   3.224   4.546 -0.1387 -0.4441  0.1392
  891MOL0     H20261   0.779   3.068   4.488 -0.7980  0.6377  1.4101
  891MOL0     H20262   0.783   3.216   4.577 -0.3091  0.7451  0.0252
  891MOL0     H20263   0.906   3.191   4.290 -3.7945 -0.8456 -0.9055
  891MOL0     H20264   0.908   3.340   4.384 -0.7481  1.2978 -2.3472
  891MOL0     H20265   0.648   3.218   4.307 -4.6266  2.4220  2.9215
  891MOL0     H20266   0.731   3.348   4.224  0.9671  2.1746  1.0288
  891MOL0     H20267   1.544   3.338   4.964  2.2758  0.9972  4.0817
  891MOL0     H20268   1.720   3.329   5.115 -1.5755 -1.2359  2.7846
  891MOL0     H20269   1.778   3.185   5.567  0.1577 -0.7814  0.9997
  891MOL0     H20270   1.955   3.217   5.750  2.2317 -2.2895  1.2862
  891MOL0     H20271   3.942   4.305   5.218 -0.2247 -0.9192 -2.7478
  891MOL0     H20272   4.158   4.334   5.199 -0.4164 -0.5338 -3.1836
  891MOL0     H20273   4.628   4.436   5.128 -1.9174 -0.7275 -0.1822
  891MOL0     H20274   4.867   4.425   5.184  1.1630 -0.7598  1.5733
  891MOL0     H20275   5.062   4.132   5.464  3.5888 -1.6445  0.5584
  891MOL0     H20276   5.032   4.035   5.323  0.4265 -0.1038  1.2375
  891MOL0     H20277   5.202   4.167   5.203 -3.4568  2.6535  0.1054
  891MOL0     H20278   5.254   4.036   5.315 -2.4301 -0.7838 -2.4600
  891MOL0     H20279   5.301   4.198   5.491  0.0934  1.1462  0.2941
  891MOL0     H20280   5.297   4.320   5.362 -0.4959 -0.0401 -1.1549
  891MOL0     H20281   5.521   4.247   5.397 -0.1829 -0.2703  0.1658
  891MOL0     H20282   5.457   4.195   5.232  0.1845 -1.8645 -0.0397
  891MOL0     H20283   5.592   3.838   5.413 -0.0817 -0.9035 -2.1212
  891MOL0     H20284   4.813   4.016   5.322  1.0603 -0.8586  1.0270
  891MOL0     H20285   4.571   4.034   5.280 -0.1629 -1.5776 -1.0310
  892MOL0     O20286   4.141   9.757   6.050  0.0345  0.0688  0.4815
  892MOL0     C20287   4.088   9.647   6.084 -0.3113  0.1224 -0.4263
  892MOL0     O20288   3.988   9.591   6.022 -0.0060  0.2394  0.3085
  892MOL0     C20289   3.934   9.643   5.910  1.1811  0.3902  0.7378
  892MOL0     C20290   3.874   9.547   5.825 -0.4598  0.4898  0.3045
  892MOL0     C20291   3.802   9.586   5.712 -0.1838 -0.3993  0.3931
  892MOL0     C20292   3.787   9.725   5.682 -0.6021 -0.2684  0.3579
  892MOL0     O20293   3.735   9.767   5.564 -0.5811 -0.3666 -0.7854
  892MOL0     C20294   3.804   9.723   5.454  0.2193  0.4111  0.0193
  892MOL0     C20295   3.745   9.804   5.335  0.1419  0.2439  0.2526
  892MOL0     C20296   3.599   9.760   5.277 -0.3008 -0.4689  0.0451
  892MOL0     C20297   3.572   9.854   5.150  0.7954  0.3668 -0.1726
  892MOL0     C20298   3.437   9.825   5.091  0.1554 -0.8603 -0.5061
  892MOL0     C20299   3.432   9.887   4.949 -0.2453 -0.0994  0.8562
  892MOL0     C20300   3.294   9.884   4.885  0.9723 -0.4189 -0.1711
  892MOL0     C20301   3.211  10.007   4.932 -0.0581  1.1362  0.4456
  892MOL0     N20302   3.074   9.996   4.881  0.9281 -1.0185  0.6022
  892MOL0     C20303   3.046  10.017   4.748  0.3323  0.2084  0.3936
  892MOL0     C20304   2.916  10.064   4.745 -0.4565 -0.1716 -0.3890
  892MOL0     C20305   2.834  10.102   4.626 -0.7112 -0.0166 -0.0745
  892MOL0     C20306   2.748  10.232   4.641  0.3422 -0.1167  0.1733
  892MOL0     C20307   2.676  10.273   4.513 -0.1631  0.1604 -0.7758
  892MOL0     C20308   2.539  10.340   4.532 -0.1983  0.3043 -0.4794
  892MOL0     O20309   2.454  10.245   4.607 -0.1789  0.1267  0.3086
  892MOL0     C20310   2.317  10.267   4.623  0.7705  0.3110  0.1343
  892MOL0     C20311   2.241  10.167   4.684 -0.4144  0.5446  0.1806
  892MOL0     C20312   2.106  10.186   4.711  0.2793  0.0950  0.6222
  892MOL0     C20313   2.039  10.068   4.777 -0.5135 -0.0019 -0.0924
  892MOL0     C20314   2.047  10.307   4.666  0.3625  0.3346  0.6733
  892MOL0     C20315   1.907  10.330   4.683  0.1059  0.7218 -0.7985
  892MOL0     O20316   1.848  10.433   4.605  0.1744  0.1686  0.2384
  892MOL0     C20317   1.718  10.463   4.619 -0.4059  0.3149 -0.5655
  892MOL0     C20318   1.678  10.558   4.716 -0.7615  0.3764  0.6533
  892MOL0     C20319   1.544  10.604   4.725 -0.2479 -0.2754  0.6311
  892MOL0     C20320   1.438  10.551   4.651  0.3375  1.2853 -0.3586
  892MOL0     O20321   1.303  10.557   4.658 -0.0377  0.2999 -0.0179
  892MOL0     C20322   1.253  10.622   4.776 -0.2996  0.3306  0.8278
  892MOL0     C20323   1.101  10.651   4.756 -0.9043 -0.2575 -0.1614
  892MOL0     C20324   1.029  10.652   4.896 -0.7814  0.6186  0.4961
  892MOL0     C20325   0.889  10.686   4.858  0.1500  0.0873  1.0793
  892MOL0     C20326   0.786  10.639   4.956 -0.3087  0.0339 -0.1436
  892MOL0     C20327   0.650  10.698   4.933  0.4656 -0.1021  0.7120
  892MOL0     C20328   0.545  10.625   5.007  0.3554  0.0489 -0.4906
  892MOL0     C20329   0.404  10.679   4.997  0.1044 -0.2722 -0.3316
  892MOL0    Cl20330   0.302  10.630   5.137  0.2616  0.2116 -0.0610
  892MOL0     C20331   1.477  10.446   4.564 -0.2333 -0.2647  0.1846
  892MOL0     C20332   1.616  10.406   4.538 -0.1987 -0.1026 -0.1562
  892MOL0     O20333   1.857  10.281   4.781 -0.0156  0.5847  0.7657
  892MOL0     C20334   2.123  10.398   4.590 -0.1260  0.0025  0.2514
  892MOL0     C20335   2.256  10.376   4.573 -0.1462 -0.1692 -1.1108
  892MOL0     N20336   2.877  10.067   4.877 -0.3299 -0.0247 -0.1778
  892MOL0     N20337   2.966  10.016   4.957 -0.3354 -0.4445  0.0357
  892MOL0     C20338   3.847   9.818   5.764 -0.0806  0.4605  0.3787
  892MOL0     C20339   3.919   9.779   5.880  0.1602  0.2122 -0.3993
  892MOL0     C20340   4.163   9.581   6.185 -0.9140  0.4440  0.2473
  892MOL0     C20341   4.291   9.634   6.231  0.1188  0.6500 -0.7856
  892MOL0     C20342   4.361   9.571   6.335  0.9020  0.0333 -1.1326
  892MOL0     C20343   4.316   9.464   6.406  0.3237  0.0724  0.0262
  892MOL0     O20344   4.386   9.393   6.500  0.1181  0.0623  0.1070
  892MOL0     C20345   4.502   9.439   6.568  0.5683  0.0103  0.1242
  892MOL0     C20346   4.620   9.395   6.490 -0.3312  0.5571  0.8590
  892MOL0     C20347   4.748   9.410   6.566  0.5205 -0.0293 -0.0125
  892MOL0     C20348   4.869   9.373   6.486 -0.2388  0.2140 -0.2886
  892MOL0     C20349   4.994   9.395   6.557  0.3604  1.1579  1.0079
  892MOL0     C20350   5.101   9.408   6.615 -0.6672  0.1245 -0.2182
  892MOL0     C20351   4.193   9.410   6.350  0.1110 -0.4350 -0.5625
  892MOL0     C20352   4.122   9.464   6.242  0.1138  0.3229  0.5288
  892MOL0     H20353   3.891   9.442   5.845  2.2158  0.7563 -0.2291
  892MOL0     H20354   3.756   9.505   5.656  0.5302 -2.0430  2.0574
  892MOL0     H20355   3.906   9.762   5.465  0.7085 -0.7532 -0.2491
  892MOL0     H20356   3.798   9.615   5.443 -3.0030  0.4518  0.4364
  892MOL0     H20357   3.728   9.905   5.371 -0.8071 -0.8419  3.1201
  892MOL0     H20358   3.815   9.797   5.251  2.3737  2.3501  1.8203
  892MOL0     H20359   3.608   9.658   5.241  2.0947  0.0169 -0.9630
  892MOL0     H20360   3.523   9.767   5.355 -0.4629 -0.3982 -0.1206
  892MOL0     H20361   3.576   9.956   5.189 -4.1900  0.0696  1.8775
  892MOL0     H20362   3.656   9.838   5.082  1.1422  0.0079  0.3359
  892MOL0     H20363   3.437   9.718   5.068  2.3440 -1.3183  1.2945
  892MOL0     H20364   3.352   9.862   5.148 -0.9975  1.1458 -3.3033
  892MOL0     H20365   3.454   9.993   4.960 -0.9547  0.2419 -0.7528
  892MOL0     H20366   3.502   9.838   4.879  0.8608  0.0475  1.8316
  892MOL0     H20367   3.302   9.895   4.776 -0.6095 -0.0835 -0.2738
  892MOL0     H20368   3.253   9.784   4.900  1.7788 -1.1037 -2.1658
  892MOL0     H20369   3.256  10.102   4.904 -0.4466  1.8620  2.1530
  892MOL0     H20370   3.206  10.002   5.041 -1.1864  0.1758  0.3724
  892MOL0     H20371   3.099  10.009   4.653 -1.5531 -0.8890 -0.6376
  892MOL0     H20372   2.904  10.097   4.542  0.3964  1.0687  0.7514
  892MOL0     H20373   2.754  10.028   4.614 -2.8825  1.8203  2.0060
  892MOL0     H20374   2.812  10.320   4.656  1.0375 -0.8946  1.9885
  892MOL0     H20375   2.674  10.227   4.721 -0.9976  1.3121 -0.9201
  892MOL0     H20376   2.658  10.175   4.468  0.7807 -0.9526  1.1198
  892MOL0     H20377   2.749  10.331   4.456  0.7212  0.8334  0.9485
  892MOL0     H20378   2.498  10.353   4.432  2.9899  0.3439 -1.8932
  892MOL0     H20379   2.548  10.438   4.581 -0.7236  0.0892  0.0652
  892MOL0     H20380   2.289  10.074   4.713  0.3345 -0.2602 -3.2137
  892MOL0     H20381   1.981  10.090   4.867 -2.9071 -0.8800 -1.3016
  892MOL0     H20382   1.969  10.025   4.704 -0.7585  0.6640 -0.2594
  892MOL0     H20383   2.105   9.985   4.804 -1.0270  0.4052  2.6676
  892MOL0     H20384   1.746  10.618   4.776  1.0619  1.3159 -2.1270
  892MOL0     H20385   1.520  10.683   4.795  1.0119 -0.2730  1.0927
  892MOL0     H20386   1.269  10.563   4.867 -3.1816 -1.3247  0.3621
  892MOL0     H20387   1.307  10.717   4.782  2.5627 -1.2078  1.4258
  892MOL0     H20388   1.076  10.742   4.700 -2.6122 -0.9103 -0.5059
  892MOL0     H20389   1.064  10.570   4.693 -1.4246 -0.3712  0.2860
  892MOL0     H20390   1.078  10.713   4.973 -2.2217  1.4529  0.7824
  892MOL0     H20391   1.032  10.549   4.933  1.9254  1.0987  1.8854
  892MOL0     H20392   0.881  10.795   4.844  0.6763  0.2310  1.7999
  892MOL0     H20393   0.868  10.636   4.764  1.5867  0.5927  0.4551
  892MOL0     H20394   0.816  10.659   5.059 -1.3872  1.0458 -0.0109
  892MOL0     H20395   0.773  10.530   4.950  0.1373 -0.2494  2.5982
  892MOL0     H20396   0.641  10.806   4.950 -1.2887 -0.2618  0.9675
  892MOL0     H20397   0.633  10.689   4.825  0.2105  3.6348  0.2888
  892MOL0     H20398   0.573  10.623   5.113  0.1868  2.0993 -0.3611
  892MOL0     H20399   0.540  10.520   4.979 -1.8454 -1.1831  3.6049
  892MOL0     H20400   0.352  10.639   4.910  3.5195 -4.2516 -0.8589
  892MOL0     H20401   0.393  10.788   4.994 -2.9986 -0.5336 -1.3030
  892MOL0     H20402   1.405  10.382   4.513 -0.1860 -0.1938  0.0299
  892MOL0     H20403   1.637  10.330   4.464  1.6988 -0.2947  0.5203
  892MOL0     H20404   2.082  10.491   4.551  0.3044  0.0388 -0.1231
  892MOL0     H20405   2.318  10.450   4.524  1.4902  0.5286  1.7714
  892MOL0     H20406   3.827   9.921   5.736  0.4591  0.8706  1.4461
  892MOL0     H20407   3.954   9.854   5.950 -0.6379 -2.0677  2.6672
  892MOL0     H20408   4.324   9.729   6.189  2.7984 -0.0529 -0.4552
  892MOL0     H20409   4.454   9.619   6.363  0.7773  0.1774 -0.9635
  892MOL0     H20410   4.494   9.548   6.573 -1.8215  0.0846 -2.4075
  892MOL0     H20411   4.501   9.399   6.670 -2.8708  0.2935  0.3255
  892MOL0     H20412   4.629   9.445   6.394  3.8549 -1.0250  0.2342
  892MOL0     H20413   4.603   9.289   6.470  0.0412  0.7726 -0.7497
  892MOL0     H20414   4.747   9.351   6.658  0.0090  1.5750  1.0555
  892MOL0     H20415   4.751   9.513   6.601  0.2184 -1.4512  4.8966
  892MOL0     H20416   4.860   9.428   6.392 -2.4714  0.8402  0.2192
  892MOL0     H20417   4.870   9.267   6.460  2.2950  0.4003 -1.1831
  892MOL0     H20418   5.196   9.413   6.664 -0.3750 -3.2923 -0.2426
  892MOL0     H20419   4.151   9.324   6.400 -0.5916  1.5956  2.6348
  892MOL0     H20420   4.024   9.422   6.226  0.6565 -2.3670  3.4011
  893MOL0     O20421   5.910   5.418   8.270 -0.2202 -0.8982 -0.1639
  893MOL0     C20422   5.942   5.539   8.263  0.3738 -0.3351  0.3953
  893MOL0     O20423   5.856   5.633   8.231 -0.1853  0.1656 -0.2694
  893MOL0     C20424   5.724   5.593   8.239  0.2863 -0.1560 -0.0094
  893MOL0     C20425   5.656   5.552   8.357 -0.1719  0.3897  0.3518
  893MOL0     C20426   5.524   5.516   8.362 -0.2469 -0.1678 -1.0791
  893MOL0     C20427   5.444   5.513   8.246 -0.4139 -0.4381 -0.7254
  893MOL0     O20428   5.316   5.479   8.241  0.1482 -0.1529  0.2613
  893MOL0     C20429   5.227   5.516   8.350  0.0223 -0.0147  0.2135
  893MOL0     C20430   5.081   5.530   8.298  0.7829  0.3393  0.1452
  893MOL0     C20431   4.970   5.569   8.395 -0.1145  0.2556  0.1125
  893MOL0     C20432   4.982   5.730   8.417  0.6068  0.2759 -0.4864
  893MOL0     C20433   4.869   5.784   8.493 -0.4484 -0.4651 -0.4728
  893MOL0     C20434   4.734   5.785   8.424  0.1711  0.7902  0.0396
  893MOL0     C20435   4.609   5.840   8.510  0.1233  0.6052  0.4967
  893MOL0     C20436   4.621   5.986   8.553  0.1204  0.4246  0.7385
  893MOL0     N20437   4.497   6.047   8.579  0.2725  0.0000 -0.5259
  893MOL0     C20438   4.410   6.011   8.678 -0.3533  1.2731  0.2841
  893MOL0     C20439   4.291   6.062   8.654  0.5529 -0.9367 -0.4084
  893MOL0     C20440   4.165   6.048   8.734  0.5102  0.3280 -0.2820
  893MOL0     C20441   4.034   6.076   8.660 -0.2083 -0.1437  1.2328
  893MOL0     C20442   3.910   6.097   8.757 -0.5556  0.2896  0.0661
  893MOL0     C20443   3.782   6.099   8.672 -0.3741 -0.2266 -0.2760
  893MOL0     O20444   3.727   5.973   8.645 -0.6094 -0.0046 -0.2088
  893MOL0     C20445   3.625   5.982   8.553 -0.3877  0.5161 -0.3915
  893MOL0     C20446   3.595   5.870   8.486  0.2775 -0.2025  1.6611
  893MOL0     C20447   3.495   5.853   8.396  0.6207  0.5838 -0.1431
  893MOL0     C20448   3.487   5.723   8.332 -0.3071  0.3952  0.2974
  893MOL0     C20449   3.412   5.967   8.371 -0.0533  0.1899  0.6572
  893MOL0     C20450   3.289   5.953   8.281  0.1074 -0.3523  0.4277
  893MOL0     O20451   3.222   6.072   8.264 -0.2012  0.3833  0.2391
  893MOL0     C20452   3.109   6.070   8.181  0.5696 -0.0756 -0.4669
  893MOL0     C20453   3.095   6.168   8.081  0.1820 -0.2893  1.1588
  893MOL0     C20454   2.977   6.186   8.008 -0.2691  0.1670  0.6795
  893MOL0     C20455   2.866   6.095   8.022 -0.0708 -0.4046 -0.1313
  893MOL0     O20456   2.746   6.120   7.955 -0.2713 -0.0326 -0.9614
  893MOL0     C20457   2.745   6.067   7.821  0.6409  0.3956 -0.4086
  893MOL0     C20458   2.675   6.169   7.741  0.0731  0.6421  0.2633
  893MOL0     C20459   2.660   6.146   7.586 -0.1645  0.2145 -0.3475
  893MOL0     C20460   2.554   6.026   7.567  0.5055  0.4470 -0.1788
  893MOL0     C20461   2.517   6.011   7.422  0.1027 -0.9380  0.6478
  893MOL0     C20462   2.407   5.908   7.402 -0.0414 -0.3186 -0.2209
  893MOL0     C20463   2.377   5.906   7.247  0.5224  0.8058 -0.0227
  893MOL0     C20464   2.224   5.916   7.208 -0.1988 -0.5083  0.3953
  893MOL0    Cl20465   2.125   5.788   7.273  0.7145 -0.1548 -0.5234
  893MOL0     C20466   2.876   5.992   8.111 -0.6053  0.5435 -0.3266
  893MOL0     C20467   2.996   5.985   8.188 -0.2988 -0.5988  0.1315
  893MOL0     O20468   3.257   5.845   8.232 -0.2908  0.0995 -0.5311
  893MOL0     C20469   3.440   6.087   8.438 -0.8728  0.4766  0.7216
  893MOL0     C20470   3.545   6.092   8.525 -0.4824 -0.3521 -0.2288
  893MOL0     N20471   4.298   6.143   8.546 -0.1125 -0.4212  0.2406
  893MOL0     N20472   4.419   6.129   8.496 -0.5743  0.4923 -0.4254
  893MOL0     C20473   5.506   5.547   8.121 -0.8832 -0.0965 -0.0873
  893MOL0     C20474   5.643   5.590   8.118 -0.3640  0.6053 -0.0602
  893MOL0     C20475   6.088   5.579   8.277  0.1749 -0.0292  0.0382
  893MOL0     C20476   6.182   5.478   8.282 -0.0211  0.5973 -0.1817
  893MOL0     C20477   6.315   5.507   8.281 -0.0637  0.4284  0.9788
  893MOL0     C20478   6.354   5.639   8.295 -0.3056  0.0866  0.0881
  893MOL0     O20479   6.489   5.669   8.295 -0.3646  0.0412 -0.5493
  893MOL0     C20480   6.545   5.794   8.344  0.8289  0.1620 -0.9951
  893MOL0     C20481   6.553   5.917   8.253 -0.3559 -0.3055  0.0164
  893MOL0     C20482   6.650   5.881   8.141  0.3440 -0.6845  0.3513
  893MOL0     C20483   6.690   6.006   8.066  0.4304  0.7975 -1.1895
  893MOL0     C20484   6.569   6.061   7.989  0.1475 -0.0082 -0.1224
  893MOL0     C20485   6.490   6.124   7.922 -0.0827  1.1620  0.4651
  893MOL0     C20486   6.263   5.742   8.292 -0.2441  0.1818  0.1355
  893MOL0     C20487   6.127   5.709   8.286 -0.7757 -0.0061 -0.1547
  893MOL0     H20488   5.707   5.535   8.451 -0.5542 -2.9810  0.0665
  893MOL0     H20489   5.474   5.483   8.453  0.8568  2.7206  0.7226
  893MOL0     H20490   5.227   5.441   8.430  0.0895 -2.0429 -1.5731
  893MOL0     H20491   5.268   5.609   8.389 -0.9283  0.4947  0.0406
  893MOL0     H20492   5.087   5.599   8.213  0.0468  2.5508  1.7935
  893MOL0     H20493   5.049   5.435   8.253 -0.6723  2.9594 -5.3303
  893MOL0     H20494   4.875   5.549   8.344 -0.1865  0.2257  0.2575
  893MOL0     H20495   4.987   5.506   8.483 -1.5197 -2.7654 -1.6490
  893MOL0     H20496   5.068   5.744   8.483 -0.1302 -0.6297  0.6931
  893MOL0     H20497   4.979   5.777   8.318 -1.4039  1.1016 -0.0714
  893MOL0     H20498   4.869   5.730   8.588 -0.1719  0.7899  0.2711
  893MOL0     H20499   4.885   5.892   8.504 -1.4750 -0.3399 -0.1484
  893MOL0     H20500   4.750   5.842   8.333  2.3135  0.0216 -0.1223
  893MOL0     H20501   4.722   5.681   8.393 -0.4775  0.8975 -0.0744
  893MOL0     H20502   4.520   5.824   8.449 -0.7037 -0.8150  1.9968
  893MOL0     H20503   4.591   5.781   8.600  0.2410  1.5632  1.1541
  893MOL0     H20504   4.663   6.039   8.467 -1.2663 -0.0792 -0.2945
  893MOL0     H20505   4.688   5.996   8.639  3.4357 -2.2050 -1.2913
  893MOL0     H20506   4.441   5.950   8.762 -0.8997 -2.3860 -1.9057
  893MOL0     H20507   4.173   5.944   8.767 -2.0661 -0.1670 -0.9787
  893MOL0     H20508   4.171   6.112   8.822 -1.1026  0.4841 -0.2615
  893MOL0     H20509   4.013   5.983   8.606 -6.0623  1.1021  0.6291
  893MOL0     H20510   4.046   6.161   8.591  1.2433 -1.2254  0.0855
  893MOL0     H20511   3.916   6.190   8.813 -5.5789 -0.5755  2.5530
  893MOL0     H20512   3.912   6.020   8.834  2.4956  1.3202  1.1510
  893MOL0     H20513   3.801   6.150   8.577  1.8363 -1.3627 -0.5095
  893MOL0     H20514   3.713   6.156   8.735  0.8860 -1.8712  2.8073
  893MOL0     H20515   3.670   5.793   8.500 -0.4969 -1.4117 -0.3608
  893MOL0     H20516   3.404   5.663   8.371 -1.6980  0.7582 -1.9169
  893MOL0     H20517   3.466   5.735   8.226 -2.0104 -2.1028  0.2611
  893MOL0     H20518   3.578   5.666   8.351  0.7881  0.1887 -4.4045
  893MOL0     H20519   3.173   6.239   8.054 -1.5672  2.0798  2.0208
  893MOL0     H20520   2.982   6.268   7.937  1.5652 -0.4920 -0.0218
  893MOL0     H20521   2.846   6.046   7.784  0.3236 -0.4025 -0.8299
  893MOL0     H20522   2.687   5.974   7.823 -3.1923  2.6230  0.4692
  893MOL0     H20523   2.575   6.183   7.783 -0.4598  1.5379 -1.2246
  893MOL0     H20524   2.735   6.258   7.762  1.0278  0.0042  0.3454
  893MOL0     H20525   2.760   6.133   7.543  0.0084  1.6399 -0.4342
  893MOL0     H20526   2.621   6.240   7.547 -3.4088 -1.3135 -1.1558
  893MOL0     H20527   2.583   5.927   7.604 -1.3414  0.6610  2.0660
  893MOL0     H20528   2.463   6.048   7.624 -2.1368 -1.3538 -3.2875
  893MOL0     H20529   2.603   5.963   7.374 -1.4246 -2.5248 -0.6413
  893MOL0     H20530   2.500   6.113   7.386  3.5425 -0.4397  0.0895
  893MOL0     H20531   2.427   5.805   7.436 -2.3592 -0.8501 -0.2930
  893MOL0     H20532   2.320   5.926   7.467  1.0561  0.5546  1.0634
  893MOL0     H20533   2.418   5.813   7.206 -1.7612  0.9304 -2.9230
  893MOL0     H20534   2.418   5.991   7.192  0.0308  1.0657  0.0035
  893MOL0     H20535   2.221   5.921   7.098 -0.3767 -0.9457  0.3788
  893MOL0     H20536   2.171   6.006   7.239 -2.5259 -0.8396 -2.1864
  893MOL0     H20537   2.788   5.930   8.122 -0.6367  0.6220 -0.1236
  893MOL0     H20538   2.999   5.909   8.265 -2.2135 -0.6561  0.2017
  893MOL0     H20539   3.372   6.171   8.426 -1.8274  0.0162  2.4871
  893MOL0     H20540   3.562   6.187   8.574  1.1719 -2.0171  2.6838
  893MOL0     H20541   5.442   5.536   8.034  0.8950 -1.9422 -1.2531
  893MOL0     H20542   5.694   5.620   8.027  0.4314  0.1852  0.2413
  893MOL0     H20543   6.165   5.371   8.267  0.2214  0.7599 -1.8334
  893MOL0     H20544   6.400   5.439   8.278  0.3631  0.9637 -1.3302
  893MOL0     H20545   6.476   5.820   8.425 -1.3908  0.0599 -2.7665
  893MOL0     H20546   6.645   5.761   8.374  0.9343 -0.5821 -2.1005
  893MOL0     H20547   6.588   6.006   8.306  0.0951  0.5589 -1.6807
  893MOL0     H20548   6.454   5.934   8.211 -0.5879  0.3895  0.8140
  893MOL0     H20549   6.621   5.792   8.084 -0.6350 -0.2909  0.2208
  893MOL0     H20550   6.745   5.843   8.181  0.1788  1.7593  3.4726
  893MOL0     H20551   6.779   5.984   8.007  1.6216 -0.2038  0.8613
  893MOL0     H20552   6.717   6.081   8.142  0.8741 -1.3397  0.9026
  893MOL0     H20553   6.412   6.174   7.866  1.8824  3.6514 -0.2428
  893MOL0     H20554   6.294   5.845   8.301  0.3299  0.3614 -2.7460
  893MOL0     H20555   6.058   5.792   8.280 -1.9358 -0.3765  4.3754
  894MOL0     O20556   0.695   2.283   1.433  0.2453  0.1669  0.1854
  894MOL0     C20557   0.641   2.191   1.500  0.3943  0.3556  0.4146
  894MOL0     O20558   0.528   2.119   1.462  0.0352 -0.9393  0.5784
  894MOL0     C20559   0.478   2.137   1.340  0.6883 -0.3158  0.2499
  894MOL0     C20560   0.566   2.108   1.232 -0.7622 -0.4919  0.2053
  894MOL0     C20561   0.530   2.123   1.103 -0.2732 -0.0275 -0.2951
  894MOL0     C20562   0.399   2.168   1.072 -0.2114 -0.4891  0.3179
  894MOL0     O20563   0.374   2.169   0.937  0.3058 -0.1788 -0.7536
  894MOL0     C20564   0.264   2.245   0.884  0.1515  0.6643 -0.2388
  894MOL0     C20565   0.250   2.252   0.728  0.7581 -0.9455  0.9492
  894MOL0     C20566   0.123   2.302   0.680  0.4723  0.1720 -0.3549
  894MOL0     C20567   0.069   2.427   0.733 -0.3217 -0.5960  0.0369
  894MOL0     C20568  -0.082   2.462   0.696 -0.1069  0.0073 -0.4550
  894MOL0     C20569  -0.126   2.452   0.551  0.4777 -0.5536 -0.3032
  894MOL0     C20570  -0.251   2.533   0.543  0.1277  0.8904 -0.0326
  894MOL0     C20571  -0.294   2.543   0.395 -0.8270  0.2531 -0.0211
  894MOL0     N20572  -0.418   2.623   0.376 -0.1015  0.7443 -1.1887
  894MOL0     C20573  -0.461   2.658   0.252 -0.1431  1.0579  0.5968
  894MOL0     C20574  -0.571   2.728   0.268 -0.4593  0.3509  0.3107
  894MOL0     C20575  -0.631   2.812   0.164  0.8674 -0.3417  0.4390
  894MOL0     C20576  -0.762   2.752   0.109 -0.2035 -0.4500 -0.1703
  894MOL0     C20577  -0.830   2.834   0.001  0.3953 -0.5262  0.4006
  894MOL0     C20578  -0.972   2.882   0.048 -0.0726 -0.1914 -0.0720
  894MOL0     O20579  -1.063   2.771   0.094  0.6157 -0.2815 -0.3841
  894MOL0     C20580  -1.164   2.787   0.190 -0.4470 -0.0785 -0.4329
  894MOL0     C20581  -1.194   2.913   0.253  1.1636 -0.7452 -0.2145
  894MOL0     C20582  -1.306   2.936   0.335  0.7275  0.0989  0.6164
  894MOL0     C20583  -1.329   3.078   0.381 -0.0393 -0.9998 -0.2858
  894MOL0     C20584  -1.390   2.823   0.363 -0.6142  0.7475 -0.4914
  894MOL0     C20585  -1.510   2.829   0.449 -0.3194  0.9941 -0.3770
  894MOL0     O20586  -1.519   2.920   0.549  0.0458  0.4004  0.0456
  894MOL0     C20587  -1.610   2.938   0.645 -0.6161 -0.7030  0.4233
  894MOL0     C20588  -1.616   3.063   0.705  0.4298 -0.3774 -0.9550
  894MOL0     C20589  -1.714   3.091   0.805 -0.2111 -0.2329  0.3558
  894MOL0     C20590  -1.805   3.003   0.840  0.3379  0.0287 -0.0436
  894MOL0     O20591  -1.882   3.033   0.952 -0.0555  0.1165 -0.1768
  894MOL0     C20592  -2.024   3.011   0.946  0.2975 -0.2779  0.1246
  894MOL0     C20593  -2.087   3.151   0.923  0.4877  0.1709 -0.0720
  894MOL0     C20594  -2.239   3.133   0.916 -0.0850 -0.4484 -0.1465
  894MOL0     C20595  -2.302   3.265   0.955 -0.1471  0.3824  0.5177
  894MOL0     C20596  -2.457   3.251   0.957 -0.3768 -0.0827  0.1983
  894MOL0     C20597  -2.503   3.389   1.005 -0.1313 -0.0175 -0.4655
  894MOL0     C20598  -2.654   3.407   0.995 -0.1485 -0.6183  0.1547
  894MOL0     C20599  -2.711   3.543   1.024  0.2153 -0.1233 -0.2224
  894MOL0    Cl20600  -2.661   3.609   1.191  0.0942  0.3688 -0.3350
  894MOL0     C20601  -1.817   2.892   0.761 -0.4989  0.7128 -0.4072
  894MOL0     C20602  -1.711   2.851   0.676  0.2089 -0.2644  0.3544
  894MOL0     O20603  -1.599   2.752   0.408 -0.3398 -0.6763 -0.6452
  894MOL0     C20604  -1.353   2.698   0.308  0.3746 -0.5980  0.2068
  894MOL0     C20605  -1.246   2.684   0.215  0.8708  0.6413 -0.4683
  894MOL0     N20606  -0.614   2.713   0.399  0.4319 -0.3618 -0.2290
  894MOL0     N20607  -0.522   2.651   0.461 -0.1946 -0.4500  0.5079
  894MOL0     C20608   0.315   2.209   1.181  0.1553  0.6218 -0.1765
  894MOL0     C20609   0.350   2.187   1.315  0.2808 -0.1789 -0.2152
  894MOL0     C20610   0.706   2.161   1.631 -0.0621  0.2054 -0.1199
  894MOL0     C20611   0.826   2.217   1.666  0.5142  0.2505 -0.4237
  894MOL0     C20612   0.874   2.207   1.796  0.3007 -0.6802 -0.0833
  894MOL0     C20613   0.815   2.116   1.887 -0.3118 -0.3928  0.6769
  894MOL0     O20614   0.849   2.099   2.013  0.6212  0.2452 -0.7028
  894MOL0     C20615   0.973   2.165   2.063  0.4132 -0.0489 -0.3580
  894MOL0     C20616   1.007   2.097   2.201  0.1948 -0.4534  0.7656
  894MOL0     C20617   0.913   2.136   2.311 -0.1527  0.5121 -0.2493
  894MOL0     C20618   0.972   2.100   2.443 -0.7245  0.3157  0.1797
  894MOL0     C20619   0.883   2.125   2.553 -0.6837  0.5681 -0.4562
  894MOL0     C20620   0.805   2.161   2.638  0.2604  0.4219  0.8527
  894MOL0     C20621   0.702   2.048   1.845 -0.2956  0.5205 -0.1410
  894MOL0     C20622   0.646   2.076   1.722  0.6861 -0.2596 -0.1775
  894MOL0     H20623   0.664   2.066   1.250 -0.6196 -0.5445 -0.6346
  894MOL0     H20624   0.596   2.105   1.018  1.1961  0.2564  0.7403
  894MOL0     H20625   0.172   2.197   0.918  0.4087  1.3959  1.5868
  894MOL0     H20626   0.256   2.345   0.928  0.4240  1.4825 -1.9443
  894MOL0     H20627   0.324   2.324   0.692 -0.0925  0.7244  2.3663
  894MOL0     H20628   0.268   2.152   0.690  2.8509 -0.5021  0.6595
  894MOL0     H20629   0.131   2.306   0.571 -3.7178 -1.9187 -0.9444
  894MOL0     H20630   0.044   2.227   0.696  0.4054  0.2318 -0.4013
  894MOL0     H20631   0.057   2.426   0.841 -2.7360  1.4344 -0.1131
  894MOL0     H20632   0.135   2.511   0.710 -0.9940 -0.2278 -0.6236
  894MOL0     H20633  -0.147   2.390   0.746 -2.5602  0.5298 -2.6681
  894MOL0     H20634  -0.112   2.562   0.728 -2.8037 -0.0979 -2.2995
  894MOL0     H20635  -0.052   2.498   0.485 -1.0094 -0.3632 -1.9169
  894MOL0     H20636  -0.150   2.353   0.511  1.3055 -0.6465 -0.5988
  894MOL0     H20637  -0.335   2.485   0.593  1.0751  0.8361  1.5650
  894MOL0     H20638  -0.249   2.628   0.598 -2.5093 -1.3369  4.4858
  894MOL0     H20639  -0.323   2.446   0.353 -1.9599  0.8474 -0.6630
  894MOL0     H20640  -0.212   2.584   0.336  0.3561  1.1110  2.1030
  894MOL0     H20641  -0.394   2.652   0.167  2.4000  0.5333  2.5012
  894MOL0     H20642  -0.656   2.913   0.197  0.6505  0.0567 -0.8904
  894MOL0     H20643  -0.558   2.830   0.085  2.1175 -1.9007  1.1711
  894MOL0     H20644  -0.832   2.756   0.193  1.6179  1.7193  1.3572
  894MOL0     H20645  -0.747   2.648   0.076 -0.0829 -0.5744  0.2703
  894MOL0     H20646  -0.839   2.779  -0.094 -0.1364 -0.5559  0.4649
  894MOL0     H20647  -0.770   2.922  -0.022  0.4947 -0.3329  1.3811
  894MOL0     H20648  -1.025   2.921  -0.039 -1.8102  0.0220  1.0180
  894MOL0     H20649  -0.975   2.960   0.125 -2.6494 -3.1721  3.1923
  894MOL0     H20650  -1.127   2.997   0.245 -1.5140  1.4378 -1.4206
  894MOL0     H20651  -1.250   3.145   0.346 -0.1813 -0.3810  0.5207
  894MOL0     H20652  -1.428   3.116   0.352 -0.1930 -0.1677  1.1934
  894MOL0     H20653  -1.325   3.069   0.490 -0.0174 -2.2348 -0.3745
  894MOL0     H20654  -1.543   3.141   0.683  1.4392 -0.2357  2.3028
  894MOL0     H20655  -1.700   3.184   0.859  0.3926  1.7547 -2.9926
  894MOL0     H20656  -2.055   2.939   0.869 -0.0316 -0.7683  0.7046
  894MOL0     H20657  -2.055   2.962   1.039 -0.4907 -1.5633 -0.7724
  894MOL0     H20658  -2.061   3.212   1.010 -0.0127 -2.1750  1.8213
  894MOL0     H20659  -2.058   3.205   0.832 -0.6406  4.2393  1.7259
  894MOL0     H20660  -2.280   3.060   0.986  0.6240  1.6973  2.6740
  894MOL0     H20661  -2.281   3.099   0.821  0.1134 -3.0254  0.6130
  894MOL0     H20662  -2.265   3.298   1.053 -1.9926  0.0587  1.3666
  894MOL0     H20663  -2.269   3.338   0.881  0.7284 -0.4687  0.0483
  894MOL0     H20664  -2.492   3.175   1.027  0.3558  0.9160  1.7103
  894MOL0     H20665  -2.499   3.224   0.859 -2.2438 -0.8776  1.1762
  894MOL0     H20666  -2.469   3.414   1.106 -2.2815  1.2089  0.0009
  894MOL0     H20667  -2.455   3.465   0.942 -1.7009  2.4449  1.1247
  894MOL0     H20668  -2.700   3.345   1.073  2.4859  0.2857  2.6230
  894MOL0     H20669  -2.686   3.380   0.894  0.6695  0.9872 -0.5677
  894MOL0     H20670  -2.820   3.547   1.030  0.2907 -0.2953  3.4341
  894MOL0     H20671  -2.669   3.613   0.951 -1.5271  1.8645  0.5949
  894MOL0     H20672  -1.894   2.817   0.773  0.1974  0.0147 -0.1979
  894MOL0     H20673  -1.724   2.750   0.640 -1.8897  0.7901 -2.1914
  894MOL0     H20674  -1.424   2.618   0.324 -2.2433  1.4634 -0.4906
  894MOL0     H20675  -1.218   2.588   0.173  2.7917  0.1426  1.6920
  894MOL0     H20676   0.214   2.247   1.176 -0.1378  0.2041  1.9063
  894MOL0     H20677   0.280   2.217   1.393 -1.6270  1.3924 -2.4175
  894MOL0     H20678   0.872   2.287   1.597 -1.7566  1.2447 -1.0077
  894MOL0     H20679   0.954   2.277   1.817 -0.0220  0.2178 -1.6300
  894MOL0     H20680   1.060   2.141   2.001 -0.6809  0.4019 -2.1563
  894MOL0     H20681   0.960   2.273   2.068 -1.6711 -0.2965  0.4262
  894MOL0     H20682   1.105   2.142   2.219 -0.7383  3.0535 -1.9041
  894MOL0     H20683   1.016   1.988   2.190 -1.4941 -0.7260  1.6337
  894MOL0     H20684   0.826   2.072   2.294 -0.0362 -0.4366  2.3469
  894MOL0     H20685   0.882   2.240   2.299 -0.7198  0.2959 -0.7334
  894MOL0     H20686   1.065   2.154   2.463 -1.0634 -0.3078  4.2429
  894MOL0     H20687   1.000   1.995   2.445  0.2387  0.5572  0.1461
  894MOL0     H20688   0.738   2.194   2.715 -1.7838  2.2464 -1.5378
  894MOL0     H20689   0.659   1.967   1.902  0.0320  1.0621  0.8989
  894MOL0     H20690   0.553   2.023   1.710 -0.3695  1.7692 -1.6010
  895MOL0     O20691   0.726   3.518   0.255 -0.3756  0.2386 -0.1389
  895MOL0     C20692   0.762   3.403   0.252 -0.2508  0.4769 -0.6395
  895MOL0     O20693   0.689   3.302   0.291 -0.3199  0.4273  0.0652
  895MOL0     C20694   0.572   3.329   0.354 -0.1359 -0.2800 -0.0122
  895MOL0     C20695   0.582   3.352   0.491  1.1445  0.1835  0.1920
  895MOL0     C20696   0.455   3.368   0.554  0.7710 -1.0550  0.3904
  895MOL0     C20697   0.331   3.374   0.487 -0.6608  1.1154  0.4335
  895MOL0     O20698   0.215   3.374   0.562 -0.1329 -0.2766 -0.4801
  895MOL0     C20699   0.145   3.248   0.561  0.4667 -0.0285  0.5960
  895MOL0     C20700   0.006   3.256   0.605  0.7250  0.1054 -0.3477
  895MOL0     C20701  -0.061   3.117   0.619  0.2423  0.0020 -0.0480
  895MOL0     C20702  -0.201   3.120   0.572  0.5900  0.6669 -0.5415
  895MOL0     C20703  -0.278   2.980   0.569  0.0629 -0.3342 -0.2605
  895MOL0     C20704  -0.320   2.942   0.709 -0.5449  0.0267 -0.3938
  895MOL0     C20705  -0.441   2.855   0.722  0.9462  0.4031  0.7209
  895MOL0     C20706  -0.577   2.909   0.677  0.4262  0.4042  0.6220
  895MOL0     N20707  -0.612   3.044   0.734 -0.8314  0.6237 -0.3998
  895MOL0     C20708  -0.612   3.163   0.676 -0.0152 -0.5141  0.0749
  895MOL0     C20709  -0.664   3.251   0.765 -0.0907 -0.4622  0.3274
  895MOL0     C20710  -0.675   3.392   0.744 -0.6377 -0.2116 -0.5218
  895MOL0     C20711  -0.809   3.427   0.672  0.2481 -0.8749 -0.4252
  895MOL0     C20712  -0.838   3.583   0.668 -0.1512  0.1322  0.0791
  895MOL0     C20713  -0.963   3.599   0.580 -1.0996 -1.6389 -0.1961
  895MOL0     O20714  -1.018   3.741   0.592 -0.4979 -0.5089  0.3745
  895MOL0     C20715  -1.153   3.763   0.560 -0.2227 -0.1466 -0.9924
  895MOL0     C20716  -1.204   3.880   0.616 -0.6115  0.4912 -0.0205
  895MOL0     C20717  -1.338   3.922   0.607  0.2929  1.3826  0.2834
  895MOL0     C20718  -1.373   4.060   0.646  0.6396 -0.2391 -0.1947
  895MOL0     C20719  -1.430   3.840   0.533 -0.8496  0.6519 -0.0374
  895MOL0     C20720  -1.575   3.864   0.517  0.4266  0.0173 -0.7894
  895MOL0     O20721  -1.636   3.771   0.429 -0.0096 -0.3036 -0.2088
  895MOL0     C20722  -1.768   3.794   0.408  0.3721 -0.4275 -0.5299
  895MOL0     C20723  -1.808   3.913   0.350  0.0284  0.1911  0.2986
  895MOL0     C20724  -1.940   3.943   0.328  0.5633 -0.2898  0.1749
  895MOL0     C20725  -2.039   3.846   0.346  0.2877  0.3189  0.0108
  895MOL0     O20726  -2.168   3.877   0.307  0.1247 -0.4972  0.2565
  895MOL0     C20727  -2.253   3.764   0.281 -0.9261 -0.3482  0.2599
  895MOL0     C20728  -2.384   3.820   0.230 -0.4818  0.0057  0.2939
  895MOL0     C20729  -2.484   3.897   0.322  0.1904  0.2240 -0.3296
  895MOL0     C20730  -2.632   3.857   0.311  1.1063  1.0598 -0.2484
  895MOL0     C20731  -2.708   3.899   0.190  0.1864  0.0928 -0.4470
  895MOL0     C20732  -2.775   4.042   0.199 -0.1119  0.4869 -1.1574
  895MOL0     C20733  -2.884   4.057   0.307 -0.3503 -0.7603 -0.9161
  895MOL0     C20734  -3.005   3.959   0.272 -0.0082 -0.2973  0.1238
  895MOL0    Cl20735  -3.134   4.008   0.378 -0.0577 -0.0644 -0.3208
  895MOL0     C20736  -1.999   3.713   0.387 -0.2523  0.0406 -1.1448
  895MOL0     C20737  -1.862   3.695   0.424  0.9562 -0.5062  0.3132
  895MOL0     O20738  -1.633   3.938   0.590  0.4763 -0.0375 -0.2528
  895MOL0     C20739  -1.371   3.724   0.469 -0.1174 -0.3386  0.7324
  895MOL0     C20740  -1.243   3.680   0.497 -0.6142 -0.3893  0.1921
  895MOL0     N20741  -0.685   3.175   0.882  0.6211  0.1262  0.1791
  895MOL0     N20742  -0.660   3.056   0.863 -0.3628  0.2076  0.0571
  895MOL0     C20743   0.333   3.354   0.350  0.1688 -0.1889  0.0703
  895MOL0     C20744   0.456   3.335   0.283  0.0202 -0.1096 -0.3688
  895MOL0     C20745   0.890   3.382   0.193 -0.6492  0.3932 -0.1535
  895MOL0     C20746   0.950   3.265   0.216 -1.0074 -0.6436 -0.5602
  895MOL0     C20747   1.085   3.241   0.186 -0.2037  0.7234  0.3167
  895MOL0     C20748   1.165   3.342   0.123  0.3470 -0.1546 -0.1279
  895MOL0     O20749   1.286   3.301   0.078  0.4513  0.0472  0.0309
  895MOL0     C20750   1.352   3.379  -0.025 -0.4213 -0.2404  0.1823
  895MOL0     C20751   1.304   3.332  -0.162  0.3476 -0.7900 -0.2317
  895MOL0     C20752   1.368   3.203  -0.212 -0.1062  0.2586 -0.4587
  895MOL0     C20753   1.325   3.193  -0.358  0.6201  0.7131  0.2640
  895MOL0     C20754   1.322   3.049  -0.404 -0.0112 -0.6982 -0.1958
  895MOL0     C20755   1.347   2.939  -0.446  0.2765  0.9908  0.1583
  895MOL0     C20756   1.099   3.458   0.088 -0.6271 -0.6193  0.6573
  895MOL0     C20757   0.965   3.479   0.120 -0.7337  0.5503  0.1782
  895MOL0     H20758   0.671   3.332   0.550  1.4506 -3.5937 -1.2744
  895MOL0     H20759   0.448   3.368   0.662 -1.4168  0.1658  0.2987
  895MOL0     H20760   0.138   3.196   0.465  3.0827 -0.8605  0.7753
  895MOL0     H20761   0.208   3.181   0.619  1.7945  1.5453  1.0289
  895MOL0     H20762  -0.009   3.307   0.700 -1.8485  0.9826 -1.1467
  895MOL0     H20763  -0.040   3.318   0.528  3.2100  0.7794 -1.4104
  895MOL0     H20764  -0.002   3.037   0.572  1.0250 -0.3491  1.4693
  895MOL0     H20765  -0.066   3.101   0.727 -1.6388  0.9647  0.0382
  895MOL0     H20766  -0.264   3.183   0.635  0.3053 -0.0585 -0.0838
  895MOL0     H20767  -0.198   3.145   0.465  0.7366 -3.5377 -1.7314
  895MOL0     H20768  -0.367   2.993   0.507 -0.8963  0.4269  1.2129
  895MOL0     H20769  -0.236   2.893   0.519  0.3629  0.1142 -0.7884
  895MOL0     H20770  -0.231   2.898   0.754  0.4458  0.2927 -2.0021
  895MOL0     H20771  -0.336   3.033   0.768 -0.1209  0.6640 -1.2301
  895MOL0     H20772  -0.429   2.763   0.663  0.8173  0.8784 -0.0540
  895MOL0     H20773  -0.454   2.834   0.829  0.0532 -2.5486  0.1399
  895MOL0     H20774  -0.655   2.841   0.711 -1.1261  1.5995 -0.3864
  895MOL0     H20775  -0.567   2.915   0.568  1.5131 -0.7604  0.6431
  895MOL0     H20776  -0.577   3.179   0.574 -1.0996  1.1829 -0.0721
  895MOL0     H20777  -0.675   3.437   0.844 -0.4620 -2.0107  0.3308
  895MOL0     H20778  -0.588   3.442   0.700 -0.4224  1.8936  2.0602
  895MOL0     H20779  -0.898   3.386   0.720 -2.8464  2.7820 -2.4675
  895MOL0     H20780  -0.802   3.396   0.567 -1.3007 -2.5343 -0.0849
  895MOL0     H20781  -0.744   3.623   0.630  0.8316 -2.4506 -0.4196
  895MOL0     H20782  -0.858   3.620   0.769 -2.0785 -1.6000  0.3986
  895MOL0     H20783  -1.042   3.526   0.601 -2.6349  0.0346  0.1248
  895MOL0     H20784  -0.939   3.588   0.474  2.3390  0.8356  0.1623
  895MOL0     H20785  -1.135   3.953   0.656 -0.5057  1.3486 -1.6882
  895MOL0     H20786  -1.410   4.119   0.562 -2.0698  1.3946  1.9711
  895MOL0     H20787  -1.454   4.066   0.719 -0.9809  1.5414 -2.0275
  895MOL0     H20788  -1.283   4.101   0.693 -0.1240 -0.1606  1.2711
  895MOL0     H20789  -1.739   3.990   0.315  0.1455  0.5248  1.2482
  895MOL0     H20790  -1.967   4.035   0.277 -1.5395 -1.7857 -1.6264
  895MOL0     H20791  -2.197   3.703   0.209  1.7550  1.1824  0.9152
  895MOL0     H20792  -2.259   3.703   0.372  0.7613 -0.5274  0.2753
  895MOL0     H20793  -2.351   3.889   0.153  2.2855 -0.6091  0.8152
  895MOL0     H20794  -2.436   3.736   0.182  0.6522 -1.0904  0.9252
  895MOL0     H20795  -2.477   4.004   0.300  0.3420  0.5117  1.0388
  895MOL0     H20796  -2.454   3.883   0.426 -1.2371 -1.1137 -0.0620
  895MOL0     H20797  -2.640   3.749   0.325 -2.0697  0.9887 -1.7375
  895MOL0     H20798  -2.675   3.888   0.407  1.8978  1.8924 -0.1545
  895MOL0     H20799  -2.779   3.819   0.165 -0.2831  1.0931 -2.5518
  895MOL0     H20800  -2.639   3.904   0.105 -0.6372 -0.0376 -1.1471
  895MOL0     H20801  -2.693   4.115   0.204 -0.9538  1.3684  1.1203
  895MOL0     H20802  -2.822   4.055   0.101 -1.4157 -1.7877 -0.8869
  895MOL0     H20803  -2.920   4.160   0.301  0.8469 -0.3774 -1.9468
  895MOL0     H20804  -2.849   4.039   0.409 -0.0026 -1.2487 -1.1127
  895MOL0     H20805  -2.987   3.852   0.262 -1.2303 -0.7319  1.9465
  895MOL0     H20806  -3.034   3.996   0.174 -1.3819  1.2129  1.0466
  895MOL0     H20807  -2.066   3.629   0.406  1.1137 -0.6415  0.8928
  895MOL0     H20808  -1.840   3.600   0.472 -2.7157 -1.4029  0.4775
  895MOL0     H20809  -1.429   3.666   0.397 -0.6857  2.1425 -0.9244
  895MOL0     H20810  -1.215   3.586   0.451  0.3760 -0.0263  0.0150
  895MOL0     H20811   0.240   3.343   0.296  0.0111 -2.0151  0.6409
  895MOL0     H20812   0.455   3.317   0.176 -3.4980 -0.9214 -0.2927
  895MOL0     H20813   0.897   3.188   0.271 -1.4355  0.3235  0.4299
  895MOL0     H20814   1.129   3.143   0.201  0.7634  0.4332 -3.4251
  895MOL0     H20815   1.340   3.488  -0.022 -0.4329 -0.2700  1.7794
  895MOL0     H20816   1.458   3.351  -0.022 -0.6453 -1.0802  3.0189
  895MOL0     H20817   1.331   3.408  -0.236 -0.8671  0.3694  0.4763
  895MOL0     H20818   1.197   3.311  -0.161  0.6992 -2.8056 -0.0598
  895MOL0     H20819   1.333   3.129  -0.139  2.2466 -1.0105 -0.5338
  895MOL0     H20820   1.477   3.209  -0.211 -0.0761  0.7741 -2.6938
  895MOL0     H20821   1.381   3.249  -0.434 -0.3245  1.4928  0.1129
  895MOL0     H20822   1.225   3.229  -0.384 -0.3986 -0.6541  2.0083
  895MOL0     H20823   1.361   2.843  -0.490  0.7700  0.5257  1.3101
  895MOL0     H20824   1.150   3.533   0.028  1.0454  0.2051  2.9335
  895MOL0     H20825   0.924   3.579   0.104 -3.0457 -0.2496  0.7981
  896MOL0     O20826   2.648   7.941   2.730 -0.2720  0.7510  0.4245
  896MOL0     C20827   2.687   7.940   2.848  0.2314  0.1811  0.1364
  896MOL0     O20828   2.607   7.942   2.956 -0.5396  0.6564 -0.4797
  896MOL0     C20829   2.469   7.943   2.929 -0.0187  0.4510  0.0325
  896MOL0     C20830   2.394   7.826   2.963 -0.7046  0.4326 -0.9487
  896MOL0     C20831   2.260   7.821   2.941 -0.4234 -0.2916  0.5504
  896MOL0     C20832   2.193   7.943   2.908  0.7250 -0.9340 -0.4593
  896MOL0     O20833   2.054   7.939   2.922 -0.0719  0.2983 -0.5161
  896MOL0     C20834   2.019   7.968   3.056  1.2930  0.1207 -0.0903
  896MOL0     C20835   1.934   7.844   3.110  0.1277  0.7661 -0.0212
  896MOL0     C20836   1.865   7.886   3.241  0.2365 -0.6055 -0.1373
  896MOL0     C20837   1.811   7.764   3.324 -0.1248 -0.3733 -0.2430
  896MOL0     C20838   1.727   7.664   3.246  1.3025 -0.2491  0.2986
  896MOL0     C20839   1.578   7.704   3.239 -0.3005  0.4122 -0.8478
  896MOL0     C20840   1.479   7.598   3.189  0.3300  0.2794 -0.2733
  896MOL0     C20841   1.489   7.461   3.259  0.6504 -0.0724  0.5834
  896MOL0     N20842   1.377   7.370   3.217 -0.0455  0.4272  0.1759
  896MOL0     C20843   1.247   7.368   3.261 -0.2083  0.6924 -0.0731
  896MOL0     C20844   1.198   7.253   3.211  0.3316 -0.0208  0.6270
  896MOL0     C20845   1.051   7.192   3.238  0.0336  0.5445  0.8191
  896MOL0     C20846   1.075   7.037   3.270  0.1181 -0.6714  0.1026
  896MOL0     C20847   0.941   6.966   3.320  0.9307  0.4000  0.2955
  896MOL0     C20848   0.828   6.991   3.229 -0.2927 -0.3217  0.7786
  896MOL0     O20849   0.837   6.939   3.088 -0.3381 -0.5545 -0.4747
  896MOL0     C20850   0.767   6.830   3.066  1.1576 -0.3171 -0.0654
  896MOL0     C20851   0.825   6.708   3.089  0.4281 -0.0511  0.2745
  896MOL0     C20852   0.762   6.590   3.063 -0.0256  0.5349  1.0471
  896MOL0     C20853   0.836   6.463   3.099  0.3496  0.2005 -0.1800
  896MOL0     C20854   0.639   6.589   2.987 -0.5943 -0.5745 -0.1655
  896MOL0     C20855   0.587   6.469   2.919 -0.1011  1.2741 -0.5574
  896MOL0     O20856   0.493   6.498   2.828 -0.2346  0.4271 -0.4235
  896MOL0     C20857   0.422   6.404   2.755  0.0128  0.7147  0.3127
  896MOL0     C20858   0.288   6.377   2.792  0.7581  0.0778 -0.1028
  896MOL0     C20859   0.208   6.282   2.736  0.1690 -0.9806  0.3433
  896MOL0     C20860   0.257   6.210   2.630 -0.8452  0.6711  0.7434
  896MOL0     O20861   0.189   6.110   2.572  0.6521  0.3558  0.3007
  896MOL0     C20862   0.095   6.035   2.650  0.0233  0.2037 -0.7003
  896MOL0     C20863   0.077   5.895   2.582  0.2060 -0.8146  0.0374
  896MOL0     C20864   0.049   5.905   2.438  0.4434  0.0174  0.5470
  896MOL0     C20865  -0.047   5.789   2.393 -0.2640  0.0824  0.0236
  896MOL0     C20866  -0.075   5.795   2.242  0.7080 -0.3134 -0.2424
  896MOL0     C20867  -0.120   5.651   2.193  0.2647 -0.9860  0.1650
  896MOL0     C20868  -0.131   5.681   2.039  0.4516 -0.1206  0.0024
  896MOL0     C20869  -0.169   5.551   1.971  0.0299 -0.8747  1.0252
  896MOL0    Cl20870  -0.354   5.534   1.982  0.1449  0.4811  0.1068
  896MOL0     C20871   0.387   6.232   2.583  0.3054 -0.0981 -0.0052
  896MOL0     C20872   0.476   6.332   2.645  0.0756 -1.0636 -0.4562
  896MOL0     O20873   0.594   6.356   2.976  0.0144 -0.3188  0.5833
  896MOL0     C20874   0.583   6.720   2.963 -0.3955 -0.2444  1.0099
  896MOL0     C20875   0.633   6.838   3.012  0.4658  0.2099  0.4835
  896MOL0     N20876   1.289   7.195   3.127  0.7890  0.5650  1.1581
  896MOL0     N20877   1.403   7.254   3.141 -0.8083  0.6284 -0.1433
  896MOL0     C20878   2.263   8.065   2.877  0.0394 -0.5382  0.3591
  896MOL0     C20879   2.405   8.061   2.884  0.2976 -0.0302 -0.4590
  896MOL0     C20880   2.836   7.958   2.869 -0.0567  0.2178 -0.2340
  896MOL0     C20881   2.882   7.993   2.995  0.0577 -0.9111 -0.3184
  896MOL0     C20882   3.014   8.031   3.011 -0.1227  0.0613  0.4639
  896MOL0     C20883   3.106   8.013   2.910 -0.2134  0.3506 -0.0095
  896MOL0     O20884   3.229   8.059   2.952 -0.3350 -0.4313  0.7438
  896MOL0     C20885   3.327   8.065   2.851 -0.1939  0.1749 -0.1528
  896MOL0     C20886   3.450   8.126   2.924 -0.1907  0.5060 -0.1050
  896MOL0     C20887   3.555   8.121   2.818 -0.3857  0.2650 -0.6023
  896MOL0     C20888   3.691   8.176   2.875 -0.0052 -0.3176  0.0239
  896MOL0     C20889   3.727   8.136   3.015  0.1568  0.1999  0.2047
  896MOL0     C20890   3.750   8.108   3.128  0.4842 -0.4799  0.7891
  896MOL0     C20891   3.068   7.977   2.778  0.4543  0.1497 -0.2707
  896MOL0     C20892   2.929   7.952   2.760  0.5139  1.1388  0.0356
  896MOL0     H20893   2.448   7.739   3.000 -0.0310  1.9564  1.8640
  896MOL0     H20894   2.203   7.731   2.960  0.1535 -0.7163  0.2770
  896MOL0     H20895   2.102   7.993   3.124  1.4043 -2.0887  0.6678
  896MOL0     H20896   1.945   8.048   3.049 -0.0589 -1.1034 -0.3074
  896MOL0     H20897   1.864   7.807   3.034  0.2369 -0.6683  0.5388
  896MOL0     H20898   2.007   7.764   3.128  0.3951  0.9879 -0.1046
  896MOL0     H20899   1.940   7.943   3.296  0.1413 -1.1005  0.5262
  896MOL0     H20900   1.773   7.936   3.211 -2.5675 -5.7247 -1.2173
  896MOL0     H20901   1.897   7.709   3.363  0.0008 -0.4291 -0.5985
  896MOL0     H20902   1.761   7.795   3.416  0.7701  0.0067  0.1308
  896MOL0     H20903   1.763   7.644   3.144 -0.0977 -2.8969  0.2303
  896MOL0     H20904   1.746   7.570   3.300  1.9017  0.0815  0.6724
  896MOL0     H20905   1.558   7.725   3.344  4.5818 -1.4922  0.7498
  896MOL0     H20906   1.569   7.797   3.183  0.7345  0.6371 -0.6610
  896MOL0     H20907   1.378   7.641   3.192  0.0798 -0.3617  1.4741
  896MOL0     H20908   1.495   7.592   3.081  1.9423  0.5912 -0.0829
  896MOL0     H20909   1.481   7.483   3.366 -1.9620 -0.6362  0.5777
  896MOL0     H20910   1.587   7.421   3.231  0.2378 -1.1599  0.6645
  896MOL0     H20911   1.204   7.453   3.312 -1.1490  0.6355 -0.7633
  896MOL0     H20912   1.004   7.239   3.325  1.6254 -1.7638  3.1135
  896MOL0     H20913   0.985   7.210   3.153  0.8626  1.5909  0.3784
  896MOL0     H20914   1.149   7.036   3.350  1.4339  2.7611 -0.8683
  896MOL0     H20915   1.115   6.980   3.186  0.2831 -0.6142  0.1417
  896MOL0     H20916   0.916   7.023   3.410  1.7516 -0.4655  1.0916
  896MOL0     H20917   0.954   6.860   3.341  1.2517  0.4958  0.5910
  896MOL0     H20918   0.817   7.100   3.222  2.5518  0.1474  2.3528
  896MOL0     H20919   0.737   6.962   3.282 -0.6771 -0.9823 -0.2009
  896MOL0     H20920   0.927   6.704   3.128  0.5948  1.3289  0.0340
  896MOL0     H20921   0.857   6.406   3.008 -0.6881 -1.9579  0.8720
  896MOL0     H20922   0.927   6.470   3.159 -0.4977  2.4564  0.9903
  896MOL0     H20923   0.766   6.395   3.150  0.6219 -0.7775 -1.0896
  896MOL0     H20924   0.249   6.453   2.859  1.3737 -0.6877  1.1731
  896MOL0     H20925   0.114   6.256   2.782 -0.1622 -1.4600 -0.5867
  896MOL0     H20926   0.142   6.016   2.747 -1.5341 -0.8464 -0.1214
  896MOL0     H20927   0.005   6.096   2.661 -0.5881 -0.7504 -0.2484
  896MOL0     H20928   0.169   5.839   2.597  1.6877  1.1442 -1.2489
  896MOL0     H20929  -0.005   5.848   2.638  0.6963  0.1764  1.6422
  896MOL0     H20930   0.136   5.894   2.373 -0.3498 -0.2082 -0.5071
  896MOL0     H20931   0.004   6.003   2.418 -0.7428 -0.1367  2.2159
  896MOL0     H20932   0.001   5.692   2.415  1.0421  1.3033  3.1458
  896MOL0     H20933  -0.135   5.790   2.457  0.1835  2.5927  0.7060
  896MOL0     H20934   0.015   5.834   2.192 -0.1640 -0.0321 -1.6416
  896MOL0     H20935  -0.155   5.867   2.226 -0.0015 -0.6321  1.6103
  896MOL0     H20936  -0.046   5.571   2.201  1.6269  0.1892 -0.2004
  896MOL0     H20937  -0.213   5.622   2.242  0.7278 -0.0762  1.6462
  896MOL0     H20938  -0.032   5.703   1.999 -1.4991  2.8950 -3.9409
  896MOL0     H20939  -0.199   5.761   2.008 -0.2525 -1.3492 -1.7856
  896MOL0     H20940  -0.118   5.463   2.012  0.8386 -0.2441  1.3965
  896MOL0     H20941  -0.153   5.557   1.863  0.8256  2.8122  1.2214
  896MOL0     H20942   0.422   6.171   2.501  0.5347  0.3337 -0.2343
  896MOL0     H20943   0.578   6.341   2.610  0.4543  0.8644  0.9823
  896MOL0     H20944   0.495   6.721   2.900 -0.3930 -0.2671  1.0062
  896MOL0     H20945   0.592   6.938   3.000 -0.2734 -0.2724 -1.3446
  896MOL0     H20946   2.214   8.158   2.849  1.3112 -0.8612 -3.4627
  896MOL0     H20947   2.472   8.139   2.849  2.5979 -2.6402 -2.1924
  896MOL0     H20948   2.811   8.013   3.074 -2.3852  0.1590 -2.6581
  896MOL0     H20949   3.049   8.052   3.112  0.9188  2.3061 -0.3107
  896MOL0     H20950   3.353   7.969   2.805  1.5817  0.8484 -0.6420
  896MOL0     H20951   3.311   8.130   2.765  0.0661  0.4832  0.0291
  896MOL0     H20952   3.466   8.060   3.010  1.3137 -0.5459 -1.1645
  896MOL0     H20953   3.422   8.226   2.959 -0.5676 -0.0791  1.3790
  896MOL0     H20954   3.517   8.171   2.728 -3.4573 -1.7659 -0.5847
  896MOL0     H20955   3.575   8.020   2.782 -1.8413 -0.3875  0.3344
  896MOL0     H20956   3.702   8.285   2.867  2.8901 -0.5253  0.0330
  896MOL0     H20957   3.768   8.131   2.811 -1.1777 -2.2029 -0.1107
  896MOL0     H20958   3.773   8.113   3.233  0.8830  1.4484  0.6419
  896MOL0     H20959   3.135   7.973   2.693 -0.0695 -0.7541 -0.6562
  896MOL0     H20960   2.896   7.933   2.658  1.9267 -0.1269 -0.2268
  897MOL0     O20961  10.455   6.931   4.238  0.8865  0.2875 -0.7465
  897MOL0     C20962  10.570   6.959   4.200  0.0361  0.3175  0.1148
  897MOL0     O20963  10.628   6.905   4.089  0.4411  0.0717  0.1958
  897MOL0     C20964  10.561   6.830   3.999 -0.1011 -0.8890 -0.2590
  897MOL0     C20965  10.417   6.833   3.975  0.5175  0.1957 -0.6061
  897MOL0     C20966  10.366   6.771   3.856 -0.7943  0.6644  0.1542
  897MOL0     C20967  10.453   6.706   3.767 -1.1364 -0.2833 -0.2572
  897MOL0     O20968  10.411   6.644   3.655  0.5310 -0.1733 -0.3144
  897MOL0     C20969  10.297   6.695   3.574  0.2854  0.0477 -0.1410
  897MOL0     C20970  10.325   6.660   3.422 -0.4433  0.2668 -0.1869
  897MOL0     C20971  10.193   6.684   3.346  0.8069 -0.1473  0.1444
  897MOL0     C20972  10.202   6.608   3.211  0.3602 -0.1806 -0.4553
  897MOL0     C20973  10.080   6.627   3.113  0.3193 -0.3012  0.4796
  897MOL0     C20974   9.941   6.636   3.190  0.1780 -0.4467 -0.3363
  897MOL0     C20975   9.825   6.658   3.093 -0.4391  0.5659 -0.1734
  897MOL0     C20976   9.796   6.531   3.014  0.1618 -0.9008 -0.0013
  897MOL0     N20977   9.672   6.549   2.947 -0.4735  0.0071  0.0132
  897MOL0     C20978   9.632   6.648   2.858  0.9565  0.3476 -0.8624
  897MOL0     C20979   9.495   6.626   2.832 -0.1313  1.2836 -0.0814
  897MOL0     C20980   9.403   6.716   2.761  0.5675 -0.5392 -0.2545
  897MOL0     C20981   9.438   6.738   2.618 -0.5288  0.1159  0.6938
  897MOL0     C20982   9.434   6.617   2.521 -0.3596 -0.3904 -0.0901
  897MOL0     C20983   9.298   6.550   2.509  0.2376  0.4696  0.3552
  897MOL0     O20984   9.206   6.640   2.451  0.4428 -0.1963 -0.5332
  897MOL0     C20985   9.077   6.607   2.447 -0.0683  0.7311 -0.5340
  897MOL0     C20986   9.019   6.510   2.533 -1.0498  0.2661  0.3904
  897MOL0     C20987   8.885   6.469   2.528 -0.4891 -0.8429  0.6541
  897MOL0     C20988   8.839   6.362   2.625  1.4951 -0.4901  0.4723
  897MOL0     C20989   8.795   6.535   2.434 -0.7577 -0.9033 -0.0741
  897MOL0     C20990   8.648   6.507   2.418 -0.2662 -0.3726  0.6995
  897MOL0     O20991   8.575   6.617   2.391 -0.5692 -0.1278 -0.3080
  897MOL0     C20992   8.441   6.591   2.381 -0.4019  0.1125  0.5549
  897MOL0     C20993   8.371   6.576   2.502 -0.3785  0.3738  0.5172
  897MOL0     C20994   8.239   6.530   2.492 -0.2851  0.8372 -0.8481
  897MOL0     C20995   8.171   6.514   2.366  0.2443  0.4492 -0.0818
  897MOL0     O20996   8.038   6.477   2.350 -0.7360 -0.6473 -0.2941
  897MOL0     C20997   7.966   6.446   2.469 -0.3290  0.2193 -0.6903
  897MOL0     C20998   7.824   6.395   2.438 -0.2206  1.1487  0.0324
  897MOL0     C20999   7.727   6.427   2.549  0.3197  0.0360 -0.0496
  897MOL0     C21000   7.590   6.356   2.522  0.0904 -0.2603  0.5839
  897MOL0     C21001   7.499   6.346   2.646 -0.1077  0.0986  0.4664
  897MOL0     C21002   7.461   6.485   2.712 -0.1447  0.6821  0.1421
  897MOL0     C21003   7.410   6.584   2.606 -0.3099 -0.9028 -0.0485
  897MOL0     C21004   7.287   6.543   2.530  0.5340  0.5379  0.6479
  897MOL0    Cl21005   7.152   6.502   2.649  0.1224 -0.1329  0.3064
  897MOL0     C21006   8.244   6.524   2.251 -0.6885  0.1614  0.0103
  897MOL0     C21007   8.379   6.560   2.258 -0.2784 -0.3548 -0.4218
  897MOL0     O21008   8.614   6.389   2.425  0.0700 -0.6326  0.4695
  897MOL0     C21009   8.854   6.630   2.345 -0.2592 -0.7300  0.0952
  897MOL0     C21010   8.991   6.664   2.347 -0.5526  0.2086 -0.5094
  897MOL0     N21011   9.454   6.518   2.906  0.1221  0.5753 -0.4889
  897MOL0     N21012   9.561   6.470   2.966  0.1460  0.6597  0.1969
  897MOL0     C21013  10.590   6.698   3.798  1.4587  0.2515  0.6747
  897MOL0     C21014  10.645   6.757   3.914 -0.3311 -0.3878  0.6613
  897MOL0     C21015  10.652   7.052   4.281  0.0131  0.8502 -0.4642
  897MOL0     C21016  10.787   7.073   4.259  0.3226 -0.1086  0.3337
  897MOL0     C21017  10.860   7.190   4.327 -0.6021  1.4620  1.2872
  897MOL0     C21018  10.798   7.251   4.432 -0.2173 -0.3833 -0.5430
  897MOL0     O21019  10.877   7.342   4.492  0.0858  0.4901 -0.1364
  897MOL0     C21020  10.850   7.353   4.629 -0.6676 -0.6330 -0.6251
  897MOL0     C21021  10.950   7.444   4.688 -0.2163 -0.0306 -0.0167
  897MOL0     C21022  11.094   7.377   4.690  0.3316 -0.1103 -0.6263
  897MOL0     C21023  11.175   7.428   4.808  0.5160 -0.7806  0.3467
  897MOL0     C21024  11.310   7.372   4.827  1.2457  1.0218  0.6146
  897MOL0     C21025  11.411   7.318   4.863  0.1932  0.2268  0.0909
  897MOL0     C21026  10.671   7.212   4.476 -0.1217  0.7457  0.7735
  897MOL0     C21027  10.596   7.113   4.398 -0.0046 -0.3546 -0.8329
  897MOL0     H21028  10.349   6.897   4.031  0.7574  2.5399 -2.8580
  897MOL0     H21029  10.260   6.769   3.832 -1.0482  1.5005  1.1366
  897MOL0     H21030  10.205   6.651   3.613  0.9874 -1.1330  0.2053
  897MOL0     H21031  10.284   6.804   3.579 -4.0756 -0.3130  0.3120
  897MOL0     H21032  10.399   6.733   3.387 -0.9026  0.4704 -0.7616
  897MOL0     H21033  10.373   6.562   3.412 -1.5810 -0.0980 -3.6681
  897MOL0     H21034  10.112   6.636   3.401  0.6230  1.1597  1.0694
  897MOL0     H21035  10.158   6.788   3.340 -1.5258 -0.7510  1.7466
  897MOL0     H21036  10.290   6.645   3.158  0.2242  0.8067 -0.0230
  897MOL0     H21037  10.206   6.501   3.232 -1.8524 -0.6182 -1.9324
  897MOL0     H21038  10.090   6.713   3.045 -1.9946 -1.4459 -1.4337
  897MOL0     H21039  10.079   6.545   3.041  1.0485  0.5070 -0.5088
  897MOL0     H21040   9.926   6.540   3.240 -1.1430  0.1834  0.5194
  897MOL0     H21041   9.939   6.719   3.262 -0.5967 -1.4577  0.8500
  897MOL0     H21042   9.732   6.669   3.151 -1.3275 -0.7015 -1.2878
  897MOL0     H21043   9.841   6.745   3.029 -0.4326 -0.4410 -1.5919
  897MOL0     H21044   9.798   6.445   3.081  2.1240 -1.2183 -0.4116
  897MOL0     H21045   9.871   6.511   2.937  1.1482  1.7320  0.1585
  897MOL0     H21046   9.694   6.732   2.827  4.1161 -1.0464  1.1944
  897MOL0     H21047   9.309   6.661   2.765  0.7062 -0.9398 -1.7777
  897MOL0     H21048   9.384   6.816   2.802 -0.1733  0.0249 -1.8558
  897MOL0     H21049   9.541   6.773   2.603 -0.3459 -0.4649  0.5775
  897MOL0     H21050   9.367   6.810   2.575 -0.2840 -1.0271 -1.8424
  897MOL0     H21051   9.510   6.542   2.543 -0.1592 -0.2104 -0.1757
  897MOL0     H21052   9.454   6.661   2.423  0.7204 -1.4028 -0.3522
  897MOL0     H21053   9.271   6.512   2.607 -3.6526 -3.4289 -1.8783
  897MOL0     H21054   9.305   6.462   2.444  3.2567 -0.2739  1.5241
  897MOL0     H21055   9.074   6.460   2.612 -1.6278 -2.4197 -0.7942
  897MOL0     H21056   8.824   6.268   2.571 -0.0456  1.4554 -2.8361
  897MOL0     H21057   8.911   6.359   2.707  2.7291  3.1858 -0.2844
  897MOL0     H21058   8.744   6.397   2.666  1.0166 -0.5265 -0.5629
  897MOL0     H21059   8.426   6.589   2.595 -0.3643  0.9975  0.4209
  897MOL0     H21060   8.187   6.500   2.582 -3.4731  3.3441 -1.6767
  897MOL0     H21061   8.009   6.369   2.535 -0.4719  0.6402 -0.0960
  897MOL0     H21062   7.959   6.536   2.532 -3.1060 -0.5507  0.2732
  897MOL0     H21063   7.791   6.454   2.352 -0.1307  2.1601  0.6649
  897MOL0     H21064   7.830   6.288   2.418  3.3891  1.2735 -0.2834
  897MOL0     H21065   7.716   6.535   2.556 -0.7978 -0.1642  2.0317
  897MOL0     H21066   7.762   6.397   2.648 -1.5660  1.2505  1.0389
  897MOL0     H21067   7.530   6.402   2.442  1.0011 -2.4988 -1.5259
  897MOL0     H21068   7.603   6.254   2.483  0.2608 -0.1907  0.4559
  897MOL0     H21069   7.541   6.275   2.718  0.5883  1.3915  1.3832
  897MOL0     H21070   7.407   6.291   2.621  1.0559 -2.0314  0.6573
  897MOL0     H21071   7.392   6.468   2.795  1.0593  1.0349  1.2520
  897MOL0     H21072   7.553   6.531   2.748  1.7009  0.2663 -3.5157
  897MOL0     H21073   7.482   6.598   2.524 -1.5009 -0.1859 -1.0118
  897MOL0     H21074   7.410   6.684   2.649  1.8244 -0.3376 -1.2233
  897MOL0     H21075   7.309   6.452   2.473  2.9625  0.8323  0.9971
  897MOL0     H21076   7.256   6.633   2.476 -1.5974  1.1584  2.7442
  897MOL0     H21077   8.188   6.507   2.160 -0.5962  0.6606 -0.1456
  897MOL0     H21078   8.439   6.587   2.171 -0.9156  1.4715 -0.3352
  897MOL0     H21079   8.787   6.683   2.278 -0.1354  1.0507  1.3051
  897MOL0     H21080   9.040   6.720   2.268  1.5370  0.5000  0.9351
  897MOL0     H21081  10.664   6.644   3.739 -0.7420 -0.4935 -1.5581
  897MOL0     H21082  10.750   6.746   3.940  0.6825  1.0385 -2.3143
  897MOL0     H21083  10.834   7.037   4.168 -1.1547  0.1954 -0.5968
  897MOL0     H21084  10.960   7.195   4.285 -1.9031 -0.5337 -2.4732
  897MOL0     H21085  10.756   7.406   4.643  0.7462  1.4273  2.4250
  897MOL0     H21086  10.851   7.257   4.681 -4.0283 -0.9616 -1.0011
  897MOL0     H21087  10.923   7.466   4.791  0.8388 -0.1053  0.2927
  897MOL0     H21088  10.957   7.540   4.635  0.4615  1.3324  2.4059
  897MOL0     H21089  11.140   7.413   4.597 -0.5542 -1.6200 -1.6995
  897MOL0     H21090  11.087   7.269   4.704 -1.6746  0.4008  4.1386
  897MOL0     H21091  11.115   7.412   4.898  0.4045 -2.9450 -0.0604
  897MOL0     H21092  11.192   7.535   4.796 -0.6957  0.0174  4.2331
  897MOL0     H21093  11.507   7.277   4.886 -0.0680 -0.4284  0.0466
  897MOL0     H21094  10.636   7.254   4.569 -3.4782  0.9634 -0.4187
  897MOL0     H21095  10.496   7.088   4.431 -0.8369 -0.6338 -3.4082
  898MOL0     O21096   9.779   7.628   6.144 -0.5803  0.8704  0.4967
  898MOL0     C21097   9.764   7.537   6.062 -0.7236  0.3281  0.9753
  898MOL0     O21098   9.661   7.447   6.053 -0.1225  0.6133 -0.8531
  898MOL0     C21099   9.549   7.468   6.124 -0.6863 -0.1322 -0.7935
  898MOL0     C21100   9.436   7.418   6.066  0.0168 -0.0029 -0.4166
  898MOL0     C21101   9.312   7.434   6.129  0.4769 -0.8935  0.6122
  898MOL0     C21102   9.296   7.490   6.260 -0.9215 -0.3162 -0.1941
  898MOL0     O21103   9.189   7.490   6.341 -0.5290  0.5579 -0.1175
  898MOL0     C21104   9.074   7.423   6.303  0.6217  0.1866  0.1774
  898MOL0     C21105   8.975   7.422   6.417 -0.6616  0.9689  0.3647
  898MOL0     C21106   8.848   7.362   6.358 -0.1203 -0.2476  0.4121
  898MOL0     C21107   8.760   7.321   6.477 -0.3482  0.3285 -0.3289
  898MOL0     C21108   8.695   7.437   6.544  0.0319  0.5045 -0.9729
  898MOL0     C21109   8.625   7.384   6.672 -1.0424  0.3659  0.5055
  898MOL0     C21110   8.603   7.482   6.776  0.2428  0.8353 -0.5117
  898MOL0     C21111   8.514   7.426   6.899  0.0516 -0.2353  0.9191
  898MOL0     N21112   8.374   7.372   6.863 -0.6266 -0.4259 -0.6686
  898MOL0     C21113   8.284   7.437   6.779 -0.2778 -0.4449 -1.1650
  898MOL0     C21114   8.165   7.373   6.808  0.7553  1.0870 -0.8503
  898MOL0     C21115   8.027   7.414   6.763 -0.0591 -0.3765 -0.2414
  898MOL0     C21116   8.014   7.570   6.776  0.0604  0.2273  0.2030
  898MOL0     C21117   7.891   7.648   6.753  0.2878  0.0836  0.0465
  898MOL0     C21118   7.773   7.561   6.789  0.0798  0.0566  1.0510
  898MOL0     O21119   7.664   7.646   6.826 -0.3501 -0.1426 -0.4705
  898MOL0     C21120   7.544   7.602   6.890  0.4750  0.5279 -0.0056
  898MOL0     C21121   7.451   7.682   6.954 -0.5689  0.5910 -0.1349
  898MOL0     C21122   7.341   7.627   7.016  0.4266 -0.2372 -0.8583
  898MOL0     C21123   7.238   7.726   7.066  0.5038 -0.5127 -0.9135
  898MOL0     C21124   7.312   7.485   7.018 -0.2595  0.2848 -0.5011
  898MOL0     C21125   7.201   7.412   7.088 -0.5991 -0.1992 -0.4573
  898MOL0     O21126   7.113   7.486   7.159 -0.7005  0.5155  0.4431
  898MOL0     C21127   7.021   7.418   7.237 -0.6796 -0.6581  0.5453
  898MOL0     C21128   7.061   7.330   7.335 -0.1525  0.0227  0.5513
  898MOL0     C21129   6.962   7.268   7.409 -0.1785  0.1579  0.0623
  898MOL0     C21130   6.826   7.297   7.397  0.2319 -0.1167 -0.8280
  898MOL0     O21131   6.744   7.224   7.477  0.0150 -0.3047  0.2727
  898MOL0     C21132   6.605   7.235   7.450  0.5498 -0.3122  0.6232
  898MOL0     C21133   6.535   7.108   7.512  0.5987 -0.2286 -0.5638
  898MOL0     C21134   6.390   7.116   7.466 -0.1096  0.6459  0.8511
  898MOL0     C21135   6.308   7.014   7.550 -0.0069  0.3652  0.3473
  898MOL0     C21136   6.167   7.018   7.508 -0.1417  0.6760 -0.0849
  898MOL0     C21137   6.082   6.932   7.603 -0.2985  0.2446  0.3487
  898MOL0     C21138   5.942   6.912   7.556  0.4528 -0.0766 -0.0001
  898MOL0     C21139   5.837   6.947   7.666 -0.5267  0.3906 -0.1111
  898MOL0    Cl21140   5.866   6.859   7.820  0.1958  0.4753  0.0554
  898MOL0     C21141   6.797   7.403   7.323  0.4039 -0.6403 -0.0326
  898MOL0     C21142   6.891   7.459   7.235 -0.2576 -0.4422  0.3414
  898MOL0     O21143   7.182   7.292   7.066 -0.0626 -0.1734 -0.2280
  898MOL0     C21144   7.400   7.407   6.936  0.3707  0.1768  0.2709
  898MOL0     C21145   7.514   7.466   6.880 -0.6971  0.0001  0.4412
  898MOL0     N21146   8.192   7.272   6.898  0.4033 -0.3645 -0.6715
  898MOL0     N21147   8.312   7.269   6.928 -0.3286  0.1912  0.0013
  898MOL0     C21148   9.414   7.526   6.325 -0.3657  0.0835 -0.3779
  898MOL0     C21149   9.536   7.517   6.259  0.3235 -0.0062 -0.6208
  898MOL0     C21150   9.882   7.509   5.976  0.1493  0.7779 -0.2917
  898MOL0     C21151   9.982   7.607   5.959  0.7583 -0.5447 -0.4902
  898MOL0     C21152  10.081   7.597   5.861  0.1764  0.1682 -0.0536
  898MOL0     C21153  10.094   7.470   5.796 -0.2918 -0.6365 -0.3279
  898MOL0     O21154  10.189   7.441   5.700  0.2970 -0.4706  0.3336
  898MOL0     C21155  10.285   7.542   5.666  0.3656 -0.4013  0.0810
  898MOL0     C21156  10.388   7.473   5.586  0.2745  0.1891  1.0103
  898MOL0     C21157  10.468   7.360   5.652  0.6525 -0.0392 -0.1438
  898MOL0     C21158  10.595   7.406   5.727 -0.0511 -0.5567  0.1712
  898MOL0     C21159  10.657   7.292   5.809  0.5466 -0.8504 -0.2646
  898MOL0     C21160  10.704   7.218   5.888  0.7632 -0.0772  0.8154
  898MOL0     C21161  10.004   7.365   5.823  0.2217 -0.5111  0.7922
  898MOL0     C21162   9.896   7.385   5.911  0.1781  0.2759  0.4008
  898MOL0     H21163   9.431   7.379   5.964  1.0031  0.7909 -0.7911
  898MOL0     H21164   9.220   7.397   6.085 -0.6631  2.3159 -0.0438
  898MOL0     H21165   9.022   7.467   6.217 -0.3205  0.4372  0.8617
  898MOL0     H21166   9.098   7.317   6.285 -2.0526 -0.1340 -2.4104
  898MOL0     H21167   9.009   7.346   6.488  0.0728  0.1366 -0.8352
  898MOL0     H21168   8.962   7.520   6.464 -1.4016  0.4945  1.1779
  898MOL0     H21169   8.789   7.431   6.297  2.9094  2.0837 -0.0804
  898MOL0     H21170   8.881   7.268   6.312  1.0952 -1.5641  3.6868
  898MOL0     H21171   8.679   7.259   6.439  0.0233 -0.8336  0.7097
  898MOL0     H21172   8.822   7.269   6.550 -0.5650  0.9487  0.3117
  898MOL0     H21173   8.766   7.514   6.575 -1.2089  1.2711  0.0714
  898MOL0     H21174   8.620   7.483   6.479 -1.7796 -2.7642 -1.3606
  898MOL0     H21175   8.533   7.337   6.635  0.6876 -0.7388 -2.7701
  898MOL0     H21176   8.687   7.312   6.726  0.2362  1.1309  0.0828
  898MOL0     H21177   8.698   7.522   6.811 -1.1515  2.4489  1.6884
  898MOL0     H21178   8.550   7.570   6.738  0.1836  0.3973 -1.4747
  898MOL0     H21179   8.504   7.518   6.957  0.7615  0.1842  0.3917
  898MOL0     H21180   8.561   7.349   6.960  1.9347  0.3911  0.3248
  898MOL0     H21181   8.308   7.527   6.722 -1.3765  0.5154 -0.1623
  898MOL0     H21182   8.011   7.382   6.660 -2.2856 -1.1758  0.2871
  898MOL0     H21183   7.952   7.360   6.821  0.2210 -1.9726 -1.3062
  898MOL0     H21184   8.091   7.613   6.711  0.7388  1.0455  1.4978
  898MOL0     H21185   8.055   7.600   6.873  1.2738 -1.8318  0.3922
  898MOL0     H21186   7.896   7.693   6.653  2.1222  3.0181  1.3337
  898MOL0     H21187   7.902   7.730   6.824  2.4699 -1.5385  1.7363
  898MOL0     H21188   7.798   7.495   6.872 -0.6187 -0.4773  0.8446
  898MOL0     H21189   7.733   7.505   6.704 -2.1785  0.7161  1.6246
  898MOL0     H21190   7.476   7.787   6.959 -0.6451  1.0041 -4.4180
  898MOL0     H21191   7.263   7.760   7.167 -0.3322 -1.9998 -0.1711
  898MOL0     H21192   7.242   7.814   7.000  1.0290 -0.1639 -0.4203
  898MOL0     H21193   7.130   7.706   7.062 -0.2205  2.0559  1.9015
  898MOL0     H21194   7.160   7.286   7.342 -1.1771 -2.1424  2.3758
  898MOL0     H21195   6.986   7.198   7.489 -2.8008 -0.6946  0.1912
  898MOL0     H21196   6.563   7.324   7.497 -4.0681 -1.7844 -0.2145
  898MOL0     H21197   6.575   7.249   7.346 -2.2353  1.9690  1.6013
  898MOL0     H21198   6.580   7.015   7.477 -0.2684  0.5932 -4.3221
  898MOL0     H21199   6.545   7.126   7.620  0.8844  1.5230 -0.8617
  898MOL0     H21200   6.388   7.088   7.360  0.6414 -1.6477  1.3927
  898MOL0     H21201   6.336   7.211   7.471 -0.8969  0.1894  1.3812
  898MOL0     H21202   6.351   6.918   7.522  1.3106  0.8341  0.7086
  898MOL0     H21203   6.331   7.026   7.656 -1.3852  1.5339  0.5507
  898MOL0     H21204   6.165   6.982   7.405  2.2456 -0.3924  0.1722
  898MOL0     H21205   6.127   7.120   7.499  0.3629  0.7098 -2.5554
  898MOL0     H21206   6.125   6.832   7.615 -0.2039  0.1425 -0.7539
  898MOL0     H21207   6.092   6.971   7.705 -1.1375  0.2091  0.4517
  898MOL0     H21208   5.928   6.807   7.531  4.3372 -1.6831  3.4286
  898MOL0     H21209   5.918   6.975   7.470  2.5222 -1.2225 -1.5248
  898MOL0     H21210   5.740   6.920   7.625 -0.6125 -0.4060  0.5851
  898MOL0     H21211   5.840   7.051   7.700  4.5899  0.5250 -0.1423
  898MOL0     H21212   6.694   7.439   7.322  0.7570  0.4839  1.0511
  898MOL0     H21213   6.850   7.530   7.164 -0.9204 -2.2995 -1.2038
  898MOL0     H21214   7.384   7.305   6.903  0.6933  0.8004 -1.9875
  898MOL0     H21215   7.574   7.398   6.820 -1.7657 -0.7294  0.1746
  898MOL0     H21216   9.416   7.549   6.431  0.9931 -0.7861 -0.1892
  898MOL0     H21217   9.631   7.543   6.306  0.5790  1.2332 -1.7540
  898MOL0     H21218   9.999   7.695   6.020  0.0850 -1.9584  1.8796
  898MOL0     H21219  10.156   7.673   5.841 -0.1476  0.8709  1.2575
  898MOL0     H21220  10.240   7.629   5.617  0.8716 -0.1188  0.1012
  898MOL0     H21221  10.338   7.579   5.754  3.5007 -0.0439 -1.7904
  898MOL0     H21222  10.457   7.550   5.553  0.1736  0.5403  1.5961
  898MOL0     H21223  10.355   7.432   5.490 -0.7514  0.1625  1.3519
  898MOL0     H21224  10.497   7.295   5.569 -0.1941  2.5237 -2.5728
  898MOL0     H21225  10.407   7.300   5.721  0.3732  0.0344 -0.3241
  898MOL0     H21226  10.580   7.493   5.792  2.7647  1.3169 -1.4941
  898MOL0     H21227  10.667   7.452   5.660  0.9894  2.6011  3.1475
  898MOL0     H21228  10.744   7.142   5.952  2.5155  0.0234 -0.1081
  898MOL0     H21229  10.025   7.270   5.776  0.9497 -0.1489  0.3577
  898MOL0     H21230   9.818   7.309   5.918 -0.0354  0.6602  3.3780
  899MOL0     O21231   8.587   3.861   4.434 -0.3123 -0.0870 -0.1172
  899MOL0     C21232   8.703   3.865   4.480 -0.2160 -0.3125 -0.0253
  899MOL0     O21233   8.725   3.814   4.605  0.0029 -0.3307 -0.0309
  899MOL0     C21234   8.634   3.732   4.663  0.1704 -0.2561 -0.7126
  899MOL0     C21235   8.597   3.751   4.796  0.0992 -0.7367 -0.1217
  899MOL0     C21236   8.520   3.654   4.869 -0.5052  0.7848 -0.6408
  899MOL0     C21237   8.463   3.542   4.801  0.3772 -0.3580 -0.0750
  899MOL0     O21238   8.376   3.455   4.854 -0.3964  0.5208  0.3200
  899MOL0     C21239   8.387   3.425   4.992  0.5903  0.2795 -0.5978
  899MOL0     C21240   8.457   3.299   5.039  0.6489  0.4292  0.1054
  899MOL0     C21241   8.570   3.245   4.955  0.9128 -0.0740 -0.4439
  899MOL0     C21242   8.696   3.302   5.000  0.1705  1.1225 -0.0773
  899MOL0     C21243   8.804   3.264   4.897 -0.8546  0.0177  0.2163
  899MOL0     C21244   8.800   3.371   4.786 -0.6442  0.0041  0.0476
  899MOL0     C21245   8.928   3.356   4.694 -0.4589 -0.4481 -0.0921
  899MOL0     C21246   8.959   3.494   4.617 -0.2173  1.2203 -1.1384
  899MOL0     N21247   9.036   3.583   4.702 -0.1335 -0.2872 -0.3314
  899MOL0     C21248   9.171   3.556   4.745  0.1814  0.2314  0.1844
  899MOL0     C21249   9.213   3.666   4.809 -0.5311  0.7062 -0.5290
  899MOL0     C21250   9.353   3.688   4.853 -0.3724 -0.1086 -0.1262
  899MOL0     C21251   9.418   3.820   4.800 -0.2963 -0.4357 -0.2358
  899MOL0     C21252   9.430   3.851   4.646 -0.0512 -0.5860  0.3408
  899MOL0     C21253   9.525   3.774   4.559 -0.7738  0.7593 -0.1823
  899MOL0     O21254   9.463   3.652   4.506 -0.7945  0.7202  0.3843
  899MOL0     C21255   9.544   3.547   4.470 -0.0751  0.2272  0.7260
  899MOL0     C21256   9.474   3.430   4.452 -0.0350  0.4856  0.0566
  899MOL0     C21257   9.534   3.314   4.411  0.4938 -0.4600 -0.3289
  899MOL0     C21258   9.447   3.194   4.387  0.0329  0.2523 -0.5109
  899MOL0     C21259   9.669   3.318   4.373 -0.6790 -0.0864  0.3235
  899MOL0     C21260   9.749   3.208   4.312  0.3576  0.8021  0.2505
  899MOL0     O21261   9.879   3.217   4.332  0.1950  0.5881  0.0100
  899MOL0     C21262   9.972   3.150   4.252  0.5227  0.6821  0.6883
  899MOL0     C21263  10.102   3.180   4.275  0.2396 -0.9218  0.9290
  899MOL0     C21264  10.206   3.149   4.186  0.1689 -0.8699  0.3267
  899MOL0     C21265  10.177   3.064   4.077  0.4020  0.1553  0.3462
  899MOL0     O21266  10.265   3.028   3.980 -0.5246  0.2623 -0.0594
  899MOL0     C21267  10.398   3.079   3.997 -0.6363 -1.0210  0.9893
  899MOL0     C21268  10.493   3.014   3.892 -0.2307 -0.3993 -0.6509
  899MOL0     C21269  10.629   3.083   3.893  0.6190  0.1901  0.4939
  899MOL0     C21270  10.633   3.218   3.828  0.6915  0.1835 -0.2056
  899MOL0     C21271  10.766   3.284   3.847 -0.2467  0.1004  0.2198
  899MOL0     C21272  10.768   3.422   3.786 -0.8569  0.1647  0.5357
  899MOL0     C21273  10.900   3.499   3.794 -0.3355 -0.1531 -0.3439
  899MOL0     C21274  11.015   3.460   3.704  1.0827 -0.1182 -0.4154
  899MOL0    Cl21275  11.156   3.559   3.726 -0.4881  0.2895  0.3123
  899MOL0     C21276  10.044   3.014   4.058  0.0293 -0.3694 -0.0694
  899MOL0     C21277   9.943   3.071   4.137  0.7020  0.2933 -0.3670
  899MOL0     O21278   9.689   3.109   4.273  0.1560  0.6206 -0.3849
  899MOL0     C21279   9.740   3.435   4.388  0.0364  0.2312 -0.0105
  899MOL0     C21280   9.676   3.558   4.427 -0.2799  0.7268 -0.0485
  899MOL0     N21281   9.110   3.756   4.804 -0.1038 -0.2994  0.1025
  899MOL0     N21282   9.008   3.705   4.742 -0.1535  0.2268 -0.1950
  899MOL0     C21283   8.499   3.526   4.667 -0.7135 -1.0131 -0.0397
  899MOL0     C21284   8.579   3.626   4.604 -0.4167 -0.3420  0.1224
  899MOL0     C21285   8.813   3.951   4.421  0.4822 -0.0214  0.2270
  899MOL0     C21286   8.799   4.027   4.304  0.4115  0.6688  0.3971
  899MOL0     C21287   8.909   4.101   4.253 -0.2192  0.5982  0.0123
  899MOL0     C21288   9.031   4.115   4.317  0.0754 -0.0212  0.3105
  899MOL0     O21289   9.140   4.189   4.275 -0.1375 -0.1544 -0.2932
  899MOL0     C21290   9.140   4.244   4.148  0.4965  0.1717  1.0677
  899MOL0     C21291   9.288   4.252   4.100  0.0409 -0.0887  0.4320
  899MOL0     C21292   9.365   4.116   4.094  0.3575  0.2007  0.1499
  899MOL0     C21293   9.493   4.126   4.004  0.3720  0.2882  0.4938
  899MOL0     C21294   9.457   4.125   3.859  0.5573  0.1002 -0.0097
  899MOL0     C21295   9.430   4.106   3.742  0.1296 -0.0989 -0.0349
  899MOL0     C21296   9.039   4.051   4.443  0.5237  1.0180 -0.6204
  899MOL0     C21297   8.938   3.960   4.496 -0.2917 -0.5655  0.2256
  899MOL0     H21298   8.635   3.838   4.848  1.0284 -1.2501  0.0789
  899MOL0     H21299   8.507   3.676   4.975  0.3658 -1.7567  0.0863
  899MOL0     H21300   8.427   3.504   5.056 -2.6918 -0.5035  2.7562
  899MOL0     H21301   8.281   3.420   5.019  1.2922 -1.4681  2.2293
  899MOL0     H21302   8.491   3.308   5.143  0.3859 -0.4976  0.2820
  899MOL0     H21303   8.371   3.232   5.037  0.5882  0.5049 -1.7437
  899MOL0     H21304   8.582   3.138   4.973 -1.9290 -0.4823 -0.4168
  899MOL0     H21305   8.545   3.276   4.852  1.6697  1.8995 -0.0844
  899MOL0     H21306   8.694   3.411   5.000  1.1633  1.1790  1.4811
  899MOL0     H21307   8.736   3.255   5.091  3.5644 -2.6593 -3.1080
  899MOL0     H21308   8.901   3.265   4.948  0.6807  1.1350 -2.4836
  899MOL0     H21309   8.798   3.164   4.852  1.1639 -0.5559  1.0684
  899MOL0     H21310   8.708   3.360   4.728 -0.2018 -3.7681 -0.2122
  899MOL0     H21311   8.808   3.469   4.834  0.9742 -0.8236  1.5877
  899MOL0     H21312   9.011   3.318   4.753  1.3182  1.5797 -1.1606
  899MOL0     H21313   8.916   3.272   4.625  0.1367 -1.0062  0.4706
  899MOL0     H21314   8.858   3.527   4.588 -1.6513 -0.8126  1.1227
  899MOL0     H21315   9.009   3.475   4.522 -5.0946 -2.0643 -3.4699
  899MOL0     H21316   9.223   3.464   4.719 -2.7334 -2.5947  3.2192
  899MOL0     H21317   9.351   3.689   4.962  1.5646  0.5292 -0.0660
  899MOL0     H21318   9.429   3.619   4.814  0.0276  0.7526 -0.8860
  899MOL0     H21319   9.520   3.822   4.840 -0.0855  3.4441 -0.6305
  899MOL0     H21320   9.363   3.902   4.846  2.4009  0.8698  0.9258
  899MOL0     H21321   9.471   3.952   4.633 -1.2273 -0.1564 -0.1874
  899MOL0     H21322   9.329   3.846   4.603 -0.4490  0.1190  1.1553
  899MOL0     H21323   9.615   3.759   4.620  0.0259 -0.2133 -1.5338
  899MOL0     H21324   9.561   3.832   4.473  0.7880  0.6139  0.3286
  899MOL0     H21325   9.368   3.441   4.471 -0.6115 -3.1131 -0.3727
  899MOL0     H21326   9.437   3.176   4.279 -0.4982 -2.4757 -0.0926
  899MOL0     H21327   9.486   3.101   4.431 -0.7918 -0.8348 -1.9615
  899MOL0     H21328   9.343   3.206   4.420  1.4783  0.6410  4.8917
  899MOL0     H21329  10.123   3.257   4.349 -1.8555  1.3166 -0.6621
  899MOL0     H21330  10.300   3.199   4.205 -1.1323  1.2443  1.6153
  899MOL0     H21331  10.396   3.188   3.982 -1.3830 -0.9259  1.6394
  899MOL0     H21332  10.431   3.051   4.098 -2.5543  2.0539  2.6424
  899MOL0     H21333  10.511   2.908   3.910  2.2263 -0.5400 -3.2513
  899MOL0     H21334  10.444   3.025   3.795 -2.4041 -3.3828 -0.0034
  899MOL0     H21335  10.693   3.011   3.841 -2.4661 -2.3759 -0.0403
  899MOL0     H21336  10.659   3.086   3.998  1.4295 -1.0359  0.3218
  899MOL0     H21337  10.609   3.223   3.721  0.4245  2.3119 -0.0812
  899MOL0     H21338  10.551   3.272   3.875 -2.8449 -4.2069 -0.6412
  899MOL0     H21339  10.837   3.220   3.793  0.3499  0.1297  0.9557
  899MOL0     H21340  10.798   3.293   3.951 -1.9228  1.5072  0.6482
  899MOL0     H21341  10.735   3.410   3.683 -3.9347  3.1723  0.9987
  899MOL0     H21342  10.691   3.483   3.834 -0.5880  1.8943 -1.1465
  899MOL0     H21343  10.922   3.488   3.900  0.4478 -0.5764 -0.5417
  899MOL0     H21344  10.880   3.604   3.767 -0.0506  0.2105  0.8013
  899MOL0     H21345  10.974   3.473   3.603  0.2612 -0.2017 -0.1056
  899MOL0     H21346  11.038   3.354   3.709 -1.4497 -0.6883  2.0886
  899MOL0     H21347  10.022   2.944   3.978  1.6631 -1.8333  0.6951
  899MOL0     H21348   9.842   3.045   4.106 -0.7753  1.2300  3.1645
  899MOL0     H21349   9.844   3.445   4.356  0.4064  1.8206  1.5329
  899MOL0     H21350   9.731   3.651   4.417  1.0856 -0.2529 -2.7963
  899MOL0     H21351   8.474   3.433   4.616  2.1285 -2.2096  0.5994
  899MOL0     H21352   8.609   3.614   4.500  2.5343 -1.9636  1.0536
  899MOL0     H21353   8.706   4.034   4.248 -0.4587  2.4875  1.9565
  899MOL0     H21354   8.887   4.143   4.156  1.4695  1.2918 -0.1037
  899MOL0     H21355   9.095   4.180   4.072 -0.4832  1.0518  0.8842
  899MOL0     H21356   9.094   4.343   4.149 -1.5532 -0.6852 -0.2374
  899MOL0     H21357   9.347   4.325   4.156  0.0564 -1.6059  2.5217
  899MOL0     H21358   9.291   4.287   3.996  0.8501 -0.2458  0.3957
  899MOL0     H21359   9.293   4.046   4.051 -1.9525  2.5453 -0.1048
  899MOL0     H21360   9.382   4.077   4.194 -3.0746  0.7090  1.0544
  899MOL0     H21361   9.558   4.039   4.017  1.0837  0.1761 -2.8408
  899MOL0     H21362   9.560   4.209   4.029  2.7266 -1.6799  1.1625
  899MOL0     H21363   9.405   4.109   3.638 -0.9379  2.4421  0.2221
  899MOL0     H21364   9.126   4.063   4.507  1.9311 -0.5454 -2.1303
  899MOL0     H21365   8.947   3.907   4.591 -2.9547  0.9391  1.4520
  900MOL0     O21366   5.389  10.739   9.442 -0.6400  0.4464  0.4789
  900MOL0     C21367   5.410  10.830   9.364 -0.3681 -0.0957  0.1986
  900MOL0     O21368   5.316  10.906   9.301  0.6992 -0.4132  0.0548
  900MOL0     C21369   5.185  10.893   9.356  0.3140  0.2621  0.7837
  900MOL0     C21370   5.163  10.932   9.484  0.1225 -0.3009 -0.3878
  900MOL0     C21371   5.038  10.907   9.540  0.5542  0.0316 -0.2816
  900MOL0     C21372   4.933  10.852   9.471  1.8039  0.5609  1.4571
  900MOL0     O21373   4.807  10.854   9.526  0.3963  0.4219 -0.1399
  900MOL0     C21374   4.684  10.832   9.454  0.5999  0.2739  0.5395
  900MOL0     C21375   4.648  10.679   9.452 -0.5607  0.1603 -0.5581
  900MOL0     C21376   4.641  10.624   9.600  0.2199 -0.0250 -0.2693
  900MOL0     C21377   4.590  10.480   9.598 -0.2571 -0.2702 -0.3848
  900MOL0     C21378   4.684  10.367   9.563  0.3399  0.7513  0.3753
  900MOL0     C21379   4.813  10.339   9.645 -0.1721  0.2444  0.0685
  900MOL0     C21380   4.949  10.397   9.584  0.2994 -0.4807 -0.1274
  900MOL0     C21381   5.069  10.355   9.672  0.8286  1.3427  0.0578
  900MOL0     N21382   5.084  10.204   9.672 -1.1769  0.2261 -0.5479
  900MOL0     C21383   5.184  10.145   9.599  0.3023 -0.2189 -0.0183
  900MOL0     C21384   5.193  10.021   9.652 -1.1022  0.1415  0.1221
  900MOL0     C21385   5.286   9.910   9.610 -0.0056 -0.0083  0.6845
  900MOL0     C21386   5.427   9.913   9.670  0.3323 -0.3251  0.0778
  900MOL0     C21387   5.429   9.917   9.828 -0.0780 -0.3526  0.9377
  900MOL0     C21388   5.576   9.907   9.882  0.3197  0.1086 -0.5034
  900MOL0     O21389   5.659  10.003   9.811  0.0528  0.6580  0.0584
  900MOL0     C21390   5.793   9.990   9.836  0.1605  0.0373  0.5944
  900MOL0     C21391   5.858  10.099   9.788 -0.2294 -0.0015  0.4063
  900MOL0     C21392   5.999  10.111   9.778  0.3595  0.3892 -0.4609
  900MOL0     C21393   6.049  10.220   9.689  0.4486 -0.5887 -0.9490
  900MOL0     C21394   6.077  10.003   9.834  0.0932 -0.0572  0.5903
  900MOL0     C21395   6.221  10.003   9.819 -1.0897 -0.6455  0.7038
  900MOL0     O21396   6.288  10.122   9.807 -0.6790  0.1794 -0.1747
  900MOL0     C21397   6.420  10.127   9.787 -0.2957  0.5837  0.0014
  900MOL0     C21398   6.518  10.064   9.850  0.7537  0.3007  0.6098
  900MOL0     C21399   6.655  10.084   9.808  0.4439 -0.6889  0.4088
  900MOL0     C21400   6.687  10.161   9.698  0.6837  0.8767 -0.2734
  900MOL0     O21401   6.813  10.170   9.640 -0.1343  0.3680 -0.3919
  900MOL0     C21402   6.918  10.092   9.697 -0.2299  0.0348  0.1964
  900MOL0     C21403   7.022  10.081   9.589 -0.3449  0.1151 -0.6021
  900MOL0     C21404   7.141   9.981   9.623  0.9879 -0.3635 -0.2773
  900MOL0     C21405   7.247   9.954   9.513 -0.1643  0.1134  0.1251
  900MOL0     C21406   7.358   9.876   9.585  0.4298 -0.5301  0.8400
  900MOL0     C21407   7.457   9.829   9.486  0.7650  0.3735  0.2662
  900MOL0     C21408   7.574   9.759   9.556  0.2458 -0.5412  0.4183
  900MOL0     C21409   7.669   9.696   9.464  0.2820  0.6409 -0.4875
  900MOL0    Cl21410   7.832   9.741   9.530  0.2138 -0.1860  0.1254
  900MOL0     C21411   6.574  10.221   9.635  0.5678 -0.2105 -0.5960
  900MOL0     C21412   6.447  10.207   9.677  0.6523  0.1299  0.6629
  900MOL0     O21413   6.272   9.893   9.829 -0.0287  0.0975  0.3039
  900MOL0     C21414   6.007   9.895   9.896  0.0367 -0.3654  0.2306
  900MOL0     C21415   5.867   9.888   9.892 -0.7512  0.2674 -0.4049
  900MOL0     N21416   5.103  10.011   9.756  0.4635  0.8082 -0.1309
  900MOL0     N21417   5.034  10.123   9.770  0.0016  0.3641 -0.0261
  900MOL0     C21418   4.956  10.812   9.334 -0.1429 -0.5437  0.3871
  900MOL0     C21419   5.089  10.820   9.280 -0.0631 -0.0096 -0.3847
  900MOL0     C21420   5.544  10.858   9.306  0.6597  1.3501 -0.1378
  900MOL0     C21421   5.558  10.944   9.194 -0.3802  0.8113  0.5326
  900MOL0     C21422   5.685  10.968   9.145 -0.0857  0.5845 -0.5367
  900MOL0     C21423   5.797  10.925   9.208  0.3756  1.0893 -1.3659
  900MOL0     O21424   5.923  10.969   9.180 -0.2207 -0.1313  0.1349
  900MOL0     C21425   5.934  11.031   9.042  0.2794 -0.2934  0.2771
  900MOL0     C21426   5.921  10.930   8.930  0.2341  0.7318  0.7843
  900MOL0     C21427   6.001  10.800   8.950 -0.0259  0.1862  0.1862
  900MOL0     C21428   6.025  10.718   8.819  0.0851  0.1450 -0.0590
  900MOL0     C21429   6.116  10.605   8.855 -0.3460 -0.9035  0.4675
  900MOL0     C21430   6.177  10.511   8.894  0.3389  0.8270 -0.8307
  900MOL0     C21431   5.779  10.840   9.323  0.2777 -0.4266  0.0416
  900MOL0     C21432   5.658  10.793   9.370 -0.3324 -0.1460 -0.0152
  900MOL0     H21433   5.233  10.975   9.555  0.0694  1.3102 -1.2700
  900MOL0     H21434   5.016  10.937   9.642 -0.2736 -1.4830  0.0241
  900MOL0     H21435   4.597  10.886   9.492 -0.4969  0.5781 -2.1381
  900MOL0     H21436   4.695  10.866   9.350 -0.5325 -0.4190  0.1699
  900MOL0     H21437   4.557  10.669   9.392  0.6084  0.2967 -2.4371
  900MOL0     H21438   4.727  10.625   9.400 -0.0092 -0.5773  0.9714
  900MOL0     H21439   4.737  10.624   9.653 -0.2590  0.8657  0.6279
  900MOL0     H21440   4.578  10.692   9.659 -0.4573 -0.1997 -0.7852
  900MOL0     H21441   4.550  10.467   9.699 -4.2674  0.9636 -1.6313
  900MOL0     H21442   4.505  10.468   9.531  1.0993 -1.9607 -1.9134
  900MOL0     H21443   4.625  10.276   9.547  0.3396  0.9263 -0.6301
  900MOL0     H21444   4.716  10.387   9.461  0.9298 -0.4386  0.3084
  900MOL0     H21445   4.807  10.380   9.746  2.0782  0.7205  0.0662
  900MOL0     H21446   4.811  10.231   9.662  0.2081  0.3725  0.9732
  900MOL0     H21447   4.958  10.355   9.484 -2.1793  0.9024 -1.0079
  900MOL0     H21448   4.940  10.505   9.574 -1.9807 -0.6654 -0.5185
  900MOL0     H21449   5.044  10.380   9.776 -1.0724 -1.2352  0.3150
  900MOL0     H21450   5.163  10.401   9.642  1.5617  0.1616  0.4637
  900MOL0     H21451   5.234  10.189   9.513 -0.4023 -2.2871 -1.5533
  900MOL0     H21452   5.240   9.812   9.623  0.5326 -0.9806 -3.4736
  900MOL0     H21453   5.311   9.921   9.505  0.7000 -0.1884  0.8325
  900MOL0     H21454   5.473  10.007   9.635  0.2835 -0.0409  0.7697
  900MOL0     H21455   5.481   9.826   9.633 -0.2505 -0.5732 -0.2048
  900MOL0     H21456   5.362   9.842   9.870 -1.2523  0.0948 -0.0460
  900MOL0     H21457   5.390  10.012   9.865  1.3529  0.4492  0.4978
  900MOL0     H21458   5.613   9.806   9.863  0.0532  0.1722 -1.3724
  900MOL0     H21459   5.571   9.929   9.989 -1.8455 -1.6310 -0.1730
  900MOL0     H21460   5.806  10.184   9.745  1.0602 -0.0617 -1.4039
  900MOL0     H21461   6.133  10.185   9.628  1.4333 -0.6081  0.3646
  900MOL0     H21462   5.975  10.267   9.625 -0.6279 -1.0569 -0.0727
  900MOL0     H21463   6.086  10.296   9.758  2.9580 -2.5359  0.0415
  900MOL0     H21464   6.491   9.999   9.932  0.0872  0.0015  0.1664
  900MOL0     H21465   6.733  10.049   9.875  1.3720  1.5960  0.6281
  900MOL0     H21466   6.962  10.146   9.781 -0.3868 -1.8605  1.5440
  900MOL0     H21467   6.882   9.997   9.737  1.6336 -0.3227  1.0930
  900MOL0     H21468   6.974  10.057   9.493 -1.4315  2.7241 -0.8012
  900MOL0     H21469   7.063  10.179   9.564 -1.3868  0.3773 -1.3674
  900MOL0     H21470   7.103   9.888   9.667  0.7006  0.7814  2.0671
  900MOL0     H21471   7.188  10.031   9.708  1.2244 -0.5861 -0.2739
  900MOL0     H21472   7.206   9.879   9.445 -0.6927 -1.6746  2.2705
  900MOL0     H21473   7.292  10.045   9.472 -3.3541  2.5947  1.6909
  900MOL0     H21474   7.310   9.783   9.618 -1.1331 -1.5000 -3.4737
  900MOL0     H21475   7.410   9.931   9.664  1.5133 -0.7726  0.3279
  900MOL0     H21476   7.405   9.774   9.407  2.6876 -1.4162  0.1664
  900MOL0     H21477   7.491   9.919   9.433 -2.1706  1.5876  0.2544
  900MOL0     H21478   7.532   9.681   9.619 -2.5927  0.3004 -0.2791
  900MOL0     H21479   7.617   9.838   9.619  0.9672 -0.4607 -0.1584
  900MOL0     H21480   7.653   9.727   9.360  3.2878  3.3359 -0.3073
  900MOL0     H21481   7.653   9.588   9.465 -0.0884  0.5946  3.1438
  900MOL0     H21482   6.586  10.280   9.545 -0.5052  0.0937 -0.5535
  900MOL0     H21483   6.362  10.251   9.625  1.3631 -0.1704 -0.8029
  900MOL0     H21484   6.060   9.811   9.939  1.4257  1.0682  1.4343
  900MOL0     H21485   5.823   9.811   9.954 -0.4706 -0.7240 -1.4213
  900MOL0     H21486   4.869  10.784   9.274 -0.4160 -0.0905  0.5649
  900MOL0     H21487   5.122  10.792   9.181  2.7828  1.7983 -0.0473
  900MOL0     H21488   5.476  10.995   9.145 -1.6150 -0.3809  1.2818
  900MOL0     H21489   5.684  11.028   9.054 -2.3150  0.2626 -0.7818
  900MOL0     H21490   5.859  11.108   9.022  1.1921  0.4087 -0.5265
  900MOL0     H21491   6.035  11.074   9.045  1.2077 -2.2853 -0.3480
  900MOL0     H21492   5.950  10.974   8.834 -0.7630 -2.9184 -1.3976
  900MOL0     H21493   5.815  10.913   8.910  0.0460  1.5363  1.0445
  900MOL0     H21494   5.961  10.738   9.030 -0.3332 -1.5464 -1.2485
  900MOL0     H21495   6.100  10.827   8.989  0.0748 -0.6259  0.5098
  900MOL0     H21496   6.064  10.765   8.728  2.2243 -0.7460  0.3235
  900MOL0     H21497   5.931  10.679   8.780  1.0217 -2.5722  0.2335
  900MOL0     H21498   6.221  10.417   8.920  1.2683  1.0692 -1.4655
  900MOL0     H21499   5.866  10.801   9.375 -1.2451 -2.4276  1.2205
  900MOL0     H21500   5.658  10.724   9.454 -2.9189 -0.3842 -0.1300
  901MOL0     O21501   6.230  10.135   1.448 -0.2929  0.1699  0.0561
  901MOL0     C21502   6.222  10.159   1.563  0.3560 -0.3803 -0.5114
  901MOL0     O21503   6.107  10.207   1.625 -0.6491 -0.9535  0.6020
  901MOL0     C21504   5.991  10.203   1.544  0.3574  0.2705  0.5162
  901MOL0     C21505   5.934  10.086   1.505  0.2596  0.2391  0.4828
  901MOL0     C21506   5.812  10.088   1.429  0.1643 -0.4161  0.6265
  901MOL0     C21507   5.749  10.214   1.391 -0.1734  0.0879  0.0465
  901MOL0     O21508   5.633  10.210   1.326  0.1974 -0.7541  0.9019
  901MOL0     C21509   5.521  10.241   1.408  0.5457  0.7580 -0.7342
  901MOL0     C21510   5.446  10.112   1.450 -0.5288  0.0219  0.7806
  901MOL0     C21511   5.389  10.034   1.327 -0.7014 -0.4560 -0.4797
  901MOL0     C21512   5.272   9.943   1.377  0.0507 -0.4101  0.7806
  901MOL0     C21513   5.154   9.913   1.284 -0.0051  0.3623 -0.3981
  901MOL0     C21514   5.041  10.018   1.293  0.2196 -0.2512 -0.2368
  901MOL0     C21515   4.905   9.972   1.240 -0.0049  0.7153  0.4825
  901MOL0     C21516   4.807  10.087   1.236 -0.2546  0.1172 -0.6503
  901MOL0     N21517   4.673  10.054   1.173  0.3267  0.6474  0.6341
  901MOL0     C21518   4.580   9.965   1.224  0.1713  0.5047 -0.4977
  901MOL0     C21519   4.490   9.944   1.120 -0.8609 -0.1120 -0.3846
  901MOL0     C21520   4.373   9.847   1.113  0.1714  0.1009 -0.5983
  901MOL0     C21521   4.272   9.855   1.231 -1.6224 -0.3577 -0.2988
  901MOL0     C21522   4.184   9.722   1.223  0.6223 -1.2449  1.0212
  901MOL0     C21523   4.085   9.745   1.119  0.4685  0.7165  0.9018
  901MOL0     O21524   3.989   9.646   1.108 -0.6083  0.2133 -0.2848
  901MOL0     C21525   3.876   9.680   1.179  0.7450  0.1833  0.0695
  901MOL0     C21526   3.860   9.758   1.297  0.0403 -0.3742 -0.4479
  901MOL0     C21527   3.736   9.775   1.366 -0.0165  0.4017 -0.0119
  901MOL0     C21528   3.740   9.859   1.484  0.1435  0.1906 -0.7170
  901MOL0     C21529   3.617   9.727   1.313  1.0521 -1.2349 -0.6659
  901MOL0     C21530   3.484   9.744   1.376 -0.2593 -0.8990 -0.0861
  901MOL0     O21531   3.375   9.734   1.293  0.2447 -0.1643 -0.0385
  901MOL0     C21532   3.251   9.785   1.329 -0.1048  0.3540 -0.1972
  901MOL0     C21533   3.158   9.731   1.423 -0.0103  0.1278  0.1960
  901MOL0     C21534   3.027   9.767   1.428 -0.3105 -0.2617  0.0966
  901MOL0     C21535   2.979   9.871   1.348  0.3465 -0.0026 -0.0646
  901MOL0     O21536   2.855   9.934   1.374  0.7576  0.2315 -1.0021
  901MOL0     C21537   2.747   9.852   1.422 -0.5033 -0.3880  0.6063
  901MOL0     C21538   2.630   9.946   1.420  0.0656 -0.7178 -0.1707
  901MOL0     C21539   2.499   9.896   1.489 -0.2688  0.5048 -0.4877
  901MOL0     C21540   2.383   9.971   1.432  0.3813  0.1804 -0.3663
  901MOL0     C21541   2.256   9.923   1.508 -0.6638  0.0627 -0.4499
  901MOL0     C21542   2.223   9.777   1.487 -0.5491  0.9739 -0.7871
  901MOL0     C21543   2.083   9.748   1.519 -0.0282  0.3635 -0.0693
  901MOL0     C21544   2.047   9.596   1.497 -0.2685 -0.7724 -0.1651
  901MOL0    Cl21545   2.143   9.489   1.602 -0.0171  0.6654 -0.1517
  901MOL0     C21546   3.059   9.925   1.252 -0.2730  0.1699  0.3683
  901MOL0     C21547   3.195   9.883   1.247 -0.1892  0.1593  0.4351
  901MOL0     O21548   3.476   9.785   1.491  0.2287  0.3548  0.0222
  901MOL0     C21549   3.628   9.660   1.183  1.0843 -0.3254  0.4958
  901MOL0     C21550   3.751   9.639   1.126  0.2804  0.7380  0.4022
  901MOL0     N21551   4.531  10.026   1.017  0.0165  0.4393  0.0541
  901MOL0     N21552   4.636  10.096   1.046 -0.4397 -0.1767 -0.5729
  901MOL0     C21553   5.806  10.332   1.445 -0.3266  0.5589 -0.1371
  901MOL0     C21554   5.925  10.326   1.515  0.0122  1.0777 -0.5893
  901MOL0     C21555   6.348  10.131   1.642  0.2053  0.6275  0.6544
  901MOL0     C21556   6.345  10.142   1.782  0.1442  0.0961  0.0797
  901MOL0     C21557   6.459  10.106   1.858 -0.0827  0.1597  1.0576
  901MOL0     C21558   6.576  10.060   1.801  0.2149 -0.0777  0.0860
  901MOL0     O21559   6.694  10.034   1.865  0.2198 -0.0552  0.1916
  901MOL0     C21560   6.731  10.112   1.979 -1.5780  0.2444  0.1773
  901MOL0     C21561   6.883  10.120   1.973  0.1200 -0.2805  0.0967
  901MOL0     C21562   6.947  10.185   2.097 -0.8270  0.8036 -0.0360
  901MOL0     C21563   7.101  10.196   2.088 -0.3205  0.4224 -0.2792
  901MOL0     C21564   7.159  10.295   2.173  0.9216 -0.7755  0.4902
  901MOL0     C21565   7.216  10.383   2.233 -0.0586  0.3276 -0.0954
  901MOL0     C21566   6.578  10.042   1.664 -0.2741  0.1677  0.4224
  901MOL0     C21567   6.463  10.077   1.584 -0.9564 -0.1836 -0.1972
  901MOL0     H21568   5.984   9.992   1.529  0.3492  0.4021  0.9482
  901MOL0     H21569   5.757   9.998   1.403  1.1001 -0.5289 -1.1584
  901MOL0     H21570   5.554  10.296   1.496  3.0344  0.2837 -1.2862
  901MOL0     H21571   5.453  10.305   1.350  1.4393  2.1775 -0.2729
  901MOL0     H21572   5.527  10.048   1.487  1.0321  0.9465 -0.8833
  901MOL0     H21573   5.372  10.131   1.529  0.5661 -1.0865  2.1227
  901MOL0     H21574   5.345  10.098   1.250 -0.0831  0.7549  0.1438
  901MOL0     H21575   5.473   9.984   1.277  0.3311  0.9798 -0.2631
  901MOL0     H21576   5.325   9.855   1.414  1.6867  0.7631  1.3620
  901MOL0     H21577   5.235   9.989   1.470  0.2728  1.6506 -0.1000
  901MOL0     H21578   5.190   9.899   1.182 -3.6676 -1.6241 -1.5797
  901MOL0     H21579   5.103   9.821   1.315  0.9266 -0.3262 -0.8540
  901MOL0     H21580   5.028  10.053   1.396  1.8124  0.0676 -0.1209
  901MOL0     H21581   5.078  10.102   1.233  3.0293 -2.3643 -1.7139
  901MOL0     H21582   4.898   9.918   1.145 -2.8568 -1.6105  1.8666
  901MOL0     H21583   4.855   9.910   1.315 -3.1576  1.7707 -0.5993
  901MOL0     H21584   4.853  10.176   1.191  0.0742  0.8865  1.1435
  901MOL0     H21585   4.800  10.110   1.342  3.6861  1.8099 -0.5623
  901MOL0     H21586   4.566   9.913   1.318 -1.7069 -0.4711 -1.2832
  901MOL0     H21587   4.317   9.867   1.022 -3.1163 -0.1734  1.2200
  901MOL0     H21588   4.423   9.749   1.108  0.5540  0.2410  0.2502
  901MOL0     H21589   4.218   9.950   1.228  1.8406  1.7892 -2.3370
  901MOL0     H21590   4.317   9.865   1.330  0.7373  2.1801 -1.4857
  901MOL0     H21591   4.142   9.712   1.324  1.9369 -1.1751  1.5984
  901MOL0     H21592   4.250   9.636   1.217  2.3566  0.1039 -0.4409
  901MOL0     H21593   4.131   9.758   1.021 -1.3551  4.0912  0.3532
  901MOL0     H21594   4.034   9.837   1.149  1.2871  0.8887  1.8347
  901MOL0     H21595   3.953   9.802   1.332  0.0199 -0.1674 -0.6494
  901MOL0     H21596   3.732   9.806   1.579  0.1191 -0.2542 -0.9644
  901MOL0     H21597   3.841   9.900   1.491  0.4352  0.0565 -3.2733
  901MOL0     H21598   3.664   9.938   1.484  0.5783  0.8439  3.3009
  901MOL0     H21599   3.200   9.654   1.487  1.1176 -1.6585 -2.4755
  901MOL0     H21600   2.982   9.711   1.510 -0.7475  1.0928  0.8177
  901MOL0     H21601   2.743   9.761   1.362  2.7292 -1.5318  1.8886
  901MOL0     H21602   2.753   9.816   1.525  0.0013 -0.6187  0.4955
  901MOL0     H21603   2.666  10.028   1.483  0.5753 -2.3338  1.7487
  901MOL0     H21604   2.617   9.998   1.325  2.6371 -0.0046 -0.1926
  901MOL0     H21605   2.495   9.913   1.597 -0.5570  3.4714 -0.8861
  901MOL0     H21606   2.484   9.790   1.467 -1.1967 -0.2978  3.3187
  901MOL0     H21607   2.396  10.080   1.435 -0.5631  0.2710  1.3398
  901MOL0     H21608   2.372   9.939   1.328 -0.1258 -0.2526 -0.1819
  901MOL0     H21609   2.171   9.988   1.484 -1.0914  0.5683  2.1282
  901MOL0     H21610   2.265   9.937   1.617 -0.6779  0.8606 -0.5439
  901MOL0     H21611   2.233   9.758   1.380  2.3547  0.9339 -0.5827
  901MOL0     H21612   2.293   9.708   1.535  0.9510  0.5965 -3.3136
  901MOL0     H21613   2.012   9.803   1.457 -2.2858  0.0732  2.0560
  901MOL0     H21614   2.075   9.783   1.623  2.7710 -1.3834  0.8318
  901MOL0     H21615   2.064   9.574   1.392  0.0580  2.0259 -0.7876
  901MOL0     H21616   1.940   9.585   1.517 -0.2765  1.7970  1.8170
  901MOL0     H21617   3.014   9.997   1.185  2.2084  0.7821 -0.7448
  901MOL0     H21618   3.260   9.930   1.174  0.2329  1.7064  1.7442
  901MOL0     H21619   3.536   9.640   1.130  1.1638 -1.1294  0.6410
  901MOL0     H21620   3.757   9.575   1.038 -0.1178 -2.5082  2.5745
  901MOL0     H21621   5.763  10.432   1.446  1.5601  1.4216  1.0216
  901MOL0     H21622   5.962  10.420   1.556  2.7644  1.2837 -3.2132
  901MOL0     H21623   6.253  10.173   1.831  1.1583  1.1000  1.4362
  901MOL0     H21624   6.462  10.115   1.966  0.9223  2.1851  0.9050
  901MOL0     H21625   6.698  10.216   1.983  3.2622  2.0417 -0.3316
  901MOL0     H21626   6.701  10.062   2.072  1.2387 -2.6233 -0.2902
  901MOL0     H21627   6.899  10.176   1.880  1.3805 -1.7186 -0.5821
  901MOL0     H21628   6.932  10.024   1.954  0.6898  0.1977 -0.9725
  901MOL0     H21629   6.928  10.110   2.174 -0.4700  3.7267  3.1253
  901MOL0     H21630   6.904  10.280   2.128  0.1379  1.6212 -1.1275
  901MOL0     H21631   7.121  10.221   1.984  2.3405 -0.3636 -0.0325
  901MOL0     H21632   7.149  10.099   2.107  1.0915  1.1149 -0.1979
  901MOL0     H21633   7.266  10.457   2.291 -0.0583  0.1557  0.1268
  901MOL0     H21634   6.665  10.000   1.613  1.4654  2.2870  1.4701
  901MOL0     H21635   6.474  10.071   1.476  1.4249  1.3632 -0.1174
  902MOL0     O21636   2.492   7.526   9.493  0.1251 -0.2907  0.2816
  902MOL0     C21637   2.540   7.447   9.573  1.2447  0.6490  0.5278
  902MOL0     O21638   2.491   7.422   9.687  0.8124 -1.0630 -0.2192
  902MOL0     C21639   2.384   7.491   9.727  0.7022  0.2873  0.3907
  902MOL0     C21640   2.387   7.552   9.853  0.6314 -0.1257 -0.1181
  902MOL0     C21641   2.281   7.620   9.903  0.5823 -0.2390  0.4251
  902MOL0     C21642   2.160   7.634   9.830 -0.1856  0.4978 -0.7501
  902MOL0     O21643   2.077   7.724   9.895 -0.4613  0.3449 -0.1206
  902MOL0     C21644   1.941   7.744   9.867  0.7049 -0.3834 -0.4485
  902MOL0     C21645   1.869   7.777  10.002  0.2775 -0.5148  0.4052
  902MOL0     C21646   1.724   7.813   9.973  0.5218 -0.4511  0.1203
  902MOL0     C21647   1.657   7.900  10.075 -0.5332  0.2221  0.2100
  902MOL0     C21648   1.508   7.921  10.034  0.8544 -0.7335 -0.1542
  902MOL0     C21649   1.444   7.999  10.146  0.4559 -0.1011 -0.6453
  902MOL0     C21650   1.289   7.987  10.151  0.2481  0.3876 -0.0799
  902MOL0     C21651   1.223   8.087  10.065  0.1267  0.1396  0.3617
  902MOL0     N21652   1.084   8.049  10.048 -0.3596 -0.3118  0.4407
  902MOL0     C21653   0.970   8.086  10.123 -0.7436 -0.4576 -0.5231
  902MOL0     C21654   0.873   8.010  10.079  0.0113  0.4144 -0.5294
  902MOL0     C21655   0.731   7.989  10.134 -0.1522 -0.0181  0.8372
  902MOL0     C21656   0.632   8.087  10.079 -0.1945  0.6913 -0.4620
  902MOL0     C21657   0.544   8.011   9.970 -0.3725  0.1779 -0.1535
  902MOL0     C21658   0.452   7.907  10.027 -0.2207  0.9785 -0.0947
  902MOL0     O21659   0.386   7.960  10.142  0.1130  0.8629  0.2955
  902MOL0     C21660   0.273   8.029  10.122  0.4307  0.2596  0.2762
  902MOL0     C21661   0.141   7.972  10.121 -0.7485  0.3771  0.0266
  902MOL0     C21662   0.020   8.045  10.107  0.0638  0.6671 -0.0453
  902MOL0     C21663  -0.109   7.973  10.097  0.1321 -0.5152  0.2428
  902MOL0     C21664   0.030   8.189  10.094  0.1119  0.6618 -0.3010
  902MOL0     C21665  -0.088   8.287  10.069 -0.3710 -0.1481  0.1965
  902MOL0     O21666  -0.209   8.225  10.036  0.3749  0.2312 -0.2603
  902MOL0     C21667  -0.317   8.302  10.005  0.6792 -0.5996  0.6029
  902MOL0     C21668  -0.371   8.393  10.097  0.2427 -0.7025 -0.0876
  902MOL0     C21669  -0.489   8.464  10.064  0.2284  0.9097 -0.0379
  902MOL0     C21670  -0.568   8.441   9.947  0.1527 -0.1917 -0.4714
  902MOL0     O21671  -0.691   8.499   9.933  0.4142  0.0657  0.0900
  902MOL0     C21672  -0.743   8.486   9.801  0.2549 -0.0947  0.4153
  902MOL0     C21673  -0.887   8.553   9.801 -0.7104  0.0222 -0.8733
  902MOL0     C21674  -0.977   8.451   9.865 -0.0746 -0.0346 -0.4464
  902MOL0     C21675  -1.125   8.501   9.873 -0.2908  0.4664 -0.6613
  902MOL0     C21676  -1.222   8.402   9.948  0.3158 -0.8424 -0.0061
  902MOL0     C21677  -1.375   8.423   9.907 -0.4165  0.9082 -0.4465
  902MOL0     C21678  -1.457   8.337  10.006  0.7706  0.5843  0.1090
  902MOL0     C21679  -1.603   8.319   9.966  0.1073 -0.0506  0.5802
  902MOL0    Cl21680  -1.657   8.476   9.907 -0.2312  0.0572 -0.2567
  902MOL0     C21681  -0.513   8.342   9.858  0.8414  0.0524  0.0730
  902MOL0     C21682  -0.388   8.280   9.889  0.5802  0.2700 -0.4867
  902MOL0     O21683  -0.053   8.402  10.053 -0.5448 -0.2890 -0.0599
  902MOL0     C21684   0.160   8.248  10.111 -0.4159 -0.3628  0.1702
  902MOL0     C21685   0.275   8.170  10.118 -0.7569 -0.7034 -0.8017
  902MOL0     N21686   0.919   7.954   9.959  0.3969  0.1036  0.3660
  902MOL0     N21687   1.043   7.969   9.942  0.0052 -0.7910 -1.2777
  902MOL0     C21688   2.146   7.566   9.708  0.1536 -0.5888 -0.2756
  902MOL0     C21689   2.255   7.494   9.660 -0.8818 -0.0733 -0.2748
  902MOL0     C21690   2.670   7.395   9.536  0.0458 -0.3989  0.4462
  902MOL0     C21691   2.737   7.451   9.426  0.6840 -0.7448 -0.2320
  902MOL0     C21692   2.852   7.391   9.387 -0.0436  0.5163  0.0519
  902MOL0     C21693   2.923   7.290   9.461  0.8665 -0.4263  0.6946
  902MOL0     O21694   3.046   7.234   9.432 -0.3160  0.4065 -0.2646
  902MOL0     C21695   3.095   7.235   9.300 -0.0063  0.5628 -0.2440
  902MOL0     C21696   3.202   7.345   9.280 -0.6363  0.6669 -0.1518
  902MOL0     C21697   3.346   7.295   9.292  0.3604 -0.0235 -0.0146
  902MOL0     C21698   3.450   7.401   9.258  0.6394 -0.6933  0.1565
  902MOL0     C21699   3.438   7.457   9.121  0.0533 -0.4630 -0.0209
  902MOL0     C21700   3.424   7.506   9.009 -0.0619 -0.5690  0.1408
  902MOL0     C21701   2.858   7.244   9.578  0.1659 -0.3523  0.1767
  902MOL0     C21702   2.732   7.299   9.612 -0.2970  0.7324  0.0217
  902MOL0     H21703   2.475   7.561   9.916 -0.0038 -0.0268  0.7668
  902MOL0     H21704   2.288   7.665  10.002 -0.1457  3.3266 -1.0220
  902MOL0     H21705   1.922   7.825   9.796 -0.8919  0.8057  1.2379
  902MOL0     H21706   1.889   7.661   9.818  0.2413 -0.2261 -0.2295
  902MOL0     H21707   1.881   7.697  10.075 -1.9416 -1.9239 -0.6726
  902MOL0     H21708   1.917   7.867  10.042 -0.2315  0.6869 -1.5070
  902MOL0     H21709   1.722   7.856   9.872 -2.3792 -0.3317  0.1236
  902MOL0     H21710   1.671   7.717   9.967  1.7159 -1.3223  2.2976
  902MOL0     H21711   1.665   7.827  10.156  2.9141 -0.1870 -0.3598
  902MOL0     H21712   1.714   7.989  10.104 -1.8107  1.2313 -0.2907
  902MOL0     H21713   1.501   7.981   9.943  2.1618  0.9219  0.7727
  902MOL0     H21714   1.455   7.829  10.007  0.2177 -0.6672  0.7879
  902MOL0     H21715   1.472   7.948  10.240  0.1361  0.4301 -0.2577
  902MOL0     H21716   1.480   8.102  10.150  0.4089 -0.1033  0.0293
  902MOL0     H21717   1.261   7.888  10.115  0.3769  0.7865 -1.3396
  902MOL0     H21718   1.262   8.010  10.255 -0.2693  2.3938 -0.6049
  902MOL0     H21719   1.278   8.090   9.970  2.7220 -2.7437  1.6095
  902MOL0     H21720   1.228   8.187  10.110  0.9561  0.3671 -0.2155
  902MOL0     H21721   0.985   8.149  10.210 -1.7937 -2.3313  1.0702
  902MOL0     H21722   0.697   7.888  10.110 -2.5153 -0.1999  4.2756
  902MOL0     H21723   0.725   7.985  10.243 -2.9213 -5.0712  0.7869
  902MOL0     H21724   0.679   8.174  10.032  0.7398  0.0091 -0.8273
  902MOL0     H21725   0.573   8.111  10.168  0.5543  0.6104  0.0631
  902MOL0     H21726   0.619   7.973   9.900 -0.4056  2.5160 -1.5493
  902MOL0     H21727   0.486   8.080   9.909 -1.3490 -2.5557 -2.5502
  902MOL0     H21728   0.508   7.820  10.064  0.0504  0.0931 -2.4210
  902MOL0     H21729   0.384   7.873   9.949 -1.7847 -1.1292  2.0736
  902MOL0     H21730   0.137   7.865  10.137 -1.6666  0.6098  1.6518
  902MOL0     H21731  -0.159   7.992  10.001 -1.0361 -0.3084  0.8740
  902MOL0     H21732  -0.104   7.864  10.100 -1.2849 -0.7000 -1.7996
  902MOL0     H21733  -0.178   8.008  10.173 -1.1713 -0.2616 -1.0079
  902MOL0     H21734  -0.320   8.421  10.188  0.2237  1.1708 -0.6160
  902MOL0     H21735  -0.514   8.541  10.137 -0.0088  0.7884  0.0081
  902MOL0     H21736  -0.680   8.550   9.740 -2.5736  1.8511 -0.7059
  902MOL0     H21737  -0.745   8.381   9.769  0.1092 -0.4909  1.6569
  902MOL0     H21738  -0.881   8.646   9.859 -0.0706  0.6904 -1.9809
  902MOL0     H21739  -0.912   8.572   9.696  1.1591  2.9682 -0.9005
  902MOL0     H21740  -0.939   8.421   9.963  1.4227 -2.1988 -1.6134
  902MOL0     H21741  -0.978   8.362   9.802 -2.4381  0.4677 -1.2190
  902MOL0     H21742  -1.134   8.597   9.924 -0.8803 -0.3579  0.8491
  902MOL0     H21743  -1.159   8.499   9.769 -0.7761 -0.6193 -0.4901
  902MOL0     H21744  -1.208   8.411  10.056  1.3845 -0.9167 -0.1281
  902MOL0     H21745  -1.195   8.298   9.929  0.7256 -0.6858 -0.2725
  902MOL0     H21746  -1.395   8.530   9.915  0.3500  1.0010  0.3331
  902MOL0     H21747  -1.405   8.400   9.804 -2.7520 -0.3916  0.4371
  902MOL0     H21748  -1.445   8.394  10.098 -3.3132 -0.5219  1.5721
  902MOL0     H21749  -1.413   8.237  10.011 -1.0706 -0.3594 -1.0907
  902MOL0     H21750  -1.659   8.282  10.052 -0.5168 -2.3072 -0.7227
  902MOL0     H21751  -1.615   8.251   9.882 -1.1089 -1.2383  1.6662
  902MOL0     H21752  -0.562   8.305   9.768 -0.9267 -1.7528  1.6772
  902MOL0     H21753  -0.345   8.225   9.806 -0.3894  3.2149 -3.1460
  902MOL0     H21754   0.179   8.354  10.100  1.8817 -0.5657  1.4946
  902MOL0     H21755   0.373   8.217  10.122 -0.0165 -2.1504 -1.3993
  902MOL0     H21756   2.052   7.576   9.655  2.0246 -0.2224 -3.8620
  902MOL0     H21757   2.260   7.446   9.563 -1.0498  1.6916 -1.2095
  902MOL0     H21758   2.694   7.525   9.359 -0.3063 -1.9055 -0.9313
  902MOL0     H21759   2.893   7.434   9.295 -1.3920  1.8423  0.0230
  902MOL0     H21760   3.147   7.145   9.267  4.4109  2.3149  1.1309
  902MOL0     H21761   3.014   7.249   9.228 -1.4373 -0.7873  1.0150
  902MOL0     H21762   3.177   7.427   9.348 -0.2442  1.7779 -1.2926
  902MOL0     H21763   3.191   7.393   9.182 -0.3148  1.7868  0.3387
  902MOL0     H21764   3.363   7.204   9.232 -1.5140 -0.3557 -0.1300
  902MOL0     H21765   3.368   7.266   9.395 -2.3914  1.0809  0.9886
  902MOL0     H21766   3.546   7.352   9.271  0.2701 -0.6810  4.2242
  902MOL0     H21767   3.447   7.489   9.323 -0.6570  1.1868 -2.2603
  902MOL0     H21768   3.411   7.543   8.909 -1.6496  0.0119  0.5441
  902MOL0     H21769   2.910   7.169   9.637 -0.0257 -0.8546 -0.2750
  902MOL0     H21770   2.672   7.267   9.696  0.0800 -0.3612 -0.1188
  903MOL0     O21771   4.493   9.526  10.206  0.7933  0.8173 -0.2489
  903MOL0     C21772   4.540   9.470  10.306 -0.4608 -0.3434 -0.1507
  903MOL0     O21773   4.474   9.372  10.387 -0.7790  0.2068 -0.4494
  903MOL0     C21774   4.369   9.292  10.364 -0.0804 -0.0912 -0.1112
  903MOL0     C21775   4.298   9.288  10.242 -0.1306 -0.5340 -0.6681
  903MOL0     C21776   4.184   9.215  10.242  0.3222 -1.4263  0.4899
  903MOL0     C21777   4.126   9.162  10.355  0.4748 -1.3120  0.2326
  903MOL0     O21778   3.992   9.132  10.330 -1.0001  0.0252 -0.3292
  903MOL0     C21779   3.917   9.086  10.443  0.1368  0.0753  0.4508
  903MOL0     C21780   3.768   9.109  10.417  0.2693 -0.1085  0.8851
  903MOL0     C21781   3.694   9.106  10.545  0.2786  0.0434 -0.4821
  903MOL0     C21782   3.549   9.083  10.526  1.0493 -0.1843 -0.7764
  903MOL0     C21783   3.487   9.062  10.665 -0.0854  0.5179  0.8684
  903MOL0     C21784   3.346   9.013  10.662  0.5253  0.5890  0.6064
  903MOL0     C21785   3.282   9.006  10.804 -0.8129  0.4110 -0.1153
  903MOL0     C21786   3.142   8.931  10.816 -0.4607  0.1708 -0.1009
  903MOL0     N21787   3.028   8.994  10.752 -0.2497 -0.1382 -0.4657
  903MOL0     C21788   2.971   9.115  10.784  0.3253 -0.1044 -0.4733
  903MOL0     C21789   2.858   9.127  10.707  0.6056 -0.1469 -0.5710
  903MOL0     C21790   2.755   9.233  10.706  0.1449 -0.6536  0.3660
  903MOL0     C21791   2.686   9.257  10.840  0.1124 -0.1954  1.1877
  903MOL0     C21792   2.639   9.118  10.897 -1.0458 -0.1635  0.0777
  903MOL0     C21793   2.520   9.129  10.987 -0.4685  0.0272  0.1142
  903MOL0     O21794   2.398   9.144  10.908 -0.5212  0.3563 -0.2015
  903MOL0     C21795   2.288   9.182  10.978  0.0283 -0.0344 -0.4553
  903MOL0     C21796   2.171   9.207  10.906  0.2204 -0.4460  0.8037
  903MOL0     C21797   2.044   9.223  10.970  0.6347 -0.5401  0.1860
  903MOL0     C21798   1.921   9.231  10.875 -0.2784 -0.3495  0.2382
  903MOL0     C21799   2.035   9.212  11.112 -0.0807 -0.5843  1.1978
  903MOL0     C21800   1.909   9.217  11.190  0.2734  1.0297  0.4996
  903MOL0     O21801   1.794   9.252  11.128 -0.5242 -0.5420  0.3024
  903MOL0     C21802   1.672   9.246  11.192  0.2797 -0.4141 -0.2492
  903MOL0     C21803   1.617   9.353  11.262 -0.1557 -0.1399 -0.2351
  903MOL0     C21804   1.491   9.350  11.321  1.1728 -0.5476  0.1798
  903MOL0     C21805   1.406   9.242  11.314 -0.7372  0.1202  0.1468
  903MOL0     O21806   1.292   9.256  11.378  1.0490 -0.1387  0.1484
  903MOL0     C21807   1.244   9.143  11.454  0.1740 -0.7764 -0.3063
  903MOL0     C21808   1.127   9.186  11.542  0.1718  0.4231  0.4164
  903MOL0     C21809   0.996   9.177  11.463  0.7913  0.7673 -0.2569
  903MOL0     C21810   0.877   9.215  11.551 -0.2175 -0.1190 -0.3568
  903MOL0     C21811   0.729   9.182  11.501  0.3454  0.5926 -0.2210
  903MOL0     C21812   0.625   9.234  11.594 -0.3126 -0.1090  0.0602
  903MOL0     C21813   0.489   9.199  11.537 -1.1175  0.4010  0.0782
  903MOL0     C21814   0.381   9.209  11.636  0.4850 -0.6826 -0.0184
  903MOL0    Cl21815   0.257   9.108  11.577 -0.1834  0.2790  0.1636
  903MOL0     C21816   1.458   9.130  11.246 -0.5171 -0.4279  0.3494
  903MOL0     C21817   1.591   9.128  11.188  0.5049 -0.3504 -0.3058
  903MOL0     O21818   1.915   9.178  11.302  0.3262  0.3097  0.5354
  903MOL0     C21819   2.151   9.190  11.179 -0.0404  0.8501 -0.3546
  903MOL0     C21820   2.273   9.180  11.117 -0.5421  0.5914  0.1104
  903MOL0     N21821   2.852   9.016  10.629 -0.2043 -0.3050 -0.5875
  903MOL0     N21822   2.953   8.939  10.658  0.3683  0.5130  0.8174
  903MOL0     C21823   4.195   9.163  10.477 -0.3863 -0.2423  1.0772
  903MOL0     C21824   4.323   9.209  10.466 -0.7152 -0.1998  0.6660
  903MOL0     C21825   4.647   9.550  10.360  0.4691  0.1803  0.0115
  903MOL0     C21826   4.739   9.610  10.279 -0.6037 -0.0800  0.4432
  903MOL0     C21827   4.850   9.682  10.335  0.0750 -0.6483 -0.3640
  903MOL0     C21828   4.868   9.684  10.469  0.4633 -0.4047 -0.6302
  903MOL0     O21829   4.980   9.743  10.517  0.7072  0.2362 -0.2527
  903MOL0     C21830   4.980   9.799  10.654 -0.3452 -0.6595  0.0664
  903MOL0     C21831   5.113   9.871  10.653 -1.3501 -0.6540  0.4067
  903MOL0     C21832   5.238   9.779  10.637  1.2147 -0.3665  0.4450
  903MOL0     C21833   5.358   9.881  10.634  0.4558  0.7354 -0.6375
  903MOL0     C21834   5.374   9.960  10.515 -0.0746  0.4077  0.2590
  903MOL0     C21835   5.395  10.032  10.414  0.2207  0.1609  0.0352
  903MOL0     C21836   4.768   9.638  10.558  0.4413  0.4606  0.8036
  903MOL0     C21837   4.662   9.568  10.501 -0.2661 -0.2935  0.3257
  903MOL0     H21838   4.343   9.343  10.160 -0.7076 -0.7681 -1.1479
  903MOL0     H21839   4.134   9.213  10.145  1.6747  2.8593 -0.4883
  903MOL0     H21840   3.938   8.984  10.479 -1.9879 -0.1201  1.2628
  903MOL0     H21841   3.948   9.153  10.524  0.0489  2.9096 -1.7110
  903MOL0     H21842   3.749   9.203  10.366 -1.8874  0.0150  1.7798
  903MOL0     H21843   3.733   9.029  10.351 -0.3667 -1.2362  2.5234
  903MOL0     H21844   3.728   9.015  10.595  0.3628  1.0358  1.3539
  903MOL0     H21845   3.711   9.192  10.610  1.0056 -0.4697  0.0211
  903MOL0     H21846   3.495   9.165  10.479 -0.1077  0.9162  2.1882
  903MOL0     H21847   3.520   8.998  10.464  0.6757 -1.4133  0.9981
  903MOL0     H21848   3.549   8.998  10.728  0.2882 -0.8621 -0.8252
  903MOL0     H21849   3.501   9.154  10.723  0.9305 -0.3257  2.0014
  903MOL0     H21850   3.289   9.077  10.595  4.4403  1.2468 -2.4474
  903MOL0     H21851   3.345   8.910  10.627  2.2230  0.5626  0.5584
  903MOL0     H21852   3.350   8.944  10.863 -1.1050 -3.0916 -3.1540
  903MOL0     H21853   3.275   9.104  10.853  2.8618  0.6564  0.1887
  903MOL0     H21854   3.114   8.919  10.921  1.1593  2.8483  0.7515
  903MOL0     H21855   3.152   8.835  10.765  0.6544 -0.8883  1.9816
  903MOL0     H21856   3.019   9.180  10.856 -2.6404  1.2474  0.4388
  903MOL0     H21857   2.808   9.325  10.679  2.3824 -2.0952 -0.4917
  903MOL0     H21858   2.687   9.221  10.621 -2.7342  1.4426  2.2039
  903MOL0     H21859   2.599   9.323  10.834 -0.7095 -1.0158  3.3621
  903MOL0     H21860   2.753   9.316  10.902 -0.2865  1.6420 -0.0527
  903MOL0     H21861   2.720   9.071  10.954 -1.0848 -0.4578 -0.1051
  903MOL0     H21862   2.617   9.051  10.813  1.3129  1.7461 -2.2011
  903MOL0     H21863   2.535   9.219  11.047  0.1187 -0.5423  0.8390
  903MOL0     H21864   2.512   9.044  11.056  1.2126  0.8319  1.3705
  903MOL0     H21865   2.179   9.194  10.799  1.0347 -1.4771  0.9759
  903MOL0     H21866   1.947   9.196  10.774 -0.4020 -0.9877  0.4227
  903MOL0     H21867   1.843   9.162  10.907  1.5431 -2.7522 -0.1766
  903MOL0     H21868   1.884   9.334  10.875 -0.3682 -0.3616 -1.2214
  903MOL0     H21869   1.675   9.442  11.282  1.6595 -1.0053 -1.4309
  903MOL0     H21870   1.438   9.435  11.363 -0.5552 -0.8157 -1.3049
  903MOL0     H21871   1.228   9.054  11.391  1.8503 -0.8234 -0.7206
  903MOL0     H21872   1.330   9.111  11.514 -0.9704  0.6016  2.2077
  903MOL0     H21873   1.122   9.117  11.626  0.2799  1.7466  1.5362
  903MOL0     H21874   1.146   9.285  11.584 -2.2389  1.5845 -1.0221
  903MOL0     H21875   0.992   9.074  11.427 -2.9786  0.7866 -0.2548
  903MOL0     H21876   1.006   9.247  11.379 -0.2791  2.2169  0.7744
  903MOL0     H21877   0.891   9.159  11.644  3.3055  2.4987  0.9024
  903MOL0     H21878   0.883   9.320  11.580 -0.8885  0.1773 -1.2644
  903MOL0     H21879   0.724   9.074  11.484 -0.1082  0.8319 -1.8517
  903MOL0     H21880   0.710   9.227  11.403  1.9869 -2.9981 -2.3870
  903MOL0     H21881   0.631   9.182  11.690 -5.8661 -0.7010  0.4115
  903MOL0     H21882   0.642   9.341  11.606 -2.0610  0.2708 -0.5766
  903MOL0     H21883   0.496   9.093  11.512  1.6251  0.9694 -2.0764
  903MOL0     H21884   0.479   9.246  11.439  4.3275  1.8444 -0.1161
  903MOL0     H21885   0.340   9.308  11.657 -1.5559 -1.7030  1.2210
  903MOL0     H21886   0.414   9.174  11.735 -1.3225  2.1901  1.7608
  903MOL0     H21887   1.395   9.044  11.227  1.4654 -1.5450 -1.6009
  903MOL0     H21888   1.604   9.043  11.122  0.4174  0.4781 -1.4247
  903MOL0     H21889   2.147   9.180  11.287 -1.1739  0.3512 -0.4374
  903MOL0     H21890   2.361   9.181  11.180 -0.5007  0.4581  0.0537
  903MOL0     H21891   4.149   9.141  10.573 -0.8372  2.0084  1.4250
  903MOL0     H21892   4.377   9.210  10.561 -0.2118  2.0783  0.4047
  903MOL0     H21893   4.740   9.585  10.173  2.0451 -1.8745  0.7990
  903MOL0     H21894   4.935   9.721  10.279  0.2461  0.0892  0.3896
  903MOL0     H21895   4.909   9.879  10.673  2.4091  1.4700  2.4196
  903MOL0     H21896   4.974   9.728  10.738 -0.1615  1.2783  1.8063
  903MOL0     H21897   5.123   9.924  10.749  0.8661  1.3556 -0.8308
  903MOL0     H21898   5.114   9.946  10.574 -1.8188  0.0938  1.0888
  903MOL0     H21899   5.229   9.711  10.551  0.8477  1.9832 -1.4936
  903MOL0     H21900   5.235   9.720  10.729 -0.9356  0.5836  1.0474
  903MOL0     H21901   5.447   9.824  10.661  0.2037  1.7068  2.7335
  903MOL0     H21902   5.341   9.952  10.716  3.0375  3.0828 -1.9659
  903MOL0     H21903   5.399  10.107  10.338 -0.8915  1.2186  0.9775
  903MOL0     H21904   4.776   9.624  10.666 -1.7765 -0.3214  0.9003
  903MOL0     H21905   4.591   9.527  10.573 -1.3243 -0.0795 -0.5725
  904MOL0     O21906   1.103   2.150   7.878  0.2746  0.2467 -0.5237
  904MOL0     C21907   1.202   2.128   7.941  0.2200  0.0906  0.2007
  904MOL0     O21908   1.223   2.006   8.000  0.0785 -0.3083  0.0533
  904MOL0     C21909   1.120   1.920   7.986  0.0777 -0.4090 -0.4826
  904MOL0     C21910   1.141   1.807   7.919  1.4297 -1.2456  1.6019
  904MOL0     C21911   1.029   1.729   7.902  0.0686  0.1948  0.0014
  904MOL0     C21912   0.904   1.751   7.957 -1.2131 -0.2700  0.1792
  904MOL0     O21913   0.816   1.645   7.945  0.4619  0.6601  0.0758
  904MOL0     C21914   0.679   1.660   7.985  0.1490 -0.0744  0.1692
  904MOL0     C21915   0.586   1.537   7.962  0.4461  0.3800  0.0454
  904MOL0     C21916   0.441   1.582   7.957 -0.4329 -0.3400  0.3041
  904MOL0     C21917   0.353   1.454   7.955 -0.1170 -0.4886  0.0132
  904MOL0     C21918   0.210   1.517   7.913  0.0580  0.1034 -0.1183
  904MOL0     C21919   0.114   1.409   7.874 -0.5702 -0.4108  0.2736
  904MOL0     C21920  -0.021   1.467   7.838 -0.5090  0.5286  0.6638
  904MOL0     C21921  -0.116   1.355   7.787 -0.6499 -0.8050 -0.7039
  904MOL0     N21922  -0.251   1.410   7.774  0.8323  0.1861  0.1225
  904MOL0     C21923  -0.334   1.383   7.667 -0.8056 -1.0690 -0.8344
  904MOL0     C21924  -0.439   1.467   7.684  0.3168 -0.8507 -0.2224
  904MOL0     C21925  -0.534   1.486   7.578 -0.4352 -0.3861  0.1050
  904MOL0     C21926  -0.642   1.371   7.578 -0.5279 -0.3660 -0.0424
  904MOL0     C21927  -0.749   1.379   7.689  0.2399  0.0052  0.2683
  904MOL0     C21928  -0.877   1.289   7.669 -0.3811 -1.0494 -0.0568
  904MOL0     O21929  -0.938   1.321   7.548  0.0513 -0.4091 -0.7436
  904MOL0     C21930  -1.068   1.279   7.533 -0.5105 -0.6099 -0.1275
  904MOL0     C21931  -1.128   1.177   7.608  0.5746 -0.3591  0.6161
  904MOL0     C21932  -1.258   1.139   7.581  0.1610 -0.3485 -0.2436
  904MOL0     C21933  -1.310   1.027   7.665 -0.4420  0.8812  0.1116
  904MOL0     C21934  -1.343   1.209   7.503 -0.4959 -0.1813  0.2383
  904MOL0     C21935  -1.490   1.180   7.466 -0.3178 -0.1691 -0.0293
  904MOL0     O21936  -1.547   1.262   7.373  0.4352  0.5419  0.7325
  904MOL0     C21937  -1.678   1.264   7.332  0.1377  0.0892 -0.0083
  904MOL0     C21938  -1.782   1.210   7.399  0.8814  1.0359 -0.5200
  904MOL0     C21939  -1.918   1.200   7.357 -0.1937  0.6891 -0.2766
  904MOL0     C21940  -1.949   1.260   7.234 -0.3065  0.3002  0.5120
  904MOL0     O21941  -2.085   1.263   7.189  0.0920  0.4830  0.4895
  904MOL0     C21942  -2.106   1.255   7.046  0.1159  0.1495  0.6262
  904MOL0     C21943  -2.152   1.109   7.017  0.0239 -0.7245  0.1536
  904MOL0     C21944  -2.282   1.060   7.087  0.0762 -0.1384  0.0528
  904MOL0     C21945  -2.414   1.135   7.058 -0.4076 -0.8714  0.5799
  904MOL0     C21946  -2.543   1.052   7.094  1.0280  0.3842 -0.1137
  904MOL0     C21947  -2.538   1.016   7.244 -0.9494  0.0966  0.1885
  904MOL0     C21948  -2.685   1.031   7.296 -0.5778 -0.5366  0.3360
  904MOL0     C21949  -2.685   1.002   7.449 -0.3117  0.5948 -0.5318
  904MOL0    Cl21950  -2.647   0.822   7.467  0.5272 -0.5690  0.0117
  904MOL0     C21951  -1.839   1.322   7.166 -0.4712  0.1740 -0.0472
  904MOL0     C21952  -1.707   1.328   7.217 -0.1169  0.2965  0.0765
  904MOL0     O21953  -1.545   1.098   7.538 -0.1801  0.1611 -0.2293
  904MOL0     C21954  -1.287   1.327   7.441 -0.7749  0.3369 -0.2099
  904MOL0     C21955  -1.151   1.356   7.451  0.6014  0.5868 -0.9427
  904MOL0     N21956  -0.430   1.532   7.801  0.1866 -0.4582  0.2767
  904MOL0     N21957  -0.314   1.512   7.849 -0.3268  0.5066  0.3589
  904MOL0     C21958   0.885   1.869   8.033  0.3346  0.5868  0.5255
  904MOL0     C21959   0.999   1.950   8.053  0.2769 -0.1632  0.1436
  904MOL0     C21960   1.316   2.222   7.944  0.9594  0.7366  0.5137
  904MOL0     C21961   1.312   2.352   7.891  0.6390  0.7201 -0.1048
  904MOL0     C21962   1.427   2.438   7.904 -0.2862  0.5623  1.0342
  904MOL0     C21963   1.546   2.396   7.960 -0.1523  0.0503 -0.9745
  904MOL0     O21964   1.659   2.477   7.957  0.5324  0.1948  0.5938
  904MOL0     C21965   1.794   2.413   7.974  0.7212 -0.2330 -0.2836
  904MOL0     C21966   1.902   2.517   7.949 -0.2854  0.2869 -0.5404
  904MOL0     C21967   1.908   2.607   7.828 -0.2237  0.0976 -1.1686
  904MOL0     C21968   1.903   2.550   7.689  0.1394  0.0735  0.5886
  904MOL0     C21969   1.992   2.430   7.671  0.2050  0.9681  0.1555
  904MOL0     C21970   2.045   2.329   7.628 -0.1312  0.7987  0.6521
  904MOL0     C21971   1.542   2.269   8.021 -0.2968 -0.3629  0.2371
  904MOL0     C21972   1.432   2.187   8.017 -0.3678  0.1802  0.6099
  904MOL0     H21973   1.236   1.776   7.876  1.8222  3.3548 -1.6090
  904MOL0     H21974   1.038   1.635   7.849 -0.9798  1.4596 -2.6026
  904MOL0     H21975   0.668   1.690   8.090  2.0426  0.4161  0.2629
  904MOL0     H21976   0.648   1.746   7.925  3.1840 -0.4480 -2.1844
  904MOL0     H21977   0.604   1.486   7.867  2.5034  0.2792  0.4351
  904MOL0     H21978   0.594   1.471   8.049  1.4725  0.6065  0.1352
  904MOL0     H21979   0.414   1.643   8.044  1.2580  3.2440 -1.5137
  904MOL0     H21980   0.435   1.645   7.869  0.8114  1.1595  1.2366
  904MOL0     H21981   0.382   1.373   7.888 -2.5893 -2.4356  1.1601
  904MOL0     H21982   0.343   1.408   8.054  2.3251  0.3890  0.7566
  904MOL0     H21983   0.166   1.584   7.987 -1.3040  0.8774 -1.5654
  904MOL0     H21984   0.216   1.584   7.826 -0.3809 -0.1736 -0.3630
  904MOL0     H21985   0.153   1.367   7.781 -0.7465 -2.2945  0.9919
  904MOL0     H21986   0.094   1.328   7.945 -0.9890  0.3168  1.0020
  904MOL0     H21987  -0.056   1.526   7.924  2.5653  3.4160  0.1720
  904MOL0     H21988   0.000   1.541   7.760  1.4641 -0.3766  0.2918
  904MOL0     H21989  -0.112   1.276   7.863 -1.0926 -0.6565 -0.5221
  904MOL0     H21990  -0.074   1.311   7.697 -1.4701 -0.2100 -1.3910
  904MOL0     H21991  -0.317   1.311   7.588 -1.9454 -3.3859  0.9334
  904MOL0     H21992  -0.579   1.586   7.580  0.1319 -0.0585 -1.9872
  904MOL0     H21993  -0.486   1.474   7.481 -0.5819  2.2075 -0.3685
  904MOL0     H21994  -0.593   1.274   7.589  1.3153  0.6713  1.5509
  904MOL0     H21995  -0.687   1.379   7.479  0.1218 -0.0512 -0.3176
  904MOL0     H21996  -0.799   1.475   7.700  1.0413  0.3039  1.5822
  904MOL0     H21997  -0.705   1.349   7.785 -0.8664  2.2694  1.5627
  904MOL0     H21998  -0.933   1.325   7.755 -0.9042 -1.7502 -0.0903
  904MOL0     H21999  -0.854   1.182   7.666  0.1731 -0.9211 -2.0040
  904MOL0     H22000  -1.073   1.119   7.682 -0.1566 -0.6939  0.9069
  904MOL0     H22001  -1.360   0.960   7.596  0.2634 -0.0344  0.4669
  904MOL0     H22002  -1.230   0.972   7.716 -1.3051 -0.4188  0.0898
  904MOL0     H22003  -1.380   1.066   7.739  1.1091  1.9563  1.0809
  904MOL0     H22004  -1.773   1.175   7.501 -2.0500 -2.2433 -1.1716
  904MOL0     H22005  -1.990   1.153   7.423 -2.4626  4.5881  0.3321
  904MOL0     H22006  -2.187   1.324   7.019 -0.3701 -1.3492 -2.0347
  904MOL0     H22007  -2.021   1.278   6.981 -0.3029 -0.8631 -0.3142
  904MOL0     H22008  -2.164   1.102   6.909  1.0801  1.0758 -0.1192
  904MOL0     H22009  -2.066   1.045   7.039  0.2404  0.3517  2.8598
  904MOL0     H22010  -2.253   1.052   7.192  1.6702  0.9351 -0.2680
  904MOL0     H22011  -2.297   0.958   7.050 -0.5220 -0.2717  0.6363
  904MOL0     H22012  -2.412   1.228   7.115  3.2887  1.1319 -2.3816
  904MOL0     H22013  -2.411   1.150   6.949  0.7600 -1.1529  0.5562
  904MOL0     H22014  -2.557   0.963   7.031 -2.1967  0.9665 -0.3773
  904MOL0     H22015  -2.629   1.116   7.073 -1.0760 -2.1890  0.1049
  904MOL0     H22016  -2.500   0.913   7.245 -1.9746 -0.3081 -0.5751
  904MOL0     H22017  -2.479   1.079   7.311 -1.4685 -2.1621  2.9732
  904MOL0     H22018  -2.759   0.967   7.246 -0.4792 -0.9939  0.7596
  904MOL0     H22019  -2.716   1.134   7.280 -1.6211 -0.6774  1.2868
  904MOL0     H22020  -2.787   1.018   7.484 -0.3057 -1.3286  0.5105
  904MOL0     H22021  -2.612   1.065   7.500  1.9562 -0.5704 -2.1158
  904MOL0     H22022  -1.854   1.362   7.066  1.5742  0.1279 -0.4182
  904MOL0     H22023  -1.637   1.401   7.178  0.0289  0.9745  1.5278
  904MOL0     H22024  -1.342   1.381   7.365  0.4388 -2.0055 -2.9003
  904MOL0     H22025  -1.107   1.434   7.391  2.4851  0.0733 -0.3190
  904MOL0     H22026   0.792   1.910   8.072 -0.6641 -1.2868  0.2041
  904MOL0     H22027   0.988   2.036   8.117  2.5047  0.8183 -0.6929
  904MOL0     H22028   1.223   2.378   7.834  0.4702 -0.2161 -0.2867
  904MOL0     H22029   1.423   2.537   7.860  1.9408  0.8358  1.3532
  904MOL0     H22030   1.811   2.364   8.070 -0.4336  0.3528  0.2433
  904MOL0     H22031   1.788   2.332   7.902  0.0727 -1.5707  1.2134
  904MOL0     H22032   1.991   2.453   7.951 -0.7000 -0.4204 -2.3439
  904MOL0     H22033   1.906   2.583   8.035 -1.8007  2.1964 -1.8449
  904MOL0     H22034   2.006   2.649   7.850  0.1654 -0.1606 -2.3121
  904MOL0     H22035   1.835   2.687   7.838  0.4689  0.4409  1.8231
  904MOL0     H22036   1.925   2.633   7.621 -0.3652  1.3473  1.9075
  904MOL0     H22037   1.802   2.517   7.667 -0.0649 -0.3813  2.1022
  904MOL0     H22038   2.103   2.243   7.601 -0.6442  0.9083 -0.9194
  904MOL0     H22039   1.626   2.246   8.086 -1.1667  2.2093  2.4937
  904MOL0     H22040   1.431   2.101   8.084  1.9425 -0.0694  0.4400
  905MOL0     O22041   6.512   7.302   1.587  0.9358  0.3299 -0.1395
  905MOL0     C22042   6.528   7.391   1.501 -1.2113  0.4575  1.2169
  905MOL0     O22043   6.426   7.472   1.454 -0.1024 -0.1162 -0.1366
  905MOL0     C22044   6.295   7.480   1.493 -0.3700  0.6341  0.3846
  905MOL0     C22045   6.235   7.388   1.584  0.7615  0.0392  0.2600
  905MOL0     C22046   6.100   7.403   1.609 -0.5445  0.4104 -0.4594
  905MOL0     C22047   6.018   7.504   1.558 -0.4479 -0.2650 -0.5164
  905MOL0     O22048   5.883   7.510   1.592 -0.2351 -0.1497  0.7109
  905MOL0     C22049   5.788   7.569   1.493 -1.2778  0.2794  0.1323
  905MOL0     C22050   5.679   7.623   1.570 -0.5999 -0.2209  0.8581
  905MOL0     C22051   5.569   7.659   1.481 -0.6946  0.0527  0.7002
  905MOL0     C22052   5.446   7.691   1.571  0.3304  0.8094 -0.1883
  905MOL0     C22053   5.355   7.768   1.476  0.0518 -0.2359  0.0862
  905MOL0     C22054   5.227   7.816   1.535  0.4246  0.9036 -0.3995
  905MOL0     C22055   5.152   7.910   1.441 -0.0592  0.0557  0.8181
  905MOL0     C22056   5.017   7.925   1.500  1.0748  0.3325 -0.5660
  905MOL0     N22057   4.959   8.042   1.438  0.2833  0.5425 -0.0133
  905MOL0     C22058   4.893   8.022   1.324  0.2841  0.2932  0.8707
  905MOL0     C22059   4.856   8.142   1.282  0.0376 -0.2095 -0.1952
  905MOL0     C22060   4.783   8.181   1.161 -0.1378 -0.3858  0.7593
  905MOL0     C22061   4.803   8.328   1.131 -0.0852 -0.4548  1.3209
  905MOL0     C22062   4.755   8.369   0.985 -0.5951  0.4593  0.2177
  905MOL0     C22063   4.606   8.337   0.946 -0.2539 -1.1818  0.2391
  905MOL0     O22064   4.515   8.393   1.039 -0.2840 -0.0633  0.3271
  905MOL0     C22065   4.384   8.398   1.000 -1.0071 -0.6504 -0.0373
  905MOL0     C22066   4.323   8.353   0.876 -0.2624 -0.9221  0.4122
  905MOL0     C22067   4.188   8.354   0.861 -0.4607 -0.1126  0.7737
  905MOL0     C22068   4.141   8.303   0.729  0.4766 -0.5742 -0.8234
  905MOL0     C22069   4.095   8.391   0.962 -0.1801 -1.2927 -0.0108
  905MOL0     C22070   3.947   8.382   0.953  0.3391  0.3916 -0.1303
  905MOL0     O22071   3.889   8.341   0.832  0.3424 -0.3575  0.2117
  905MOL0     C22072   3.749   8.343   0.811  0.1302  0.6388  0.8477
  905MOL0     C22073   3.714   8.390   0.685 -0.1409  0.4964  0.1143
  905MOL0     C22074   3.582   8.376   0.654 -0.8156  0.9200 -0.4200
  905MOL0     C22075   3.483   8.331   0.740 -0.8356 -0.2520 -0.0680
  905MOL0     O22076   3.360   8.307   0.685  0.0242  0.0627  0.0446
  905MOL0     C22077   3.248   8.330   0.772  0.9701  0.2453 -0.6640
  905MOL0     C22078   3.122   8.296   0.702  0.7902 -0.1747 -0.4535
  905MOL0     C22079   2.998   8.337   0.773  0.9056  0.3456 -0.2316
  905MOL0     C22080   2.864   8.318   0.701 -0.7022 -0.0901 -0.4175
  905MOL0     C22081   2.736   8.382   0.774 -1.0106  0.0163  0.3398
  905MOL0     C22082   2.625   8.396   0.676 -0.4160 -0.2712  0.2906
  905MOL0     C22083   2.535   8.492   0.747 -0.9574  0.3849 -0.3155
  905MOL0     C22084   2.398   8.490   0.684 -0.1984 -0.6616 -0.1230
  905MOL0    Cl22085   2.286   8.574   0.805  0.1657 -0.2653  0.2162
  905MOL0     C22086   3.527   8.286   0.869 -0.8820 -0.2624  0.3841
  905MOL0     C22087   3.667   8.292   0.905 -0.4452  0.1138 -0.6304
  905MOL0     O22088   3.882   8.413   1.052 -0.0184  0.2195  0.0932
  905MOL0     C22089   4.153   8.436   1.086  0.6119  1.0287 -0.7423
  905MOL0     C22090   4.292   8.439   1.101 -0.2728  0.9917 -0.1249
  905MOL0     N22091   4.906   8.230   1.385  0.2048  0.2298 -0.0974
  905MOL0     N22092   4.955   8.166   1.478  0.3144  0.1244  0.3962
  905MOL0     C22093   6.080   7.589   1.460 -0.1754 -0.4722  0.4058
  905MOL0     C22094   6.219   7.584   1.434  0.8831  0.0044  0.2206
  905MOL0     C22095   6.653   7.392   1.415  0.3669  0.2574  0.8161
  905MOL0     C22096   6.774   7.345   1.456  0.8371 -0.6706 -0.3113
  905MOL0     C22097   6.892   7.341   1.382 -0.8964 -0.4557  0.5579
  905MOL0     C22098   6.895   7.402   1.254 -0.4695 -0.0434 -0.2999
  905MOL0     O22099   6.995   7.401   1.154  1.0840 -0.4971  0.1113
  905MOL0     C22100   7.112   7.319   1.177  0.1505  0.4074  0.4668
  905MOL0     C22101   7.203   7.283   1.055 -0.3442 -0.0238 -0.5268
  905MOL0     C22102   7.279   7.148   1.065 -0.5337 -1.0191  0.4539
  905MOL0     C22103   7.388   7.138   0.967  0.3383 -0.0463 -0.1341
  905MOL0     C22104   7.506   7.224   1.004  0.1195 -0.0594 -0.1923
  905MOL0     C22105   7.584   7.303   1.050  0.0898 -0.5255  0.9278
  905MOL0     C22106   6.772   7.471   1.212 -0.5238  0.8215 -1.1699
  905MOL0     C22107   6.659   7.457   1.286  0.9513 -0.8762 -0.1651
  905MOL0     H22108   6.288   7.309   1.637  0.5126 -0.5253 -0.3176
  905MOL0     H22109   6.054   7.324   1.669  1.0907 -0.1726  0.0719
  905MOL0     H22110   5.830   7.653   1.437 -0.7969 -1.1751 -1.8107
  905MOL0     H22111   5.753   7.492   1.424 -0.4011 -0.3306  0.3488
  905MOL0     H22112   5.643   7.544   1.637 -2.5676 -0.4616 -0.4181
  905MOL0     H22113   5.716   7.710   1.625 -1.0147 -0.0590  0.8857
  905MOL0     H22114   5.598   7.738   1.411  0.8197 -1.6219 -0.6743
  905MOL0     H22115   5.537   7.575   1.418 -0.4809 -1.0947  2.0660
  905MOL0     H22116   5.395   7.598   1.598  1.2838 -0.2601 -1.8867
  905MOL0     H22117   5.467   7.753   1.658 -1.3653  0.0148  0.8484
  905MOL0     H22118   5.415   7.855   1.448  1.6703 -0.9219  1.2717
  905MOL0     H22119   5.338   7.707   1.387  1.8632  2.4214 -2.2468
  905MOL0     H22120   5.161   7.732   1.558  0.6205  0.5297 -1.1848
  905MOL0     H22121   5.260   7.856   1.631  0.7803  1.3714 -0.7136
  905MOL0     H22122   5.205   8.005   1.431  1.9419 -1.0990 -0.2442
  905MOL0     H22123   5.149   7.873   1.338 -0.6864  1.7995  0.1681
  905MOL0     H22124   5.013   7.950   1.607 -1.5590  0.6883 -0.6775
  905MOL0     H22125   4.959   7.833   1.493  1.0632  0.3463 -0.6597
  905MOL0     H22126   4.866   7.932   1.269 -0.1940  0.3254  1.0434
  905MOL0     H22127   4.814   8.118   1.078 -1.0467  0.4991 -0.2720
  905MOL0     H22128   4.675   8.179   1.177  0.0063  1.3950  2.4248
  905MOL0     H22129   4.911   8.342   1.139 -0.1772 -0.3255  2.5091
  905MOL0     H22130   4.748   8.389   1.203 -3.5804 -0.7992 -0.7924
  905MOL0     H22131   4.820   8.314   0.916 -1.1838  0.7148 -0.5537
  905MOL0     H22132   4.771   8.476   0.967  0.1530  0.4651  0.8836
  905MOL0     H22133   4.581   8.231   0.935 -2.3835 -0.8102  1.1220
  905MOL0     H22134   4.591   8.393   0.853  0.6606  1.5790  1.6368
  905MOL0     H22135   4.386   8.314   0.797  0.7157  0.3951  0.5229
  905MOL0     H22136   4.104   8.201   0.738  0.3802 -0.5302 -0.7035
  905MOL0     H22137   4.062   8.363   0.682 -0.8629 -0.5058  1.3638
  905MOL0     H22138   4.225   8.299   0.659  2.4583 -2.5592  1.5154
  905MOL0     H22139   3.786   8.437   0.618 -0.9347  2.0480  0.3079
  905MOL0     H22140   3.548   8.424   0.564 -0.4984  0.8222 -0.5929
  905MOL0     H22141   3.263   8.271   0.863  0.8738 -0.6003 -1.1866
  905MOL0     H22142   3.254   8.436   0.799  2.8940  0.4755 -1.7303
  905MOL0     H22143   3.114   8.349   0.607 -1.9421 -2.0884 -1.4102
  905MOL0     H22144   3.122   8.192   0.669  0.4267 -0.9882  1.8755
  905MOL0     H22145   2.995   8.442   0.802  0.8641  0.4699 -0.6714
  905MOL0     H22146   2.989   8.278   0.864  2.9180 -0.4105 -0.4666
  905MOL0     H22147   2.872   8.371   0.606  0.3269  1.8292  0.6656
  905MOL0     H22148   2.840   8.215   0.675 -0.3115 -0.1149 -0.6864
  905MOL0     H22149   2.760   8.481   0.815  2.0328  0.0195 -1.1882
  905MOL0     H22150   2.727   8.306   0.853  1.5977 -0.5344  0.2195
  905MOL0     H22151   2.653   8.440   0.580  0.6310  0.7424  1.0357
  905MOL0     H22152   2.583   8.297   0.656  3.1699 -1.6766 -0.9573
  905MOL0     H22153   2.568   8.596   0.745 -0.7137  0.2972 -1.4229
  905MOL0     H22154   2.528   8.469   0.854 -0.8031 -2.4390 -0.8123
  905MOL0     H22155   2.352   8.394   0.657  0.3882 -0.3119 -2.5873
  905MOL0     H22156   2.402   8.542   0.588 -4.1460  1.0975  0.4980
  905MOL0     H22157   3.455   8.252   0.943 -3.1766 -1.1075 -2.0337
  905MOL0     H22158   3.704   8.257   1.000 -0.6063 -0.5955 -0.8202
  905MOL0     H22159   4.089   8.466   1.168 -1.7526  0.4811 -2.2771
  905MOL0     H22160   4.331   8.484   1.192 -0.9635  1.1620  0.0918
  905MOL0     H22161   6.024   7.676   1.431 -0.0253  0.1163  1.8068
  905MOL0     H22162   6.264   7.659   1.370  0.8746 -1.2489 -1.3198
  905MOL0     H22163   6.766   7.311   1.558 -0.2363  1.1399  0.2640
  905MOL0     H22164   6.973   7.293   1.435  0.0315 -0.7643 -1.0701
  905MOL0     H22165   7.168   7.363   1.261 -1.2176  0.3185  1.4582
  905MOL0     H22166   7.075   7.224   1.216  1.1406  0.2802  1.1390
  905MOL0     H22167   7.268   7.371   1.047  0.5478 -0.6814 -0.6674
  905MOL0     H22168   7.147   7.281   0.961  0.2700  0.0872 -0.9020
  905MOL0     H22169   7.191   7.093   1.031 -1.8586  1.5730 -0.5977
  905MOL0     H22170   7.306   7.121   1.167 -1.3229 -2.0272  0.4079
  905MOL0     H22171   7.346   7.174   0.873  0.8956  1.8156  0.2849
  905MOL0     H22172   7.423   7.037   0.945  0.2579  0.4571 -2.8486
  905MOL0     H22173   7.659   7.372   1.084  0.1602 -1.5493  2.9640
  905MOL0     H22174   6.768   7.507   1.109 -1.4927  0.8473 -1.1336
  905MOL0     H22175   6.568   7.496   1.241  0.3379 -1.8747  0.1790
  906MOL0     O22176   2.262   1.340   0.827 -0.4700  1.0952 -0.4824
  906MOL0     C22177   2.315   1.429   0.763  1.2820 -0.5314 -0.0514
  906MOL0     O22178   2.263   1.484   0.644  0.0278  0.9529 -0.0050
  906MOL0     C22179   2.179   1.398   0.571 -0.7605 -0.1443 -0.7455
  906MOL0     C22180   2.200   1.260   0.546  0.2374 -0.2010 -0.3661
  906MOL0     C22181   2.104   1.189   0.481  0.4517  0.2502  0.5461
  906MOL0     C22182   1.989   1.250   0.414 -1.5126 -0.7681  0.0603
  906MOL0     O22183   1.907   1.178   0.325 -0.3570  0.4733  0.3539
  906MOL0     C22184   1.941   1.041   0.292  0.1429  0.4356  0.4659
  906MOL0     C22185   1.852   0.978   0.180  0.4297 -0.1626  0.8864
  906MOL0     C22186   1.853   0.824   0.206  0.2435 -0.1500 -0.5163
  906MOL0     C22187   1.783   0.742   0.100 -0.0280  0.4107 -0.1130
  906MOL0     C22188   1.795   0.585   0.105  0.1832 -0.4984  0.3008
  906MOL0     C22189   1.733   0.529  -0.018  0.7890  0.5222  0.0277
  906MOL0     C22190   1.576   0.556  -0.044 -1.0112  0.1256  0.1782
  906MOL0     C22191   1.473   0.482   0.044  0.0541 -0.5157  0.3977
  906MOL0     N22192   1.334   0.510   0.002 -0.1698  0.2930 -1.3371
  906MOL0     C22193   1.293   0.583  -0.109 -0.7155 -1.2106 -0.8418
  906MOL0     C22194   1.176   0.543  -0.152 -0.6015  0.2473  0.4211
  906MOL0     C22195   1.106   0.610  -0.265  0.2006  0.1437  0.8229
  906MOL0     C22196   0.958   0.629  -0.241  0.8753 -0.1043  0.0995
  906MOL0     C22197   0.878   0.505  -0.266 -0.1720  0.3797  0.2106
  906MOL0     C22198   0.728   0.510  -0.245  0.0329 -0.2446 -0.3624
  906MOL0     O22199   0.682   0.627  -0.312  0.2448  0.6416 -0.0320
  906MOL0     C22200   0.551   0.653  -0.325 -0.2118  0.0302 -0.6593
  906MOL0     C22201   0.513   0.736  -0.432 -0.1202 -0.1708 -0.4202
  906MOL0     C22202   0.379   0.774  -0.456 -0.9728  0.0385 -0.5778
  906MOL0     C22203   0.353   0.891  -0.552 -0.1296  0.0284  0.2860
  906MOL0     C22204   0.274   0.721  -0.369 -0.1028 -0.2955 -0.2394
  906MOL0     C22205   0.126   0.735  -0.398 -0.2962  0.5064  0.1747
  906MOL0     O22206   0.043   0.699  -0.293  0.5118 -0.7447 -0.5690
  906MOL0     C22207  -0.089   0.717  -0.309  0.1254  0.3572 -0.7528
  906MOL0     C22208  -0.167   0.688  -0.420  1.1591  0.0565 -0.1239
  906MOL0     C22209  -0.306   0.700  -0.410 -0.0455  1.0085 -0.3091
  906MOL0     C22210  -0.372   0.731  -0.291  0.8346 -0.7574  0.1776
  906MOL0     O22211  -0.511   0.743  -0.273 -0.9425 -0.3629 -0.9398
  906MOL0     C22212  -0.605   0.652  -0.333 -0.2702 -0.1235 -0.1288
  906MOL0     C22213  -0.584   0.505  -0.291 -1.1171 -0.1605  0.6994
  906MOL0     C22214  -0.617   0.494  -0.145  0.0109  1.0135 -0.3094
  906MOL0     C22215  -0.772   0.484  -0.116 -0.0082  0.0697 -1.1486
  906MOL0     C22216  -0.795   0.469   0.041 -0.0547  0.9920 -0.5989
  906MOL0     C22217  -0.935   0.428   0.090 -0.8105 -0.4816 -0.5814
  906MOL0     C22218  -0.959   0.454   0.240 -0.1076 -0.0035 -0.5048
  906MOL0     C22219  -1.079   0.386   0.281  0.5291  0.4340  0.5477
  906MOL0    Cl22220  -1.217   0.441   0.190 -0.3513 -0.1063  0.1747
  906MOL0     C22221  -0.288   0.762  -0.180  0.5121  0.6651  0.2472
  906MOL0     C22222  -0.151   0.753  -0.188  0.3909  0.0144 -0.6648
  906MOL0     O22223   0.086   0.770  -0.514 -0.5384 -0.0660  0.5496
  906MOL0     C22224   0.312   0.623  -0.271  0.0183  0.7945  0.3165
  906MOL0     C22225   0.443   0.591  -0.253 -0.7858  1.1921 -0.6123
  906MOL0     N22226   1.137   0.444  -0.065 -0.0061  0.0945 -0.0535
  906MOL0     N22227   1.235   0.420   0.018  0.4993 -0.2727  0.3112
  906MOL0     C22228   1.977   1.392   0.431  0.5949 -0.0945  0.0280
  906MOL0     C22229   2.071   1.454   0.509  0.0420  0.2259  0.7438
  906MOL0     C22230   2.442   1.487   0.823  0.4213 -0.0769 -0.1151
  906MOL0     C22231   2.527   1.562   0.736 -0.1600 -0.0770 -0.5020
  906MOL0     C22232   2.635   1.632   0.802 -0.4978  0.6774  0.1916
  906MOL0     C22233   2.672   1.620   0.933  0.2963  0.0621 -0.7002
  906MOL0     O22234   2.765   1.710   0.989 -0.8671  0.1266 -0.1104
  906MOL0     C22235   2.839   1.681   1.110 -0.8455  1.1384  0.3048
  906MOL0     C22236   2.957   1.573   1.090  0.5307 -0.3085  0.0841
  906MOL0     C22237   3.033   1.550   1.227 -0.2406 -0.4916  0.7796
  906MOL0     C22238   3.149   1.458   1.229 -0.9420  0.9146 -0.2232
  906MOL0     C22239   3.273   1.513   1.159  0.6746  0.5005  0.2748
  906MOL0     C22240   3.376   1.553   1.106 -0.1495  0.2851 -0.2074
  906MOL0     C22241   2.590   1.543   1.014 -0.1796 -0.5794  0.1061
  906MOL0     C22242   2.483   1.470   0.956  1.3127 -0.1976  1.2036
  906MOL0     H22243   2.290   1.217   0.588 -0.3356  2.0701  3.6910
  906MOL0     H22244   2.115   1.082   0.473 -1.2122  0.1050 -0.2458
  906MOL0     H22245   2.045   1.023   0.261 -0.2837 -0.0233 -0.7625
  906MOL0     H22246   1.936   0.974   0.378 -0.1108 -1.7043 -1.1242
  906MOL0     H22247   1.751   1.021   0.177 -0.0461 -1.3218 -0.4205
  906MOL0     H22248   1.900   0.998   0.084 -2.2602  0.3448 -0.4422
  906MOL0     H22249   1.955   0.784   0.194 -0.2335 -2.6263  2.4141
  906MOL0     H22250   1.796   0.795   0.294 -0.9100 -0.5640 -1.3769
  906MOL0     H22251   1.678   0.771   0.105 -0.8878 -2.2273 -1.2601
  906MOL0     H22252   1.830   0.765   0.005  0.6511  1.1183  0.3821
  906MOL0     H22253   1.898   0.549   0.100 -0.5526 -2.9159  1.2778
  906MOL0     H22254   1.749   0.533   0.189 -0.0419  0.0467  0.5178
  906MOL0     H22255   1.788   0.571  -0.103  0.9151 -3.4853 -2.0660
  906MOL0     H22256   1.750   0.421  -0.017  0.3622  0.2784 -3.5246
  906MOL0     H22257   1.549   0.661  -0.034 -5.3994 -0.5578 -1.8172
  906MOL0     H22258   1.553   0.533  -0.148  0.9937 -1.4871  0.0241
  906MOL0     H22259   1.505   0.508   0.145  2.4915 -1.7911  0.0339
  906MOL0     H22260   1.489   0.374   0.034 -1.4533 -1.1360  3.4175
  906MOL0     H22261   1.358   0.660  -0.150 -1.1833 -0.0140  0.5947
  906MOL0     H22262   1.148   0.710  -0.281  1.6554 -0.1688  2.3631
  906MOL0     H22263   1.112   0.557  -0.361  2.1041  1.7825 -0.0500
  906MOL0     H22264   0.929   0.698  -0.320 -3.5493 -1.9837 -0.1969
  906MOL0     H22265   0.933   0.665  -0.140  1.8682  0.1958  0.2495
  906MOL0     H22266   0.919   0.434  -0.193  0.0728  0.7684  0.4542
  906MOL0     H22267   0.891   0.465  -0.367  0.5509  2.3713 -0.5343
  906MOL0     H22268   0.694   0.521  -0.141 -2.7203  2.5559 -1.3826
  906MOL0     H22269   0.687   0.425  -0.301  0.8869  1.1201 -3.2649
  906MOL0     H22270   0.599   0.779  -0.483 -0.7003  0.4291 -0.9054
  906MOL0     H22271   0.322   0.846  -0.647 -2.3091  0.2399  0.8313
  906MOL0     H22272   0.274   0.964  -0.529 -1.6023 -0.7157 -2.0604
  906MOL0     H22273   0.449   0.934  -0.580  0.7869 -2.2131 -0.2179
  906MOL0     H22274  -0.130   0.645  -0.513 -0.5181 -1.7328 -0.0302
  906MOL0     H22275  -0.365   0.683  -0.499 -1.7065 -1.2305  1.0852
  906MOL0     H22276  -0.707   0.683  -0.309 -0.0906 -1.0273  1.9903
  906MOL0     H22277  -0.595   0.647  -0.442 -1.5351 -1.6274 -0.2110
  906MOL0     H22278  -0.635   0.436  -0.360 -2.0722  1.2520 -0.0719
  906MOL0     H22279  -0.478   0.481  -0.301 -1.2428 -1.7599  2.7028
  906MOL0     H22280  -0.577   0.581  -0.091  0.7503 -0.2976  1.3539
  906MOL0     H22281  -0.560   0.408  -0.109 -1.3431  0.4464  0.5870
  906MOL0     H22282  -0.821   0.575  -0.149  1.8082  1.6264  0.1841
  906MOL0     H22283  -0.814   0.401  -0.174 -0.6832 -0.8578  0.5942
  906MOL0     H22284  -0.763   0.558   0.096  1.0431  1.3857 -1.8160
  906MOL0     H22285  -0.730   0.386   0.072 -2.1425 -0.1579  0.9356
  906MOL0     H22286  -1.013   0.480   0.034  0.3874  2.5982  0.3719
  906MOL0     H22287  -0.943   0.320   0.080 -1.6415 -0.4105 -0.6930
  906MOL0     H22288  -0.980   0.560   0.256 -1.0559 -0.2746  0.1476
  906MOL0     H22289  -0.862   0.431   0.285  1.6628  0.0964 -3.9008
  906MOL0     H22290  -1.084   0.412   0.387  0.1797  0.5809  0.4956
  906MOL0     H22291  -1.070   0.277   0.272 -0.4896  0.3195  0.8080
  906MOL0     H22292  -0.332   0.796  -0.087  0.5171 -2.2556  1.4418
  906MOL0     H22293  -0.080   0.768  -0.107 -0.8821  0.5918  0.3927
  906MOL0     H22294   0.233   0.574  -0.216 -1.4463  0.1763 -2.1454
  906MOL0     H22295   0.453   0.497  -0.198  0.0151  1.4078 -0.3769
  906MOL0     H22296   1.884   1.432   0.391 -1.7880 -1.2817  3.8316
  906MOL0     H22297   2.067   1.561   0.530  2.7546  0.2490  1.5421
  906MOL0     H22298   2.509   1.560   0.629  0.7903  2.4722 -0.7761
  906MOL0     H22299   2.693   1.703   0.743  0.2340  0.4572  0.6266
  906MOL0     H22300   2.884   1.778   1.134  0.3969  0.8691 -0.7916
  906MOL0     H22301   2.777   1.644   1.192  1.9379  1.5196  2.7617
  906MOL0     H22302   3.022   1.608   1.009 -0.8061 -0.4031 -1.0918
  906MOL0     H22303   2.919   1.478   1.051  0.1345 -0.4496  0.8026
  906MOL0     H22304   2.964   1.502   1.297  0.6391 -0.8522  1.4337
  906MOL0     H22305   3.063   1.648   1.266  2.0957  0.7356 -3.5250
  906MOL0     H22306   3.114   1.368   1.179  1.2692  1.0779 -2.2510
  906MOL0     H22307   3.180   1.426   1.329 -1.0113 -1.7569 -0.9948
  906MOL0     H22308   3.455   1.590   1.042  0.4102  0.0659  0.3473
  906MOL0     H22309   2.601   1.534   1.122  0.5717 -4.0839 -0.1505
  906MOL0     H22310   2.422   1.409   1.022 -0.3225  1.0438  0.9110
  907MOL0     O22311  10.871  10.129   4.613  0.2335 -0.8504  0.3144
  907MOL0     C22312  10.924  10.085   4.502  0.1490  0.1672 -0.2695
  907MOL0     O22313  10.864  10.053   4.380  0.2451 -0.1157 -0.6591
  907MOL0     C22314  10.735  10.083   4.365  0.1556 -0.0288  0.6024
  907MOL0     C22315  10.629  10.032   4.448 -0.5550 -0.1126  0.0813
  907MOL0     C22316  10.495  10.070   4.424 -0.1464 -0.5002  0.4917
  907MOL0     C22317  10.465  10.139   4.309  1.0367  0.4615  0.1779
  907MOL0     O22318  10.331  10.163   4.271  0.5049 -0.4646 -0.2755
  907MOL0     C22319  10.223  10.140   4.372  0.4754  0.8002  0.0134
  907MOL0     C22320  10.103  10.174   4.279  0.1782 -0.0783  0.3262
  907MOL0     C22321   9.967  10.161   4.343  0.4146 -1.3169  0.3000
  907MOL0     C22322   9.850  10.201   4.251  0.6728 -0.4958 -0.6139
  907MOL0     C22323   9.721  10.173   4.327 -0.1103  0.7969 -0.0357
  907MOL0     C22324   9.675  10.026   4.316  0.7098  0.2734  0.1813
  907MOL0     C22325   9.586   9.971   4.431  0.4374  0.2109 -0.3903
  907MOL0     C22326   9.458  10.049   4.423  0.7788 -0.6026 -0.0766
  907MOL0     N22327   9.348   9.989   4.495 -0.8633 -0.8225 -0.2854
  907MOL0     C22328   9.246   9.922   4.428 -0.1462 -0.1275 -0.9311
  907MOL0     C22329   9.141   9.928   4.512  0.7486 -0.3662  0.9837
  907MOL0     C22330   9.004   9.882   4.474  0.1570  0.9413  0.7796
  907MOL0     C22331   8.911   9.856   4.594 -0.2345  0.1325  0.0045
  907MOL0     C22332   8.779   9.780   4.555 -0.5266  0.3950  0.2681
  907MOL0     C22333   8.710   9.850   4.438  0.6363  0.3675  0.6883
  907MOL0     O22334   8.613   9.753   4.382 -0.3219 -0.4518 -0.7707
  907MOL0     C22335   8.482   9.775   4.394 -0.0339 -0.8863 -0.3658
  907MOL0     C22336   8.426   9.844   4.502  0.3580  0.5026 -0.9279
  907MOL0     C22337   8.280   9.837   4.525  0.5035 -0.0984 -0.0106
  907MOL0     C22338   8.227   9.916   4.645 -0.4489 -0.4565  0.2336
  907MOL0     C22339   8.196   9.766   4.442  0.1176  0.3521  0.1220
  907MOL0     C22340   8.049   9.752   4.458 -0.2479  0.7072 -0.7112
  907MOL0     O22341   7.990   9.772   4.576  0.4221  0.4166 -0.1730
  907MOL0     C22342   7.856   9.745   4.609  0.5963 -0.7337  0.9704
  907MOL0     C22343   7.766   9.659   4.538  0.1857  0.2987 -0.0071
  907MOL0     C22344   7.648   9.629   4.600 -0.3978  0.0707  0.3603
  907MOL0     C22345   7.602   9.685   4.713  0.7703 -0.5324 -0.2837
  907MOL0     O22346   7.481   9.656   4.776  0.1895  0.5794 -0.8731
  907MOL0     C22347   7.375   9.606   4.685  0.3859 -0.0780  0.1814
  907MOL0     C22348   7.234   9.610   4.747 -0.0157 -0.8133 -0.0414
  907MOL0     C22349   7.127   9.560   4.656  0.3596 -0.1582 -0.0587
  907MOL0     C22350   6.987   9.566   4.717 -0.2033  0.9757  0.4035
  907MOL0     C22351   6.888   9.579   4.597  0.0242  0.5839  0.2460
  907MOL0     C22352   6.744   9.588   4.648 -0.6506 -0.3596  1.0453
  907MOL0     C22353   6.653   9.656   4.547 -0.2603  0.6011 -0.4959
  907MOL0     C22354   6.503   9.623   4.573  0.0941  0.1677 -0.5160
  907MOL0    Cl22355   6.449   9.472   4.641  0.5989 -0.0505  0.2018
  907MOL0     C22356   7.687   9.772   4.777 -0.5276  0.3085 -0.1596
  907MOL0     C22357   7.808   9.802   4.722 -0.2518  0.0518 -0.0716
  907MOL0     O22358   7.986   9.740   4.356  0.5526 -0.4611  0.3945
  907MOL0     C22359   8.264   9.706   4.327 -0.5841 -0.4785 -0.1937
  907MOL0     C22360   8.405   9.712   4.302 -0.2882  0.0655  0.6053
  907MOL0     N22361   9.181   9.972   4.639  0.0242 -0.1418 -0.4809
  907MOL0     N22362   9.307  10.010   4.623 -0.5813 -0.1098  0.7341
  907MOL0     C22363  10.564  10.187   4.222  0.0349 -0.2668 -0.6650
  907MOL0     C22364  10.696  10.155   4.249 -0.1091  0.4870  0.1559
  907MOL0     C22365  11.064  10.038   4.503  0.4003 -0.6909 -0.9602
  907MOL0     C22366  11.155  10.108   4.587 -0.1639  1.2320 -0.0002
  907MOL0     C22367  11.290  10.065   4.585 -0.2127 -0.5281  0.0842
  907MOL0     C22368  11.336   9.969   4.493  1.1323  0.3467  0.5569
  907MOL0     O22369  11.465   9.923   4.502 -0.5118 -0.0247  0.0478
  907MOL0     C22370  11.517   9.861   4.387 -0.0620  0.0319 -0.3873
  907MOL0     C22371  11.674   9.862   4.421  0.6154 -0.3758 -0.0436
  907MOL0     C22372  11.740   9.739   4.343 -0.1154  0.4302 -0.3364
  907MOL0     C22373  11.892   9.749   4.372  0.5817  0.5826  0.5274
  907MOL0     C22374  11.962   9.647   4.290  0.3722  0.0141  0.2353
  907MOL0     C22375  12.033   9.574   4.224 -0.2245  0.1475  0.4235
  907MOL0     C22376  11.242   9.909   4.406 -0.1805 -0.8935  0.0599
  907MOL0     C22377  11.107   9.948   4.406  0.3255  0.0434 -0.3378
  907MOL0     H22378  10.645   9.960   4.527 -3.6958 -1.7241 -0.5840
  907MOL0     H22379  10.420  10.037   4.496 -0.6960 -2.1494 -0.7658
  907MOL0     H22380  10.226  10.032   4.388  2.6853  0.6060 -1.3108
  907MOL0     H22381  10.235  10.200   4.463 -0.3296 -0.8578  1.2777
  907MOL0     H22382  10.123  10.277   4.250  1.4843 -0.9945 -2.3327
  907MOL0     H22383  10.117  10.126   4.182 -0.4147  0.0644  0.1634
  907MOL0     H22384   9.957  10.064   4.394  2.9167 -0.8784  1.8128
  907MOL0     H22385   9.975  10.238   4.420  2.5738 -0.8931 -0.2826
  907MOL0     H22386   9.862  10.307   4.225  1.1060 -0.5163 -0.5098
  907MOL0     H22387   9.861  10.143   4.159 -0.2295 -1.1343 -0.3279
  907MOL0     H22388   9.731  10.206   4.431  0.2466 -0.1707  0.2558
  907MOL0     H22389   9.642  10.232   4.281 -1.4994 -2.7676 -2.7059
  907MOL0     H22390   9.631  10.017   4.216  2.7753  1.8730 -0.9725
  907MOL0     H22391   9.773   9.979   4.329  0.8019  0.2278 -0.6231
  907MOL0     H22392   9.566   9.864   4.418 -0.2209  0.2634  0.1058
  907MOL0     H22393   9.631   9.989   4.529  1.2595 -1.1437 -0.4873
  907MOL0     H22394   9.436  10.063   4.317  2.8782  3.4046 -0.2015
  907MOL0     H22395   9.477  10.147   4.467 -1.5993 -0.2779  0.3177
  907MOL0     H22396   9.246   9.894   4.323 -2.4413  1.0898 -1.3272
  907MOL0     H22397   8.952   9.954   4.411 -0.8297  0.6805  1.2770
  907MOL0     H22398   9.005   9.786   4.420 -3.3711  0.6541  1.0329
  907MOL0     H22399   8.882   9.943   4.653  0.8804 -2.2514  4.5090
  907MOL0     H22400   8.964   9.791   4.663  2.8924  1.5878 -0.8570
  907MOL0     H22401   8.708   9.776   4.639 -2.0122 -0.5600 -0.9868
  907MOL0     H22402   8.814   9.680   4.531 -1.0028  0.5286 -1.0322
  907MOL0     H22403   8.777   9.879   4.357  1.1210  1.4150  1.4511
  907MOL0     H22404   8.663   9.944   4.465  1.5866  1.4036 -1.1055
  907MOL0     H22405   8.483   9.902   4.573  1.1182 -1.3198  0.0272
  907MOL0     H22406   8.137   9.976   4.634  0.3769  0.6966 -0.5398
  907MOL0     H22407   8.213   9.837   4.719 -1.6868 -2.4288 -1.9889
  907MOL0     H22408   8.305   9.975   4.695 -0.7582 -0.6053  0.9019
  907MOL0     H22409   7.798   9.607   4.449  0.6747  0.3713  0.1229
  907MOL0     H22410   7.592   9.552   4.549  0.3639  0.4410 -1.0919
  907MOL0     H22411   7.375   9.656   4.588 -2.0772 -1.7444 -0.7797
  907MOL0     H22412   7.397   9.502   4.657  1.5006  0.0125  0.6728
  907MOL0     H22413   7.234   9.558   4.843 -2.1805 -1.1863 -0.2068
  907MOL0     H22414   7.203   9.714   4.765 -1.1354 -1.0281 -0.6109
  907MOL0     H22415   7.148   9.456   4.630 -1.1678  0.1207 -2.7316
  907MOL0     H22416   7.125   9.616   4.562 -2.0552 -2.7723 -1.7010
  907MOL0     H22417   6.972   9.478   4.780  0.2561 -0.1144 -0.9525
  907MOL0     H22418   6.973   9.657   4.776  2.9280  2.2225 -0.5633
  907MOL0     H22419   6.894   9.489   4.536  2.1283  0.1724  0.9836
  907MOL0     H22420   6.918   9.663   4.534  1.5569 -1.1562 -1.4578
  907MOL0     H22421   6.712   9.487   4.673 -1.6750 -0.8332 -1.8379
  907MOL0     H22422   6.735   9.649   4.739 -3.3843  1.0374 -0.0557
  907MOL0     H22423   6.689   9.619   4.450  0.3702 -1.3134  0.4114
  907MOL0     H22424   6.661   9.765   4.552  1.4015  0.4834  0.3308
  907MOL0     H22425   6.459   9.625   4.473 -0.7480  1.0947 -0.1418
  907MOL0     H22426   6.461   9.702   4.636  1.9681 -1.5154  3.1660
  907MOL0     H22427   7.664   9.804   4.878  2.3941  0.6005  0.4999
  907MOL0     H22428   7.876   9.866   4.778  1.6178 -2.1168  0.2832
  907MOL0     H22429   8.195   9.660   4.256  1.5705 -0.8106 -2.1739
  907MOL0     H22430   8.453   9.665   4.217 -0.1258  2.5095 -0.7492
  907MOL0     H22431  10.535  10.242   4.133  1.5937  2.8403  0.5834
  907MOL0     H22432  10.774  10.193   4.184 -1.4352  0.5189 -1.4851
  907MOL0     H22433  11.126  10.173   4.668 -1.2601 -2.1863  2.5893
  907MOL0     H22434  11.362  10.111   4.652  0.7446 -1.5501 -0.2247
  907MOL0     H22435  11.490   9.756   4.373 -1.1817  0.1429  0.7468
  907MOL0     H22436  11.498   9.914   4.294 -2.3985 -3.1229 -1.8928
  907MOL0     H22437  11.676   9.851   4.530 -4.9400  1.2506  0.5149
  907MOL0     H22438  11.710   9.962   4.398  0.3643 -0.5645 -1.3272
  907MOL0     H22439  11.722   9.753   4.236  0.9239  1.4432 -0.4034
  907MOL0     H22440  11.700   9.645   4.382  1.6392 -0.4718 -0.6312
  907MOL0     H22441  11.903   9.719   4.476 -2.6609 -1.0952  0.5324
  907MOL0     H22442  11.939   9.841   4.335  1.3642 -0.1624 -0.3820
  907MOL0     H22443  12.095   9.507   4.169 -1.1586 -0.1276 -0.3140
  907MOL0     H22444  11.271   9.836   4.332  0.6685  0.7995 -1.3526
  907MOL0     H22445  11.048   9.893   4.333 -1.0069  3.1389 -1.7664
  908MOL0     O22446   4.438   3.916   1.869 -0.2503  0.2768  0.2763
  908MOL0     C22447   4.477   3.805   1.906  0.4546 -0.9440  0.3672
  908MOL0     O22448   4.401   3.695   1.906  0.3862 -0.7246  0.2809
  908MOL0     C22449   4.276   3.704   1.848  0.4781 -0.2246  0.1628
  908MOL0     C22450   4.159   3.724   1.920  0.0404 -0.5716  0.4061
  908MOL0     C22451   4.036   3.739   1.846  0.7406  0.7792  0.5598
  908MOL0     C22452   4.038   3.740   1.710  0.2786  0.7304 -0.0985
  908MOL0     O22453   3.924   3.762   1.633  0.2805 -0.2624  0.1315
  908MOL0     C22454   3.816   3.674   1.660  0.0745  1.2694 -0.4265
  908MOL0     C22455   3.700   3.708   1.569  0.4587 -0.2892  1.1946
  908MOL0     C22456   3.611   3.584   1.534 -0.0502  0.3237  0.5046
  908MOL0     C22457   3.502   3.632   1.429  0.2021  0.0714 -0.2722
  908MOL0     C22458   3.452   3.515   1.350  0.1513 -0.3187 -0.6887
  908MOL0     C22459   3.331   3.437   1.415  0.4683  0.3869 -0.0906
  908MOL0     C22460   3.275   3.321   1.334 -0.3992  0.0710 -0.4181
  908MOL0     C22461   3.163   3.260   1.418  0.1285 -0.6895 -0.5103
  908MOL0     N22462   3.101   3.158   1.333  0.3065  0.3474 -0.1341
  908MOL0     C22463   3.000   3.189   1.247 -0.2535  0.8771  0.2785
  908MOL0     C22464   2.942   3.065   1.218 -0.1091  0.6439  0.1900
  908MOL0     C22465   2.828   3.045   1.119 -0.1516 -0.1927  0.1400
  908MOL0     C22466   2.692   3.055   1.204 -0.4242  0.6297 -0.3118
  908MOL0     C22467   2.667   2.931   1.299  0.5001 -0.0098 -0.1027
  908MOL0     C22468   2.519   2.941   1.348  0.6857  0.0742  0.3499
  908MOL0     O22469   2.477   2.813   1.399 -0.2207 -0.6545  0.2756
  908MOL0     C22470   2.427   2.718   1.312  0.2987 -0.2577  0.3283
  908MOL0     C22471   2.348   2.617   1.366 -0.1692 -0.8520 -0.6439
  908MOL0     C22472   2.274   2.529   1.292 -0.3568  0.3181  0.6114
  908MOL0     C22473   2.192   2.428   1.366 -0.0566  0.9360 -0.0084
  908MOL0     C22474   2.275   2.540   1.152  1.0656  0.7013  0.6578
  908MOL0     C22475   2.198   2.461   1.050 -0.2212  0.7344 -0.8958
  908MOL0     O22476   2.241   2.464   0.915  0.2441  0.0491 -0.6655
  908MOL0     C22477   2.153   2.393   0.832  0.1131 -1.1744 -0.2402
  908MOL0     C22478   2.060   2.453   0.746 -0.1208  0.4785  0.5243
  908MOL0     C22479   1.975   2.377   0.668  0.3510  1.4242 -0.1477
  908MOL0     C22480   1.971   2.237   0.680  0.7096 -0.2350  0.6203
  908MOL0     O22481   1.870   2.180   0.613 -0.3060 -0.2935  0.0096
  908MOL0     C22482   1.791   2.109   0.707  0.2351 -0.6613 -0.0532
  908MOL0     C22483   1.692   2.026   0.628  0.3777 -0.0220  0.0324
  908MOL0     C22484   1.618   2.109   0.518 -0.4521 -0.4840  0.5416
  908MOL0     C22485   1.493   2.025   0.477 -0.4094 -0.2547  0.3948
  908MOL0     C22486   1.413   2.099   0.370 -0.1342  0.0283  0.3783
  908MOL0     C22487   1.284   2.015   0.353 -0.2549  0.8278  0.3540
  908MOL0     C22488   1.191   2.093   0.260 -0.8797 -0.0295 -0.2965
  908MOL0     C22489   1.056   2.038   0.252  0.5683 -0.1799 -0.9499
  908MOL0    Cl22490   1.038   1.870   0.244 -0.0665 -0.2757 -0.5168
  908MOL0     C22491   2.068   2.169   0.761  0.0820  0.1333  0.2102
  908MOL0     C22492   2.159   2.252   0.837  0.7717  0.2841 -0.1802
  908MOL0     O22493   2.104   2.388   1.089 -0.1959  0.0472 -0.2287
  908MOL0     C22494   2.346   2.641   1.094  0.2094  0.2038  0.4411
  908MOL0     C22495   2.427   2.725   1.168  0.2874 -0.4358 -0.2213
  908MOL0     N22496   3.014   2.972   1.288 -0.4239  0.5533  0.0825
  908MOL0     N22497   3.113   3.023   1.355  0.1769 -0.4502  0.0950
  908MOL0     C22498   4.142   3.696   1.634  0.5347 -0.4110 -0.3571
  908MOL0     C22499   4.260   3.680   1.708  0.1581 -0.2752  0.0524
  908MOL0     C22500   4.617   3.780   1.944  0.2936  0.2707 -0.5627
  908MOL0     C22501   4.718   3.879   1.922  0.2295  0.1851  1.1175
  908MOL0     C22502   4.851   3.851   1.966 -0.7361 -0.2464  0.1943
  908MOL0     C22503   4.885   3.721   2.022 -0.3338  0.4783 -0.1313
  908MOL0     O22504   5.010   3.680   2.061  0.1545 -0.6097  0.4554
  908MOL0     C22505   5.128   3.767   2.045 -0.7334 -0.3406  0.3757
  908MOL0     C22506   5.133   3.875   2.157 -0.1126  0.0256 -0.1203
  908MOL0     C22507   5.192   3.828   2.291  0.4864  0.0528 -1.1104
  908MOL0     C22508   5.341   3.765   2.291 -0.1981 -0.3466  0.3681
  908MOL0     C22509   5.437   3.867   2.251  0.1701 -0.1484  0.6114
  908MOL0     C22510   5.514   3.954   2.206 -0.7347 -0.1234 -0.0195
  908MOL0     C22511   4.781   3.631   2.051 -0.2972 -0.3614 -0.2763
  908MOL0     C22512   4.656   3.662   2.008 -0.4554 -0.5181 -0.1604
  908MOL0     H22513   4.159   3.725   2.029 -4.4454 -0.9357  0.6122
  908MOL0     H22514   3.939   3.771   1.884 -1.0062  0.6436 -3.3087
  908MOL0     H22515   3.853   3.572   1.646 -0.1644  0.8511  1.6219
  908MOL0     H22516   3.783   3.684   1.764  1.3567  2.0365 -0.0656
  908MOL0     H22517   3.637   3.788   1.609 -0.5455  0.2167 -1.2342
  908MOL0     H22518   3.753   3.735   1.477 -0.1252 -0.9952  0.6339
  908MOL0     H22519   3.681   3.512   1.491  1.3975  2.2497 -0.4916
  908MOL0     H22520   3.570   3.542   1.626  1.6792  0.1979  1.2424
  908MOL0     H22521   3.423   3.687   1.480  0.1109 -0.5830  0.3055
  908MOL0     H22522   3.547   3.703   1.358  1.4875  0.8184  1.2071
  908MOL0     H22523   3.429   3.547   1.248  1.3317 -3.1496 -1.9454
  908MOL0     H22524   3.535   3.445   1.345  2.3235  1.7895  2.4315
  908MOL0     H22525   3.358   3.399   1.514 -2.9971  1.4261  1.3829
  908MOL0     H22526   3.251   3.508   1.433  0.0623 -0.1045  0.0637
  908MOL0     H22527   3.244   3.353   1.234 -0.8385 -0.2845 -0.4021
  908MOL0     H22528   3.352   3.243   1.329 -0.0769  0.2772  0.9409
  908MOL0     H22529   3.087   3.333   1.445 -0.6509 -0.6414 -2.6655
  908MOL0     H22530   3.208   3.219   1.509  2.3697  1.3768 -0.5826
  908MOL0     H22531   2.954   3.286   1.235  1.0826  1.3485 -1.4313
  908MOL0     H22532   2.824   3.130   1.050 -2.8180  1.4668  2.0964
  908MOL0     H22533   2.836   2.956   1.057 -4.0981  0.0905 -1.0160
  908MOL0     H22534   2.607   3.075   1.138 -0.7917 -0.5947 -0.2370
  908MOL0     H22535   2.700   3.145   1.266 -0.2708 -0.0846  0.7294
  908MOL0     H22536   2.737   2.920   1.382  0.9272  0.8855 -0.3320
  908MOL0     H22537   2.681   2.842   1.237 -2.4694  0.3301 -1.4352
  908MOL0     H22538   2.451   2.978   1.272  0.7483  2.3949  1.3380
  908MOL0     H22539   2.510   3.015   1.428 -0.4413  1.0001 -0.6065
  908MOL0     H22540   2.346   2.598   1.473  0.7027 -0.0113 -0.4586
  908MOL0     H22541   2.186   2.454   1.472 -0.1051  1.4489 -0.1353
  908MOL0     H22542   2.089   2.418   1.332 -0.4189  0.2660  1.2054
  908MOL0     H22543   2.232   2.327   1.357 -0.0400  0.6475  2.4836
  908MOL0     H22544   2.058   2.561   0.738 -0.5951  0.4251 -0.1702
  908MOL0     H22545   1.897   2.424   0.609 -0.4455  1.6518  1.0418
  908MOL0     H22546   1.846   2.051   0.782 -0.7643 -1.3340  0.1684
  908MOL0     H22547   1.724   2.183   0.752  1.6775 -0.5933  2.1820
  908MOL0     H22548   1.745   1.942   0.581 -1.4367 -0.3489 -1.5985
  908MOL0     H22549   1.622   1.981   0.699  0.8438 -1.4332 -0.3547
  908MOL0     H22550   1.680   2.134   0.432 -2.0103 -2.4027 -1.2542
  908MOL0     H22551   1.583   2.202   0.564 -0.4871 -0.0022 -0.4488
  908MOL0     H22552   1.519   1.928   0.435 -3.7816 -0.5290 -1.3962
  908MOL0     H22553   1.426   2.008   0.562 -3.4694 -1.7018 -2.0944
  908MOL0     H22554   1.480   2.113   0.285  2.0214 -2.2077  1.5896
  908MOL0     H22555   1.382   2.199   0.403 -1.6147 -1.3006  3.4680
  908MOL0     H22556   1.311   1.918   0.310  0.7645  1.1528  0.2283
  908MOL0     H22557   1.239   1.982   0.447  1.6782  2.0765  1.8101
  908MOL0     H22558   1.233   2.087   0.160  2.9811  0.5729  1.0989
  908MOL0     H22559   1.182   2.196   0.294 -0.5430 -0.6661  1.9190
  908MOL0     H22560   1.016   2.072   0.155  0.7299  2.5655 -0.1425
  908MOL0     H22561   0.995   2.084   0.331  1.7602  2.6870 -1.5836
  908MOL0     H22562   2.068   2.061   0.764  0.1070  0.1488  1.5363
  908MOL0     H22563   2.222   2.195   0.905 -0.1488 -3.0647 -1.8695
  908MOL0     H22564   2.351   2.653   0.987 -1.4665 -0.2819  0.2703
  908MOL0     H22565   2.493   2.790   1.111 -0.9002 -0.9225 -2.2493
  908MOL0     H22566   4.132   3.698   1.526  0.2871  2.0077 -0.3373
  908MOL0     H22567   4.349   3.649   1.654 -0.2341 -0.8130 -0.2925
  908MOL0     H22568   4.699   3.968   1.863  1.6726 -0.2768 -0.0982
  908MOL0     H22569   4.926   3.929   1.954 -1.3793  0.3967  0.2826
  908MOL0     H22570   5.222   3.711   2.046 -0.8213 -0.5024 -0.3856
  908MOL0     H22571   5.113   3.816   1.949  1.4089 -2.6697 -1.2860
  908MOL0     H22572   5.034   3.921   2.170 -0.0534 -0.2012  1.2464
  908MOL0     H22573   5.187   3.961   2.116 -2.0219  1.1314 -0.4611
  908MOL0     H22574   5.131   3.743   2.323  3.2498 -1.8109 -0.3799
  908MOL0     H22575   5.180   3.899   2.374  0.5853  0.1759 -1.2012
  908MOL0     H22576   5.347   3.682   2.219 -1.4268  0.2507 -0.4654
  908MOL0     H22577   5.369   3.724   2.388 -0.7479  0.2181  0.7745
  908MOL0     H22578   5.568   4.029   2.153  0.1790 -2.5940 -2.9272
  908MOL0     H22579   4.817   3.545   2.107 -1.3960 -1.7116 -1.5405
  908MOL0     H22580   4.583   3.582   2.020 -0.8342 -0.3931 -1.4801
  909MOL0     O22581   4.231   6.701   7.380 -0.0467 -0.3066  0.0833
  909MOL0     C22582   4.284   6.811   7.352 -0.2931  0.2150 -0.9505
  909MOL0     O22583   4.227   6.917   7.291  0.1048  0.1527  0.0295
  909MOL0     C22584   4.092   6.910   7.270  0.0056 -0.0414  0.0982
  909MOL0     C22585   4.048   6.913   7.139  0.1692 -0.5345  0.0794
  909MOL0     C22586   3.907   6.909   7.109 -0.2385  0.5837  0.0153
  909MOL0     C22587   3.817   6.892   7.213  0.5379  0.4918  0.6643
  909MOL0     O22588   3.681   6.880   7.175  0.4102  0.0324 -0.4148
  909MOL0     C22589   3.582   6.901   7.270  0.2279 -0.4588 -0.2165
  909MOL0     C22590   3.447   6.944   7.214 -0.1222 -0.3223 -0.8341
  909MOL0     C22591   3.453   7.087   7.153 -0.2093  0.6375  0.2407
  909MOL0     C22592   3.314   7.147   7.134 -0.4813  0.2868 -0.4263
  909MOL0     C22593   3.236   7.081   7.019  0.5403  0.0313 -0.4134
  909MOL0     C22594   3.100   7.158   7.016  0.7259  0.0115  0.6355
  909MOL0     C22595   3.116   7.279   6.914  0.7579  0.7226  0.6219
  909MOL0     C22596   2.997   7.377   6.900  0.1915  0.3678 -0.0823
  909MOL0     N22597   2.979   7.445   7.027 -0.1281  0.4982  0.8022
  909MOL0     C22598   3.051   7.548   7.077  0.1230  0.4860  0.5562
  909MOL0     C22599   3.005   7.561   7.203 -0.2391  0.9855 -0.5085
  909MOL0     C22600   3.041   7.665   7.305  0.0845  0.3728 -0.5286
  909MOL0     C22601   2.914   7.752   7.332  0.7254 -0.2356  0.1650
  909MOL0     C22602   2.931   7.858   7.436  0.5878 -0.2079  0.3663
  909MOL0     C22603   2.800   7.899   7.510  0.7948  0.1622 -1.0825
  909MOL0     O22604   2.705   7.944   7.402 -0.0090 -0.6687 -0.5201
  909MOL0     C22605   2.578   7.972   7.439  0.1153  0.2046 -0.4887
  909MOL0     C22606   2.481   7.914   7.357 -0.7719 -0.6237 -0.7066
  909MOL0     C22607   2.349   7.944   7.382 -0.3748 -0.5206  0.8182
  909MOL0     C22608   2.244   7.885   7.292  0.4683 -0.3954  0.1513
  909MOL0     C22609   2.311   8.030   7.488  0.2587 -0.4116  1.1018
  909MOL0     C22610   2.174   8.081   7.526  0.7783  0.8015  0.1436
  909MOL0     O22611   2.072   8.092   7.436  0.1662  0.0366 -0.2340
  909MOL0     C22612   1.942   8.143   7.456 -0.7487  0.2058 -0.8200
  909MOL0     C22613   1.904   8.235   7.559  0.5878  0.3363  0.6659
  909MOL0     C22614   1.770   8.286   7.555  0.2680  0.7032 -0.1642
  909MOL0     C22615   1.677   8.241   7.462  0.4393 -0.4408 -0.7361
  909MOL0     O22616   1.548   8.286   7.471 -1.2652  0.6149 -0.0679
  909MOL0     C22617   1.454   8.257   7.363  0.5069 -0.3565  0.5281
  909MOL0     C22618   1.319   8.322   7.395 -1.0947 -0.3457 -0.1881
  909MOL0     C22619   1.208   8.291   7.299  0.3621 -0.1490 -0.8391
  909MOL0     C22620   1.094   8.404   7.312  0.3372  0.5721  0.5740
  909MOL0     C22621   0.968   8.364   7.235 -0.7729  0.2792  0.3986
  909MOL0     C22622   0.862   8.464   7.248 -0.5507 -0.1738  0.1602
  909MOL0     C22623   0.732   8.419   7.170  0.4616 -0.4605  0.8373
  909MOL0     C22624   0.636   8.535   7.156  0.8660  0.1214  0.4923
  909MOL0    Cl22625   0.506   8.492   7.044  0.0556 -0.4166  0.0502
  909MOL0     C22626   1.717   8.146   7.368 -0.2032 -0.7351 -0.2912
  909MOL0     C22627   1.853   8.111   7.356 -0.0293 -0.0704 -0.3448
  909MOL0     O22628   2.158   8.082   7.650  0.3060 -0.8356  0.2128
  909MOL0     C22629   2.415   8.080   7.566  0.1476 -0.5467 -0.0541
  909MOL0     C22630   2.546   8.051   7.550  0.1245 -0.0990  0.2205
  909MOL0     N22631   2.920   7.457   7.220 -0.5163  0.1283  0.1667
  909MOL0     N22632   2.888   7.396   7.118  0.0803  0.2311  0.0763
  909MOL0     C22633   3.861   6.888   7.350 -0.6980  0.7805  0.2294
  909MOL0     C22634   4.000   6.905   7.381 -0.1918  0.6031  0.2498
  909MOL0     C22635   4.426   6.829   7.401  0.3547 -1.1924 -0.2847
  909MOL0     C22636   4.479   6.734   7.488 -0.1261 -0.2309  0.3732
  909MOL0     C22637   4.603   6.750   7.539 -0.1057  0.3865 -0.8539
  909MOL0     C22638   4.677   6.861   7.502  0.4254 -0.5503 -0.1618
  909MOL0     O22639   4.804   6.838   7.542  0.1275  1.1800 -0.1041
  909MOL0     C22640   4.904   6.942   7.516 -0.3762 -0.4322 -0.2543
  909MOL0     C22641   5.050   6.909   7.552  0.4171 -0.1991  0.4396
  909MOL0     C22642   5.079   6.902   7.705  0.5889  0.1133 -0.5560
  909MOL0     C22643   5.203   6.809   7.737 -0.4727  0.0318  0.0845
  909MOL0     C22644   5.329   6.881   7.705  0.2314 -0.2421  0.3252
  909MOL0     C22645   5.416   6.957   7.665 -0.3927 -0.1977 -0.4077
  909MOL0     C22646   4.625   6.965   7.427 -0.0665 -0.1412 -0.1918
  909MOL0     C22647   4.497   6.946   7.376  0.0571 -1.5668  1.0415
  909MOL0     H22648   4.108   6.927   7.050 -1.0165 -0.4699 -0.7358
  909MOL0     H22649   3.863   6.915   7.010  0.4963  1.9604 -0.2544
  909MOL0     H22650   3.574   6.816   7.338  0.5542  0.6056  1.1757
  909MOL0     H22651   3.617   6.991   7.320 -1.4488 -0.1186  0.3976
  909MOL0     H22652   3.412   6.878   7.134  2.1540 -1.0159 -1.3342
  909MOL0     H22653   3.373   6.938   7.294 -2.8118 -1.5710 -3.1997
  909MOL0     H22654   3.504   7.154   7.223  1.6504 -2.4648  2.1144
  909MOL0     H22655   3.502   7.082   7.056  0.1281  0.1248  0.4314
  909MOL0     H22656   3.263   7.145   7.230 -1.5857  1.2779 -0.9596
  909MOL0     H22657   3.336   7.250   7.103 -0.7008  0.5078  0.1516
  909MOL0     H22658   3.298   7.102   6.931 -0.5121  2.4645 -0.6460
  909MOL0     H22659   3.220   6.975   7.038 -0.4486  0.4664  1.3789
  909MOL0     H22660   3.024   7.083   6.995  2.7761 -2.6420  2.0371
  909MOL0     H22661   3.081   7.193   7.117  0.5508 -2.6023  1.5890
  909MOL0     H22662   3.203   7.334   6.950  0.8415 -1.0320  3.4250
  909MOL0     H22663   3.131   7.239   6.813 -0.5982 -1.0374  1.0653
  909MOL0     H22664   2.906   7.323   6.872 -0.4950  1.0554  0.7771
  909MOL0     H22665   3.029   7.458   6.835  2.1804  2.7707  3.5101
  909MOL0     H22666   3.124   7.615   7.033 -2.0511  1.1271 -2.4483
  909MOL0     H22667   3.073   7.612   7.395  3.4645  3.3429  0.2298
  909MOL0     H22668   3.128   7.720   7.267  1.6204 -0.9293  0.9609
  909MOL0     H22669   2.836   7.689   7.376  0.1628 -0.5422 -1.2193
  909MOL0     H22670   2.880   7.783   7.233  2.7362  2.9916  0.3467
  909MOL0     H22671   2.983   7.941   7.386  0.4450 -0.3143  0.0400
  909MOL0     H22672   3.006   7.823   7.507  1.3039 -0.3765 -0.4584
  909MOL0     H22673   2.818   7.988   7.571 -0.3993  0.1758 -0.7269
  909MOL0     H22674   2.756   7.822   7.573 -2.7105  2.8875  0.1669
  909MOL0     H22675   2.520   7.851   7.278 -0.3642 -0.2496 -0.8042
  909MOL0     H22676   2.180   7.953   7.236 -2.3511 -2.3595  0.7824
  909MOL0     H22677   2.297   7.818   7.223  0.8408 -0.1920  0.2385
  909MOL0     H22678   2.173   7.831   7.356 -1.2725  0.4535 -1.0181
  909MOL0     H22679   1.972   8.263   7.639  0.8370  1.9139 -0.0528
  909MOL0     H22680   1.728   8.354   7.628  1.1378  2.5901 -1.3356
  909MOL0     H22681   1.493   8.290   7.266  1.6969  1.2965  1.5165
  909MOL0     H22682   1.443   8.149   7.359 -2.9442 -0.1026 -0.5285
  909MOL0     H22683   1.283   8.298   7.495  0.3366  0.4549  0.5522
  909MOL0     H22684   1.339   8.430   7.395 -1.3438 -0.2968  0.5506
  909MOL0     H22685   1.171   8.190   7.316  0.3907 -0.3894 -2.0727
  909MOL0     H22686   1.240   8.283   7.194 -3.2495 -1.3071 -1.9863
  909MOL0     H22687   1.072   8.428   7.416  2.1380  0.8829  0.9211
  909MOL0     H22688   1.135   8.496   7.268  1.6472  0.4065  1.3947
  909MOL0     H22689   0.936   8.264   7.264  2.2206 -0.9686 -0.3251
  909MOL0     H22690   0.994   8.355   7.129  1.2621  1.1939  0.7823
  909MOL0     H22691   0.843   8.478   7.355 -0.7149 -2.3191  0.4658
  909MOL0     H22692   0.907   8.553   7.204  2.0537 -1.8805 -0.8626
  909MOL0     H22693   0.680   8.338   7.221 -3.0733  1.3861  0.4792
  909MOL0     H22694   0.766   8.394   7.069 -1.7165 -0.5900  0.0948
  909MOL0     H22695   0.687   8.627   7.126  2.0559 -0.6774 -0.0120
  909MOL0     H22696   0.600   8.554   7.258 -0.8537 -0.7994  0.0833
  909MOL0     H22697   1.660   8.097   7.289  3.5755 -3.5205 -1.5834
  909MOL0     H22698   1.896   8.039   7.288  1.8445 -1.4860  2.1569
  909MOL0     H22699   2.401   8.152   7.646  1.7872 -0.5645  0.2896
  909MOL0     H22700   2.626   8.086   7.615  0.0823  1.0458 -0.3297
  909MOL0     H22701   3.801   6.866   7.437 -0.1162  1.8264  0.9189
  909MOL0     H22702   4.040   6.891   7.481 -1.0711 -1.2049  0.3883
  909MOL0     H22703   4.431   6.638   7.506  1.3855 -0.9365  0.8963
  909MOL0     H22704   4.645   6.670   7.599  0.8900  2.5675  1.5037
  909MOL0     H22705   4.915   6.954   7.408 -0.3983 -2.4998 -0.5227
  909MOL0     H22706   4.887   7.040   7.562  2.8864  0.4456 -0.7097
  909MOL0     H22707   5.108   6.989   7.507  4.7330 -2.3260  1.6699
  909MOL0     H22708   5.079   6.815   7.503 -0.9334 -0.4290  0.0279
  909MOL0     H22709   4.993   6.859   7.756 -0.0790  1.9131 -0.0883
  909MOL0     H22710   5.099   7.004   7.740 -1.0717  1.0092 -2.0306
  909MOL0     H22711   5.183   6.723   7.672 -2.1256  2.6462 -3.1609
  909MOL0     H22712   5.203   6.777   7.842 -0.0283  2.9415  1.0667
  909MOL0     H22713   5.494   7.013   7.617  0.9159 -1.8967 -0.3368
  909MOL0     H22714   4.677   7.059   7.412 -0.7253  0.3105  0.3136
  909MOL0     H22715   4.453   7.019   7.308  2.2243 -1.4635 -0.3313
  910MOL0     O22716   8.872   2.208   3.759  0.8565  0.3049 -0.2409
  910MOL0     C22717   8.876   2.295   3.852 -0.1152  0.7958  0.9305
  910MOL0     O22718   8.773   2.335   3.929  0.3000  0.6191 -0.4793
  910MOL0     C22719   8.641   2.311   3.905  0.3843  0.1934 -0.5829
  910MOL0     C22720   8.592   2.267   3.780  0.0602 -1.0905  0.6255
  910MOL0     C22721   8.457   2.233   3.767 -0.5513 -0.5010  0.2657
  910MOL0     C22722   8.362   2.244   3.872 -0.1179 -0.0851 -0.3138
  910MOL0     O22723   8.241   2.202   3.849  0.3130  0.3524  0.7577
  910MOL0     C22724   8.170   2.185   3.973  0.1750 -0.1623  0.1754
  910MOL0     C22725   8.028   2.135   3.934 -0.0835  0.0294 -0.0740
  910MOL0     C22726   7.931   2.250   3.933 -0.4054 -0.5085 -0.4113
  910MOL0     C22727   7.859   2.277   3.803 -0.4730 -0.3304  0.6912
  910MOL0     C22728   7.756   2.165   3.783  0.2868  0.1112 -0.3952
  910MOL0     C22729   7.623   2.203   3.857  0.2023 -0.2831  0.2316
  910MOL0     C22730   7.534   2.082   3.889  0.7973 -0.2150 -0.4307
  910MOL0     C22731   7.390   2.107   3.923 -0.0337 -0.2339 -0.1092
  910MOL0     N22732   7.375   2.148   4.066 -0.1548 -0.4831  1.1400
  910MOL0     C22733   7.441   2.112   4.179 -0.3077  0.8960  0.3197
  910MOL0     C22734   7.376   2.170   4.284  0.7522 -0.1026  0.6365
  910MOL0     C22735   7.402   2.162   4.434  0.1140 -0.0647  0.1816
  910MOL0     C22736   7.358   2.037   4.496 -0.1726 -0.0529 -0.7380
  910MOL0     C22737   7.418   1.895   4.450 -0.0692 -0.2162  0.2611
  910MOL0     C22738   7.562   1.877   4.499  0.7532  0.5433  0.0542
  910MOL0     O22739   7.653   1.954   4.421 -0.2773 -0.2064  0.2009
  910MOL0     C22740   7.783   1.941   4.443 -0.6229 -1.0246  0.2128
  910MOL0     C22741   7.871   2.039   4.387 -1.3204 -0.2220 -0.9347
  910MOL0     C22742   8.015   2.037   4.404 -0.0442 -0.0124  0.1837
  910MOL0     C22743   8.098   2.118   4.314  0.1446 -0.0817  0.3725
  910MOL0     C22744   8.068   1.958   4.510  0.6130 -0.7015 -0.1597
  910MOL0     C22745   8.201   1.972   4.570  0.0152 -0.1088 -0.4330
  910MOL0     O22746   8.294   2.051   4.511  0.3942  0.2451 -0.0576
  910MOL0     C22747   8.419   2.051   4.564  0.3855 -0.2483  0.9007
  910MOL0     C22748   8.519   2.015   4.473 -0.7077 -0.0948 -0.3983
  910MOL0     C22749   8.652   2.012   4.522 -0.5543  0.9334  0.4868
  910MOL0     C22750   8.680   2.030   4.660 -0.5785  0.0336  0.3148
  910MOL0     O22751   8.814   2.016   4.705  0.5171 -0.6899 -0.0486
  910MOL0     C22752   8.907   2.097   4.637  0.0015  0.7187  0.7510
  910MOL0     C22753   9.014   2.139   4.727 -0.0156 -0.4311 -0.7572
  910MOL0     C22754   9.126   2.226   4.679  0.2448 -0.2118  0.2903
  910MOL0     C22755   9.200   2.292   4.800  0.0491 -1.2240  0.1789
  910MOL0     C22756   9.296   2.393   4.744  0.2216 -0.4578 -0.1501
  910MOL0     C22757   9.341   2.479   4.861  1.1483 -0.7208  0.7678
  910MOL0     C22758   9.436   2.580   4.790 -0.8317  0.6875  0.5762
  910MOL0     C22759   9.469   2.701   4.870  0.6952 -0.0831 -0.1007
  910MOL0    Cl22760   9.349   2.828   4.831  0.3124 -0.5166 -0.2336
  910MOL0     C22761   8.577   2.072   4.744 -0.6765  0.1115  0.0565
  910MOL0     C22762   8.449   2.083   4.696 -0.6366  0.3129  0.0668
  910MOL0     O22763   8.226   1.900   4.675  0.3038 -0.4773  0.5971
  910MOL0     C22764   7.980   1.867   4.580 -0.0860 -0.2106  0.4126
  910MOL0     C22765   7.845   1.861   4.538 -0.0875 -0.2312  0.1124
  910MOL0     N22766   7.267   2.232   4.231 -0.5835 -0.9248  0.4735
  910MOL0     N22767   7.272   2.217   4.105 -0.7999 -0.7887  0.1129
  910MOL0     C22768   8.422   2.283   3.998 -0.3306 -1.2004  0.2328
  910MOL0     C22769   8.549   2.326   4.012 -0.7997  0.1946  0.0454
  910MOL0     C22770   8.995   2.385   3.863 -0.0019  0.4170 -0.1038
  910MOL0     C22771   9.099   2.371   3.766 -0.1580 -0.1110 -0.0403
  910MOL0     C22772   9.222   2.435   3.781 -0.4700 -0.9960 -0.7080
  910MOL0     C22773   9.250   2.511   3.891 -0.4460  0.4161 -0.0859
  910MOL0     O22774   9.368   2.572   3.911 -0.4603  0.4207 -0.2749
  910MOL0     C22775   9.419   2.561   4.040 -0.8352 -0.5429 -1.0051
  910MOL0     C22776   9.569   2.609   4.042 -0.9903 -0.0006  0.6119
  910MOL0     C22777   9.608   2.751   3.979  0.6096  0.1663 -0.9152
  910MOL0     C22778   9.546   2.873   4.043 -0.1749  0.1611 -0.6200
  910MOL0     C22779   9.398   2.881   4.055  0.5438  0.6184  0.4645
  910MOL0     C22780   9.272   2.875   4.064 -0.5504  0.2474  0.0496
  910MOL0     C22781   9.148   2.526   3.985 -0.2701  0.6178  0.0021
  910MOL0     C22782   9.020   2.462   3.977  0.0267 -0.4678  0.8511
  910MOL0     H22783   8.656   2.264   3.692  1.7016 -2.6684  1.8004
  910MOL0     H22784   8.417   2.210   3.668  0.6070 -3.3093  0.3699
  910MOL0     H22785   8.224   2.098   4.013 -0.4486 -2.6622 -3.7756
  910MOL0     H22786   8.170   2.277   4.032 -0.4857  1.5475 -2.3244
  910MOL0     H22787   8.035   2.093   3.833  2.2849 -0.8507  0.3939
  910MOL0     H22788   7.996   2.060   4.007  0.4734  0.3237  0.4828
  910MOL0     H22789   7.853   2.246   4.010  0.4189 -0.3168  0.4563
  910MOL0     H22790   7.993   2.339   3.952  1.3455 -1.4579 -1.4720
  910MOL0     H22791   7.800   2.369   3.810 -1.8068 -1.2428  2.2162
  910MOL0     H22792   7.929   2.276   3.720  3.0516 -2.9346  3.4071
  910MOL0     H22793   7.723   2.152   3.679 -2.7845 -2.1145  0.7302
  910MOL0     H22794   7.791   2.064   3.805  2.4632  0.8926  0.0202
  910MOL0     H22795   7.639   2.258   3.950 -0.9145 -0.5423  0.5902
  910MOL0     H22796   7.570   2.281   3.802 -2.5461 -0.8574  1.8792
  910MOL0     H22797   7.525   2.021   3.799  0.2388 -0.6157 -0.1111
  910MOL0     H22798   7.576   2.026   3.973 -0.6471 -1.4981 -0.5169
  910MOL0     H22799   7.321   2.026   3.896 -1.4091  1.3046 -1.4533
  910MOL0     H22800   7.349   2.187   3.861  0.1653 -0.3983 -0.4591
  910MOL0     H22801   7.523   2.041   4.184  0.2221  1.0115 -3.6290
  910MOL0     H22802   7.505   2.185   4.461  0.0773 -0.8042  1.0053
  910MOL0     H22803   7.340   2.235   4.486  0.4756  2.1795 -2.3047
  910MOL0     H22804   7.249   2.033   4.495 -0.3467  1.7201  1.7784
  910MOL0     H22805   7.370   2.057   4.603  1.4053 -0.2359 -0.8617
  910MOL0     H22806   7.421   1.880   4.342 -0.1664  1.9523 -0.0880
  910MOL0     H22807   7.364   1.815   4.501  0.2449  0.2215  1.3123
  910MOL0     H22808   7.597   1.773   4.496  1.6893  0.8033  1.1306
  910MOL0     H22809   7.577   1.899   4.605  2.2091 -0.6855  0.1404
  910MOL0     H22810   7.814   2.104   4.322  0.5139  3.5859  0.9673
  910MOL0     H22811   8.031   2.167   4.243  0.8006  2.9805  1.6609
  910MOL0     H22812   8.152   2.200   4.363  1.3092  0.2898 -1.4322
  910MOL0     H22813   8.168   2.053   4.261 -1.9527 -2.8984  0.8545
  910MOL0     H22814   8.503   2.000   4.367  0.4986  0.6805 -0.7158
  910MOL0     H22815   8.729   1.986   4.450 -1.8777  1.9540 -1.3873
  910MOL0     H22816   8.966   2.050   4.557  1.5243  0.6007  1.8904
  910MOL0     H22817   8.854   2.183   4.595  1.8794  1.0238 -1.2068
  910MOL0     H22818   8.959   2.177   4.813 -2.0763 -3.4180 -0.5955
  910MOL0     H22819   9.071   2.052   4.762  1.7994  1.5177  1.5172
  910MOL0     H22820   9.072   2.299   4.618  0.6152  0.5785  0.8861
  910MOL0     H22821   9.188   2.160   4.618 -0.6370 -3.0124  2.2149
  910MOL0     H22822   9.135   2.348   4.868  1.5527  0.0126  0.6559
  910MOL0     H22823   9.253   2.213   4.854 -2.7127 -5.1782 -2.2843
  910MOL0     H22824   9.253   2.454   4.663  0.0664  0.0611  0.3192
  910MOL0     H22825   9.380   2.346   4.691  0.6723  0.7414 -0.5429
  910MOL0     H22826   9.253   2.530   4.901  1.1134 -0.4122  0.2989
  910MOL0     H22827   9.383   2.418   4.942 -1.9560 -1.5039  1.9521
  910MOL0     H22828   9.414   2.615   4.688  0.6392  0.3911  0.1345
  910MOL0     H22829   9.527   2.519   4.780 -1.3687  0.2016 -2.5314
  910MOL0     H22830   9.571   2.738   4.855  0.4216  1.4030  1.3974
  910MOL0     H22831   9.462   2.675   4.976 -0.0246  2.2294  0.4633
  910MOL0     H22832   8.614   2.076   4.846 -4.5979  1.8882  1.5862
  910MOL0     H22833   8.381   2.105   4.778  0.1090 -1.3074  1.1569
  910MOL0     H22834   8.001   1.807   4.667  0.6013  2.2082  2.0037
  910MOL0     H22835   7.786   1.781   4.580  1.6185 -0.1664  2.8295
  910MOL0     H22836   8.363   2.294   4.089 -0.4348  0.3852 -0.0062
  910MOL0     H22837   8.587   2.365   4.106 -0.9452 -0.3093  0.3142
  910MOL0     H22838   9.078   2.316   3.674  0.7166 -1.8299  0.7455
  910MOL0     H22839   9.286   2.439   3.694  0.0304  2.3326 -0.3236
  910MOL0     H22840   9.367   2.635   4.101  0.9504  1.4183 -1.7632
  910MOL0     H22841   9.405   2.464   4.088 -2.8902  0.8340  1.4110
  910MOL0     H22842   9.624   2.531   3.987 -0.4633  1.1905 -0.6115
  910MOL0     H22843   9.600   2.606   4.147 -0.8254 -0.3685  0.5548
  910MOL0     H22844   9.574   2.763   3.875  0.8536  4.6910 -0.6932
  910MOL0     H22845   9.715   2.761   3.998  0.4074 -0.4550  0.7130
  910MOL0     H22846   9.589   2.962   3.996  3.7388 -1.3784 -0.2924
  910MOL0     H22847   9.577   2.874   4.148  2.7354  1.1353 -1.3907
  910MOL0     H22848   9.166   2.876   4.056 -0.6358  1.0696  1.0049
  910MOL0     H22849   9.163   2.580   4.078 -0.1666 -1.8578  1.5113
  910MOL0     H22850   8.952   2.479   4.060 -1.5533  1.5282 -0.7362
  911MOL0     O22851   3.149   4.882   8.844 -0.0928  0.7216  0.1806
  911MOL0     C22852   3.235   4.827   8.914 -0.4029  0.5747 -0.2086
  911MOL0     O22853   3.207   4.724   8.995  0.7323 -0.0987  0.0324
  911MOL0     C22854   3.079   4.675   9.016 -0.4119 -0.1266 -0.3141
  911MOL0     C22855   2.964   4.752   8.996  0.4987  0.7321  1.1025
  911MOL0     C22856   2.835   4.712   9.008 -0.3082  0.1918  0.1293
  911MOL0     C22857   2.812   4.578   9.040  0.0982  0.7677 -0.2501
  911MOL0     O22858   2.682   4.545   9.075 -0.1091  0.3176 -0.1308
  911MOL0     C22859   2.640   4.403   9.074  0.4703 -0.8666  0.2911
  911MOL0     C22860   2.506   4.392   9.128 -0.6655  0.4922  0.2511
  911MOL0     C22861   2.512   4.393   9.278  0.9813 -0.7634 -0.4741
  911MOL0     C22862   2.381   4.372   9.360  0.6366 -0.7520  0.2035
  911MOL0     C22863   2.300   4.502   9.391 -0.4455  1.1754 -0.1262
  911MOL0     C22864   2.215   4.510   9.529  0.1447 -0.8473  0.2504
  911MOL0     C22865   2.071   4.465   9.492 -0.2488  0.6362 -0.2390
  911MOL0     C22866   2.000   4.578   9.416  0.4198  0.3400  0.0334
  911MOL0     N22867   1.856   4.586   9.452 -0.1144  0.0572  0.1842
  911MOL0     C22868   1.813   4.623   9.581 -0.3804  0.0830  0.7965
  911MOL0     C22869   1.682   4.578   9.585  0.0725  0.0939 -0.1625
  911MOL0     C22870   1.604   4.595   9.716  0.0352 -0.3372  0.1985
  911MOL0     C22871   1.481   4.673   9.692 -0.6102  0.5824  0.7032
  911MOL0     C22872   1.507   4.820   9.682  0.6448  1.2580  0.1213
  911MOL0     C22873   1.385   4.897   9.619  0.3572 -0.1330 -0.6492
  911MOL0     O22874   1.278   4.890   9.713  0.1649 -0.5191  0.2697
  911MOL0     C22875   1.144   4.906   9.685 -0.0247 -0.0794  0.1163
  911MOL0     C22876   1.061   4.967   9.772 -0.4983  0.4978 -0.7662
  911MOL0     C22877   0.919   4.966   9.765 -0.2706  0.4090  0.4409
  911MOL0     C22878   0.840   5.023   9.882 -0.2341  0.5449  0.7376
  911MOL0     C22879   0.858   4.897   9.649 -1.1989 -0.2213 -0.4415
  911MOL0     C22880   0.713   4.887   9.620 -0.2740  0.0015 -0.1144
  911MOL0     O22881   0.635   4.887   9.731  0.0049  0.5906  0.0241
  911MOL0     C22882   0.498   4.873   9.718  0.7405 -0.6914 -0.8055
  911MOL0     C22883   0.432   4.750   9.727  0.1909  0.2367 -0.1206
  911MOL0     C22884   0.295   4.737   9.741  0.6289  0.0483  0.2723
  911MOL0     C22885   0.214   4.848   9.737 -0.5310 -1.0399  0.3049
  911MOL0     O22886   0.077   4.825   9.760 -0.4698 -0.2597 -0.3488
  911MOL0     C22887  -0.024   4.932   9.750 -0.3874 -0.1671 -0.7504
  911MOL0     C22888  -0.162   4.866   9.763  0.1088  0.0937  0.5747
  911MOL0     C22889  -0.265   4.969   9.806  0.0200 -0.3432 -0.4496
  911MOL0     C22890  -0.395   4.909   9.851 -0.1081  0.1958  0.1258
  911MOL0     C22891  -0.499   5.012   9.892  0.4593  0.1054 -0.6270
  911MOL0     C22892  -0.625   4.934   9.919  0.4188  0.5606 -0.0684
  911MOL0     C22893  -0.732   5.024   9.977 -0.2359 -0.4718 -0.6588
  911MOL0     C22894  -0.850   4.947  10.029 -0.2907  0.5231  0.4141
  911MOL0    Cl22895  -0.923   4.852   9.895 -0.2582 -0.2944  0.0153
  911MOL0     C22896   0.275   4.971   9.727 -0.0250 -0.2781 -0.1593
  911MOL0     C22897   0.414   4.989   9.710  0.1972 -0.6190 -0.0319
  911MOL0     O22898   0.672   4.881   9.512  0.4713 -0.3863  0.4568
  911MOL0     C22899   0.948   4.830   9.568 -0.4465  0.7467 -0.4357
  911MOL0     C22900   1.090   4.835   9.581  1.2064  0.4476 -0.6629
  911MOL0     N22901   1.649   4.520   9.469  0.2155 -0.1273  0.1433
  911MOL0     N22902   1.748   4.525   9.387  0.4010 -0.4657 -0.1992
  911MOL0     C22903   2.929   4.494   9.055  1.2328 -0.0485 -0.7106
  911MOL0     C22904   3.053   4.545   9.047  0.0258  0.1697  0.7126
  911MOL0     C22905   3.381   4.860   8.913 -0.0050  0.6386  0.0202
  911MOL0     C22906   3.474   4.815   9.007  0.7629  0.5000  0.1632
  911MOL0     C22907   3.611   4.833   8.989  0.4743 -0.5487 -0.1090
  911MOL0     C22908   3.658   4.897   8.876 -0.4989  0.7959 -0.5063
  911MOL0     O22909   3.795   4.918   8.876 -0.2970 -0.8106  0.5103
  911MOL0     C22910   3.856   4.964   8.754  0.2216 -0.5304  0.1717
  911MOL0     C22911   4.006   4.996   8.759  0.0467 -0.5124 -0.9438
  911MOL0     C22912   4.042   5.099   8.875  0.5608 -0.2067 -0.6566
  911MOL0     C22913   4.200   5.121   8.879  0.1365 -0.1445 -0.2460
  911MOL0     C22914   4.235   5.218   8.980 -0.1796 -0.4073 -0.7976
  911MOL0     C22915   4.259   5.302   9.067 -0.0041 -0.2661 -0.0690
  911MOL0     C22916   3.568   4.937   8.781 -0.4518  1.0343 -0.7714
  911MOL0     C22917   3.430   4.922   8.798 -1.0983  0.1484 -0.9363
  911MOL0     H22918   2.971   4.857   8.970 -0.4500  0.6403  0.4313
  911MOL0     H22919   2.747   4.775   9.000 -1.1547 -0.6833  1.9083
  911MOL0     H22920   2.633   4.394   8.965 -1.5628  1.8633  0.0950
  911MOL0     H22921   2.713   4.332   9.113  1.4071 -1.0611 -1.6722
  911MOL0     H22922   2.450   4.479   9.092  1.1200  1.1392 -1.1261
  911MOL0     H22923   2.475   4.295   9.087  1.5476  0.3349 -1.2786
  911MOL0     H22924   2.567   4.303   9.306  2.5650  0.4047  0.3524
  911MOL0     H22925   2.562   4.480   9.322  0.3557 -0.6618  0.0567
  911MOL0     H22926   2.312   4.306   9.306  0.4082 -0.6744  0.3979
  911MOL0     H22927   2.406   4.315   9.450  1.2472 -1.2525 -0.2753
  911MOL0     H22928   2.378   4.576   9.415  1.7342 -1.1122  0.2567
  911MOL0     H22929   2.247   4.533   9.301 -0.7207  1.0724  0.0019
  911MOL0     H22930   2.245   4.447   9.613  0.6285 -0.1457  0.6105
  911MOL0     H22931   2.212   4.614   9.563 -0.8829 -0.6121 -0.4978
  911MOL0     H22932   2.072   4.374   9.431  0.8083  0.6509 -0.2467
  911MOL0     H22933   2.014   4.441   9.583 -0.6439 -1.2980 -0.9392
  911MOL0     H22934   2.023   4.573   9.309  1.9134  1.7182  0.2628
  911MOL0     H22935   2.052   4.669   9.447  2.5046 -0.2211 -1.5513
  911MOL0     H22936   1.879   4.664   9.657  0.0086 -0.2015  0.6160
  911MOL0     H22937   1.566   4.500   9.756  1.4611 -0.3261  1.6931
  911MOL0     H22938   1.669   4.648   9.786  1.3830 -2.1904  0.4299
  911MOL0     H22939   1.426   4.653   9.785  1.1307  2.1069  2.1342
  911MOL0     H22940   1.427   4.639   9.603  0.9668 -2.5445  0.8188
  911MOL0     H22941   1.603   4.839   9.633 -0.3275 -0.2528 -2.5667
  911MOL0     H22942   1.514   4.843   9.789  0.3325 -0.4402  0.5424
  911MOL0     H22943   1.358   4.857   9.521 -1.1923 -2.1061  0.5311
  911MOL0     H22944   1.417   5.002   9.608  4.7966 -0.9267  2.0243
  911MOL0     H22945   1.107   5.010   9.861 -0.9611  1.8782 -1.1596
  911MOL0     H22946   0.761   5.090   9.847 -0.3145 -0.9148 -2.1559
  911MOL0     H22947   0.794   4.943   9.941  0.7089 -1.3769 -1.0011
  911MOL0     H22948   0.910   5.079   9.944 -0.5636  0.3543  1.2903
  911MOL0     H22949   0.503   4.668   9.728  1.3580  1.1444 -1.6100
  911MOL0     H22950   0.257   4.636   9.751  0.2358  0.4241  3.7025
  911MOL0     H22951  -0.003   4.998   9.835  0.7602 -0.9891 -0.3707
  911MOL0     H22952  -0.018   4.990   9.657  0.4003  1.2873  0.1561
  911MOL0     H22953  -0.189   4.832   9.662 -2.6980 -1.6058  1.7821
  911MOL0     H22954  -0.149   4.783   9.833 -0.6135  0.7449  1.4958
  911MOL0     H22955  -0.282   5.045   9.729 -0.1392  1.8776  1.6488
  911MOL0     H22956  -0.230   5.005   9.903  1.8553 -4.2696  0.5422
  911MOL0     H22957  -0.448   4.856   9.771 -0.1815 -0.1418  0.3966
  911MOL0     H22958  -0.373   4.844   9.935  1.8877  1.6686  0.8200
  911MOL0     H22959  -0.526   5.088   9.819  0.6392  0.3193 -0.4707
  911MOL0     H22960  -0.461   5.059   9.983 -2.6868 -0.3143  1.0444
  911MOL0     H22961  -0.668   4.882   9.833 -0.1920 -2.5151  1.9456
  911MOL0     H22962  -0.612   4.866  10.004  2.6084  0.5725 -0.3446
  911MOL0     H22963  -0.760   5.102   9.905 -0.7874  2.2369  2.2762
  911MOL0     H22964  -0.686   5.084  10.055  0.5497 -0.2403 -1.2891
  911MOL0     H22965  -0.924   5.021  10.061 -0.0241  0.2365  1.7488
  911MOL0     H22966  -0.819   4.894  10.120  2.3955 -0.6418 -1.0570
  911MOL0     H22967   0.225   5.068   9.731  1.6372  0.6032  0.3884
  911MOL0     H22968   0.460   5.087   9.709 -0.2033 -0.4116 -2.3200
  911MOL0     H22969   0.913   4.779   9.479  2.4924  1.7420 -2.2717
  911MOL0     H22970   1.161   4.787   9.514  4.0452  5.1452 -1.5171
  911MOL0     H22971   2.936   4.390   9.084 -0.1763  0.2648  0.9390
  911MOL0     H22972   3.137   4.486   9.082 -0.0162 -0.3085  0.0255
  911MOL0     H22973   3.447   4.754   9.092  1.7672 -3.1861 -1.9507
  911MOL0     H22974   3.674   4.798   9.071 -2.9356 -1.1004  2.5227
  911MOL0     H22975   3.850   4.894   8.670  1.9389 -0.3516 -0.1256
  911MOL0     H22976   3.813   5.058   8.718  2.2152 -0.5963 -2.7571
  911MOL0     H22977   4.036   5.048   8.667 -1.6232  2.0698 -0.1472
  911MOL0     H22978   4.060   4.903   8.776  1.4215  0.4762  0.2896
  911MOL0     H22979   4.018   5.060   8.974  0.5696  1.7069  0.1421
  911MOL0     H22980   3.997   5.197   8.862  0.3170 -0.1541  0.4581
  911MOL0     H22981   4.242   5.150   8.782  0.0630 -2.3950 -1.0118
  911MOL0     H22982   4.253   5.028   8.900 -0.4304 -0.4278 -0.0549
  911MOL0     H22983   4.297   5.371   9.139 -0.5363  0.0024 -0.0371
  911MOL0     H22984   3.613   4.983   8.694  0.0632  0.0296 -1.0437
  911MOL0     H22985   3.385   4.953   8.705  1.6682 -1.2828 -2.8868
  912MOL0     O22986   3.839   5.241   4.413 -0.2929  0.0961  0.3132
  912MOL0     C22987   3.892   5.200   4.310  0.1899  0.3605  0.2045
  912MOL0     O22988   3.827   5.138   4.206  0.0917  0.3145 -0.4359
  912MOL0     C22989   3.696   5.110   4.228  1.0114  0.0676  0.0771
  912MOL0     C22990   3.662   4.985   4.291  0.7066 -0.1681 -0.0170
  912MOL0     C22991   3.525   4.963   4.316 -0.1576 -0.1213 -0.0899
  912MOL0     C22992   3.421   5.050   4.278 -0.8098  0.3218  0.7810
  912MOL0     O22993   3.290   5.021   4.306 -0.2437 -0.7053  0.5802
  912MOL0     C22994   3.176   5.096   4.249  0.2521 -0.2691 -0.7487
  912MOL0     C22995   3.056   5.050   4.335 -0.0374 -0.8116  0.5971
  912MOL0     C22996   2.926   5.047   4.255  0.4024  0.1491  0.0960
  912MOL0     C22997   2.808   4.980   4.337 -0.0932  0.5200 -0.3052
  912MOL0     C22998   2.669   5.021   4.268 -0.2599  0.5047  0.5978
  912MOL0     C22999   2.542   5.003   4.334  0.3634 -0.0022 -0.6166
  912MOL0     C23000   2.429   5.081   4.259 -0.3598  0.1286  0.3423
  912MOL0     C23001   2.296   5.038   4.333 -0.2865 -0.5519  0.9587
  912MOL0     N23002   2.211   4.964   4.243  0.3731 -0.0702 -0.1321
  912MOL0     C23003   2.170   5.013   4.124  0.3730 -0.4619 -0.5660
  912MOL0     C23004   2.140   4.906   4.045 -0.5653  0.4068 -1.0994
  912MOL0     C23005   2.092   4.914   3.904 -0.3407 -0.8013 -1.0574
  912MOL0     C23006   1.972   5.007   3.892  0.0653  0.5246 -0.8150
  912MOL0     C23007   1.903   5.008   3.753  0.2481  0.8210 -0.1933
  912MOL0     C23008   1.775   5.085   3.745 -0.5043  0.2507 -0.6104
  912MOL0     O23009   1.674   5.046   3.837 -0.6490 -0.6688  0.7215
  912MOL0     C23010   1.546   5.089   3.824  0.8692 -0.9514  0.3170
  912MOL0     C23011   1.501   5.171   3.927  0.0324  0.7920 -0.3322
  912MOL0     C23012   1.367   5.208   3.929  0.2579 -0.3828 -0.0562
  912MOL0     C23013   1.327   5.313   4.033  0.2543  0.3514 -0.4704
  912MOL0     C23014   1.276   5.170   3.823 -0.5092  0.9343 -0.6529
  912MOL0     C23015   1.128   5.201   3.803  0.2139 -0.2498 -0.0982
  912MOL0     O23016   1.063   5.157   3.691  0.0230  0.5234 -0.3960
  912MOL0     C23017   0.923   5.162   3.681  0.6019 -0.5857  0.4106
  912MOL0     C23018   0.864   5.169   3.549  0.4789  0.6534 -0.0850
  912MOL0     C23019   0.717   5.162   3.540 -0.6501  0.5902 -0.3287
  912MOL0     C23020   0.640   5.154   3.655 -0.0787 -0.4759 -0.0961
  912MOL0     O23021   0.500   5.157   3.634 -0.5494  0.0918 -0.2565
  912MOL0     C23022   0.410   5.147   3.747 -0.6662 -0.9598  0.3367
  912MOL0     C23023   0.273   5.103   3.714 -0.5306  0.7830  0.2822
  912MOL0     C23024   0.184   5.198   3.636 -0.3729  0.3742 -0.0215
  912MOL0     C23025   0.042   5.148   3.627 -0.7680  0.5447 -0.3095
  912MOL0     C23026  -0.045   5.237   3.536 -0.7769 -0.0966 -0.2434
  912MOL0     C23027  -0.185   5.183   3.512  0.0385  0.6606  0.4163
  912MOL0     C23028  -0.272   5.263   3.413  0.0070  0.9173  0.1605
  912MOL0     C23029  -0.411   5.215   3.440  0.1850  0.1854 -0.5531
  912MOL0    Cl23030  -0.446   5.037   3.424  0.2834 -0.2312  0.3288
  912MOL0     C23031   0.707   5.165   3.784  0.2978  0.4685 -0.5987
  912MOL0     C23032   0.844   5.162   3.796  0.1490  0.3284  0.1222
  912MOL0     O23033   1.088   5.292   3.878 -0.1561  1.2197 -0.0668
  912MOL0     C23034   1.333   5.094   3.718 -0.2410 -0.2879 -0.0647
  912MOL0     C23035   1.466   5.057   3.721 -0.7042 -0.3709 -0.4480
  912MOL0     N23036   2.175   4.792   4.114 -0.0054 -0.9605  0.1803
  912MOL0     N23037   2.220   4.830   4.227  0.4311 -0.0665 -0.5058
  912MOL0     C23038   3.459   5.164   4.207 -0.5756 -0.4402  0.7136
  912MOL0     C23039   3.590   5.197   4.189 -0.4242  0.3484 -0.3929
  912MOL0     C23040   4.040   5.192   4.305  0.0465  0.2995  0.2353
  912MOL0     C23041   4.103   5.140   4.193 -0.2293 -0.0648  0.6056
  912MOL0     C23042   4.240   5.149   4.173 -0.4012 -0.6235  0.2124
  912MOL0     C23043   4.317   5.194   4.281  0.1969  0.8971 -1.0980
  912MOL0     O23044   4.454   5.210   4.260  0.1633 -0.5549 -0.5521
  912MOL0     C23045   4.546   5.217   4.372 -1.0631 -0.3585 -0.0691
  912MOL0     C23046   4.691   5.195   4.314  0.2693 -0.2275  0.6499
  912MOL0     C23047   4.791   5.232   4.428 -0.4216 -0.1021 -0.3129
  912MOL0     C23048   4.937   5.240   4.380 -0.2843  0.3033  0.0399
  912MOL0     C23049   5.028   5.259   4.497 -0.0594 -0.6658 -0.7344
  912MOL0     C23050   5.077   5.276   4.609  0.9938  0.8018  0.5527
  912MOL0     C23051   4.251   5.231   4.405 -0.0986  0.4913 -0.3062
  912MOL0     C23052   4.117   5.238   4.413 -0.1693 -0.9435 -0.3299
  912MOL0     H23053   3.742   4.918   4.322  0.2291 -1.0808 -0.7266
  912MOL0     H23054   3.495   4.865   4.352 -0.4591  1.0073  3.0987
  912MOL0     H23055   3.205   5.201   4.262  3.0462 -0.5661 -3.3428
  912MOL0     H23056   3.156   5.068   4.145 -1.0921 -0.9601 -0.3169
  912MOL0     H23057   3.081   4.954   4.381  0.4564 -0.6132  0.7532
  912MOL0     H23058   3.043   5.116   4.422  0.8303  1.3101 -0.7861
  912MOL0     H23059   2.899   5.149   4.224 -0.3373  0.0841  0.4958
  912MOL0     H23060   2.941   5.003   4.157  2.6942 -0.9761  0.8819
  912MOL0     H23061   2.824   4.872   4.336 -1.2746  0.3172  0.5411
  912MOL0     H23062   2.819   5.019   4.439 -0.0837  0.0896 -0.1387
  912MOL0     H23063   2.675   5.130   4.255  1.3488  0.6969  2.4424
  912MOL0     H23064   2.664   4.962   4.176 -0.9062  2.2106 -0.5152
  912MOL0     H23065   2.522   4.898   4.357  0.9870  0.2485  1.2412
  912MOL0     H23066   2.557   5.051   4.431 -0.4194  2.0613 -1.4663
  912MOL0     H23067   2.426   5.190   4.268 -2.1157  0.2938 -1.4122
  912MOL0     H23068   2.422   5.049   4.154 -3.5592  0.5927  0.3024
  912MOL0     H23069   2.235   5.120   4.371  0.5861 -0.1170  1.4615
  912MOL0     H23070   2.316   4.975   4.421 -1.0948 -0.9821  0.8440
  912MOL0     H23071   2.155   5.117   4.097  0.3873  0.6778  3.3116
  912MOL0     H23072   2.171   4.957   3.841  1.3786 -0.2944  1.2658
  912MOL0     H23073   2.057   4.818   3.866 -4.8185  0.0247  0.4169
  912MOL0     H23074   1.993   5.111   3.919 -1.8595  0.0114  3.3062
  912MOL0     H23075   1.911   4.971   3.975  4.3504  1.0561  2.9143
  912MOL0     H23076   1.880   4.904   3.728  4.3625 -0.5708  1.0291
  912MOL0     H23077   1.975   5.041   3.678  1.4275 -0.3800  0.3711
  912MOL0     H23078   1.727   5.080   3.646  0.0020 -1.2137 -0.8092
  912MOL0     H23079   1.789   5.192   3.760 -0.1789  0.5017 -2.4072
  912MOL0     H23080   1.564   5.202   4.009 -1.3463  0.4963  0.8890
  912MOL0     H23081   1.262   5.267   4.107 -0.9511 -0.0468 -1.7263
  912MOL0     H23082   1.415   5.360   4.077  2.0267 -2.4454 -0.8048
  912MOL0     H23083   1.276   5.401   3.991  1.6896  2.2262  1.5146
  912MOL0     H23084   0.909   5.155   3.451 -2.2289 -0.9352 -1.2045
  912MOL0     H23085   0.664   5.165   3.445 -0.9513  3.1578 -0.1684
  912MOL0     H23086   0.453   5.084   3.825  1.3894  1.1253  1.0052
  912MOL0     H23087   0.400   5.246   3.793 -1.8210 -1.3969  1.0643
  912MOL0     H23088   0.273   5.003   3.669  0.8563  1.2467 -0.7971
  912MOL0     H23089   0.222   5.083   3.809  0.5074 -3.2147  0.1891
  912MOL0     H23090   0.222   5.227   3.538 -1.1651  0.8318 -0.2044
  912MOL0     H23091   0.172   5.284   3.703  0.1804 -0.5877  1.3389
  912MOL0     H23092   0.047   5.043   3.596  1.2611  0.6968 -0.6153
  912MOL0     H23093  -0.008   5.144   3.724 -0.5051 -0.6092 -0.2057
  912MOL0     H23094   0.001   5.242   3.437  1.1121 -1.7303  0.5053
  912MOL0     H23095  -0.060   5.333   3.586  1.7145 -0.2501  0.9123
  912MOL0     H23096  -0.173   5.083   3.469  1.5618  0.9351  0.1421
  912MOL0     H23097  -0.228   5.170   3.611 -1.2547  1.1934 -0.0581
  912MOL0     H23098  -0.247   5.242   3.309  0.4561  0.0504  0.4382
  912MOL0     H23099  -0.259   5.371   3.428  0.0293  1.1084 -1.1322
  912MOL0     H23100  -0.482   5.275   3.382 -0.9713 -0.0440  0.5562
  912MOL0     H23101  -0.437   5.245   3.542 -0.3230  0.2114 -0.6862
  912MOL0     H23102   0.650   5.165   3.877  2.3255 -1.8863  0.7450
  912MOL0     H23103   0.881   5.172   3.897  2.2176  0.0093 -0.5347
  912MOL0     H23104   1.276   5.063   3.631 -0.3079 -0.1772 -0.0606
  912MOL0     H23105   1.512   4.999   3.641  1.5189 -1.1821  1.2976
  912MOL0     H23106   3.384   5.236   4.173 -0.1075 -1.7127 -3.6580
  912MOL0     H23107   3.611   5.293   4.142 -4.1239 -0.0176 -3.2239
  912MOL0     H23108   4.046   5.090   4.115  0.6616 -0.0542 -0.0698
  912MOL0     H23109   4.289   5.128   4.078  1.2657  0.3844  0.8161
  912MOL0     H23110   4.535   5.315   4.420 -0.7289 -0.6218  0.5602
  912MOL0     H23111   4.525   5.154   4.459 -1.8431 -0.0011  0.0116
  912MOL0     H23112   4.703   5.257   4.225  0.8885  0.6055  1.2999
  912MOL0     H23113   4.706   5.091   4.283  1.0063 -0.3662  1.4467
  912MOL0     H23114   4.785   5.151   4.500  0.7490  0.9639  1.0265
  912MOL0     H23115   4.761   5.329   4.468 -1.5742 -0.0300 -1.2954
  912MOL0     H23116   4.948   5.318   4.304 -2.0704 -0.1918 -0.7795
  912MOL0     H23117   4.969   5.148   4.331 -0.2460  0.4656 -0.2399
  912MOL0     H23118   5.110   5.300   4.708 -0.4502 -0.5865  1.4070
  912MOL0     H23119   4.311   5.266   4.488  0.3994 -1.2982  0.1277
  912MOL0     H23120   4.075   5.269   4.509  3.0607 -0.0027  0.9011
  913MOL0     O23121  10.686   9.265   9.746 -0.3672  0.3807 -0.2920
  913MOL0     C23122  10.745   9.318   9.841  1.5123 -0.0380 -0.5883
  913MOL0     O23123  10.691   9.420   9.908  0.1759 -0.6201 -0.1601
  913MOL0     C23124  10.592   9.504   9.853 -0.5558  0.2197 -0.0399
  913MOL0     C23125  10.572   9.537   9.717 -0.2100  0.2075 -0.2863
  913MOL0     C23126  10.456   9.602   9.681 -0.2000  0.2784  0.3445
  913MOL0     C23127  10.365   9.645   9.785 -0.0845 -0.0751  0.7213
  913MOL0     O23128  10.259   9.728   9.760 -0.3351  0.0542 -0.1679
  913MOL0     C23129  10.192   9.745   9.629 -0.2357  0.0147 -0.2197
  913MOL0     C23130  10.081   9.857   9.630  0.3085 -1.2023 -0.3230
  913MOL0     C23131   9.974   9.823   9.736  0.1881 -0.0767  0.2985
  913MOL0     C23132   9.875   9.934   9.756  0.3523  0.0380  0.7766
  913MOL0     C23133   9.777   9.922   9.874 -0.0984  0.8077 -1.0876
  913MOL0     C23134   9.673  10.027   9.850 -0.4551 -0.3625  0.3223
  913MOL0     C23135   9.584  10.050   9.968  0.2497  0.0250 -0.2249
  913MOL0     C23136   9.515   9.921  10.010  0.0952  0.0263 -0.4123
  913MOL0     N23137   9.393   9.954  10.089  0.6634  0.8180  0.2946
  913MOL0     C23138   9.388  10.015  10.210  0.2438 -0.7606 -0.1385
  913MOL0     C23139   9.251  10.055  10.204 -0.0419 -0.2900 -1.1988
  913MOL0     C23140   9.178  10.128  10.316 -0.4890  0.1107  0.3154
  913MOL0     C23141   9.055  10.048  10.385 -0.7895  0.7121  0.4630
  913MOL0     C23142   8.942  10.004  10.294 -0.6822 -0.1193  0.6899
  913MOL0     C23143   8.837   9.912  10.364 -0.2038  0.4130 -0.5435
  913MOL0     O23144   8.758   9.984  10.455  0.1697 -0.0486  0.6530
  913MOL0     C23145   8.636   9.929  10.503  0.4942  0.1500 -0.4102
  913MOL0     C23146   8.615   9.792  10.499  0.2011 -0.0846 -0.1609
  913MOL0     C23147   8.489   9.732  10.524  0.5616  0.5435  0.8784
  913MOL0     C23148   8.476   9.585  10.515 -0.2992 -0.4575  0.4542
  913MOL0     C23149   8.390   9.823  10.556  0.4197 -1.3999  0.0508
  913MOL0     C23150   8.250   9.786  10.563  0.3306  0.3471  0.4972
  913MOL0     O23151   8.201   9.695  10.482  0.4598  0.2624  0.2434
  913MOL0     C23152   8.088   9.621  10.511 -0.5643  0.3641  0.4681
  913MOL0     C23153   8.046   9.585  10.641 -0.2476  0.1930  0.5350
  913MOL0     C23154   7.931   9.516  10.663  0.8045  0.6718  0.5554
  913MOL0     C23155   7.853   9.465  10.558  0.2274 -0.3495  0.0621
  913MOL0     O23156   7.748   9.379  10.571  0.5915 -0.7004  0.0496
  913MOL0     C23157   7.699   9.339  10.701 -0.5994 -0.1609  0.6628
  913MOL0     C23158   7.588   9.242  10.668  0.2546 -0.4938  0.4677
  913MOL0     C23159   7.460   9.318  10.628 -0.4871  0.1985  0.7290
  913MOL0     C23160   7.338   9.235  10.587 -0.0742 -0.6455 -0.3642
  913MOL0     C23161   7.218   9.314  10.527 -0.6394  0.0476  0.0825
  913MOL0     C23162   7.153   9.403  10.629 -0.1598  0.7540  0.5580
  913MOL0     C23163   7.012   9.446  10.574 -0.0903  0.0464 -0.1251
  913MOL0     C23164   7.013   9.546  10.459  0.4036 -0.2457 -1.0888
  913MOL0    Cl23165   7.060   9.701  10.517 -0.0866  0.2048  0.4179
  913MOL0     C23166   7.896   9.489  10.427  0.2083 -0.6318 -0.0688
  913MOL0     C23167   8.004   9.576  10.406 -0.4621 -0.8268  0.5165
  913MOL0     O23168   8.186   9.849  10.648 -0.3359  0.3176 -0.3334
  913MOL0     C23169   8.413   9.959  10.578  0.3477 -0.2783  0.7677
  913MOL0     C23170   8.534  10.016  10.554 -0.3810  0.2781  0.1405
  913MOL0     N23171   9.185  10.011  10.099  0.1514  0.4786 -0.1685
  913MOL0     N23172   9.271   9.953  10.025 -0.1186 -0.0046  0.3835
  913MOL0     C23173  10.393   9.621   9.917  0.2057 -0.4656 -0.1187
  913MOL0     C23174  10.512   9.562   9.946 -0.3959  0.3796  1.0511
  913MOL0     C23175  10.875   9.260   9.889  0.2022 -0.0374  0.0841
  913MOL0     C23176  10.928   9.140   9.839 -0.2546 -0.3794 -0.8622
  913MOL0     C23177  11.045   9.087   9.877  0.2820  0.3403 -0.5196
  913MOL0     C23178  11.115   9.146   9.982 -0.1416  0.4892 -1.2124
  913MOL0     O23179  11.234   9.104  10.035  0.7044  0.6533  0.6399
  913MOL0     C23180  11.330   9.038   9.954  0.7756 -0.2597 -0.9691
  913MOL0     C23181  11.309   8.887   9.958 -0.1489 -0.2540  0.0858
  913MOL0     C23182  11.436   8.799   9.943  0.6518 -0.5686  1.0751
  913MOL0     C23183  11.511   8.773  10.075 -0.6921  0.9638 -0.2271
  913MOL0     C23184  11.598   8.648  10.078 -0.2146 -0.0398  0.4732
  913MOL0     C23185  11.665   8.556  10.082 -0.8265 -0.1555  0.1909
  913MOL0     C23186  11.064   9.262  10.037 -0.3320  0.1782 -0.8299
  913MOL0     C23187  10.949   9.315   9.991 -0.3773  0.1938 -0.2042
  913MOL0     H23188  10.646   9.509   9.643  0.6566 -0.7704  0.9043
  913MOL0     H23189  10.437   9.636   9.579  0.5522 -0.0706  0.0801
  913MOL0     H23190  10.271   9.778   9.561 -1.6203  5.9771  0.5048
  913MOL0     H23191  10.140   9.656   9.594 -3.4362  2.1140 -1.2241
  913MOL0     H23192  10.125   9.957   9.630 -3.5374  0.7582  2.5916
  913MOL0     H23193  10.036   9.852   9.531  0.6492  0.0156 -0.5625
  913MOL0     H23194   9.919   9.732   9.709 -0.6020  0.4376  0.1406
  913MOL0     H23195  10.022   9.804   9.832  1.0678 -1.4745 -0.3874
  913MOL0     H23196   9.936  10.024   9.771 -1.4011  1.6015 -0.8351
  913MOL0     H23197   9.820   9.952   9.663 -2.3374 -0.8103  2.1110
  913MOL0     H23198   9.726   9.826   9.879  0.2275  0.6848  1.4633
  913MOL0     H23199   9.831   9.935   9.968  0.2387 -0.6361 -1.0517
  913MOL0     H23200   9.720  10.118   9.811 -1.1262 -0.8188 -1.7020
  913MOL0     H23201   9.608   9.987   9.772 -0.1838 -2.7825  1.2620
  913MOL0     H23202   9.639  10.076  10.060  0.7389 -0.6263 -0.3308
  913MOL0     H23203   9.516  10.133   9.948  2.9468  2.4297 -0.0901
  913MOL0     H23204   9.584   9.877  10.083  1.0422  0.8053 -0.8168
  913MOL0     H23205   9.486   9.852   9.931 -0.6297  1.7484 -1.7187
  913MOL0     H23206   9.475  10.045  10.268 -0.6005  4.8234 -1.1967
  913MOL0     H23207   9.247  10.138  10.400 -0.2428 -1.0513  0.2660
  913MOL0     H23208   9.141  10.227  10.288 -2.0296  0.2214  2.5711
  913MOL0     H23209   9.018  10.112  10.466 -0.0536  3.6585 -1.3782
  913MOL0     H23210   9.109   9.962  10.428  0.1322  0.4456 -1.1462
  913MOL0     H23211   8.970   9.962  10.197 -0.3984  0.2047  0.6292
  913MOL0     H23212   8.891  10.096  10.265 -0.6804 -0.4093 -0.2683
  913MOL0     H23213   8.883   9.834  10.425 -0.3803  0.5877 -0.1856
  913MOL0     H23214   8.776   9.878  10.279  0.9774 -1.0250 -0.8513
  913MOL0     H23215   8.695   9.723  10.477  0.7561  0.1348  1.0873
  913MOL0     H23216   8.412   9.558  10.430  0.5336 -0.9599 -0.0296
  913MOL0     H23217   8.572   9.534  10.501 -0.9206 -1.6870  0.6011
  913MOL0     H23218   8.423   9.546  10.602 -1.1471  0.0927  0.1974
  913MOL0     H23219   8.113   9.609  10.722  2.5818 -2.5076 -0.8021
  913MOL0     H23220   7.900   9.494  10.765 -0.5088  2.4652  0.6059
  913MOL0     H23221   7.781   9.295  10.758 -0.9037 -2.8434 -0.8019
  913MOL0     H23222   7.654   9.421  10.758  0.6452 -0.7964  2.6473
  913MOL0     H23223   7.602   9.160  10.597 -2.2848 -0.7127  0.1611
  913MOL0     H23224   7.573   9.197  10.767 -1.6633 -0.4253  0.2334
  913MOL0     H23225   7.483   9.376  10.538  0.1694  1.0776  1.4566
  913MOL0     H23226   7.432   9.383  10.711  2.9813  0.6994  1.6362
  913MOL0     H23227   7.361   9.152  10.519 -1.7663  0.2216 -2.0960
  913MOL0     H23228   7.304   9.180  10.675  1.0331  0.3678  0.7227
  913MOL0     H23229   7.146   9.240  10.491 -0.6973 -0.9140  2.0605
  913MOL0     H23230   7.260   9.357  10.435  0.5553 -1.6899 -0.2276
  913MOL0     H23231   7.152   9.349  10.724 -2.3055  0.1752  0.2611
  913MOL0     H23232   7.219   9.490  10.630  0.5243  0.2976 -1.0874
  913MOL0     H23233   6.958   9.482  10.662 -0.4232 -1.3755  0.2780
  913MOL0     H23234   6.954   9.358  10.545 -2.1260  1.3130 -0.0775
  913MOL0     H23235   6.914   9.559  10.415 -0.5663  2.7537  1.5997
  913MOL0     H23236   7.073   9.519  10.372 -1.7177 -1.8412 -2.1572
  913MOL0     H23237   7.852   9.450  10.337  1.6067  0.7137 -1.3952
  913MOL0     H23238   8.029   9.598  10.303 -1.9471  1.7495  0.6262
  913MOL0     H23239   8.336  10.033  10.593  0.6266  0.6905 -1.9792
  913MOL0     H23240   8.559  10.121  10.550  0.0157  0.2077  0.5778
  913MOL0     H23241  10.335   9.667   9.996  1.7528  1.7391 -0.1863
  913MOL0     H23242  10.541   9.531  10.046  2.3511  1.1844  0.5834
  913MOL0     H23243  10.861   9.085   9.774  0.1312 -1.4707 -0.3499
  913MOL0     H23244  11.088   8.998   9.832 -0.6838 -0.9182  0.9607
  913MOL0     H23245  11.334   9.063   9.848 -2.0144  0.9388 -0.8794
  913MOL0     H23246  11.425   9.064  10.002  0.6128  1.1692 -1.3799
  913MOL0     H23247  11.246   8.861   9.873  1.6823  0.3586 -1.5302
  913MOL0     H23248  11.255   8.858  10.049  1.1114  1.4659  1.4493
  913MOL0     H23249  11.499   8.841   9.865 -0.4801  2.8402  1.8141
  913MOL0     H23250  11.408   8.699   9.910  0.5444 -0.5752  1.1799
  913MOL0     H23251  11.441   8.756  10.157 -1.1916  1.1387 -0.6108
  913MOL0     H23252  11.583   8.850  10.102  0.5922 -0.2855  0.0695
  913MOL0     H23253  11.742   8.482  10.071  0.0287  0.9193 -1.5017
  913MOL0     H23254  11.110   9.302  10.126  1.6530 -1.5636 -1.0124
  913MOL0     H23255  10.907   9.398  10.047 -2.8370 -1.7062  0.9829
  914MOL0     O23256   4.351   8.398   7.367 -0.0639 -0.6297  0.2075
  914MOL0     C23257   4.432   8.305   7.379 -0.1936  0.1728 -0.6085
  914MOL0     O23258   4.409   8.174   7.349 -0.0329 -0.5754  0.2543
  914MOL0     C23259   4.279   8.139   7.339  0.3674 -0.1340  0.6614
  914MOL0     C23260   4.169   8.193   7.411 -0.2609 -0.2302 -0.0082
  914MOL0     C23261   4.036   8.144   7.396  0.2618 -0.2538  0.3234
  914MOL0     C23262   4.015   8.041   7.305  0.4804 -0.9099  0.4083
  914MOL0     O23263   3.887   8.000   7.286 -0.3257 -0.0657  0.4805
  914MOL0     C23264   3.877   7.855   7.294 -0.0507  0.3953  0.3411
  914MOL0     C23265   3.738   7.794   7.312  0.5524  0.0408 -0.0992
  914MOL0     C23266   3.631   7.875   7.248  0.4123  0.2276 -0.6617
  914MOL0     C23267   3.489   7.816   7.259 -0.7881  0.5649  0.1773
  914MOL0     C23268   3.392   7.875   7.156 -0.9614 -0.7807  0.2222
  914MOL0     C23269   3.351   8.018   7.190 -0.6504 -0.6327 -0.1042
  914MOL0     C23270   3.330   8.113   7.070 -0.3577 -0.8145  0.7377
  914MOL0     C23271   3.250   8.064   6.950 -0.2685  0.8293 -0.4491
  914MOL0     N23272   3.123   7.997   6.989 -0.3277 -0.8642  0.0812
  914MOL0     C23273   3.008   8.066   7.027 -0.0929 -1.5283  0.4397
  914MOL0     C23274   2.922   7.970   7.037  0.1679 -0.0707  0.3830
  914MOL0     C23275   2.782   8.004   7.077 -0.1363  0.6367 -0.1646
  914MOL0     C23276   2.708   8.117   7.007  0.0349 -0.1742 -0.5931
  914MOL0     C23277   2.572   8.165   7.059  0.2127 -0.3247 -0.0486
  914MOL0     C23278   2.457   8.073   7.007  0.2285 -0.0547  0.6264
  914MOL0     O23279   2.339   8.140   7.047  0.3198  0.1204  0.0211
  914MOL0     C23280   2.216   8.085   7.012  0.6992  0.5142 -0.0546
  914MOL0     C23281   2.105   8.175   7.029 -0.2651  0.2178  0.2153
  914MOL0     C23282   1.965   8.149   7.010  1.0992  0.1279 -0.1966
  914MOL0     C23283   1.871   8.271   7.016 -0.8954  0.4394 -0.8702
  914MOL0     C23284   1.936   8.019   6.972 -0.7145  0.1880 -0.5149
  914MOL0     C23285   1.806   7.958   6.993  0.3441  0.4306 -0.0077
  914MOL0     O23286   1.803   7.820   6.978 -0.7377 -0.1579  0.2065
  914MOL0     C23287   1.686   7.750   6.975  0.6440  0.1771 -0.7085
  914MOL0     C23288   1.567   7.796   6.910  0.1618  0.4421 -0.4501
  914MOL0     C23289   1.460   7.710   6.895 -0.3515  0.7851  0.0288
  914MOL0     C23290   1.451   7.579   6.950 -0.9318  0.4517  0.1041
  914MOL0     O23291   1.336   7.503   6.944  0.3023 -0.2034  0.1450
  914MOL0     C23292   1.216   7.567   6.887 -0.6369 -0.3712  0.4856
  914MOL0     C23293   1.088   7.494   6.908  0.8154  0.9270  0.3530
  914MOL0     C23294   0.988   7.562   6.819 -0.9298  0.7858 -0.3153
  914MOL0     C23295   0.848   7.503   6.834  0.0452 -0.1602 -0.5333
  914MOL0     C23296   0.751   7.565   6.733 -0.1237  0.4634  0.3765
  914MOL0     C23297   0.604   7.512   6.724 -0.3398  0.5817  0.0364
  914MOL0     C23298   0.520   7.555   6.838  0.0632 -0.5119 -0.5931
  914MOL0     C23299   0.374   7.531   6.822  0.2576  0.1448  0.3098
  914MOL0    Cl23300   0.342   7.353   6.806  0.2584 -0.2615  0.1425
  914MOL0     C23301   1.571   7.527   7.009 -0.2495 -0.0442  0.4926
  914MOL0     C23302   1.684   7.617   7.019 -0.0025  0.8692 -1.1729
  914MOL0     O23303   1.716   8.028   7.029 -0.2129  0.0575 -0.0998
  914MOL0     C23304   2.050   7.937   6.935  0.1669  0.6259  0.6883
  914MOL0     C23305   2.185   7.966   6.953 -0.3277  0.0893 -0.2313
  914MOL0     N23306   2.979   7.847   7.006  0.1677 -0.6085  0.2251
  914MOL0     N23307   3.101   7.864   6.985  0.3934  0.1395 -0.2774
  914MOL0     C23308   4.127   7.987   7.235 -0.1139 -0.4980 -0.4798
  914MOL0     C23309   4.257   8.033   7.254  0.1494  0.5666  0.6165
  914MOL0     C23310   4.578   8.324   7.407  0.4156 -0.5580 -0.0415
  914MOL0     C23311   4.634   8.455   7.429  0.2442  0.1023  0.4735
  914MOL0     C23312   4.771   8.473   7.453  0.5561 -0.2694 -0.4050
  914MOL0     C23313   4.861   8.361   7.454 -0.3839 -0.0545 -0.2526
  914MOL0     O23314   4.994   8.396   7.481  0.6114  0.0300  0.2547
  914MOL0     C23315   5.093   8.293   7.484 -0.5127  0.7880  0.9432
  914MOL0     C23316   5.233   8.347   7.485 -0.9349 -0.6605  0.0586
  914MOL0     C23317   5.249   8.423   7.616  1.1057 -0.1366  0.2630
  914MOL0     C23318   5.395   8.452   7.635  0.0928 -0.2614 -0.6402
  914MOL0     C23319   5.406   8.548   7.741 -0.0558 -0.2754 -0.3442
  914MOL0     C23320   5.399   8.623   7.838 -0.4112  0.4036 -0.5043
  914MOL0     C23321   4.806   8.236   7.435 -0.4197  0.4500 -0.0206
  914MOL0     C23322   4.672   8.214   7.405 -0.1776  0.2234 -0.3956
  914MOL0     H23323   4.190   8.270   7.484  2.0908  1.4865 -2.2701
  914MOL0     H23324   3.950   8.192   7.442 -0.0225 -0.7198  0.2784
  914MOL0     H23325   3.925   7.813   7.205  0.5162  1.0039  0.3603
  914MOL0     H23326   3.938   7.809   7.372  1.1702  0.4976 -0.5370
  914MOL0     H23327   3.740   7.691   7.274  1.2957  0.0753 -0.1735
  914MOL0     H23328   3.706   7.793   7.417 -0.4070  0.2327 -0.3785
  914MOL0     H23329   3.634   7.975   7.293 -0.9479  0.3830 -0.8741
  914MOL0     H23330   3.648   7.890   7.141  0.3535 -1.6775 -0.9797
  914MOL0     H23331   3.499   7.709   7.242  0.6782  0.3992  1.8376
  914MOL0     H23332   3.443   7.830   7.357 -0.3342 -1.8088  0.7791
  914MOL0     H23333   3.444   7.879   7.060  0.2626  3.8541  0.8294
  914MOL0     H23334   3.302   7.817   7.134 -1.9579  0.4709  0.8692
  914MOL0     H23335   3.264   8.018   7.256 -0.1911 -0.7641  0.5124
  914MOL0     H23336   3.428   8.060   7.257 -0.7780 -1.3173  0.4867
  914MOL0     H23337   3.284   8.207   7.103 -0.6561  0.2860 -2.4797
  914MOL0     H23338   3.428   8.140   7.029 -1.8536  1.0171 -1.9288
  914MOL0     H23339   3.317   7.999   6.892  2.5192  1.6551  1.6057
  914MOL0     H23340   3.225   8.147   6.884 -3.0994 -0.2369 -0.8506
  914MOL0     H23341   2.996   8.172   7.047  0.2384 -1.7326  1.8765
  914MOL0     H23342   2.720   7.914   7.083 -1.4541  1.6115  2.4097
  914MOL0     H23343   2.794   8.032   7.182 -3.7588 -0.7651  0.7528
  914MOL0     H23344   2.698   8.110   6.898 -0.2829  0.1802 -0.5908
  914MOL0     H23345   2.767   8.207   7.024 -0.5930  0.4843 -1.7499
  914MOL0     H23346   2.540   8.264   7.025 -0.9947 -0.5054  0.5012
  914MOL0     H23347   2.549   8.152   7.165  0.2298 -0.4862 -0.0661
  914MOL0     H23348   2.468   7.971   7.044 -2.1241 -0.8316 -0.6258
  914MOL0     H23349   2.458   8.065   6.898 -0.4345  0.9447  0.5310
  914MOL0     H23350   2.116   8.272   7.076 -4.1776  0.5846  0.7256
  914MOL0     H23351   1.797   8.251   7.094 -1.1926  0.4334 -1.1502
  914MOL0     H23352   1.927   8.359   7.047 -0.5776 -0.4589  1.2592
  914MOL0     H23353   1.810   8.282   6.925 -2.1504 -1.0046 -0.2541
  914MOL0     H23354   1.566   7.886   6.850 -1.9399 -0.3074 -1.6350
  914MOL0     H23355   1.375   7.737   6.833 -0.4289  1.9906  0.6405
  914MOL0     H23356   1.207   7.669   6.925 -4.8129 -1.3439  2.6989
  914MOL0     H23357   1.240   7.568   6.780  3.2619 -0.0699  1.1916
  914MOL0     H23358   1.107   7.395   6.866  1.3618  2.0347 -2.1627
  914MOL0     H23359   1.057   7.493   7.013 -0.1748  2.7714  0.1113
  914MOL0     H23360   1.011   7.537   6.715 -0.6146  0.0578 -0.0786
  914MOL0     H23361   0.991   7.668   6.844  3.8984 -0.0910  5.0090
  914MOL0     H23362   0.851   7.394   6.823  1.6832 -0.1224 -0.6773
  914MOL0     H23363   0.806   7.524   6.933  1.4566  2.5010 -0.4208
  914MOL0     H23364   0.803   7.547   6.638  2.7203 -0.3141  1.9568
  914MOL0     H23365   0.746   7.673   6.749 -1.1584  0.4093  0.4570
  914MOL0     H23366   0.549   7.553   6.639 -0.6940  2.0130  0.9213
  914MOL0     H23367   0.599   7.404   6.706  0.6655  0.1923  1.8233
  914MOL0     H23368   0.543   7.662   6.842 -2.5532  0.1276 -0.5758
  914MOL0     H23369   0.556   7.507   6.929  0.0575 -1.0897 -0.8918
  914MOL0     H23370   0.337   7.579   6.731 -1.1109  1.9088  1.7002
  914MOL0     H23371   0.318   7.581   6.902  1.1140  0.2873  0.8295
  914MOL0     H23372   1.577   7.427   7.051 -1.0783 -0.5729 -0.5837
  914MOL0     H23373   1.774   7.598   7.078 -0.0015  5.4122  0.7346
  914MOL0     H23374   2.030   7.837   6.899 -5.9021  2.2923 -1.8680
  914MOL0     H23375   2.269   7.899   6.937 -0.7323 -0.6483  0.6492
  914MOL0     H23376   4.109   7.912   7.159 -2.6854 -1.3599  0.8510
  914MOL0     H23377   4.343   7.995   7.200  0.6072  2.0473  0.2472
  914MOL0     H23378   4.556   8.530   7.429 -0.5516 -0.5973 -2.4117
  914MOL0     H23379   4.813   8.572   7.465  0.0073 -0.1642  0.7409
  914MOL0     H23380   5.075   8.215   7.558 -0.9019 -1.4850 -1.3855
  914MOL0     H23381   5.088   8.234   7.392 -1.7177 -0.3726  1.7134
  914MOL0     H23382   5.255   8.415   7.402  1.0241 -0.9929  0.2650
  914MOL0     H23383   5.306   8.267   7.491  0.7839  0.8308 -0.0482
  914MOL0     H23384   5.214   8.371   7.706  1.0606  1.3426  1.1393
  914MOL0     H23385   5.195   8.517   7.605  3.5582  1.0861 -2.6599
  914MOL0     H23386   5.455   8.482   7.549  1.5474  1.8132  0.9914
  914MOL0     H23387   5.440   8.357   7.662 -1.1301 -0.2771  1.6165
  914MOL0     H23388   5.388   8.689   7.922  0.0299 -2.0959  1.6673
  914MOL0     H23389   4.865   8.145   7.446 -1.0138 -0.1963 -1.7207
  914MOL0     H23390   4.634   8.113   7.388 -3.1134  1.5124 -2.3191
  915MOL0     O23391   6.882   3.475   5.310 -0.0587 -0.0223  0.2181
  915MOL0     C23392   6.915   3.456   5.190 -0.0591 -0.9546 -0.0078
  915MOL0     O23393   6.842   3.500   5.079  0.0762  0.8861 -0.2893
  915MOL0     C23394   6.730   3.578   5.099 -0.4577  0.2282 -0.6630
  915MOL0     C23395   6.612   3.532   5.160 -0.4047  0.4418 -0.3527
  915MOL0     C23396   6.508   3.610   5.175  0.6625 -0.5453  0.4094
  915MOL0     C23397   6.497   3.734   5.113  0.2714 -0.1487 -0.0090
  915MOL0     O23398   6.387   3.813   5.127  0.1178  0.3657 -0.1408
  915MOL0     C23399   6.402   3.955   5.101  0.2822 -0.4173  0.1075
  915MOL0     C23400   6.271   4.030   5.117  0.2571 -0.6591 -0.0980
  915MOL0     C23401   6.304   4.175   5.073 -0.7989  0.6175  0.0123
  915MOL0     C23402   6.219   4.283   5.149  0.0650 -0.1887 -0.3393
  915MOL0     C23403   6.079   4.287   5.080 -0.6591 -0.4133 -1.0733
  915MOL0     C23404   5.996   4.400   5.136 -0.3058  0.9416  0.6747
  915MOL0     C23405   5.849   4.386   5.095 -0.5839  0.4231  0.3338
  915MOL0     C23406   5.821   4.325   4.955  1.1531  0.1118  0.8524
  915MOL0     N23407   5.682   4.360   4.909 -0.5527  0.1509  0.0091
  915MOL0     C23408   5.562   4.365   4.976  0.6372 -0.2266 -0.8013
  915MOL0     C23409   5.473   4.420   4.889  0.8317  0.0383  0.1314
  915MOL0     C23410   5.324   4.420   4.894 -0.2992  0.0226 -0.2806
  915MOL0     C23411   5.286   4.509   5.007  0.1223 -0.0984 -0.0621
  915MOL0     C23412   5.139   4.523   5.011  0.0492 -0.5749  0.0368
  915MOL0     C23413   5.090   4.615   5.126  0.0677  0.1942  0.1389
  915MOL0     O23414   4.955   4.662   5.104 -0.3344  0.0276  0.2149
  915MOL0     C23415   4.883   4.688   5.218  0.8568  0.0630 -0.6204
  915MOL0     C23416   4.921   4.712   5.356 -0.4456  1.2236  0.2254
  915MOL0     C23417   4.832   4.737   5.458 -0.6733  0.3400  0.1026
  915MOL0     C23418   4.885   4.733   5.601  0.1559  0.6824 -0.8874
  915MOL0     C23419   4.693   4.755   5.430  0.0806  1.5376 -0.4494
  915MOL0     C23420   4.576   4.788   5.521  0.5894  1.1133 -0.1677
  915MOL0     O23421   4.451   4.790   5.461 -0.7680  0.2816  0.0683
  915MOL0     C23422   4.346   4.835   5.529  0.9101 -0.1281  0.7198
  915MOL0     C23423   4.289   4.759   5.631 -0.1179  1.0820 -0.3306
  915MOL0     C23424   4.168   4.795   5.679 -0.3486 -0.5068 -0.5993
  915MOL0     C23425   4.117   4.921   5.644 -0.4703 -0.5481 -0.6499
  915MOL0     O23426   4.012   4.981   5.714 -0.2176 -0.0739 -0.4490
  915MOL0     C23427   3.898   4.891   5.736  0.8599 -0.4028 -0.1972
  915MOL0     C23428   3.810   4.882   5.611 -0.0827  0.2712  0.0395
  915MOL0     C23429   3.814   4.735   5.559 -0.1371  0.2358 -1.0983
  915MOL0     C23430   3.697   4.705   5.460 -0.1158  0.4353 -0.0274
  915MOL0     C23431   3.702   4.559   5.412  0.2542 -0.3809  0.1288
  915MOL0     C23432   3.606   4.547   5.293 -0.0256  0.0975  0.3993
  915MOL0     C23433   3.630   4.410   5.234 -0.0863 -0.9958  0.3406
  915MOL0     C23434   3.528   4.359   5.135 -0.7739 -0.3224  0.5108
  915MOL0    Cl23435   3.358   4.372   5.203  0.4197 -0.0981 -0.0707
  915MOL0     C23436   4.184   5.011   5.555  0.3837  0.4567 -0.6814
  915MOL0     C23437   4.298   4.965   5.490 -0.1351  0.1242 -0.9362
  915MOL0     O23438   4.597   4.821   5.640 -0.2532  0.2249 -0.3204
  915MOL0     C23439   4.658   4.718   5.299 -0.9247 -0.1694 -0.3958
  915MOL0     C23440   4.745   4.698   5.197 -0.0070  0.7093 -0.2312
  915MOL0     N23441   5.544   4.453   4.776 -0.0176 -0.0908 -0.6598
  915MOL0     N23442   5.668   4.420   4.791  0.1477  1.2768 -0.0723
  915MOL0     C23443   6.608   3.771   5.029  0.3162  0.1804 -0.2326
  915MOL0     C23444   6.721   3.695   5.028  0.2601  0.4967  0.7637
  915MOL0     C23445   7.039   3.381   5.153  0.2132  0.1855  0.5003
  915MOL0     C23446   7.134   3.336   5.255 -0.3790 -0.9719 -0.9778
  915MOL0     C23447   7.250   3.267   5.225 -0.0456  1.0371 -0.3781
  915MOL0     C23448   7.267   3.216   5.099  1.6607 -0.0450 -0.1320
  915MOL0     O23449   7.369   3.133   5.056  0.0868  0.5836  0.2350
  915MOL0     C23450   7.476   3.115   5.155 -0.2815 -0.2574  0.1219
  915MOL0     C23451   7.579   3.015   5.096 -0.4434 -0.0268  0.5944
  915MOL0     C23452   7.719   3.004   5.163  0.1673 -0.4008 -0.1273
  915MOL0     C23453   7.797   2.881   5.121 -0.2299  0.1838  0.2157
  915MOL0     C23454   7.923   2.877   5.204 -0.4440  0.6794  0.5458
  915MOL0     C23455   8.027   2.882   5.268 -0.2221 -0.3837  0.0065
  915MOL0     C23456   7.173   3.249   4.999  1.6019  0.1794  0.5119
  915MOL0     C23457   7.054   3.324   5.027 -1.1144 -0.0232 -0.1900
  915MOL0     H23458   6.622   3.437   5.212 -0.3295 -0.0406 -1.2285
  915MOL0     H23459   6.421   3.586   5.235 -2.9856  2.5024 -3.0665
  915MOL0     H23460   6.477   3.992   5.172  1.1010 -5.1288  2.0169
  915MOL0     H23461   6.431   3.971   4.996  3.4452  2.2029  1.2136
  915MOL0     H23462   6.198   3.982   5.052  2.0241 -1.7506 -1.3702
  915MOL0     H23463   6.237   4.019   5.220 -1.3823 -0.7348 -0.6262
  915MOL0     H23464   6.409   4.199   5.094  0.0378  0.2951 -3.3570
  915MOL0     H23465   6.293   4.190   4.966  2.0100  1.4813 -0.2197
  915MOL0     H23466   6.210   4.254   5.254 -1.2595  1.8137  0.1548
  915MOL0     H23467   6.259   4.384   5.135 -0.5825  0.0357 -0.6016
  915MOL0     H23468   6.088   4.296   4.971  0.5222 -3.2661 -1.2936
  915MOL0     H23469   6.034   4.191   5.108  1.0415 -1.2939 -1.2072
  915MOL0     H23470   5.996   4.421   5.243  1.4390 -1.0839  1.1493
  915MOL0     H23471   6.040   4.483   5.079  3.0546 -1.2027 -0.1569
  915MOL0     H23472   5.805   4.319   5.170  0.0159 -2.7903 -1.9407
  915MOL0     H23473   5.809   4.488   5.094  2.0467  1.5249 -1.1370
  915MOL0     H23474   5.839   4.217   4.960 -0.3048 -0.2853 -1.0725
  915MOL0     H23475   5.889   4.361   4.878 -1.1576 -0.5389 -1.6313
  915MOL0     H23476   5.536   4.318   5.070 -2.4936 -1.0357 -1.9327
  915MOL0     H23477   5.274   4.448   4.801 -0.8573  0.2175  0.0696
  915MOL0     H23478   5.290   4.319   4.920  0.3611 -0.7057 -2.0844
  915MOL0     H23479   5.340   4.601   4.982 -1.8832  1.0947 -0.1608
  915MOL0     H23480   5.330   4.478   5.102  0.8176 -2.0861 -0.9673
  915MOL0     H23481   5.097   4.423   5.029 -1.9886  0.1509 -0.3570
  915MOL0     H23482   5.111   4.562   4.913  0.4546 -2.7099 -1.0023
  915MOL0     H23483   5.160   4.699   5.132 -0.2105  0.3931  0.7194
  915MOL0     H23484   5.101   4.562   5.220 -1.1239  0.7519  0.6272
  915MOL0     H23485   5.025   4.697   5.384 -0.4779 -0.7225 -0.5439
  915MOL0     H23486   4.840   4.808   5.667 -0.0477  0.3340 -0.6268
  915MOL0     H23487   4.849   4.636   5.635 -0.3620  0.9362 -0.6883
  915MOL0     H23488   4.994   4.742   5.606  0.4008 -2.0956  0.7365
  915MOL0     H23489   4.340   4.668   5.660 -0.2311  0.9982 -0.3956
  915MOL0     H23490   4.128   4.735   5.760  2.7935 -0.7723  0.8909
  915MOL0     H23491   3.931   4.791   5.767  1.5926 -0.2811 -0.5515
  915MOL0     H23492   3.831   4.942   5.805  1.3277 -0.2495  0.1473
  915MOL0     H23493   3.710   4.913   5.641 -0.1752 -0.1775  0.1997
  915MOL0     H23494   3.849   4.942   5.528 -0.7542  0.3471 -0.2232
  915MOL0     H23495   3.815   4.659   5.637  0.4786  0.7580 -0.5814
  915MOL0     H23496   3.911   4.725   5.509 -0.9534  0.3662 -2.7609
  915MOL0     H23497   3.599   4.717   5.508  1.3315  1.1290  3.0497
  915MOL0     H23498   3.709   4.777   5.379 -2.5516  0.9601  0.0024
  915MOL0     H23499   3.679   4.476   5.479  1.1345 -0.6278  0.1438
  915MOL0     H23500   3.801   4.529   5.376 -1.2602 -4.6057 -1.0525
  915MOL0     H23501   3.503   4.571   5.322 -0.2190  2.1421 -1.6643
  915MOL0     H23502   3.631   4.617   5.213 -1.6520  2.9676  2.2414
  915MOL0     H23503   3.637   4.340   5.318 -1.0075 -2.3972 -0.7035
  915MOL0     H23504   3.728   4.408   5.187 -0.1974 -0.4154  0.0826
  915MOL0     H23505   3.554   4.255   5.117 -1.0503 -0.0568 -1.6681
  915MOL0     H23506   3.547   4.419   5.045  1.2564  1.2639  1.8788
  915MOL0     H23507   4.149   5.111   5.534 -1.2077 -0.5535 -3.4682
  915MOL0     H23508   4.354   5.031   5.424  1.1959  0.8125  0.8231
  915MOL0     H23509   4.554   4.709   5.270 -1.4812 -0.0280  1.4142
  915MOL0     H23510   4.708   4.684   5.096 -0.7556 -0.1702  0.1431
  915MOL0     H23511   6.594   3.862   4.971 -1.7710  0.5852  0.8150
  915MOL0     H23512   6.805   3.723   4.966  0.8305 -1.5453  0.5485
  915MOL0     H23513   7.122   3.386   5.351 -0.7964  0.5699 -1.7958
  915MOL0     H23514   7.314   3.241   5.309  0.5850 -0.2799 -1.2383
  915MOL0     H23515   7.535   3.204   5.179  0.2340  0.0845 -2.2043
  915MOL0     H23516   7.440   3.078   5.252  0.2902  2.1847  1.3481
  915MOL0     H23517   7.595   3.053   4.995  1.9030  0.7647  1.2070
  915MOL0     H23518   7.534   2.915   5.089 -0.4464  0.0264 -0.2511
  915MOL0     H23519   7.698   2.993   5.270 -3.0545  0.7970 -0.5340
  915MOL0     H23520   7.776   3.096   5.149 -0.6167  0.3906  1.5475
  915MOL0     H23521   7.824   2.890   5.015  2.1539  2.1241  0.8865
  915MOL0     H23522   7.744   2.786   5.133  2.1110 -1.0306  1.9234
  915MOL0     H23523   8.126   2.897   5.306 -0.5203  1.9923  0.0188
  915MOL0     H23524   7.182   3.210   4.898 -1.4493  2.6232 -0.8792
  915MOL0     H23525   7.002   3.352   4.936  0.3935 -1.4935 -1.6090
  916MOL0     O23526   6.049   9.157   4.878 -0.9323  0.2979 -0.0179
  916MOL0     C23527   6.073   9.254   4.948 -0.2902  0.0893 -0.3843
  916MOL0     O23528   5.977   9.325   5.018  0.4589 -0.5431  0.2832
  916MOL0     C23529   5.848   9.301   4.973  0.4367 -0.9352 -0.3386
  916MOL0     C23530   5.749   9.281   5.072 -0.0325 -0.3542  0.5964
  916MOL0     C23531   5.608   9.278   5.043 -0.1369  0.0598  0.0582
  916MOL0     C23532   5.573   9.296   4.911  0.1872 -0.2356 -0.2250
  916MOL0     O23533   5.444   9.273   4.882  0.1801  0.4190 -0.0974
  916MOL0     C23534   5.380   9.326   4.767  0.4035 -0.8689 -0.0995
  916MOL0     C23535   5.231   9.295   4.750 -0.9300  0.1329  0.0974
  916MOL0     C23536   5.140   9.386   4.837  0.0069  0.3164 -0.4918
  916MOL0     C23537   5.170   9.390   4.987 -0.3948  0.2228 -0.2125
  916MOL0     C23538   5.062   9.464   5.063  0.3075  1.0432  0.5357
  916MOL0     C23539   5.034   9.398   5.195  0.4709 -0.0580 -0.4687
  916MOL0     C23540   4.922   9.474   5.264  0.1441 -0.2513  0.0475
  916MOL0     C23541   4.903   9.443   5.415 -0.3010 -0.2450 -0.0919
  916MOL0     N23542   4.867   9.301   5.438  0.0850  0.7379  0.2135
  916MOL0     C23543   4.737   9.252   5.436 -0.3635 -0.0051  0.0875
  916MOL0     C23544   4.765   9.120   5.424  0.8734 -0.2556 -0.3500
  916MOL0     C23545   4.660   9.015   5.425 -0.6910  0.2174 -0.3291
  916MOL0     C23546   4.690   8.919   5.539  0.7240  0.5116 -0.5412
  916MOL0     C23547   4.580   8.814   5.573 -0.3834  0.4509 -0.0584
  916MOL0     C23548   4.618   8.745   5.704  0.2540  0.0136 -1.1242
  916MOL0     O23549   4.550   8.621   5.727 -0.2692 -0.1622 -0.1265
  916MOL0     C23550   4.417   8.613   5.740  0.4428 -0.4842 -0.4522
  916MOL0     C23551   4.361   8.488   5.739 -0.0426 -0.5117  0.2238
  916MOL0     C23552   4.223   8.463   5.770 -0.4937 -0.0197 -0.7318
  916MOL0     C23553   4.176   8.322   5.777 -0.1848 -0.6140 -0.0196
  916MOL0     C23554   4.138   8.570   5.795 -0.3554 -0.6200 -0.7618
  916MOL0     C23555   3.996   8.561   5.827 -1.1047  0.2687  1.0665
  916MOL0     O23556   3.948   8.657   5.907  0.1119 -0.3923  0.4372
  916MOL0     C23557   3.812   8.666   5.948 -0.2730  0.3223 -0.2250
  916MOL0     C23558   3.804   8.718   6.081  0.4598  0.0302 -0.1135
  916MOL0     C23559   3.678   8.734   6.144  0.2017  0.0457  0.4493
  916MOL0     C23560   3.562   8.702   6.069 -0.5086 -0.6443 -0.5503
  916MOL0     O23561   3.454   8.721   6.142  0.5743  0.3562 -0.1242
  916MOL0     C23562   3.329   8.708   6.073  0.3886  0.8303 -0.2526
  916MOL0     C23563   3.215   8.769   6.155  0.2112  0.0432  0.2638
  916MOL0     C23564   3.095   8.807   6.056  0.1278 -0.7628 -0.8401
  916MOL0     C23565   2.987   8.882   6.134  0.5382  1.0493  0.5407
  916MOL0     C23566   2.854   8.892   6.056 -0.5748 -0.8700 -0.3568
  916MOL0     C23567   2.760   8.990   6.122 -0.1461 -0.0261  0.0285
  916MOL0     C23568   2.655   9.048   6.039 -0.6980  0.2929  0.4290
  916MOL0     C23569   2.515   9.037   6.104  0.2992  0.0490 -0.3923
  916MOL0    Cl23570   2.386   9.096   5.998 -0.0130  0.0407 -0.5851
  916MOL0     C23571   3.568   8.657   5.943 -0.0041  0.0039  0.2338
  916MOL0     C23572   3.694   8.632   5.880 -0.0664  0.5021 -0.2047
  916MOL0     O23573   3.928   8.480   5.762 -0.7425 -1.1261 -0.1047
  916MOL0     C23574   4.196   8.698   5.806  0.4253  0.5666  0.2358
  916MOL0     C23575   4.330   8.720   5.777 -0.1960  0.2997 -0.5637
  916MOL0     N23576   4.895   9.093   5.418  0.0428 -0.1780 -0.5003
  916MOL0     N23577   4.955   9.203   5.423 -0.1000  0.3942  0.6259
  916MOL0     C23578   5.669   9.322   4.809  0.1450  0.3265  0.1535
  916MOL0     C23579   5.808   9.317   4.840  0.2097  0.0879 -0.4463
  916MOL0     C23580   6.217   9.289   4.977  1.1207  0.5085  0.3225
  916MOL0     C23581   6.248   9.401   5.060 -0.5667 -0.1206 -0.6592
  916MOL0     C23582   6.385   9.424   5.099  0.2319 -0.0248 -0.2878
  916MOL0     C23583   6.483   9.343   5.038  0.4415  0.5132  0.0272
  916MOL0     O23584   6.617   9.372   5.062  0.3404 -0.2285  0.3972
  916MOL0     C23585   6.662   9.320   5.189 -0.2315 -0.4598  0.4227
  916MOL0     C23586   6.681   9.171   5.195  0.2920 -0.6899 -0.8962
  916MOL0     C23587   6.792   9.106   5.100  0.3529  0.0258  0.3770
  916MOL0     C23588   6.778   8.955   5.084  0.0460 -0.5452  0.0379
  916MOL0     C23589   6.871   8.898   4.988  0.0815  0.7112  0.4209
  916MOL0     C23590   6.955   8.866   4.906 -0.1095  0.1256  0.1604
  916MOL0     C23591   6.448   9.236   4.950 -0.0014 -0.4339 -0.2499
  916MOL0     C23592   6.317   9.211   4.921  0.0617  0.2919 -0.1152
  916MOL0     H23593   5.785   9.285   5.174 -3.0346 -2.4514  1.8863
  916MOL0     H23594   5.535   9.268   5.123 -2.1871 -0.3861 -1.7980
  916MOL0     H23595   5.397   9.434   4.774 -3.5187 -0.2186  2.1289
  916MOL0     H23596   5.430   9.290   4.677  0.4868  1.1968 -0.9262
  916MOL0     H23597   5.200   9.293   4.646  0.4378 -3.1567 -0.3581
  916MOL0     H23598   5.211   9.195   4.788 -2.5459  0.2081 -0.4990
  916MOL0     H23599   5.161   9.488   4.801  4.0201 -0.0269  0.3921
  916MOL0     H23600   5.035   9.360   4.821 -0.1748  1.6127 -1.5723
  916MOL0     H23601   5.179   9.286   5.018  1.3799  1.2324  3.2109
  916MOL0     H23602   5.268   9.437   5.004 -0.2219  0.5840 -1.9665
  916MOL0     H23603   5.090   9.568   5.078  0.8704  1.2559 -1.6671
  916MOL0     H23604   4.965   9.467   5.014 -1.9850 -0.7330  4.4162
  916MOL0     H23605   5.006   9.294   5.181  0.9497 -0.3383  0.5605
  916MOL0     H23606   5.121   9.396   5.261  0.4732 -2.2812 -0.4853
  916MOL0     H23607   4.949   9.578   5.245  1.8623 -0.9157 -1.3761
  916MOL0     H23608   4.830   9.445   5.211 -0.6189 -0.7372  1.5636
  916MOL0     H23609   4.819   9.502   5.454 -0.7266  0.6846 -2.2683
  916MOL0     H23610   4.996   9.466   5.468 -0.2544 -1.5954  0.4654
  916MOL0     H23611   4.642   9.302   5.453 -0.4021 -0.2067  0.4598
  916MOL0     H23612   4.565   9.067   5.432  0.1696  2.7005 -4.1769
  916MOL0     H23613   4.662   8.956   5.333  0.2392 -0.2656 -0.0138
  916MOL0     H23614   4.709   8.964   5.637 -1.2761  0.6303 -0.1732
  916MOL0     H23615   4.782   8.864   5.515  1.3085  0.1941  2.0820
  916MOL0     H23616   4.578   8.747   5.487 -0.8924  1.1944 -0.6432
  916MOL0     H23617   4.479   8.855   5.581 -0.2439  0.4237  3.8254
  916MOL0     H23618   4.601   8.812   5.789 -1.9123 -0.4198 -1.1528
  916MOL0     H23619   4.724   8.720   5.704  0.5229  1.0157 -0.0091
  916MOL0     H23620   4.430   8.414   5.699  1.1695  1.3481 -1.2856
  916MOL0     H23621   4.105   8.312   5.860  0.8269  3.2676  1.5491
  916MOL0     H23622   4.127   8.294   5.683 -1.4485  1.2086  0.0289
  916MOL0     H23623   4.252   8.246   5.790  1.5908  1.0692 -0.1229
  916MOL0     H23624   3.900   8.745   6.123  0.8871 -0.1839 -0.9547
  916MOL0     H23625   3.675   8.767   6.247 -2.6542 -1.2422  0.8742
  916MOL0     H23626   3.327   8.756   5.975  0.4474  0.3451 -0.4983
  916MOL0     H23627   3.302   8.605   6.049 -2.9609  0.9433  2.3695
  916MOL0     H23628   3.181   8.699   6.231 -0.9146  0.9954  0.6731
  916MOL0     H23629   3.256   8.858   6.204 -1.9665  2.7052 -2.3653
  916MOL0     H23630   3.045   8.727   6.000 -0.1596  0.7089 -2.8089
  916MOL0     H23631   3.134   8.870   5.976 -1.3574 -1.2607 -1.9982
  916MOL0     H23632   2.969   8.810   6.215  2.3897 -0.2144 -0.1021
  916MOL0     H23633   3.023   8.977   6.174 -1.2424  0.7744  3.0089
  916MOL0     H23634   2.811   8.796   6.025  2.5291 -1.5003 -3.4437
  916MOL0     H23635   2.888   8.946   5.967 -2.3661  3.0544  1.1304
  916MOL0     H23636   2.724   8.938   6.212  2.1121  1.9513  2.2316
  916MOL0     H23637   2.825   9.072   6.155  0.7662 -1.5131  2.2414
  916MOL0     H23638   2.662   8.991   5.946  1.9329  0.2898  0.5649
  916MOL0     H23639   2.675   9.149   6.001  1.6107  0.7892  2.6906
  916MOL0     H23640   2.514   9.080   6.204  1.5748  2.1494 -1.2100
  916MOL0     H23641   2.485   8.935   6.130 -3.2121  1.3891  1.4549
  916MOL0     H23642   3.474   8.631   5.893 -0.7334  2.3371  0.2713
  916MOL0     H23643   3.718   8.585   5.785  1.4084 -3.9450  2.0550
  916MOL0     H23644   4.130   8.781   5.832 -3.0920 -1.9405  0.0842
  916MOL0     H23645   4.366   8.822   5.784  0.0290  0.1174  1.3258
  916MOL0     H23646   5.635   9.339   4.707 -0.2444 -0.6739  0.1004
  916MOL0     H23647   5.883   9.356   4.773  0.8422  2.1173  1.2977
  916MOL0     H23648   6.171   9.461   5.106  1.4748  2.5270 -0.4687
  916MOL0     H23649   6.422   9.502   5.164  0.5537 -0.9179  0.6323
  916MOL0     H23650   6.762   9.359   5.209  0.9182 -1.4069 -2.9336
  916MOL0     H23651   6.596   9.349   5.272 -2.6541 -2.0448 -0.8406
  916MOL0     H23652   6.584   9.124   5.176  0.4463 -0.6880 -1.7387
  916MOL0     H23653   6.713   9.141   5.296  0.2716 -1.4444 -1.1024
  916MOL0     H23654   6.891   9.142   5.132 -0.0159  1.2535  0.1847
  916MOL0     H23655   6.779   9.154   5.003 -1.3529 -2.6099 -0.7922
  916MOL0     H23656   6.678   8.958   5.040  1.1303  3.2597 -2.7164
  916MOL0     H23657   6.783   8.903   5.180  0.4344  2.2020  1.6094
  916MOL0     H23658   7.047   8.856   4.853  1.4171  5.4152  1.2883
  916MOL0     H23659   6.525   9.174   4.906  0.3714  0.4007 -0.8032
  916MOL0     H23660   6.294   9.124   4.860 -3.1266 -0.7768  2.3252
  917MOL0     O23661   2.832   7.371   0.572 -0.0533  0.3422 -0.7901
  917MOL0     C23662   2.859   7.423   0.678 -0.4266 -0.0971 -0.3195
  917MOL0     O23663   2.760   7.487   0.757  0.4299  0.3600  0.2224
  917MOL0     C23664   2.629   7.501   0.709  0.6223  0.2015  0.8021
  917MOL0     C23665   2.571   7.628   0.709  0.1089  0.1792  0.8077
  917MOL0     C23666   2.434   7.639   0.676  0.4767  0.0360  0.8368
  917MOL0     C23667   2.350   7.526   0.631 -0.3871  0.3597 -0.1980
  917MOL0     O23668   2.225   7.532   0.592  0.3548  0.8199  0.1861
  917MOL0     C23669   2.144   7.608   0.679  0.5067  0.2320  0.1357
  917MOL0     C23670   1.994   7.582   0.636  1.4750 -0.0059 -0.9734
  917MOL0     C23671   1.892   7.655   0.728 -0.1051 -0.4528  0.1808
  917MOL0     C23672   1.750   7.633   0.663  0.2894 -0.0711  0.2446
  917MOL0     C23673   1.643   7.675   0.760 -0.0274 -0.0728 -0.3631
  917MOL0     C23674   1.503   7.681   0.692 -0.1363 -0.6553  0.1254
  917MOL0     C23675   1.394   7.764   0.769 -0.0995 -0.2414  0.2135
  917MOL0     C23676   1.338   7.693   0.898  0.0143  0.1546  0.3046
  917MOL0     N23677   1.224   7.770   0.949 -0.0078 -0.1792  0.2635
  917MOL0     C23678   1.231   7.875   1.033  0.0841  0.8235  0.1785
  917MOL0     C23679   1.107   7.926   1.053  0.6994  0.1711  0.4125
  917MOL0     C23680   1.070   8.053   1.118  0.1475  0.2661  0.6178
  917MOL0     C23681   1.081   8.168   1.020 -0.7912  0.0260 -0.0916
  917MOL0     C23682   1.022   8.303   1.087  0.0341  0.4092  0.0505
  917MOL0     C23683   0.886   8.291   1.143  0.3637 -0.4528 -0.7796
  917MOL0     O23684   0.802   8.240   1.052  0.4708  0.5541 -0.5731
  917MOL0     C23685   0.672   8.224   1.095  0.5389 -0.1122  0.7341
  917MOL0     C23686   0.583   8.168   1.004  0.6298 -0.6118 -0.0483
  917MOL0     C23687   0.446   8.158   1.032 -0.0634  0.4259  0.4702
  917MOL0     C23688   0.362   8.103   0.922  0.5241  0.4960 -0.0905
  917MOL0     C23689   0.391   8.190   1.159 -0.3795 -0.3691  0.0097
  917MOL0     C23690   0.249   8.164   1.202 -0.3019  0.0450  0.4161
  917MOL0     O23691   0.230   8.178   1.339  0.3264 -0.2490 -0.5776
  917MOL0     C23692   0.098   8.164   1.382  0.4451 -0.1195 -0.5818
  917MOL0     C23693   0.076   8.048   1.450  0.3881  0.3189  0.0197
  917MOL0     C23694  -0.055   8.025   1.505  0.3462 -0.5333 -0.1094
  917MOL0     C23695  -0.155   8.122   1.497  0.3992 -0.1584  0.9814
  917MOL0     O23696  -0.272   8.086   1.561 -0.1632  0.6086 -0.0787
  917MOL0     C23697  -0.379   8.183   1.562 -0.2525  0.1202  0.4275
  917MOL0     C23698  -0.494   8.136   1.653  0.1461 -0.1451  0.7334
  917MOL0     C23699  -0.575   8.253   1.693  0.0265  0.0228  0.3389
  917MOL0     C23700  -0.701   8.203   1.772 -0.8130 -0.3755 -0.4579
  917MOL0     C23701  -0.779   8.337   1.804  0.2525  0.3763 -0.1922
  917MOL0     C23702  -0.882   8.314   1.907 -0.2920 -0.6275 -0.5424
  917MOL0     C23703  -0.982   8.202   1.872  0.6902  0.0938  0.0898
  917MOL0     C23704  -1.094   8.188   1.975 -0.6469  0.1149 -0.1435
  917MOL0    Cl23705  -1.209   8.055   1.947 -0.0837  0.1343 -0.5851
  917MOL0     C23706  -0.131   8.237   1.430  0.6932 -0.5265  0.5799
  917MOL0     C23707  -0.004   8.256   1.373 -0.0557  0.2777 -0.0143
  917MOL0     O23708   0.157   8.123   1.129  0.3131 -0.5693  0.2864
  917MOL0     C23709   0.490   8.243   1.251 -0.1112 -0.6546 -0.2240
  917MOL0     C23710   0.617   8.268   1.217  0.3884 -0.4110  0.4145
  917MOL0     N23711   1.022   7.847   0.969 -0.4519 -0.0736 -0.1524
  917MOL0     N23712   1.096   7.748   0.916 -0.1494 -0.3738  0.0690
  917MOL0     C23713   2.426   7.406   0.615 -0.2530  0.5806 -0.5495
  917MOL0     C23714   2.558   7.395   0.659 -0.0601 -0.2816 -0.2591
  917MOL0     C23715   3.000   7.433   0.722  0.2262 -0.2199  0.6113
  917MOL0     C23716   3.109   7.386   0.651 -0.4425  0.3314 -0.0139
  917MOL0     C23717   3.236   7.408   0.695  0.0380 -0.2643  0.5061
  917MOL0     C23718   3.262   7.465   0.821 -0.5844  0.0355 -0.4936
  917MOL0     O23719   3.396   7.484   0.848 -0.3022 -0.2903 -0.4805
  917MOL0     C23720   3.432   7.590   0.941  0.0270  0.2314 -1.0157
  917MOL0     C23721   3.586   7.590   0.960  0.0132  0.0324 -1.2862
  917MOL0     C23722   3.622   7.471   1.058 -0.1362  0.6079 -0.0742
  917MOL0     C23723   3.760   7.488   1.124 -0.1543 -0.7997  0.0605
  917MOL0     C23724   3.873   7.504   1.029 -0.1945  0.1339 -0.2379
  917MOL0     C23725   3.961   7.514   0.941  0.5795  0.1649  0.0241
  917MOL0     C23726   3.152   7.511   0.901 -0.0186 -0.4110 -0.5396
  917MOL0     C23727   3.023   7.500   0.851  0.2152 -0.5450  0.4361
  917MOL0     H23728   2.635   7.711   0.738 -1.2694  0.9639  1.6860
  917MOL0     H23729   2.395   7.741   0.684  0.0501 -0.1611  1.3981
  917MOL0     H23730   2.153   7.584   0.785  1.3952  2.1468  0.5296
  917MOL0     H23731   2.175   7.712   0.671  1.5267  0.0223  1.1245
  917MOL0     H23732   1.982   7.614   0.532  0.7101  0.8237 -0.6363
  917MOL0     H23733   1.980   7.474   0.642  1.4504  0.0315 -0.2205
  917MOL0     H23734   1.883   7.597   0.820 -2.4443 -1.8081 -0.7939
  917MOL0     H23735   1.922   7.757   0.754 -2.9969  0.4280  0.4096
  917MOL0     H23736   1.744   7.696   0.574  0.2797 -2.2061 -1.3599
  917MOL0     H23737   1.724   7.530   0.634 -0.7885  1.0163 -3.1743
  917MOL0     H23738   1.637   7.606   0.845 -4.5200  1.4169  0.7847
  917MOL0     H23739   1.669   7.776   0.794  1.1250  0.4339 -2.5685
  917MOL0     H23740   1.514   7.733   0.596 -0.6691  0.0477  0.4356
  917MOL0     H23741   1.472   7.584   0.654  2.1261 -1.2034 -0.5158
  917MOL0     H23742   1.443   7.853   0.810  0.5815 -0.3251 -0.3979
  917MOL0     H23743   1.316   7.803   0.703  0.0980 -1.7694 -0.9827
  917MOL0     H23744   1.413   7.685   0.977 -0.3918  0.5028  0.7353
  917MOL0     H23745   1.311   7.590   0.871 -0.6430  0.0151  1.4089
  917MOL0     H23746   1.319   7.931   1.063  0.6622 -0.1554  0.3387
  917MOL0     H23747   0.974   8.052   1.171  0.4653 -0.6030  1.1981
  917MOL0     H23748   1.127   8.055   1.211  0.2327  0.7742  0.5565
  917MOL0     H23749   1.022   8.145   0.931  0.8585 -0.8681 -1.0011
  917MOL0     H23750   1.181   8.190   0.980 -0.6980  1.6490  0.9501
  917MOL0     H23751   1.041   8.381   1.012  2.7743 -1.8962 -1.8999
  917MOL0     H23752   1.085   8.335   1.170  1.4007  0.3383 -0.9245
  917MOL0     H23753   0.859   8.389   1.184  2.0656 -0.2534 -0.0469
  917MOL0     H23754   0.892   8.220   1.227  2.9999 -1.4610 -1.7107
  917MOL0     H23755   0.626   8.137   0.909 -0.6597 -2.1020 -0.1653
  917MOL0     H23756   0.426   8.055   0.847  1.4309  1.1158  0.2765
  917MOL0     H23757   0.292   8.030   0.963 -2.0001  1.9594 -1.5108
  917MOL0     H23758   0.301   8.172   0.864  0.1126  1.4001  1.3752
  917MOL0     H23759   0.154   7.973   1.461 -1.0266 -1.1317  0.5428
  917MOL0     H23760  -0.076   7.937   1.565 -1.4326 -0.3720 -0.4415
  917MOL0     H23761  -0.336   8.270   1.612 -0.5371  0.0123  0.8602
  917MOL0     H23762  -0.416   8.212   1.463  3.0326  1.6088 -0.4949
  917MOL0     H23763  -0.564   8.069   1.603 -1.2768  0.6710  1.5775
  917MOL0     H23764  -0.451   8.087   1.741  0.9811 -1.0582 -0.1570
  917MOL0     H23765  -0.606   8.305   1.601  0.2847 -2.2191 -1.1019
  917MOL0     H23766  -0.513   8.321   1.753 -2.0596  0.5731  1.9501
  917MOL0     H23767  -0.758   8.132   1.711 -1.4573  0.2198 -0.5480
  917MOL0     H23768  -0.675   8.155   1.867  1.5803 -0.4817 -1.0808
  917MOL0     H23769  -0.827   8.370   1.712  0.0861  0.8963  0.0772
  917MOL0     H23770  -0.715   8.420   1.838  3.0117 -2.3206  1.8062
  917MOL0     H23771  -0.831   8.283   1.998 -0.4458 -1.4574 -0.7263
  917MOL0     H23772  -0.934   8.409   1.920  1.8160  0.9791 -2.8967
  917MOL0     H23773  -0.923   8.110   1.864  1.2004  0.1248  2.7312
  917MOL0     H23774  -1.027   8.226   1.775  1.5507 -1.5931 -0.7954
  917MOL0     H23775  -1.150   8.281   1.970  0.4889  1.0151  2.1436
  917MOL0     H23776  -1.057   8.184   2.078 -2.2863 -4.8773  0.5195
  917MOL0     H23777  -0.213   8.308   1.437  0.0957 -1.3338  2.4373
  917MOL0     H23778   0.022   8.352   1.329 -0.2689  0.8626  1.1086
  917MOL0     H23779   0.454   8.286   1.344  0.4812  0.1797 -0.3747
  917MOL0     H23780   0.680   8.321   1.289 -1.1475  0.5958  1.0872
  917MOL0     H23781   2.363   7.321   0.589 -0.9131  0.8800  0.0421
  917MOL0     H23782   2.602   7.296   0.653  1.1105  0.2716 -1.2610
  917MOL0     H23783   3.089   7.331   0.560 -1.8873 -2.1525  1.6947
  917MOL0     H23784   3.325   7.381   0.640  0.0219  0.7330 -0.0371
  917MOL0     H23785   3.403   7.687   0.899 -1.4603  0.6246  0.7815
  917MOL0     H23786   3.380   7.576   1.036 -2.0997 -3.6978 -2.5292
  917MOL0     H23787   3.631   7.678   1.007 -0.8855  0.7590 -1.7399
  917MOL0     H23788   3.635   7.567   0.865  2.9682 -0.7917  0.3406
  917MOL0     H23789   3.623   7.380   0.996  0.8128 -0.6380  1.6649
  917MOL0     H23790   3.559   7.453   1.145 -0.5055  3.6608  0.3739
  917MOL0     H23791   3.765   7.400   1.189  0.6621 -0.9353 -0.1688
  917MOL0     H23792   3.774   7.563   1.202 -0.1619 -1.5786  0.8276
  917MOL0     H23793   4.021   7.515   0.853  0.6470  1.5095  0.0755
  917MOL0     H23794   3.164   7.538   1.006 -1.1646 -5.6964  1.2266
  917MOL0     H23795   2.937   7.553   0.889  1.0403  1.8956 -0.8766
  918MOL0     O23796   0.637   8.506   7.704  1.0077  0.2517 -0.2541
  918MOL0     C23797   0.673   8.575   7.609  0.7801  0.6258  0.9392
  918MOL0     O23798   0.592   8.619   7.501  0.5482  0.1904  0.3605
  918MOL0     C23799   0.461   8.573   7.510 -0.0228  0.6094 -0.6629
  918MOL0     C23800   0.355   8.655   7.554  0.1721 -0.5236 -0.3391
  918MOL0     C23801   0.224   8.608   7.567  0.0514 -0.1434  0.8793
  918MOL0     C23802   0.201   8.474   7.542 -0.0767 -0.5118  0.1251
  918MOL0     O23803   0.069   8.427   7.554 -0.2137  0.1200 -0.0148
  918MOL0     C23804   0.015   8.396   7.422 -0.8536 -0.2672  0.5981
  918MOL0     C23805   0.010   8.243   7.391 -0.0662 -0.4162 -1.1459
  918MOL0     C23806  -0.132   8.192   7.428 -0.5517 -0.5305 -0.0023
  918MOL0     C23807  -0.123   8.039   7.414 -0.5815  0.3366 -0.6129
  918MOL0     C23808  -0.222   7.985   7.532 -0.3850 -1.1454  0.1144
  918MOL0     C23809  -0.264   7.846   7.504 -0.0000  0.4058  0.2504
  918MOL0     C23810  -0.145   7.745   7.488 -0.0197 -0.0240 -0.5382
  918MOL0     C23811  -0.064   7.740   7.618  0.0095  0.6209  0.2048
  918MOL0     N23812  -0.133   7.717   7.740 -0.8566  0.4783  0.2504
  918MOL0     C23813  -0.152   7.594   7.793 -0.6041  0.1501 -0.1374
  918MOL0     C23814  -0.181   7.621   7.924  0.3059 -0.4377  0.5312
  918MOL0     C23815  -0.227   7.520   8.028 -0.2166  0.0359 -0.8272
  918MOL0     C23816  -0.384   7.522   8.036 -0.1078  0.0139 -0.2738
  918MOL0     C23817  -0.436   7.413   8.128 -0.0770 -0.3071 -0.2541
  918MOL0     C23818  -0.584   7.435   8.149  0.7140 -0.0139 -0.6702
  918MOL0     O23819  -0.641   7.389   8.271 -0.9219 -0.3267 -0.0405
  918MOL0     C23820  -0.774   7.380   8.288  0.3263  0.2489 -0.4489
  918MOL0     C23821  -0.874   7.417   8.202 -0.2531  0.2105  0.3702
  918MOL0     C23822  -1.008   7.429   8.241  0.2195  0.1822 -0.3143
  918MOL0     C23823  -1.105   7.461   8.129 -0.0060 -0.0157 -0.2085
  918MOL0     C23824  -1.050   7.392   8.372  0.4678  0.2773 -0.0177
  918MOL0     C23825  -1.189   7.389   8.425 -0.2799  0.3110  0.0914
  918MOL0     O23826  -1.300   7.392   8.341 -0.4875 -0.7894  0.4224
  918MOL0     C23827  -1.422   7.396   8.399 -0.1295 -1.2114  0.0108
  918MOL0     C23828  -1.516   7.499   8.378  0.1158  0.0357  0.4562
  918MOL0     C23829  -1.639   7.502   8.435  0.1951  0.1414 -0.3637
  918MOL0     C23830  -1.681   7.390   8.517 -0.0670 -0.4053  0.2362
  918MOL0     O23831  -1.803   7.384   8.578  0.3229 -0.2753  0.3456
  918MOL0     C23832  -1.901   7.490   8.576  0.3935 -0.1711 -0.7071
  918MOL0     C23833  -1.891   7.567   8.704 -0.2791 -0.6108 -0.0401
  918MOL0     C23834  -2.018   7.656   8.717 -0.1584 -0.4182 -0.4371
  918MOL0     C23835  -1.977   7.789   8.768 -0.3006  0.0310 -0.6812
  918MOL0     C23836  -2.083   7.889   8.773 -0.1621  0.2218 -0.9159
  918MOL0     C23837  -2.198   7.849   8.865 -0.5231 -0.6151  0.7110
  918MOL0     C23838  -2.306   7.952   8.859  0.1070 -0.8393 -0.6292
  918MOL0     C23839  -2.265   8.094   8.908 -0.2408 -0.2559 -0.0104
  918MOL0    Cl23840  -2.399   8.200   8.890  0.2442 -0.0029 -0.4487
  918MOL0     C23841  -1.590   7.285   8.543  0.1747  0.0230  0.4270
  918MOL0     C23842  -1.463   7.286   8.479 -0.0711 -0.3608 -1.1434
  918MOL0     O23843  -1.192   7.379   8.544  0.1686  0.2087  0.4580
  918MOL0     C23844  -0.950   7.351   8.464 -0.2384  0.0112 -0.7152
  918MOL0     C23845  -0.817   7.342   8.417 -0.4299 -0.6180  0.3248
  918MOL0     N23846  -0.163   7.756   7.952  0.2951 -0.0211 -0.0988
  918MOL0     N23847  -0.129   7.814   7.844 -0.6298  0.3838  1.6581
  918MOL0     C23848   0.302   8.394   7.497 -0.1258 -0.0836 -0.2061
  918MOL0     C23849   0.430   8.440   7.488  0.0375  0.0318  0.4790
  918MOL0     C23850   0.816   8.611   7.590  0.0191  0.3313 -0.6125
  918MOL0     C23851   0.914   8.550   7.672 -0.6294 -0.4513 -0.3054
  918MOL0     C23852   1.055   8.572   7.654  0.0000 -0.3514  0.1365
  918MOL0     C23853   1.098   8.648   7.546  0.2873  0.4699 -0.1210
  918MOL0     O23854   1.228   8.642   7.514  0.1015 -0.0163 -0.6926
  918MOL0     C23855   1.301   8.747   7.578  0.0932 -0.5750  0.3875
  918MOL0     C23856   1.442   8.685   7.613  0.4251 -1.2182 -0.7245
  918MOL0     C23857   1.436   8.576   7.722  0.0270  0.0220 -0.0324
  918MOL0     C23858   1.556   8.573   7.809 -0.3895 -0.4186 -0.2942
  918MOL0     C23859   1.586   8.687   7.895  0.9080 -0.4181 -0.1230
  918MOL0     C23860   1.625   8.782   7.958  0.2964  0.2762  0.1069
  918MOL0     C23861   1.004   8.704   7.469 -1.4617 -0.1586  0.0486
  918MOL0     C23862   0.868   8.698   7.496 -0.2253  0.1380 -0.6150
  918MOL0     H23863   0.369   8.757   7.589 -0.9954 -1.4779  3.3600
  918MOL0     H23864   0.153   8.682   7.603 -0.6198  0.2129 -1.0356
  918MOL0     H23865  -0.086   8.438   7.421 -1.3960 -1.4971 -1.0459
  918MOL0     H23866   0.079   8.445   7.347 -1.0998 -1.6969 -0.5887
  918MOL0     H23867   0.034   8.220   7.287  2.3913  1.5159 -1.0883
  918MOL0     H23868   0.079   8.192   7.459 -0.5286  0.0705 -0.2822
  918MOL0     H23869  -0.151   8.224   7.531  1.1243 -0.9736  0.4687
  918MOL0     H23870  -0.199   8.234   7.352  1.1470  0.8914 -0.7790
  918MOL0     H23871  -0.139   8.005   7.311 -0.1890 -0.2611 -0.4781
  918MOL0     H23872  -0.021   8.002   7.430 -1.4855 -2.4755 -0.9546
  918MOL0     H23873  -0.176   7.998   7.631 -0.6597 -0.3173  0.1371
  918MOL0     H23874  -0.314   8.044   7.528  0.1053 -0.4362 -2.3169
  918MOL0     H23875  -0.326   7.825   7.592  0.6843  0.2756  0.7051
  918MOL0     H23876  -0.333   7.847   7.419  0.2825 -2.0457 -0.0974
  918MOL0     H23877  -0.181   7.642   7.478  1.5891 -0.8614  1.6843
  918MOL0     H23878  -0.090   7.779   7.399 -1.6864  0.4015 -1.4630
  918MOL0     H23879  -0.006   7.833   7.623 -1.1263  1.3594  0.0829
  918MOL0     H23880   0.003   7.654   7.608  1.4120  1.4543  1.8706
  918MOL0     H23881  -0.155   7.494   7.751 -3.0544 -0.4034  1.1691
  918MOL0     H23882  -0.190   7.417   8.016 -1.8343 -0.8523  1.1121
  918MOL0     H23883  -0.184   7.549   8.125 -0.3821 -0.7784 -0.5007
  918MOL0     H23884  -0.419   7.505   7.934 -1.8488  0.0383  0.2928
  918MOL0     H23885  -0.404   7.619   8.082  2.5008  0.3323  0.3497
  918MOL0     H23886  -0.389   7.428   8.226  0.0296  1.2264 -0.5078
  918MOL0     H23887  -0.418   7.316   8.082 -2.1217 -0.1926 -1.3962
  918MOL0     H23888  -0.634   7.387   8.064  2.8865 -1.7108 -1.0919
  918MOL0     H23889  -0.614   7.539   8.132  0.1014 -0.5596 -3.3521
  918MOL0     H23890  -0.837   7.431   8.101  3.4220 -0.1759  1.5131
  918MOL0     H23891  -1.185   7.387   8.119 -1.0965  1.2107 -0.7790
  918MOL0     H23892  -1.155   7.554   8.158 -0.5771 -0.0981 -0.8943
  918MOL0     H23893  -1.056   7.477   8.033 -2.7152  0.4438 -1.6075
  918MOL0     H23894  -1.495   7.582   8.311 -4.1246  0.0964 -1.1294
  918MOL0     H23895  -1.699   7.589   8.412 -0.1728 -0.3066 -1.1750
  918MOL0     H23896  -1.894   7.556   8.489 -1.0464 -4.2266 -4.2465
  918MOL0     H23897  -1.998   7.448   8.550 -0.7797  1.6847  0.4424
  918MOL0     H23898  -1.892   7.499   8.790 -3.4074  0.9751  1.3343
  918MOL0     H23899  -1.808   7.637   8.692 -3.7733  4.6658  2.7536
  918MOL0     H23900  -2.090   7.612   8.787 -0.5047  0.6985 -0.0644
  918MOL0     H23901  -2.065   7.667   8.619 -3.6266 -0.2334  1.1037
  918MOL0     H23902  -1.945   7.767   8.871  0.4221 -0.1551 -0.9455
  918MOL0     H23903  -1.892   7.827   8.711 -0.2222  1.0970  0.1068
  918MOL0     H23904  -2.119   7.906   8.671 -0.6015  1.3672 -0.5868
  918MOL0     H23905  -2.033   7.975   8.819  1.9462 -1.9963  1.2271
  918MOL0     H23906  -2.238   7.764   8.809 -0.4244  0.4816 -1.1206
  918MOL0     H23907  -2.165   7.828   8.967 -1.4239 -1.1077  0.9158
  918MOL0     H23908  -2.392   7.930   8.923 -0.1594  0.6686 -0.4389
  918MOL0     H23909  -2.352   7.951   8.759  0.4949 -1.3462 -0.8069
  918MOL0     H23910  -2.184   8.123   8.840  0.3580 -2.5382 -0.3781
  918MOL0     H23911  -2.232   8.093   9.012  0.3541 -1.0159 -0.1946
  918MOL0     H23912  -1.623   7.212   8.616  2.0123  0.3724  1.6661
  918MOL0     H23913  -1.385   7.214   8.500 -0.3430 -0.9456 -2.0584
  918MOL0     H23914  -0.966   7.305   8.560 -2.0321  0.2804 -0.8341
  918MOL0     H23915  -0.733   7.308   8.477  0.6555 -2.1282 -1.8986
  918MOL0     H23916   0.282   8.292   7.466  0.4200  0.3043 -1.9797
  918MOL0     H23917   0.510   8.373   7.455 -1.4760 -1.3041 -0.6236
  918MOL0     H23918   0.880   8.488   7.755 -1.1107  0.1203 -0.0687
  918MOL0     H23919   1.117   8.519   7.726 -0.9919 -0.6057  0.8210
  918MOL0     H23920   1.313   8.833   7.512  1.6271 -0.3982  0.8437
  918MOL0     H23921   1.260   8.788   7.671  2.3884  0.5363  0.9856
  918MOL0     H23922   1.493   8.775   7.647 -3.2352  1.4652 -1.6835
  918MOL0     H23923   1.491   8.652   7.521  0.2757 -2.7084 -0.2984
  918MOL0     H23924   1.434   8.479   7.670  1.0105  0.6681 -1.3196
  918MOL0     H23925   1.348   8.586   7.786  1.7761  0.2359  2.4384
  918MOL0     H23926   1.638   8.564   7.738 -0.0120  0.3089  0.0330
  918MOL0     H23927   1.541   8.486   7.873  0.2137 -0.7313 -0.5693
  918MOL0     H23928   1.647   8.870   8.016 -1.1763  0.7034  0.0700
  918MOL0     H23929   1.043   8.739   7.373 -1.3559 -1.7529 -0.5160
  918MOL0     H23930   0.794   8.746   7.432 -0.7748 -0.7734 -0.6788
  919MOL0     O23931   7.910   6.193   0.719 -0.3669  0.4010  0.3640
  919MOL0     C23932   7.936   6.295   0.779 -0.1326  0.3430  0.8352
  919MOL0     O23933   7.844   6.387   0.815 -0.0237  0.3496 -0.8661
  919MOL0     C23934   7.710   6.390   0.780 -0.6996 -0.8590 -0.5022
  919MOL0     C23935   7.621   6.451   0.869 -0.3495  1.0172  0.4245
  919MOL0     C23936   7.480   6.447   0.849 -0.5422  0.0082  0.3866
  919MOL0     C23937   7.433   6.390   0.728 -0.5428 -0.0243 -0.4046
  919MOL0     O23938   7.293   6.381   0.710 -0.0745  0.3517 -0.5305
  919MOL0     C23939   7.231   6.310   0.601 -0.3573  0.3401  0.1510
  919MOL0     C23940   7.115   6.236   0.637 -0.3045 -0.5780  0.3638
  919MOL0     C23941   7.012   6.325   0.705  0.2587  0.3890  0.1254
  919MOL0     C23942   6.916   6.253   0.790 -0.0793  0.2159 -0.3910
  919MOL0     C23943   6.835   6.355   0.868  0.2765  0.7179 -0.2649
  919MOL0     C23944   6.713   6.289   0.935  0.2574 -0.7804  0.3162
  919MOL0     C23945   6.650   6.363   1.047  0.6460 -0.2013 -0.8249
  919MOL0     C23946   6.731   6.366   1.176 -0.3277  0.9998  0.2067
  919MOL0     N23947   6.657   6.429   1.282  0.2177 -0.0733  0.7924
  919MOL0     C23948   6.588   6.359   1.373 -0.3258 -0.2406  0.0795
  919MOL0     C23949   6.547   6.450   1.459 -0.0364 -0.4450  0.4677
  919MOL0     C23950   6.465   6.424   1.584 -0.0871  0.5259 -0.7585
  919MOL0     C23951   6.334   6.513   1.563 -1.2411 -1.0553  0.2923
  919MOL0     C23952   6.243   6.469   1.447  0.7787  0.4891  0.1565
  919MOL0     C23953   6.089   6.475   1.470 -0.2536  0.5881 -0.0398
  919MOL0     O23954   6.049   6.601   1.525  0.3082 -0.2912 -0.9089
  919MOL0     C23955   5.914   6.605   1.559  0.3128 -0.1284  0.1023
  919MOL0     C23956   5.823   6.499   1.563  0.1328 -0.0617 -0.4164
  919MOL0     C23957   5.688   6.513   1.596  0.7261  0.3281  0.7568
  919MOL0     C23958   5.605   6.389   1.589  0.0435 -0.0056  0.2440
  919MOL0     C23959   5.639   6.643   1.631  0.5367  0.6604  0.3096
  919MOL0     C23960   5.498   6.678   1.653  0.5815  0.2974 -0.5681
  919MOL0     O23961   5.402   6.591   1.602 -0.2824 -1.4260  0.3029
  919MOL0     C23962   5.275   6.637   1.574  0.3969 -0.3259 -0.1648
  919MOL0     C23963   5.225   6.770   1.577 -0.2923  0.3120 -0.4871
  919MOL0     C23964   5.096   6.798   1.535 -0.3994 -0.0944 -0.7451
  919MOL0     C23965   5.015   6.690   1.483 -0.9682  0.6619  0.8843
  919MOL0     O23966   4.888   6.708   1.419 -0.7255  0.1681 -0.5524
  919MOL0     C23967   4.813   6.824   1.462  0.3042 -0.3383  0.0073
  919MOL0     C23968   4.689   6.832   1.376 -0.4394 -0.1182 -0.0414
  919MOL0     C23969   4.575   6.770   1.454 -0.1532 -0.3856 -0.2171
  919MOL0     C23970   4.437   6.819   1.396 -0.4110  0.7251  0.0937
  919MOL0     C23971   4.317   6.754   1.469  1.3667  0.4142 -0.1793
  919MOL0     C23972   4.192   6.814   1.404 -0.5244  0.2945 -1.0762
  919MOL0     C23973   4.069   6.811   1.493 -0.4779 -0.4004 -0.4905
  919MOL0     C23974   3.951   6.867   1.419  0.0225 -0.0818  0.7421
  919MOL0    Cl23975   3.809   6.881   1.510 -0.3572 -0.4305 -0.0311
  919MOL0     C23976   5.061   6.556   1.485 -0.7606  0.8707  0.0253
  919MOL0     C23977   5.192   6.537   1.531 -0.2839  0.0972 -0.6568
  919MOL0     O23978   5.466   6.774   1.728 -0.1625 -0.2808 -0.7212
  919MOL0     C23979   5.738   6.744   1.650 -0.6203  0.8886  0.0433
  919MOL0     C23980   5.862   6.730   1.600 -0.5335  0.9024  0.1155
  919MOL0     N23981   6.575   6.576   1.411 -0.2892 -0.3295  0.4176
  919MOL0     N23982   6.638   6.564   1.298 -0.9262 -0.1800  0.8510
  919MOL0     C23983   7.524   6.346   0.633  0.4374  0.0914  0.4315
  919MOL0     C23984   7.661   6.351   0.659 -0.4397  1.0754 -0.3614
  919MOL0     C23985   8.068   6.324   0.831  1.2098  0.0267  0.9686
  919MOL0     C23986   8.085   6.423   0.930 -0.1159  0.8559 -0.0722
  919MOL0     C23987   8.212   6.464   0.974 -0.2829 -0.6153  0.1374
  919MOL0     C23988   8.329   6.405   0.923  0.1359 -0.2878 -0.6564
  919MOL0     O23989   8.454   6.458   0.947 -0.3260 -0.2083 -0.1954
  919MOL0     C23990   8.489   6.478   1.087 -0.7902 -0.0406 -0.3383
  919MOL0     C23991   8.628   6.533   1.111 -0.2876 -0.3947 -0.1057
  919MOL0     C23992   8.737   6.427   1.068 -0.0381  1.2234 -0.0114
  919MOL0     C23993   8.876   6.468   1.091  0.3513 -0.1922 -0.3438
  919MOL0     C23994   8.920   6.475   1.236  0.0136 -0.3128 -0.6304
  919MOL0     C23995   8.946   6.486   1.350  0.4866 -0.3698 -0.1333
  919MOL0     C23996   8.317   6.309   0.818  0.1628  0.2509 -1.0179
  919MOL0     C23997   8.187   6.264   0.782  0.0242  0.3843 -0.4232
  919MOL0     H23998   7.663   6.496   0.958  1.2384  2.8842 -1.1586
  919MOL0     H23999   7.423   6.490   0.931  1.6263  0.5739  1.6885
  919MOL0     H24000   7.206   6.384   0.525  2.7954 -0.0654 -1.4621
  919MOL0     H24001   7.293   6.238   0.547 -3.4578 -0.7029 -2.3331
  919MOL0     H24002   7.074   6.193   0.546 -4.2481  2.1004  0.6145
  919MOL0     H24003   7.149   6.156   0.704  1.2281 -0.5836 -0.3690
  919MOL0     H24004   7.056   6.385   0.785 -1.6763 -0.5357  2.0014
  919MOL0     H24005   6.962   6.387   0.631 -1.0506  0.4522  1.0239
  919MOL0     H24006   6.858   6.185   0.726 -0.1989 -0.4896  0.4534
  919MOL0     H24007   6.976   6.187   0.854 -0.5554  0.2670  0.1052
  919MOL0     H24008   6.907   6.402   0.935  2.4414 -1.3832 -0.9950
  919MOL0     H24009   6.798   6.438   0.808 -1.5954  0.2250  0.1455
  919MOL0     H24010   6.637   6.261   0.860  0.1777 -1.6605  0.7043
  919MOL0     H24011   6.756   6.193   0.967  2.5955  0.2547  0.4449
  919MOL0     H24012   6.639   6.469   1.020  4.5622 -0.1059 -2.6185
  919MOL0     H24013   6.555   6.310   1.059  0.5701 -0.0146 -0.5945
  919MOL0     H24014   6.823   6.422   1.156  0.3804 -0.4920 -0.8603
  919MOL0     H24015   6.778   6.275   1.214 -2.1645  0.7417  2.0661
  919MOL0     H24016   6.581   6.252   1.391  1.5140 -0.4437 -0.2520
  919MOL0     H24017   6.438   6.318   1.589 -0.2396  0.5942  0.0209
  919MOL0     H24018   6.527   6.470   1.662 -0.2449  0.2805 -0.4874
  919MOL0     H24019   6.360   6.619   1.555 -0.6144 -0.9453  2.9073
  919MOL0     H24020   6.278   6.508   1.657 -1.5587  0.7041  0.2218
  919MOL0     H24021   6.264   6.365   1.421 -3.3998 -0.2893 -0.7287
  919MOL0     H24022   6.264   6.527   1.356 -1.1254 -1.4724 -1.6584
  919MOL0     H24023   6.063   6.388   1.530  1.2132  0.6185  0.6807
  919MOL0     H24024   6.054   6.477   1.366  1.1378  0.3131 -0.5292
  919MOL0     H24025   5.859   6.404   1.527  2.8239  0.1307  1.4350
  919MOL0     H24026   5.505   6.410   1.630 -0.6991  3.4780 -2.7819
  919MOL0     H24027   5.601   6.349   1.487 -3.3923 -0.7936  0.5524
  919MOL0     H24028   5.664   6.317   1.646  1.3183  0.4943 -0.3949
  919MOL0     H24029   5.283   6.859   1.599 -1.4989  0.9620  0.1522
  919MOL0     H24030   5.067   6.902   1.529 -1.0683 -0.3340 -2.0604
  919MOL0     H24031   4.798   6.828   1.570 -1.7049  0.3645 -0.2540
  919MOL0     H24032   4.867   6.917   1.444  1.0551 -1.0086 -1.3269
  919MOL0     H24033   4.674   6.940   1.367 -1.5174 -0.2011  0.6462
  919MOL0     H24034   4.708   6.798   1.274  0.5343 -0.3471  0.2046
  919MOL0     H24035   4.584   6.798   1.560  0.6297  0.4975 -0.5021
  919MOL0     H24036   4.580   6.662   1.436 -0.8201 -0.3869 -0.4063
  919MOL0     H24037   4.437   6.927   1.413 -1.9136  0.8467 -0.5408
  919MOL0     H24038   4.427   6.799   1.289 -0.0328  2.9514 -0.4048
  919MOL0     H24039   4.325   6.786   1.573 -0.0944 -1.4511  0.5805
  919MOL0     H24040   4.315   6.644   1.474  1.7754  0.3490 -1.1682
  919MOL0     H24041   4.211   6.921   1.391  1.0998  0.1151 -0.3935
  919MOL0     H24042   4.181   6.772   1.304 -0.6254  0.9331 -1.3365
  919MOL0     H24043   4.083   6.878   1.579  2.0195  0.9235 -1.8024
  919MOL0     H24044   4.058   6.709   1.531 -2.1617 -1.4973 -3.5305
  919MOL0     H24045   3.928   6.816   1.326  0.3110  0.3740  0.4136
  919MOL0     H24046   3.980   6.971   1.398  1.3155  0.6793  5.2171
  919MOL0     H24047   4.996   6.476   1.452 -0.3874 -0.7978  2.9572
  919MOL0     H24048   5.225   6.433   1.534 -0.0290  0.1935  1.5132
  919MOL0     H24049   5.716   6.841   1.694  0.5564  1.0643  0.2673
  919MOL0     H24050   5.925   6.819   1.607 -0.1802  0.6601  0.0320
  919MOL0     H24051   7.492   6.302   0.539  1.8915  0.7371 -0.3932
  919MOL0     H24052   7.725   6.322   0.576 -1.2118 -1.3324 -0.1932
  919MOL0     H24053   7.992   6.466   0.964 -1.0558 -1.0643 -0.0782
  919MOL0     H24054   8.227   6.543   1.047  1.6236 -1.5248  0.7880
  919MOL0     H24055   8.413   6.542   1.133 -3.3690 -2.0976 -1.4021
  919MOL0     H24056   8.478   6.379   1.134  2.1137 -0.1416  0.2932
  919MOL0     H24057   8.639   6.553   1.218 -0.4941  3.3238 -0.6515
  919MOL0     H24058   8.643   6.627   1.058 -1.9490  0.5127  0.9253
  919MOL0     H24059   8.718   6.406   0.962  0.7491 -2.2829  0.4218
  919MOL0     H24060   8.716   6.333   1.120 -1.4923  1.5037 -0.0585
  919MOL0     H24061   8.876   6.570   1.050 -2.3808  0.9385  2.0913
  919MOL0     H24062   8.944   6.406   1.032  0.7989 -0.4117  0.3965
  919MOL0     H24063   8.964   6.505   1.454  0.5155  1.6873 -0.4683
  919MOL0     H24064   8.415   6.270   0.795  2.1580  2.3340  2.7915
  919MOL0     H24065   8.178   6.185   0.707 -0.2989  1.8687 -2.0137
  920MOL0     O24066   1.289   9.840   9.878  0.0673  0.2874 -0.6363
  920MOL0     C24067   1.304   9.730   9.939  0.6368 -0.1452  0.3439
  920MOL0     O24068   1.201   9.640   9.953  0.2464  0.1828  0.1470
  920MOL0     C24069   1.070   9.672   9.904  0.0003  0.1493  0.2588
  920MOL0     C24070   1.055   9.721   9.777 -0.9038  0.0277  0.2642
  920MOL0     C24071   0.920   9.733   9.721 -0.8368  0.2796 -0.5288
  920MOL0     C24072   0.805   9.688   9.786  0.4493 -0.0377 -0.1931
  920MOL0     O24073   0.676   9.690   9.741  0.1980 -0.0714 -0.3084
  920MOL0     C24074   0.639   9.776   9.644 -0.2161 -0.0320  0.3014
  920MOL0     C24075   0.488   9.779   9.633  0.4190 -0.4349  0.5445
  920MOL0     C24076   0.428   9.821   9.767  0.4192 -0.4506 -0.2114
  920MOL0     C24077   0.288   9.857   9.747  0.8061 -0.6782  0.2982
  920MOL0     C24078   0.219   9.910   9.873 -0.2155  0.3084 -0.3724
  920MOL0     C24079   0.098  10.003   9.836  0.6699 -0.4336 -0.0530
  920MOL0     C24080  -0.014   9.934   9.761  0.0292  0.1536  0.3077
  920MOL0     C24081  -0.080  10.027   9.655 -0.7051 -0.3484  0.0154
  920MOL0     N24082  -0.171   9.953   9.574  0.1454  0.2482  0.6611
  920MOL0     C24083  -0.295   9.901   9.601  0.9844  0.4133  0.0042
  920MOL0     C24084  -0.343   9.841   9.483 -0.5075 -0.3956 -0.1926
  920MOL0     C24085  -0.456   9.750   9.463  0.4012  0.3883 -0.1192
  920MOL0     C24086  -0.589   9.812   9.477 -0.8144  0.0117 -1.0779
  920MOL0     C24087  -0.616   9.926   9.377 -0.1968  0.3601 -0.1976
  920MOL0     C24088  -0.756   9.982   9.394 -1.0859 -0.2566  0.2197
  920MOL0     O24089  -0.856   9.887   9.342 -0.0024  0.5344  0.4544
  920MOL0     C24090  -0.988   9.918   9.294 -0.3905 -0.3144 -0.0527
  920MOL0     C24091  -1.044  10.045   9.309  0.4337  0.3166  0.2023
  920MOL0     C24092  -1.182  10.060   9.283 -0.0093 -0.4039  0.2522
  920MOL0     C24093  -1.242  10.195   9.323  0.0279  0.3526  0.8249
  920MOL0     C24094  -1.263   9.958   9.244 -0.1623  0.2542 -0.6224
  920MOL0     C24095  -1.406   9.969   9.219  0.4828  0.2280  0.6611
  920MOL0     O24096  -1.481   9.851   9.231 -0.0160 -0.6799 -0.3254
  920MOL0     C24097  -1.615   9.849   9.219 -0.7560 -0.0883 -0.9567
  920MOL0     C24098  -1.687   9.815   9.100 -0.2436 -0.7106 -0.3649
  920MOL0     C24099  -1.829   9.813   9.092 -0.3287 -0.2609  0.0639
  920MOL0     C24100  -1.897   9.844   9.202 -0.1038 -0.4012 -0.7039
  920MOL0     O24101  -2.036   9.844   9.212  0.0142  0.4066  0.3170
  920MOL0     C24102  -2.113   9.840   9.092  0.3422 -0.6018  0.0856
  920MOL0     C24103  -2.263   9.876   9.121 -0.5066 -0.5134  0.2128
  920MOL0     C24104  -2.280  10.017   9.166  0.1738 -0.0235  0.7447
  920MOL0     C24105  -2.405  10.058   9.253  0.2825 -0.5589  0.8738
  920MOL0     C24106  -2.539  10.023   9.195  0.4220 -0.6967 -0.0191
  920MOL0     C24107  -2.645  10.034   9.312  0.8536 -0.1024 -0.1472
  920MOL0     C24108  -2.789  10.014   9.254 -0.3328 -0.1181  0.1183
  920MOL0     C24109  -2.893  10.014   9.366  0.2740  0.1492 -0.3149
  920MOL0    Cl24110  -2.865  10.125   9.497  0.5096 -0.1852  0.1690
  920MOL0     C24111  -1.829   9.878   9.323 -0.5161 -0.2599 -0.3344
  920MOL0     C24112  -1.688   9.878   9.330  0.7719 -0.5375  0.7762
  920MOL0     O24113  -1.456  10.076   9.176 -0.6196  0.5974  0.0271
  920MOL0     C24114  -1.202   9.831   9.236  0.2210  0.2221  0.1953
  920MOL0     C24115  -1.063   9.813   9.257  0.3729  0.0433  0.7428
  920MOL0     N24116  -0.243   9.866   9.391  0.6784  0.8288  0.5728
  920MOL0     N24117  -0.142   9.924   9.441 -0.0960 -0.5770 -0.1373
  920MOL0     C24118   0.826   9.633   9.908 -0.2513  0.2435 -0.4980
  920MOL0     C24119   0.953   9.630   9.971  0.7771  0.2417 -0.3336
  920MOL0     C24120   1.432   9.713  10.015 -0.8483 -0.0766 -0.3232
  920MOL0     C24121   1.464   9.588  10.074 -0.5259 -0.2662 -0.0294
  920MOL0     C24122   1.579   9.555  10.140 -0.4665 -0.6637 -0.6179
  920MOL0     C24123   1.666   9.660  10.166  0.3953  0.3802  0.5705
  920MOL0     O24124   1.777   9.608  10.232 -0.2786 -0.8416  0.1434
  920MOL0     C24125   1.868   9.714  10.282 -0.8185 -0.9736 -0.0958
  920MOL0     C24126   1.984   9.649  10.364  0.3697 -0.2193 -0.3871
  920MOL0     C24127   2.072   9.557  10.273  0.4520  0.2674  0.8432
  920MOL0     C24128   2.145   9.637  10.166  0.0878  0.4069 -0.3665
  920MOL0     C24129   2.242   9.555  10.093  0.5142  1.0824  0.1689
  920MOL0     C24130   2.333   9.493  10.036 -0.1777 -0.2696  0.3687
  920MOL0     C24131   1.633   9.791  10.119  0.1351 -0.0761 -0.2598
  920MOL0     C24132   1.519   9.813  10.040  0.5053 -1.0074 -0.3925
  920MOL0     H24133   1.142   9.742   9.714  0.7864  0.6859  2.6927
  920MOL0     H24134   0.909   9.778   9.623 -0.7324 -1.3503 -1.3156
  920MOL0     H24135   0.680   9.874   9.669  0.9628 -0.5282  0.4041
  920MOL0     H24136   0.686   9.752   9.548  0.5907  4.7556 -0.7756
  920MOL0     H24137   0.481   9.859   9.559  0.0071  0.1869  1.2340
  920MOL0     H24138   0.444   9.687   9.593 -2.3005  1.3939 -1.0422
  920MOL0     H24139   0.435   9.742   9.841  0.6980 -0.3625 -0.1423
  920MOL0     H24140   0.480   9.908   9.808  2.2278 -2.2601  1.4993
  920MOL0     H24141   0.280   9.928   9.664  1.7867 -1.1492 -0.2196
  920MOL0     H24142   0.233   9.768   9.718 -2.3607  1.5043 -0.9176
  920MOL0     H24143   0.196   9.824   9.937  2.0016  0.4193  0.6801
  920MOL0     H24144   0.288   9.981   9.919 -1.2761  1.1354 -0.0182
  920MOL0     H24145   0.058  10.044   9.929 -0.8919 -2.1217  0.0697
  920MOL0     H24146   0.134  10.088   9.776 -1.2346 -0.8201 -1.8608
  920MOL0     H24147   0.034   9.859   9.698 -1.9720 -0.3302 -0.6942
  920MOL0     H24148  -0.082   9.891   9.834  1.2384 -1.9342  0.2687
  920MOL0     H24149  -0.001  10.075   9.596  0.3284  0.7191  2.1349
  920MOL0     H24150  -0.127  10.116   9.697  1.3797 -0.3301  2.5291
  920MOL0     H24151  -0.348   9.919   9.694  0.9729  1.3895 -0.1904
  920MOL0     H24152  -0.438   9.695   9.371  0.1804  0.4992 -0.2298
  920MOL0     H24153  -0.452   9.673   9.540 -1.7982 -1.6649 -1.9131
  920MOL0     H24154  -0.606   9.853   9.577  2.5024  1.1854 -0.8712
  920MOL0     H24155  -0.664   9.738   9.449 -1.4992  0.4050 -0.3229
  920MOL0     H24156  -0.594   9.888   9.276  0.8335 -0.8570  0.4526
  920MOL0     H24157  -0.543  10.002   9.403 -1.5338  0.6449  3.1237
  920MOL0     H24158  -0.760  10.079   9.344 -0.0728  0.0253  0.6746
  920MOL0     H24159  -0.775   9.998   9.500  3.2333  1.7636  0.8887
  920MOL0     H24160  -0.984  10.134   9.332  1.8903 -0.5327 -0.1591
  920MOL0     H24161  -1.265  10.247   9.230 -0.6753 -2.2844 -0.5732
  920MOL0     H24162  -1.336  10.183   9.379 -0.8586  2.4819 -0.0670
  920MOL0     H24163  -1.163  10.250   9.374  0.3963 -0.7728  1.5032
  920MOL0     H24164  -1.621   9.792   9.018  0.5638  0.3565 -0.0330
  920MOL0     H24165  -1.896   9.791   9.009 -2.2229 -0.9923  1.7123
  920MOL0     H24166  -2.080   9.910   9.015  0.8014  0.2191  1.0209
  920MOL0     H24167  -2.113   9.741   9.045 -3.2920 -0.8422  0.2964
  920MOL0     H24168  -2.309   9.863   9.022 -3.2882 -3.1161  1.6517
  920MOL0     H24169  -2.298   9.802   9.193 -0.6678 -2.8738 -2.1253
  920MOL0     H24170  -2.290  10.082   9.079 -1.0313 -2.8605 -1.4071
  920MOL0     H24171  -2.199  10.050   9.232  0.9007 -1.7502  0.7746
  920MOL0     H24172  -2.409  10.008   9.350  0.6740 -1.7738  0.2934
  920MOL0     H24173  -2.400  10.166   9.272  2.3103 -0.2120 -1.1325
  920MOL0     H24174  -2.536   9.929   9.140  1.9745 -1.6558  1.6201
  920MOL0     H24175  -2.565  10.090   9.112  1.7017 -1.5531 -1.1462
  920MOL0     H24176  -2.621   9.976   9.401  1.4177  0.1700 -0.1180
  920MOL0     H24177  -2.633  10.134   9.355  3.8359 -0.1825 -0.5602
  920MOL0     H24178  -2.801   9.916   9.207 -1.2368 -0.4548  1.0157
  920MOL0     H24179  -2.817  10.092   9.183  0.6517  1.8117  1.7396
  920MOL0     H24180  -2.902   9.913   9.406  0.6945 -0.5292 -1.8437
  920MOL0     H24181  -2.994  10.031   9.326 -0.4551 -0.5160  1.1832
  920MOL0     H24182  -1.873   9.914   9.416  1.6501  4.4923 -0.8474
  920MOL0     H24183  -1.643   9.899   9.427  1.1841 -1.1000  0.7090
  920MOL0     H24184  -1.259   9.745   9.200  1.3721  0.1669 -1.6660
  920MOL0     H24185  -1.029   9.710   9.251  1.7421  0.4508  1.1973
  920MOL0     H24186   0.738   9.590   9.957  0.1146 -1.4882 -1.2848
  920MOL0     H24187   0.955   9.577  10.066 -1.9589 -0.4483 -0.5830
  920MOL0     H24188   1.391   9.508  10.083 -0.8431 -0.0471 -0.6138
  920MOL0     H24189   1.598   9.461  10.189 -0.1417  0.0140  0.5874
  920MOL0     H24190   1.913   9.772  10.202  1.8898  0.3593  2.2301
  920MOL0     H24191   1.809   9.780  10.347 -0.4046 -3.3635  2.9381
  920MOL0     H24192   1.924   9.592  10.435 -1.6205  1.3638 -0.6942
  920MOL0     H24193   2.039   9.729  10.415  1.6120 -1.0919 -0.3159
  920MOL0     H24194   2.003   9.482  10.234  1.7089 -0.8191  0.6079
  920MOL0     H24195   2.135   9.503  10.345 -2.7927 -3.9869  0.8568
  920MOL0     H24196   2.202   9.719  10.210 -2.8654  2.4343 -0.0115
  920MOL0     H24197   2.068   9.675  10.097 -1.6144 -2.8676 -0.4576
  920MOL0     H24198   2.404   9.429   9.988  0.8854 -0.2410  1.8167
  920MOL0     H24199   1.707   9.869  10.137  0.3358 -0.0939 -0.9688
  920MOL0     H24200   1.511   9.909   9.990  1.9647  0.6654  2.3274
  921MOL0     O24201   4.138   7.708   1.752 -0.3115 -0.7725  0.0984
  921MOL0     C24202   4.085   7.627   1.818 -0.0143  0.2744 -0.8308
  921MOL0     O24203   3.951   7.600   1.833  0.3589  0.4536 -0.3686
  921MOL0     C24204   3.863   7.668   1.754  0.0576 -0.5265 -0.6146
  921MOL0     C24205   3.738   7.618   1.765 -0.1834 -0.2402 -1.0189
  921MOL0     C24206   3.626   7.687   1.724 -0.6909 -0.8509  0.3836
  921MOL0     C24207   3.638   7.812   1.657 -1.0293 -0.3024 -0.1389
  921MOL0     O24208   3.537   7.891   1.610 -0.3239 -0.1807  0.0666
  921MOL0     C24209   3.406   7.849   1.616 -0.9706 -0.5347  0.3505
  921MOL0     C24210   3.310   7.960   1.552 -0.5353 -0.3098  0.6050
  921MOL0     C24211   3.163   7.901   1.546 -0.8537 -0.2769  0.4772
  921MOL0     C24212   3.058   8.004   1.517 -0.1922 -0.1580 -0.3001
  921MOL0     C24213   2.923   7.930   1.497 -0.5017 -0.0482 -0.4039
  921MOL0     C24214   2.811   8.032   1.512  0.1681 -0.3802  0.5372
  921MOL0     C24215   2.676   7.963   1.517 -0.8000 -0.0446 -0.3659
  921MOL0     C24216   2.556   8.055   1.534  0.1095  0.1033  0.0383
  921MOL0     N24217   2.429   7.987   1.541  0.0575 -0.2922  0.2694
  921MOL0     C24218   2.313   8.056   1.522 -0.3239 -1.0761 -0.6172
  921MOL0     C24219   2.233   7.950   1.509  0.7370 -0.1407 -0.0483
  921MOL0     C24220   2.085   7.949   1.471  0.6182  0.9203 -0.1011
  921MOL0     C24221   2.061   7.929   1.320  0.7174  0.6450 -0.2577
  921MOL0     C24222   1.908   7.947   1.299 -0.3228  0.1262  0.0717
  921MOL0     C24223   1.853   7.880   1.180  0.1411  0.1659  0.5220
  921MOL0     O24224   1.727   7.935   1.138 -0.1665 -0.2126 -0.4246
  921MOL0     C24225   1.619   7.915   1.216  0.1476 -0.1637 -0.0118
  921MOL0     C24226   1.555   8.042   1.249 -0.2561  0.0663 -0.8807
  921MOL0     C24227   1.448   8.042   1.340 -0.6956  0.4691  0.1302
  921MOL0     C24228   1.397   8.181   1.387 -0.2638  0.0798 -0.2998
  921MOL0     C24229   1.395   7.920   1.396 -0.4122 -0.6551 -0.7581
  921MOL0     C24230   1.284   7.923   1.496  0.2141  0.8101 -0.2598
  921MOL0     O24231   1.168   7.936   1.444 -0.1409 -0.0580  0.7963
  921MOL0     C24232   1.042   7.913   1.501  0.2817  0.2657 -0.0430
  921MOL0     C24233   0.932   7.980   1.447  0.3698  0.0412  0.3074
  921MOL0     C24234   0.801   7.948   1.490  0.6194  0.6430  0.1428
  921MOL0     C24235   0.775   7.856   1.588  0.4731  0.5071 -1.4283
  921MOL0     O24236   0.656   7.816   1.636  0.8300  0.1216  0.6489
  921MOL0     C24237   0.535   7.868   1.586 -0.2193 -0.4611 -0.1001
  921MOL0     C24238   0.408   7.827   1.654  0.4599  0.2490  0.3536
  921MOL0     C24239   0.399   7.879   1.800 -0.5351  0.3263  0.4548
  921MOL0     C24240   0.277   7.837   1.878 -0.0204  0.5189  1.1347
  921MOL0     C24241   0.158   7.922   1.822  0.1225  0.2075  0.6408
  921MOL0     C24242   0.099   8.016   1.924 -0.2331 -0.5335  0.4038
  921MOL0     C24243  -0.019   8.088   1.880 -0.3946 -0.0404 -0.3546
  921MOL0     C24244  -0.159   8.018   1.873  0.2041 -0.6595  1.2049
  921MOL0    Cl24245  -0.205   7.952   2.037  0.2601 -0.2688 -0.2659
  921MOL0     C24246   0.887   7.789   1.638 -0.1231  0.2616 -0.7060
  921MOL0     C24247   1.016   7.814   1.603 -1.2361  0.0177  0.2795
  921MOL0     O24248   1.303   7.890   1.612 -0.5922 -0.3288  0.1132
  921MOL0     C24249   1.449   7.799   1.352  0.1794  0.4186  0.6664
  921MOL0     C24250   1.565   7.796   1.276 -0.5584  0.9397  0.2736
  921MOL0     N24251   2.291   7.826   1.539  0.0059  0.6341 -0.6065
  921MOL0     N24252   2.412   7.853   1.562  0.4618  0.1507 -0.2601
  921MOL0     C24253   3.760   7.865   1.622 -0.3989 -0.2447 -0.3599
  921MOL0     C24254   3.867   7.793   1.686 -0.5675  0.2241  0.1111
  921MOL0     C24255   4.183   7.544   1.895 -0.6951  1.2936 -0.6495
  921MOL0     C24256   4.306   7.494   1.831 -0.7114 -0.9928 -1.0426
  921MOL0     C24257   4.388   7.403   1.902  0.2771 -0.2588  0.5693
  921MOL0     C24258   4.353   7.353   2.026 -0.8230 -0.1199  0.9401
  921MOL0     O24259   4.428   7.260   2.102  0.8153  0.8184 -0.1705
  921MOL0     C24260   4.563   7.242   2.072 -0.0212 -0.2258  0.6283
  921MOL0     C24261   4.657   7.344   2.129  0.5108  0.1039  0.6272
  921MOL0     C24262   4.646   7.371   2.277 -0.5340  0.1416  0.4533
  921MOL0     C24263   4.687   7.250   2.360 -0.7884  0.6827 -0.0905
  921MOL0     C24264   4.826   7.202   2.344 -0.1731 -0.2943 -0.1689
  921MOL0     C24265   4.936   7.143   2.342  0.0793 -0.1446 -0.3933
  921MOL0     C24266   4.233   7.399   2.086 -0.1012 -0.4087  0.1305
  921MOL0     C24267   4.141   7.491   2.018 -0.4897  0.0595 -0.6502
  921MOL0     H24268   3.736   7.527   1.824 -0.1960  0.4472  0.0570
  921MOL0     H24269   3.525   7.650   1.735 -0.7831 -0.7600 -0.1094
  921MOL0     H24270   3.401   7.756   1.560 -0.1420  0.2936 -1.1640
  921MOL0     H24271   3.382   7.830   1.721 -0.5840  2.8114  1.1552
  921MOL0     H24272   3.310   8.039   1.628  0.6638 -0.9309  1.2843
  921MOL0     H24273   3.346   7.996   1.455  0.3725 -0.8738  0.7179
  921MOL0     H24274   3.153   7.830   1.463 -2.3940  0.7649 -0.2837
  921MOL0     H24275   3.145   7.855   1.643  1.1262 -0.4727  0.7924
  921MOL0     H24276   3.052   8.076   1.599  0.9641  2.7523 -2.6270
  921MOL0     H24277   3.081   8.061   1.427 -1.5740  0.1528 -0.4863
  921MOL0     H24278   2.924   7.878   1.401 -0.7388 -2.7305  0.9638
  921MOL0     H24279   2.914   7.845   1.566 -0.0783  0.3268  0.1265
  921MOL0     H24280   2.820   8.102   1.595  1.7097 -1.4420  1.3104
  921MOL0     H24281   2.822   8.093   1.422  2.5610  0.5942  1.4200
  921MOL0     H24282   2.665   7.899   1.429 -1.7491 -1.2297  0.5814
  921MOL0     H24283   2.671   7.900   1.606  1.4692 -0.6036 -0.5915
  921MOL0     H24284   2.545   8.115   1.443 -0.8587 -0.1671 -0.0354
  921MOL0     H24285   2.560   8.120   1.622 -0.2775 -0.3619  0.4025
  921MOL0     H24286   2.298   8.162   1.502  4.4963 -0.4495 -2.2064
  921MOL0     H24287   2.042   7.869   1.531  0.2407  0.6736 -0.7003
  921MOL0     H24288   2.046   8.048   1.499  1.1529  1.7239 -2.0411
  921MOL0     H24289   2.083   7.824   1.298 -0.6149  0.5693 -1.3168
  921MOL0     H24290   2.115   8.001   1.258 -0.3542  1.1746 -0.5981
  921MOL0     H24291   1.896   8.055   1.285 -0.3000  0.5356  2.8114
  921MOL0     H24292   1.855   7.918   1.390  3.2289 -0.3325  2.1543
  921MOL0     H24293   1.849   7.773   1.204 -1.2957 -0.3392 -1.7289
  921MOL0     H24294   1.924   7.886   1.097 -1.8259  0.5966 -1.2021
  921MOL0     H24295   1.594   8.139   1.220  1.3583 -0.1158  0.5536
  921MOL0     H24296   1.349   8.187   1.485  0.4238 -0.3458  0.0691
  921MOL0     H24297   1.475   8.258   1.382 -0.2326  0.1090  0.4662
  921MOL0     H24298   1.315   8.204   1.318 -2.0069 -1.1535  1.2347
  921MOL0     H24299   0.949   8.052   1.368 -2.5929 -1.3439 -1.8000
  921MOL0     H24300   0.715   8.006   1.460  2.5404  1.4522 -4.7219
  921MOL0     H24301   0.535   7.976   1.570 -2.9067 -0.3353  0.1870
  921MOL0     H24302   0.521   7.821   1.488 -1.7302  0.7252 -0.4920
  921MOL0     H24303   0.321   7.871   1.603 -0.0765 -0.7157  0.4179
  921MOL0     H24304   0.413   7.718   1.662 -2.5645  0.0747  1.2070
  921MOL0     H24305   0.383   7.987   1.787 -0.8787  0.5391  2.3981
  921MOL0     H24306   0.491   7.857   1.854 -1.7118 -1.5314  1.8251
  921MOL0     H24307   0.243   7.738   1.847 -3.3178  2.3247 -1.7769
  921MOL0     H24308   0.292   7.850   1.986  0.6933  0.8000  1.0094
  921MOL0     H24309   0.081   7.845   1.813  0.5795 -0.4532  2.0800
  921MOL0     H24310   0.172   7.976   1.728 -1.0219  1.1927  1.0125
  921MOL0     H24311   0.077   7.962   2.016 -1.3945 -1.7924 -0.5681
  921MOL0     H24312   0.179   8.091   1.936 -1.2588  0.7346 -0.4243
  921MOL0     H24313   0.001   8.148   1.790  1.4453  2.0713  1.3407
  921MOL0     H24314  -0.034   8.169   1.952  1.9910  1.7185 -1.6895
  921MOL0     H24315  -0.154   7.938   1.799  0.4494 -2.1365  2.7353
  921MOL0     H24316  -0.222   8.101   1.841  2.2344  0.4052 -0.2335
  921MOL0     H24317   0.874   7.710   1.711  0.7094  0.3355 -0.4681
  921MOL0     H24318   1.100   7.748   1.623 -0.9100  0.5865  0.8316
  921MOL0     H24319   1.419   7.708   1.404  0.1864 -0.8793 -1.5015
  921MOL0     H24320   1.605   7.698   1.256 -2.0628  0.3913 -0.1780
  921MOL0     H24321   3.779   7.965   1.584  1.5361 -0.3276  0.3153
  921MOL0     H24322   3.960   7.849   1.685 -1.1984  1.3953  1.8313
  921MOL0     H24323   4.333   7.519   1.729 -0.0393  1.3751 -0.3330
  921MOL0     H24324   4.484   7.378   1.858  0.9010 -1.6025  2.5367
  921MOL0     H24325   4.587   7.148   2.122 -0.8178 -0.5613  0.3993
  921MOL0     H24326   4.576   7.223   1.965 -0.1987  1.8346  0.1858
  921MOL0     H24327   4.650   7.442   2.079 -1.2910  0.9851  2.4279
  921MOL0     H24328   4.755   7.313   2.093  0.6424 -2.4940  2.9055
  921MOL0     H24329   4.541   7.394   2.295 -0.9381 -0.1271 -1.3465
  921MOL0     H24330   4.711   7.455   2.304  0.6122 -0.3177 -0.7446
  921MOL0     H24331   4.619   7.165   2.351  2.4037 -2.1633  0.4710
  921MOL0     H24332   4.662   7.284   2.461  1.0257 -1.2295  1.0844
  921MOL0     H24333   5.034   7.099   2.344  0.2386  0.0909 -1.9938
  921MOL0     H24334   4.202   7.354   2.179  1.0075 -4.5734 -1.2812
  921MOL0     H24335   4.045   7.516   2.062  0.3254  0.4537  0.9571
  922MOL0     O24336  10.640   2.280   1.932 -0.0450  0.3333  0.4608
  922MOL0     C24337  10.694   2.196   1.865 -0.6762  0.0211 -0.9475
  922MOL0     O24338  10.634   2.134   1.763  0.3744 -0.2164  0.0400
  922MOL0     C24339  10.499   2.160   1.748 -0.4417  0.1056  0.5148
  922MOL0     C24340  10.400   2.062   1.781  0.0474 -0.0171  0.4942
  922MOL0     C24341  10.268   2.086   1.737 -0.2450 -0.2887  0.2129
  922MOL0     C24342  10.228   2.199   1.664 -0.8673  0.1910 -1.4187
  922MOL0     O24343  10.095   2.216   1.634  0.2224  0.4712 -0.2966
  922MOL0     C24344  10.046   2.354   1.609 -0.0431 -1.1160 -0.3424
  922MOL0     C24345   9.893   2.324   1.597 -0.4970  0.3720  0.7103
  922MOL0     C24346   9.825   2.448   1.565  0.3134 -0.3530  0.1494
  922MOL0     C24347   9.712   2.488   1.662 -0.0590 -0.4689  0.4158
  922MOL0     C24348   9.626   2.601   1.608  0.2533  0.0283  0.5259
  922MOL0     C24349   9.492   2.609   1.681  0.4762 -0.4549  0.1931
  922MOL0     C24350   9.384   2.522   1.615 -0.2328  0.2117  0.2732
  922MOL0     C24351   9.246   2.502   1.677 -0.3526  0.6457 -0.8448
  922MOL0     N24352   9.189   2.623   1.747 -0.7557  0.3227 -0.6378
  922MOL0     C24353   9.151   2.734   1.684 -0.7991 -0.6446  1.1064
  922MOL0     C24354   9.117   2.818   1.786 -0.2657  0.3709 -0.7461
  922MOL0     C24355   9.063   2.959   1.776  0.0547 -0.5760  0.0182
  922MOL0     C24356   8.923   2.972   1.850  0.2723 -0.1218 -0.5345
  922MOL0     C24357   8.815   2.901   1.768 -0.4261 -0.2948  0.5740
  922MOL0     C24358   8.676   2.924   1.822 -0.4144 -0.2050 -0.4556
  922MOL0     O24359   8.638   3.059   1.832  0.3030 -0.2745 -0.0579
  922MOL0     C24360   8.555   3.083   1.931  0.7814 -0.5770  0.0310
  922MOL0     C24361   8.588   3.124   2.060  0.8811  0.4385  0.0032
  922MOL0     C24362   8.482   3.153   2.161 -0.1398  0.7328 -0.0193
  922MOL0     C24363   8.522   3.211   2.296  0.4198  0.5534 -0.0594
  922MOL0     C24364   8.345   3.153   2.122 -0.1720  0.7944 -0.9353
  922MOL0     C24365   8.226   3.175   2.215 -0.0513 -0.5444  1.0617
  922MOL0     O24366   8.105   3.200   2.157  0.4056 -0.0985 -0.7910
  922MOL0     C24367   7.986   3.196   2.237 -0.2851  0.1763  0.4239
  922MOL0     C24368   7.971   3.256   2.361 -0.0506 -0.1155 -0.5157
  922MOL0     C24369   7.855   3.240   2.443 -0.2036 -0.2084  0.9560
  922MOL0     C24370   7.741   3.178   2.379 -0.5073 -0.3183  0.4296
  922MOL0     O24371   7.617   3.163   2.431  0.7576  0.1602 -0.1869
  922MOL0     C24372   7.601   3.202   2.562  0.2588 -0.4712 -0.2881
  922MOL0     C24373   7.456   3.181   2.597  0.7005 -0.4214  0.0184
  922MOL0     C24374   7.432   3.240   2.738  0.1683  0.3941  0.0432
  922MOL0     C24375   7.293   3.299   2.755  0.0542 -0.6123  0.6791
  922MOL0     C24376   7.254   3.369   2.892  0.2655 -0.2564  0.3804
  922MOL0     C24377   7.117   3.431   2.896 -0.2770 -0.2532  0.4480
  922MOL0     C24378   7.072   3.487   3.030  0.5253 -0.4544 -1.0298
  922MOL0     C24379   6.947   3.585   3.016  0.5876 -0.8457 -0.0723
  922MOL0    Cl24380   6.836   3.547   2.880  0.2720  0.0616  0.1789
  922MOL0     C24381   7.758   3.119   2.247 -1.1917 -0.5544 -0.0400
  922MOL0     C24382   7.881   3.115   2.181  0.2429  0.2180  0.1935
  922MOL0     O24383   8.242   3.149   2.333  0.4842 -0.4045 -0.1068
  922MOL0     C24384   8.317   3.094   2.003 -0.2647  0.6437  0.5957
  922MOL0     C24385   8.418   3.052   1.907 -0.4606  0.0136 -0.0478
  922MOL0     N24386   9.135   2.755   1.911 -0.0148 -0.7691 -0.1938
  922MOL0     N24387   9.184   2.637   1.887 -0.4432  0.2869  0.6537
  922MOL0     C24388  10.325   2.302   1.643  0.3126 -0.4269  0.3260
  922MOL0     C24389  10.459   2.281   1.678 -0.0564  0.0170 -0.7836
  922MOL0     C24390  10.834   2.164   1.895  1.1142 -0.2165 -0.5404
  922MOL0     C24391  10.910   2.255   1.965 -0.6339 -0.5061  0.8138
  922MOL0     C24392  11.044   2.221   2.002  0.0219  0.3699 -0.3720
  922MOL0     C24393  11.103   2.103   1.937 -0.1289 -0.5530 -0.9152
  922MOL0     O24394  11.234   2.066   1.958  0.0422  0.1464  0.4618
  922MOL0     C24395  11.302   2.122   2.077 -0.5170 -0.0320 -0.4079
  922MOL0     C24396  11.451   2.087   2.076 -0.7036  0.5330 -0.4518
  922MOL0     C24397  11.521   2.135   1.951 -0.1265  0.3276 -0.6678
  922MOL0     C24398  11.666   2.089   1.945  0.1004 -0.2679  0.4190
  922MOL0     C24399  11.754   2.162   2.042 -0.1058  0.1880 -0.1091
  922MOL0     C24400  11.821   2.239   2.121  1.3253  0.4315  0.3061
  922MOL0     C24401  11.029   2.017   1.865  0.5317  0.0135  0.5344
  922MOL0     C24402  10.890   2.048   1.844 -1.0394  0.0863 -0.5569
  922MOL0     H24403  10.433   1.967   1.822 -1.5783 -1.8690 -2.1669
  922MOL0     H24404  10.189   2.011   1.741  1.8247 -2.9329 -2.9471
  922MOL0     H24405  10.072   2.418   1.694  0.3375  1.9993 -2.6355
  922MOL0     H24406  10.088   2.409   1.524  0.6634 -0.9036  0.1362
  922MOL0     H24407   9.867   2.258   1.514  0.1602 -0.0274  0.8149
  922MOL0     H24408   9.849   2.287   1.690  1.3460  0.2554  1.5809
  922MOL0     H24409   9.896   2.531   1.568  1.4559 -1.2549  3.7124
  922MOL0     H24410   9.777   2.445   1.467  0.4758  1.9918 -0.0460
  922MOL0     H24411   9.654   2.397   1.682 -1.8182 -0.1094 -2.4080
  922MOL0     H24412   9.758   2.526   1.753  0.2135  2.1371 -0.7141
  922MOL0     H24413   9.691   2.688   1.621  2.7335 -1.6058 -0.1233
  922MOL0     H24414   9.600   2.581   1.503  1.2405 -3.5301  0.8171
  922MOL0     H24415   9.515   2.587   1.786 -0.8272  0.2440  0.6452
  922MOL0     H24416   9.453   2.711   1.670  0.1616 -0.6859 -0.9346
  922MOL0     H24417   9.358   2.554   1.513 -0.2316  1.2261  0.5790
  922MOL0     H24418   9.435   2.425   1.617 -0.7847 -0.0866  2.6001
  922MOL0     H24419   9.262   2.419   1.747 -0.0690  0.2863 -1.3378
  922MOL0     H24420   9.172   2.478   1.601 -0.6951  1.7104 -0.8708
  922MOL0     H24421   9.143   2.752   1.577 -1.7046 -1.0390  1.0948
  922MOL0     H24422   9.134   3.022   1.831 -2.0142  0.5300  1.5884
  922MOL0     H24423   9.060   2.996   1.673  0.9994  1.5431  0.7047
  922MOL0     H24424   8.888   3.075   1.865  0.0328 -0.5905  2.9239
  922MOL0     H24425   8.931   2.930   1.950 -2.8416  0.3961  0.0158
  922MOL0     H24426   8.837   2.794   1.776  1.9643  0.1360  0.3172
  922MOL0     H24427   8.819   2.932   1.663 -3.8215  0.1599  0.4710
  922MOL0     H24428   8.694   2.889   1.924  0.3801  1.9310  0.1980
  922MOL0     H24429   8.598   2.861   1.779 -0.9574 -1.7760  2.5486
  922MOL0     H24430   8.692   3.144   2.082  0.4503  2.4762  0.3797
  922MOL0     H24431   8.484   3.314   2.299  0.5187  0.9568 -4.6065
  922MOL0     H24432   8.485   3.165   2.388  0.2752  1.2610  0.2470
  922MOL0     H24433   8.630   3.201   2.305  0.1191 -1.8945  1.4997
  922MOL0     H24434   8.051   3.311   2.408 -0.7049 -0.4524  1.0819
  922MOL0     H24435   7.854   3.279   2.544 -1.2243  2.1275  0.1060
  922MOL0     H24436   7.674   3.161   2.632  0.2048  1.5027  0.9960
  922MOL0     H24437   7.615   3.311   2.559  1.3947 -0.4907  2.0956
  922MOL0     H24438   7.395   3.246   2.535  3.0043  2.1677  0.2663
  922MOL0     H24439   7.434   3.074   2.604  2.6459 -0.8029  1.2819
  922MOL0     H24440   7.499   3.322   2.767  0.7125 -0.8332  2.5544
  922MOL0     H24441   7.449   3.161   2.811 -1.5538 -0.2640 -0.2259
  922MOL0     H24442   7.269   3.362   2.669  0.9446 -2.8141 -1.2925
  922MOL0     H24443   7.226   3.212   2.751  0.1890 -0.8754  3.1042
  922MOL0     H24444   7.332   3.446   2.901  3.9454 -3.1058 -3.2344
  922MOL0     H24445   7.263   3.298   2.976 -1.2151  1.3403  1.9654
  922MOL0     H24446   7.112   3.499   2.810 -1.5455 -1.3430 -0.3905
  922MOL0     H24447   7.050   3.352   2.862  2.2451 -1.9918 -0.7951
  922MOL0     H24448   7.152   3.537   3.085 -1.5541 -1.5205  3.3227
  922MOL0     H24449   7.036   3.407   3.095 -0.7879  0.8337 -0.1314
  922MOL0     H24450   6.982   3.685   2.986  2.4694 -1.4906 -0.1278
  922MOL0     H24451   6.891   3.589   3.110  0.2471 -1.9948 -0.2118
  922MOL0     H24452   7.665   3.077   2.210 -2.0767 -0.2172  1.6939
  922MOL0     H24453   7.890   3.057   2.089  0.8096 -0.6599  0.7858
  922MOL0     H24454   8.211   3.082   1.983 -0.8708  1.7965  2.8097
  922MOL0     H24455   8.395   2.999   1.815 -1.8332  0.7088 -0.1274
  922MOL0     H24456  10.307   2.397   1.593  3.4041  0.9475  1.6100
  922MOL0     H24457  10.540   2.346   1.648 -0.0813  0.6704  0.4976
  922MOL0     H24458  10.874   2.349   2.006 -0.3868 -0.6102  1.2756
  922MOL0     H24459  11.109   2.292   2.051  0.4368 -0.2900  0.0541
  922MOL0     H24460  11.294   2.231   2.069 -1.3459 -0.1547 -1.5813
  922MOL0     H24461  11.259   2.090   2.172 -0.9073  0.1012 -0.5377
  922MOL0     H24462  11.448   1.978   2.082 -0.6544  0.4142 -2.0904
  922MOL0     H24463  11.502   2.115   2.168  3.6450 -1.5462 -1.9441
  922MOL0     H24464  11.501   2.242   1.940  1.1849  0.7078  0.4235
  922MOL0     H24465  11.481   2.079   1.865  3.4710 -0.9527 -1.6899
  922MOL0     H24466  11.715   2.098   1.848 -1.9903 -2.2232 -0.9304
  922MOL0     H24467  11.674   1.981   1.964  0.2089 -0.3810 -0.2308
  922MOL0     H24468  11.865   2.317   2.181  0.0089  2.1935 -0.9283
  922MOL0     H24469  11.074   1.922   1.838  1.4144 -0.2828  2.7906
  922MOL0     H24470  10.828   1.964   1.816 -0.3294  0.1759 -2.5188
  923MOL0     O24471   3.497   9.510   0.345  0.2591  0.2301  0.4128
  923MOL0     C24472   3.514   9.412   0.274  0.0457  0.4786 -0.4701
  923MOL0     O24473   3.427   9.303   0.267 -0.1424  0.0110  0.0048
  923MOL0     C24474   3.339   9.266   0.366 -0.8165 -0.7341 -0.9610
  923MOL0     C24475   3.331   9.324   0.490 -0.4226  0.4540 -0.8200
  923MOL0     C24476   3.255   9.268   0.596 -0.2320  0.4527  0.1755
  923MOL0     C24477   3.171   9.157   0.567 -0.7359 -0.9173  0.1315
  923MOL0     O24478   3.090   9.100   0.656 -0.2380 -0.2772 -0.2887
  923MOL0     C24479   3.007   9.178   0.749  0.4623 -0.1943  0.0883
  923MOL0     C24480   2.975   9.116   0.883  0.6104  0.4805  0.0706
  923MOL0     C24481   2.887   8.988   0.878 -0.1345  0.0487  0.3989
  923MOL0     C24482   2.859   8.913   1.006  0.8744 -0.0079  0.9761
  923MOL0     C24483   2.722   8.831   1.000 -0.7000  0.0107  0.5635
  923MOL0     C24484   2.598   8.910   1.013  1.3233 -0.1199  0.7135
  923MOL0     C24485   2.478   8.825   1.044  0.2709 -0.1782 -0.5016
  923MOL0     C24486   2.358   8.908   1.084 -0.3739 -0.1690  0.1067
  923MOL0     N24487   2.260   8.809   1.136  0.5235 -0.4252  0.7299
  923MOL0     C24488   2.157   8.772   1.058  1.3033  0.2678  0.3028
  923MOL0     C24489   2.067   8.724   1.139  0.2502  1.3357  0.1986
  923MOL0     C24490   1.930   8.669   1.105 -0.0034 -0.1481  0.5395
  923MOL0     C24491   1.825   8.778   1.135 -0.1277  0.5895 -1.1812
  923MOL0     C24492   1.802   8.800   1.294  0.1367 -0.4641  0.3946
  923MOL0     C24493   1.715   8.921   1.327 -1.1398  0.2258  0.4935
  923MOL0     O24494   1.591   8.919   1.255  0.4617 -0.7377 -0.4670
  923MOL0     C24495   1.494   8.842   1.307 -0.5961 -0.0836  0.0461
  923MOL0     C24496   1.460   8.860   1.434 -0.4317 -0.4668  0.5484
  923MOL0     C24497   1.380   8.761   1.501 -0.4982 -0.8245  0.0500
  923MOL0     C24498   1.351   8.781   1.645 -0.8379 -0.1170 -1.8639
  923MOL0     C24499   1.329   8.651   1.425  0.3631 -0.0475 -0.1160
  923MOL0     C24500   1.237   8.551   1.478 -0.9572 -0.6414  0.3711
  923MOL0     O24501   1.118   8.545   1.415  0.0684 -0.1273 -0.1711
  923MOL0     C24502   1.011   8.486   1.473  0.2815 -0.2696 -0.6847
  923MOL0     C24503   0.901   8.573   1.479  0.6913 -0.4735 -0.4700
  923MOL0     C24504   0.777   8.532   1.529  0.3141 -0.0378  0.2242
  923MOL0     C24505   0.755   8.396   1.557  0.5058  0.5300  0.3599
  923MOL0     O24506   0.629   8.357   1.595  0.1279  0.8134  0.0893
  923MOL0     C24507   0.619   8.255   1.700  0.1156  0.6279  0.6297
  923MOL0     C24508   0.514   8.288   1.800 -0.4879  0.0228  0.8008
  923MOL0     C24509   0.379   8.287   1.749  0.8771  0.0817  0.6356
  923MOL0     C24510   0.320   8.413   1.677 -0.4258  0.1452 -0.3195
  923MOL0     C24511   0.169   8.411   1.651 -0.7455  0.7717  0.3771
  923MOL0     C24512   0.119   8.553   1.676  0.0661  0.4642  0.5421
  923MOL0     C24513  -0.019   8.564   1.597 -0.1138  0.2468 -0.2956
  923MOL0     C24514  -0.095   8.680   1.651 -0.2980  0.5423 -0.5345
  923MOL0    Cl24515  -0.251   8.687   1.558 -0.1663  0.6274 -0.4871
  923MOL0     C24516   0.869   8.312   1.544 -0.1552 -0.6479  0.4952
  923MOL0     C24517   0.999   8.356   1.516  0.4692  0.5069 -0.1101
  923MOL0     O24518   1.261   8.496   1.582 -0.4870 -0.4059 -0.3351
  923MOL0     C24519   1.357   8.644   1.288 -0.8363  0.3369 -0.5478
  923MOL0     C24520   1.446   8.733   1.226  0.7191  0.2421  0.2201
  923MOL0     N24521   2.124   8.720   1.266  0.9247  0.6502 -0.0026
  923MOL0     N24522   2.241   8.774   1.259 -0.4678  0.9889 -0.1221
  923MOL0     C24523   3.174   9.105   0.441  0.7352 -0.5609  0.2450
  923MOL0     C24524   3.265   9.153   0.345 -0.2266 -0.5953  0.0042
  923MOL0     C24525   3.635   9.413   0.197 -0.3632 -0.3536 -0.4127
  923MOL0     C24526   3.671   9.290   0.129  0.3400 -0.3978  0.3758
  923MOL0     C24527   3.781   9.286   0.054  0.6767 -0.0263 -0.0962
  923MOL0     C24528   3.873   9.389   0.041 -0.7099  0.3882  0.9070
  923MOL0     O24529   3.980   9.375  -0.053  0.8513  0.9186  1.0023
  923MOL0     C24530   3.995   9.485  -0.141 -0.0567 -0.1567 -0.1713
  923MOL0     C24531   4.126   9.570  -0.093  0.4588 -0.0690 -0.0147
  923MOL0     C24532   4.175   9.646  -0.221  0.2665 -0.2764 -0.5804
  923MOL0     C24533   4.077   9.752  -0.258  0.7918 -0.3643 -0.1993
  923MOL0     C24534   4.130   9.848  -0.362  0.4487 -0.7810  0.2893
  923MOL0     C24535   4.177   9.927  -0.447  0.2576 -0.1800  0.3721
  923MOL0     C24536   3.845   9.513   0.107 -0.6621 -0.1746 -0.1031
  923MOL0     C24537   3.724   9.520   0.185  0.2421 -0.3966 -0.2483
  923MOL0     H24538   3.408   9.392   0.525  2.2995 -2.8714  0.1513
  923MOL0     H24539   3.267   9.313   0.694 -0.5273  2.5424 -0.6874
  923MOL0     H24540   3.067   9.265   0.778  0.1330  0.0624  0.0022
  923MOL0     H24541   2.910   9.211   0.710 -0.1557  2.1472  3.1931
  923MOL0     H24542   3.068   9.079   0.927  0.8834  1.4487  0.3170
  923MOL0     H24543   2.929   9.185   0.954 -2.5285 -0.1150 -1.1680
  923MOL0     H24544   2.790   9.006   0.832 -1.1681  1.0241  2.7796
  923MOL0     H24545   2.946   8.927   0.809  1.2497  3.4363 -1.6420
  923MOL0     H24546   2.951   8.854   1.014  0.8555 -1.5483 -5.0530
  923MOL0     H24547   2.850   8.989   1.084 -1.8631 -1.0992  1.8250
  923MOL0     H24548   2.716   8.762   0.915 -0.2853 -0.1374  0.6538
  923MOL0     H24549   2.730   8.767   1.088  1.4192 -0.4770  0.0549
  923MOL0     H24550   2.615   8.982   1.093  1.4083 -0.9889  1.4858
  923MOL0     H24551   2.581   8.959   0.917  2.4824 -1.7996 -0.4152
  923MOL0     H24552   2.452   8.780   0.948 -0.9207  0.8500 -0.7060
  923MOL0     H24553   2.493   8.753   1.124  0.2790  2.2245  1.8135
  923MOL0     H24554   2.325   8.950   0.989  1.4512 -1.3353 -1.1076
  923MOL0     H24555   2.383   8.983   1.159  0.2724  0.0658 -0.3331
  923MOL0     H24556   2.148   8.774   0.950  3.0666  2.5200  0.1277
  923MOL0     H24557   1.929   8.640   0.999 -3.1215 -0.4246  0.5545
  923MOL0     H24558   1.915   8.579   1.165  3.0467 -2.1168 -1.3645
  923MOL0     H24559   1.731   8.752   1.086  0.1717  4.1715 -4.2129
  923MOL0     H24560   1.856   8.874   1.091  1.5054  0.6205 -0.0420
  923MOL0     H24561   1.898   8.818   1.343  0.9507  0.9584 -1.5991
  923MOL0     H24562   1.756   8.712   1.341 -2.7761  0.6334 -0.2058
  923MOL0     H24563   1.772   9.013   1.310 -2.2461  0.9511  0.5758
  923MOL0     H24564   1.703   8.922   1.435 -1.8354  2.0739  0.4357
  923MOL0     H24565   1.509   8.941   1.486  0.0581 -1.2089  1.2816
  923MOL0     H24566   1.359   8.886   1.675 -2.8613  0.0636 -1.8256
  923MOL0     H24567   1.246   8.758   1.666 -0.3974 -0.1523  0.6783
  923MOL0     H24568   1.413   8.725   1.716  0.4426  1.1324 -1.9410
  923MOL0     H24569   0.906   8.678   1.449 -0.7264  0.0294  0.8996
  923MOL0     H24570   0.691   8.597   1.540 -0.2607 -0.0169 -3.2849
  923MOL0     H24571   0.614   8.157   1.652  1.7608  0.0358  1.5950
  923MOL0     H24572   0.711   8.243   1.758 -1.6957  0.6543  3.7452
  923MOL0     H24573   0.532   8.206   1.871 -0.0051 -1.9273 -1.4331
  923MOL0     H24574   0.537   8.388   1.837  0.4581  0.4718 -0.9231
  923MOL0     H24575   0.309   8.269   1.831 -0.4737 -0.1285 -0.5152
  923MOL0     H24576   0.357   8.196   1.692 -1.3756 -0.7243  2.6364
  923MOL0     H24577   0.349   8.498   1.739  1.8521  0.4704 -1.7054
  923MOL0     H24578   0.377   8.423   1.583  2.4632  5.0696  1.5400
  923MOL0     H24579   0.121   8.333   1.710  0.4082 -1.9385 -2.0117
  923MOL0     H24580   0.157   8.389   1.545 -3.5045 -2.1260  1.1568
  923MOL0     H24581   0.112   8.578   1.782  0.0519 -2.2516  1.2493
  923MOL0     H24582   0.189   8.622   1.629 -0.0998 -0.6245 -1.3904
  923MOL0     H24583  -0.069   8.467   1.609  0.0432 -0.0714 -1.9151
  923MOL0     H24584  -0.016   8.566   1.487  1.4661 -2.3995 -0.4000
  923MOL0     H24585  -0.035   8.769   1.633  1.5488 -0.2631  1.2494
  923MOL0     H24586  -0.114   8.666   1.758 -1.1142 -1.7490 -0.9253
  923MOL0     H24587   0.852   8.207   1.564 -1.6285 -0.8070 -1.2606
  923MOL0     H24588   1.081   8.285   1.515  0.1133  0.0505  0.9355
  923MOL0     H24589   1.315   8.570   1.220  2.5872  0.6479 -3.3309
  923MOL0     H24590   1.474   8.729   1.121  2.2469  2.0040  0.5051
  923MOL0     H24591   3.116   9.017   0.415  1.1277 -0.6850 -0.2176
  923MOL0     H24592   3.280   9.097   0.253 -0.5786 -0.5268 -0.0959
  923MOL0     H24593   3.621   9.194   0.132 -1.3103  0.2199 -3.0684
  923MOL0     H24594   3.791   9.195  -0.004  0.2458  0.1969 -0.5241
  923MOL0     H24595   4.014   9.446  -0.242  0.1507 -1.6188  0.4131
  923MOL0     H24596   3.912   9.557  -0.149  1.0841  0.9594 -4.2706
  923MOL0     H24597   4.209   9.501  -0.076  0.1708 -0.6907 -0.9933
  923MOL0     H24598   4.102   9.637  -0.011 -0.5032  4.2987 -3.4757
  923MOL0     H24599   4.187   9.583  -0.309 -0.4017  1.3517 -1.8937
  923MOL0     H24600   4.267   9.700  -0.198 -0.6682  2.0946 -2.0069
  923MOL0     H24601   4.045   9.810  -0.170 -2.0518  0.8346 -1.8813
  923MOL0     H24602   3.990   9.701  -0.299  3.4744 -4.2527 -1.5556
  923MOL0     H24603   4.228  10.003  -0.503 -0.9152  2.7250  2.9431
  923MOL0     H24604   3.910   9.598   0.086 -1.0852 -0.5879 -3.7638
  923MOL0     H24605   3.692   9.616   0.225  2.7259  1.4091 -2.2978
  924MOL0     O24606   4.627   9.567   4.080 -0.4505  0.4429  0.6815
  924MOL0     C24607   4.723   9.632   4.120  0.2455 -0.7472  0.1534
  924MOL0     O24608   4.717   9.704   4.236 -0.2788 -0.5838  0.3706
  924MOL0     C24609   4.608   9.696   4.320 -0.7215 -0.7460 -0.6850
  924MOL0     C24610   4.562   9.575   4.367 -0.6638 -0.4160 -0.0312
  924MOL0     C24611   4.448   9.567   4.454 -0.1361  0.2435  0.0057
  924MOL0     C24612   4.407   9.691   4.515 -0.2147  0.1909 -0.1551
  924MOL0     O24613   4.325   9.703   4.621 -0.0671  0.6361  0.1082
  924MOL0     C24614   4.241   9.587   4.651  0.7415 -0.2161 -0.0623
  924MOL0     C24615   4.147   9.605   4.778  0.3255  0.3754  1.3050
  924MOL0     C24616   4.239   9.620   4.900  0.7624 -0.2458  0.1686
  924MOL0     C24617   4.146   9.655   5.009 -0.2498  0.2331  0.4254
  924MOL0     C24618   4.213   9.651   5.142 -0.4229  0.2631  0.1472
  924MOL0     C24619   4.282   9.512   5.183  0.1789  0.4743  0.6909
  924MOL0     C24620   4.188   9.396   5.163 -0.1626  0.8743 -0.0508
  924MOL0     C24621   4.234   9.256   5.182  0.2117 -0.8548 -0.1525
  924MOL0     N24622   4.253   9.235   5.323 -0.6701  0.8647  0.1235
  924MOL0     C24623   4.163   9.165   5.394  1.1252  1.1628 -1.0243
  924MOL0     C24624   4.221   9.167   5.521  0.3844 -0.1761  0.2298
  924MOL0     C24625   4.177   9.086   5.638  0.5767  0.5758  0.8073
  924MOL0     C24626   4.141   9.178   5.754  0.5111 -0.0265  0.1021
  924MOL0     C24627   4.098   9.102   5.879  0.5349  0.5446  0.0305
  924MOL0     C24628   3.942   9.071   5.888  0.0778  0.4760 -0.6345
  924MOL0     O24629   3.866   9.176   5.943  0.1027 -0.5211  0.5181
  924MOL0     C24630   3.734   9.177   5.945 -0.1751  0.0867  0.2424
  924MOL0     C24631   3.676   9.291   5.998 -0.2834 -0.4396 -0.4133
  924MOL0     C24632   3.540   9.309   6.003 -0.5845  0.4213 -0.4519
  924MOL0     C24633   3.499   9.443   6.061 -0.1897  0.0097 -0.2312
  924MOL0     C24634   3.458   9.197   5.971  0.6925  0.7399  1.0773
  924MOL0     C24635   3.308   9.204   5.984  0.6557  0.0998  0.2236
  924MOL0     O24636   3.240   9.322   5.987 -0.0979  0.3740  0.9006
  924MOL0     C24637   3.112   9.336   5.946  0.2669 -1.1608 -0.3477
  924MOL0     C24638   3.042   9.456   5.982 -0.5419  0.2988  0.4477
  924MOL0     C24639   2.910   9.469   5.948  0.2298 -0.0207 -0.4590
  924MOL0     C24640   2.842   9.368   5.884  0.5126  0.8141 -0.5666
  924MOL0     O24641   2.706   9.394   5.881 -0.2073  0.9756  0.1550
  924MOL0     C24642   2.632   9.328   5.777  0.5123  0.2750  0.3754
  924MOL0     C24643   2.490   9.364   5.786  0.1617 -0.0351  0.0673
  924MOL0     C24644   2.464   9.509   5.732 -0.0338  0.4477  0.6697
  924MOL0     C24645   2.316   9.557   5.745  0.6676 -0.3206 -0.6041
  924MOL0     C24646   2.305   9.705   5.702 -1.1113  0.1693 -0.6328
  924MOL0     C24647   2.160   9.743   5.678  0.1117 -0.1793  0.1033
  924MOL0     C24648   2.091   9.796   5.802  0.2268 -1.1189 -0.0462
  924MOL0     C24649   1.944   9.839   5.773  0.1793 -0.0397  0.0230
  924MOL0    Cl24650   1.859   9.892   5.921 -0.1793  0.1735 -0.2875
  924MOL0     C24651   2.908   9.255   5.837  0.5041 -0.1989 -0.1687
  924MOL0     C24652   3.042   9.240   5.870 -0.0348 -0.7095  0.2354
  924MOL0     O24653   3.253   9.096   6.003  0.8178 -0.3853  0.1017
  924MOL0     C24654   3.514   9.079   5.917 -0.4350 -0.0736 -0.4161
  924MOL0     C24655   3.651   9.077   5.900  0.6481  0.4240 -0.3748
  924MOL0     N24656   4.342   9.225   5.512 -1.0976 -0.4462  0.1351
  924MOL0     N24657   4.360   9.273   5.395 -0.0968  0.3165  0.8867
  924MOL0     C24658   4.461   9.813   4.467 -0.2506  0.0481 -0.0626
  924MOL0     C24659   4.558   9.816   4.365 -0.1221 -0.0114  0.5038
  924MOL0     C24660   4.845   9.625   4.045 -0.7959  0.9464 -0.6435
  924MOL0     C24661   4.958   9.700   4.085 -0.7818  0.9873  0.7537
  924MOL0     C24662   5.082   9.698   4.015 -0.2891 -0.1036  0.3139
  924MOL0     C24663   5.097   9.607   3.909 -0.0536 -0.9957 -0.2491
  924MOL0     O24664   5.214   9.583   3.838 -0.2191  0.2553 -0.4512
  924MOL0     C24665   5.339   9.632   3.900 -0.0717  0.3155 -0.1729
  924MOL0     C24666   5.456   9.542   3.848 -1.0334 -0.0514  0.8462
  924MOL0     C24667   5.483   9.574   3.701 -0.5593 -0.2906 -0.7833
  924MOL0     C24668   5.549   9.707   3.657  0.6936  0.6914 -0.0446
  924MOL0     C24669   5.687   9.703   3.709  0.0728 -0.0305 -1.2861
  924MOL0     C24670   5.799   9.718   3.752  0.5698  0.8675 -0.5212
  924MOL0     C24671   4.987   9.538   3.863 -0.0295 -0.4292 -0.2521
  924MOL0     C24672   4.865   9.549   3.926 -0.1087 -0.2342  0.0888
  924MOL0     H24673   4.608   9.479   4.344 -1.0443 -0.9032  1.1369
  924MOL0     H24674   4.406   9.471   4.483  0.1508 -1.5141 -4.4699
  924MOL0     H24675   4.171   9.577   4.568  1.6226  2.0960 -1.1497
  924MOL0     H24676   4.302   9.497   4.663 -0.4009 -1.4068 -2.5120
  924MOL0     H24677   4.079   9.688   4.755  0.0261 -0.3353 -0.5580
  924MOL0     H24678   4.093   9.511   4.788 -0.5371  0.8756  1.4046
  924MOL0     H24679   4.281   9.519   4.903  0.7638 -0.3291 -1.5243
  924MOL0     H24680   4.318   9.694   4.884 -1.0862  1.5957 -0.9987
  924MOL0     H24681   4.105   9.755   4.990  1.9246  1.3121  1.0082
  924MOL0     H24682   4.061   9.587   5.018  0.9109 -1.8728 -2.6864
  924MOL0     H24683   4.296   9.720   5.161 -0.5610 -0.0620  2.2016
  924MOL0     H24684   4.146   9.678   5.224  2.2166  1.5642  2.0589
  924MOL0     H24685   4.367   9.498   5.116  0.9439  0.8547  1.5579
  924MOL0     H24686   4.333   9.514   5.280  1.9692 -2.1632 -0.0843
  924MOL0     H24687   4.100   9.408   5.227  0.2679  0.4629  0.6232
  924MOL0     H24688   4.144   9.404   5.063  0.3625  0.9357 -0.2804
  924MOL0     H24689   4.331   9.235   5.135  0.3500 -0.8154  0.1108
  924MOL0     H24690   4.154   9.187   5.153 -2.9289  1.8638  1.4250
  924MOL0     H24691   4.073   9.123   5.351  1.1787  0.3119 -0.3341
  924MOL0     H24692   4.083   9.033   5.618  0.0514  1.1644  1.6723
  924MOL0     H24693   4.262   9.021   5.656 -0.0976  0.2325  3.0503
  924MOL0     H24694   4.061   9.247   5.726  1.9890  1.6432 -0.2006
  924MOL0     H24695   4.223   9.245   5.782  0.2828  0.6198 -0.7333
  924MOL0     H24696   4.115   9.170   5.963  1.1836  2.6705 -1.7042
  924MOL0     H24697   4.168   9.020   5.894 -0.0289  0.3796  2.1033
  924MOL0     H24698   3.920   8.988   5.955  2.8105 -0.1467 -0.3838
  924MOL0     H24699   3.913   9.040   5.787 -2.3798 -0.0278  0.1646
  924MOL0     H24700   3.743   9.369   6.030  2.1837 -1.6589 -2.3356
  924MOL0     H24701   3.394   9.453   6.090  0.0339  1.3859  0.1983
  924MOL0     H24702   3.550   9.469   6.154  0.5902  0.9999 -0.9130
  924MOL0     H24703   3.525   9.523   5.991  0.1039  0.5142  0.4457
  924MOL0     H24704   3.085   9.538   6.039 -1.5100  0.0961  1.5112
  924MOL0     H24705   2.867   9.566   5.974  1.5290  0.0659  1.6970
  924MOL0     H24706   2.669   9.360   5.680 -2.0384  0.1937 -0.7155
  924MOL0     H24707   2.633   9.219   5.789  0.3673  0.4289  2.0305
  924MOL0     H24708   2.436   9.297   5.719  1.1550  1.1087 -1.9690
  924MOL0     H24709   2.456   9.341   5.888 -1.2629  2.0038  0.0982
  924MOL0     H24710   2.490   9.510   5.626 -0.7008 -0.4088  0.4954
  924MOL0     H24711   2.533   9.584   5.774 -1.3535  2.5523 -0.7515
  924MOL0     H24712   2.252   9.493   5.683 -1.1364 -1.2562  2.0698
  924MOL0     H24713   2.292   9.550   5.851  0.2493 -0.6550 -0.7178
  924MOL0     H24714   2.368   9.723   5.615 -1.4830 -0.8294 -1.1232
  924MOL0     H24715   2.351   9.759   5.786  1.3726  0.1388 -1.9020
  924MOL0     H24716   2.159   9.822   5.602  0.9848  0.3592  0.6336
  924MOL0     H24717   2.095   9.662   5.644 -1.3776  2.2549 -3.3880
  924MOL0     H24718   2.148   9.881   5.840  2.1987 -2.8257  1.0196
  924MOL0     H24719   2.087   9.713   5.873  0.9987  0.3800  1.8134
  924MOL0     H24720   1.883   9.763   5.725 -0.4610 -0.0052  0.7598
  924MOL0     H24721   1.954   9.926   5.707  0.6865  1.9489  2.5425
  924MOL0     H24722   2.856   9.185   5.773  2.0566  0.1048 -1.8437
  924MOL0     H24723   3.097   9.153   5.834  0.6252 -0.8499  1.5249
  924MOL0     H24724   3.447   9.007   5.871 -1.5396 -1.2067  2.6857
  924MOL0     H24725   3.697   8.988   5.858 -0.2637 -0.0681 -0.3458
  924MOL0     H24726   4.424   9.909   4.502  2.4054  1.8223 -1.7821
  924MOL0     H24727   4.601   9.905   4.322  1.4670 -1.5633 -1.2993
  924MOL0     H24728   4.947   9.764   4.172  0.2501  0.4242  1.3126
  924MOL0     H24729   5.153   9.766   4.060  1.5618 -0.5146 -1.8418
  924MOL0     H24730   5.354   9.740   3.889 -3.4554  0.6871 -3.0686
  924MOL0     H24731   5.343   9.602   4.005  0.2587 -1.2615 -0.6099
  924MOL0     H24732   5.426   9.437   3.860 -2.4239 -0.6569 -4.7921
  924MOL0     H24733   5.545   9.573   3.904 -0.9973  1.1248  0.1586
  924MOL0     H24734   5.387   9.563   3.650 -0.1792  0.0375 -1.5937
  924MOL0     H24735   5.549   9.492   3.671  0.7456  0.4895 -0.1240
  924MOL0     H24736   5.493   9.793   3.693  0.7427 -0.5788  3.5003
  924MOL0     H24737   5.546   9.717   3.548 -0.5129 -2.4320 -0.4106
  924MOL0     H24738   5.898   9.740   3.787  1.5637 -2.6248 -0.7678
  924MOL0     H24739   5.007   9.462   3.789 -2.9513  0.7321 -2.4521
  924MOL0     H24740   4.781   9.490   3.892  1.9133 -3.0845 -0.2971
  925MOL0     O24741   3.424   8.664   5.647  0.1479 -0.2385  0.0043
  925MOL0     C24742   3.457   8.770   5.597  0.4611 -0.0305  0.4960
  925MOL0     O24743   3.368   8.867   5.550 -0.3249  0.3357 -0.2334
  925MOL0     C24744   3.229   8.856   5.559 -0.6975  0.0492 -0.4159
  925MOL0     C24745   3.165   8.817   5.678  0.0628  0.0739 -0.1741
  925MOL0     C24746   3.027   8.809   5.678 -0.0837 -0.6718 -0.5586
  925MOL0     C24747   2.952   8.838   5.563 -0.5806  0.1432 -0.6862
  925MOL0     O24748   2.814   8.809   5.565 -0.3572 -0.1835 -0.1904
  925MOL0     C24749   2.711   8.893   5.502 -1.1091  0.2884 -0.6956
  925MOL0     C24750   2.572   8.834   5.552  0.2544  0.5072 -0.3024
  925MOL0     C24751   2.460   8.918   5.483  0.0463 -0.2200  0.0327
  925MOL0     C24752   2.326   8.893   5.553 -0.3545  0.4071 -0.6671
  925MOL0     C24753   2.215   8.998   5.523  0.6198 -0.3914 -0.0137
  925MOL0     C24754   2.075   8.949   5.534  0.8342  0.8105 -0.6959
  925MOL0     C24755   1.977   9.069   5.531 -0.7265  0.5364 -0.0747
  925MOL0     C24756   1.834   9.021   5.560  0.3549 -0.1301 -0.4388
  925MOL0     N24757   1.750   9.124   5.620  0.1430  0.0531 -0.1497
  925MOL0     C24758   1.695   9.231   5.552  0.0084 -0.7537 -0.4109
  925MOL0     C24759   1.630   9.308   5.643 -0.3954  0.7741  0.0433
  925MOL0     C24760   1.562   9.436   5.615  0.8962 -0.3179  1.1704
  925MOL0     C24761   1.422   9.414   5.559 -0.6044 -0.2375 -0.0791
  925MOL0     C24762   1.355   9.542   5.518 -0.0231  0.4571 -0.2119
  925MOL0     C24763   1.202   9.539   5.515 -0.5650  0.3306  0.9945
  925MOL0     O24764   1.142   9.486   5.634 -0.4268 -0.9660  0.3851
  925MOL0     C24765   1.011   9.443   5.631 -0.5736  0.0698  0.9140
  925MOL0     C24766   0.965   9.390   5.754  0.2899  1.1286  0.6039
  925MOL0     C24767   0.826   9.358   5.775 -0.3386 -0.2612 -0.0236
  925MOL0     C24768   0.783   9.312   5.915  0.5437 -0.2615  0.1625
  925MOL0     C24769   0.730   9.379   5.668 -0.9501 -0.1288  0.1636
  925MOL0     C24770   0.585   9.352   5.663 -1.0021  0.9737  0.1887
  925MOL0     O24771   0.540   9.253   5.741 -0.8697  0.3100 -0.4163
  925MOL0     C24772   0.414   9.220   5.749  1.1884 -0.0966  0.7443
  925MOL0     C24773   0.318   9.195   5.652  0.5866 -0.1206 -0.2985
  925MOL0     C24774   0.192   9.148   5.671  0.0691 -0.1272 -0.3552
  925MOL0     C24775   0.147   9.143   5.804 -0.4232 -0.3474  0.0927
  925MOL0     O24776   0.011   9.118   5.813  0.2260  0.8580 -0.3332
  925MOL0     C24777  -0.076   9.218   5.876 -0.5521 -0.5828 -0.2991
  925MOL0     C24778  -0.207   9.213   5.800  0.2800 -0.4883 -0.3409
  925MOL0     C24779  -0.272   9.080   5.817  0.4083  0.3007 -0.9770
  925MOL0     C24780  -0.416   9.087   5.776  0.3852 -0.0658  0.1662
  925MOL0     C24781  -0.483   8.948   5.785 -0.6749 -0.7422 -0.3305
  925MOL0     C24782  -0.630   8.954   5.734 -0.5021  0.0598  0.6001
  925MOL0     C24783  -0.704   8.825   5.784 -0.4554  0.0416  0.0329
  925MOL0     C24784  -0.855   8.831   5.742  0.4321 -0.5761  0.2202
  925MOL0    Cl24785  -0.873   8.850   5.568 -0.2809  0.0570 -0.2813
  925MOL0     C24786   0.236   9.168   5.912  0.2147 -0.6585 -0.1653
  925MOL0     C24787   0.366   9.204   5.878  0.3821  0.1965 -0.0054
  925MOL0     O24788   0.519   9.409   5.576 -0.6015  0.0018  0.1391
  925MOL0     C24789   0.785   9.436   5.550  0.1090  0.6935  0.1914
  925MOL0     C24790   0.918   9.467   5.525  0.0185 -0.0918 -0.0465
  925MOL0     N24791   1.633   9.246   5.768 -0.0641  0.2468  0.3472
  925MOL0     N24792   1.709   9.134   5.751 -0.5845  0.8309 -0.3139
  925MOL0     C24793   3.014   8.889   5.452 -0.0104 -0.6170  0.3679
  925MOL0     C24794   3.156   8.900   5.451 -0.0491  0.5545  0.5859
  925MOL0     C24795   3.594   8.777   5.561 -0.3027 -0.7479  0.1529
  925MOL0     C24796   3.656   8.904   5.581 -0.1002  0.7165 -0.1535
  925MOL0     C24797   3.787   8.934   5.540  1.1633 -0.0924  0.8246
  925MOL0     C24798   3.869   8.831   5.489  0.0502 -0.5354 -1.2224
  925MOL0     O24799   3.999   8.862   5.468  0.2288 -0.0800 -0.7806
  925MOL0     C24800   4.096   8.752   5.452  0.2229  0.5010 -0.4046
  925MOL0     C24801   4.107   8.708   5.303 -0.2895  0.2744 -0.7041
  925MOL0     C24802   4.164   8.812   5.201 -0.5894 -0.0845  0.0088
  925MOL0     C24803   4.314   8.847   5.230  0.1866 -0.2484  0.9226
  925MOL0     C24804   4.390   8.911   5.126 -0.5121  0.4324  1.1921
  925MOL0     C24805   4.449   8.949   5.027  0.5078 -0.2713 -0.0718
  925MOL0     C24806   3.802   8.703   5.469 -0.1992  0.6813 -0.8399
  925MOL0     C24807   3.669   8.672   5.511  0.0491 -0.0442  0.4712
  925MOL0     H24808   3.220   8.784   5.765 -1.9476  0.2777  1.2543
  925MOL0     H24809   2.973   8.775   5.766 -0.9410  1.3380 -0.2517
  925MOL0     H24810   2.724   8.997   5.534 -0.2177  0.8288 -2.6187
  925MOL0     H24811   2.735   8.882   5.396  2.7934 -3.8881  0.3408
  925MOL0     H24812   2.561   8.729   5.520  0.2701  1.7551 -5.2581
  925MOL0     H24813   2.571   8.862   5.657  0.4599  1.8813 -0.6502
  925MOL0     H24814   2.489   9.022   5.497 -2.7865  0.9126 -1.7091
  925MOL0     H24815   2.469   8.893   5.377  1.6132  2.4052 -0.5179
  925MOL0     H24816   2.284   8.796   5.525 -0.7757  0.8564 -1.6515
  925MOL0     H24817   2.352   8.902   5.659 -1.4769 -2.1218 -0.1060
  925MOL0     H24818   2.238   9.096   5.564 -1.6461  0.7177 -1.2129
  925MOL0     H24819   2.237   9.024   5.419  1.3759 -1.6943 -0.2112
  925MOL0     H24820   2.063   8.885   5.446  0.3734  1.0016 -0.7746
  925MOL0     H24821   2.073   8.892   5.628  1.2086  1.2486 -0.4148
  925MOL0     H24822   2.018   9.139   5.605  0.9829  0.5815 -1.0191
  925MOL0     H24823   1.974   9.119   5.434 -0.4688  1.4710  0.3898
  925MOL0     H24824   1.832   8.938   5.632 -2.0807 -0.7783 -1.1726
  925MOL0     H24825   1.794   8.980   5.468 -2.0389 -0.1087  0.5239
  925MOL0     H24826   1.701   9.253   5.445 -0.8876 -0.1829 -0.3558
  925MOL0     H24827   1.549   9.507   5.697  0.1340  0.6490  0.2317
  925MOL0     H24828   1.624   9.499   5.551  2.5611 -1.2847  1.7550
  925MOL0     H24829   1.365   9.365   5.639  0.3716 -0.0252  0.7541
  925MOL0     H24830   1.431   9.339   5.480 -0.5523  0.1834 -0.4774
  925MOL0     H24831   1.392   9.578   5.421 -0.5088 -0.7989 -0.8864
  925MOL0     H24832   1.372   9.620   5.592  3.9214 -0.4557  0.0633
  925MOL0     H24833   1.170   9.471   5.436  0.1506  1.4717 -0.3317
  925MOL0     H24834   1.167   9.638   5.483  1.5176  1.5989  2.3319
  925MOL0     H24835   1.031   9.375   5.839  1.2048 -2.1842 -0.5426
  925MOL0     H24836   0.849   9.335   6.000  2.1194 -0.9113 -0.8274
  925MOL0     H24837   0.685   9.348   5.947  1.0760  1.3220  0.1068
  925MOL0     H24838   0.763   9.206   5.899 -1.9654  0.2694 -0.5417
  925MOL0     H24839   0.348   9.195   5.547 -0.8516  1.3496 -0.7557
  925MOL0     H24840   0.118   9.139   5.592 -1.0012  4.0659 -0.1003
  925MOL0     H24841  -0.087   9.207   5.984  0.9726 -0.0570 -0.0735
  925MOL0     H24842  -0.027   9.316   5.868 -0.7691 -0.4349  0.1802
  925MOL0     H24843  -0.286   9.282   5.830 -2.3168 -2.0820 -2.9659
  925MOL0     H24844  -0.200   9.239   5.694  1.2830  0.6490 -0.0211
  925MOL0     H24845  -0.252   9.041   5.917  0.2886 -0.2836 -1.1712
  925MOL0     H24846  -0.229   9.012   5.742  2.9187 -1.1130  1.5675
  925MOL0     H24847  -0.472   9.154   5.842 -1.7325 -0.1003 -1.4993
  925MOL0     H24848  -0.418   9.129   5.675  3.7403 -1.6810 -0.7297
  925MOL0     H24849  -0.470   8.906   5.885  5.3308 -0.1239 -0.4876
  925MOL0     H24850  -0.425   8.883   5.719  0.4436 -2.5742  2.2690
  925MOL0     H24851  -0.675   9.037   5.790 -0.9874 -1.0085  1.8433
  925MOL0     H24852  -0.642   8.974   5.627 -1.3998 -0.9176  0.4994
  925MOL0     H24853  -0.704   8.812   5.892  0.3032  0.8876  0.1464
  925MOL0     H24854  -0.656   8.737   5.741 -0.8679  0.3347 -1.0835
  925MOL0     H24855  -0.904   8.908   5.803  1.4991 -0.5817  1.1226
  925MOL0     H24856  -0.906   8.737   5.764 -0.8773 -0.0582 -0.4890
  925MOL0     H24857   0.202   9.158   6.015 -2.7545  0.5576 -0.9495
  925MOL0     H24858   0.443   9.219   5.954 -1.9559  2.2891  2.1526
  925MOL0     H24859   0.720   9.466   5.468 -0.5290  2.9255  1.4165
  925MOL0     H24860   0.949   9.521   5.436 -0.0113  4.1399  2.2274
  925MOL0     H24861   2.959   8.909   5.360  3.3935 -0.7599 -1.8655
  925MOL0     H24862   3.208   8.932   5.361 -0.9239 -0.7609 -0.4267
  925MOL0     H24863   3.599   8.980   5.635  1.2280  0.1498  2.1607
  925MOL0     H24864   3.830   9.034   5.538  1.0006  0.0375 -2.9948
  925MOL0     H24865   4.196   8.781   5.486 -0.0839  3.0752 -1.4930
  925MOL0     H24866   4.049   8.678   5.518 -0.0190 -0.0754 -1.2104
  925MOL0     H24867   4.008   8.687   5.262 -0.1842 -0.7110 -0.4902
  925MOL0     H24868   4.162   8.613   5.302 -0.3607  0.1596  1.1252
  925MOL0     H24869   4.115   8.910   5.205  1.1810  0.8470  0.5021
  925MOL0     H24870   4.155   8.772   5.100  0.5119 -0.1087 -0.0964
  925MOL0     H24871   4.369   8.757   5.258  3.4362  1.4309  0.3861
  925MOL0     H24872   4.320   8.911   5.318 -3.5200 -0.4648  1.5133
  925MOL0     H24873   4.502   8.992   4.944  0.3759  0.4597  0.2181
  925MOL0     H24874   3.853   8.624   5.414  0.4895 -0.3044  1.0966
  925MOL0     H24875   3.626   8.575   5.487  4.1380 -2.6344  2.3186
  926MOL0     O24876   4.403   6.220   6.066  0.7918  1.5314  0.9893
  926MOL0     C24877   4.400   6.260   5.951 -0.8296 -0.5310  0.1795
  926MOL0     O24878   4.481   6.349   5.894 -0.2398 -0.7920 -1.0665
  926MOL0     C24879   4.591   6.393   5.955  0.0172  0.1148 -0.2229
  926MOL0     C24880   4.712   6.344   5.905 -0.3999 -0.3436 -0.0329
  926MOL0     C24881   4.841   6.378   5.959  0.6343 -0.1611 -0.6739
  926MOL0     C24882   4.863   6.475   6.058 -0.2346  0.6710  0.9322
  926MOL0     O24883   4.992   6.501   6.099  0.1331 -0.0918  0.0153
  926MOL0     C24884   5.001   6.634   6.154 -0.2270  0.1472 -0.5802
  926MOL0     C24885   5.143   6.666   6.195 -0.6551 -0.0897  0.4272
  926MOL0     C24886   5.194   6.550   6.287  0.5209 -0.4179 -0.1477
  926MOL0     C24887   5.158   6.576   6.443  1.1532  0.4707 -0.1538
  926MOL0     C24888   5.252   6.504   6.533 -0.1284 -0.3917  0.1684
  926MOL0     C24889   5.225   6.534   6.682  0.6322 -0.1853 -0.4780
  926MOL0     C24890   5.289   6.660   6.733 -0.2930  0.0298  0.6486
  926MOL0     C24891   5.316   6.664   6.882  0.5952  0.2571 -0.0408
  926MOL0     N24892   5.219   6.739   6.967 -0.7907  0.1594  0.0834
  926MOL0     C24893   5.089   6.713   6.987 -0.1179  0.2373 -0.1639
  926MOL0     C24894   5.046   6.820   7.056  0.0610  0.6947 -0.3610
  926MOL0     C24895   4.905   6.827   7.108 -0.0586 -0.4727 -0.0778
  926MOL0     C24896   4.799   6.873   7.002  0.0727 -0.1973  0.0357
  926MOL0     C24897   4.665   6.827   7.043 -0.4093 -0.4783 -0.7735
  926MOL0     C24898   4.547   6.862   6.956 -0.5867 -0.6866  0.5565
  926MOL0     O24899   4.531   7.005   6.965 -0.5060 -0.2797 -0.1734
  926MOL0     C24900   4.421   7.063   6.908 -0.1941  0.1622 -0.4969
  926MOL0     C24901   4.312   6.994   6.850 -0.5251 -0.5768 -0.4308
  926MOL0     C24902   4.194   7.052   6.797  1.0393 -0.0790  0.4040
  926MOL0     C24903   4.089   6.964   6.743  0.3928  0.6559  0.3608
  926MOL0     C24904   4.196   7.193   6.796 -0.3485 -0.5464  0.5473
  926MOL0     C24905   4.077   7.269   6.745  1.1344  0.4604  0.3734
  926MOL0     O24906   4.092   7.356   6.641  0.3642 -0.4215  0.2162
  926MOL0     C24907   3.977   7.415   6.585 -0.2133  0.5568 -1.0276
  926MOL0     C24908   3.870   7.471   6.656  0.6070  0.3576 -0.5541
  926MOL0     C24909   3.765   7.540   6.597 -0.0572 -1.0172  0.2867
  926MOL0     C24910   3.764   7.563   6.461 -0.6253  0.6214 -0.7781
  926MOL0     O24911   3.664   7.641   6.412 -0.4051 -0.7305 -0.0863
  926MOL0     C24912   3.604   7.614   6.276 -0.2268  0.3513  0.2351
  926MOL0     C24913   3.505   7.717   6.230 -0.1824 -1.3880 -0.3945
  926MOL0     C24914   3.426   7.703   6.096  0.0782  0.7796 -0.5624
  926MOL0     C24915   3.312   7.804   6.091 -0.1692  0.4005  0.1434
  926MOL0     C24916   3.211   7.753   5.985  0.4999  0.3858 -0.2599
  926MOL0     C24917   3.082   7.829   6.000 -0.4057  0.8224 -0.1871
  926MOL0     C24918   2.973   7.762   5.920  0.5017 -0.0513  0.0567
  926MOL0     C24919   2.852   7.853   5.897 -0.2154  0.7921 -0.1780
  926MOL0    Cl24920   2.889   7.999   5.806  0.0995 -0.6624  0.0482
  926MOL0     C24921   3.866   7.506   6.384 -0.5086  0.1046  0.1023
  926MOL0     C24922   3.967   7.428   6.448 -0.1665 -0.8276 -0.0944
  926MOL0     O24923   3.976   7.237   6.802  0.7412 -0.3174 -0.1210
  926MOL0     C24924   4.298   7.267   6.851 -1.0249 -0.1914 -0.8582
  926MOL0     C24925   4.407   7.200   6.911  0.2254  0.3836 -0.2236
  926MOL0     N24926   5.146   6.912   7.072  0.0819  0.0246  0.2709
  926MOL0     N24927   5.247   6.865   7.010 -0.2558  0.3023 -0.1372
  926MOL0     C24928   4.742   6.524   6.111 -0.0986 -0.8306 -0.5416
  926MOL0     C24929   4.609   6.482   6.063 -0.3482 -0.2588 -1.0776
  926MOL0     C24930   4.298   6.196   5.864  0.0714  0.7060 -0.2140
  926MOL0     C24931   4.183   6.137   5.917  0.5655  0.6653  0.6328
  926MOL0     C24932   4.084   6.091   5.833 -0.5399 -0.0301  0.4525
  926MOL0     C24933   4.101   6.103   5.691  1.0144 -0.6479 -0.2533
  926MOL0     O24934   3.990   6.069   5.618  0.3045  0.4687 -0.0345
  926MOL0     C24935   3.858   6.102   5.668 -0.0360 -0.8711  0.4591
  926MOL0     C24936   3.787   6.157   5.546 -0.7419  0.2030  0.2667
  926MOL0     C24937   3.848   6.280   5.482 -0.1724  0.2220 -0.1063
  926MOL0     C24938   3.739   6.382   5.455 -0.1728  0.7932 -0.5870
  926MOL0     C24939   3.767   6.495   5.368 -0.6089  0.1626 -0.5302
  926MOL0     C24940   3.784   6.578   5.279 -0.1609 -0.5271 -1.0972
  926MOL0     C24941   4.219   6.157   5.639  0.9607 -0.4342  0.1567
  926MOL0     C24942   4.321   6.194   5.719  0.1383 -0.3410  0.8214
  926MOL0     H24943   4.701   6.280   5.818 -2.3409  1.7380 -1.4206
  926MOL0     H24944   4.928   6.335   5.911  0.3934 -1.0116 -0.3852
  926MOL0     H24945   4.979   6.719   6.089 -1.2469 -0.2078 -0.7181
  926MOL0     H24946   4.938   6.659   6.240  1.4402  1.9291  0.1976
  926MOL0     H24947   5.219   6.655   6.117  1.4421  0.7241  2.2547
  926MOL0     H24948   5.149   6.768   6.234 -4.4782 -0.5249  2.6673
  926MOL0     H24949   5.159   6.453   6.252 -1.0059 -0.5909  1.6974
  926MOL0     H24950   5.303   6.546   6.279  0.3666 -0.5062 -3.4471
  926MOL0     H24951   5.176   6.680   6.471  0.9739  1.7627 -4.1808
  926MOL0     H24952   5.054   6.549   6.465  0.5365  2.8963  0.1420
  926MOL0     H24953   5.243   6.396   6.519 -1.3365 -0.3495  0.5273
  926MOL0     H24954   5.357   6.527   6.511 -0.2098  1.4998  1.4568
  926MOL0     H24955   5.121   6.543   6.712  1.2779 -1.4745  2.6165
  926MOL0     H24956   5.251   6.444   6.739 -0.3687 -0.5521 -0.5784
  926MOL0     H24957   5.385   6.664   6.680  0.0976 -1.7609  1.1591
  926MOL0     H24958   5.242   6.754   6.702  0.9054  0.5308  0.2968
  926MOL0     H24959   5.413   6.713   6.890  1.2622 -0.6087 -2.0203
  926MOL0     H24960   5.332   6.562   6.920 -0.2323  0.1671  0.0920
  926MOL0     H24961   5.032   6.624   6.962  2.4726 -1.5012 -0.2007
  926MOL0     H24962   4.874   6.735   7.157  1.4237  0.3695  2.6822
  926MOL0     H24963   4.912   6.914   7.175 -2.9908 -0.0115 -0.2721
  926MOL0     H24964   4.838   6.848   6.903 -1.1406  1.3432 -0.8818
  926MOL0     H24965   4.786   6.982   6.994 -1.1669 -0.4280 -1.5981
  926MOL0     H24966   4.642   6.854   7.146  0.1883  0.1979 -0.8057
  926MOL0     H24967   4.669   6.718   7.044 -1.5155 -0.5286  0.6690
  926MOL0     H24968   4.464   6.800   6.992 -0.9909 -0.7231 -0.4197
  926MOL0     H24969   4.576   6.832   6.855  2.1182  0.4172  0.9242
  926MOL0     H24970   4.310   6.886   6.852 -0.0611 -0.5742  0.6489
  926MOL0     H24971   3.999   6.953   6.805 -1.0327  1.0629 -1.5571
  926MOL0     H24972   4.056   7.013   6.651  0.3376  1.9983  1.0673
  926MOL0     H24973   4.124   6.865   6.715 -2.5004 -0.2784 -0.2612
  926MOL0     H24974   3.883   7.474   6.764  0.0137  0.1635 -0.4740
  926MOL0     H24975   3.699   7.588   6.667  3.1530  1.7200  1.7195
  926MOL0     H24976   3.679   7.602   6.197  0.7274  3.6751  0.4769
  926MOL0     H24977   3.542   7.525   6.278  0.5306 -0.2484 -1.3352
  926MOL0     H24978   3.430   7.736   6.307  1.4458  1.3952  0.6252
  926MOL0     H24979   3.553   7.815   6.231 -0.8307 -1.0609 -0.9139
  926MOL0     H24980   3.376   7.606   6.086  0.2962  0.6504 -0.3996
  926MOL0     H24981   3.497   7.709   6.013  2.0225 -0.5130  0.9109
  926MOL0     H24982   3.251   7.821   6.181 -1.5843  0.4649 -0.8007
  926MOL0     H24983   3.351   7.901   6.060  1.6477 -0.6818 -1.1581
  926MOL0     H24984   3.187   7.647   6.001 -0.6784  0.5556 -0.7677
  926MOL0     H24985   3.260   7.766   5.889 -0.8973  0.6525 -0.9650
  926MOL0     H24986   3.064   7.835   6.108  1.7010 -0.8339  0.3287
  926MOL0     H24987   3.099   7.932   5.966 -3.0613  1.1906 -0.6253
  926MOL0     H24988   2.935   7.673   5.971 -2.2552  0.4272 -0.9932
  926MOL0     H24989   3.011   7.733   5.821 -3.2172 -0.7305 -1.3452
  926MOL0     H24990   2.815   7.878   5.998  1.1932 -0.4312  0.6742
  926MOL0     H24991   2.768   7.808   5.843  0.1785 -0.3095  0.1050
  926MOL0     H24992   3.867   7.528   6.278 -4.2854  2.8334  0.4276
  926MOL0     H24993   4.047   7.387   6.388 -0.3805 -0.7032 -0.4696
  926MOL0     H24994   4.292   7.375   6.845  3.0819  0.1748 -1.6304
  926MOL0     H24995   4.484   7.258   6.961 -1.1390  0.6498  1.6704
  926MOL0     H24996   4.740   6.599   6.190 -1.7372  0.3808 -1.6880
  926MOL0     H24997   4.520   6.528   6.103  0.6332  1.7636 -1.0686
  926MOL0     H24998   4.154   6.133   6.021  1.6784  2.8731  1.0730
  926MOL0     H24999   3.992   6.045   5.869 -0.6669 -0.9002 -0.9146
  926MOL0     H25000   3.806   6.007   5.685 -3.5768  0.6951 -0.6312
  926MOL0     H25001   3.844   6.167   5.755 -2.4915 -0.3588 -0.2342
  926MOL0     H25002   3.686   6.178   5.582 -0.1672  1.6625  1.0850
  926MOL0     H25003   3.773   6.075   5.474 -1.1221  2.1623 -2.0007
  926MOL0     H25004   3.904   6.252   5.392  0.9633  0.0631  0.6277
  926MOL0     H25005   3.926   6.305   5.555 -1.7580  2.4436  0.9498
  926MOL0     H25006   3.718   6.423   5.554  1.2805  2.3256 -0.8560
  926MOL0     H25007   3.652   6.324   5.421  1.3628 -0.8406 -1.9534
  926MOL0     H25008   3.806   6.655   5.208 -2.6607  1.7262  0.3670
  926MOL0     H25009   4.239   6.151   5.532 -0.7612 -3.1941 -0.1233
  926MOL0     H25010   4.410   6.239   5.675  0.2301  3.0390  3.9705
  927MOL0     O25011   9.043  11.142   3.225 -0.7070 -0.1937  0.1712
  927MOL0     C25012   9.075  11.241   3.154 -0.1344  0.7392 -0.8797
  927MOL0     O25013   8.995  11.340   3.125 -0.5972  0.1539  0.4021
  927MOL0     C25014   8.871  11.339   3.175  0.4422 -0.1877 -0.2338
  927MOL0     C25015   8.839  11.362   3.314 -0.7498  0.1308 -0.1629
  927MOL0     C25016   8.705  11.366   3.357  0.0916  0.6452  0.2874
  927MOL0     C25017   8.602  11.352   3.262  0.5927 -0.6742 -0.2891
  927MOL0     O25018   8.463  11.344   3.293  0.0672 -0.2837 -0.2041
  927MOL0     C25019   8.412  11.326   3.432  0.2193  0.0300  0.2867
  927MOL0     C25020   8.269  11.267   3.439  0.7760  0.4347  0.2686
  927MOL0     C25021   8.182  11.338   3.334  0.4392 -0.7379 -0.2504
  927MOL0     C25022   8.037  11.288   3.354 -0.3742 -0.0824 -0.0978
  927MOL0     C25023   7.939  11.403   3.326 -0.5537  0.7479  0.2022
  927MOL0     C25024   7.785  11.369   3.330 -0.4102  0.3193  0.4721
  927MOL0     C25025   7.702  11.472   3.266  0.6531  0.1681 -0.0532
  927MOL0     C25026   7.552  11.411   3.255 -0.0751  0.4173  0.1991
  927MOL0     N25027   7.469  11.456   3.364 -0.7391 -0.3526  0.4750
  927MOL0     C25028   7.418  11.584   3.369 -0.4803  0.3243 -0.3114
  927MOL0     C25029   7.334  11.576   3.476 -0.3159 -0.2069 -0.9154
  927MOL0     C25030   7.258  11.683   3.550  0.2157 -0.8445 -0.1310
  927MOL0     C25031   7.097  11.645   3.539 -0.3887 -0.2726 -0.0342
  927MOL0     C25032   7.027  11.730   3.634 -0.5355  0.4974 -0.1540
  927MOL0     C25033   6.883  11.674   3.649 -0.3004  0.2944  0.0376
  927MOL0     O25034   6.817  11.656   3.525 -0.6210  0.0669  0.5719
  927MOL0     C25035   6.689  11.600   3.518  0.2856 -0.3234 -0.4154
  927MOL0     C25036   6.618  11.559   3.626  0.4379  1.0363  0.0422
  927MOL0     C25037   6.482  11.520   3.627 -0.1026  0.3663 -0.8519
  927MOL0     C25038   6.418  11.474   3.755  0.5871  0.6361 -0.3683
  927MOL0     C25039   6.421  11.490   3.503  0.6637  0.3541 -0.3126
  927MOL0     C25040   6.277  11.449   3.486 -0.1840 -0.8211  0.0775
  927MOL0     O25041   6.232  11.426   3.361 -0.1359  0.1005 -0.1281
  927MOL0     C25042   6.106  11.371   3.346  0.2017 -0.9531  0.6618
  927MOL0     C25043   5.990  11.444   3.378 -0.9312 -0.0551  0.1835
  927MOL0     C25044   5.866  11.383   3.368 -0.1614 -0.4677  0.2360
  927MOL0     C25045   5.853  11.247   3.331 -0.3631  0.0746  0.0997
  927MOL0     O25046   5.722  11.206   3.329  0.0897 -0.0117  0.2811
  927MOL0     C25047   5.709  11.064   3.360 -1.3873 -0.9358 -0.5194
  927MOL0     C25048   5.562  11.046   3.381  0.4985 -0.4574  0.2029
  927MOL0     C25049   5.531  10.912   3.435 -0.4774  0.1760 -0.3084
  927MOL0     C25050   5.385  10.892   3.482  0.2660 -0.4416 -0.0285
  927MOL0     C25051   5.346  10.956   3.612 -0.1049  0.5854 -0.6097
  927MOL0     C25052   5.419  10.927   3.752 -0.3039  0.1611  0.3575
  927MOL0     C25053   5.360  11.006   3.871 -0.0075 -0.1420 -0.4193
  927MOL0     C25054   5.396  10.950   4.012  0.2239 -0.7780  0.1620
  927MOL0    Cl25055   5.297  11.047   4.128  0.0286 -0.0003 -0.2957
  927MOL0     C25056   5.969  11.170   3.301  0.8389 -0.1701 -0.1916
  927MOL0     C25057   6.089  11.228   3.307 -0.3391 -0.3596 -0.7406
  927MOL0     O25058   6.200  11.444   3.583  0.1022  0.6522  0.5466
  927MOL0     C25059   6.493  11.525   3.388 -0.3838 -0.5027  0.1775
  927MOL0     C25060   6.624  11.575   3.393  0.3522 -0.4891 -0.5927
  927MOL0     N25061   7.343  11.446   3.531 -0.4626 -0.1216 -0.0781
  927MOL0     N25062   7.423  11.371   3.460 -0.9464  0.3927 -0.3048
  927MOL0     C25063   8.635  11.341   3.129 -0.0848  0.3315  0.6663
  927MOL0     C25064   8.764  11.331   3.083 -0.1492 -0.7861 -0.2257
  927MOL0     C25065   9.198  11.225   3.077  0.8922  0.7587 -0.2978
  927MOL0     C25066   9.264  11.100   3.076 -0.2084 -0.2491 -0.5461
  927MOL0     C25067   9.390  11.090   3.033 -0.8068 -0.8072 -0.9664
  927MOL0     C25068   9.460  11.204   2.980 -0.0149  1.0048 -0.9481
  927MOL0     O25069   9.587  11.177   2.950 -0.0006  0.5414  0.1052
  927MOL0     C25070   9.666  11.262   2.869 -0.5611 -0.3957 -0.2180
  927MOL0     C25071   9.820  11.204   2.864  0.3458  0.2218  0.3583
  927MOL0     C25072   9.855  11.130   2.730  0.3742 -0.2483  0.7595
  927MOL0     C25073   9.985  11.050   2.741 -0.1676 -0.0424 -0.6784
  927MOL0     C25074  10.030  10.985   2.618 -0.2857 -0.1296  1.4261
  927MOL0     C25075  10.084  10.944   2.513  0.4697  0.5717  0.2898
  927MOL0     C25076   9.391  11.328   2.977 -0.5998 -0.3715  0.5076
  927MOL0     C25077   9.264  11.337   3.028 -0.4724 -0.4375  0.3443
  927MOL0     H25078   8.926  11.367   3.379 -0.0078  1.6437 -1.2073
  927MOL0     H25079   8.684  11.389   3.461  1.0442  4.2726 -0.1726
  927MOL0     H25080   8.484  11.260   3.480  3.1676  0.8176 -2.6824
  927MOL0     H25081   8.397  11.424   3.478 -2.5668 -0.8608  1.5536
  927MOL0     H25082   8.265  11.163   3.405 -0.3859  0.1429  1.1991
  927MOL0     H25083   8.237  11.280   3.543  2.0383 -0.8801  0.8479
  927MOL0     H25084   8.176  11.446   3.350  1.6368 -1.0400  2.9410
  927MOL0     H25085   8.216  11.327   3.231  2.1239  0.0748  0.1823
  927MOL0     H25086   8.016  11.207   3.283 -0.8404 -0.3585  0.3467
  927MOL0     H25087   8.011  11.256   3.455 -1.1906 -0.5053 -0.4297
  927MOL0     H25088   7.958  11.487   3.393  1.1983 -0.3986  1.2170
  927MOL0     H25089   7.967  11.439   3.227  1.4700  0.1153  0.5038
  927MOL0     H25090   7.777  11.273   3.278 -1.3255  0.6123  0.0514
  927MOL0     H25091   7.744  11.354   3.431 -1.1481 -1.1320 -0.0228
  927MOL0     H25092   7.703  11.563   3.326 -0.8080 -1.1879  2.1658
  927MOL0     H25093   7.744  11.489   3.167  3.0900 -2.6752  0.3619
  927MOL0     H25094   7.559  11.302   3.251 -0.4524  0.4260 -2.5192
  927MOL0     H25095   7.524  11.436   3.152 -1.2051  0.7564  0.5808
  927MOL0     H25096   7.440  11.666   3.302 -1.5831 -0.5979 -1.8760
  927MOL0     H25097   7.276  11.685   3.658 -1.3877  0.6267  0.1437
  927MOL0     H25098   7.277  11.780   3.504  1.6230 -1.5873 -1.1928
  927MOL0     H25099   7.096  11.540   3.569 -0.7801 -0.4633 -0.7153
  927MOL0     H25100   7.071  11.660   3.434  2.3444 -0.8484 -0.8746
  927MOL0     H25101   7.006  11.832   3.599 -4.0434 -0.8198 -2.4845
  927MOL0     H25102   7.074  11.732   3.733 -0.4383 -0.5481 -0.1741
  927MOL0     H25103   6.820  11.732   3.718  1.3113 -0.0152  1.8429
  927MOL0     H25104   6.889  11.579   3.702  1.5313 -0.6657 -1.7595
  927MOL0     H25105   6.660  11.579   3.724 -2.4056 -0.9939  1.8390
  927MOL0     H25106   6.342  11.539   3.799 -1.9447 -2.7474  0.6547
  927MOL0     H25107   6.380  11.371   3.746  0.5000  0.5613  0.7865
  927MOL0     H25108   6.498  11.488   3.827  0.5390 -0.0819 -0.1682
  927MOL0     H25109   5.999  11.548   3.409 -2.4784 -0.4368  2.0731
  927MOL0     H25110   5.775  11.438   3.389  0.8756  0.4842  2.5938
  927MOL0     H25111   5.752  10.992   3.291 -0.7757 -1.7568  0.6873
  927MOL0     H25112   5.750  11.053   3.461  0.0997  0.8215 -0.8663
  927MOL0     H25113   5.536  11.119   3.459 -0.1959 -2.8956  2.4102
  927MOL0     H25114   5.509  11.055   3.286  2.4549  0.1575 -0.8895
  927MOL0     H25115   5.604  10.889   3.512 -1.9341  0.2173  1.1383
  927MOL0     H25116   5.550  10.859   3.341  1.4542 -0.2176  0.2730
  927MOL0     H25117   5.327  10.935   3.400 -1.9134 -1.4463  0.9258
  927MOL0     H25118   5.353  10.787   3.478 -1.7072  0.1519 -0.8766
  927MOL0     H25119   5.243  10.922   3.627  0.2011 -0.5345 -0.9284
  927MOL0     H25120   5.353  11.064   3.599  0.9564  0.4304 -1.4319
  927MOL0     H25121   5.393  10.824   3.777 -1.3837  0.9284  2.6092
  927MOL0     H25122   5.527  10.947   3.743  0.0668 -0.9056  2.0285
  927MOL0     H25123   5.250  11.002   3.876 -0.1149  1.3600 -1.1066
  927MOL0     H25124   5.382  11.112   3.859 -4.8642  1.1405 -0.1969
  927MOL0     H25125   5.502  10.976   4.023  0.4176 -0.8715 -1.2430
  927MOL0     H25126   5.384  10.841   4.013 -0.1592 -0.7389 -0.0886
  927MOL0     H25127   5.966  11.065   3.274  1.8008 -0.7673  1.8267
  927MOL0     H25128   6.177  11.164   3.296  3.2313  3.4422  2.1405
  927MOL0     H25129   6.447  11.521   3.290 -4.3147 -0.8949  1.8252
  927MOL0     H25130   6.669  11.607   3.300  1.9193 -0.5466  0.1127
  927MOL0     H25131   8.565  11.329   3.047  0.6513 -3.5632  0.4254
  927MOL0     H25132   8.783  11.317   2.977  2.3498  3.4748 -0.5852
  927MOL0     H25133   9.235  11.007   3.123  0.5608 -1.0234 -1.5839
  927MOL0     H25134   9.439  10.994   3.045 -0.0282 -0.8717 -3.9773
  927MOL0     H25135   9.627  11.267   2.767 -2.6344  0.6481  0.5445
  927MOL0     H25136   9.662  11.365   2.906  1.8922 -0.6204  0.8180
  927MOL0     H25137   9.817  11.131   2.945  0.2575 -0.9769 -0.7044
  927MOL0     H25138   9.895  11.279   2.888 -0.5647  0.8925  1.1923
  927MOL0     H25139   9.876  11.210   2.657  2.6448 -0.2821  1.2947
  927MOL0     H25140   9.771  11.067   2.700  1.4383 -0.4932 -2.0708
  927MOL0     H25141   9.967  10.968   2.812 -3.2442  0.5783 -0.5869
  927MOL0     H25142  10.067  11.110   2.780 -1.2203  0.8748  0.1974
  927MOL0     H25143  10.118  10.906   2.418  0.7513  0.2098  0.5346
  927MOL0     H25144   9.438  11.420   2.944 -0.6882 -0.5696 -0.1921
  927MOL0     H25145   9.217  11.432   3.052  0.5321 -0.5468  3.0275
  928MOL0     O25146   9.680   0.805   4.467 -0.8105 -0.2804 -0.6250
  928MOL0     C25147   9.750   0.900   4.504  0.1171 -0.4280  0.2353
  928MOL0     O25148   9.711   1.029   4.518 -0.2829  0.1991 -0.1692
  928MOL0     C25149   9.590   1.055   4.474  0.1119  0.0513  0.1110
  928MOL0     C25150   9.483   1.057   4.574 -0.3014  0.1290 -0.6381
  928MOL0     C25151   9.348   1.087   4.539 -0.2365 -0.9643  0.2477
  928MOL0     C25152   9.320   1.122   4.409 -0.0192  0.2264 -0.1907
  928MOL0     O25153   9.193   1.136   4.377 -0.0569 -0.5921 -0.2512
  928MOL0     C25154   9.122   1.025   4.312  0.3028  0.5153  0.3807
  928MOL0     C25155   8.971   1.037   4.308 -0.5640 -1.2428  0.0433
  928MOL0     C25156   8.906   1.064   4.450  0.2839 -0.3044  0.1572
  928MOL0     C25157   8.754   1.088   4.426  0.1772 -0.5910 -0.9515
  928MOL0     C25158   8.682   1.106   4.561 -0.0582  0.8968  0.8206
  928MOL0     C25159   8.526   1.122   4.559  0.5273  0.2929 -0.9123
  928MOL0     C25160   8.470   1.254   4.506 -0.8379  0.3036 -0.3134
  928MOL0     C25161   8.344   1.230   4.436 -1.3057 -0.0583 -0.4209
  928MOL0     N25162   8.363   1.179   4.299  0.2514 -0.2907 -0.8511
  928MOL0     C25163   8.351   1.251   4.190 -0.6822  0.0480 -0.1590
  928MOL0     C25164   8.355   1.163   4.091  0.2814  0.3008  0.4812
  928MOL0     C25165   8.333   1.209   3.947 -0.2525 -0.2799  0.4761
  928MOL0     C25166   8.320   1.360   3.909  0.5585  0.0628 -0.2078
  928MOL0     C25167   8.282   1.390   3.758 -1.0702  0.2652 -0.3229
  928MOL0     C25168   8.136   1.362   3.711 -0.1941 -0.1181  0.3515
  928MOL0     O25169   8.041   1.380   3.823 -0.1304 -0.4481 -0.1310
  928MOL0     C25170   7.907   1.387   3.802  0.0308  0.8570  0.4166
  928MOL0     C25171   7.850   1.304   3.698 -0.2123 -0.1647 -0.1301
  928MOL0     C25172   7.715   1.281   3.668  0.5751  0.1396  0.3290
  928MOL0     C25173   7.683   1.166   3.569 -0.3576 -0.7843 -0.0130
  928MOL0     C25174   7.623   1.354   3.748 -0.0505 -0.6632 -0.2165
  928MOL0     C25175   7.476   1.344   3.733 -0.3166 -0.2703 -0.0518
  928MOL0     O25176   7.433   1.279   3.622  0.3877  0.3375 -0.6636
  928MOL0     C25177   7.306   1.239   3.620 -0.3784  0.3003  0.1315
  928MOL0     C25178   7.244   1.160   3.720 -0.2219 -0.1895 -0.4232
  928MOL0     C25179   7.110   1.136   3.709  0.5322  0.3916 -0.2876
  928MOL0     C25180   7.024   1.189   3.610 -0.4773  0.5738 -0.2906
  928MOL0     O25181   6.890   1.166   3.616  0.2575  0.2329 -0.5107
  928MOL0     C25182   6.811   1.240   3.524 -0.4858 -0.1915 -0.4816
  928MOL0     C25183   6.673   1.189   3.506 -0.2324 -0.0041  0.2338
  928MOL0     C25184   6.587   1.205   3.632  0.6951  0.4666  0.2261
  928MOL0     C25185   6.449   1.122   3.626 -0.4174 -0.3157  0.0919
  928MOL0     C25186   6.374   1.099   3.752  0.5722 -0.3798  0.4161
  928MOL0     C25187   6.245   1.027   3.716 -0.3784  0.0749 -0.3113
  928MOL0     C25188   6.131   1.055   3.821 -0.5219 -0.4390  0.8175
  928MOL0     C25189   5.998   1.012   3.775  0.5129  0.3447 -0.2636
  928MOL0    Cl25190   5.888   1.003   3.915  0.0518 -0.2287  0.4562
  928MOL0     C25191   7.092   1.275   3.523 -1.0730 -0.1506  1.1205
  928MOL0     C25192   7.231   1.300   3.529 -0.1905 -0.5655  0.0613
  928MOL0     O25193   7.404   1.395   3.821  0.1101 -0.4461 -0.6274
  928MOL0     C25194   7.675   1.440   3.851  0.0823  0.0115  0.1206
  928MOL0     C25195   7.816   1.460   3.877  0.9814 -0.1098  0.6962
  928MOL0     N25196   8.375   1.038   4.142  0.0302 -0.6297 -0.0222
  928MOL0     N25197   8.370   1.047   4.261 -0.0217 -0.5374 -0.2643
  928MOL0     C25198   9.420   1.132   4.311 -0.3115  0.7188  0.2450
  928MOL0     C25199   9.556   1.105   4.342  0.1466  0.4122 -0.8639
  928MOL0     C25200   9.891   0.872   4.542 -0.4557  0.5570 -0.0010
  928MOL0     C25201   9.951   0.744   4.525  0.0829  1.3318 -0.0476
  928MOL0     C25202  10.081   0.720   4.554 -0.5101  1.1214 -0.2426
  928MOL0     C25203  10.159   0.823   4.606 -0.7701  0.3667  0.3661
  928MOL0     O25204  10.285   0.807   4.657  0.2785 -0.0431  0.7539
  928MOL0     C25205  10.336   0.675   4.674 -0.5040 -0.3694  0.4581
  928MOL0     C25206  10.462   0.658   4.760  0.4330 -0.3296  0.2744
  928MOL0     C25207  10.436   0.701   4.898 -0.4540  0.2129 -0.1572
  928MOL0     C25208  10.561   0.679   4.987  0.2069  0.6125  0.4724
  928MOL0     C25209  10.675   0.744   4.936 -0.3299 -0.4910  0.4361
  928MOL0     C25210  10.769   0.805   4.907 -1.1127 -0.9762 -0.5948
  928MOL0     C25211  10.103   0.948   4.614  0.5623  0.7583  0.5285
  928MOL0     C25212   9.974   0.973   4.587 -0.1271  0.2948  0.3310
  928MOL0     H25213   9.506   1.021   4.674 -3.5638  1.6873  0.8201
  928MOL0     H25214   9.273   1.073   4.616 -1.5072  1.7823 -0.3524
  928MOL0     H25215   9.148   1.011   4.206 -1.1505 -2.0918  0.2810
  928MOL0     H25216   9.148   0.935   4.368 -3.1630  0.9411  2.9683
  928MOL0     H25217   8.949   1.111   4.230 -2.4100 -3.1798 -1.4267
  928MOL0     H25218   8.934   0.943   4.264  2.4232 -0.8242 -3.8834
  928MOL0     H25219   8.913   0.974   4.512  0.8169 -1.2557 -1.2126
  928MOL0     H25220   8.962   1.144   4.499 -0.3205 -0.2651  0.7970
  928MOL0     H25221   8.732   1.175   4.363 -1.9304  0.3271  0.9453
  928MOL0     H25222   8.709   1.004   4.373 -2.0409  0.5655 -1.0045
  928MOL0     H25223   8.708   1.016   4.617  3.0469 -0.6129 -2.6193
  928MOL0     H25224   8.716   1.191   4.621 -0.8834 -1.1889  4.4766
  928MOL0     H25225   8.501   1.039   4.493 -0.1487 -0.8421  0.6872
  928MOL0     H25226   8.492   1.105   4.662 -0.7846 -3.7320 -1.8030
  928MOL0     H25227   8.460   1.326   4.587  0.6686  2.2900 -1.7819
  928MOL0     H25228   8.526   1.297   4.422 -3.3787  1.6822 -1.4132
  928MOL0     H25229   8.297   1.329   4.433 -0.7223  0.3945  2.4452
  928MOL0     H25230   8.286   1.160   4.497 -0.9606 -0.3977 -0.4787
  928MOL0     H25231   8.331   1.357   4.182  1.1961  0.6147  1.8808
  928MOL0     H25232   8.421   1.179   3.888 -1.3021 -0.6941 -0.9364
  928MOL0     H25233   8.247   1.161   3.899  0.9271 -2.0544  0.0361
  928MOL0     H25234   8.419   1.404   3.926  0.3217 -0.0972  1.8615
  928MOL0     H25235   8.250   1.410   3.976 -0.3200 -0.0391 -1.0235
  928MOL0     H25236   8.356   1.333   3.701  0.6201  2.0243  0.0179
  928MOL0     H25237   8.300   1.495   3.731  4.0529 -0.3131 -0.0823
  928MOL0     H25238   8.127   1.260   3.672 -1.3033 -0.0812  0.4687
  928MOL0     H25239   8.102   1.435   3.637 -2.8452  1.2085  2.6719
  928MOL0     H25240   7.912   1.250   3.628  0.2451  2.3502 -1.8218
  928MOL0     H25241   7.623   1.204   3.485  2.9129 -0.3531 -2.3752
  928MOL0     H25242   7.775   1.120   3.530 -0.5626 -0.9367 -0.3237
  928MOL0     H25243   7.627   1.087   3.619  0.1593 -0.8719  0.4418
  928MOL0     H25244   7.306   1.125   3.802  0.4348 -0.0645 -0.8537
  928MOL0     H25245   7.075   1.066   3.785  0.6565  0.3324 -0.2838
  928MOL0     H25246   6.813   1.343   3.560 -2.9373 -0.4483  0.5860
  928MOL0     H25247   6.845   1.239   3.420 -2.6574  0.4353 -1.2558
  928MOL0     H25248   6.629   1.243   3.421 -1.1992 -0.0545  0.6862
  928MOL0     H25249   6.677   1.086   3.468  0.4264 -0.1125  0.5914
  928MOL0     H25250   6.557   1.310   3.642 -2.1954 -0.1030 -1.3641
  928MOL0     H25251   6.643   1.163   3.716 -1.1778 -2.7068  0.0195
  928MOL0     H25252   6.383   1.171   3.553 -0.3010  2.1763  1.5165
  928MOL0     H25253   6.472   1.028   3.577  0.0144 -1.3063  2.0807
  928MOL0     H25254   6.348   1.189   3.808  3.0458 -0.6022  2.0789
  928MOL0     H25255   6.429   1.031   3.817 -0.7291  0.5638  2.6050
  928MOL0     H25256   6.212   1.049   3.614  0.4967 -1.2222 -0.8949
  928MOL0     H25257   6.252   0.918   3.713  3.4680  0.1307  0.8750
  928MOL0     H25258   6.126   1.162   3.840  0.5080 -0.3718  0.7685
  928MOL0     H25259   6.159   1.004   3.914  1.4275 -0.4274  0.2754
  928MOL0     H25260   6.012   0.911   3.735  1.0513 -1.6960  4.3941
  928MOL0     H25261   5.974   1.087   3.699  2.5161 -0.2123 -1.5182
  928MOL0     H25262   7.042   1.314   3.435  2.5470 -0.2544 -1.1856
  928MOL0     H25263   7.275   1.378   3.467 -3.0106  2.8858  2.0002
  928MOL0     H25264   7.602   1.493   3.910 -0.0026 -1.4604  1.4022
  928MOL0     H25265   7.845   1.522   3.961  1.5459 -2.3223  2.2319
  928MOL0     H25266   9.403   1.150   4.205  0.0638 -0.7543 -0.0915
  928MOL0     H25267   9.640   1.132   4.279  0.5849  2.5983  0.5628
  928MOL0     H25268   9.887   0.666   4.483 -0.1242  0.7682  1.2700
  928MOL0     H25269  10.109   0.616   4.541 -2.7345 -0.0554  2.9229
  928MOL0     H25270  10.259   0.618   4.726 -4.2781  4.0800  0.4001
  928MOL0     H25271  10.351   0.630   4.575  0.9195  1.4022 -0.1957
  928MOL0     H25272  10.545   0.708   4.710  0.4593  0.9014  1.5001
  928MOL0     H25273  10.483   0.552   4.772  0.4041 -0.3491  0.1558
  928MOL0     H25274  10.352   0.650   4.945 -0.0056  1.4850  2.2009
  928MOL0     H25275  10.407   0.807   4.897  3.6066  1.5094 -0.9552
  928MOL0     H25276  10.590   0.573   4.992  0.9304  0.8431  1.2867
  928MOL0     H25277  10.544   0.718   5.087  2.5357 -1.7172  1.9141
  928MOL0     H25278  10.846   0.864   4.862  0.4546 -0.7345  2.1821
  928MOL0     H25279  10.179   1.019   4.645 -1.5825  2.7594  1.5250
  928MOL0     H25280   9.929   1.072   4.588 -4.3784 -1.3763 -2.2670
  929MOL0     O25281   7.015   6.238   7.668 -0.0798 -0.1360  0.0685
  929MOL0     C25282   7.082   6.135   7.653 -0.2128  0.4744 -0.0618
  929MOL0     O25283   7.216   6.124   7.628  0.1171  0.7402 -0.0390
  929MOL0     C25284   7.294   6.233   7.589 -0.3866  0.4374  0.1621
  929MOL0     C25285   7.239   6.358   7.538 -0.1392 -0.2004 -0.6198
  929MOL0     C25286   7.326   6.451   7.501  1.7229 -0.7253 -0.2082
  929MOL0     C25287   7.461   6.439   7.493  0.1862  0.4141  0.1049
  929MOL0     O25288   7.529   6.553   7.460  0.0438  0.3416  0.0955
  929MOL0     C25289   7.627   6.597   7.553 -0.2686 -0.4060 -0.1151
  929MOL0     C25290   7.695   6.725   7.502 -0.7018 -0.1833  0.1202
  929MOL0     C25291   7.616   6.851   7.457  0.3596  0.5180 -0.5876
  929MOL0     C25292   7.594   6.954   7.567 -0.2416 -0.1621 -0.0662
  929MOL0     C25293   7.489   7.051   7.509  0.2616  0.5719  0.1207
  929MOL0     C25294   7.432   7.130   7.627 -0.0093 -0.0304 -0.0721
  929MOL0     C25295   7.313   7.220   7.581 -0.0095 -0.3165  0.3304
  929MOL0     C25296   7.247   7.292   7.695 -0.1055 -0.2831 -0.0551
  929MOL0     N25297   7.176   7.207   7.787  0.5274  0.6414  0.1660
  929MOL0     C25298   7.037   7.178   7.780 -0.6677 -0.1965 -0.1807
  929MOL0     C25299   7.013   7.099   7.885 -0.2492  0.5546  0.4728
  929MOL0     C25300   6.886   7.034   7.933  0.4138 -0.0191  0.2159
  929MOL0     C25301   6.777   7.028   7.825 -1.3213  0.6051  0.1742
  929MOL0     C25302   6.653   6.948   7.869  0.0274  0.3667  0.1512
  929MOL0     C25303   6.588   6.999   8.001  0.1841  0.1646  0.2000
  929MOL0     O25304   6.462   6.933   8.025 -0.4230 -0.3076  0.3105
  929MOL0     C25305   6.351   7.009   8.049  0.1217  0.4899 -0.1249
  929MOL0     C25306   6.331   7.079   8.166  0.1423 -0.7622  0.3808
  929MOL0     C25307   6.219   7.158   8.186  1.7278  0.4404  0.8458
  929MOL0     C25308   6.207   7.220   8.322  0.1930 -0.1557  0.0036
  929MOL0     C25309   6.119   7.161   8.088 -0.0651 -0.9595  0.1934
  929MOL0     C25310   5.993   7.244   8.091 -0.1573 -0.4092 -0.7643
  929MOL0     O25311   5.897   7.220   7.999 -0.0940  0.7990 -0.2491
  929MOL0     C25312   5.784   7.300   7.983 -0.1468 -0.7603  0.5049
  929MOL0     C25313   5.662   7.240   7.957 -0.6782  0.4696  0.0107
  929MOL0     C25314   5.553   7.318   7.935 -0.6186 -0.3388  0.2803
  929MOL0     C25315   5.561   7.460   7.927 -0.1966  0.3805  0.3210
  929MOL0     O25316   5.447   7.523   7.883  0.6983 -0.5263  0.6538
  929MOL0     C25317   5.428   7.665   7.896 -0.7686  0.4254  0.3895
  929MOL0     C25318   5.356   7.689   8.030 -0.4725 -0.8407  0.3071
  929MOL0     C25319   5.225   7.612   8.045  0.1989 -0.3762  0.5858
  929MOL0     C25320   5.135   7.670   8.164  0.2025  0.3073 -0.7193
  929MOL0     C25321   4.982   7.633   8.182 -0.0004  0.1924  0.3154
  929MOL0     C25322   4.904   7.632   8.048  0.0332  0.2076  0.2067
  929MOL0     C25323   4.749   7.628   8.066 -0.2080 -0.1050 -0.3581
  929MOL0     C25324   4.662   7.650   7.942  0.2870  0.1310 -0.2502
  929MOL0    Cl25325   4.709   7.527   7.812  0.4416 -0.0243 -0.2377
  929MOL0     C25326   5.679   7.519   7.970 -0.5111 -0.3177  0.6268
  929MOL0     C25327   5.789   7.437   8.000 -0.0196  0.2133 -0.2382
  929MOL0     O25328   5.978   7.326   8.182 -0.0335 -0.3257  0.2233
  929MOL0     C25329   6.138   7.085   7.975 -0.2438  0.3626 -0.1367
  929MOL0     C25330   6.254   7.017   7.951 -0.7240 -0.1570  0.6422
  929MOL0     N25331   7.128   7.090   7.972  0.0432 -0.4170  0.6091
  929MOL0     N25332   7.214   7.160   7.907  0.1763  0.0977 -0.3177
  929MOL0     C25333   7.514   6.326   7.539  0.3149  0.2278 -0.0800
  929MOL0     C25334   7.437   6.217   7.577 -0.0936 -0.5322 -0.2017
  929MOL0     C25335   7.007   6.008   7.673  0.4679 -0.2814 -0.0117
  929MOL0     C25336   6.869   6.012   7.700 -0.1295 -0.6998  0.5029
  929MOL0     C25337   6.799   5.893   7.680  0.3516 -0.1365 -0.3644
  929MOL0     C25338   6.859   5.767   7.667 -0.0502  0.6047  0.5828
  929MOL0     O25339   6.787   5.649   7.665  0.2170  0.9567 -0.5604
  929MOL0     C25340   6.646   5.651   7.661  0.1505  0.2925  0.6233
  929MOL0     C25341   6.584   5.667   7.798 -0.7552 -0.6713  0.6066
  929MOL0     C25342   6.431   5.657   7.796  0.6052 -0.6486  0.4643
  929MOL0     C25343   6.373   5.629   7.934  0.2591  1.0061 -0.4783
  929MOL0     C25344   6.235   5.584   7.940  0.4181 -0.0082  1.2232
  929MOL0     C25345   6.125   5.533   7.938 -0.4271 -0.3172  0.0639
  929MOL0     C25346   6.992   5.764   7.649  0.1802 -0.3286  0.4991
  929MOL0     C25347   7.065   5.883   7.646  0.3075  0.0265 -0.0940
  929MOL0     H25348   7.133   6.384   7.533 -0.8111 -2.0039  2.1137
  929MOL0     H25349   7.290   6.546   7.463 -0.2222 -1.3857 -0.1107
  929MOL0     H25350   7.582   6.630   7.647 -1.3759  1.0207 -1.1045
  929MOL0     H25351   7.701   6.517   7.566 -1.2271 -1.4714 -0.9941
  929MOL0     H25352   7.761   6.760   7.583  0.4900 -0.0615 -0.8765
  929MOL0     H25353   7.764   6.689   7.425 -2.4911  1.5776 -2.4659
  929MOL0     H25354   7.672   6.888   7.370  1.6144 -0.1564 -0.0821
  929MOL0     H25355   7.524   6.822   7.406 -1.5965  1.8833  1.9671
  929MOL0     H25356   7.542   6.916   7.656 -1.3548  0.1538 -0.5665
  929MOL0     H25357   7.676   7.020   7.597 -1.9363  2.7964 -1.5317
  929MOL0     H25358   7.519   7.115   7.426 -2.1366 -1.7505 -2.7922
  929MOL0     H25359   7.398   6.997   7.482  2.0305 -2.0261 -1.0433
  929MOL0     H25360   7.399   7.067   7.710 -0.0465  1.2233  0.8883
  929MOL0     H25361   7.517   7.181   7.674  0.6241 -2.3888  1.5575
  929MOL0     H25362   7.349   7.297   7.512  0.6639  0.2085  1.2515
  929MOL0     H25363   7.238   7.160   7.529 -0.4173 -3.0557  3.7146
  929MOL0     H25364   7.165   7.355   7.659  0.1306  1.3806  2.0701
  929MOL0     H25365   7.326   7.348   7.747 -0.7861 -1.1416  2.0045
  929MOL0     H25366   6.973   7.224   7.705 -1.3586  0.3264  0.7055
  929MOL0     H25367   6.892   6.927   7.953  2.4121 -0.1582 -0.8304
  929MOL0     H25368   6.858   7.093   8.021  1.5672  2.1713 -0.7968
  929MOL0     H25369   6.820   6.974   7.740 -1.5755  0.5377  0.0874
  929MOL0     H25370   6.746   7.132   7.806 -2.7692  0.0171 -0.9014
  929MOL0     H25371   6.686   6.845   7.884 -1.4607  0.0545  1.5181
  929MOL0     H25372   6.570   6.934   7.799 -0.4482 -0.9472  0.9531
  929MOL0     H25373   6.571   7.107   8.006  1.0429  0.4004 -1.4591
  929MOL0     H25374   6.657   6.977   8.083 -1.3534  1.0928  1.8126
  929MOL0     H25375   6.409   7.066   8.241 -0.4070 -1.2998  0.8689
  929MOL0     H25376   6.218   7.329   8.319 -1.7397  0.0528 -2.3353
  929MOL0     H25377   6.107   7.194   8.357  0.0494 -1.3650 -1.1954
  929MOL0     H25378   6.279   7.168   8.385  0.3741 -0.6354 -0.5935
  929MOL0     H25379   5.649   7.134   7.938 -0.9837  0.4016  0.5681
  929MOL0     H25380   5.459   7.281   7.893  0.1063 -1.8450 -0.0813
  929MOL0     H25381   5.519   7.723   7.878 -1.6077  2.1446  1.4436
  929MOL0     H25382   5.371   7.697   7.808  0.5617  2.1729  0.1173
  929MOL0     H25383   5.427   7.655   8.107 -1.3923 -2.9645  0.2930
  929MOL0     H25384   5.347   7.798   8.036  0.2878 -0.7823  0.5676
  929MOL0     H25385   5.246   7.505   8.052 -2.0343 -1.3227 -3.6621
  929MOL0     H25386   5.168   7.630   7.953 -1.7701 -0.9737  1.6167
  929MOL0     H25387   5.184   7.651   8.260 -2.1416  2.1654  0.9580
  929MOL0     H25388   5.142   7.779   8.155 -0.7086  0.2534 -2.4693
  929MOL0     H25389   4.948   7.707   8.256  2.9772  3.1359 -0.9861
  929MOL0     H25390   4.984   7.537   8.233  1.5543  1.3232  2.5559
  929MOL0     H25391   4.937   7.719   7.989  1.6381 -0.7304 -0.3544
  929MOL0     H25392   4.944   7.546   7.993  1.2470  0.2623  0.9712
  929MOL0     H25393   4.726   7.693   8.150  3.7910  1.2168 -0.0566
  929MOL0     H25394   4.738   7.522   8.091  1.9643 -0.4889 -0.8663
  929MOL0     H25395   4.675   7.754   7.912  1.8957  0.9094  2.7511
  929MOL0     H25396   4.556   7.636   7.966  0.2818 -1.5539 -1.1721
  929MOL0     H25397   5.696   7.626   7.963  1.7606 -0.7538 -1.7272
  929MOL0     H25398   5.886   7.482   8.018 -0.9336  2.0779  0.2164
  929MOL0     H25399   6.059   7.076   7.902  0.6143  1.2634 -1.2320
  929MOL0     H25400   6.266   6.954   7.863 -2.5678 -2.5553  1.9759
  929MOL0     H25401   7.622   6.324   7.537  0.3085 -1.4750  0.0267
  929MOL0     H25402   7.498   6.130   7.597  1.4814  0.3600 -0.9243
  929MOL0     H25403   6.819   6.108   7.710 -0.0671 -0.5448 -0.5844
  929MOL0     H25404   6.695   5.906   7.706  1.3956  2.3861  3.4873
  929MOL0     H25405   6.607   5.730   7.596  0.1004  0.6117  1.0373
  929MOL0     H25406   6.615   5.563   7.604 -1.9012  0.6070  1.1498
  929MOL0     H25407   6.623   5.757   7.847  1.4327 -2.6413  2.7596
  929MOL0     H25408   6.620   5.578   7.850 -0.5419  1.0558  3.6270
  929MOL0     H25409   6.407   5.575   7.727  1.4242  0.3798 -1.1017
  929MOL0     H25410   6.377   5.740   7.751 -1.8493 -1.2763  2.0928
  929MOL0     H25411   6.377   5.721   7.993  4.0605  0.1462  0.9159
  929MOL0     H25412   6.430   5.551   7.987 -2.3549 -0.2151  0.7311
  929MOL0     H25413   6.030   5.484   7.924  0.6012 -2.2522 -0.4343
  929MOL0     H25414   7.034   5.664   7.639 -0.3673 -0.4955 -0.2193
  929MOL0     H25415   7.172   5.875   7.627  0.5876 -1.4602  1.7988
  930MOL0     O25416   0.523   8.642   9.212 -0.7910 -0.2502 -0.0904
  930MOL0     C25417   0.578   8.647   9.103  0.3800 -0.1517  0.3635
  930MOL0     O25418   0.528   8.708   8.984  0.1215  0.2221 -0.2851
  930MOL0     C25419   0.407   8.766   8.978  0.3358 -0.0566  0.1251
  930MOL0     C25420   0.404   8.881   8.908  0.6395 -0.7832  0.4590
  930MOL0     C25421   0.284   8.952   8.891 -0.5230  0.5234 -0.4142
  930MOL0     C25422   0.174   8.908   8.963 -0.1754 -0.2763  0.3411
  930MOL0     O25423   0.060   8.988   8.982  0.2509  0.4412  0.3577
  930MOL0     C25424   0.062   9.118   9.041  0.5951  1.2657  0.8540
  930MOL0     C25425   0.049   9.222   8.925  0.3487  0.0731 -0.8076
  930MOL0     C25426  -0.093   9.251   8.889 -0.1935 -0.6369 -0.7752
  930MOL0     C25427  -0.105   9.388   8.821 -0.6128  0.3004 -0.4585
  930MOL0     C25428  -0.251   9.428   8.806 -0.2291  0.3998 -0.6114
  930MOL0     C25429  -0.328   9.337   8.715  0.6627 -0.6421  0.1056
  930MOL0     C25430  -0.441   9.408   8.644 -0.5380  0.8028  0.1688
  930MOL0     C25431  -0.547   9.462   8.745  0.3604 -0.3633 -0.0684
  930MOL0     N25432  -0.687   9.471   8.693  0.2434 -0.9508  0.5935
  930MOL0     C25433  -0.715   9.563   8.593 -0.2199 -0.1283 -0.5041
  930MOL0     C25434  -0.847   9.571   8.575 -0.0680  0.7283 -0.6408
  930MOL0     C25435  -0.917   9.656   8.473 -0.1547  0.2250  0.3437
  930MOL0     C25436  -1.017   9.582   8.387  0.5507  0.1363  0.5345
  930MOL0     C25437  -1.138   9.527   8.459  0.1171  0.1103  0.3645
  930MOL0     C25438  -1.241   9.495   8.354  0.2716 -0.3202 -0.6395
  930MOL0     O25439  -1.354   9.462   8.430 -0.2210  0.7039 -0.3721
  930MOL0     C25440  -1.477   9.441   8.379 -0.2659  0.2949  0.9870
  930MOL0     C25441  -1.585   9.460   8.468 -0.1133  0.3698  0.0326
  930MOL0     C25442  -1.713   9.416   8.444  0.0057 -0.8386  0.4390
  930MOL0     C25443  -1.809   9.455   8.558 -0.3152  0.2108  0.1197
  930MOL0     C25444  -1.737   9.358   8.322  0.7742  0.2081 -0.6637
  930MOL0     C25445  -1.876   9.310   8.269  0.4979  0.3293 -0.8067
  930MOL0     O25446  -1.893   9.233   8.152  0.1776 -0.0460  0.2376
  930MOL0     C25447  -2.025   9.215   8.118  0.3856  0.1101  0.2626
  930MOL0     C25448  -2.069   9.276   7.997  0.6645 -0.6353  0.4510
  930MOL0     C25449  -2.207   9.276   7.966 -0.2813 -0.4673  0.1425
  930MOL0     C25450  -2.298   9.214   8.045  0.1369  0.7932  0.1625
  930MOL0     O25451  -2.422   9.205   7.997 -0.0640  0.0414  0.7294
  930MOL0     C25452  -2.525   9.215   8.101 -0.3732  0.3692  0.4743
  930MOL0     C25453  -2.648   9.296   8.051  0.4224  1.4700 -0.0709
  930MOL0     C25454  -2.779   9.274   8.139  0.4851 -0.1031 -0.0081
  930MOL0     C25455  -2.889   9.339   8.060 -0.1146 -0.1574  0.5331
  930MOL0     C25456  -3.014   9.354   8.142 -0.1699  0.6609  0.0545
  930MOL0     C25457  -3.006   9.457   8.255 -0.6535  0.2648  0.7266
  930MOL0     C25458  -3.146   9.488   8.305  0.4986  0.4258  0.4647
  930MOL0     C25459  -3.209   9.364   8.379 -0.8818  0.1254  0.2445
  930MOL0    Cl25460  -3.377   9.404   8.407  0.0463  0.2631 -0.0518
  930MOL0     C25461  -2.255   9.146   8.164 -0.0360 -1.5824  0.6180
  930MOL0     C25462  -2.115   9.147   8.201 -0.2731 -0.5963 -0.1815
  930MOL0     O25463  -1.968   9.355   8.335  0.8630  0.3154  0.5141
  930MOL0     C25464  -1.637   9.356   8.223  0.5308  0.6199 -0.6790
  930MOL0     C25465  -1.505   9.384   8.253  0.0679 -0.0549  0.0040
  930MOL0     N25466  -0.898   9.479   8.672 -0.4252  0.1474  0.3726
  930MOL0     N25467  -0.800   9.441   8.748  0.3498  0.1195 -0.0537
  930MOL0     C25468   0.180   8.781   9.022  0.3480 -0.3751 -0.3880
  930MOL0     C25469   0.293   8.704   9.030 -0.6300  0.0951 -0.3677
  930MOL0     C25470   0.711   8.590   9.107 -0.9978 -0.4218  0.3050
  930MOL0     C25471   0.779   8.544   9.225  0.7708 -0.4795  0.0721
  930MOL0     C25472   0.916   8.507   9.219  0.0917 -0.4296  0.2244
  930MOL0     C25473   0.991   8.500   9.099  0.5588  0.1494  0.1053
  930MOL0     O25474   1.119   8.462   9.105 -0.4165  0.2679  0.9334
  930MOL0     C25475   1.184   8.423   8.984  0.1990 -0.0052 -0.4819
  930MOL0     C25476   1.331   8.392   9.008  0.3105  0.8040 -0.3968
  930MOL0     C25477   1.396   8.347   8.879  0.2888  1.0287  0.1178
  930MOL0     C25478   1.551   8.325   8.900  0.2668  0.2555  0.2113
  930MOL0     C25479   1.603   8.260   8.773 -0.9151 -0.9519  0.1704
  930MOL0     C25480   1.630   8.212   8.668 -0.8361 -0.2769  0.4264
  930MOL0     C25481   0.924   8.530   8.989  0.4031  0.0685 -0.5110
  930MOL0     C25482   0.792   8.583   8.985  0.8092  0.5508 -0.2617
  930MOL0     H25483   0.493   8.916   8.858  0.7065 -2.8101 -0.9617
  930MOL0     H25484   0.285   9.048   8.839 -2.2583 -0.4627 -2.3933
  930MOL0     H25485  -0.011   9.136   9.120  0.1093  3.9039 -0.0816
  930MOL0     H25486   0.163   9.133   9.080  0.5011 -2.2825  2.8887
  930MOL0     H25487   0.094   9.316   8.955  1.1606  0.1659 -2.2376
  930MOL0     H25488   0.096   9.178   8.836 -0.4733 -0.0783 -1.1716
  930MOL0     H25489  -0.126   9.175   8.817 -0.0897  0.1744 -1.6990
  930MOL0     H25490  -0.159   9.235   8.975  0.9687 -2.5563 -0.1805
  930MOL0     H25491  -0.051   9.463   8.879  0.0407 -0.9549  0.6062
  930MOL0     H25492  -0.067   9.389   8.718 -4.5173 -1.4545 -2.1226
  930MOL0     H25493  -0.300   9.418   8.904 -2.0805 -1.8899 -1.6931
  930MOL0     H25494  -0.270   9.532   8.776 -2.2973  0.1518 -0.3025
  930MOL0     H25495  -0.255   9.321   8.635 -0.6940  2.2512 -1.8561
  930MOL0     H25496  -0.348   9.237   8.754 -1.2477 -0.7452 -1.0135
  930MOL0     H25497  -0.394   9.499   8.604  3.1500 -0.1609  1.8845
  930MOL0     H25498  -0.491   9.348   8.567 -0.1166  0.2674  0.3101
  930MOL0     H25499  -0.511   9.561   8.774  1.3688 -0.3583 -1.2630
  930MOL0     H25500  -0.551   9.394   8.830 -1.6241 -0.8092 -0.4711
  930MOL0     H25501  -0.643   9.612   8.529 -0.2073 -2.0419 -2.0416
  930MOL0     H25502  -0.974   9.725   8.535 -2.0686 -0.2830 -0.7703
  930MOL0     H25503  -0.844   9.709   8.411  2.5061 -2.6012  0.8110
  930MOL0     H25504  -0.965   9.504   8.331  0.6819  0.3867  0.2996
  930MOL0     H25505  -1.053   9.649   8.308  0.9389  0.6185  0.7548
  930MOL0     H25506  -1.180   9.596   8.532 -1.8024 -1.2596  0.6276
  930MOL0     H25507  -1.103   9.435   8.508  0.3133  0.0084  0.0405
  930MOL0     H25508  -1.203   9.407   8.301 -0.3879 -0.5795 -0.6942
  930MOL0     H25509  -1.262   9.581   8.289 -1.6027  1.3051  1.9178
  930MOL0     H25510  -1.559   9.495   8.567 -2.2087  0.1406  0.7023
  930MOL0     H25511  -1.889   9.381   8.564 -0.6467  0.6990  2.2005
  930MOL0     H25512  -1.750   9.453   8.650  0.1805  0.9363 -0.1699
  930MOL0     H25513  -1.860   9.549   8.539 -1.1335  0.3022  2.4420
  930MOL0     H25514  -2.002   9.314   7.922  0.1394  1.9837  1.2168
  930MOL0     H25515  -2.236   9.339   7.882  1.5543  2.4448  1.5661
  930MOL0     H25516  -2.567   9.122   8.140 -1.4289  1.4040  1.9464
  930MOL0     H25517  -2.492   9.274   8.188  0.6110 -0.7645  0.8859
  930MOL0     H25518  -2.629   9.403   8.034  0.8469  1.5532  0.8601
  930MOL0     H25519  -2.676   9.259   7.952  0.2202  1.6000 -0.0639
  930MOL0     H25520  -2.752   9.315   8.237 -0.1106  0.4673 -0.0724
  930MOL0     H25521  -2.801   9.167   8.140  0.1551 -0.0359  0.9841
  930MOL0     H25522  -2.861   9.442   8.034 -1.0990 -0.2552 -1.0300
  930MOL0     H25523  -2.907   9.284   7.967 -1.2238  0.6791  0.2350
  930MOL0     H25524  -3.058   9.257   8.166  1.0187 -0.1340 -0.8513
  930MOL0     H25525  -3.081   9.402   8.070  0.9606 -0.8342 -2.1061
  930MOL0     H25526  -2.952   9.424   8.344  0.3140 -1.7522 -0.5357
  930MOL0     H25527  -2.961   9.550   8.218 -0.7227 -1.2266 -3.6572
  930MOL0     H25528  -3.217   9.529   8.233 -3.8094  0.2507  4.1234
  930MOL0     H25529  -3.130   9.561   8.386 -0.6389  0.5588  0.5777
  930MOL0     H25530  -3.144   9.333   8.461  0.0991 -0.1865 -0.6253
  930MOL0     H25531  -3.201   9.275   8.317  1.5175 -0.5801  1.4574
  930MOL0     H25532  -2.322   9.088   8.228 -0.2475 -1.3362  0.6220
  930MOL0     H25533  -2.089   9.094   8.293 -2.0302  1.4329  1.6041
  930MOL0     H25534  -1.668   9.312   8.128 -3.0226  0.4721  0.3950
  930MOL0     H25535  -1.423   9.346   8.193 -0.7285  0.0287 -1.1721
  930MOL0     H25536   0.084   8.739   9.052 -0.8860  2.2603 -0.3793
  930MOL0     H25537   0.296   8.601   9.064  1.9320  0.3164  0.2144
  930MOL0     H25538   0.730   8.538   9.321  0.8566 -1.0825  0.0858
  930MOL0     H25539   0.967   8.473   9.309  0.1640 -1.0871 -0.0622
  930MOL0     H25540   1.134   8.336   8.940 -3.8928  1.9169 -0.1509
  930MOL0     H25541   1.187   8.502   8.908 -2.2124  1.7081  1.0481
  930MOL0     H25542   1.329   8.315   9.086  3.0069  1.5822  0.5230
  930MOL0     H25543   1.387   8.475   9.051 -0.9866  1.3446  0.3225
  930MOL0     H25544   1.382   8.422   8.801 -1.7745 -0.8873 -1.4857
  930MOL0     H25545   1.352   8.253   8.847 -1.9520  0.9311  3.0186
  930MOL0     H25546   1.550   8.252   8.982 -0.0532 -0.2174 -0.2098
  930MOL0     H25547   1.612   8.412   8.926  1.1185 -0.8120  1.9432
  930MOL0     H25548   1.646   8.176   8.568 -1.1302 -2.1817  1.0102
  930MOL0     H25549   0.955   8.528   8.885 -0.7116  0.6387 -0.8747
  930MOL0     H25550   0.755   8.616   8.888  1.1018 -0.0884 -0.5979
  931MOL0     O25551   6.505   5.369   3.502 -0.3555  0.5958  0.5935
  931MOL0     C25552   6.559   5.438   3.419 -0.5525  0.5503 -0.0937
  931MOL0     O25553   6.524   5.565   3.380 -0.4447  0.5208 -0.6543
  931MOL0     C25554   6.407   5.607   3.430 -1.0450 -0.4292  0.3904
  931MOL0     C25555   6.294   5.554   3.380 -0.3886  0.2491  0.4581
  931MOL0     C25556   6.167   5.604   3.428  0.1405  0.7638 -1.0575
  931MOL0     C25557   6.168   5.713   3.526 -0.8548  0.0311 -0.0969
  931MOL0     O25558   6.060   5.778   3.567  0.0636 -0.3288  0.8880
  931MOL0     C25559   6.050   5.802   3.712  0.2142 -0.2184  0.3438
  931MOL0     C25560   5.904   5.802   3.744  0.5692  0.8973 -0.3354
  931MOL0     C25561   5.841   5.658   3.730  0.1296 -0.6286 -0.8917
  931MOL0     C25562   5.688   5.650   3.721 -0.0483 -0.0373 -0.3927
  931MOL0     C25563   5.618   5.521   3.670  0.4846  0.3804 -0.3129
  931MOL0     C25564   5.663   5.501   3.521  0.4173 -0.1410  0.1968
  931MOL0     C25565   5.618   5.361   3.464  0.6027  0.7604 -0.1363
  931MOL0     C25566   5.662   5.337   3.329 -0.2659 -0.4196  0.6449
  931MOL0     N25567   5.596   5.434   3.240  0.4639 -0.1423 -0.0117
  931MOL0     C25568   5.457   5.429   3.215 -0.0465 -0.3636 -0.2400
  931MOL0     C25569   5.441   5.533   3.123  0.0808  0.0807 -0.2050
  931MOL0     C25570   5.316   5.592   3.059  0.0583  0.1897 -0.5127
  931MOL0     C25571   5.314   5.747   3.051 -0.1074  0.3935 -0.3447
  931MOL0     C25572   5.175   5.798   3.010  0.6413  0.7261  0.2468
  931MOL0     C25573   5.158   5.799   2.855 -0.8750  0.6875 -0.3094
  931MOL0     O25574   5.094   5.680   2.802  0.4007  0.3028 -0.7633
  931MOL0     C25575   4.962   5.640   2.831 -0.0480  0.2868 -0.6177
  931MOL0     C25576   4.867   5.727   2.884 -0.4989  0.3844 -0.0276
  931MOL0     C25577   4.733   5.685   2.911 -0.6237 -0.5797  0.0167
  931MOL0     C25578   4.640   5.799   2.972 -0.6234  0.3486  0.0271
  931MOL0     C25579   4.696   5.548   2.880 -0.1541 -0.3916 -0.4607
  931MOL0     C25580   4.561   5.489   2.898  1.0015  0.4426  0.2565
  931MOL0     O25581   4.454   5.561   2.868  0.0353 -0.0597 -0.4002
  931MOL0     C25582   4.319   5.520   2.861 -0.1878  0.3465  0.1642
  931MOL0     C25583   4.234   5.614   2.801  0.0687  0.3954  0.5689
  931MOL0     C25584   4.092   5.588   2.796  0.0204 -0.4513 -0.1662
  931MOL0     C25585   4.037   5.486   2.871 -0.4048  0.0866  0.6830
  931MOL0     O25586   3.894   5.465   2.878  0.2552  0.1759  0.0477
  931MOL0     C25587   3.819   5.471   2.761  0.1931 -0.3287 -0.0833
  931MOL0     C25588   3.705   5.364   2.752  0.4263 -0.1486 -0.7534
  931MOL0     C25589   3.608   5.401   2.640  0.0796 -0.4842  0.3287
  931MOL0     C25590   3.511   5.282   2.624 -0.4099  0.0733  0.7845
  931MOL0     C25591   3.415   5.324   2.512  0.0829 -0.4021  0.3501
  931MOL0     C25592   3.277   5.266   2.517 -0.3624  0.0747 -0.4945
  931MOL0     C25593   3.271   5.116   2.545 -0.4586 -0.0172 -0.2441
  931MOL0     C25594   3.126   5.072   2.511  0.0652 -0.7100  0.1040
  931MOL0    Cl25595   3.010   5.138   2.631  0.0388 -0.1543  0.0089
  931MOL0     C25596   4.119   5.395   2.930  0.3654  0.3133  0.3721
  931MOL0     C25597   4.258   5.405   2.922 -0.7825 -0.3079 -0.6190
  931MOL0     O25598   4.555   5.370   2.930  0.1080  0.3428  0.2695
  931MOL0     C25599   4.794   5.467   2.822 -0.4245 -0.6384  0.7694
  931MOL0     C25600   4.928   5.505   2.797  0.7498  0.5858 -0.4536
  931MOL0     N25601   5.570   5.575   3.092  0.6295  0.2165 -0.4900
  931MOL0     N25602   5.661   5.514   3.152 -0.0119 -0.5276  0.4526
  931MOL0     C25603   6.291   5.761   3.566  0.3880  0.2150  0.2907
  931MOL0     C25604   6.406   5.711   3.518 -0.6548  0.0751  0.4964
  931MOL0     C25605   6.690   5.394   3.365  0.7121  0.6296 -0.1690
  931MOL0     C25606   6.757   5.291   3.439  0.7994  0.6661 -0.2020
  931MOL0     C25607   6.876   5.237   3.391 -0.1965  0.7101 -0.1934
  931MOL0     C25608   6.942   5.288   3.278 -1.0365  0.4178  1.3928
  931MOL0     O25609   7.056   5.227   3.220  0.5303 -0.8689 -0.3542
  931MOL0     C25610   7.150   5.150   3.298 -0.6060 -0.2803 -0.4431
  931MOL0     C25611   7.236   5.068   3.215  0.0880 -0.0376  0.2162
  931MOL0     C25612   7.358   5.010   3.301  0.2304  1.1012 -0.5187
  931MOL0     C25613   7.442   4.905   3.226 -0.0318  0.6527  0.2730
  931MOL0     C25614   7.482   4.953   3.092 -0.0950 -0.3827  0.0468
  931MOL0     C25615   7.488   4.981   2.975 -0.1953 -0.1921 -0.1611
  931MOL0     C25616   6.865   5.375   3.204  0.0468 -0.4759  0.0441
  931MOL0     C25617   6.744   5.435   3.246  0.6070 -0.0799 -0.5020
  931MOL0     H25618   6.295   5.471   3.309 -0.9300  1.9314 -1.6226
  931MOL0     H25619   6.073   5.562   3.393 -1.2622  1.5459  1.4567
  931MOL0     H25620   6.101   5.730   3.777 -0.0854  0.1318  0.9656
  931MOL0     H25621   6.092   5.901   3.730 -1.7871  1.0452 -1.4136
  931MOL0     H25622   5.897   5.837   3.847  1.3431  0.2171 -0.0362
  931MOL0     H25623   5.849   5.867   3.676 -0.8447  0.4051  0.3140
  931MOL0     H25624   5.886   5.613   3.641  1.8200  1.1596 -1.0146
  931MOL0     H25625   5.876   5.614   3.824 -1.3672 -0.0779 -0.0502
  931MOL0     H25626   5.655   5.672   3.823  2.9917  1.3147  0.4126
  931MOL0     H25627   5.648   5.733   3.663 -1.5571  0.3116  1.0722
  931MOL0     H25628   5.651   5.441   3.737  2.3464  0.9847 -0.4389
  931MOL0     H25629   5.511   5.540   3.664  0.6361  0.9128 -1.9640
  931MOL0     H25630   5.624   5.586   3.463  0.3945  0.8526  1.6155
  931MOL0     H25631   5.772   5.498   3.521  0.4196 -0.0868 -0.0770
  931MOL0     H25632   5.666   5.284   3.524 -0.8025  0.3123  0.4644
  931MOL0     H25633   5.512   5.349   3.487  1.5409 -0.1909  4.6857
  931MOL0     H25634   5.644   5.233   3.300 -1.8735 -0.3312  1.2065
  931MOL0     H25635   5.768   5.359   3.317 -0.4323 -0.1689 -0.5205
  931MOL0     H25636   5.383   5.361   3.256  0.3599 -1.4878 -1.3121
  931MOL0     H25637   5.308   5.562   2.954  1.2191  3.1614 -1.5578
  931MOL0     H25638   5.232   5.559   3.121 -0.1216  5.4997  2.7012
  931MOL0     H25639   5.382   5.792   2.978  0.5843  1.4386  0.9101
  931MOL0     H25640   5.337   5.779   3.153 -0.9673 -1.4218  0.4515
  931MOL0     H25641   5.167   5.905   3.029 -0.3468  1.6506 -4.1446
  931MOL0     H25642   5.095   5.745   3.062  1.2739  1.2507  1.7862
  931MOL0     H25643   5.249   5.813   2.796 -1.0078 -2.1109 -1.3249
  931MOL0     H25644   5.086   5.879   2.838  1.6205  2.6318 -2.4723
  931MOL0     H25645   4.903   5.827   2.907 -0.2150  0.4818 -0.8415
  931MOL0     H25646   4.689   5.896   2.959  2.1193 -0.7982  1.0801
  931MOL0     H25647   4.548   5.801   2.913 -0.3209  0.0972 -0.4574
  931MOL0     H25648   4.607   5.788   3.076 -3.1120 -1.2849 -0.8473
  931MOL0     H25649   4.270   5.706   2.757 -1.0846 -0.3070 -1.9987
  931MOL0     H25650   4.031   5.644   2.726  1.3040 -0.8780 -1.6944
  931MOL0     H25651   3.775   5.571   2.751 -0.1585 -0.5288 -0.5995
  931MOL0     H25652   3.880   5.447   2.673  0.1157 -0.4527 -0.1031
  931MOL0     H25653   3.743   5.263   2.736 -0.7242 -0.3608 -2.4804
  931MOL0     H25654   3.635   5.381   2.834  1.7754 -0.2539  0.4397
  931MOL0     H25655   3.660   5.424   2.546 -0.0978 -0.6817  0.1820
  931MOL0     H25656   3.556   5.494   2.663 -1.0958 -0.8957 -0.5583
  931MOL0     H25657   3.562   5.188   2.599 -0.6926  0.4770 -1.4948
  931MOL0     H25658   3.460   5.268   2.720  0.9518  2.6186  2.0083
  931MOL0     H25659   3.464   5.302   2.416  0.1457  1.5394 -0.0995
  931MOL0     H25660   3.398   5.431   2.526  2.2508 -0.1035  1.2084
  931MOL0     H25661   3.225   5.303   2.606 -1.1518 -3.0564  0.5085
  931MOL0     H25662   3.230   5.291   2.422  0.3829  2.1524 -0.3484
  931MOL0     H25663   3.301   5.113   2.650 -0.8856  0.6937 -0.0899
  931MOL0     H25664   3.347   5.065   2.485 -0.8021  1.6580 -2.2511
  931MOL0     H25665   3.122   4.963   2.515  2.2182 -0.8240  0.8656
  931MOL0     H25666   3.096   5.103   2.411 -1.3934  0.0125  0.7398
  931MOL0     H25667   4.069   5.317   2.986 -2.7473  0.8337 -1.4423
  931MOL0     H25668   4.325   5.332   2.966 -2.0876 -1.3791 -0.3250
  931MOL0     H25669   4.770   5.364   2.797  1.7434 -1.0999  0.4543
  931MOL0     H25670   4.992   5.428   2.756  0.6008  1.0644 -1.6015
  931MOL0     H25671   6.297   5.827   3.652 -0.8959  0.4142  0.2512
  931MOL0     H25672   6.501   5.751   3.551 -1.1421 -0.2153  2.3400
  931MOL0     H25673   6.701   5.246   3.521  1.7222  0.8175  0.5282
  931MOL0     H25674   6.919   5.157   3.451  1.4010  3.1129  2.1254
  931MOL0     H25675   7.223   5.214   3.348  0.1296 -0.5547 -1.1329
  931MOL0     H25676   7.108   5.080   3.370 -2.2371  0.0523 -1.0222
  931MOL0     H25677   7.284   5.141   3.149  0.5682  1.3732  2.0332
  931MOL0     H25678   7.180   4.989   3.164  1.5759 -2.4562  2.1183
  931MOL0     H25679   7.315   4.970   3.393 -1.1533  3.3860 -0.1004
  931MOL0     H25680   7.434   5.088   3.312  2.3597 -0.9480  0.3158
  931MOL0     H25681   7.376   4.819   3.216 -4.1617  3.5880 -0.4488
  931MOL0     H25682   7.536   4.872   3.272  0.9392  4.4024  1.3181
  931MOL0     H25683   7.485   5.006   2.870 -1.3473 -1.6460 -0.5131
  931MOL0     H25684   6.907   5.402   3.108  1.2571 -1.7485  0.1847
  931MOL0     H25685   6.695   5.509   3.184 -2.7061 -0.8237  1.0331
  932MOL0     O25686   9.063   9.843   5.397  0.4362 -0.8589  0.0404
  932MOL0     C25687   9.068   9.823   5.270  0.5610  1.2285  0.1782
  932MOL0     O25688   8.992   9.731   5.198 -0.0808 -0.7972  0.6131
  932MOL0     C25689   8.869   9.687   5.243  0.4365 -0.1054  0.4070
  932MOL0     C25690   8.760   9.771   5.249  0.0927  0.9372 -0.5807
  932MOL0     C25691   8.632   9.719   5.272 -0.6931 -0.0485  0.5271
  932MOL0     C25692   8.613   9.589   5.321 -0.1413  0.3694 -0.6622
  932MOL0     O25693   8.495   9.534   5.355  0.3857  0.2532 -0.3767
  932MOL0     C25694   8.387   9.625   5.402  0.3490  0.1366  0.7714
  932MOL0     C25695   8.287   9.542   5.479 -0.4083  0.5380 -0.4448
  932MOL0     C25696   8.146   9.606   5.497 -0.7263 -0.4245 -0.4446
  932MOL0     C25697   8.048   9.511   5.579 -0.4810 -0.5265 -0.3950
  932MOL0     C25698   7.911   9.566   5.572  0.9954 -0.7207 -0.1696
  932MOL0     C25699   7.861   9.653   5.690  1.2038  0.0086 -0.8885
  932MOL0     C25700   7.717   9.715   5.673 -0.0193  0.0582 -0.1320
  932MOL0     C25701   7.604   9.615   5.652  0.3993  0.4531  0.1550
  932MOL0     N25702   7.468   9.683   5.643  0.1058 -0.3933  0.0422
  932MOL0     C25703   7.432   9.767   5.531 -0.5311  0.3214  0.0176
  932MOL0     C25704   7.339   9.853   5.576 -0.1548  0.7753 -0.3668
  932MOL0     C25705   7.241   9.938   5.508  0.4101  1.3334 -0.8265
  932MOL0     C25706   7.106   9.854   5.482  0.6369 -0.0066 -0.3819
  932MOL0     C25707   6.965   9.936   5.448 -0.6699 -0.2753  0.1541
  932MOL0     C25708   6.853   9.834   5.437 -0.0407  0.0339  0.1868
  932MOL0     O25709   6.725   9.905   5.432 -0.0550  0.8497  0.0067
  932MOL0     C25710   6.605   9.845   5.428  0.2540 -0.0125  0.6481
  932MOL0     C25711   6.487   9.922   5.445 -0.4536  0.2623  0.4996
  932MOL0     C25712   6.361   9.865   5.451  0.1929  0.0098 -1.0529
  932MOL0     C25713   6.253   9.965   5.472  0.2496  0.2380  0.8220
  932MOL0     C25714   6.352   9.721   5.446 -0.2365 -0.6879  0.0002
  932MOL0     C25715   6.224   9.647   5.467 -0.2975  0.3648 -0.2141
  932MOL0     O25716   6.232   9.515   5.443  0.4666  0.2386  0.0408
  932MOL0     C25717   6.124   9.444   5.487 -0.3367  1.1596 -0.2043
  932MOL0     C25718   6.040   9.379   5.400 -0.7411 -0.7419  0.1112
  932MOL0     C25719   5.941   9.295   5.444  0.8304 -0.4478  0.4047
  932MOL0     C25720   5.929   9.279   5.580 -0.6486 -0.3814 -0.5553
  932MOL0     O25721   5.833   9.201   5.633  0.0305  0.0193 -0.1976
  932MOL0     C25722   5.762   9.230   5.756  0.5240  0.0296  0.0097
  932MOL0     C25723   5.625   9.149   5.774 -0.0500 -0.2298  0.0758
  932MOL0     C25724   5.578   9.134   5.919 -0.2817 -0.1189 -0.2369
  932MOL0     C25725   5.503   9.006   5.949  0.2059  0.3649  0.7849
  932MOL0     C25726   5.363   9.014   5.891  0.1851  0.8738  0.3369
  932MOL0     C25727   5.290   8.877   5.901  0.7159 -0.0807 -0.2381
  932MOL0     C25728   5.135   8.890   5.877 -0.7497  0.0672  0.1359
  932MOL0     C25729   5.054   8.759   5.872  0.2026  0.5235 -1.0187
  932MOL0    Cl25730   5.046   8.677   6.032 -0.1489 -0.1571  0.3956
  932MOL0     C25731   6.024   9.325   5.668  0.6223 -0.4060  0.1510
  932MOL0     C25732   6.115   9.424   5.622  0.4606  0.2878 -0.3483
  932MOL0     O25733   6.119   9.706   5.503  0.4319 -0.0384 -0.6467
  932MOL0     C25734   6.468   9.644   5.438 -0.6774  0.5563  0.0676
  932MOL0     C25735   6.593   9.709   5.427  0.0258  0.4885 -0.9069
  932MOL0     N25736   7.327   9.819   5.714  0.6855 -0.0240  0.3532
  932MOL0     N25737   7.396   9.720   5.745 -0.8454 -0.5052 -0.9149
  932MOL0     C25738   8.726   9.513   5.311  0.8603  0.2827 -0.0982
  932MOL0     C25739   8.849   9.559   5.272 -0.4695  0.4125 -0.3941
  932MOL0     C25740   9.175   9.890   5.202 -0.2097 -0.1891  0.2674
  932MOL0     C25741   9.193   9.890   5.065 -0.8831 -0.0044  0.1900
  932MOL0     C25742   9.303   9.953   4.995  0.2459 -0.5939  0.7848
  932MOL0     C25743   9.405  10.017   5.070  0.1921  0.1778 -0.3137
  932MOL0     O25744   9.510  10.083   5.018 -0.4344 -0.1892  0.3774
  932MOL0     C25745   9.543  10.091   4.871  0.0137 -0.6011  0.0347
  932MOL0     C25746   9.688  10.129   4.853  0.7795 -0.6325 -0.3298
  932MOL0     C25747   9.779  10.066   4.961 -0.1014  0.6740  0.6007
  932MOL0     C25748   9.931  10.086   4.952  0.7429 -0.5293 -0.1663
  932MOL0     C25749   9.967  10.224   4.923  0.2268  0.2171  0.4148
  932MOL0     C25750  10.003  10.335   4.879  0.1438 -0.0240 -0.0490
  932MOL0     C25751   9.376  10.034   5.207  0.1299  0.4251 -0.5558
  932MOL0     C25752   9.268   9.965   5.272 -0.7275  0.5199 -0.1253
  932MOL0     H25753   8.788   9.871   5.219 -0.4143  1.2343 -0.0728
  932MOL0     H25754   8.555   9.795   5.263  0.1359  0.7124 -0.5037
  932MOL0     H25755   8.427   9.709   5.460  0.7714  1.3059 -1.1366
  932MOL0     H25756   8.339   9.684   5.323 -1.6141  1.1229  2.6000
  932MOL0     H25757   8.267   9.444   5.434 -0.4991  2.0869 -4.0880
  932MOL0     H25758   8.326   9.523   5.579 -1.3529 -0.6637 -0.2669
  932MOL0     H25759   8.154   9.705   5.543  1.0965 -0.7310 -0.0269
  932MOL0     H25760   8.108   9.620   5.395  0.5763  0.2057 -0.8745
  932MOL0     H25761   8.062   9.412   5.534  4.7366  0.6709 -2.0755
  932MOL0     H25762   8.086   9.512   5.681 -0.8375  2.0344 -0.2041
  932MOL0     H25763   7.875   9.603   5.476 -3.0482 -2.6054  0.4160
  932MOL0     H25764   7.841   9.483   5.584 -3.9254  3.0444  0.4461
  932MOL0     H25765   7.851   9.597   5.784 -0.0533 -0.7382 -1.4325
  932MOL0     H25766   7.930   9.736   5.704  2.0504 -0.2994 -2.9106
  932MOL0     H25767   7.687   9.778   5.757  3.6116  1.8317  0.0045
  932MOL0     H25768   7.728   9.767   5.577  2.6722 -2.4698 -1.3619
  932MOL0     H25769   7.596   9.556   5.744  1.5217  0.2656  0.1490
  932MOL0     H25770   7.617   9.546   5.569  0.1870 -0.1414  0.6047
  932MOL0     H25771   7.448   9.744   5.426 -2.6185  0.6673 -0.4320
  932MOL0     H25772   7.211  10.023   5.571 -0.1019  1.0185 -0.6384
  932MOL0     H25773   7.287   9.974   5.416  2.7395 -1.5311 -0.9233
  932MOL0     H25774   7.081   9.805   5.577 -2.6791  1.6456 -0.2572
  932MOL0     H25775   7.118   9.786   5.397  2.7380 -0.9180  0.5624
  932MOL0     H25776   6.979   9.988   5.353  0.7250 -0.8847  0.0033
  932MOL0     H25777   6.934  10.004   5.528 -2.2861 -1.8314  0.9147
  932MOL0     H25778   6.848   9.753   5.511 -2.3377 -0.5214 -0.4967
  932MOL0     H25779   6.864   9.775   5.346  0.2847  0.9918 -0.4100
  932MOL0     H25780   6.497  10.030   5.451 -0.6474  0.3104  0.0398
  932MOL0     H25781   6.203   9.960   5.569 -1.5359 -1.1116 -0.1028
  932MOL0     H25782   6.292  10.066   5.463 -1.9244  1.1498  1.0916
  932MOL0     H25783   6.173   9.947   5.399  0.8787  2.3389 -0.4770
  932MOL0     H25784   6.070   9.385   5.296  1.9526  1.2789  0.8775
  932MOL0     H25785   5.878   9.241   5.374  1.4113  1.1159 -1.4189
  932MOL0     H25786   5.826   9.203   5.841  1.1806 -2.2180 -1.1065
  932MOL0     H25787   5.740   9.337   5.748  1.1886  0.0595 -1.9243
  932MOL0     H25788   5.554   9.191   5.703  2.2735  0.9308 -1.6850
  932MOL0     H25789   5.632   9.046   5.736 -1.8094 -0.2415 -0.2818
  932MOL0     H25790   5.518   9.222   5.943  1.8688  0.7127  2.7808
  932MOL0     H25791   5.667   9.129   5.983  0.9837 -2.8688 -1.9933
  932MOL0     H25792   5.558   8.918   5.914 -2.3432 -0.8664 -0.3297
  932MOL0     H25793   5.486   9.006   6.057 -1.4362 -0.1926  0.5530
  932MOL0     H25794   5.385   9.039   5.787  1.3274 -0.3763  0.2587
  932MOL0     H25795   5.302   9.096   5.930  0.4891  1.6787 -0.7995
  932MOL0     H25796   5.342   8.801   5.842 -1.2572 -0.6417 -1.3321
  932MOL0     H25797   5.297   8.832   6.001  0.3386 -0.1795 -0.2569
  932MOL0     H25798   5.116   8.942   5.783  0.2822  0.0322 -0.0979
  932MOL0     H25799   5.102   8.953   5.961  0.5300 -1.4240  1.8241
  932MOL0     H25800   5.105   8.689   5.805 -1.7086  0.9615 -3.0435
  932MOL0     H25801   4.954   8.783   5.836  0.3897  3.4999  0.1940
  932MOL0     H25802   6.015   9.301   5.774 -0.7012  2.4056  0.7677
  932MOL0     H25803   6.198   9.460   5.683  1.1886  0.7922 -1.6087
  932MOL0     H25804   6.466   9.536   5.443  2.2743  0.4956  1.7788
  932MOL0     H25805   6.683   9.649   5.418  0.3600  0.9315 -0.5267
  932MOL0     H25806   8.719   9.407   5.333 -1.3079  0.5138  0.5236
  932MOL0     H25807   8.937   9.496   5.273  0.2666  1.3105 -2.4541
  932MOL0     H25808   9.117   9.849   5.001  0.4215  1.6402 -2.5995
  932MOL0     H25809   9.305   9.963   4.887 -1.1350  1.9543  0.9246
  932MOL0     H25810   9.522   9.992   4.829 -1.6795 -0.5119  0.5811
  932MOL0     H25811   9.481  10.168   4.825  1.3294  0.9107  0.7148
  932MOL0     H25812   9.697  10.236   4.875  1.4697 -1.2030  2.6468
  932MOL0     H25813   9.714  10.101   4.751 -0.2413 -4.3433  0.3019
  932MOL0     H25814   9.761   9.958   4.950 -1.9819  0.9977  0.2212
  932MOL0     H25815   9.745  10.093   5.061  2.5546  1.7451  1.3108
  932MOL0     H25816   9.976  10.022   4.876 -0.7592 -1.4118 -0.3565
  932MOL0     H25817   9.981  10.072   5.049 -2.5890  1.8562  2.1361
  932MOL0     H25818  10.035  10.427   4.836  1.0706 -0.7875 -1.0612
  932MOL0     H25819   9.447  10.090   5.268 -0.8875  2.0932 -0.8429
  932MOL0     H25820   9.258   9.971   5.380 -1.0592  0.1715 -0.1357
  933MOL0     O25821   4.590   5.307   4.682  0.0337 -0.7454  0.5796
  933MOL0     C25822   4.622   5.282   4.799  0.4843 -0.3604  0.2723
  933MOL0     O25823   4.537   5.221   4.889  0.3273  0.8305  0.3089
  933MOL0     C25824   4.418   5.176   4.841  1.0269  0.1704 -0.2846
  933MOL0     C25825   4.413   5.037   4.822  0.3886  0.3651 -0.3693
  933MOL0     C25826   4.291   4.985   4.763  0.5883 -0.1018  0.3992
  933MOL0     C25827   4.180   5.074   4.735  0.2721  0.9556 -0.1934
  933MOL0     O25828   4.058   5.024   4.690 -0.3748  0.9591  0.2301
  933MOL0     C25829   4.040   4.885   4.643  0.3440  0.2883  0.6115
  933MOL0     C25830   3.900   4.864   4.597 -0.1707  0.3263 -0.2633
  933MOL0     C25831   3.798   4.898   4.700  0.1300  0.8518  0.3289
  933MOL0     C25832   3.667   4.824   4.669  0.0911 -0.2105 -0.4074
  933MOL0     C25833   3.542   4.908   4.689  0.1452 -0.2050  0.6621
  933MOL0     C25834   3.420   4.814   4.679  0.7907  0.3707  0.4756
  933MOL0     C25835   3.291   4.892   4.652 -0.3395 -0.0225 -0.5558
  933MOL0     C25836   3.168   4.794   4.655 -0.8853  0.4124  0.0051
  933MOL0     N25837   3.043   4.860   4.676  0.4438 -0.3004  0.3114
  933MOL0     C25838   2.921   4.803   4.709  0.0961 -0.2109 -0.1225
  933MOL0     C25839   2.842   4.913   4.716  0.3692 -0.4052 -0.5123
  933MOL0     C25840   2.699   4.896   4.744 -0.6697  0.3546 -0.5333
  933MOL0     C25841   2.629   5.028   4.779 -0.6007 -0.4775  0.1352
  933MOL0     C25842   2.689   5.097   4.897 -0.6928  0.0141 -0.4167
  933MOL0     C25843   2.619   5.212   4.966 -0.0994 -0.2064 -0.2671
  933MOL0     O25844   2.486   5.181   5.018 -0.1471  0.6392 -0.2467
  933MOL0     C25845   2.389   5.272   5.034 -0.0485  0.1133  0.5643
  933MOL0     C25846   2.266   5.222   5.066 -0.1473 -0.1517  0.0469
  933MOL0     C25847   2.151   5.298   5.094  0.1703 -0.2277 -0.1473
  933MOL0     C25848   2.026   5.235   5.145 -0.3135 -0.0565 -0.5326
  933MOL0     C25849   2.166   5.438   5.066 -0.8687 -0.2083  0.5852
  933MOL0     C25850   2.051   5.529   5.071  0.6740  1.4430  0.2245
  933MOL0     O25851   1.963   5.510   4.972 -0.0633 -0.1118 -0.2134
  933MOL0     C25852   1.883   5.616   4.926 -0.5830  0.4399 -0.9474
  933MOL0     C25853   1.767   5.645   4.995  0.5781  0.2654  0.0206
  933MOL0     C25854   1.686   5.756   4.954  0.6398  0.1750  0.2086
  933MOL0     C25855   1.725   5.846   4.847 -0.6340  1.0088  0.0597
  933MOL0     O25856   1.649   5.960   4.824 -0.0042 -0.0555 -0.3554
  933MOL0     C25857   1.675   6.047   4.708  0.2008 -0.9254  0.1139
  933MOL0     C25858   1.577   6.174   4.719 -0.7278 -0.0720  0.5953
  933MOL0     C25859   1.634   6.281   4.809 -0.2620  0.3090 -0.3479
  933MOL0     C25860   1.770   6.331   4.779  0.1167  0.2875  0.5665
  933MOL0     C25861   1.800   6.459   4.854 -0.3339 -0.1493 -0.7120
  933MOL0     C25862   1.943   6.507   4.810 -0.0818  0.5906  0.5029
  933MOL0     C25863   2.001   6.635   4.876  0.9136 -0.1150  0.3332
  933MOL0     C25864   2.151   6.644   4.874  0.2309  0.1183  0.2128
  933MOL0    Cl25865   2.223   6.626   4.719 -0.3973  0.2114 -0.0286
  933MOL0     C25866   1.836   5.801   4.765 -0.3894 -0.4353  0.1518
  933MOL0     C25867   1.912   5.691   4.809 -0.4506 -0.3865 -0.5851
  933MOL0     O25868   2.056   5.620   5.151 -0.5812 -0.4263  0.7809
  933MOL0     C25869   2.291   5.498   5.034  0.3501  0.4192 -0.5698
  933MOL0     C25870   2.403   5.419   5.022  0.3148  0.5104 -0.3276
  933MOL0     N25871   2.913   5.033   4.690  0.3257 -0.1396  0.5804
  933MOL0     N25872   3.033   4.998   4.659  0.7497  0.4496 -0.2306
  933MOL0     C25873   4.203   5.207   4.744 -0.1323  0.3811  0.3569
  933MOL0     C25874   4.314   5.259   4.802  0.2567  0.4824 -0.5329
  933MOL0     C25875   4.751   5.334   4.855  0.0691 -0.2588  0.6671
  933MOL0     C25876   4.841   5.415   4.777  0.2200 -0.2360 -0.3823
  933MOL0     C25877   4.958   5.464   4.833 -0.3508  0.7034  0.4395
  933MOL0     C25878   4.995   5.427   4.963  0.5398 -0.2424  0.4854
  933MOL0     O25879   5.104   5.468   5.036 -0.6372  0.2654  0.4894
  933MOL0     C25880   5.207   5.553   4.983 -0.5056  0.5374  0.4275
  933MOL0     C25881   5.300   5.457   4.907  0.3224 -0.2342  0.1371
  933MOL0     C25882   5.400   5.539   4.823 -0.5069 -0.3081 -0.1471
  933MOL0     C25883   5.523   5.587   4.897  0.1582 -0.1331  0.2411
  933MOL0     C25884   5.610   5.473   4.934  0.7891 -0.0367 -0.3235
  933MOL0     C25885   5.679   5.379   4.970  0.0151 -0.5742  0.1729
  933MOL0     C25886   4.913   5.339   5.034  0.4022 -0.1210 -0.4639
  933MOL0     C25887   4.789   5.295   4.987  0.2463 -0.1947  0.1779
  933MOL0     H25888   4.502   4.980   4.844  0.0283 -0.5950 -1.2838
  933MOL0     H25889   4.283   4.878   4.751  1.7524 -0.1407 -0.1618
  933MOL0     H25890   4.110   4.866   4.562  1.2647 -2.3486  1.9058
  933MOL0     H25891   4.060   4.813   4.723 -2.3456 -0.1815  0.9688
  933MOL0     H25892   3.881   4.927   4.510  1.3583  0.3218 -0.6280
  933MOL0     H25893   3.885   4.758   4.573 -1.5211  0.5121 -0.2878
  933MOL0     H25894   3.831   4.886   4.803 -1.5689  2.5566  1.1191
  933MOL0     H25895   3.774   5.003   4.680 -2.0577  0.0180 -2.0184
  933MOL0     H25896   3.674   4.803   4.562  2.7840  1.3336 -0.6240
  933MOL0     H25897   3.656   4.728   4.721 -2.6409 -0.0051 -0.4515
  933MOL0     H25898   3.545   4.951   4.789 -1.4313 -0.3241  0.7823
  933MOL0     H25899   3.537   4.996   4.623 -1.0189  1.2579  2.5659
  933MOL0     H25900   3.418   4.738   4.600  0.4669  1.5008 -0.6368
  933MOL0     H25901   3.419   4.756   4.772  3.1910 -0.7290 -0.1170
  933MOL0     H25902   3.289   4.972   4.728  0.6791 -0.1850 -0.3454
  933MOL0     H25903   3.300   4.936   4.552  1.7199  0.6907 -0.1050
  933MOL0     H25904   3.191   4.731   4.740  3.0508  0.7319 -0.6308
  933MOL0     H25905   3.175   4.735   4.563  1.6288 -0.0120  0.4021
  933MOL0     H25906   2.889   4.701   4.731  1.0138 -0.8836 -1.7976
  933MOL0     H25907   2.649   4.858   4.654  1.5505  0.2274 -1.7680
  933MOL0     H25908   2.676   4.827   4.826 -3.5689  1.3102 -0.4256
  933MOL0     H25909   2.520   5.013   4.782 -0.9050  0.0191 -3.4693
  933MOL0     H25910   2.648   5.107   4.705 -1.2289  0.0921  0.5666
  933MOL0     H25911   2.789   5.133   4.872  0.0036 -2.6178 -1.7921
  933MOL0     H25912   2.703   5.009   4.961  1.6538 -0.6678 -1.7601
  933MOL0     H25913   2.608   5.280   4.881  0.2802 -1.9134 -1.7447
  933MOL0     H25914   2.678   5.257   5.046  1.2470 -3.7223  0.9222
  933MOL0     H25915   2.260   5.117   5.093  1.6877 -0.3114 -0.0059
  933MOL0     H25916   2.001   5.160   5.069  0.3165  2.1239 -3.0625
  933MOL0     H25917   2.043   5.185   5.241  0.9437  0.8793 -0.2337
  933MOL0     H25918   1.952   5.315   5.159  2.8558  3.0935 -0.3255
  933MOL0     H25919   1.734   5.583   5.078  0.9538  1.2637  0.9236
  933MOL0     H25920   1.600   5.786   5.013  1.2553 -0.6922  1.6056
  933MOL0     H25921   1.778   6.077   4.691 -0.1968  0.5134  0.1140
  933MOL0     H25922   1.636   6.004   4.615 -0.7822  0.9460 -0.3826
  933MOL0     H25923   1.576   6.213   4.617  0.2551 -1.5619 -0.0350
  933MOL0     H25924   1.479   6.135   4.745 -0.5963 -3.0254 -2.5766
  933MOL0     H25925   1.658   6.237   4.907 -0.7671  2.5047  0.8165
  933MOL0     H25926   1.570   6.368   4.821  1.9392  1.7720  1.8892
  933MOL0     H25927   1.844   6.257   4.810 -0.7232 -0.7584  0.1699
  933MOL0     H25928   1.780   6.344   4.671 -1.4571 -0.3728  0.3034
  933MOL0     H25929   1.802   6.447   4.963  0.0720  1.2345 -0.5545
  933MOL0     H25930   1.738   6.546   4.831  1.4346  1.7035  1.1543
  933MOL0     H25931   2.013   6.424   4.823 -1.1758 -0.6382 -1.1395
  933MOL0     H25932   1.936   6.527   4.703 -0.4012  2.4398  0.8400
  933MOL0     H25933   1.969   6.632   4.980  0.2134 -0.7800  0.1075
  933MOL0     H25934   1.958   6.731   4.846 -2.3470 -0.7712  2.4296
  933MOL0     H25935   2.182   6.572   4.950  0.3778  0.3057  0.3286
  933MOL0     H25936   2.187   6.742   4.905 -0.3909  1.1144 -1.9714
  933MOL0     H25937   1.854   5.848   4.669  0.5649 -2.2226 -0.5838
  933MOL0     H25938   1.995   5.652   4.751  1.5586  1.7510  0.6969
  933MOL0     H25939   2.301   5.606   5.039 -1.0593  0.5918 -0.8951
  933MOL0     H25940   2.498   5.470   5.010  1.5563 -1.8467 -1.1462
  933MOL0     H25941   4.130   5.279   4.710  0.1753  0.2922 -0.5227
  933MOL0     H25942   4.315   5.367   4.811  0.4960  0.4575 -0.2360
  933MOL0     H25943   4.828   5.439   4.672  1.7329  0.8266 -0.3515
  933MOL0     H25944   5.024   5.520   4.767 -0.0452 -0.7210 -0.5147
  933MOL0     H25945   5.164   5.632   4.922 -2.2509 -0.3706  0.4292
  933MOL0     H25946   5.256   5.609   5.063  1.5485  0.3209 -0.6026
  933MOL0     H25947   5.242   5.395   4.839  0.6383 -2.3875  1.7474
  933MOL0     H25948   5.358   5.386   4.966  2.2651 -0.4182 -1.8652
  933MOL0     H25949   5.349   5.624   4.778 -1.2253 -0.2668  0.7385
  933MOL0     H25950   5.429   5.471   4.742  1.1440  0.1833 -0.0047
  933MOL0     H25951   5.501   5.651   4.983  0.2038  1.1755 -0.6852
  933MOL0     H25952   5.580   5.647   4.825  0.1200 -0.7319 -0.2910
  933MOL0     H25953   5.741   5.297   5.001  0.5545 -0.3909 -0.3858
  933MOL0     H25954   4.953   5.314   5.131 -2.3936 -1.7902  0.3903
  933MOL0     H25955   4.729   5.226   5.046 -1.9186  0.6840 -0.8882
  934MOL0     O25956   8.860   1.614   4.656 -0.0206  0.1416  1.0211
  934MOL0     C25957   8.870   1.694   4.563 -0.7360  0.2440 -0.6025
  934MOL0     O25958   8.771   1.735   4.486  0.6357 -0.5554 -0.5679
  934MOL0     C25959   8.654   1.685   4.513 -0.3944  0.0442  0.0124
  934MOL0     C25960   8.580   1.714   4.633  0.6251  0.2974  0.0970
  934MOL0     C25961   8.451   1.686   4.642  0.1302 -0.8116  0.3185
  934MOL0     C25962   8.386   1.609   4.543  0.1207 -0.6113  0.0956
  934MOL0     O25963   8.253   1.574   4.537 -0.1154 -0.2528  0.5939
  934MOL0     C25964   8.178   1.567   4.655 -0.2653  0.1779  0.1783
  934MOL0     C25965   8.045   1.518   4.632 -0.4522  0.3570  0.2636
  934MOL0     C25966   8.048   1.370   4.586 -1.2895 -0.3883  1.1371
  934MOL0     C25967   7.905   1.326   4.564 -0.1092  0.8881 -0.1325
  934MOL0     C25968   7.836   1.396   4.444 -0.3062 -0.3576 -0.7958
  934MOL0     C25969   7.691   1.343   4.435 -0.1117 -0.3369 -0.1350
  934MOL0     C25970   7.615   1.411   4.321 -0.0200 -0.4237  0.2880
  934MOL0     C25971   7.565   1.553   4.346 -0.5045 -0.1902  0.4610
  934MOL0     N25972   7.444   1.575   4.256  0.2248 -0.7079 -0.0165
  934MOL0     C25973   7.317   1.563   4.304  0.3271 -0.0725 -0.2791
  934MOL0     C25974   7.243   1.615   4.201  0.3174 -0.5028  0.3894
  934MOL0     C25975   7.100   1.639   4.224  0.4621  0.5809  0.2570
  934MOL0     C25976   7.066   1.772   4.280 -0.3803 -0.5630  0.8405
  934MOL0     C25977   7.093   1.896   4.192 -0.3019 -0.2290  0.1212
  934MOL0     C25978   7.005   1.913   4.070 -0.0070  0.0781  0.0874
  934MOL0     O25979   6.863   1.935   4.100  1.4719  0.2725  0.3698
  934MOL0     C25980   6.764   1.923   4.002 -0.0338 -0.7837 -0.1314
  934MOL0     C25981   6.634   1.967   4.027  0.0560  0.7255 -0.1086
  934MOL0     C25982   6.531   1.956   3.928 -0.4423  0.7940 -0.2955
  934MOL0     C25983   6.387   1.989   3.967  0.3045  0.0662  0.2716
  934MOL0     C25984   6.557   1.890   3.806  0.1267 -0.3217  0.6086
  934MOL0     C25985   6.456   1.876   3.706 -0.4864 -0.4275  0.0058
  934MOL0     O25986   6.404   1.987   3.642 -0.1889  0.1279  0.0586
  934MOL0     C25987   6.283   1.960   3.575  0.3806  0.5374 -1.0092
  934MOL0     C25988   6.160   1.971   3.648  0.6826  0.2259 -0.5261
  934MOL0     C25989   6.037   1.945   3.583  0.1879  0.4865 -0.5204
  934MOL0     C25990   6.037   1.922   3.443 -0.1054 -0.1594  0.5342
  934MOL0     O25991   5.924   1.913   3.367  0.3527  0.5166  0.8952
  934MOL0     C25992   5.828   1.829   3.436 -1.0540  0.3877 -0.4102
  934MOL0     C25993   5.699   1.837   3.362 -0.2684  0.3036  0.2597
  934MOL0     C25994   5.633   1.972   3.391 -0.4578  1.0193 -0.3265
  934MOL0     C25995   5.547   2.013   3.276 -0.5973 -0.3893 -0.3434
  934MOL0     C25996   5.420   1.936   3.262  0.4817  0.6525  0.0080
  934MOL0     C25997   5.301   2.019   3.210  0.2476  0.0364  0.1501
  934MOL0     C25998   5.183   1.936   3.160 -0.0666 -0.4257  0.5707
  934MOL0     C25999   5.060   2.029   3.116 -0.6582 -0.4041 -0.4648
  934MOL0    Cl26000   4.992   2.092   3.268 -0.0290 -0.2941 -0.1968
  934MOL0     C26001   6.167   1.934   3.377  0.9793 -0.3140  0.7974
  934MOL0     C26002   6.285   1.944   3.437 -0.3743 -0.7406 -0.3578
  934MOL0     O26003   6.418   1.762   3.688 -0.4411 -0.1028  0.0179
  934MOL0     C26004   6.689   1.859   3.780 -0.3837  1.2424  0.5964
  934MOL0     C26005   6.790   1.871   3.873 -0.3210  0.3266  0.2381
  934MOL0     N26006   7.328   1.662   4.104  0.1459 -0.4370 -0.0378
  934MOL0     N26007   7.444   1.647   4.144 -0.0924 -0.2320 -0.0963
  934MOL0     C26008   8.458   1.572   4.424  0.2526  0.2523 -0.0890
  934MOL0     C26009   8.596   1.612   4.408 -0.8102 -0.7025  0.2373
  934MOL0     C26010   9.000   1.770   4.546 -0.3856  0.9475  0.1400
  934MOL0     C26011   9.033   1.829   4.422  0.2372 -0.8367  0.2999
  934MOL0     C26012   9.142   1.908   4.396 -0.0257  0.2805 -0.2122
  934MOL0     C26013   9.231   1.916   4.506 -0.2372 -0.1691  0.7212
  934MOL0     O26014   9.354   1.993   4.500  1.0948  0.2992 -0.4110
  934MOL0     C26015   9.396   2.030   4.368 -0.9000  0.5899 -0.0156
  934MOL0     C26016   9.551   2.054   4.352  0.0190 -0.4029 -0.1566
  934MOL0     C26017   9.626   1.932   4.410 -0.2206  0.6087  0.0467
  934MOL0     C26018   9.772   1.946   4.380  0.3823 -0.0755 -0.9191
  934MOL0     C26019   9.837   1.818   4.410 -0.3653  0.0672  0.0741
  934MOL0     C26020   9.891   1.711   4.426  0.0526  0.1096 -0.6591
  934MOL0     C26021   9.215   1.854   4.624  0.0591  0.9872  0.5495
  934MOL0     C26022   9.092   1.785   4.651 -1.2005  0.0214  0.5304
  934MOL0     H26023   8.623   1.777   4.710 -1.0289  2.1142 -0.3893
  934MOL0     H26024   8.402   1.732   4.728  3.0583  0.7829  1.2888
  934MOL0     H26025   8.231   1.521   4.739 -0.8342 -1.2425 -0.2122
  934MOL0     H26026   8.152   1.665   4.696 -0.2014  0.0215  0.6016
  934MOL0     H26027   7.994   1.513   4.729 -1.6320 -2.2686 -0.4162
  934MOL0     H26028   7.992   1.583   4.562  2.3729  1.6259 -0.8291
  934MOL0     H26029   8.108   1.368   4.495 -1.0636  0.6202  1.2481
  934MOL0     H26030   8.088   1.299   4.659  1.7214 -2.5202 -2.2542
  934MOL0     H26031   7.909   1.220   4.538 -0.3881  1.3589 -2.2798
  934MOL0     H26032   7.843   1.341   4.653 -1.1656 -1.8131 -0.3213
  934MOL0     H26033   7.831   1.505   4.454 -1.0426 -0.4949  0.6476
  934MOL0     H26034   7.897   1.365   4.359  1.1279 -1.8755  0.7252
  934MOL0     H26035   7.690   1.234   4.442 -1.1271 -0.3477 -0.3681
  934MOL0     H26036   7.646   1.369   4.532 -1.3888 -0.7100 -0.6122
  934MOL0     H26037   7.680   1.425   4.234  1.9010  1.8650  1.9757
  934MOL0     H26038   7.539   1.345   4.278  1.3155 -0.2031 -2.6650
  934MOL0     H26039   7.633   1.637   4.332 -2.1912  1.0775 -0.4054
  934MOL0     H26040   7.531   1.560   4.450 -0.2960  0.5610  0.4782
  934MOL0     H26041   7.281   1.527   4.400  0.3803  0.1099 -0.1892
  934MOL0     H26042   7.038   1.628   4.134  0.2921 -0.0432  0.4448
  934MOL0     H26043   7.050   1.564   4.287  1.8428 -1.2031 -0.6885
  934MOL0     H26044   7.131   1.785   4.367  5.3518 -0.2789 -2.9894
  934MOL0     H26045   6.959   1.768   4.305 -0.9842  0.1428 -1.4096
  934MOL0     H26046   7.193   1.895   4.150 -0.1945  0.2957  0.3441
  934MOL0     H26047   7.084   1.988   4.251 -1.9820 -0.2743 -0.0031
  934MOL0     H26048   7.026   1.820   4.016 -2.0009  0.0073 -0.6474
  934MOL0     H26049   7.040   2.001   4.016 -0.0866  0.5630  0.8076
  934MOL0     H26050   6.616   2.006   4.126  1.0983 -1.1424  0.8840
  934MOL0     H26051   6.402   2.051   4.056  3.6973 -0.4484  0.1884
  934MOL0     H26052   6.331   2.051   3.896  2.0770  1.6829  0.1941
  934MOL0     H26053   6.336   1.895   3.986  0.2003  0.0310 -0.1683
  934MOL0     H26054   6.157   1.991   3.755 -0.3767 -1.3805 -0.2322
  934MOL0     H26055   5.952   1.968   3.647  0.8697 -0.6112  0.8221
  934MOL0     H26056   5.856   1.723   3.435  1.4357  0.9257  1.6034
  934MOL0     H26057   5.809   1.855   3.540 -1.0662 -1.7978  0.1933
  934MOL0     H26058   5.721   1.827   3.255 -0.6632  0.1106  0.1991
  934MOL0     H26059   5.636   1.753   3.388  0.3337 -0.3621 -0.3797
  934MOL0     H26060   5.717   2.038   3.414  1.5225 -1.2975 -0.4601
  934MOL0     H26061   5.567   1.980   3.478 -0.0730 -1.0980  0.2162
  934MOL0     H26062   5.520   2.118   3.293  1.9821 -0.0198  2.4779
  934MOL0     H26063   5.608   2.025   3.186  1.9592  0.2034  1.3632
  934MOL0     H26064   5.381   1.896   3.356 -3.2675 -1.8877 -2.3490
  934MOL0     H26065   5.435   1.862   3.182 -1.0195 -1.6382  1.7167
  934MOL0     H26066   5.268   2.081   3.294  1.1903  1.3787 -0.4481
  934MOL0     H26067   5.334   2.085   3.130 -1.8341 -0.5155 -1.2587
  934MOL0     H26068   5.144   1.869   3.236 -2.5420 -0.7954 -0.8969
  934MOL0     H26069   5.215   1.877   3.073 -1.0485 -1.6408  1.0009
  934MOL0     H26070   4.983   1.976   3.059  0.6735 -2.1740 -0.7119
  934MOL0     H26071   5.089   2.108   3.046 -1.7495 -0.8886 -1.5032
  934MOL0     H26072   6.171   1.932   3.269 -0.4666 -1.4720  0.7331
  934MOL0     H26073   6.381   1.951   3.388 -0.0920 -0.7112  0.1835
  934MOL0     H26074   6.704   1.805   3.687  0.1528 -0.0759  1.4267
  934MOL0     H26075   6.885   1.832   3.838 -2.2524 -2.3518 -2.5534
  934MOL0     H26076   8.423   1.517   4.337  2.6739 -0.9537 -0.3945
  934MOL0     H26077   8.643   1.593   4.312 -1.6252 -1.4672 -0.0243
  934MOL0     H26078   8.957   1.817   4.345 -1.2990 -1.1853  1.8176
  934MOL0     H26079   9.162   1.961   4.303  1.0903  0.7035  0.2553
  934MOL0     H26080   9.386   1.939   4.308  1.1330  1.4908 -1.8882
  934MOL0     H26081   9.338   2.117   4.338  0.8083  2.6593  2.2870
  934MOL0     H26082   9.577   2.150   4.398 -0.7604 -1.3172  2.3112
  934MOL0     H26083   9.577   2.077   4.248 -0.3260  1.3658  0.1092
  934MOL0     H26084   9.584   1.842   4.365 -0.4529 -0.4112  2.1872
  934MOL0     H26085   9.597   1.911   4.514 -1.0456  1.1326 -0.0712
  934MOL0     H26086   9.815   2.023   4.445 -0.4269 -0.6584  0.3647
  934MOL0     H26087   9.803   1.970   4.278  1.8874  0.3525 -0.3858
  934MOL0     H26088   9.946   1.619   4.421  0.1152  0.2033 -2.4796
  934MOL0     H26089   9.297   1.850   4.694  1.2300 -0.3025 -0.8024
  934MOL0     H26090   9.072   1.753   4.752 -1.3195  1.2630  0.9161
  935MOL0     O26091  10.337  10.900   7.966  0.1285  0.0397  0.1690
  935MOL0     C26092  10.427  10.978   7.948 -0.6899  0.1652 -0.0468
  935MOL0     O26093  10.407  11.111   7.921  0.1097 -0.8857  0.4446
  935MOL0     C26094  10.284  11.159   7.902 -0.2470  0.0610  0.0520
  935MOL0     C26095  10.231  11.257   7.990  0.5923 -0.1000  0.4268
  935MOL0     C26096  10.116  11.329   7.953 -0.0965 -0.0967  0.9843
  935MOL0     C26097  10.056  11.300   7.832 -0.5766 -0.1942  0.4308
  935MOL0     O26098   9.955  11.362   7.769 -0.3989  0.0920 -0.5008
  935MOL0     C26099   9.887  11.460   7.844  0.3585 -0.2082 -0.7997
  935MOL0     C26100   9.812  11.551   7.738  0.0427 -0.3519  0.0957
  935MOL0     C26101   9.695  11.625   7.804 -0.1716  0.3559 -1.1900
  935MOL0     C26102   9.631  11.737   7.714  0.7526  0.1979 -0.1842
  935MOL0     C26103   9.528  11.813   7.785 -0.3248  0.2637  0.7500
  935MOL0     C26104   9.391  11.736   7.802  0.2501 -0.4724  0.7852
  935MOL0     C26105   9.300  11.808   7.889  0.8987 -0.2278  0.3066
  935MOL0     C26106   9.230  11.919   7.816  0.1404 -0.1833 -0.5362
  935MOL0     N26107   9.158  11.997   7.919 -0.8648 -0.2470 -0.0987
  935MOL0     C26108   9.024  12.002   7.943  0.6127 -0.2871 -0.1521
  935MOL0     C26109   9.003  12.098   8.039  0.2986 -0.3784  1.0774
  935MOL0     C26110   8.865  12.132   8.091  0.8159  0.4483 -0.3483
  935MOL0     C26111   8.826  12.051   8.211 -0.0977 -0.3029  0.3342
  935MOL0     C26112   8.687  12.090   8.272  0.2904 -0.4233 -0.5996
  935MOL0     C26113   8.565  12.037   8.203 -0.0576  0.1908  0.5632
  935MOL0     O26114   8.446  12.061   8.283  0.3615 -0.0437  0.8551
  935MOL0     C26115   8.314  12.048   8.228 -0.2534 -0.5235 -0.6983
  935MOL0     C26116   8.202  12.053   8.316  0.4536 -0.2888  0.0755
  935MOL0     C26117   8.075  12.050   8.265  0.8849  0.1167  0.4743
  935MOL0     C26118   7.967  12.046   8.372  0.1457 -0.7941  0.4446
  935MOL0     C26119   8.055  12.035   8.127  0.3478 -0.2885 -0.3209
  935MOL0     C26120   7.919  12.035   8.067  0.4380  0.6657  0.3445
  935MOL0     O26121   7.816  11.981   8.135 -0.0729 -0.5748  0.0087
  935MOL0     C26122   7.707  11.940   8.059 -0.2685  0.1333  1.1613
  935MOL0     C26123   7.699  11.827   7.973  0.2015 -0.2459  0.5664
  935MOL0     C26124   7.592  11.806   7.896  0.2256 -0.9226  0.1035
  935MOL0     C26125   7.477  11.893   7.906 -1.0305  0.4380 -1.1059
  935MOL0     O26126   7.355  11.877   7.838  0.2110  0.2114  0.1003
  935MOL0     C26127   7.249  11.850   7.935 -0.1119 -0.6193 -1.0412
  935MOL0     C26128   7.148  11.750   7.885 -0.0544 -0.3543 -0.6714
  935MOL0     C26129   7.049  11.802   7.776 -0.3393  0.0926  0.5128
  935MOL0     C26130   6.928  11.709   7.758 -0.1815 -0.5478 -0.4520
  935MOL0     C26131   6.834  11.769   7.656 -0.3495 -0.6262  0.6499
  935MOL0     C26132   6.721  11.674   7.623  0.4386 -0.3808  0.5051
  935MOL0     C26133   6.605  11.749   7.547  0.8115 -0.3447 -0.9910
  935MOL0     C26134   6.504  11.647   7.508 -0.4038  0.4842 -0.4618
  935MOL0    Cl26135   6.546  11.561   7.353  0.2010  0.3654  0.4797
  935MOL0     C26136   7.480  12.004   7.993  0.4803  0.3539 -0.3759
  935MOL0     C26137   7.596  12.030   8.063  0.2561 -0.4606  0.2760
  935MOL0     O26138   7.912  12.073   7.943 -0.0897  0.1193 -0.5823
  935MOL0     C26139   8.165  12.012   8.046  0.2475 -0.0998  0.5997
  935MOL0     C26140   8.294  12.013   8.099 -0.3550 -0.4823 -0.3816
  935MOL0     N26141   9.129  12.145   8.071  0.4580 -0.4187 -0.1101
  935MOL0     N26142   9.221  12.084   8.003  0.1560  0.4056  0.6480
  935MOL0     C26143  10.118  11.212   7.741 -0.3884 -0.7805 -0.5593
  935MOL0     C26144  10.228  11.138   7.784 -0.4591 -0.3119  0.8472
  935MOL0     C26145  10.572  10.927   7.957  0.4340 -0.8878  0.5381
  935MOL0     C26146  10.601  10.789   7.962  0.1067 -0.8939  0.0382
  935MOL0     C26147  10.732  10.743   7.974 -0.7491 -1.0029  0.6536
  935MOL0     C26148  10.844  10.836   7.969  0.4495  0.6467  0.5111
  935MOL0     O26149  10.976  10.806   7.962 -0.1338 -0.1694  0.4488
  935MOL0     C26150  11.026  10.680   7.993  0.3016 -0.3621 -0.3864
  935MOL0     C26151  11.068  10.605   7.871 -0.1723  0.0650  0.6264
  935MOL0     C26152  11.188  10.660   7.795  0.5748  0.3375  0.0685
  935MOL0     C26153  11.314  10.608   7.865 -0.1819 -0.5409 -0.6981
  935MOL0     C26154  11.342  10.477   7.836 -0.2977  0.5193 -0.1200
  935MOL0     C26155  11.380  10.370   7.800  1.3636  0.2327  0.0055
  935MOL0     C26156  10.810  10.968   7.965  0.9330 -0.0838 -0.0934
  935MOL0     C26157  10.676  11.021   7.953 -0.0770  0.4877  0.3168
  935MOL0     H26158  10.283  11.276   8.083 -0.0112 -0.7093  0.9015
  935MOL0     H26159  10.095  11.407   8.026  1.7887  0.2810  1.1741
  935MOL0     H26160   9.816  11.416   7.914 -1.2176  0.6250 -1.8136
  935MOL0     H26161   9.954  11.520   7.907 -1.4264 -0.1095  1.1152
  935MOL0     H26162   9.876  11.624   7.689 -0.9270  2.9046  3.2875
  935MOL0     H26163   9.771  11.495   7.653  0.7312  1.3783 -1.4330
  935MOL0     H26164   9.621  11.559   7.849  0.0866  0.5266 -0.4993
  935MOL0     H26165   9.735  11.680   7.890 -1.9292  1.1279 -0.8343
  935MOL0     H26166   9.707  11.805   7.675  0.0162  0.7833 -0.6322
  935MOL0     H26167   9.575  11.685   7.636  1.8804 -3.9639  1.5149
  935MOL0     H26168   9.565  11.852   7.881  1.3405  0.5187  0.0342
  935MOL0     H26169   9.514  11.904   7.725 -1.5810 -0.2270  0.2616
  935MOL0     H26170   9.344  11.718   7.705 -0.3976  1.5614  0.6890
  935MOL0     H26171   9.406  11.634   7.839 -0.5009 -1.2635 -0.9926
  935MOL0     H26172   9.220  11.737   7.912 -1.3465  2.3126  0.8560
  935MOL0     H26173   9.349  11.833   7.984 -1.7312  1.2315  1.3894
  935MOL0     H26174   9.171  11.873   7.737 -0.6755 -2.3278  1.2171
  935MOL0     H26175   9.307  11.981   7.769  0.8948  0.7978  1.8265
  935MOL0     H26176   8.955  11.973   7.865  0.2511  0.4429 -0.1074
  935MOL0     H26177   8.876  12.234   8.129 -1.2061 -0.1505  2.0801
  935MOL0     H26178   8.788  12.125   8.013 -1.1297  3.4798  1.0776
  935MOL0     H26179   8.900  12.067   8.289  0.3074 -0.9005  0.0768
  935MOL0     H26180   8.827  11.946   8.182  0.3317 -0.0774 -0.5252
  935MOL0     H26181   8.687  12.199   8.279  1.3693 -0.2985 -1.9987
  935MOL0     H26182   8.692  12.047   8.372 -0.8394  2.2918  0.7116
  935MOL0     H26183   8.576  11.931   8.175 -0.2722  0.0426  1.0282
  935MOL0     H26184   8.554  12.088   8.107  2.2100  0.2114  0.2580
  935MOL0     H26185   8.230  12.051   8.421  0.2826  0.4121  0.1383
  935MOL0     H26186   7.874  12.098   8.347  2.2071  1.4055 -3.7105
  935MOL0     H26187   7.952  11.941   8.398 -0.8361 -1.2553 -1.7269
  935MOL0     H26188   7.998  12.101   8.461  1.1341  0.1401 -0.4544
  935MOL0     H26189   7.777  11.753   7.953  1.8496  1.3672  0.7231
  935MOL0     H26190   7.593  11.723   7.826  0.5127 -0.9784  0.1728
  935MOL0     H26191   7.290  11.815   8.031  0.3860 -0.4171 -1.1783
  935MOL0     H26192   7.193  11.939   7.965  0.1298 -0.3998 -1.2309
  935MOL0     H26193   7.200  11.666   7.838  1.8921  1.2845 -1.6047
  935MOL0     H26194   7.092  11.707   7.968  4.4301 -1.2769  2.2440
  935MOL0     H26195   7.106  11.811   7.683 -1.4233 -0.1105 -0.1907
  935MOL0     H26196   7.007  11.900   7.801 -0.2237  0.7762 -1.7547
  935MOL0     H26197   6.962  11.606   7.741 -0.2455 -0.7445  0.5210
  935MOL0     H26198   6.871  11.701   7.851  0.2824 -2.6595 -0.2936
  935MOL0     H26199   6.888  11.808   7.569  0.2500 -0.9336  0.8807
  935MOL0     H26200   6.803  11.858   7.711  0.4313 -0.6924  1.2037
  935MOL0     H26201   6.761  11.605   7.549  2.3392 -0.4199  1.4956
  935MOL0     H26202   6.686  11.618   7.710  1.4632  1.5626  2.2744
  935MOL0     H26203   6.645  11.803   7.460  0.5815  1.1643 -0.1905
  935MOL0     H26204   6.554  11.821   7.612 -0.1397 -1.0595 -0.9251
  935MOL0     H26205   6.412  11.706   7.501 -0.0102  1.4854  1.8314
  935MOL0     H26206   6.484  11.583   7.595 -1.1866 -0.2065 -1.1446
  935MOL0     H26207   7.395  12.069   8.012  0.9968  1.4216 -1.5901
  935MOL0     H26208   7.603  12.124   8.117 -1.7557  0.7594 -1.4539
  935MOL0     H26209   8.155  12.007   7.938 -1.4581 -0.1311  0.7353
  935MOL0     H26210   8.374  11.997   8.027 -0.1228  0.8466 -0.4482
  935MOL0     H26211  10.086  11.205   7.638  0.2472 -1.8257 -0.7024
  935MOL0     H26212  10.274  11.081   7.705  0.9711  0.1444  1.3239
  935MOL0     H26213  10.522  10.714   7.961 -0.2872 -0.4991  1.0603
  935MOL0     H26214  10.746  10.636   7.977  0.2042 -0.9166 -0.0711
  935MOL0     H26215  11.113  10.684   8.059 -1.6739 -0.6558  2.4000
  935MOL0     H26216  10.961  10.620   8.056  1.8367 -0.5473  1.0916
  935MOL0     H26217  10.987  10.617   7.798  1.5720  2.0504 -1.1228
  935MOL0     H26218  11.078  10.498   7.890  1.4651  0.4490  2.2227
  935MOL0     H26219  11.187  10.770   7.798 -2.2666  0.3598  0.9152
  935MOL0     H26220  11.191  10.634   7.689  1.2038  0.7955 -0.0385
  935MOL0     H26221  11.321  10.614   7.973 -0.5736 -1.6015 -0.5961
  935MOL0     H26222  11.397  10.666   7.824 -0.6385  0.1647 -0.6387
  935MOL0     H26223  11.425  10.275   7.778  1.4019  0.3045 -0.2332
  935MOL0     H26224  10.883  11.048   7.962 -0.0717  0.9206  1.1158
  935MOL0     H26225  10.654  11.127   7.953  0.4229  0.6420  2.3658
  936MOL0     O26226  10.083   8.668   3.251  0.2970  0.0037 -0.0152
  936MOL0     C26227  10.061   8.788   3.240  0.3804 -0.1165  0.5101
  936MOL0     O26228  10.040   8.880   3.342 -0.9404  0.2251  0.2937
  936MOL0     C26229  10.072   8.827   3.470 -0.0488 -0.1879 -0.8373
  936MOL0     C26230   9.992   8.734   3.537  0.0019  0.0231 -0.1940
  936MOL0     C26231  10.004   8.712   3.681  0.2899 -0.7071 -0.3783
  936MOL0     C26232  10.117   8.763   3.738 -0.0373  0.4837 -0.2766
  936MOL0     O26233  10.149   8.749   3.869 -0.5295  0.0589  0.6457
  936MOL0     C26234  10.111   8.624   3.929  0.0027  0.3482 -0.4012
  936MOL0     C26235  10.150   8.639   4.077 -1.2006  0.0849  0.0016
  936MOL0     C26236  10.155   8.497   4.142 -0.6018 -0.3097 -0.6530
  936MOL0     C26237  10.246   8.500   4.268 -1.1094  0.2649  0.2689
  936MOL0     C26238  10.254   8.373   4.349  0.4498 -0.4440  0.2211
  936MOL0     C26239  10.312   8.399   4.487  0.6631 -0.5190  0.0849
  936MOL0     C26240  10.316   8.276   4.575 -0.1577  0.5035  0.6629
  936MOL0     C26241  10.181   8.201   4.599 -0.4008 -0.3685 -0.0776
  936MOL0     N26242  10.137   8.109   4.491 -1.2375 -1.0317 -0.3132
  936MOL0     C26243  10.187   7.987   4.470  0.5813  0.0772  0.3012
  936MOL0     C26244  10.078   7.924   4.418 -0.0609  1.0420 -0.0570
  936MOL0     C26245  10.093   7.786   4.360 -0.3120 -0.5733  0.1218
  936MOL0     C26246   9.959   7.714   4.381  0.1267  0.4196 -0.5421
  936MOL0     C26247   9.964   7.569   4.350  0.0309  0.7133 -0.2913
  936MOL0     C26248   9.831   7.502   4.364  0.1371  0.9954 -0.6786
  936MOL0     O26249   9.807   7.469   4.504 -0.5331  0.5603  0.2416
  936MOL0     C26250   9.679   7.477   4.552 -0.6148  0.3148 -0.3979
  936MOL0     C26251   9.613   7.355   4.581 -0.5298  0.2472 -0.0509
  936MOL0     C26252   9.481   7.359   4.631  0.5361  0.0949  1.0231
  936MOL0     C26253   9.418   7.226   4.654 -0.6327 -0.3599  0.3085
  936MOL0     C26254   9.423   7.488   4.666 -0.4732  0.2356  0.1740
  936MOL0     C26255   9.276   7.509   4.691 -1.2412 -1.1847  0.7329
  936MOL0     O26256   9.241   7.625   4.736 -0.2892  0.0076 -0.5908
  936MOL0     C26257   9.131   7.637   4.816 -0.1276  0.2623  0.7277
  936MOL0     C26258   9.067   7.756   4.819 -0.0511  0.4774 -0.5717
  936MOL0     C26259   8.942   7.775   4.890 -0.0357 -0.5594 -0.6253
  936MOL0     C26260   8.886   7.675   4.968 -0.3199  0.6641 -0.6066
  936MOL0     O26261   8.774   7.684   5.050 -0.1662  0.0381 -0.4414
  936MOL0     C26262   8.685   7.801   5.049  0.2863  0.1078 -0.1587
  936MOL0     C26263   8.574   7.792   5.147  0.0534  0.0035 -0.2269
  936MOL0     C26264   8.609   7.788   5.297 -0.1260 -0.5339  0.5840
  936MOL0     C26265   8.477   7.777   5.372  0.3571  0.7269  0.7581
  936MOL0     C26266   8.494   7.736   5.522 -0.4632 -0.2192 -0.1426
  936MOL0     C26267   8.362   7.700   5.586  0.1426  0.0463  0.3128
  936MOL0     C26268   8.306   7.572   5.540  0.1793  0.9645  0.7585
  936MOL0     C26269   8.166   7.547   5.586  0.0584  0.0023 -0.1656
  936MOL0    Cl26270   8.167   7.529   5.762 -0.3944 -0.5169  0.4489
  936MOL0     C26271   8.962   7.558   4.975 -0.1410  0.0245  0.2261
  936MOL0     C26272   9.081   7.534   4.896  0.6089  0.4896 -0.3219
  936MOL0     O26273   9.201   7.423   4.650 -0.1150  0.0882 -0.9587
  936MOL0     C26274   9.500   7.607   4.632  0.1410  0.3195 -0.3274
  936MOL0     C26275   9.626   7.598   4.581 -0.7369  0.0258 -0.0332
  936MOL0     N26276   9.974   8.011   4.406  0.1758  0.1770 -0.5831
  936MOL0     N26277  10.013   8.121   4.431  0.1260 -0.7439 -1.1146
  936MOL0     C26278  10.206   8.845   3.675 -0.8443 -0.3133  0.1537
  936MOL0     C26279  10.176   8.884   3.543  0.7194 -0.0132  0.1911
  936MOL0     C26280  10.062   8.841   3.102 -0.0390 -0.6155 -0.6357
  936MOL0     C26281  10.077   8.978   3.083  0.8026 -0.3001 -0.2364
  936MOL0     C26282  10.108   9.027   2.954  0.1224  0.1091 -0.2827
  936MOL0     C26283  10.095   8.940   2.839  0.2283  0.7488 -0.9680
  936MOL0     O26284  10.093   8.984   2.710 -0.2935 -0.0757  0.0442
  936MOL0     C26285  10.130   9.116   2.687  0.0916 -0.6567  0.4674
  936MOL0     C26286  10.094   9.151   2.544 -0.1819  0.8941 -0.5373
  936MOL0     C26287  10.195   9.102   2.450  0.1290 -0.2638  0.1255
  936MOL0     C26288  10.212   8.953   2.431  0.1059 -0.3427 -0.4274
  936MOL0     C26289  10.312   8.933   2.324  0.3517  0.2862  0.6200
  936MOL0     C26290  10.386   8.931   2.228 -0.1444 -0.3191 -0.1212
  936MOL0     C26291  10.063   8.809   2.866 -0.3670  0.2521  0.5103
  936MOL0     C26292  10.051   8.760   2.994  0.0634 -0.5224 -0.1261
  936MOL0     H26293   9.902   8.704   3.484 -1.7882  2.2420  1.4014
  936MOL0     H26294   9.927   8.649   3.726 -2.2845  1.2334 -1.7834
  936MOL0     H26295  10.007   8.592   3.926  0.3727 -1.6460  2.8080
  936MOL0     H26296  10.175   8.542   3.893  1.0461  1.3201 -0.8260
  936MOL0     H26297  10.247   8.687   4.090 -1.4443  0.6343 -0.1867
  936MOL0     H26298  10.083   8.701   4.138 -2.8906  0.2088 -1.8690
  936MOL0     H26299  10.055   8.461   4.167 -0.1579 -0.5059  0.9621
  936MOL0     H26300  10.190   8.424   4.069 -4.8155 -2.4312 -0.8166
  936MOL0     H26301  10.348   8.528   4.240 -0.6700 -1.6725 -0.2696
  936MOL0     H26302  10.210   8.578   4.335  1.8661  0.7278  1.5174
  936MOL0     H26303  10.150   8.341   4.362 -0.2440  1.7746  0.5083
  936MOL0     H26304  10.309   8.293   4.298  2.8135  0.3939  1.3270
  936MOL0     H26305  10.406   8.453   4.481 -0.5104  2.0072  2.2834
  936MOL0     H26306  10.245   8.467   4.540  1.0231  1.8635 -2.3211
  936MOL0     H26307  10.391   8.200   4.553 -1.7451 -0.3997 -2.1091
  936MOL0     H26308  10.350   8.332   4.663  0.1497  0.6991  0.4196
  936MOL0     H26309  10.096   8.265   4.626  0.9628  1.8097 -0.7154
  936MOL0     H26310  10.196   8.138   4.687  2.9238 -0.3419 -0.4959
  936MOL0     H26311  10.284   7.954   4.506  1.1460 -1.3115 -2.2974
  936MOL0     H26312  10.117   7.793   4.254  1.0136 -0.9359  0.3786
  936MOL0     H26313  10.180   7.748   4.414  1.3817  2.4521 -0.2562
  936MOL0     H26314   9.878   7.764   4.327 -1.3460  0.8521  1.8963
  936MOL0     H26315   9.931   7.721   4.487  1.0806  1.4119 -0.3388
  936MOL0     H26316  10.036   7.513   4.411 -0.3379  2.8026  2.2367
  936MOL0     H26317   9.994   7.570   4.245 -1.3834 -1.5703 -0.7692
  936MOL0     H26318   9.839   7.402   4.319 -1.4244  0.2326  0.6197
  936MOL0     H26319   9.753   7.557   4.311 -1.6691 -1.7297 -1.0849
  936MOL0     H26320   9.664   7.261   4.561  0.7946  1.2549 -1.6651
  936MOL0     H26321   9.340   7.201   4.582 -0.0720 -0.9468 -0.1055
  936MOL0     H26322   9.500   7.156   4.639 -0.0894  0.0396  1.2961
  936MOL0     H26323   9.385   7.221   4.759 -0.1094  1.1058  0.5634
  936MOL0     H26324   9.111   7.838   4.764  1.2025  0.5550  0.4860
  936MOL0     H26325   8.894   7.872   4.898 -0.5480 -0.9659  3.2728
  936MOL0     H26326   8.751   7.882   5.082  0.0757  1.4980 -2.8195
  936MOL0     H26327   8.636   7.827   4.954 -0.7923 -2.3727 -0.3647
  936MOL0     H26328   8.510   7.879   5.136  1.6909  1.3205  0.2072
  936MOL0     H26329   8.517   7.703   5.120  0.8512  0.3853 -3.6699
  936MOL0     H26330   8.666   7.873   5.336  0.6445 -1.5329  1.6868
  936MOL0     H26331   8.664   7.694   5.307 -0.4788 -0.9906 -1.3599
  936MOL0     H26332   8.434   7.878   5.372 -2.0315 -0.1757 -1.9599
  936MOL0     H26333   8.405   7.711   5.324 -2.6031  1.5454  3.7058
  936MOL0     H26334   8.534   7.821   5.577 -1.9625 -0.1229  0.8446
  936MOL0     H26335   8.559   7.649   5.534  0.3061  0.4847  1.0561
  936MOL0     H26336   8.388   7.702   5.692  2.2537 -0.4240 -0.1572
  936MOL0     H26337   8.289   7.780   5.571  0.5476  0.3604  0.0174
  936MOL0     H26338   8.363   7.485   5.572  0.1762  0.7945  0.2976
  936MOL0     H26339   8.300   7.569   5.431  1.5872  4.2676  0.4580
  936MOL0     H26340   8.135   7.450   5.546 -0.1316  0.5971 -1.5333
  936MOL0     H26341   8.101   7.631   5.559  0.3623  1.7544  3.8326
  936MOL0     H26342   8.932   7.479   5.043  0.2598  0.3482  0.7829
  936MOL0     H26343   9.121   7.433   4.889  1.3404  0.8460 -1.5495
  936MOL0     H26344   9.465   7.709   4.647  1.0085  0.8177 -1.5203
  936MOL0     H26345   9.691   7.684   4.568 -0.0319 -0.6429 -1.0596
  936MOL0     H26346  10.288   8.888   3.731 -1.0844  0.5811 -0.1658
  936MOL0     H26347  10.245   8.945   3.486 -0.0041 -2.6939 -4.0137
  936MOL0     H26348  10.075   9.046   3.168 -1.7114 -0.5561 -0.0313
  936MOL0     H26349  10.127   9.133   2.938  0.5328 -0.3142 -3.0640
  936MOL0     H26350  10.064   9.178   2.748  0.5898 -0.8361  1.2054
  936MOL0     H26351  10.234   9.144   2.708  1.3192 -4.5457  0.3302
  936MOL0     H26352  10.094   9.260   2.546  1.1230  0.9119 -0.6361
  936MOL0     H26353   9.989   9.126   2.524 -0.7035  2.7367 -0.3172
  936MOL0     H26354  10.289   9.148   2.484  0.7170 -0.6370 -0.9414
  936MOL0     H26355  10.186   9.157   2.356  0.9910  2.3901  1.4730
  936MOL0     H26356  10.116   8.912   2.399 -1.4410  2.4471  0.3960
  936MOL0     H26357  10.247   8.904   2.523  2.1779  0.7843 -0.5626
  936MOL0     H26358  10.439   8.950   2.137 -1.7554 -1.0384 -1.2611
  936MOL0     H26359  10.040   8.752   2.777 -0.1242  1.5633 -0.4265
  936MOL0     H26360  10.020   8.657   3.010  0.3944 -0.8224 -1.3259
  937MOL0     O26361   2.946   8.318   1.503  0.0811 -0.0667 -0.2022
  937MOL0     C26362   2.959   8.414   1.580 -0.4904 -0.0147  0.6543
  937MOL0     O26363   2.867   8.469   1.659 -1.1263 -0.0058 -0.5641
  937MOL0     C26364   2.735   8.459   1.639 -0.4641 -0.1841 -0.8471
  937MOL0     C26365   2.664   8.402   1.533  0.1891  0.2651  0.2052
  937MOL0     C26366   2.526   8.379   1.539  0.0139 -0.2909  0.2287
  937MOL0     C26367   2.466   8.426   1.656  0.5216  0.2923 -0.0819
  937MOL0     O26368   2.329   8.400   1.658 -0.7983 -0.0529 -0.4924
  937MOL0     C26369   2.284   8.318   1.768 -0.5986  0.6168  0.1196
  937MOL0     C26370   2.136   8.285   1.753  0.1993  0.1325  0.5380
  937MOL0     C26371   2.036   8.410   1.730 -0.2245 -0.3935  0.0419
  937MOL0     C26372   2.047   8.463   1.586 -0.1604 -0.6492  0.3264
  937MOL0     C26373   1.948   8.570   1.549 -0.2687  0.2432 -0.7517
  937MOL0     C26374   1.973   8.699   1.627  0.0689 -0.3712 -0.0250
  937MOL0     C26375   1.875   8.712   1.743 -0.5525 -0.3776 -0.7291
  937MOL0     C26376   1.727   8.732   1.693  0.2577  0.3337 -0.4442
  937MOL0     N26377   1.670   8.856   1.733 -0.6023  0.1161  0.8297
  937MOL0     C26378   1.603   8.876   1.848  0.1554  0.9716 -0.0342
  937MOL0     C26379   1.610   9.008   1.876  0.1398 -0.7030 -0.6743
  937MOL0     C26380   1.541   9.088   1.974  0.9085 -0.3449 -0.5904
  937MOL0     C26381   1.582   9.069   2.131 -0.6938  0.5773  1.3019
  937MOL0     C26382   1.486   9.149   2.226  0.0811 -0.3938  0.1582
  937MOL0     C26383   1.401   9.053   2.310  0.1747  0.3639  0.2675
  937MOL0     O26384   1.310   8.993   2.225  0.2654 -0.0483  0.6597
  937MOL0     C26385   1.210   8.914   2.276 -0.0318 -0.3009  0.2705
  937MOL0     C26386   1.206   8.870   2.408 -0.0214  0.2787  1.1214
  937MOL0     C26387   1.098   8.790   2.458  0.3832 -0.4159  0.4112
  937MOL0     C26388   1.094   8.759   2.605 -0.4586 -0.5004  0.4857
  937MOL0     C26389   0.990   8.769   2.366 -0.2151  0.3031 -0.0942
  937MOL0     C26390   0.864   8.698   2.418 -0.3987  0.6323 -0.1535
  937MOL0     O26391   0.741   8.734   2.363  0.0526 -0.1964 -0.3389
  937MOL0     C26392   0.626   8.717   2.440 -0.8576 -0.6473 -0.3037
  937MOL0     C26393   0.623   8.747   2.582 -0.0886  0.8285  0.9340
  937MOL0     C26394   0.502   8.741   2.643 -0.7464 -0.6262  0.6407
  937MOL0     C26395   0.383   8.710   2.576 -0.1124  0.3808 -0.1890
  937MOL0     O26396   0.262   8.706   2.636  0.0375  0.4427  0.1105
  937MOL0     C26397   0.253   8.766   2.764 -0.1677 -0.9761 -0.1014
  937MOL0     C26398   0.115   8.770   2.841  0.4796  0.5158 -0.3769
  937MOL0     C26399   0.037   8.640   2.833  0.1668 -0.7032 -0.0038
  937MOL0     C26400  -0.102   8.654   2.894  0.3537  0.3027 -0.6462
  937MOL0     C26401  -0.174   8.517   2.893  0.4061 -0.1448  0.9145
  937MOL0     C26402  -0.316   8.528   2.940 -0.6421 -0.3252  0.6576
  937MOL0     C26403  -0.395   8.400   2.956 -0.5733 -1.3032 -1.1453
  937MOL0     C26404  -0.539   8.446   3.002  0.8109  0.6332  0.4322
  937MOL0    Cl26405  -0.627   8.299   3.035  0.0932  0.0778 -0.1443
  937MOL0     C26406   0.393   8.683   2.448 -0.9063  0.1023  0.7137
  937MOL0     C26407   0.516   8.686   2.371  0.4425  0.2624 -0.2826
  937MOL0     O26408   0.882   8.602   2.497 -0.6250 -0.5761 -0.1324
  937MOL0     C26409   0.996   8.820   2.239 -0.4266 -0.4162 -0.4187
  937MOL0     C26410   1.103   8.896   2.196  0.6855 -0.4386  0.0847
  937MOL0     N26411   1.684   9.071   1.778 -0.0455 -0.1860  0.2418
  937MOL0     N26412   1.722   8.981   1.694  0.5517  0.3962 -0.8733
  937MOL0     C26413   2.531   8.487   1.755  0.1967 -0.1751  0.2929
  937MOL0     C26414   2.669   8.518   1.750  0.5526 -0.0223 -0.1909
  937MOL0     C26415   3.091   8.479   1.594 -0.0680  0.2593  0.2991
  937MOL0     C26416   3.204   8.435   1.525  0.0597  0.1809 -0.4231
  937MOL0     C26417   3.328   8.498   1.530 -0.0660  0.3826 -0.6510
  937MOL0     C26418   3.345   8.604   1.612 -0.1193  0.3695 -0.8284
  937MOL0     O26419   3.464   8.667   1.630  0.6259 -0.2694  0.0379
  937MOL0     C26420   3.582   8.619   1.561 -0.1692  0.4299  0.5624
  937MOL0     C26421   3.698   8.706   1.612  0.2145 -0.9178 -0.3380
  937MOL0     C26422   3.839   8.644   1.576 -0.2474  0.1496  0.5637
  937MOL0     C26423   3.954   8.747   1.559  0.1213  0.4480  0.5569
  937MOL0     C26424   4.072   8.686   1.494  0.6402  0.2688 -0.2153
  937MOL0     C26425   4.174   8.638   1.444 -0.1271 -0.1286 -0.5742
  937MOL0     C26426   3.232   8.659   1.671  0.3701  0.0666 -0.1219
  937MOL0     C26427   3.109   8.597   1.666  0.0010 -0.4938  0.0010
  937MOL0     H26428   2.722   8.376   1.445  0.3196 -0.4338  0.4877
  937MOL0     H26429   2.467   8.324   1.466 -0.6129 -0.4878  0.8825
  937MOL0     H26430   2.336   8.222   1.766 -2.5963 -0.5756  1.5895
  937MOL0     H26431   2.302   8.370   1.863 -0.5659  3.4887 -1.3582
  937MOL0     H26432   2.129   8.222   1.664 -1.1077 -0.8436  1.2867
  937MOL0     H26433   2.099   8.229   1.840 -0.4570 -2.2431 -1.1717
  937MOL0     H26434   1.932   8.380   1.745 -0.1911 -0.2196  0.6265
  937MOL0     H26435   2.050   8.485   1.808 -2.0568 -1.4439  1.4941
  937MOL0     H26436   2.147   8.498   1.556 -1.4413  1.8979 -1.3740
  937MOL0     H26437   2.031   8.370   1.532  3.1040 -1.8657  1.2164
  937MOL0     H26438   1.975   8.596   1.446  1.1382 -0.8502 -0.6905
  937MOL0     H26439   1.850   8.523   1.563  1.7344 -4.0181  0.9107
  937MOL0     H26440   2.074   8.703   1.669  0.0445 -0.8996  0.0954
  937MOL0     H26441   1.959   8.785   1.561 -0.6656  0.1891  0.8505
  937MOL0     H26442   1.878   8.623   1.806 -3.7483 -0.9752 -1.2879
  937MOL0     H26443   1.904   8.805   1.793  1.6791  0.5396 -3.4573
  937MOL0     H26444   1.659   8.658   1.735  2.1847 -0.9863  0.5406
  937MOL0     H26445   1.724   8.726   1.583  0.1784  2.9505 -0.6439
  937MOL0     H26446   1.564   8.805   1.920 -1.8041  1.0060 -0.9846
  937MOL0     H26447   1.566   9.190   1.942 -0.9602 -0.1278 -1.4955
  937MOL0     H26448   1.433   9.070   1.969  0.7536  0.4652 -0.2808
  937MOL0     H26449   1.687   9.100   2.136 -0.5139  0.0539  0.8692
  937MOL0     H26450   1.580   8.963   2.157  3.8344  0.0231  0.2525
  937MOL0     H26451   1.412   9.201   2.164 -1.4485 -1.8067  0.7295
  937MOL0     H26452   1.538   9.220   2.291 -0.1528 -0.5056  0.4727
  937MOL0     H26453   1.334   9.107   2.377 -1.0167 -0.7310  0.0007
  937MOL0     H26454   1.459   8.989   2.378 -1.6607  0.3946  1.9493
  937MOL0     H26455   1.277   8.892   2.487 -0.6621 -1.8617  2.4014
  937MOL0     H26456   1.183   8.799   2.654 -3.0413  3.3973  2.4519
  937MOL0     H26457   1.008   8.792   2.663 -1.1670 -0.8145 -0.3691
  937MOL0     H26458   1.089   8.650   2.621  0.4576 -0.8074 -1.1178
  937MOL0     H26459   0.717   8.754   2.636 -0.5062 -2.5082  2.3203
  937MOL0     H26460   0.500   8.752   2.751  0.6770 -1.7612  0.8204
  937MOL0     H26461   0.319   8.713   2.834 -0.6772 -3.3166 -1.2811
  937MOL0     H26462   0.283   8.870   2.751  0.2176 -1.3683 -2.9834
  937MOL0     H26463   0.118   8.801   2.946  3.7786  2.0141 -0.7630
  937MOL0     H26464   0.056   8.847   2.791 -3.0109 -2.4288 -1.2068
  937MOL0     H26465   0.090   8.558   2.883 -0.9602 -1.6885 -0.3830
  937MOL0     H26466   0.010   8.615   2.730 -4.6277  1.3891  0.4948
  937MOL0     H26467  -0.101   8.695   2.995 -0.6521 -0.0912 -0.4604
  937MOL0     H26468  -0.158   8.715   2.822 -1.5928  0.4066  0.8714
  937MOL0     H26469  -0.124   8.447   2.961  0.2081 -2.2531 -1.0044
  937MOL0     H26470  -0.173   8.472   2.793 -1.9835  1.7893 -0.0865
  937MOL0     H26471  -0.307   8.566   3.042  3.2568 -0.7217  0.5960
  937MOL0     H26472  -0.376   8.590   2.873 -0.3299 -1.8343 -1.0790
  937MOL0     H26473  -0.350   8.335   3.031 -1.6719  0.2714  0.9911
  937MOL0     H26474  -0.398   8.349   2.859 -0.4444  0.1649 -1.9539
  937MOL0     H26475  -0.591   8.500   2.922 -0.7923 -1.4303 -0.0122
  937MOL0     H26476  -0.528   8.516   3.085  0.5292 -0.4566  1.4088
  937MOL0     H26477   0.308   8.659   2.386  0.7746  1.4397 -2.3606
  937MOL0     H26478   0.526   8.675   2.264  0.4991  3.1507 -0.6405
  937MOL0     H26479   0.912   8.793   2.175 -1.2021  2.0724 -0.5566
  937MOL0     H26480   1.099   8.941   2.097 -1.2331  1.4271  0.9329
  937MOL0     H26481   2.467   8.525   1.834 -2.3249 -1.8212 -0.8231
  937MOL0     H26482   2.711   8.570   1.835  0.1795 -2.6890  1.7562
  937MOL0     H26483   3.203   8.351   1.457  2.1771  0.9008 -1.4221
  937MOL0     H26484   3.415   8.456   1.481 -1.1572 -0.5288 -1.8840
  937MOL0     H26485   3.599   8.516   1.593 -1.4009 -0.7401 -2.1720
  937MOL0     H26486   3.588   8.635   1.453  0.7376 -2.2178  0.1502
  937MOL0     H26487   3.684   8.720   1.720  0.6223  2.8935 -0.6281
  937MOL0     H26488   3.699   8.803   1.561  3.2342 -0.2893  0.7014
  937MOL0     H26489   3.829   8.589   1.482  1.9029  0.8584 -0.1389
  937MOL0     H26490   3.882   8.579   1.653  3.7958  2.0405  0.1652
  937MOL0     H26491   3.975   8.788   1.658 -1.2967 -0.5822  1.3224
  937MOL0     H26492   3.918   8.822   1.488  0.3228  0.1352  0.1170
  937MOL0     H26493   4.265   8.604   1.398  0.4518  0.3925  0.1629
  937MOL0     H26494   3.240   8.748   1.732 -1.1974  0.1245  0.0516
  937MOL0     H26495   3.031   8.647   1.723  1.7699  2.5741 -0.0456
  938MOL0     O26496   4.160   2.749   3.013  0.1183  0.6205  0.3917
  938MOL0     C26497   4.251   2.772   2.934  0.5604 -1.1781 -0.9180
  938MOL0     O26498   4.258   2.739   2.802 -0.1509 -1.0220 -1.1576
  938MOL0     C26499   4.152   2.684   2.738 -0.0976  0.0879 -0.7763
  938MOL0     C26500   4.177   2.603   2.627  0.3654 -0.4855 -0.0669
  938MOL0     C26501   4.065   2.543   2.559  0.2553 -0.0240 -0.0179
  938MOL0     C26502   3.942   2.559   2.602  0.7350 -0.2226  0.5082
  938MOL0     O26503   3.853   2.493   2.524  0.6748  0.6332 -0.1272
  938MOL0     C26504   3.707   2.515   2.535  0.0182 -0.6468  0.2169
  938MOL0     C26505   3.650   2.426   2.650 -0.1877  0.5162 -0.3614
  938MOL0     C26506   3.499   2.437   2.652 -0.2488  0.2158 -1.0463
  938MOL0     C26507   3.437   2.322   2.567 -0.1410 -0.2269 -0.3173
  938MOL0     C26508   3.289   2.331   2.559  0.8843  0.0310 -0.6111
  938MOL0     C26509   3.222   2.212   2.480 -0.6397 -0.9402 -0.0109
  938MOL0     C26510   3.081   2.196   2.523 -0.9139 -0.6139 -0.2379
  938MOL0     C26511   3.014   2.085   2.444  0.8408  0.8027  0.2691
  938MOL0     N26512   2.873   2.061   2.470  0.2332 -0.5599 -0.2614
  938MOL0     C26513   2.810   2.061   2.592  0.0753 -0.0490  0.2482
  938MOL0     C26514   2.676   2.064   2.567 -0.2801  0.5248 -0.1919
  938MOL0     C26515   2.575   2.062   2.680  0.1514 -0.0859  0.6820
  938MOL0     C26516   2.427   2.047   2.624  0.0733  0.0216 -0.3211
  938MOL0     C26517   2.391   1.906   2.564 -0.5582  0.0811  0.2619
  938MOL0     C26518   2.249   1.916   2.502  0.9867  0.7750  0.0992
  938MOL0     O26519   2.204   1.783   2.470  0.2941  0.6059 -0.3351
  938MOL0     C26520   2.069   1.757   2.445 -0.0586 -0.7786  0.1837
  938MOL0     C26521   2.014   1.626   2.456  0.2446  0.1661 -0.0307
  938MOL0     C26522   1.884   1.593   2.413  0.2621 -0.3291 -0.1424
  938MOL0     C26523   1.853   1.442   2.395  0.0384  0.6124 -0.9613
  938MOL0     C26524   1.795   1.695   2.365  0.7115  0.2058  0.0881
  938MOL0     C26525   1.659   1.672   2.309  0.5023  0.2163  0.2750
  938MOL0     O26526   1.622   1.772   2.221 -0.0700 -0.0585 -0.2183
  938MOL0     C26527   1.498   1.771   2.163  0.0664  0.2902 -0.5142
  938MOL0     C26528   1.499   1.815   2.030 -0.3735  0.0163  0.3145
  938MOL0     C26529   1.377   1.827   1.965  0.3469 -0.4193  1.0663
  938MOL0     C26530   1.259   1.782   2.024  0.8780 -0.1866 -0.1627
  938MOL0     O26531   1.135   1.807   1.964 -0.7798  0.2990  0.2158
  938MOL0     C26532   1.132   1.862   1.835  0.3909  0.1505 -0.8066
  938MOL0     C26533   1.005   1.802   1.777 -0.9731 -0.2361  0.3098
  938MOL0     C26534   1.013   1.760   1.625 -0.4309 -0.2488  0.0042
  938MOL0     C26535   0.871   1.762   1.571 -0.7073 -0.1864  0.8571
  938MOL0     C26536   0.896   1.726   1.419  0.3278  0.3419 -0.1557
  938MOL0     C26537   0.763   1.724   1.330 -0.4917  0.3459 -0.4159
  938MOL0     C26538   0.805   1.762   1.192 -0.3953  0.4711 -1.4318
  938MOL0     C26539   0.684   1.751   1.103  0.1635 -1.0534  0.9124
  938MOL0    Cl26540   0.600   1.599   1.121  0.3879  0.1050 -0.3797
  938MOL0     C26541   1.257   1.726   2.155  0.0168  0.4789 -0.1030
  938MOL0     C26542   1.377   1.721   2.225 -0.1720 -0.2049  0.5990
  938MOL0     O26543   1.588   1.574   2.336  0.3096 -0.3303  0.5514
  938MOL0     C26544   1.840   1.823   2.369  0.0146 -0.4574 -0.0227
  938MOL0     C26545   1.975   1.852   2.403 -0.3763 -0.6548  0.3718
  938MOL0     N26546   2.660   2.073   2.433  0.1609  0.2994  0.1618
  938MOL0     N26547   2.773   2.064   2.376 -0.7052  0.0030  0.8874
  938MOL0     C26548   3.922   2.651   2.704 -0.3402 -0.1148  0.3293
  938MOL0     C26549   4.020   2.717   2.773 -0.2541 -0.5401  0.8276
  938MOL0     C26550   4.367   2.844   2.991 -0.3736 -0.2351 -0.6916
  938MOL0     C26551   4.463   2.902   2.914 -0.0717 -0.8428  0.5334
  938MOL0     C26552   4.567   2.974   2.970  0.7789 -0.3304 -0.5846
  938MOL0     C26553   4.582   2.984   3.112  0.4805  0.6387 -0.1132
  938MOL0     O26554   4.686   3.050   3.161  0.1109 -0.1369 -0.1133
  938MOL0     C26555   4.676   3.112   3.292  0.3894  0.1888  0.2747
  938MOL0     C26556   4.807   3.182   3.322 -0.4502 -0.9994  0.2999
  938MOL0     C26557   4.923   3.085   3.354 -0.0387 -0.1357  0.0366
  938MOL0     C26558   5.050   3.160   3.398  0.4915  0.1141 -0.7141
  938MOL0     C26559   5.120   3.221   3.284 -0.1479 -0.0592  0.1721
  938MOL0     C26560   5.194   3.274   3.206 -0.3247  0.5457  0.3562
  938MOL0     C26561   4.477   2.929   3.189 -0.0860 -0.2407 -0.3347
  938MOL0     C26562   4.372   2.864   3.131  0.0495  0.4597  0.0024
  938MOL0     H26563   4.280   2.593   2.592  0.2887  1.5576 -1.0131
  938MOL0     H26564   4.079   2.486   2.467 -0.5074 -0.8090  0.3386
  938MOL0     H26565   3.674   2.618   2.551  1.4518 -0.3331  1.3637
  938MOL0     H26566   3.661   2.493   2.438  0.0528  0.3684 -0.0385
  938MOL0     H26567   3.676   2.323   2.624 -2.8309  0.0972 -1.7567
  938MOL0     H26568   3.692   2.464   2.743  1.7661 -1.0671 -0.5442
  938MOL0     H26569   3.465   2.436   2.756 -2.5116  0.0304 -1.7410
  938MOL0     H26570   3.469   2.536   2.616 -1.7273 -0.0164 -0.5402
  938MOL0     H26571   3.474   2.329   2.465  0.2800 -0.3657 -0.1783
  938MOL0     H26572   3.465   2.225   2.610 -0.9539  0.1766  1.2187
  938MOL0     H26573   3.244   2.335   2.658 -0.7504  1.0580 -1.3485
  938MOL0     H26574   3.264   2.426   2.509  3.1517  1.4026  0.6715
  938MOL0     H26575   3.213   2.237   2.374  0.8874 -0.1113  0.0373
  938MOL0     H26576   3.289   2.126   2.482  1.5034  0.6032 -1.9048
  938MOL0     H26577   3.090   2.169   2.629  0.4005  0.0689 -0.1569
  938MOL0     H26578   3.029   2.291   2.511 -0.6907 -0.2463  1.4182
  938MOL0     H26579   3.067   1.991   2.466 -2.2156 -0.8466  1.1857
  938MOL0     H26580   3.034   2.097   2.337  3.2061  0.3369  0.5828
  938MOL0     H26581   2.855   2.043   2.689 -2.4757 -2.5234  1.1245
  938MOL0     H26582   2.603   1.990   2.757 -0.8275  0.3468  1.4554
  938MOL0     H26583   2.574   2.154   2.738 -1.3634 -0.1332  0.7679
  938MOL0     H26584   2.417   2.120   2.543  1.4639 -1.8552 -2.2948
  938MOL0     H26585   2.367   2.074   2.711  0.6510 -1.5680  0.6048
  938MOL0     H26586   2.382   1.830   2.642  0.2940  1.6374  1.9460
  938MOL0     H26587   2.463   1.878   2.487  0.5437  1.0926  0.8821
  938MOL0     H26588   2.251   1.982   2.415 -2.3453  1.6226  0.5133
  938MOL0     H26589   2.184   1.948   2.584  0.8583 -1.4461  0.9477
  938MOL0     H26590   2.077   1.544   2.487  1.2533 -1.0983 -4.6506
  938MOL0     H26591   1.763   1.432   2.457  1.6662  3.6224  2.2494
  938MOL0     H26592   1.828   1.412   2.293 -0.6937 -2.0231 -0.0965
  938MOL0     H26593   1.927   1.372   2.434  0.5756  0.5059 -2.1519
  938MOL0     H26594   1.591   1.857   1.992  0.3745  0.1803  2.2040
  938MOL0     H26595   1.384   1.873   1.867  0.4548 -3.4741 -0.4796
  938MOL0     H26596   1.126   1.971   1.851 -1.6471  0.3760 -2.6538
  938MOL0     H26597   1.212   1.839   1.765  0.2689  1.7142 -1.5054
  938MOL0     H26598   0.987   1.702   1.817 -1.8765 -1.4003 -2.7595
  938MOL0     H26599   0.918   1.864   1.800 -0.2089  1.4347 -1.0780
  938MOL0     H26600   1.057   1.660   1.621  0.0578 -0.0206 -0.4065
  938MOL0     H26601   1.070   1.834   1.568 -0.3329  0.4274  0.9537
  938MOL0     H26602   0.804   1.690   1.618  0.9858 -0.0004  3.8034
  938MOL0     H26603   0.823   1.861   1.579  0.1337  0.0756  3.4024
  938MOL0     H26604   0.941   1.627   1.415  0.4693  0.1945  2.9014
  938MOL0     H26605   0.966   1.797   1.372 -0.7838  0.3280 -1.9182
  938MOL0     H26606   0.724   1.623   1.325 -0.3543  0.3388 -1.9319
  938MOL0     H26607   0.682   1.788   1.367 -0.0028  0.2707  0.8404
  938MOL0     H26608   0.887   1.696   1.163 -1.2857 -0.1043 -2.7326
  938MOL0     H26609   0.837   1.866   1.194  2.6059 -0.3712  0.0049
  938MOL0     H26610   0.709   1.768   0.998 -1.6281  2.1650  0.8742
  938MOL0     H26611   0.611   1.829   1.126 -1.2573 -2.1069  0.1227
  938MOL0     H26612   1.153   1.716   2.186 -0.7588  1.6869 -2.1099
  938MOL0     H26613   1.373   1.700   2.331  1.4968  0.0583  0.7365
  938MOL0     H26614   1.778   1.906   2.336 -0.6687 -1.2817 -0.8642
  938MOL0     H26615   2.009   1.953   2.383  0.0871 -0.5219  1.7200
  938MOL0     H26616   3.821   2.684   2.728 -1.4788 -1.9877 -1.5562
  938MOL0     H26617   3.997   2.795   2.846  2.9426  2.5545 -1.2075
  938MOL0     H26618   4.461   2.896   2.806 -1.5949 -1.6474  0.5783
  938MOL0     H26619   4.641   3.021   2.906  2.1155 -2.3388 -0.6058
  938MOL0     H26620   4.588   3.178   3.286 -0.6612 -1.0325  1.4752
  938MOL0     H26621   4.641   3.042   3.369 -0.5546 -0.6431 -0.8749
  938MOL0     H26622   4.793   3.256   3.401 -0.1923  1.7167 -2.0512
  938MOL0     H26623   4.831   3.241   3.233 -0.7815 -2.8699 -1.0912
  938MOL0     H26624   4.940   3.026   3.263 -1.5177  0.8809 -0.9517
  938MOL0     H26625   4.883   3.022   3.434 -1.3154 -0.0991 -0.5516
  938MOL0     H26626   5.110   3.090   3.457 -1.7656 -1.1303  0.2468
  938MOL0     H26627   5.014   3.235   3.470 -2.4058 -2.7370  1.0752
  938MOL0     H26628   5.243   3.321   3.123 -2.6369  2.5741 -0.0081
  938MOL0     H26629   4.460   2.916   3.295  0.9115  1.2218  0.0312
  938MOL0     H26630   4.296   2.815   3.193 -0.0827 -0.0817 -0.5734
  939MOL0     O26631   2.120   3.299   8.816 -0.1911 -0.0113 -0.4524
  939MOL0     C26632   2.185   3.331   8.918 -0.0228 -0.1423  0.6446
  939MOL0     O26633   2.148   3.297   9.048  0.2702  0.6194  0.3368
  939MOL0     C26634   2.017   3.276   9.086  0.5267  0.3771  0.0050
  939MOL0     C26635   1.904   3.278   9.001  0.3499  1.0755 -1.2918
  939MOL0     C26636   1.769   3.254   9.050 -0.8480  0.0639  0.0423
  939MOL0     C26637   1.743   3.218   9.186  1.2204  0.7972 -0.1057
  939MOL0     O26638   1.613   3.205   9.235  0.5853  0.1712  0.1005
  939MOL0     C26639   1.509   3.152   9.145  0.1405 -0.2481 -0.2817
  939MOL0     C26640   1.376   3.195   9.199  0.6954 -0.6357 -0.5263
  939MOL0     C26641   1.247   3.132   9.134 -0.9041  0.3416  0.2419
  939MOL0     C26642   1.133   3.188   9.230  0.0660  0.7159 -0.1581
  939MOL0     C26643   0.997   3.125   9.188 -0.6385 -0.8196 -0.2687
  939MOL0     C26644   0.886   3.209   9.243  0.0775  0.0678  0.0404
  939MOL0     C26645   0.755   3.141   9.183  0.0654 -0.0356 -0.3471
  939MOL0     C26646   0.737   3.158   9.033 -0.7451 -0.6341  0.1745
  939MOL0     N26647   0.599   3.114   8.995 -1.0928 -1.4760  0.0988
  939MOL0     C26648   0.552   2.986   9.003  0.6548  0.3094 -0.0314
  939MOL0     C26649   0.416   3.003   8.994 -1.0562 -0.4873 -0.9348
  939MOL0     C26650   0.321   2.885   9.007  0.1976  0.6768  0.6438
  939MOL0     C26651   0.340   2.786   8.889 -0.3336  0.0892 -0.8914
  939MOL0     C26652   0.318   2.839   8.752  0.2541 -0.2205  0.6093
  939MOL0     C26653   0.285   2.726   8.657  0.4292  0.0699  0.5001
  939MOL0     O26654   0.290   2.790   8.523 -0.6188 -0.4756 -0.3628
  939MOL0     C26655   0.202   2.775   8.422  0.4817 -0.0363  0.3780
  939MOL0     C26656   0.229   2.841   8.303 -0.5490 -0.6288 -1.0760
  939MOL0     C26657   0.139   2.836   8.194  0.1495 -0.2451  0.5372
  939MOL0     C26658   0.166   2.920   8.065  0.2593 -0.1364  0.2787
  939MOL0     C26659   0.026   2.756   8.203 -0.4069  0.8249 -0.8642
  939MOL0     C26660  -0.076   2.739   8.100  0.5524 -0.9103 -0.7867
  939MOL0     O26661  -0.137   2.862   8.083 -0.2461 -0.6708  0.8660
  939MOL0     C26662  -0.227   2.862   7.986  0.6984  0.7673  0.8218
  939MOL0     C26663  -0.350   2.803   8.019 -0.8330  0.3883 -0.2657
  939MOL0     C26664  -0.455   2.804   7.929 -1.0299  0.2506 -0.1313
  939MOL0     C26665  -0.438   2.859   7.801 -0.3715  0.7557 -0.2157
  939MOL0     O26666  -0.540   2.859   7.708 -0.2756  0.6664  0.1462
  939MOL0     C26667  -0.670   2.796   7.738  0.3679 -0.3168  0.3402
  939MOL0     C26668  -0.746   2.798   7.608  0.2521 -0.4183 -0.0510
  939MOL0     C26669  -0.849   2.693   7.598 -0.0247  0.6963  0.2947
  939MOL0     C26670  -0.887   2.666   7.457  0.8460  0.1324 -0.4937
  939MOL0     C26671  -1.014   2.584   7.461  0.3361  0.2513  0.3716
  939MOL0     C26672  -1.060   2.558   7.318  0.9409  0.7858  0.2906
  939MOL0     C26673  -1.164   2.445   7.318 -0.4474 -0.8488  1.0274
  939MOL0     C26674  -1.304   2.503   7.363 -0.6605 -0.2672  0.0311
  939MOL0    Cl26675  -1.368   2.647   7.271 -0.3446  0.2709 -0.5363
  939MOL0     C26676  -0.317   2.913   7.761 -0.4618 -0.3134 -0.7067
  939MOL0     C26677  -0.212   2.922   7.857 -0.4893 -0.1766 -0.8271
  939MOL0     O26678  -0.107   2.632   8.049  0.3443  0.2033 -0.1191
  939MOL0     C26679   0.004   2.686   8.325  0.0027 -1.7054 -0.2421
  939MOL0     C26680   0.090   2.695   8.435  0.2020  0.8409 -0.3588
  939MOL0     N26681   0.385   3.133   8.988  0.1573 -0.6829  0.2944
  939MOL0     N26682   0.494   3.204   8.986  0.1239  1.3660  0.8596
  939MOL0     C26683   1.858   3.218   9.268  0.2360 -0.1909 -0.4930
  939MOL0     C26684   1.993   3.248   9.225 -0.9611  0.1930  0.6889
  939MOL0     C26685   2.323   3.382   8.897 -0.4044  0.6874  0.2667
  939MOL0     C26686   2.392   3.412   9.014 -1.0232 -0.7197  1.0671
  939MOL0     C26687   2.534   3.451   9.009  0.7725 -0.3208  0.0383
  939MOL0     C26688   2.596   3.443   8.884  0.0395  1.0638  0.3119
  939MOL0     O26689   2.726   3.482   8.886 -0.1738 -0.4220 -0.2154
  939MOL0     C26690   2.803   3.484   8.766 -0.9033 -0.5436 -0.2602
  939MOL0     C26691   2.949   3.517   8.801 -0.9514  0.3359 -0.1362
  939MOL0     C26692   2.977   3.672   8.820  0.1027  1.4624 -0.3969
  939MOL0     C26693   3.123   3.687   8.867  0.0371 -0.5032  0.7147
  939MOL0     C26694   3.209   3.654   8.757  0.1223 -0.1153  0.7185
  939MOL0     C26695   3.297   3.627   8.676 -0.2131 -0.5782  0.0579
  939MOL0     C26696   2.518   3.425   8.762  0.9556  1.2237  0.0596
  939MOL0     C26697   2.386   3.385   8.771  0.0677 -0.0657  0.6633
  939MOL0     H26698   1.915   3.306   8.897  0.9058  2.2661 -0.9377
  939MOL0     H26699   1.688   3.260   8.978  0.0872  0.0753 -1.0269
  939MOL0     H26700   1.518   3.194   9.044 -3.0327  0.8996 -0.2115
  939MOL0     H26701   1.513   3.043   9.145 -0.5597 -0.4127  3.4586
  939MOL0     H26702   1.383   3.190   9.308  0.0236 -0.1614 -0.4548
  939MOL0     H26703   1.371   3.304   9.183  0.2684 -0.1899  2.1948
  939MOL0     H26704   1.227   3.170   9.033  0.3797  0.7205  0.1117
  939MOL0     H26705   1.241   3.024   9.151 -1.4814  0.4468  0.7487
  939MOL0     H26706   1.152   3.144   9.328  0.6995 -2.0299 -1.4262
  939MOL0     H26707   1.141   3.296   9.246 -0.7087  0.5852  1.2938
  939MOL0     H26708   1.002   3.114   9.080  0.0158  0.0815 -0.3530
  939MOL0     H26709   1.010   3.024   9.227  4.3549 -1.5032 -2.8653
  939MOL0     H26710   0.876   3.216   9.352 -0.6974 -0.4307  0.0107
  939MOL0     H26711   0.898   3.311   9.205  3.1283 -0.8567 -1.8091
  939MOL0     H26712   0.757   3.035   9.208 -0.7661  0.1679  0.6129
  939MOL0     H26713   0.670   3.191   9.229 -0.0983  1.6023 -2.2797
  939MOL0     H26714   0.816   3.106   8.978 -0.7649  1.4859 -1.9982
  939MOL0     H26715   0.761   3.260   9.001 -1.4934 -0.8453 -1.1023
  939MOL0     H26716   0.612   2.895   8.997  1.0544  0.6445 -2.3187
  939MOL0     H26717   0.325   2.825   9.098 -4.3402  0.1120  0.7224
  939MOL0     H26718   0.216   2.916   9.005 -0.3601 -1.0798 -0.8073
  939MOL0     H26719   0.258   2.717   8.912  0.9062 -0.6975  1.5331
  939MOL0     H26720   0.431   2.726   8.897 -1.0078 -0.8189  0.4308
  939MOL0     H26721   0.409   2.890   8.718 -1.2212  1.8571 -0.4330
  939MOL0     H26722   0.234   2.907   8.759 -0.3657 -0.6914 -1.5041
  939MOL0     H26723   0.182   2.694   8.678 -0.7227  2.8911 -0.2694
  939MOL0     H26724   0.341   2.633   8.662 -3.3280 -2.4164  0.6636
  939MOL0     H26725   0.316   2.906   8.294 -0.1648 -1.1178 -0.9158
  939MOL0     H26726   0.109   2.891   7.976  0.4165 -0.5040  0.2962
  939MOL0     H26727   0.145   3.023   8.095  3.1037  0.8883 -0.9375
  939MOL0     H26728   0.273   2.922   8.042  0.2534  2.1135  0.2306
  939MOL0     H26729  -0.362   2.745   8.110  1.4226 -3.3989 -2.0723
  939MOL0     H26730  -0.539   2.742   7.958 -1.6928  0.9665 -0.4691
  939MOL0     H26731  -0.660   2.689   7.760  1.0943 -1.5711 -4.8279
  939MOL0     H26732  -0.722   2.846   7.820  1.4605 -1.9312  2.1329
  939MOL0     H26733  -0.792   2.895   7.590 -0.2479 -0.7846 -0.7873
  939MOL0     H26734  -0.672   2.782   7.529  0.6055  4.4883 -1.0045
  939MOL0     H26735  -0.936   2.714   7.662  0.7398  1.2794  1.1722
  939MOL0     H26736  -0.810   2.604   7.648 -1.3765  0.5446  1.1355
  939MOL0     H26737  -0.904   2.756   7.396  1.0474  2.1425  2.2002
  939MOL0     H26738  -0.802   2.622   7.405  0.0139 -0.0543 -1.7332
  939MOL0     H26739  -1.097   2.628   7.516  1.2970  3.5196 -0.5549
  939MOL0     H26740  -0.993   2.491   7.516  0.3850  0.4386  0.6684
  939MOL0     H26741  -1.090   2.651   7.269 -1.3038  0.0539  0.1814
  939MOL0     H26742  -0.978   2.517   7.258 -0.9192 -2.9824  0.0169
  939MOL0     H26743  -1.138   2.372   7.395 -0.3821  1.1914  3.0296
  939MOL0     H26744  -1.178   2.408   7.216 -0.2298 -1.1812  1.1174
  939MOL0     H26745  -1.295   2.537   7.467  0.4762 -0.3350 -0.0244
  939MOL0     H26746  -1.375   2.421   7.353 -0.7311  0.0487 -2.9536
  939MOL0     H26747  -0.300   2.951   7.661 -0.9396  0.4360 -0.5044
  939MOL0     H26748  -0.124   2.970   7.814 -0.9024  3.3743  1.9270
  939MOL0     H26749  -0.093   2.640   8.338 -0.4680 -0.6026  0.3930
  939MOL0     H26750   0.067   2.642   8.526  2.2943 -1.8311 -1.2717
  939MOL0     H26751   1.836   3.193   9.371  1.5250  0.7945  0.0520
  939MOL0     H26752   2.084   3.244   9.283  2.4609 -0.8077 -4.1491
  939MOL0     H26753   2.340   3.409   9.109  0.2903  0.0874  1.8451
  939MOL0     H26754   2.581   3.475   9.104 -1.3941  0.2611  1.0293
  939MOL0     H26755   2.791   3.381   8.732 -2.6571 -0.6597  0.5796
  939MOL0     H26756   2.764   3.556   8.694  0.9533  0.5593 -0.2381
  939MOL0     H26757   3.004   3.470   8.718 -0.5986 -0.5202  0.5637
  939MOL0     H26758   2.973   3.472   8.898 -1.6475  0.1042 -0.0689
  939MOL0     H26759   2.913   3.704   8.903 -2.2886 -1.8067 -0.7436
  939MOL0     H26760   2.958   3.733   8.731 -1.9413 -0.8416 -1.6935
  939MOL0     H26761   3.145   3.622   8.952 -1.4119 -1.4633  0.3977
  939MOL0     H26762   3.133   3.793   8.890  1.6405 -0.4350 -0.2102
  939MOL0     H26763   3.373   3.592   8.610 -0.2606 -2.7364  1.0563
  939MOL0     H26764   2.571   3.435   8.667  0.7116 -2.4379 -0.6063
  939MOL0     H26765   2.327   3.371   8.681  2.6943  0.9856 -1.3501
  940MOL0     O26766   4.748   2.194   9.721  0.2471 -0.1433  0.4237
  940MOL0     C26767   4.771   2.100   9.638  0.7443 -0.6198 -0.9967
  940MOL0     O26768   4.669   2.028   9.579  0.2794  0.2705 -0.6540
  940MOL0     C26769   4.540   2.035   9.614  0.5719 -0.4433  0.0991
  940MOL0     C26770   4.497   1.969   9.728  0.0396 -0.8871 -0.9416
  940MOL0     C26771   4.364   1.982   9.779 -0.0748  0.5669 -0.9793
  940MOL0     C26772   4.273   2.055   9.710 -0.4060  0.3049 -0.1237
  940MOL0     O26773   4.144   2.077   9.749 -0.2422  0.0942 -0.0609
  940MOL0     C26774   4.093   1.992   9.859  0.2058 -0.1696  0.0150
  940MOL0     C26775   3.943   2.004   9.897  0.0189 -0.5653 -0.8066
  940MOL0     C26776   3.870   2.010   9.766 -0.0600  0.3250 -0.8175
  940MOL0     C26777   3.710   2.019   9.783 -0.3072  0.0309  0.0080
  940MOL0     C26778   3.656   1.897   9.847 -0.2631  0.7403  0.0456
  940MOL0     C26779   3.501   1.888   9.853 -0.0102 -0.4541 -0.8279
  940MOL0     C26780   3.436   1.872   9.717 -0.1245 -1.0824 -0.6225
  940MOL0     C26781   3.282   1.852   9.733 -0.4535 -0.2254  0.9830
  940MOL0     N26782   3.200   1.972   9.763 -0.1077 -0.1411 -0.3685
  940MOL0     C26783   3.194   2.084   9.686  0.6092  0.9862  1.0638
  940MOL0     C26784   3.133   2.182   9.756  0.5274  0.3797 -0.3666
  940MOL0     C26785   3.085   2.321   9.713  0.0659  0.5919 -0.4524
  940MOL0     C26786   2.953   2.317   9.639  0.7956 -0.3869  0.7862
  940MOL0     C26787   2.831   2.265   9.715 -0.5879 -0.4312  0.5801
  940MOL0     C26788   2.697   2.287   9.640 -0.1173  0.3329 -0.5404
  940MOL0     O26789   2.598   2.254   9.731  0.0914  0.9242 -0.2781
  940MOL0     C26790   2.463   2.250   9.703 -0.4592 -0.0286  0.6244
  940MOL0     C26791   2.363   2.190   9.787 -0.5418  0.4454  0.3524
  940MOL0     C26792   2.222   2.177   9.769 -0.0427  0.3872 -0.1515
  940MOL0     C26793   2.139   2.125   9.884 -0.6880  0.4359 -0.0664
  940MOL0     C26794   2.171   2.232   9.644  0.1566 -0.1119 -0.7655
  940MOL0     C26795   2.028   2.219   9.601  0.1597 -0.0491  0.4893
  940MOL0     O26796   1.992   2.274   9.483 -0.2315 -0.0109 -0.7413
  940MOL0     C26797   1.861   2.259   9.448  0.7947 -0.6957  0.8483
  940MOL0     C26798   1.787   2.376   9.436  1.0792  0.3577  0.2138
  940MOL0     C26799   1.659   2.363   9.379 -0.4577  0.0639  0.1380
  940MOL0     C26800   1.592   2.243   9.361 -0.9335  0.0116  0.6142
  940MOL0     O26801   1.471   2.258   9.286 -0.0633  0.4394  1.0070
  940MOL0     C26802   1.385   2.144   9.288 -0.2450 -1.0153  0.2756
  940MOL0     C26803   1.256   2.157   9.198 -0.1966 -0.2977  0.0723
  940MOL0     C26804   1.284   2.202   9.058  0.0250 -0.0352  1.0397
  940MOL0     C26805   1.166   2.184   8.964 -0.4138  0.6279  0.2161
  940MOL0     C26806   1.104   2.316   8.929 -0.1509  0.4120  0.7598
  940MOL0     C26807   0.976   2.318   8.842  0.2221  0.2789  0.4180
  940MOL0     C26808   0.988   2.290   8.695  0.3156 -0.2971 -0.8773
  940MOL0     C26809   0.916   2.160   8.643 -0.1018  0.3216  0.5322
  940MOL0    Cl26810   0.985   2.012   8.746 -0.2458 -0.1082  0.0492
  940MOL0     C26811   1.661   2.125   9.387 -0.1661  0.7110 -0.0522
  940MOL0     C26812   1.799   2.137   9.420  0.0078  0.9950  0.4432
  940MOL0     O26813   1.962   2.150   9.670  0.3920 -0.4461  0.3925
  940MOL0     C26814   2.267   2.293   9.554 -0.3099 -0.6225 -0.4268
  940MOL0     C26815   2.403   2.307   9.583  0.2224  0.4916  0.1113
  940MOL0     N26816   3.103   2.133   9.881 -0.1077 -0.1264  0.4263
  940MOL0     N26817   3.150   2.013   9.886 -0.5347 -0.5010  0.3697
  940MOL0     C26818   4.315   2.127   9.594 -1.0551 -0.0898  0.9396
  940MOL0     C26819   4.448   2.112   9.543  0.7502 -0.5685  0.3025
  940MOL0     C26820   4.914   2.053   9.631  0.5711 -0.6083 -0.5951
  940MOL0     C26821   4.953   1.973   9.525  0.2669  0.3740 -0.5112
  940MOL0     C26822   5.085   1.938   9.509 -0.4103  0.6140 -0.3759
  940MOL0     C26823   5.188   1.992   9.592  1.2994 -0.7471 -0.2728
  940MOL0     O26824   5.318   1.959   9.572 -0.0289 -0.2319 -0.3029
  940MOL0     C26825   5.416   2.056   9.604  0.2713  0.0369  0.8305
  940MOL0     C26826   5.551   1.997   9.540  0.6569 -0.3524  0.5026
  940MOL0     C26827   5.548   2.008   9.384  0.2080  0.2547  0.9912
  940MOL0     C26828   5.676   1.971   9.312 -0.4575 -0.9799  0.5587
  940MOL0     C26829   5.657   1.963   9.165  0.7730  0.3639 -0.6251
  940MOL0     C26830   5.606   1.945   9.055  0.6573 -0.0201  0.6022
  940MOL0     C26831   5.149   2.073   9.704  0.4249  0.0098 -0.5392
  940MOL0     C26832   5.010   2.099   9.725  0.0779 -0.2355  0.1567
  940MOL0     H26833   4.566   1.924   9.797 -0.4517  0.3653  0.4247
  940MOL0     H26834   4.348   1.935   9.876 -1.0114  4.1345  0.7503
  940MOL0     H26835   4.105   1.891   9.818  1.3255 -0.2156  0.4184
  940MOL0     H26836   4.154   1.990   9.950 -0.5471 -1.7849  0.5160
  940MOL0     H26837   3.909   1.924   9.963 -0.2358  0.3582  0.1986
  940MOL0     H26838   3.933   2.098   9.952 -1.9942 -0.6797 -0.9082
  940MOL0     H26839   3.899   2.103   9.716 -1.4396  2.7602  2.5599
  940MOL0     H26840   3.895   1.927   9.699 -1.7757  0.2659 -1.4464
  940MOL0     H26841   3.684   2.110   9.838 -3.0278 -0.4021 -0.4167
  940MOL0     H26842   3.661   2.023   9.685 -1.2578 -0.3147  0.4612
  940MOL0     H26843   3.691   1.808   9.795 -1.8309 -0.4025  0.8427
  940MOL0     H26844   3.699   1.889   9.948 -1.2593 -0.3187  0.4203
  940MOL0     H26845   3.458   1.808   9.915 -0.6909  1.8383  1.8910
  940MOL0     H26846   3.467   1.984   9.894 -3.7731 -1.8231 -0.2992
  940MOL0     H26847   3.456   1.959   9.654  0.8496 -1.5875 -1.0216
  940MOL0     H26848   3.478   1.788   9.661  1.3112 -0.4174 -0.5599
  940MOL0     H26849   3.258   1.777   9.810  4.7088 -2.1675  1.0705
  940MOL0     H26850   3.240   1.807   9.643  1.8890 -1.3151  0.3843
  940MOL0     H26851   3.223   2.083   9.582 -1.5248  0.0433  0.4385
  940MOL0     H26852   3.072   2.385   9.801 -3.2567 -0.1650 -0.2493
  940MOL0     H26853   3.166   2.363   9.653  2.3030 -2.8618 -0.1215
  940MOL0     H26854   2.963   2.272   9.539  0.5447  2.5732 -0.6980
  940MOL0     H26855   2.928   2.421   9.617  3.6346 -0.2763 -3.0562
  940MOL0     H26856   2.829   2.325   9.807 -2.2865  0.7331 -0.1645
  940MOL0     H26857   2.843   2.160   9.744 -1.1154 -0.2827  1.3790
  940MOL0     H26858   2.697   2.223   9.551  1.5448 -1.0753  0.4050
  940MOL0     H26859   2.694   2.395   9.620  0.5187  0.9269  2.1775
  940MOL0     H26860   2.403   2.146   9.878 -0.1365  0.8250  0.3590
  940MOL0     H26861   2.051   2.187   9.901 -0.5399  0.6123  0.0599
  940MOL0     H26862   2.118   2.019   9.867  3.5266 -0.2337 -2.4390
  940MOL0     H26863   2.200   2.121   9.974  3.3221 -2.9226 -2.5356
  940MOL0     H26864   1.832   2.471   9.461  0.2459  0.2127  2.5496
  940MOL0     H26865   1.604   2.452   9.350  0.1404 -0.2888 -2.2692
  940MOL0     H26866   1.439   2.056   9.254  0.6952 -0.2077 -0.3807
  940MOL0     H26867   1.348   2.131   9.390 -0.1324 -0.1619  0.4399
  940MOL0     H26868   1.202   2.062   9.203  2.4797 -1.9663 -0.8107
  940MOL0     H26869   1.189   2.232   9.242  0.1381  0.0581 -0.0262
  940MOL0     H26870   1.366   2.140   9.020  2.7112  2.8845  1.6051
  940MOL0     H26871   1.327   2.302   9.054 -2.3757  1.0089 -0.6684
  940MOL0     H26872   1.192   2.121   8.879 -0.8033 -3.5644  2.9093
  940MOL0     H26873   1.096   2.130   9.027  2.1167 -1.9861  1.0103
  940MOL0     H26874   1.169   2.382   8.871 -1.4817  0.7008 -0.4781
  940MOL0     H26875   1.095   2.362   9.028  1.7257 -0.6239  1.4651
  940MOL0     H26876   0.910   2.241   8.883 -1.5785  0.9921 -1.0035
  940MOL0     H26877   0.919   2.411   8.856 -0.3865  0.2094 -1.4087
  940MOL0     H26878   1.096   2.280   8.678  0.7212 -1.4153  1.7938
  940MOL0     H26879   0.939   2.372   8.642 -2.9985 -0.7447  1.2483
  940MOL0     H26880   0.940   2.144   8.537 -1.5178  1.0051  0.0767
  940MOL0     H26881   0.809   2.165   8.665  0.3002  0.5199  2.6987
  940MOL0     H26882   1.627   2.023   9.373  4.1810 -1.1581  1.2594
  940MOL0     H26883   1.875   2.061   9.441 -0.0651  0.8425  0.1578
  940MOL0     H26884   2.236   2.341   9.462  0.8113 -0.0734 -0.5274
  940MOL0     H26885   2.474   2.357   9.517 -2.0159  3.4872 -0.2580
  940MOL0     H26886   4.248   2.198   9.547 -0.8250 -0.8412 -0.5617
  940MOL0     H26887   4.473   2.175   9.458 -0.2287 -0.1037  0.3463
  940MOL0     H26888   4.881   1.943   9.450 -0.4678 -0.2172  0.4160
  940MOL0     H26889   5.120   1.883   9.422 -0.7052 -1.5349  0.7790
  940MOL0     H26890   5.384   2.139   9.542  1.3589 -1.7352 -2.3090
  940MOL0     H26891   5.424   2.086   9.709  1.3708 -0.9884  1.0700
  940MOL0     H26892   5.558   1.893   9.572  0.3702 -0.6204 -0.2912
  940MOL0     H26893   5.637   2.050   9.582 -0.3784 -0.0006  2.3151
  940MOL0     H26894   5.529   2.112   9.356 -1.3274 -0.1037  0.5964
  940MOL0     H26895   5.471   1.942   9.344  0.1115  1.1601 -0.3876
  940MOL0     H26896   5.709   1.875   9.353  1.1826 -0.9310 -0.5537
  940MOL0     H26897   5.754   2.045   9.329 -0.2707 -1.2929  1.0978
  940MOL0     H26898   5.552   1.932   8.964  1.6230  0.1972 -0.0172
  940MOL0     H26899   5.220   2.119   9.772  0.5711  2.4661 -2.1968
  940MOL0     H26900   4.978   2.152   9.814 -0.6029  1.1891 -0.8967
  941MOL0     O26901  11.095   5.717   4.388  0.1067 -0.6626  0.4617
  941MOL0     C26902  11.164   5.650   4.323  0.1761  0.2450  0.0229
  941MOL0     O26903  11.156   5.621   4.184 -0.1908 -0.3387 -0.2689
  941MOL0     C26904  11.060   5.677   4.109 -0.1052 -0.8989  0.2496
  941MOL0     C26905  11.088   5.726   3.978 -0.5721 -0.4050  0.7287
  941MOL0     C26906  10.987   5.784   3.893  0.9323  0.2578  0.2696
  941MOL0     C26907  10.855   5.796   3.944  0.4633  1.2566  0.2404
  941MOL0     O26908  10.753   5.849   3.878 -0.8060 -0.3049  0.1436
  941MOL0     C26909  10.616   5.827   3.914 -0.3240 -0.2879 -0.4190
  941MOL0     C26910  10.506   5.884   3.818  0.1212 -0.2665 -0.1764
  941MOL0     C26911  10.370   5.909   3.886 -0.6254  0.6234 -0.5529
  941MOL0     C26912  10.273   6.005   3.811  0.3825  0.6558 -0.5476
  941MOL0     C26913  10.131   5.979   3.844 -0.1314 -0.2346  0.5041
  941MOL0     C26914  10.050   6.054   3.736 -0.1742 -0.3567  0.0316
  941MOL0     C26915   9.897   6.026   3.777 -0.0842  0.5845 -1.3310
  941MOL0     C26916   9.801   6.053   3.664 -0.1351 -0.2814 -0.0235
  941MOL0     N26917   9.666   6.022   3.694 -0.2072  0.4440 -0.1402
  941MOL0     C26918   9.579   6.103   3.756  1.6790 -0.5192  0.3677
  941MOL0     C26919   9.457   6.051   3.724 -0.9393  0.4495 -0.9291
  941MOL0     C26920   9.339   6.127   3.758 -0.2113  0.4916  0.8290
  941MOL0     C26921   9.301   6.128   3.906  0.4191 -0.3147 -0.1987
  941MOL0     C26922   9.220   6.255   3.939  0.1131 -0.3258 -0.0701
  941MOL0     C26923   9.229   6.274   4.091 -0.4957 -0.1724  0.2132
  941MOL0     O26924   9.186   6.159   4.159  1.0877 -0.0593  0.4577
  941MOL0     C26925   9.054   6.115   4.151 -0.0645 -0.2649  0.8911
  941MOL0     C26926   9.027   5.982   4.183  0.2726 -0.2173 -0.0164
  941MOL0     C26927   8.899   5.933   4.173  0.4061  0.2683 -0.5586
  941MOL0     C26928   8.873   5.791   4.212 -0.1154  0.0087  0.0988
  941MOL0     C26929   8.791   6.012   4.123 -0.6518  0.5961 -0.6077
  941MOL0     C26930   8.646   5.972   4.098 -0.7026 -0.2644 -0.2994
  941MOL0     O26931   8.593   5.877   4.172 -0.3972  0.0287 -0.8079
  941MOL0     C26932   8.455   5.874   4.201  0.5896  0.2842 -1.0800
  941MOL0     C26933   8.404   5.766   4.276 -0.1027 -0.4499 -0.2938
  941MOL0     C26934   8.262   5.759   4.288 -0.5100  0.5064 -0.3046
  941MOL0     C26935   8.174   5.854   4.239  0.3251  1.1274 -0.0635
  941MOL0     O26936   8.040   5.833   4.266 -0.5729 -0.3031 -0.2057
  941MOL0     C26937   7.943   5.924   4.222  0.8810 -0.1382  0.1708
  941MOL0     C26938   7.797   5.862   4.201 -0.4019 -0.8306  0.1052
  941MOL0     C26939   7.736   5.821   4.336 -0.5229 -0.3981  0.0658
  941MOL0     C26940   7.620   5.721   4.328 -0.1428  0.0927 -0.3080
  941MOL0     C26941   7.488   5.769   4.259 -0.1564 -0.3400  0.6854
  941MOL0     C26942   7.413   5.892   4.332 -0.0764  0.3996 -0.1350
  941MOL0     C26943   7.286   5.950   4.265  0.0550  0.2242  0.0181
  941MOL0     C26944   7.304   5.970   4.116  0.5039 -0.4295  0.4956
  941MOL0    Cl26945   7.228   6.122   4.062 -0.1588 -0.0240  0.5639
  941MOL0     C26946   8.225   5.963   4.173  0.3253  0.1110  0.3668
  941MOL0     C26947   8.360   5.977   4.152  0.1340 -0.4369  0.2281
  941MOL0     O26948   8.592   6.029   4.009 -0.3214 -0.5900  0.2327
  941MOL0     C26949   8.816   6.153   4.093 -0.2108 -0.6626 -0.0173
  941MOL0     C26950   8.943   6.196   4.112 -0.2502  0.0412  0.8276
  941MOL0     N26951   9.472   5.934   3.657  0.4950  0.8051 -0.0070
  941MOL0     N26952   9.597   5.923   3.626 -0.0737  0.4797 -0.4509
  941MOL0     C26953  10.829   5.734   4.072 -0.0635 -0.0734 -0.1587
  941MOL0     C26954  10.931   5.686   4.154  0.3542 -0.6022 -0.0232
  941MOL0     C26955  11.292   5.616   4.390  0.4914 -0.0612 -0.3174
  941MOL0     C26956  11.294   5.618   4.533  0.5668 -0.2070 -1.1565
  941MOL0     C26957  11.416   5.573   4.594  0.6272 -0.5810  0.5257
  941MOL0     C26958  11.535   5.545   4.520 -0.2051 -0.6485  0.0499
  941MOL0     O26959  11.657   5.517   4.572  0.0796  0.6392 -0.2296
  941MOL0     C26960  11.683   5.512   4.715 -0.0367  1.3395 -0.2192
  941MOL0     C26961  11.822   5.494   4.751 -0.1156 -0.4556 -0.2849
  941MOL0     C26962  11.899   5.618   4.697 -0.1827 -0.3244  0.2758
  941MOL0     C26963  12.053   5.607   4.707  0.1097  0.4355 -0.3919
  941MOL0     C26964  12.092   5.593   4.843 -1.2112 -0.2790 -0.0188
  941MOL0     C26965  12.116   5.595   4.965 -0.4426 -0.1083 -0.0652
  941MOL0     C26966  11.518   5.530   4.380 -0.6661 -0.3254  0.0577
  941MOL0     C26967  11.400   5.561   4.323  0.3294 -0.3145  1.5974
  941MOL0     H26968  11.192   5.709   3.952 -1.2341 -3.1400 -0.4175
  941MOL0     H26969  11.008   5.818   3.792  1.4253  0.1602  0.3338
  941MOL0     H26970  10.583   5.724   3.929 -1.2419 -0.1124 -1.1243
  941MOL0     H26971  10.607   5.881   4.009  1.7028  0.1366 -0.4391
  941MOL0     H26972  10.535   5.985   3.787  1.6838 -1.2904 -2.3345
  941MOL0     H26973  10.496   5.821   3.729 -3.2832  0.6416 -0.5801
  941MOL0     H26974  10.322   5.812   3.902 -1.3464  1.2562  1.6113
  941MOL0     H26975  10.385   5.954   3.985 -0.7646  1.0157 -0.7074
  941MOL0     H26976  10.298   6.109   3.831  1.9783  0.3571 -0.8508
  941MOL0     H26977  10.289   5.984   3.705 -4.7951 -1.4142 -1.2221
  941MOL0     H26978  10.121   5.871   3.835  1.4288 -0.4780  1.2119
  941MOL0     H26979  10.108   6.004   3.948 -0.9590  1.1137  0.0139
  941MOL0     H26980  10.067   6.161   3.723  0.9028 -0.4721  0.4006
  941MOL0     H26981  10.060   6.003   3.640 -3.7414  1.0075 -1.2197
  941MOL0     H26982   9.894   5.919   3.798  1.5004 -0.0925 -4.0729
  941MOL0     H26983   9.872   6.084   3.866 -0.3580 -1.6819  0.1620
  941MOL0     H26984   9.828   6.004   3.570 -1.6878  1.2597 -1.3247
  941MOL0     H26985   9.823   6.155   3.633 -0.3031 -0.8857 -2.3055
  941MOL0     H26986   9.599   6.187   3.821 -0.6220  0.2689  0.1413
  941MOL0     H26987   9.363   6.219   3.704  0.5203 -1.9474 -3.4962
  941MOL0     H26988   9.255   6.075   3.710  0.5286 -1.7601  1.8503
  941MOL0     H26989   9.391   6.133   3.968 -0.7608  0.5843  1.5180
  941MOL0     H26990   9.234   6.048   3.937 -2.2506  2.3494  1.4467
  941MOL0     H26991   9.117   6.259   3.903  0.1524  0.4268 -0.1218
  941MOL0     H26992   9.268   6.342   3.894  2.8160 -2.1925 -1.0537
  941MOL0     H26993   9.175   6.363   4.125 -1.7488  0.0679 -2.1846
  941MOL0     H26994   9.335   6.286   4.117 -0.4173 -0.5339  0.0690
  941MOL0     H26995   9.101   5.910   4.218  1.0847  1.5736  2.2303
  941MOL0     H26996   8.832   5.783   4.313  1.2396  0.2614  0.7002
  941MOL0     H26997   8.802   5.756   4.137  0.9791 -0.7125 -0.6315
  941MOL0     H26998   8.963   5.730   4.202 -0.2666 -0.1761 -0.1459
  941MOL0     H26999   8.456   5.676   4.307 -0.1341 -0.4778 -0.3224
  941MOL0     H27000   8.223   5.673   4.341 -1.7288  2.0192  1.3783
  941MOL0     H27001   7.950   6.018   4.277 -0.4181 -0.0933  0.2956
  941MOL0     H27002   7.977   5.948   4.121  1.8052 -2.1784 -0.0555
  941MOL0     H27003   7.726   5.933   4.157  0.7350 -0.4510 -1.1630
  941MOL0     H27004   7.801   5.778   4.131 -1.1824 -0.1049 -0.8346
  941MOL0     H27005   7.712   5.909   4.398 -0.7386  0.2938 -0.9716
  941MOL0     H27006   7.819   5.774   4.390  1.2702  2.2929 -0.1267
  941MOL0     H27007   7.647   5.630   4.273 -0.5739 -0.1950 -0.0445
  941MOL0     H27008   7.599   5.699   4.433 -1.1915  1.9159 -0.1070
  941MOL0     H27009   7.420   5.685   4.244 -0.2236  0.2082 -2.8799
  941MOL0     H27010   7.523   5.809   4.163  1.1257  0.2323  1.3612
  941MOL0     H27011   7.369   5.859   4.426 -2.4395  1.1814 -0.9162
  941MOL0     H27012   7.488   5.970   4.349  1.3907 -0.6287 -1.5445
  941MOL0     H27013   7.266   6.049   4.307 -1.2425  0.5486 -1.2875
  941MOL0     H27014   7.205   5.879   4.288 -0.6258  0.5323 -1.3158
  941MOL0     H27015   7.259   5.885   4.064  0.0648 -1.0461  1.8361
  941MOL0     H27016   7.409   5.985   4.089  0.6608 -3.4428 -1.0302
  941MOL0     H27017   8.157   6.041   4.140 -0.1460  0.0487  1.1545
  941MOL0     H27018   8.391   6.073   4.111 -1.2442  0.2900  0.8491
  941MOL0     H27019   8.731   6.217   4.072 -1.0811 -1.5908  0.5910
  941MOL0     H27020   8.951   6.302   4.092  0.7569 -0.2074 -0.2239
  941MOL0     H27021  10.732   5.736   4.119 -0.6839  1.0660 -1.4314
  941MOL0     H27022  10.909   5.660   4.256  1.5234  0.7462  0.6110
  941MOL0     H27023  11.211   5.647   4.597  0.3279 -0.9754 -1.1063
  941MOL0     H27024  11.415   5.575   4.702 -1.1182 -0.9299  0.5349
  941MOL0     H27025  11.647   5.604   4.763 -2.6342  0.6560 -0.6789
  941MOL0     H27026  11.618   5.425   4.733  0.2793  0.2040 -3.7648
  941MOL0     H27027  11.870   5.402   4.716 -1.0409 -1.7334  1.6113
  941MOL0     H27028  11.836   5.486   4.859 -0.0845  0.4729 -0.2135
  941MOL0     H27029  11.865   5.708   4.749 -2.5065 -0.9417 -0.0855
  941MOL0     H27030  11.881   5.635   4.590  2.9134  1.0958 -0.1516
  941MOL0     H27031  12.094   5.697   4.658 -2.9983  1.8576 -0.6067
  941MOL0     H27032  12.090   5.519   4.655  0.3000  0.4116 -0.2209
  941MOL0     H27033  12.113   5.622   5.069  1.8839 -0.9546  0.2840
  941MOL0     H27034  11.598   5.488   4.320 -0.3400 -2.1412  1.6305
  941MOL0     H27035  11.387   5.552   4.216 -0.2430 -0.8840  1.7102
  942MOL0     O27036   5.956   6.190   7.036  0.0857  0.5593 -0.5878
  942MOL0     C27037   6.050   6.201   7.119 -0.5173 -0.0833 -0.8028
  942MOL0     O27038   6.048   6.181   7.256 -0.1153  0.3266  0.1474
  942MOL0     C27039   5.938   6.120   7.309  0.4610  0.2214  0.0254
  942MOL0     C27040   5.876   6.169   7.431  0.3678  0.7288  0.0115
  942MOL0     C27041   5.745   6.138   7.464  0.5212 -0.3969  0.0160
  942MOL0     C27042   5.680   6.034   7.403  0.0340 -0.0326 -0.3699
  942MOL0     O27043   5.550   6.007   7.440  0.0632  0.4577  0.0747
  942MOL0     C27044   5.504   5.873   7.413  0.5427 -0.1334  0.2459
  942MOL0     C27045   5.356   5.850   7.459  0.2274  0.5333 -0.3323
  942MOL0     C27046   5.261   5.942   7.377  0.5054 -0.5896  0.2077
  942MOL0     C27047   5.113   5.933   7.440 -0.7109  0.1981  0.4607
  942MOL0     C27048   5.017   5.985   7.337  0.0283  0.8142 -0.1215
  942MOL0     C27049   4.875   6.001   7.389  1.0481  0.6086 -0.3267
  942MOL0     C27050   4.784   6.031   7.271 -0.5611 -0.3399  0.0438
  942MOL0     C27051   4.650   6.106   7.313  0.1650 -0.0712 -0.3361
  942MOL0     N27052   4.548   6.012   7.328  0.5598 -0.3171  0.0884
  942MOL0     C27053   4.508   5.920   7.234 -0.2531 -1.3481  0.4779
  942MOL0     C27054   4.415   5.849   7.294 -0.5266  0.4678  0.3289
  942MOL0     C27055   4.340   5.732   7.231  0.1049 -0.3671  0.0526
  942MOL0     C27056   4.195   5.719   7.283  0.3349  0.7215  0.4189
  942MOL0     C27057   4.120   5.603   7.208  0.1523  0.3026  0.3600
  942MOL0     C27058   3.987   5.581   7.273 -0.4324 -0.2336 -0.2559
  942MOL0     O27059   3.931   5.459   7.233 -0.0766 -0.4108 -0.9854
  942MOL0     C27060   3.799   5.444   7.259 -0.2275 -0.0164  0.2392
  942MOL0     C27061   3.736   5.462   7.385  0.2376 -0.5305 -0.1587
  942MOL0     C27062   3.599   5.422   7.407  0.5324 -0.2945  0.0681
  942MOL0     C27063   3.563   5.423   7.553  0.3334 -1.5375 -0.1664
  942MOL0     C27064   3.527   5.375   7.302  0.9949 -0.0069  0.0018
  942MOL0     C27065   3.382   5.362   7.307 -0.7662  0.0249  0.5339
  942MOL0     O27066   3.329   5.417   7.417 -0.1983 -0.0781 -0.0383
  942MOL0     C27067   3.198   5.395   7.446  0.7859 -0.0036  0.5711
  942MOL0     C27068   3.093   5.435   7.366 -0.4088  0.2309 -0.5746
  942MOL0     C27069   2.946   5.423   7.409 -0.2774  0.3006 -0.5762
  942MOL0     C27070   2.923   5.354   7.527  0.3741 -0.2900 -0.3710
  942MOL0     O27071   2.802   5.335   7.582 -0.6728  0.0814  0.4161
  942MOL0     C27072   2.687   5.404   7.521  0.2416 -0.7497  0.9595
  942MOL0     C27073   2.555   5.377   7.596 -0.8748  0.0543  0.1256
  942MOL0     C27074   2.436   5.444   7.526 -0.1589 -0.0336 -0.1770
  942MOL0     C27075   2.312   5.442   7.611 -0.4931  0.2275 -0.8747
  942MOL0     C27076   2.189   5.460   7.532  0.1048  1.0271  0.5685
  942MOL0     C27077   2.159   5.353   7.420  0.5158 -0.9699 -0.9488
  942MOL0     C27078   2.005   5.344   7.401 -0.2441  0.9378  0.3542
  942MOL0     C27079   1.937   5.473   7.344  0.5673  0.4667 -0.3432
  942MOL0    Cl27080   1.757   5.442   7.345  0.3230  0.1332 -0.3753
  942MOL0     C27081   3.032   5.313   7.598 -0.7911 -0.2664  0.1699
  942MOL0     C27082   3.165   5.339   7.564  0.5134  0.6332  0.4814
  942MOL0     O27083   3.322   5.302   7.215  0.1395 -0.2501  0.4666
  942MOL0     C27084   3.595   5.336   7.182 -0.1859 -0.0698 -0.5159
  942MOL0     C27085   3.731   5.365   7.166 -0.3603 -0.0252  0.4126
  942MOL0     N27086   4.416   5.885   7.426 -0.4140 -0.2783 -0.0041
  942MOL0     N27087   4.488   5.990   7.448 -0.1823 -0.1636  0.3180
  942MOL0     C27088   5.743   5.980   7.284 -0.2538  0.2005 -0.2523
  942MOL0     C27089   5.867   6.014   7.240  0.1232 -0.0100 -0.3125
  942MOL0     C27090   6.174   6.254   7.063 -0.3927  0.5973 -0.9902
  942MOL0     C27091   6.171   6.359   6.979  0.5053 -0.5612  0.4804
  942MOL0     C27092   6.287   6.416   6.922  0.4397  0.5917 -0.1371
  942MOL0     C27093   6.413   6.366   6.959 -0.9356  0.2880  0.1030
  942MOL0     O27094   6.532   6.413   6.889 -0.9023  0.5136  0.1104
  942MOL0     C27095   6.670   6.368   6.923  0.3286  0.7833 -0.2663
  942MOL0     C27096   6.776   6.436   6.833  0.0322  0.7462  0.4978
  942MOL0     C27097   6.913   6.376   6.839 -0.2597 -0.6703  0.1108
  942MOL0     C27098   7.006   6.440   6.736  0.4190 -0.5308  0.4082
  942MOL0     C27099   7.133   6.370   6.728 -0.1129 -0.5955 -0.6393
  942MOL0     C27100   7.247   6.339   6.700  0.7294  0.1172  0.6514
  942MOL0     C27101   6.421   6.265   7.048  0.4445  0.2008 -0.0810
  942MOL0     C27102   6.303   6.206   7.100 -0.5161 -0.1195 -0.2001
  942MOL0     H27103   5.931   6.240   7.492  1.9305 -0.5263  0.1347
  942MOL0     H27104   5.700   6.193   7.546  0.6947 -0.2213 -0.0057
  942MOL0     H27105   5.501   5.858   7.304  0.0650 -0.2530  0.2734
  942MOL0     H27106   5.567   5.796   7.459  2.3973  0.9209 -0.4157
  942MOL0     H27107   5.332   5.746   7.433 -0.9548  1.0960 -1.6381
  942MOL0     H27108   5.348   5.867   7.567  2.2971  1.1244 -0.2319
  942MOL0     H27109   5.308   6.040   7.382  1.2978 -0.9816  0.5468
  942MOL0     H27110   5.257   5.905   7.274 -3.0758 -1.6915  0.5969
  942MOL0     H27111   5.087   5.833   7.476  2.2083 -0.4434  1.0503
  942MOL0     H27112   5.102   6.010   7.517  0.9198 -0.0483  0.9891
  942MOL0     H27113   5.054   6.084   7.309 -1.8179  1.6355  0.1732
  942MOL0     H27114   5.020   5.911   7.257  0.8683 -0.6849  1.2432
  942MOL0     H27115   4.842   5.906   7.432  0.0607 -0.1210 -2.5572
  942MOL0     H27116   4.861   6.085   7.458 -1.6482  0.6721 -0.8623
  942MOL0     H27117   4.845   6.099   7.211 -3.0706  1.1328 -0.9722
  942MOL0     H27118   4.761   5.953   7.198 -0.8348  0.5237 -0.8206
  942MOL0     H27119   4.630   6.186   7.241  3.2452  0.3081 -0.9333
  942MOL0     H27120   4.651   6.163   7.406 -1.0585 -1.3542  0.4939
  942MOL0     H27121   4.536   5.932   7.129 -3.0663  1.8516 -0.1041
  942MOL0     H27122   4.333   5.732   7.122  0.1766 -2.5020  0.0093
  942MOL0     H27123   4.398   5.642   7.253 -0.7680 -0.3159  2.9802
  942MOL0     H27124   4.148   5.815   7.263  1.7159  1.2282 -0.6013
  942MOL0     H27125   4.201   5.702   7.391  1.5879 -2.5918 -0.0366
  942MOL0     H27126   4.174   5.508   7.214  1.8057  1.2018  0.3272
  942MOL0     H27127   4.110   5.630   7.102 -2.7620 -0.8346  0.2341
  942MOL0     H27128   3.919   5.664   7.250 -1.9830 -1.6679 -1.0687
  942MOL0     H27129   3.996   5.575   7.382 -2.9469 -1.4872 -0.0368
  942MOL0     H27130   3.779   5.518   7.468 -0.6779 -1.5833  1.0828
  942MOL0     H27131   3.499   5.508   7.577  0.8159 -2.4569  5.9885
  942MOL0     H27132   3.514   5.329   7.579 -1.7785 -0.1264  1.2240
  942MOL0     H27133   3.648   5.430   7.622  1.0196  0.9670 -1.1692
  942MOL0     H27134   3.122   5.464   7.266  4.1257  1.4331  0.8323
  942MOL0     H27135   2.870   5.471   7.348 -2.5341 -1.0986  0.9757
  942MOL0     H27136   2.700   5.513   7.520 -1.3775 -0.5260  1.1452
  942MOL0     H27137   2.678   5.371   7.418 -0.0470 -0.0435  0.7487
  942MOL0     H27138   2.534   5.270   7.602  1.2979 -0.4202  0.0850
  942MOL0     H27139   2.566   5.418   7.697 -0.6012 -1.4898  0.7532
  942MOL0     H27140   2.413   5.372   7.447 -0.7855 -1.0696  0.9137
  942MOL0     H27141   2.450   5.540   7.476 -0.5388  1.6856  2.7448
  942MOL0     H27142   2.311   5.351   7.672 -1.9099  0.8161  0.0380
  942MOL0     H27143   2.313   5.531   7.675 -1.2662 -0.7256  0.5129
  942MOL0     H27144   2.187   5.558   7.482 -3.5849 -0.0128 -1.7237
  942MOL0     H27145   2.107   5.454   7.604  2.3071 -1.1513  3.0805
  942MOL0     H27146   2.195   5.383   7.321  2.5819  0.8209  0.2444
  942MOL0     H27147   2.191   5.253   7.450 -0.8947 -1.6447 -1.6335
  942MOL0     H27148   1.964   5.332   7.502  0.8175 -0.4870  0.6611
  942MOL0     H27149   1.978   5.254   7.345  1.2846  1.8254 -1.9836
  942MOL0     H27150   1.971   5.490   7.241 -1.2059 -1.0730 -1.2578
  942MOL0     H27151   1.970   5.563   7.397 -1.8789  0.2973  1.6303
  942MOL0     H27152   3.009   5.261   7.691 -1.5455  1.8165  1.2166
  942MOL0     H27153   3.243   5.307   7.632 -1.5216 -2.7283  1.4655
  942MOL0     H27154   3.536   5.299   7.100 -0.9483  2.3673 -1.1366
  942MOL0     H27155   3.790   5.338   7.078  0.2818 -2.9285  1.5966
  942MOL0     H27156   5.694   5.902   7.227 -1.1331  0.0505  0.6775
  942MOL0     H27157   5.914   5.963   7.156 -1.7323  0.0958 -1.4810
  942MOL0     H27158   6.078   6.401   6.943  1.2565 -0.2494 -1.1963
  942MOL0     H27159   6.285   6.491   6.845  1.3545 -1.2462 -2.0628
  942MOL0     H27160   6.675   6.394   7.029  0.8270 -0.0013 -0.0877
  942MOL0     H27161   6.688   6.261   6.908 -2.1621  0.2730 -0.0705
  942MOL0     H27162   6.786   6.543   6.854  4.1063  0.7875 -0.8954
  942MOL0     H27163   6.728   6.424   6.735 -0.8790 -2.4704  1.2087
  942MOL0     H27164   6.900   6.271   6.810 -2.3424 -0.9010  1.6375
  942MOL0     H27165   6.958   6.386   6.938 -1.0559 -1.1417  0.5384
  942MOL0     H27166   7.036   6.539   6.773 -1.5093 -0.2683  1.4144
  942MOL0     H27167   6.955   6.450   6.640  1.2304  1.5223  0.1333
  942MOL0     H27168   7.342   6.294   6.677  0.3224 -0.1233 -0.6233
  942MOL0     H27169   6.518   6.241   7.090  0.9762  2.3711  0.0484
  942MOL0     H27170   6.308   6.127   7.174  1.0054  1.5312  1.5760
  943MOL0     O27171   8.460  10.692   7.200 -0.1500  0.0671 -0.5166
  943MOL0     C27172   8.510  10.646   7.103  0.4063  0.0280  0.1041
  943MOL0     O27173   8.439  10.573   7.003 -0.4567 -0.7294  0.0842
  943MOL0     C27174   8.301  10.555   7.004 -0.3657 -0.0503  0.2111
  943MOL0     C27175   8.223  10.550   6.888  0.3828 -0.2021  0.3886
  943MOL0     C27176   8.085  10.557   6.885  0.7576 -0.6141 -0.2127
  943MOL0     C27177   8.009  10.552   7.006 -1.1824 -0.6939  0.9643
  943MOL0     O27178   7.877  10.535   6.985  0.4945 -0.1447  0.1549
  943MOL0     C27179   7.809  10.444   7.070 -0.1150 -0.0015 -0.0482
  943MOL0     C27180   7.672  10.402   7.015 -0.0486 -0.2265 -0.1319
  943MOL0     C27181   7.576  10.336   7.120 -0.0876 -0.1654 -0.7450
  943MOL0     C27182   7.630  10.242   7.233 -0.4274 -0.1553  0.3644
  943MOL0     C27183   7.526  10.208   7.336  0.4654 -0.5255  0.6569
  943MOL0     C27184   7.565  10.082   7.424 -0.6670  0.5521  0.2639
  943MOL0     C27185   7.459  10.056   7.535  0.9226 -0.3377  0.0461
  943MOL0     C27186   7.314  10.093   7.517  0.4438  0.8462 -0.3815
  943MOL0     N27187   7.238   9.998   7.433 -0.1942 -0.4616  0.6164
  943MOL0     C27188   7.102   9.992   7.431  0.2840  0.4553  0.2796
  943MOL0     C27189   7.078   9.932   7.309  0.3244 -1.3302 -0.4119
  943MOL0     C27190   6.950   9.910   7.231 -0.0048 -0.2010 -0.1529
  943MOL0     C27191   6.939  10.021   7.126 -1.1013  0.3049 -0.1464
  943MOL0     C27192   6.877  10.150   7.178  0.3070 -1.1165 -0.3223
  943MOL0     C27193   6.883  10.268   7.081  0.5065  0.6064  0.0307
  943MOL0     O27194   6.821  10.394   7.119 -0.8166 -0.4329 -0.1416
  943MOL0     C27195   6.682  10.411   7.122  0.2095 -0.0768 -0.0392
  943MOL0     C27196   6.591  10.320   7.067 -0.4212 -0.1523  0.2836
  943MOL0     C27197   6.451  10.337   7.068 -0.3375  0.2362 -0.4291
  943MOL0     C27198   6.363  10.227   7.011 -0.1471 -0.4694 -0.4278
  943MOL0     C27199   6.396  10.461   7.119 -1.5707 -0.5720  0.1301
  943MOL0     C27200   6.255  10.499   7.134  0.7920 -0.2236  0.0975
  943MOL0     O27201   6.221  10.632   7.138  0.5212 -0.0318 -0.4707
  943MOL0     C27202   6.095  10.674   7.178 -0.3361  0.0949 -1.0214
  943MOL0     C27203   5.996  10.696   7.077  0.1023 -0.6192  0.4316
  943MOL0     C27204   5.874  10.745   7.122 -0.7861 -0.7815  0.2120
  943MOL0     C27205   5.837  10.747   7.257 -0.4561 -0.6495 -0.3497
  943MOL0     O27206   5.712  10.779   7.305  0.3207  0.5958 -0.0014
  943MOL0     C27207   5.609  10.778   7.208 -0.3770  0.7924 -0.7408
  943MOL0     C27208   5.473  10.781   7.273  0.0060 -1.0453  0.3952
  943MOL0     C27209   5.361  10.737   7.182  0.8159 -0.4822 -0.0416
  943MOL0     C27210   5.222  10.797   7.213 -0.1195 -0.0338  0.1506
  943MOL0     C27211   5.116  10.777   7.098 -0.4002  0.5642 -0.4844
  943MOL0     C27212   5.010  10.888   7.113  0.0012  0.5239  0.0078
  943MOL0     C27213   4.906  10.870   7.007 -0.3549  0.3486  0.4074
  943MOL0     C27214   4.786  10.963   7.037 -0.4176 -0.3106 -0.2066
  943MOL0    Cl27215   4.680  10.966   6.881  0.0645  0.4078 -0.0762
  943MOL0     C27216   5.939  10.738   7.352  0.4526  0.1523 -0.5104
  943MOL0     C27217   6.065  10.691   7.318 -0.0735 -0.0178 -0.3017
  943MOL0     O27218   6.176  10.404   7.147 -0.3050  0.2988 -0.1799
  943MOL0     C27219   6.494  10.551   7.182 -0.2522  0.5062 -0.1328
  943MOL0     C27220   6.629  10.534   7.179 -0.0429  0.2439 -0.4393
  943MOL0     N27221   7.198   9.891   7.255  0.3394 -1.2699  0.8964
  943MOL0     N27222   7.292   9.918   7.336 -0.7592 -0.6700  0.6992
  943MOL0     C27223   8.082  10.563   7.123  0.3654  0.7704  0.4815
  943MOL0     C27224   8.225  10.552   7.127  0.2693 -1.1658 -0.5592
  943MOL0     C27225   8.654  10.636   7.098  0.4108 -0.5984 -0.3091
  943MOL0     C27226   8.745  10.703   7.189 -0.0683 -0.0869 -0.0514
  943MOL0     C27227   8.877  10.671   7.188  0.3066 -0.2471  0.2968
  943MOL0     C27228   8.935  10.583   7.103  0.9439  0.4744 -0.2184
  943MOL0     O27229   9.073  10.562   7.126 -0.1422  0.0222  0.3758
  943MOL0     C27230   9.142  10.470   7.044 -0.6168  0.0365 -0.3045
  943MOL0     C27231   9.297  10.469   7.066  0.7784  0.3924 -0.4763
  943MOL0     C27232   9.365  10.605   7.042  0.3759 -0.6889  0.4142
  943MOL0     C27233   9.521  10.592   7.033 -0.0476  0.0954 -0.2100
  943MOL0     C27234   9.555  10.504   6.920  0.0160 -0.6969  0.1658
  943MOL0     C27235   9.587  10.423   6.830  0.1275 -0.3658 -0.1024
  943MOL0     C27236   8.847  10.520   7.004 -0.2498 -0.2026 -0.4373
  943MOL0     C27237   8.709  10.539   7.008  0.4694 -0.7326  0.1229
  943MOL0     H27238   8.277  10.547   6.794 -0.0940  0.6553  0.0813
  943MOL0     H27239   8.022  10.573   6.799  0.6864 -2.3218 -0.5118
  943MOL0     H27240   7.875  10.358   7.072  1.5262  1.0716 -2.7896
  943MOL0     H27241   7.794  10.490   7.169 -3.8605 -1.3685  0.1899
  943MOL0     H27242   7.631  10.491   6.967 -0.8452  0.0372  0.9939
  943MOL0     H27243   7.691  10.330   6.935  0.7829 -3.5910  2.8710
  943MOL0     H27244   7.535  10.419   7.178 -1.5290 -0.5037 -1.2485
  943MOL0     H27245   7.503  10.275   7.066  1.3830 -0.6561 -2.2902
  943MOL0     H27246   7.661  10.158   7.170 -0.1400  0.2914 -0.1092
  943MOL0     H27247   7.713  10.281   7.294  1.2233 -3.0174  0.0978
  943MOL0     H27248   7.519  10.295   7.402 -1.9647  1.9939 -2.5812
  943MOL0     H27249   7.433  10.184   7.285  0.4679  2.5610 -1.0352
  943MOL0     H27250   7.571   9.997   7.355  1.8662  0.0199  1.0616
  943MOL0     H27251   7.668  10.096   7.456  0.4781 -1.8756 -1.9428
  943MOL0     H27252   7.471   9.950   7.559 -0.0678 -0.5742 -0.4560
  943MOL0     H27253   7.485  10.110   7.626 -0.2072 -2.1850  1.5520
  943MOL0     H27254   7.308  10.197   7.484 -0.7445  2.2554  3.6884
  943MOL0     H27255   7.270  10.090   7.617 -0.3221  1.9627 -0.6655
  943MOL0     H27256   7.030  10.040   7.497  1.0206  0.4326  1.1155
  943MOL0     H27257   6.962   9.817   7.174  2.6729  0.3062 -0.5439
  943MOL0     H27258   6.867   9.904   7.302  0.7111 -0.2329  0.7115
  943MOL0     H27259   6.897   9.995   7.028  1.6800  4.0617 -2.6205
  943MOL0     H27260   7.041  10.050   7.098 -0.8846 -0.9899 -0.7709
  943MOL0     H27261   6.928  10.193   7.265 -0.4202 -1.9129  0.5286
  943MOL0     H27262   6.770  10.136   7.199  0.6964 -1.7411  1.4837
  943MOL0     H27263   6.846  10.234   6.983 -0.1918  0.0041  0.4905
  943MOL0     H27264   6.983  10.301   7.052  0.6618 -0.5706 -0.8145
  943MOL0     H27265   6.635  10.226   7.035 -0.7234  0.6031 -2.6838
  943MOL0     H27266   6.428  10.152   6.964  0.5495 -1.0213  1.3568
  943MOL0     H27267   6.309  10.183   7.095  2.3052  0.1238  1.5793
  943MOL0     H27268   6.278  10.256   6.948 -0.8994 -1.1068  0.2698
  943MOL0     H27269   6.017  10.678   6.972  2.6881  1.3929  0.4992
  943MOL0     H27270   5.815  10.777   7.037  2.9042  0.9435 -1.9243
  943MOL0     H27271   5.608  10.862   7.138  0.5887 -0.5872 -2.4992
  943MOL0     H27272   5.609  10.691   7.141 -1.8070  0.9902 -1.0459
  943MOL0     H27273   5.471  10.707   7.354  0.5495 -0.0086  1.3884
  943MOL0     H27274   5.452  10.881   7.313  0.8416 -0.6872 -0.0355
  943MOL0     H27275   5.353  10.628   7.188 -0.9918 -0.4267 -1.0801
  943MOL0     H27276   5.381  10.771   7.080 -1.1654  0.4643 -0.1621
  943MOL0     H27277   5.192  10.753   7.309  0.7682  1.3969  1.1247
  943MOL0     H27278   5.238  10.904   7.232  0.1078 -0.1946  0.9217
  943MOL0     H27279   5.071  10.678   7.113 -0.2113  0.4784 -0.4791
  943MOL0     H27280   5.167  10.788   7.002  0.2878  0.9080 -0.0887
  943MOL0     H27281   4.959  10.882   7.210 -1.0402  0.0876 -0.5483
  943MOL0     H27282   5.058  10.986   7.108  1.8504 -0.1665  2.3211
  943MOL0     H27283   4.873  10.766   7.003  1.1685 -0.1077 -1.3958
  943MOL0     H27284   4.945  10.890   6.907 -1.2051 -1.0521 -0.2387
  943MOL0     H27285   4.810  11.063   7.074 -0.2081  0.2802 -1.8717
  943MOL0     H27286   4.728  10.922   7.120  1.1588 -1.2016  0.4934
  943MOL0     H27287   5.904  10.751   7.454  4.5029  2.1639  0.8320
  943MOL0     H27288   6.144  10.674   7.390 -0.3881 -1.3267 -0.2378
  943MOL0     H27289   6.456  10.642   7.227 -2.0516  1.1372 -2.7010
  943MOL0     H27290   6.695  10.606   7.226  0.5376 -0.7379  0.2804
  943MOL0     H27291   8.031  10.558   7.218  0.9154 -0.0716  0.7413
  943MOL0     H27292   8.267  10.544   7.227 -2.5617 -0.6602  0.7592
  943MOL0     H27293   8.704  10.784   7.249 -0.9662  1.0416 -2.0893
  943MOL0     H27294   8.952  10.725   7.246 -0.9274 -0.2508  1.9711
  943MOL0     H27295   9.098  10.371   7.056  2.0345 -1.2925 -0.8755
  943MOL0     H27296   9.132  10.496   6.937 -0.0328  1.1657 -0.1031
  943MOL0     H27297   9.350  10.393   7.008  0.0160 -0.4367 -0.1157
  943MOL0     H27298   9.315  10.444   7.171  1.4588  2.7099  0.0186
  943MOL0     H27299   9.334  10.668   7.126 -0.1876 -0.0952 -0.2285
  943MOL0     H27300   9.328  10.648   6.949  1.1952 -0.3375  0.2384
  943MOL0     H27301   9.562  10.540   7.120  2.5208 -1.1953 -2.0555
  943MOL0     H27302   9.574  10.687   7.022 -1.5837  0.9775 -0.1724
  943MOL0     H27303   9.638  10.355   6.765 -0.9776 -0.2004 -1.1746
  943MOL0     H27304   8.899  10.444   6.947  3.3218  0.8272  1.1493
  943MOL0     H27305   8.648  10.478   6.943  1.2925 -1.1542 -0.2767
  944MOL0     O27306   5.661   9.562  10.016 -0.1443  0.7473  0.6090
  944MOL0     C27307   5.657   9.548  10.136  0.2232  0.3303  0.3982
  944MOL0     O27308   5.549   9.547  10.219 -0.4897 -0.1413  0.4643
  944MOL0     C27309   5.429   9.589  10.186 -0.2687 -0.2674  1.4761
  944MOL0     C27310   5.360   9.507  10.097  0.3412  0.2245 -0.1620
  944MOL0     C27311   5.237   9.536  10.045  0.7164 -0.0338 -0.6264
  944MOL0     C27312   5.174   9.647  10.101  1.0059 -0.3669 -0.7005
  944MOL0     O27313   5.051   9.685  10.060  0.1501 -0.2007 -0.5563
  944MOL0     C27314   5.047   9.776   9.952  0.0685  0.0366  0.0243
  944MOL0     C27315   4.934   9.736   9.869  0.0121  0.3126 -0.4280
  944MOL0     C27316   4.790   9.772   9.909 -0.4602 -0.4633  0.2146
  944MOL0     C27317   4.766   9.924   9.876 -0.2460  0.3334  0.0527
  944MOL0     C27318   4.627   9.966   9.894  0.7677 -0.8584 -0.1080
  944MOL0     C27319   4.553   9.961  10.026  0.4036  1.3442  0.1996
  944MOL0     C27320   4.419  10.041  10.011  0.3832 -0.2196  0.0787
  944MOL0     C27321   4.357  10.025  10.151  0.4029 -0.4931  0.2609
  944MOL0     N27322   4.231  10.109  10.160 -0.2996  1.6613 -0.2754
  944MOL0     C27323   4.113  10.077  10.093  0.6091  0.4748 -0.4200
  944MOL0     C27324   4.030  10.179  10.115 -0.3148  0.9027 -0.4466
  944MOL0     C27325   3.884  10.182  10.057 -0.3747  0.9261 -0.1527
  944MOL0     C27326   3.791  10.156  10.175 -0.0872  0.2939  1.0457
  944MOL0     C27327   3.693  10.036  10.158 -1.0040 -0.0550  0.7703
  944MOL0     C27328   3.661   9.976  10.304  0.4869 -0.3802  0.5526
  944MOL0     O27329   3.619  10.078  10.391  0.5727  0.2865 -0.4489
  944MOL0     C27330   3.502  10.150  10.367  1.1589  0.0096 -0.7042
  944MOL0     C27331   3.493  10.285  10.405  0.0946 -0.1547  0.3853
  944MOL0     C27332   3.376  10.362  10.380  0.7655  0.8899  0.0539
  944MOL0     C27333   3.381  10.503  10.404  0.5532  0.2370  0.0441
  944MOL0     C27334   3.262  10.298  10.327  0.1049  0.0736  0.4183
  944MOL0     C27335   3.124  10.355  10.313  0.0460 -0.4088 -0.7829
  944MOL0     O27336   3.112  10.484  10.314  0.4880 -0.4458 -0.2116
  944MOL0     C27337   2.980  10.551  10.297 -0.6646  0.2375  0.4315
  944MOL0     C27338   2.955  10.624  10.185  0.2040  0.0363  0.3693
  944MOL0     C27339   2.837  10.694  10.169 -0.4835  0.1606  0.5659
  944MOL0     C27340   2.738  10.680  10.270  0.1233  0.6777 -0.1318
  944MOL0     O27341   2.613  10.743  10.263 -0.3675 -0.1276  0.3383
  944MOL0     C27342   2.551  10.733  10.133  0.3323 -0.0573 -0.2215
  944MOL0     C27343   2.414  10.796  10.142 -0.3500 -1.1679  0.0085
  944MOL0     C27344   2.402  10.952  10.147 -0.5349  0.1271 -0.2738
  944MOL0     C27345   2.258  11.004  10.161  0.0471  0.4039  0.5048
  944MOL0     C27346   2.245  11.147  10.102 -1.1093  0.2824  1.2067
  944MOL0     C27347   2.103  11.207  10.137  0.3140  0.1301  0.5769
  944MOL0     C27348   2.077  11.326  10.058 -0.3362  0.7473  0.9967
  944MOL0     C27349   1.937  11.376  10.089 -0.3380 -0.3822  0.2757
  944MOL0    Cl27350   1.906  11.541  10.024  0.1500 -0.3788  0.3761
  944MOL0     C27351   2.758  10.593  10.380 -0.5607  0.8045 -0.3417
  944MOL0     C27352   2.883  10.528  10.395  0.1358  0.5876  0.1181
  944MOL0     O27353   3.027  10.276  10.307  0.0422  0.5801 -0.2870
  944MOL0     C27354   3.274  10.164  10.282  0.3286  0.4068  0.0228
  944MOL0     C27355   3.392  10.085  10.304 -0.1458  0.3043  1.0280
  944MOL0     N27356   4.086  10.261  10.211 -0.0685  0.2354  0.1047
  944MOL0     N27357   4.208  10.219  10.237  0.7287  0.5682 -0.2801
  944MOL0     C27358   5.229   9.734  10.192  0.5758  0.1922  0.3788
  944MOL0     C27359   5.366   9.708  10.238  0.7221 -0.1257  0.2498
  944MOL0     C27360   5.785   9.538  10.204 -0.1670 -0.3072  0.1642
  944MOL0     C27361   5.807   9.553  10.341 -0.1622  0.7487 -0.0026
  944MOL0     C27362   5.939   9.543  10.394  0.1864  0.2257  0.1585
  944MOL0     C27363   6.048   9.532  10.308 -0.4390  0.1000  0.8757
  944MOL0     O27364   6.179   9.524  10.366  0.0420  0.2418 -0.5948
  944MOL0     C27365   6.293   9.458  10.292 -0.6882 -0.2988  0.1691
  944MOL0     C27366   6.400   9.412  10.391  0.2639  0.4718 -0.0332
  944MOL0     C27367   6.467   9.523  10.476  0.5758  0.1428 -0.5018
  944MOL0     C27368   6.615   9.484  10.498 -0.2872 -0.1487  0.2706
  944MOL0     C27369   6.638   9.384  10.598  0.2747 -0.1761 -0.5081
  944MOL0     C27370   6.653   9.302  10.687 -1.4043 -0.3837  0.5707
  944MOL0     C27371   6.031   9.527  10.173  0.4282  0.2054  0.4138
  944MOL0     C27372   5.904   9.526  10.122  0.0807  0.4263 -0.2635
  944MOL0     H27373   5.421   9.430  10.051  1.8132  1.0607  0.3275
  944MOL0     H27374   5.198   9.471   9.967 -2.3307 -0.9354  1.4372
  944MOL0     H27375   5.028   9.876   9.991 -0.6573 -0.2776  0.4994
  944MOL0     H27376   5.145   9.773   9.904 -0.2359 -2.0387 -0.5481
  944MOL0     H27377   4.957   9.781   9.772  0.9803 -1.0416 -0.8450
  944MOL0     H27378   4.928   9.629   9.848 -0.5839  0.2497  0.0314
  944MOL0     H27379   4.723   9.710   9.849 -0.6118  1.0927 -1.3191
  944MOL0     H27380   4.783   9.750  10.016  3.3535 -3.0627  0.1045
  944MOL0     H27381   4.830   9.980   9.944 -2.9066  3.1841  0.3993
  944MOL0     H27382   4.803   9.948   9.775  0.3691 -1.5531 -0.2304
  944MOL0     H27383   4.606  10.065   9.852 -1.6307 -0.8600  0.9206
  944MOL0     H27384   4.562   9.913   9.824  0.0695  1.3274 -1.1972
  944MOL0     H27385   4.530   9.855  10.039  1.4509  1.2929  2.0902
  944MOL0     H27386   4.607  10.006  10.110  0.2640  0.0363  1.0316
  944MOL0     H27387   4.438  10.145   9.981  6.4190 -1.5738 -2.2801
  944MOL0     H27388   4.356   9.996   9.933  2.0286 -3.6438  0.5479
  944MOL0     H27389   4.424  10.062  10.229  0.5955 -1.0986  0.3834
  944MOL0     H27390   4.335   9.922  10.180  0.4677  0.4082  3.9180
  944MOL0     H27391   4.098   9.995  10.024  2.0260  1.5903 -2.1318
  944MOL0     H27392   3.853  10.282  10.026  0.7801  0.8505 -1.6417
  944MOL0     H27393   3.867  10.116   9.972 -1.7574 -0.1325  0.8895
  944MOL0     H27394   3.735  10.247  10.202 -1.1078 -0.4798  1.6307
  944MOL0     H27395   3.847  10.134  10.267 -0.2327  0.2895  1.1344
  944MOL0     H27396   3.742   9.960  10.096  0.6593 -0.4890  2.5044
  944MOL0     H27397   3.602  10.065  10.105 -1.8070 -3.5487 -0.0498
  944MOL0     H27398   3.745   9.922  10.351 -0.3626 -0.9870  1.4062
  944MOL0     H27399   3.583   9.899  10.300  1.0138 -0.8786 -1.2926
  944MOL0     H27400   3.585  10.329  10.444 -0.1101  1.4386 -0.7911
  944MOL0     H27401   3.351  10.566  10.320 -0.5791 -0.7315 -0.3153
  944MOL0     H27402   3.312  10.522  10.487 -0.9228  0.3652 -1.1726
  944MOL0     H27403   3.479  10.536  10.439 -0.8618  1.8789  2.8618
  944MOL0     H27404   3.028  10.635  10.107 -0.3034 -0.4054 -0.1769
  944MOL0     H27405   2.832  10.768  10.090 -0.7541  1.8386  2.0993
  944MOL0     H27406   2.613  10.780  10.055  1.9000 -0.8043  0.5196
  944MOL0     H27407   2.533  10.630  10.103  0.6975  0.2741 -1.6453
  944MOL0     H27408   2.352  10.758  10.060 -0.2974 -1.7410  0.2331
  944MOL0     H27409   2.376  10.760  10.237 -0.3555  2.8494  1.7393
  944MOL0     H27410   2.454  10.980  10.056  1.8379 -5.2530 -0.9472
  944MOL0     H27411   2.463  10.981  10.233  0.0636 -4.1558  0.9918
  944MOL0     H27412   2.189  10.944  10.100  1.1849  0.3360 -0.7557
  944MOL0     H27413   2.228  10.989  10.265 -0.0340  0.4722  0.4920
  944MOL0     H27414   2.254  11.143   9.993  2.9667 -0.4914  1.4127
  944MOL0     H27415   2.333  11.203  10.136  0.6317 -2.0650  0.7660
  944MOL0     H27416   2.023  11.140  10.107  0.1638  1.1481 -1.4587
  944MOL0     H27417   2.094  11.233  10.243 -3.6611  0.1035  0.3901
  944MOL0     H27418   2.070  11.298   9.952 -0.6071  1.3141  0.8643
  944MOL0     H27419   2.160  11.396  10.075  0.8250 -0.4109  0.2970
  944MOL0     H27420   1.923  11.372  10.197 -1.1143  0.6436  0.2252
  944MOL0     H27421   1.851  11.318  10.053 -1.1798 -0.1162  1.7984
  944MOL0     H27422   2.674  10.587  10.449 -3.3568  1.4833 -3.4014
  944MOL0     H27423   2.901  10.459  10.476 -1.2459  0.1295  0.0649
  944MOL0     H27424   3.189  10.126  10.226  0.6178  1.8556 -1.4717
  944MOL0     H27425   3.382   9.982  10.270 -3.1361  1.5915 -2.6871
  944MOL0     H27426   5.182   9.825  10.229 -1.4564 -0.0005 -1.5520
  944MOL0     H27427   5.419   9.766  10.313  1.1907  0.4695 -0.5297
  944MOL0     H27428   5.734   9.564  10.421  0.5758 -3.3120  1.4291
  944MOL0     H27429   5.946   9.533  10.502 -1.6368  0.8744  0.3720
  944MOL0     H27430   6.264   9.368  10.237 -3.2506  0.4926  0.0833
  944MOL0     H27431   6.340   9.530  10.226  0.9253 -0.9398  0.5716
  944MOL0     H27432   6.473   9.373  10.318 -0.1212 -1.0686  0.3782
  944MOL0     H27433   6.375   9.333  10.462 -1.1956  1.8702  1.0757
  944MOL0     H27434   6.419   9.537  10.573  1.4346 -3.0849  0.5238
  944MOL0     H27435   6.449   9.620  10.427  0.2428 -0.0032 -0.6714
  944MOL0     H27436   6.671   9.572  10.531  0.1254  0.1668 -1.1933
  944MOL0     H27437   6.661   9.458  10.402  1.5981 -0.1905  1.1388
  944MOL0     H27438   6.664   9.226  10.761 -1.0683 -1.1484 -0.2465
  944MOL0     H27439   6.119   9.509  10.112  1.0935  2.1999  0.7186
  944MOL0     H27440   5.893   9.515  10.014  0.5219  1.5157 -0.4315
  945MOL0     O27441   4.460   6.777   6.212  0.0038  0.0742  0.1752
  945MOL0     C27442   4.516   6.843   6.123 -0.0648 -0.3092 -0.1284
  945MOL0     O27443   4.459   6.873   6.001 -0.0617  0.1398  0.5028
  945MOL0     C27444   4.344   6.822   5.950  0.0238 -0.3337  0.1806
  945MOL0     C27445   4.276   6.898   5.853  0.6431  0.4379  0.0900
  945MOL0     C27446   4.146   6.861   5.811  0.6453  0.1669  0.7100
  945MOL0     C27447   4.085   6.743   5.846 -0.4248  0.1278  0.9424
  945MOL0     O27448   3.961   6.701   5.804 -0.2974  0.2903  0.4413
  945MOL0     C27449   3.858   6.755   5.889 -0.4960 -0.0193 -0.4723
  945MOL0     C27450   3.722   6.729   5.817 -1.0719  0.1042  0.4720
  945MOL0     C27451   3.607   6.783   5.899 -0.1831 -0.3680  0.4913
  945MOL0     C27452   3.478   6.752   5.813  0.5135 -0.6043 -0.2083
  945MOL0     C27453   3.354   6.804   5.890 -0.8382 -0.8543  0.1737
  945MOL0     C27454   3.235   6.777   5.798  0.5013 -0.4109  0.1822
  945MOL0     C27455   3.109   6.831   5.868  0.2095 -0.2777 -0.7100
  945MOL0     C27456   2.982   6.827   5.775  0.5456 -0.0707  0.3285
  945MOL0     N27457   2.892   6.915   5.832  0.1126 -0.1024 -0.2336
  945MOL0     C27458   2.844   6.882   5.951  0.2122 -1.2361 -1.1937
  945MOL0     C27459   2.770   6.993   5.985 -0.1302  0.6130  0.3072
  945MOL0     C27460   2.718   7.012   6.120  0.3344  0.6408  0.1262
  945MOL0     C27461   2.583   6.951   6.143 -0.4400 -0.1684  0.0054
  945MOL0     C27462   2.464   6.997   6.049  0.8320 -0.4483  0.1240
  945MOL0     C27463   2.347   6.896   6.064 -0.2602  0.7618  0.5815
  945MOL0     O27464   2.240   6.928   5.974  0.3302  0.0852  0.4188
  945MOL0     C27465   2.118   6.865   5.984 -0.0928 -0.3845 -0.1767
  945MOL0     C27466   2.017   6.925   5.911  0.0897  0.2368 -0.1924
  945MOL0     C27467   1.882   6.875   5.916  0.3703  0.2671 -0.0820
  945MOL0     C27468   1.778   6.938   5.832 -0.3695 -0.6822 -0.1568
  945MOL0     C27469   1.853   6.767   6.008  0.8773 -0.6706 -0.2006
  945MOL0     C27470   1.716   6.715   6.028  1.3418  0.1644 -0.0605
  945MOL0     O27471   1.711   6.613   6.108 -0.4696  0.1558 -0.5250
  945MOL0     C27472   1.591   6.568   6.160  0.8557  0.0357  0.1097
  945MOL0     C27473   1.604   6.489   6.280  0.5827 -0.4385  0.8182
  945MOL0     C27474   1.490   6.440   6.336 -0.8198  0.3399 -0.4943
  945MOL0     C27475   1.366   6.464   6.283  0.6191  0.1252 -0.5394
  945MOL0     O27476   1.253   6.413   6.343 -0.4745 -0.1066 -0.3121
  945MOL0     C27477   1.261   6.387   6.489  1.2185  0.3521  0.3131
  945MOL0     C27478   1.117   6.353   6.522  0.0658 -0.2747  0.0752
  945MOL0     C27479   1.090   6.295   6.666  0.0161 -0.0212  0.0048
  945MOL0     C27480   0.944   6.255   6.688 -0.0543 -0.3734 -0.0720
  945MOL0     C27481   0.948   6.200   6.834 -0.3138 -0.0931  1.0120
  945MOL0     C27482   0.808   6.187   6.897 -0.7853 -0.1958 -0.7931
  945MOL0     C27483   0.739   6.061   6.844 -0.8968 -0.7869 -0.1967
  945MOL0     C27484   0.627   6.011   6.936  0.1703  0.6476 -0.5358
  945MOL0    Cl27485   0.710   5.919   7.072 -0.1684 -0.1688 -0.0118
  945MOL0     C27486   1.355   6.533   6.162 -0.3421  0.5373 -1.2809
  945MOL0     C27487   1.468   6.587   6.099 -0.3947  0.9869  0.1820
  945MOL0     O27488   1.616   6.788   6.004 -1.1143 -0.2017  0.1916
  945MOL0     C27489   1.960   6.708   6.070  0.3573 -0.1056 -0.0738
  945MOL0     C27490   2.087   6.751   6.057 -0.8122 -0.3214  0.7328
  945MOL0     N27491   2.765   7.085   5.875  0.0960 -0.1477 -0.1762
  945MOL0     N27492   2.833   7.031   5.777 -0.3406  0.6691 -0.3919
  945MOL0     C27493   4.153   6.664   5.938  0.3200 -0.5132  0.8605
  945MOL0     C27494   4.282   6.700   5.988 -0.8542  1.0375  0.2400
  945MOL0     C27495   4.645   6.900   6.166  0.2325  1.1417  0.1419
  945MOL0     C27496   4.744   6.944   6.076  0.5493  0.0760 -0.5014
  945MOL0     C27497   4.873   6.978   6.115  0.2697 -0.4724 -0.3117
  945MOL0     C27498   4.915   6.990   6.246  0.2476 -0.1709 -0.4856
  945MOL0     O27499   5.045   7.019   6.288  0.4024  0.3746 -0.2004
  945MOL0     C27500   5.143   7.061   6.193  0.0810  0.2233 -0.2090
  945MOL0     C27501   5.280   7.068   6.254 -0.1685  0.1571 -0.2142
  945MOL0     C27502   5.395   7.075   6.157 -0.4780  0.0706  0.0633
  945MOL0     C27503   5.532   7.059   6.231 -0.0280 -1.0330 -0.8129
  945MOL0     C27504   5.546   7.182   6.317  0.1600 -0.8503  0.3064
  945MOL0     C27505   5.539   7.293   6.369  0.1258 -0.2811  0.4938
  945MOL0     C27506   4.818   6.952   6.341  0.0630  0.2482  0.3318
  945MOL0     C27507   4.690   6.914   6.303  0.0926  0.0539  0.2305
  945MOL0     H27508   4.330   6.982   5.810  1.2451  0.2759  0.5134
  945MOL0     H27509   4.092   6.923   5.741  2.5442  1.0989  0.0195
  945MOL0     H27510   3.851   6.700   5.983 -1.6754  2.3589  0.9187
  945MOL0     H27511   3.869   6.862   5.907 -2.7690  0.2604 -0.3638
  945MOL0     H27512   3.728   6.759   5.712 -1.4143  1.1544  0.7409
  945MOL0     H27513   3.721   6.619   5.811  1.0540  0.1024 -1.0614
  945MOL0     H27514   3.612   6.743   6.000  0.5910 -0.5384  0.3883
  945MOL0     H27515   3.622   6.891   5.907 -0.7954 -0.2175 -0.2569
  945MOL0     H27516   3.486   6.802   5.717  1.5853  1.8432  1.0680
  945MOL0     H27517   3.471   6.644   5.798 -1.5542 -0.2370 -2.3170
  945MOL0     H27518   3.347   6.752   5.986 -2.3598 -2.0627 -0.5471
  945MOL0     H27519   3.356   6.910   5.914  2.6524 -1.5047  3.6660
  945MOL0     H27520   3.260   6.818   5.700  0.9171 -3.7282 -1.2070
  945MOL0     H27521   3.224   6.669   5.795  0.8154 -0.4803 -4.2525
  945MOL0     H27522   3.078   6.769   5.953  0.1428  1.5857  0.7114
  945MOL0     H27523   3.141   6.928   5.908  0.6726 -1.6191  2.5193
  945MOL0     H27524   2.956   6.722   5.763  1.9738 -0.1718 -3.3007
  945MOL0     H27525   3.004   6.850   5.670 -1.7737 -2.1119 -0.6734
  945MOL0     H27526   2.861   6.795   6.013  1.7626  0.8872  1.5889
  945MOL0     H27527   2.785   6.967   6.195  0.8817  0.4515 -0.4615
  945MOL0     H27528   2.715   7.119   6.142 -0.5067  0.6015  0.2296
  945MOL0     H27529   2.551   6.994   6.239 -0.7872  1.8231 -0.9456
  945MOL0     H27530   2.590   6.843   6.157 -2.0645 -0.1655  1.2000
  945MOL0     H27531   2.499   7.004   5.946  2.6666  2.7210  0.8291
  945MOL0     H27532   2.426   7.098   6.068 -2.1261 -1.0054 -2.1989
  945MOL0     H27533   2.307   6.899   6.165 -0.0499 -0.5064  0.7104
  945MOL0     H27534   2.398   6.802   6.040 -0.2900  0.6965  0.7748
  945MOL0     H27535   2.035   7.017   5.854  2.5880  2.0654  3.1973
  945MOL0     H27536   1.817   6.993   5.746 -0.5149 -0.4340 -0.0647
  945MOL0     H27537   1.704   6.867   5.793  0.9623 -1.6758 -0.9467
  945MOL0     H27538   1.737   7.015   5.898  1.6579  0.3682 -0.0494
  945MOL0     H27539   1.703   6.471   6.320  0.7015  0.1571  0.8060
  945MOL0     H27540   1.516   6.378   6.422  0.6337 -0.5805 -1.5505
  945MOL0     H27541   1.327   6.304   6.518  0.1914 -0.5480  0.1543
  945MOL0     H27542   1.283   6.480   6.543  0.6430 -0.8282  2.7180
  945MOL0     H27543   1.044   6.435   6.514 -1.3910 -1.2039  2.5945
  945MOL0     H27544   1.092   6.277   6.448  1.1088  0.0410 -0.6144
  945MOL0     H27545   1.123   6.372   6.737  2.0912 -1.1585  0.3590
  945MOL0     H27546   1.149   6.206   6.691 -0.1269  0.7394  3.5152
  945MOL0     H27547   0.887   6.348   6.681  1.2941  0.4344 -0.8724
  945MOL0     H27548   0.908   6.179   6.619  1.8325 -0.5376 -0.9294
  945MOL0     H27549   1.004   6.268   6.899  0.4595 -1.7791  2.1571
  945MOL0     H27550   1.003   6.106   6.843 -0.1596 -0.0951  0.1666
  945MOL0     H27551   0.823   6.177   7.005 -2.8145  1.2099 -0.3239
  945MOL0     H27552   0.746   6.274   6.874 -2.1108 -0.9944 -0.3256
  945MOL0     H27553   0.807   5.977   6.827 -0.6910 -1.1747  2.2134
  945MOL0     H27554   0.698   6.095   6.748  0.9349 -1.1993 -1.1880
  945MOL0     H27555   0.563   5.948   6.875 -2.2848  0.3911  2.0869
  945MOL0     H27556   0.570   6.090   6.986 -1.5090 -0.5504 -0.4874
  945MOL0     H27557   1.254   6.561   6.131 -1.7396 -1.1601  1.3877
  945MOL0     H27558   1.457   6.646   6.009  0.2695  2.1712  0.8482
  945MOL0     H27559   1.940   6.622   6.134 -1.1768  0.9361  0.9163
  945MOL0     H27560   2.158   6.715   6.131  0.1582 -0.9530 -0.4772
  945MOL0     H27561   4.112   6.567   5.965 -1.4678 -1.5877 -4.4812
  945MOL0     H27562   4.333   6.643   6.064 -2.3994 -0.7946 -0.0181
  945MOL0     H27563   4.725   6.937   5.970  0.6514 -0.7626 -0.4720
  945MOL0     H27564   4.933   7.025   6.038 -0.7370  0.7083 -0.4031
  945MOL0     H27565   5.149   6.982   6.117 -1.2684 -1.0623  0.9748
  945MOL0     H27566   5.105   7.153   6.149  1.1038  0.9787  0.4452
  945MOL0     H27567   5.296   6.982   6.320 -0.1636 -0.5200 -1.0845
  945MOL0     H27568   5.284   7.160   6.314 -3.2663 -1.0858  2.1245
  945MOL0     H27569   5.394   7.164   6.095 -0.1057 -2.0629 -3.2215
  945MOL0     H27570   5.386   6.989   6.090 -0.0336  1.3670 -1.7118
  945MOL0     H27571   5.611   7.057   6.155  1.5040 -1.3571  0.7238
  945MOL0     H27572   5.556   6.978   6.300  0.4821 -0.1991  0.0182
  945MOL0     H27573   5.532   7.394   6.403 -1.3565 -0.2561  0.1526
  945MOL0     H27574   4.839   6.949   6.448 -1.4285  2.8316  0.7796
  945MOL0     H27575   4.621   6.903   6.386  0.7092  0.8403  0.8608
  946MOL0     O27576   8.459   4.831   0.732 -0.1043  0.2084 -0.2638
  946MOL0     C27577   8.482   4.706   0.744 -0.4326 -0.3889  0.1489
  946MOL0     O27578   8.384   4.605   0.733  0.1331 -0.3146  0.5868
  946MOL0     C27579   8.251   4.631   0.708 -0.8034  0.3023  0.2933
  946MOL0     C27580   8.191   4.621   0.577  0.1286  0.2648  0.3979
  946MOL0     C27581   8.055   4.652   0.562  0.5027  0.3819  0.5698
  946MOL0     C27582   7.974   4.693   0.666  0.1924 -0.9191  0.0075
  946MOL0     O27583   7.842   4.714   0.631 -0.0643 -0.1172  0.5054
  946MOL0     C27584   7.767   4.599   0.658 -0.1999  0.0945 -0.1892
  946MOL0     C27585   7.629   4.633   0.715 -0.3592 -0.0105  0.1649
  946MOL0     C27586   7.553   4.721   0.617 -0.2257  0.2314  0.3723
  946MOL0     C27587   7.402   4.710   0.646  0.4613  0.4074  0.1859
  946MOL0     C27588   7.330   4.805   0.559 -0.4648 -0.4212 -0.3774
  946MOL0     C27589   7.182   4.772   0.555 -0.8357 -0.4428 -0.2251
  946MOL0     C27590   7.085   4.850   0.651 -0.9102 -0.2737  0.5099
  946MOL0     C27591   6.947   4.784   0.649 -0.5342  0.3336  0.2149
  946MOL0     N27592   6.840   4.882   0.670 -0.1306  0.2619  0.1465
  946MOL0     C27593   6.805   4.969   0.572  0.1244 -0.7541 -0.5990
  946MOL0     C27594   6.716   5.058   0.624  0.8466  0.0501  0.0189
  946MOL0     C27595   6.648   5.167   0.543 -1.1359  0.3733 -0.3662
  946MOL0     C27596   6.497   5.143   0.550 -0.6371 -0.5022 -1.1787
  946MOL0     C27597   6.450   5.192   0.687 -0.6216 -0.7209  0.8259
  946MOL0     C27598   6.300   5.195   0.695  0.5285  0.0124 -0.0294
  946MOL0     O27599   6.250   5.318   0.628 -0.0084  0.0599 -0.3110
  946MOL0     C27600   6.120   5.345   0.663  0.1510 -1.1438  0.1320
  946MOL0     C27601   6.090   5.461   0.733  0.6067 -0.7268  0.0432
  946MOL0     C27602   5.954   5.485   0.777 -0.2343  0.6635  0.4076
  946MOL0     C27603   5.941   5.605   0.870 -0.4286  0.1878  0.0557
  946MOL0     C27604   5.840   5.408   0.731  0.0512  0.0783 -0.5265
  946MOL0     C27605   5.700   5.436   0.748 -0.6534 -0.1611 -0.2262
  946MOL0     O27606   5.664   5.551   0.809  0.1969  0.1830  0.5487
  946MOL0     C27607   5.534   5.561   0.835 -0.2904 -0.2088  0.5234
  946MOL0     C27608   5.442   5.592   0.740  0.6288  0.4202 -0.4420
  946MOL0     C27609   5.304   5.605   0.782  0.5892 -0.4613 -0.6206
  946MOL0     C27610   5.263   5.592   0.921  0.1446  0.1711 -0.1164
  946MOL0     O27611   5.126   5.596   0.933 -0.0894  0.0396  0.4848
  946MOL0     C27612   5.073   5.579   1.069  0.1153 -0.1013 -0.8151
  946MOL0     C27613   4.929   5.633   1.080 -0.1669  1.2414 -0.5017
  946MOL0     C27614   4.838   5.512   1.098  1.1695 -0.2910  0.1388
  946MOL0     C27615   4.697   5.559   1.097 -0.0891  0.0928 -0.2875
  946MOL0     C27616   4.588   5.455   1.109  0.0480  0.1232  1.1288
  946MOL0     C27617   4.449   5.517   1.079 -0.5351 -0.4870 -0.6908
  946MOL0     C27618   4.418   5.553   0.942  0.4592 -0.6161 -0.4343
  946MOL0     C27619   4.279   5.605   0.916 -0.4266 -0.7771 -0.3595
  946MOL0    Cl27620   4.263   5.769   0.993 -0.1090 -0.0344  0.2319
  946MOL0     C27621   5.365   5.585   1.018 -0.2884 -0.5675 -0.4129
  946MOL0     C27622   5.498   5.563   0.974  0.7609  0.1231 -0.1065
  946MOL0     O27623   5.633   5.336   0.743  0.1972  0.2994 -0.1413
  946MOL0     C27624   5.885   5.296   0.651  0.2871 -0.4364  0.0314
  946MOL0     C27625   6.023   5.261   0.628 -0.4200  0.2383  0.3601
  946MOL0     N27626   6.720   5.037   0.762 -0.3063  0.2649  0.1003
  946MOL0     N27627   6.780   4.928   0.787 -0.3478 -0.3843  0.0827
  946MOL0     C27628   8.031   4.726   0.782  0.4180  0.1367  0.6775
  946MOL0     C27629   8.167   4.689   0.804 -0.1463 -1.5782  0.1800
  946MOL0     C27630   8.623   4.661   0.775 -0.0302  0.2379 -0.6862
  946MOL0     C27631   8.647   4.534   0.842  0.2116  0.1967  0.5546
  946MOL0     C27632   8.774   4.482   0.855 -0.2916 -0.3850 -0.3631
  946MOL0     C27633   8.886   4.564   0.817  0.1915 -0.0089  1.5551
  946MOL0     O27634   9.014   4.508   0.822 -0.2866 -0.4340 -0.1797
  946MOL0     C27635   9.129   4.581   0.776 -0.1772  0.0493  0.1089
  946MOL0     C27636   9.184   4.635   0.902 -0.3726 -0.2835 -0.3854
  946MOL0     C27637   9.211   4.533   1.006  0.4728  0.0020  0.7636
  946MOL0     C27638   9.299   4.590   1.117  0.1636  0.9246  0.4688
  946MOL0     C27639   9.386   4.494   1.192  0.0840 -0.3237  0.7395
  946MOL0     C27640   9.448   4.426   1.266  0.5856  0.3306  0.5707
  946MOL0     C27641   8.861   4.686   0.750 -0.2178 -0.0160 -0.9065
  946MOL0     C27642   8.734   4.740   0.744  0.1368  0.3434 -0.3294
  946MOL0     H27643   8.244   4.581   0.491 -0.8431 -0.6915  0.2208
  946MOL0     H27644   8.003   4.636   0.468 -1.2585 -0.7355  1.6867
  946MOL0     H27645   7.756   4.545   0.563 -0.6933 -1.0775  0.5075
  946MOL0     H27646   7.821   4.535   0.729  1.6721  2.6045  0.8094
  946MOL0     H27647   7.580   4.539   0.742 -0.0857 -1.1055 -2.8461
  946MOL0     H27648   7.648   4.683   0.811 -0.6007  0.2456  0.0819
  946MOL0     H27649   7.575   4.827   0.632 -1.3652  0.3693  1.1556
  946MOL0     H27650   7.572   4.690   0.514 -1.9805  0.0180  0.0840
  946MOL0     H27651   7.376   4.606   0.625 -1.1211  0.2991  2.3267
  946MOL0     H27652   7.373   4.726   0.750  0.0029  0.6847  0.0164
  946MOL0     H27653   7.347   4.908   0.588 -0.1648 -0.4545 -0.4313
  946MOL0     H27654   7.371   4.802   0.457 -1.4028  2.7230 -0.9404
  946MOL0     H27655   7.158   4.813   0.457  2.0840  1.0815 -0.4404
  946MOL0     H27656   7.169   4.663   0.558  1.4763 -0.7570  1.6459
  946MOL0     H27657   7.125   4.854   0.753 -1.7607 -0.2385  0.8531
  946MOL0     H27658   7.091   4.956   0.623  2.4935 -1.0627 -2.5159
  946MOL0     H27659   6.954   4.705   0.724  0.6396 -0.5696 -0.8127
  946MOL0     H27660   6.917   4.745   0.551 -0.3472  0.6939  0.0102
  946MOL0     H27661   6.840   4.964   0.470 -0.2720  0.0590 -0.7744
  946MOL0     H27662   6.682   5.265   0.578  1.9377 -0.5107 -0.5234
  946MOL0     H27663   6.688   5.162   0.441 -0.8486 -3.5004 -0.2338
  946MOL0     H27664   6.479   5.035   0.554 -2.1869 -0.2423 -0.7339
  946MOL0     H27665   6.445   5.192   0.468 -0.5040  0.2381 -0.8288
  946MOL0     H27666   6.477   5.298   0.697  0.5666 -0.7357 -1.5511
  946MOL0     H27667   6.476   5.121   0.766 -2.3725 -0.8400  1.3425
  946MOL0     H27668   6.266   5.195   0.799  2.1271 -3.4859  0.6416
  946MOL0     H27669   6.262   5.110   0.638 -0.6257 -0.0233  0.7688
  946MOL0     H27670   6.164   5.540   0.744  1.1417 -0.9621 -1.6286
  946MOL0     H27671   5.895   5.564   0.961 -1.3155  3.6550  1.3109
  946MOL0     H27672   6.029   5.657   0.910 -1.2423  0.0289  2.2356
  946MOL0     H27673   5.873   5.679   0.828 -3.2252 -2.1523  0.1384
  946MOL0     H27674   5.471   5.602   0.636  1.9744 -2.4389 -0.4324
  946MOL0     H27675   5.226   5.611   0.706 -0.5642 -4.4082  0.0270
  946MOL0     H27676   5.064   5.472   1.090 -0.3566  0.7626  4.7742
  946MOL0     H27677   5.137   5.628   1.143  1.0965 -1.0762 -0.9936
  946MOL0     H27678   4.927   5.703   1.164  0.0671 -0.1714  0.7240
  946MOL0     H27679   4.883   5.681   0.993  1.1426  2.0428 -0.7683
  946MOL0     H27680   4.856   5.452   1.188 -0.1637  1.3727  1.5778
  946MOL0     H27681   4.840   5.448   1.009  0.4366 -0.3254  0.1421
  946MOL0     H27682   4.693   5.625   1.184 -0.3403 -0.9536  0.5125
  946MOL0     H27683   4.677   5.611   1.002 -2.4723  0.0396  0.1151
  946MOL0     H27684   4.591   5.407   1.208 -1.3809 -3.2900 -0.3302
  946MOL0     H27685   4.600   5.382   1.029 -1.0837 -1.3301  2.2277
  946MOL0     H27686   4.370   5.449   1.113 -0.6187  0.0751  0.2524
  946MOL0     H27687   4.444   5.603   1.146 -3.0124  0.7316 -2.3039
  946MOL0     H27688   4.430   5.460   0.885  1.9464  0.3589 -1.8246
  946MOL0     H27689   4.483   5.634   0.908 -0.4740  2.5607  4.4856
  946MOL0     H27690   4.208   5.529   0.952 -0.5621 -1.3329 -1.7406
  946MOL0     H27691   4.274   5.612   0.807 -0.6476 -0.5970 -0.3396
  946MOL0     H27692   5.348   5.575   1.125  2.6679 -4.5264 -0.0908
  946MOL0     H27693   5.582   5.551   1.041  0.2602 -0.2896  0.4531
  946MOL0     H27694   5.813   5.228   0.609 -1.9143  1.1927  0.9548
  946MOL0     H27695   6.046   5.174   0.568 -3.3707 -1.3556  1.3228
  946MOL0     H27696   7.971   4.758   0.867  0.9503 -1.2233  1.5988
  946MOL0     H27697   8.190   4.706   0.909  2.1848  0.3894 -0.5473
  946MOL0     H27698   8.568   4.461   0.858  0.6867 -1.1216 -2.4661
  946MOL0     H27699   8.800   4.386   0.900 -1.1174  0.2990  1.6772
  946MOL0     H27700   9.201   4.515   0.726 -0.2857 -0.5847  0.7581
  946MOL0     H27701   9.099   4.653   0.700 -0.2655 -0.3784 -0.2688
  946MOL0     H27702   9.111   4.708   0.939 -1.8997 -0.6357 -2.5402
  946MOL0     H27703   9.274   4.689   0.873  1.1685 -1.8243  1.2340
  946MOL0     H27704   9.260   4.448   0.957  0.0101  0.7065 -0.9828
  946MOL0     H27705   9.117   4.499   1.050 -0.4028 -1.1373 -1.8227
  946MOL0     H27706   9.228   4.643   1.181 -2.9166 -1.3976 -0.7753
  946MOL0     H27707   9.365   4.652   1.056 -0.9055  0.8485 -0.7982
  946MOL0     H27708   9.516   4.372   1.328 -0.2294 -0.6231  0.6522
  946MOL0     H27709   8.933   4.755   0.705  0.3954  0.0839  0.1744
  946MOL0     H27710   8.702   4.838   0.710 -1.3817 -0.7029 -2.1443
  947MOL0     O27711   5.494   0.428   3.314  0.0063 -0.7524  0.3825
  947MOL0     C27712   5.563   0.334   3.292  0.5627 -0.5274 -0.1950
  947MOL0     O27713   5.551   0.214   3.350 -0.6457  0.6133  0.3798
  947MOL0     C27714   5.441   0.181   3.420  0.5101  1.1996  0.3095
  947MOL0     C27715   5.453   0.083   3.523 -0.6380 -0.4617 -0.0494
  947MOL0     C27716   5.345   0.037   3.588  0.6032 -0.1868 -0.4682
  947MOL0     C27717   5.214   0.074   3.557  0.0453 -0.6165  1.4175
  947MOL0     O27718   5.095   0.032   3.618 -0.3346 -0.0441  0.2845
  947MOL0     C27719   5.105  -0.077   3.711  0.1723  0.5368  0.1949
  947MOL0     C27720   4.959  -0.121   3.719 -0.7937  0.1780 -0.6796
  947MOL0     C27721   4.941  -0.218   3.832 -0.1313 -0.2639  0.5519
  947MOL0     C27722   4.797  -0.258   3.832 -0.3139  0.7940 -0.5871
  947MOL0     C27723   4.764  -0.338   3.958  0.1118  0.5949  0.4835
  947MOL0     C27724   4.617  -0.366   3.971  0.1181 -0.1019  0.2256
  947MOL0     C27725   4.586  -0.439   4.104  0.2105 -0.1060 -0.3930
  947MOL0     C27726   4.449  -0.501   4.105 -0.4122 -0.2514  0.3699
  947MOL0     N27727   4.342  -0.407   4.098  0.0207 -0.1408  0.0605
  947MOL0     C27728   4.270  -0.380   4.210 -0.1662 -0.9249 -0.4969
  947MOL0     C27729   4.177  -0.293   4.163  0.5085  0.2708  0.1230
  947MOL0     C27730   4.081  -0.228   4.261 -0.7266 -0.5098  0.0141
  947MOL0     C27731   3.987  -0.328   4.344 -0.1369  0.5485  1.0682
  947MOL0     C27732   3.870  -0.271   4.424  0.0603 -0.1958 -0.9283
  947MOL0     C27733   3.759  -0.238   4.323  0.6946  0.7184  0.6972
  947MOL0     O27734   3.778  -0.109   4.266  0.1381  0.1308  0.1126
  947MOL0     C27735   3.691  -0.075   4.160  0.0284  0.6860 -0.8214
  947MOL0     C27736   3.714   0.033   4.071 -0.6726  0.2847 -0.4679
  947MOL0     C27737   3.628   0.081   3.967 -0.7623  0.1366 -0.0973
  947MOL0     C27738   3.681   0.179   3.864  0.1599 -0.8656  0.7397
  947MOL0     C27739   3.500   0.020   3.960 -0.6201  0.0692 -0.3039
  947MOL0     C27740   3.403   0.046   3.854 -0.3231  0.1418  0.1814
  947MOL0     O27741   3.299  -0.039   3.849  0.2293 -0.6492  0.7220
  947MOL0     C27742   3.173  -0.005   3.794 -0.4987 -0.7486 -0.8678
  947MOL0     C27743   3.103  -0.112   3.740 -0.2490 -0.3531  0.3245
  947MOL0     C27744   2.975  -0.102   3.696  0.8744  0.3794 -0.0563
  947MOL0     C27745   2.907   0.025   3.703 -0.8911  0.7039  0.7478
  947MOL0     O27746   2.783   0.052   3.651  0.3405  0.3277 -0.3076
  947MOL0     C27747   2.711  -0.043   3.574  0.2706  0.6956 -0.0188
  947MOL0     C27748   2.646  -0.148   3.666 -0.1169 -0.6270 -0.1433
  947MOL0     C27749   2.509  -0.103   3.736  0.6007 -0.4343 -0.2216
  947MOL0     C27750   2.395  -0.122   3.637  0.1979  0.0572  0.1835
  947MOL0     C27751   2.270  -0.087   3.718  0.5432  0.0705  1.3595
  947MOL0     C27752   2.144  -0.113   3.621 -0.1412  0.8897  0.4105
  947MOL0     C27753   2.007  -0.059   3.673 -0.0110  0.6539  0.4244
  947MOL0     C27754   1.889  -0.072   3.583 -0.3979 -0.3379 -0.3603
  947MOL0    Cl27755   1.876  -0.240   3.531 -0.0356  0.7184  0.4027
  947MOL0     C27756   2.976   0.133   3.761  0.0293  0.4475 -0.8143
  947MOL0     C27757   3.110   0.120   3.801 -0.0630 -0.9804 -0.5578
  947MOL0     O27758   3.408   0.139   3.781 -0.2470  0.7143  0.6162
  947MOL0     C27759   3.478  -0.090   4.046 -0.6418 -0.2025 -0.5736
  947MOL0     C27760   3.567  -0.132   4.144 -0.1558  0.3266  0.0547
  947MOL0     N27761   4.205  -0.264   4.028  0.8592  0.2271  0.2464
  947MOL0     N27762   4.299  -0.341   3.991  0.4204 -0.0218  0.3218
  947MOL0     C27763   5.197   0.177   3.454  0.3688 -0.3098 -0.7993
  947MOL0     C27764   5.315   0.228   3.388 -0.9018  0.5980 -0.1911
  947MOL0     C27765   5.678   0.357   3.199  0.0639 -0.6596 -0.3838
  947MOL0     C27766   5.749   0.256   3.135 -0.1526  0.3454  0.1960
  947MOL0     C27767   5.861   0.279   3.045  0.9193 -0.8184 -0.3900
  947MOL0     C27768   5.896   0.412   3.020 -0.5429 -0.3578  0.6192
  947MOL0     O27769   5.998   0.453   2.929  0.2911  0.6363 -0.4037
  947MOL0     C27770   6.123   0.397   2.965 -1.4346  0.3236 -0.8140
  947MOL0     C27771   6.185   0.460   3.091  0.2087  0.6504  0.7953
  947MOL0     C27772   6.330   0.442   3.126  0.2181  0.8569  0.4420
  947MOL0     C27773   6.400   0.575   3.138 -0.5965 -0.0980 -1.1225
  947MOL0     C27774   6.537   0.541   3.164 -0.2903 -0.2724 -0.0751
  947MOL0     C27775   6.652   0.521   3.185 -1.1105  0.2396  0.2357
  947MOL0     C27776   5.830   0.509   3.092  0.3213  0.1233 -0.3169
  947MOL0     C27777   5.727   0.487   3.179  0.0511  0.5918  0.3411
  947MOL0     H27778   5.550   0.046   3.555 -1.7109 -1.5878  2.1295
  947MOL0     H27779   5.355  -0.042   3.662 -0.9450 -0.0585 -0.1040
  947MOL0     H27780   5.166  -0.158   3.670 -0.7770 -1.1215  1.8687
  947MOL0     H27781   5.151  -0.035   3.802  1.2207 -5.2817  2.8007
  947MOL0     H27782   4.903  -0.029   3.739  0.2727  0.8858 -0.8750
  947MOL0     H27783   4.924  -0.164   3.624  0.7799 -0.8487 -0.8319
  947MOL0     H27784   5.003  -0.305   3.815 -0.5091 -0.4513  0.1036
  947MOL0     H27785   4.972  -0.175   3.928  0.9832 -0.1414  0.1507
  947MOL0     H27786   4.726  -0.174   3.835  0.4221  1.4106 -0.1091
  947MOL0     H27787   4.769  -0.318   3.745 -0.0362 -1.8044  1.0081
  947MOL0     H27788   4.809  -0.438   3.955  0.6342  0.8366 -0.0822
  947MOL0     H27789   4.806  -0.288   4.046 -1.9535  1.4071  1.0713
  947MOL0     H27790   4.552  -0.279   3.983  3.4110  2.6645 -0.2152
  947MOL0     H27791   4.578  -0.427   3.889 -0.2656  0.3236  0.0900
  947MOL0     H27792   4.651  -0.525   4.121 -0.9403 -1.5666 -2.8964
  947MOL0     H27793   4.595  -0.367   4.187 -1.8343  0.6312 -0.7493
  947MOL0     H27794   4.433  -0.568   4.189 -0.5017  1.4958  1.8070
  947MOL0     H27795   4.455  -0.569   4.019  1.6873  2.5285 -1.9019
  947MOL0     H27796   4.291  -0.418   4.309  2.1286  1.7772  0.1718
  947MOL0     H27797   4.128  -0.157   4.329 -2.5412 -0.3393  1.1548
  947MOL0     H27798   4.013  -0.167   4.199  1.0392 -1.4594 -3.0354
  947MOL0     H27799   4.049  -0.384   4.415  0.5597 -2.1075 -1.4341
  947MOL0     H27800   3.942  -0.407   4.283 -3.5267  0.3783  3.4948
  947MOL0     H27801   3.900  -0.189   4.490 -0.8645  0.0132 -0.7582
  947MOL0     H27802   3.835  -0.355   4.484  3.5046 -0.8486  0.4210
  947MOL0     H27803   3.662  -0.239   4.373  0.8660 -1.1033  1.0608
  947MOL0     H27804   3.761  -0.305   4.237 -0.5768  1.2805  0.2038
  947MOL0     H27805   3.805   0.089   4.092  0.5225 -0.9681 -2.0398
  947MOL0     H27806   3.779   0.218   3.892 -0.7671 -0.1454  3.2694
  947MOL0     H27807   3.693   0.131   3.767 -0.4849 -2.9857  1.6522
  947MOL0     H27808   3.614   0.265   3.854  1.3255 -0.1288 -1.2461
  947MOL0     H27809   3.163  -0.202   3.752  0.4748  0.2204  1.1896
  947MOL0     H27810   2.932  -0.196   3.661  1.3805 -0.7340  2.1279
  947MOL0     H27811   2.634   0.010   3.517  3.0268  2.7048 -2.1598
  947MOL0     H27812   2.784  -0.086   3.505  2.7682  1.2266  2.1038
  947MOL0     H27813   2.623  -0.233   3.602 -2.3059  2.5219 -3.9572
  947MOL0     H27814   2.717  -0.163   3.748 -0.9443  4.6280  1.9138
  947MOL0     H27815   2.522   0.000   3.770 -1.9644  0.5817 -2.0278
  947MOL0     H27816   2.488  -0.174   3.817 -1.8923  1.4565  0.9311
  947MOL0     H27817   2.413  -0.051   3.556 -3.9934  0.9378 -0.2214
  947MOL0     H27818   2.381  -0.224   3.599  0.2748 -1.1540  3.1232
  947MOL0     H27819   2.270   0.018   3.747 -0.9775  0.7096 -0.6899
  947MOL0     H27820   2.251  -0.166   3.791 -1.5882 -0.7250  0.0490
  947MOL0     H27821   2.169  -0.066   3.525 -0.0213 -0.3193 -0.1684
  947MOL0     H27822   2.134  -0.219   3.595 -0.4233  1.0491 -0.1630
  947MOL0     H27823   2.019   0.042   3.714  0.7563  1.1795 -1.0428
  947MOL0     H27824   1.987  -0.124   3.759 -3.5610 -0.0768 -0.7854
  947MOL0     H27825   1.910  -0.012   3.494 -1.4301 -0.8670 -0.9814
  947MOL0     H27826   1.792  -0.046   3.627 -1.5804 -1.7946 -1.9890
  947MOL0     H27827   2.922   0.227   3.751 -0.9001 -0.1588 -1.7923
  947MOL0     H27828   3.173   0.197   3.845  1.3476 -1.8459 -1.0109
  947MOL0     H27829   3.379  -0.134   4.052 -1.5183  1.8366  2.4481
  947MOL0     H27830   3.527  -0.217   4.199 -3.6304  3.2615  2.5025
  947MOL0     H27831   5.107   0.228   3.425  0.7855  0.0209 -1.5348
  947MOL0     H27832   5.303   0.298   3.306  1.9647 -0.5571 -1.7163
  947MOL0     H27833   5.712   0.155   3.150 -0.7583  0.4948 -0.2574
  947MOL0     H27834   5.912   0.191   3.007  1.1621 -0.7165 -0.3015
  947MOL0     H27835   6.119   0.288   2.963  3.2377 -0.0340 -2.9567
  947MOL0     H27836   6.190   0.419   2.882  1.2687 -1.7579  0.6585
  947MOL0     H27837   6.131   0.420   3.177  3.3149 -2.8009  1.3629
  947MOL0     H27838   6.162   0.567   3.081  4.3906  1.7382  1.2623
  947MOL0     H27839   6.372   0.371   3.054  1.9541  1.7400  0.5212
  947MOL0     H27840   6.341   0.396   3.225 -0.0483  0.8248  0.4578
  947MOL0     H27841   6.362   0.639   3.219 -3.1121 -1.1758 -1.3486
  947MOL0     H27842   6.391   0.633   3.046  0.7975  0.1589 -1.1081
  947MOL0     H27843   6.750   0.526   3.227 -0.6461 -2.8187 -0.2083
  947MOL0     H27844   5.862   0.612   3.076  0.5295  0.1237  0.1000
  947MOL0     H27845   5.682   0.572   3.230 -0.6793  1.2336 -1.2959
  948MOL0     O27846   6.493   2.614   7.810 -0.8146  0.3086 -0.4566
  948MOL0     C27847   6.566   2.536   7.869 -0.4312 -0.2017 -0.1264
  948MOL0     O27848   6.527   2.415   7.916 -0.4361 -0.2631  0.3501
  948MOL0     C27849   6.403   2.361   7.906 -0.0384 -0.3130  0.6039
  948MOL0     C27850   6.284   2.438   7.922 -0.5673  0.0521 -0.1725
  948MOL0     C27851   6.161   2.381   7.908 -0.7817  0.3376 -0.3876
  948MOL0     C27852   6.150   2.242   7.875  0.6667  0.5772  0.4365
  948MOL0     O27853   6.034   2.167   7.851 -0.0035 -0.7145 -0.3009
  948MOL0     C27854   5.917   2.206   7.917  0.2642  0.0125 -0.5757
  948MOL0     C27855   5.808   2.095   7.898  0.9759 -0.2960  0.1467
  948MOL0     C27856   5.672   2.112   7.971 -1.2227 -0.3199  0.1396
  948MOL0     C27857   5.593   1.978   7.968  0.0146  0.2464  0.3621
  948MOL0     C27858   5.454   1.989   8.006 -0.0051  0.1158 -1.0610
  948MOL0     C27859   5.426   2.048   8.151 -0.1117  0.4803 -0.2872
  948MOL0     C27860   5.283   2.040   8.182  0.9811 -1.3409 -0.2582
  948MOL0     C27861   5.200   2.150   8.123  0.3346  0.3049 -0.0502
  948MOL0     N27862   5.063   2.140   8.168 -0.6842  0.2325  0.4962
  948MOL0     C27863   4.955   2.135   8.081  0.6916 -0.1426 -0.0908
  948MOL0     C27864   4.852   2.128   8.168 -0.2381  1.1052 -0.1956
  948MOL0     C27865   4.706   2.117   8.134 -0.2368  0.1235  0.3051
  948MOL0     C27866   4.682   1.978   8.065  0.1392  0.6974 -0.4530
  948MOL0     C27867   4.727   1.850   8.138 -0.2955  0.9359  0.0776
  948MOL0     C27868   4.706   1.734   8.043 -0.5815 -0.2097 -0.0348
  948MOL0     O27869   4.693   1.607   8.113  0.3751  0.1122  0.5940
  948MOL0     C27870   4.573   1.569   8.163 -0.6025  0.9257 -0.0497
  948MOL0     C27871   4.576   1.433   8.183 -0.3447  0.0444  0.0223
  948MOL0     C27872   4.460   1.363   8.223 -0.3277  0.2132 -0.6472
  948MOL0     C27873   4.463   1.214   8.246  0.2489 -0.3624 -0.4299
  948MOL0     C27874   4.345   1.439   8.257 -0.5259 -0.5535  0.3973
  948MOL0     C27875   4.226   1.390   8.323 -0.5665 -0.4955  0.5526
  948MOL0     O27876   4.125   1.475   8.326  0.3735 -0.2991  0.1362
  948MOL0     C27877   4.001   1.431   8.367  0.3556 -0.7952  0.3056
  948MOL0     C27878   3.960   1.453   8.494  0.3793  0.4110  0.3281
  948MOL0     C27879   3.834   1.403   8.535  1.0066  0.9093  0.9953
  948MOL0     C27880   3.739   1.338   8.445 -0.5969  0.8020  0.7305
  948MOL0     O27881   3.611   1.310   8.473  0.3862 -0.5076  0.1011
  948MOL0     C27882   3.543   1.362   8.584 -0.8374  0.1023 -0.7311
  948MOL0     C27883   3.392   1.316   8.584 -0.4418 -0.2456 -0.9420
  948MOL0     C27884   3.309   1.353   8.708  0.4080 -0.6822 -0.5453
  948MOL0     C27885   3.164   1.368   8.670 -0.0525  0.4867 -0.0048
  948MOL0     C27886   3.063   1.400   8.777  0.4308  0.2546 -0.3984
  948MOL0     C27887   2.913   1.402   8.727 -0.0173 -0.4684  0.0078
  948MOL0     C27888   2.877   1.505   8.620  0.0008 -0.1907  0.4802
  948MOL0     C27889   2.724   1.499   8.588  0.4489  0.4970  0.2663
  948MOL0    Cl27890   2.637   1.530   8.734  0.3483  0.3767  0.2838
  948MOL0     C27891   3.787   1.324   8.314  1.0766 -0.6156  0.0060
  948MOL0     C27892   3.914   1.373   8.272 -0.8631  0.4099 -0.2586
  948MOL0     O27893   4.233   1.284   8.373  0.2391 -0.3244  0.3344
  948MOL0     C27894   4.345   1.572   8.216 -0.1811 -0.3159 -0.0314
  948MOL0     C27895   4.463   1.639   8.176  0.4308 -1.1781 -0.1266
  948MOL0     N27896   4.901   2.154   8.298 -0.5919  0.1748 -0.1891
  948MOL0     N27897   5.023   2.140   8.296  0.2494  0.7420  0.8038
  948MOL0     C27898   6.267   2.163   7.867 -0.2972 -0.2172 -0.6755
  948MOL0     C27899   6.394   2.225   7.881  0.0381  0.8473  0.7053
  948MOL0     C27900   6.700   2.588   7.898  0.6247  0.6569 -0.3364
  948MOL0     C27901   6.767   2.539   8.015  0.7607  0.0730 -0.4850
  948MOL0     C27902   6.892   2.596   8.049  0.1460  1.4846  0.1091
  948MOL0     C27903   6.946   2.694   7.972 -0.5004  0.1157  1.1464
  948MOL0     O27904   7.066   2.751   7.999 -1.0749  0.4034  0.8919
  948MOL0     C27905   7.165   2.662   8.056  0.9031 -0.4552 -0.4548
  948MOL0     C27906   7.296   2.745   8.023 -0.2927 -0.0842 -0.1410
  948MOL0     C27907   7.418   2.654   8.050  0.1182  0.3959  0.3819
  948MOL0     C27908   7.542   2.728   8.003 -0.5120 -0.1787 -0.5899
  948MOL0     C27909   7.663   2.656   8.050 -0.0798  0.9184 -0.0146
  948MOL0     C27910   7.765   2.602   8.086  0.4158  0.5922 -0.4915
  948MOL0     C27911   6.879   2.735   7.843 -1.0263 -0.5308 -0.5320
  948MOL0     C27912   6.751   2.687   7.822  0.4516 -0.8432 -0.2263
  948MOL0     H27913   6.281   2.543   7.946 -2.2453  0.3412 -1.5017
  948MOL0     H27914   6.068   2.435   7.922 -1.5909 -0.3196 -2.6633
  948MOL0     H27915   5.927   2.212   8.025  2.8928 -1.0634 -0.6888
  948MOL0     H27916   5.876   2.298   7.873  0.9944  0.5638 -0.1206
  948MOL0     H27917   5.780   2.102   7.793 -0.1246 -1.1595  0.3630
  948MOL0     H27918   5.857   1.998   7.914 -0.6241 -1.5858 -2.2325
  948MOL0     H27919   5.683   2.141   8.076  3.4118  0.9563 -0.4689
  948MOL0     H27920   5.622   2.192   7.915 -1.1286  0.8854  1.7155
  948MOL0     H27921   5.608   1.944   7.865  3.2886  1.1510  0.4116
  948MOL0     H27922   5.641   1.898   8.025  0.2189 -2.5501 -3.3422
  948MOL0     H27923   5.405   2.063   7.943  1.8848  1.4444 -1.0700
  948MOL0     H27924   5.400   1.894   7.999 -0.6295  0.2702  0.9870
  948MOL0     H27925   5.474   1.982   8.224  0.7182 -0.8893 -2.0144
  948MOL0     H27926   5.462   2.151   8.162 -2.2533  1.3668 -0.9507
  948MOL0     H27927   5.244   1.941   8.157  0.5965 -1.2838  0.1133
  948MOL0     H27928   5.266   2.052   8.289  2.0902  3.0729 -0.3855
  948MOL0     H27929   5.194   2.158   8.014 -1.5461  1.2475  0.0912
  948MOL0     H27930   5.229   2.244   8.170  0.3147 -0.6499  1.9609
  948MOL0     H27931   4.973   2.108   7.978  0.7537  0.0778 -0.1372
  948MOL0     H27932   4.642   2.132   8.221 -0.7257  2.0406 -0.3426
  948MOL0     H27933   4.676   2.195   8.064 -4.3991 -0.4015  1.2469
  948MOL0     H27934   4.723   1.989   7.964  1.1130 -0.1765 -0.1601
  948MOL0     H27935   4.574   1.964   8.051  0.0961  1.4692 -0.9540
  948MOL0     H27936   4.672   1.832   8.231 -2.3884 -0.8812 -1.4135
  948MOL0     H27937   4.834   1.853   8.164 -0.3170  3.7958  0.2234
  948MOL0     H27938   4.797   1.728   7.982 -1.0095  2.2355 -1.0227
  948MOL0     H27939   4.620   1.749   7.976 -1.2352 -3.6583 -0.1513
  948MOL0     H27940   4.666   1.377   8.157 -0.5820 -0.3348  0.0137
  948MOL0     H27941   4.460   1.195   8.354 -0.9566 -2.1060 -0.7249
  948MOL0     H27942   4.365   1.185   8.208 -1.0482  2.4742  0.5146
  948MOL0     H27943   4.550   1.167   8.199  0.6097  0.8683 -1.0350
  948MOL0     H27944   4.035   1.494   8.560  1.3580 -0.1943 -0.3862
  948MOL0     H27945   3.806   1.429   8.637  0.6595  1.2535  0.8173
  948MOL0     H27946   3.587   1.321   8.675 -0.1509  1.1703 -0.5661
  948MOL0     H27947   3.553   1.471   8.586 -1.0336  0.2203 -3.1898
  948MOL0     H27948   3.350   1.362   8.494 -0.6299  1.2308 -0.1422
  948MOL0     H27949   3.378   1.208   8.574 -1.0285 -0.2704  0.0604
  948MOL0     H27950   3.349   1.440   8.760  0.5109 -1.1185  0.1157
  948MOL0     H27951   3.314   1.275   8.784 -1.6444 -2.0335 -1.6742
  948MOL0     H27952   3.151   1.441   8.589  1.2731  0.2261 -0.4735
  948MOL0     H27953   3.135   1.274   8.622  2.1352  0.5060 -1.4940
  948MOL0     H27954   3.083   1.503   8.809 -2.4436 -0.0702  3.0872
  948MOL0     H27955   3.079   1.338   8.866 -0.8959  0.9353  0.3492
  948MOL0     H27956   2.906   1.303   8.681  1.2556 -0.0319 -1.1949
  948MOL0     H27957   2.841   1.395   8.809 -0.0644 -0.8036 -0.0610
  948MOL0     H27958   2.943   1.490   8.534  0.2934  4.9774 -0.5421
  948MOL0     H27959   2.899   1.607   8.655  0.3360  0.6172 -1.9001
  948MOL0     H27960   2.693   1.402   8.550  2.6673 -0.8433  1.6633
  948MOL0     H27961   2.694   1.580   8.521  0.3563  1.1455  1.0721
  948MOL0     H27962   3.714   1.285   8.244  1.2005  1.4738 -1.3747
  948MOL0     H27963   3.960   1.349   8.177  1.8138  3.1935  0.1703
  948MOL0     H27964   4.263   1.642   8.223 -0.1451 -0.2653 -0.1142
  948MOL0     H27965   4.460   1.745   8.153  2.7698 -0.4793  2.3638
  948MOL0     H27966   6.265   2.055   7.855 -1.1625 -0.4680  1.2947
  948MOL0     H27967   6.476   2.153   7.877 -0.8160 -0.1923  1.4563
  948MOL0     H27968   6.709   2.472   8.077 -1.3934  0.7885 -1.6156
  948MOL0     H27969   6.940   2.551   8.136 -0.8453  0.9678  0.4131
  948MOL0     H27970   7.146   2.639   8.161 -2.6484 -0.0867 -0.8818
  948MOL0     H27971   7.150   2.571   7.997 -1.9626  0.8175 -1.9207
  948MOL0     H27972   7.302   2.840   8.077  1.3130 -0.8741  1.1547
  948MOL0     H27973   7.298   2.759   7.915  2.7824  0.3665 -0.1047
  948MOL0     H27974   7.411   2.567   7.985  0.5521  2.0276 -1.9550
  948MOL0     H27975   7.416   2.630   8.157 -3.2791  1.2903  0.6240
  948MOL0     H27976   7.547   2.827   8.049 -0.4497 -0.3794 -0.1588
  948MOL0     H27977   7.537   2.744   7.895  2.7782  4.4407 -0.3832
  948MOL0     H27978   7.854   2.548   8.111 -0.6712  0.4600  3.9453
  948MOL0     H27979   6.933   2.813   7.790  0.3739 -1.6053 -0.7269
  948MOL0     H27980   6.689   2.724   7.741 -0.6810 -0.6444  0.7118
  949MOL0     O27981   5.987   3.890   0.849 -0.0851 -0.4940 -0.3756
  949MOL0     C27982   6.093   3.941   0.894  0.0953 -0.8794 -0.6038
  949MOL0     O27983   6.101   3.985   1.025 -0.0084 -1.1026  0.0510
  949MOL0     C27984   5.982   3.978   1.097  0.0569  0.4527 -0.5169
  949MOL0     C27985   5.869   4.048   1.049 -0.9532  0.9066  0.1277
  949MOL0     C27986   5.746   4.031   1.108  0.1139  1.0457  0.9406
  949MOL0     C27987   5.739   3.953   1.221 -0.4616  0.1724 -1.0342
  949MOL0     O27988   5.614   3.936   1.279 -0.7360  0.2343 -0.9876
  949MOL0     C27989   5.593   3.798   1.330  0.1040 -0.9922 -0.0969
  949MOL0     C27990   5.444   3.777   1.359 -0.7885 -0.2333 -1.2051
  949MOL0     C27991   5.375   3.752   1.228  0.3426 -0.0656 -0.6375
  949MOL0     C27992   5.240   3.698   1.266  0.7832  0.0903 -0.3198
  949MOL0     C27993   5.138   3.713   1.151  0.6943  0.0994  0.3609
  949MOL0     C27994   5.007   3.662   1.205  0.1405 -0.0145  0.4783
  949MOL0     C27995   4.914   3.633   1.090  0.3615  0.7756 -0.2330
  949MOL0     C27996   4.782   3.591   1.157 -0.3592  0.0606 -0.7587
  949MOL0     N27997   4.677   3.567   1.050 -0.0309  0.3402  0.2818
  949MOL0     C27998   4.697   3.513   0.928  0.8973 -0.1259  0.5362
  949MOL0     C27999   4.571   3.515   0.871 -0.0929  0.1814  0.1404
  949MOL0     C28000   4.537   3.431   0.751  0.0718  0.1329  0.0798
  949MOL0     C28001   4.440   3.312   0.767 -0.2351 -0.0411  0.7017
  949MOL0     C28002   4.297   3.340   0.719  0.0183 -0.1203  0.2570
  949MOL0     C28003   4.234   3.456   0.800  1.3575 -0.0021  0.9442
  949MOL0     O28004   4.114   3.496   0.726 -0.4428  0.6241  0.5935
  949MOL0     C28005   3.996   3.506   0.783  0.2896  0.8932 -0.5224
  949MOL0     C28006   3.983   3.502   0.930 -0.3980 -0.7137  0.4270
  949MOL0     C28007   3.850   3.505   0.985  0.4661  0.6586 -0.5713
  949MOL0     C28008   3.843   3.499   1.134 -0.3176 -0.1863  0.4914
  949MOL0     C28009   3.735   3.497   0.902  0.3187  0.1493 -0.5805
  949MOL0     C28010   3.593   3.490   0.943 -0.8903 -0.4003  0.1045
  949MOL0     O28011   3.494   3.500   0.850  0.4311 -0.2925 -0.1574
  949MOL0     C28012   3.368   3.487   0.900  0.5169  0.5424  0.2854
  949MOL0     C28013   3.317   3.361   0.906 -0.3048  0.3075  0.4502
  949MOL0     C28014   3.180   3.344   0.952  0.0440  0.3086  0.0372
  949MOL0     C28015   3.097   3.454   1.000 -0.0015  0.1051  0.8674
  949MOL0     O28016   2.967   3.432   1.028  0.0703 -0.3266 -0.2659
  949MOL0     C28017   2.902   3.546   1.091  0.5232 -0.3939 -0.8057
  949MOL0     C28018   2.770   3.494   1.151 -0.5530 -0.8365  0.8517
  949MOL0     C28019   2.683   3.450   1.033  0.4347  0.1024 -0.3165
  949MOL0     C28020   2.607   3.562   0.957  0.2099 -0.3552 -0.6598
  949MOL0     C28021   2.548   3.491   0.839  0.5854 -0.1199 -0.8624
  949MOL0     C28022   2.413   3.557   0.790  0.7629 -0.2935  0.1310
  949MOL0     C28023   2.383   3.492   0.654  0.8149 -0.0766 -0.0956
  949MOL0     C28024   2.241   3.512   0.608  0.1571  0.3085 -0.0501
  949MOL0    Cl28025   2.141   3.401   0.703 -0.1335 -0.0525 -0.1123
  949MOL0     C28026   3.161   3.581   0.989 -0.0278 -0.3796 -1.1245
  949MOL0     C28027   3.290   3.598   0.940  0.2220  0.2178  0.7411
  949MOL0     O28028   3.575   3.453   1.058  0.5678 -0.1051  0.0898
  949MOL0     C28029   3.753   3.500   0.764 -0.2816 -0.4844  0.1313
  949MOL0     C28030   3.881   3.497   0.702 -0.1569 -0.4311  0.1068
  949MOL0     N28031   4.483   3.582   0.952  0.0443  0.6000  0.3880
  949MOL0     N28032   4.549   3.616   1.055 -0.0460 -0.2633  0.1322
  949MOL0     C28033   5.853   3.883   1.272 -0.2831  0.3763  0.9137
  949MOL0     C28034   5.978   3.896   1.210  0.6183 -0.1798  0.0136
  949MOL0     C28035   6.207   3.976   0.801 -0.3629  0.7774 -0.6857
  949MOL0     C28036   6.325   4.033   0.854 -0.1802  0.6081  0.6033
  949MOL0     C28037   6.422   4.072   0.763 -0.1481 -0.3170 -0.7862
  949MOL0     C28038   6.414   4.054   0.622  0.3575  0.8392 -0.6865
  949MOL0     O28039   6.527   4.081   0.557 -0.9396  0.2492 -0.4205
  949MOL0     C28040   6.532   4.060   0.415 -0.1403 -0.4737  1.2152
  949MOL0     C28041   6.650   4.134   0.352 -0.4610 -0.7918  0.9318
  949MOL0     C28042   6.664   4.095   0.203 -0.2748  0.0465  0.8329
  949MOL0     C28043   6.782   4.182   0.138 -0.2883  0.1027  0.5172
  949MOL0     C28044   6.733   4.304   0.085 -0.1475 -0.5455 -0.0889
  949MOL0     C28045   6.695   4.411   0.051 -0.1320 -0.2469 -0.6615
  949MOL0     C28046   6.301   3.982   0.575 -0.2444  0.0386  0.0721
  949MOL0     C28047   6.198   3.947   0.661  0.0092  0.9015 -0.3191
  949MOL0     H28048   5.886   4.106   0.959  1.7240  1.4418  0.8733
  949MOL0     H28049   5.653   4.069   1.065  0.7685  3.8013  1.7424
  949MOL0     H28050   5.627   3.717   1.265 -0.1563 -1.9034  0.8867
  949MOL0     H28051   5.645   3.778   1.424 -0.8486 -0.1849  0.6188
  949MOL0     H28052   5.435   3.686   1.419  3.0811 -1.3968 -2.0935
  949MOL0     H28053   5.407   3.859   1.422 -1.0241  1.3195 -3.2662
  949MOL0     H28054   5.363   3.850   1.181  1.8387  1.0013  1.0560
  949MOL0     H28055   5.431   3.674   1.176  0.4841  0.6188 -1.5414
  949MOL0     H28056   5.244   3.593   1.295  0.7432 -0.3595 -1.8896
  949MOL0     H28057   5.208   3.754   1.354  2.9688 -0.4213  0.8849
  949MOL0     H28058   5.136   3.816   1.115 -0.9853  1.0026  2.7645
  949MOL0     H28059   5.174   3.641   1.077  1.6746  1.7128 -0.7962
  949MOL0     H28060   5.023   3.571   1.263  0.0405  0.1332  0.7410
  949MOL0     H28061   4.960   3.735   1.271 -1.8061  0.2811 -1.1207
  949MOL0     H28062   4.908   3.715   1.019  2.4666  3.3193  2.2881
  949MOL0     H28063   4.956   3.546   1.037  1.1199 -0.5944  2.4237
  949MOL0     H28064   4.760   3.669   1.230  0.8633 -0.1199 -0.1748
  949MOL0     H28065   4.810   3.499   1.209  1.5802  0.8413 -0.3407
  949MOL0     H28066   4.785   3.470   0.881  0.1520  1.3088 -2.3683
  949MOL0     H28067   4.508   3.486   0.660 -1.6020 -1.2622 -0.2833
  949MOL0     H28068   4.633   3.384   0.725 -0.0481 -0.9642  1.4841
  949MOL0     H28069   4.438   3.288   0.874  0.2550 -2.3294  0.2578
  949MOL0     H28070   4.475   3.228   0.706 -2.6754  0.3874 -1.4471
  949MOL0     H28071   4.237   3.250   0.731  0.6751 -0.6111 -0.1151
  949MOL0     H28072   4.302   3.376   0.616  0.7807  0.0519  0.3476
  949MOL0     H28073   4.299   3.544   0.805 -1.5280  2.2812  0.7574
  949MOL0     H28074   4.211   3.416   0.899 -3.3159  1.1432  0.5192
  949MOL0     H28075   4.071   3.499   0.993 -1.1362 -2.1152  1.4602
  949MOL0     H28076   3.803   3.403   1.169  0.8423 -1.7290 -2.1368
  949MOL0     H28077   3.945   3.507   1.173  0.9134  3.5965 -2.8953
  949MOL0     H28078   3.783   3.581   1.174 -1.5678  0.3207 -2.2418
  949MOL0     H28079   3.386   3.281   0.882 -1.8560 -1.1907  0.7696
  949MOL0     H28080   3.143   3.242   0.951  1.5825 -0.2831  0.3237
  949MOL0     H28081   2.955   3.583   1.179 -2.1049  2.3741 -0.2020
  949MOL0     H28082   2.882   3.626   1.019 -0.0036 -1.0939 -1.4505
  949MOL0     H28083   2.797   3.413   1.219 -0.9334 -1.1217  0.6689
  949MOL0     H28084   2.725   3.577   1.206 -0.9274 -0.9318  0.6935
  949MOL0     H28085   2.612   3.375   1.070  0.6323 -0.8126 -1.7030
  949MOL0     H28086   2.744   3.395   0.960  0.7855 -0.4564  0.3851
  949MOL0     H28087   2.528   3.614   1.013 -0.1318 -3.1060  1.6787
  949MOL0     H28088   2.676   3.644   0.932 -0.8124  1.3091  1.5974
  949MOL0     H28089   2.531   3.385   0.860  1.8659 -0.0177  0.9708
  949MOL0     H28090   2.614   3.505   0.754  1.3795 -3.1448 -0.8244
  949MOL0     H28091   2.335   3.547   0.866 -1.6362 -2.4109 -2.3776
  949MOL0     H28092   2.419   3.665   0.774  0.0811 -0.5453 -2.3418
  949MOL0     H28093   2.409   3.386   0.645  0.1047 -0.2678  0.0777
  949MOL0     H28094   2.443   3.554   0.587 -0.5304 -1.0352 -2.3017
  949MOL0     H28095   2.235   3.481   0.503  0.6120 -3.6996  0.9559
  949MOL0     H28096   2.204   3.614   0.625  0.8269  0.2940  1.7794
  949MOL0     H28097   3.101   3.669   1.009  1.3962  0.6673 -1.2123
  949MOL0     H28098   3.338   3.693   0.921  2.6449 -1.2293 -0.8920
  949MOL0     H28099   3.667   3.511   0.699 -1.7650 -0.3237  2.0028
  949MOL0     H28100   3.905   3.489   0.597  1.0789  0.9240  0.2490
  949MOL0     H28101   5.860   3.809   1.351  0.6343  0.6119  1.0691
  949MOL0     H28102   6.065   3.843   1.249  0.8574  1.3343  1.6576
  949MOL0     H28103   6.344   4.073   0.953 -1.0332  0.0784  0.9892
  949MOL0     H28104   6.508   4.130   0.797 -1.4707  1.6341 -0.6176
  949MOL0     H28105   6.547   3.954   0.397  0.2128 -0.1968 -0.2934
  949MOL0     H28106   6.440   4.086   0.360  1.0766 -0.5372 -0.9700
  949MOL0     H28107   6.738   4.122   0.414  0.1368  1.1120  0.5294
  949MOL0     H28108   6.632   4.242   0.362  1.6739 -0.3377  0.2899
  949MOL0     H28109   6.575   4.115   0.143 -0.0834 -0.1748  0.4694
  949MOL0     H28110   6.687   3.988   0.197  3.4283  0.7994 -1.2928
  949MOL0     H28111   6.831   4.127   0.057  0.3105  0.2355  0.7869
  949MOL0     H28112   6.857   4.202   0.215  1.1600 -0.6106 -0.6673
  949MOL0     H28113   6.658   4.511   0.036 -0.9626 -0.0050  2.2731
  949MOL0     H28114   6.286   3.957   0.471 -4.2735 -0.8443  0.6860
  949MOL0     H28115   6.102   3.912   0.623  1.0179  0.0645 -2.2326
  950MOL0     O28116   6.121   0.305   6.463  0.2131 -0.2918  0.2641
  950MOL0     C28117   6.129   0.362   6.572  0.3090 -0.3093 -0.0328
  950MOL0     O28118   6.054   0.471   6.608  0.7369  0.3423 -0.2871
  950MOL0     C28119   5.974   0.520   6.504  0.1836 -0.5005  0.5894
  950MOL0     C28120   6.016   0.639   6.441  0.5855  0.2023 -0.2991
  950MOL0     C28121   5.926   0.696   6.345  0.8027 -0.3749 -0.5456
  950MOL0     C28122   5.810   0.625   6.307 -0.0147  0.1102  1.4352
  950MOL0     O28123   5.735   0.673   6.206  0.1226 -0.1685 -0.2152
  950MOL0     C28124   5.716   0.812   6.215 -0.4353  0.6542  0.1890
  950MOL0     C28125   5.575   0.840   6.169 -1.2896 -0.0349  0.6588
  950MOL0     C28126   5.481   0.839   6.294  0.1983  0.4141 -0.3439
  950MOL0     C28127   5.429   0.694   6.327  0.0571 -0.4287  0.1007
  950MOL0     C28128   5.303   0.712   6.416 -0.6897 -0.0430  0.5537
  950MOL0     C28129   5.259   0.569   6.442  0.1757 -0.0685 -0.1074
  950MOL0     C28130   5.341   0.503   6.559  0.5372 -0.2387  0.5565
  950MOL0     C28131   5.322   0.355   6.554 -0.1832  0.5183  0.6465
  950MOL0     N28132   5.239   0.310   6.669  0.4493 -0.4298 -0.4754
  950MOL0     C28133   5.120   0.369   6.711  0.7558  0.5802 -0.5736
  950MOL0     C28134   5.062   0.286   6.809 -0.8686 -0.2181 -0.2946
  950MOL0     C28135   4.927   0.311   6.876 -0.3322  0.4803 -0.2661
  950MOL0     C28136   4.844   0.180   6.910 -1.1859  0.1256 -0.3228
  950MOL0     C28137   4.694   0.209   6.926  0.6298  0.7754 -0.2973
  950MOL0     C28138   4.630   0.073   6.971  0.1497 -0.2792 -0.3371
  950MOL0     O28139   4.489   0.091   7.014 -0.0378 -0.2434  0.0867
  950MOL0     C28140   4.399  -0.005   7.049  0.2715  0.8067 -0.0977
  950MOL0     C28141   4.424  -0.140   7.052  0.1560  0.0730 -0.0366
  950MOL0     C28142   4.320  -0.235   7.077  0.0531 -0.2407 -0.2170
  950MOL0     C28143   4.348  -0.383   7.060  0.1478 -1.0242 -0.3093
  950MOL0     C28144   4.188  -0.194   7.101  0.0104  0.4364  0.5744
  950MOL0     C28145   4.068  -0.283   7.123  0.3192 -0.1516  1.8179
  950MOL0     O28146   3.947  -0.218   7.099 -0.8457  0.3684 -0.4842
  950MOL0     C28147   3.836  -0.285   7.129  0.3483 -0.2369 -0.4071
  950MOL0     C28148   3.803  -0.399   7.059  0.5487 -0.3436  0.8701
  950MOL0     C28149   3.685  -0.473   7.086 -0.9112 -0.0253 -1.2679
  950MOL0     C28150   3.590  -0.427   7.181 -0.7338  0.1148  0.4422
  950MOL0     O28151   3.467  -0.485   7.182  0.4388 -0.1745 -0.2694
  950MOL0     C28152   3.394  -0.462   7.304 -0.1875  0.2221  0.0716
  950MOL0     C28153   3.277  -0.564   7.316  0.0548  0.4960  0.6900
  950MOL0     C28154   3.196  -0.571   7.191 -0.6330 -0.3307  0.4433
  950MOL0     C28155   3.053  -0.623   7.222  0.4797 -0.1737  0.2315
  950MOL0     C28156   2.983  -0.658   7.098 -0.3940 -0.4806 -0.1948
  950MOL0     C28157   2.853  -0.720   7.121 -0.0613 -0.0024 -0.2424
  950MOL0     C28158   2.765  -0.701   6.995 -0.1886  0.2707  0.1463
  950MOL0     C28159   2.817  -0.794   6.890 -0.5033  0.9878  0.4881
  950MOL0    Cl28160   2.703  -0.769   6.740  0.1885 -0.0096  0.2394
  950MOL0     C28161   3.630  -0.318   7.255  0.6523  0.6567  0.1114
  950MOL0     C28162   3.743  -0.244   7.225 -0.1081  0.1659  0.9015
  950MOL0     O28163   4.082  -0.398   7.174 -0.6874  0.4377  0.5784
  950MOL0     C28164   4.178  -0.059   7.110 -0.2478 -0.8077  0.8184
  950MOL0     C28165   4.281   0.038   7.091  0.4527 -0.9874  0.3041
  950MOL0     N28166   5.150   0.179   6.824  0.1676  0.4688 -0.9481
  950MOL0     N28167   5.250   0.193   6.745  0.4058  0.1363 -0.6108
  950MOL0     C28168   5.770   0.512   6.372 -0.6079  0.1706 -0.3865
  950MOL0     C28169   5.852   0.462   6.481 -0.2868 -1.0032 -0.0260
  950MOL0     C28170   6.224   0.291   6.666  1.1104 -0.8473 -0.1520
  950MOL0     C28171   6.316   0.193   6.625  0.0815  1.1537 -0.1342
  950MOL0     C28172   6.397   0.140   6.715 -0.2845 -0.2870 -0.3832
  950MOL0     C28173   6.401   0.168   6.853 -0.2215  0.0312  0.8018
  950MOL0     O28174   6.488   0.091   6.925 -0.2995  0.5541  0.7588
  950MOL0     C28175   6.441   0.049   7.052 -0.4485  0.9007 -0.9117
  950MOL0     C28176   6.386  -0.098   7.037 -0.8796 -0.4586 -0.2276
  950MOL0     C28177   6.505  -0.202   7.040  0.7029 -0.3363  0.3580
  950MOL0     C28178   6.547  -0.253   7.173 -1.1242 -0.2072 -1.2680
  950MOL0     C28179   6.660  -0.350   7.156 -0.3284  0.2386 -0.2441
  950MOL0     C28180   6.750  -0.430   7.134 -0.6714 -0.6392 -0.4425
  950MOL0     C28181   6.312   0.269   6.893  0.3647 -0.4861 -1.0216
  950MOL0     C28182   6.234   0.335   6.801 -0.3577 -0.0116  0.8340
  950MOL0     H28183   6.114   0.669   6.478  0.3794  1.0515 -0.4320
  950MOL0     H28184   5.947   0.800   6.321  0.3980  0.1773  1.3722
  950MOL0     H28185   5.726   0.857   6.314  3.5596 -1.2209  0.8321
  950MOL0     H28186   5.794   0.858   6.154  2.0174 -0.8174  2.0588
  950MOL0     H28187   5.559   0.945   6.141 -0.7827  0.1922  1.1905
  950MOL0     H28188   5.535   0.781   6.086  0.9772 -2.6590  1.3130
  950MOL0     H28189   5.535   0.880   6.380 -1.5343  1.1055  0.4586
  950MOL0     H28190   5.393   0.902   6.279  1.2001  1.5909 -1.5173
  950MOL0     H28191   5.407   0.654   6.228 -0.2275  0.6503 -0.2793
  950MOL0     H28192   5.511   0.635   6.370  1.3173  0.5760 -0.8301
  950MOL0     H28193   5.316   0.771   6.507  1.4010  1.6181 -0.7356
  950MOL0     H28194   5.224   0.767   6.365 -0.6843 -0.4680  0.0688
  950MOL0     H28195   5.154   0.570   6.470 -0.2130  1.2444 -1.4746
  950MOL0     H28196   5.269   0.518   6.345  1.1973 -0.8571  0.3858
  950MOL0     H28197   5.449   0.522   6.549  0.0081  2.5635 -1.2408
  950MOL0     H28198   5.298   0.545   6.650 -0.7219 -2.2982  0.9715
  950MOL0     H28199   5.423   0.313   6.548 -0.1233  0.1123  3.4314
  950MOL0     H28200   5.271   0.323   6.462 -1.0510  3.0726  0.1570
  950MOL0     H28201   5.076   0.461   6.675 -1.0769  0.8489  2.1353
  950MOL0     H28202   4.936   0.368   6.968 -1.4256 -0.6455  0.5749
  950MOL0     H28203   4.865   0.366   6.804 -1.8590  0.7342  1.2043
  950MOL0     H28204   4.881   0.133   7.002 -4.6538 -3.3510 -0.4334
  950MOL0     H28205   4.856   0.113   6.824 -0.9730  1.5221 -1.4209
  950MOL0     H28206   4.660   0.234   6.825 -0.3601 -2.6831 -0.9539
  950MOL0     H28207   4.675   0.287   7.001  0.0263  0.5518 -0.2159
  950MOL0     H28208   4.679   0.047   7.066 -0.6497  1.6643  0.6475
  950MOL0     H28209   4.649  -0.002   6.893  1.8005 -0.7776  0.4883
  950MOL0     H28210   4.521  -0.170   7.014  0.0462 -0.3959  0.0456
  950MOL0     H28211   4.269  -0.428   7.001 -0.1667 -0.7222 -0.1244
  950MOL0     H28212   4.442  -0.401   7.006 -0.3341  0.3298 -1.6689
  950MOL0     H28213   4.351  -0.419   7.163  2.4212 -2.2754 -0.7368
  950MOL0     H28214   3.872  -0.434   6.983 -0.5659  1.0761 -0.8479
  950MOL0     H28215   3.671  -0.570   7.038  1.6503 -0.8129 -0.5714
  950MOL0     H28216   3.468  -0.476   7.383  0.5175  2.8688 -0.0263
  950MOL0     H28217   3.370  -0.356   7.307 -0.3558  0.2581 -1.6358
  950MOL0     H28218   3.318  -0.660   7.349  1.6576  0.9667  0.1657
  950MOL0     H28219   3.211  -0.525   7.394 -1.2754  0.4645 -0.3932
  950MOL0     H28220   3.244  -0.652   7.134  1.1854 -1.1947  3.0251
  950MOL0     H28221   3.202  -0.473   7.142  0.2783 -0.2350  0.7319
  950MOL0     H28222   3.050  -0.707   7.292 -1.7632 -0.3595 -0.0082
  950MOL0     H28223   3.000  -0.538   7.266 -1.6546 -1.3328  0.0444
  950MOL0     H28224   3.035  -0.733   7.037 -1.3598 -2.4933  1.3005
  950MOL0     H28225   2.976  -0.566   7.040  0.5931 -0.7065 -0.6949
  950MOL0     H28226   2.872  -0.824   7.148  0.9832  0.4061  0.7067
  950MOL0     H28227   2.807  -0.673   7.209 -1.5105  0.3083 -1.1299
  950MOL0     H28228   2.763  -0.600   6.955 -1.6805  0.4029  0.5148
  950MOL0     H28229   2.669  -0.729   7.039  0.0992  1.5770  1.6938
  950MOL0     H28230   2.823  -0.896   6.928  2.8676  0.6792 -0.5477
  950MOL0     H28231   2.921  -0.771   6.866 -0.6606  0.8061 -0.4247
  950MOL0     H28232   3.563  -0.271   7.327 -1.1967 -0.6394 -0.6678
  950MOL0     H28233   3.764  -0.154   7.282  2.5077 -0.4347  1.0080
  950MOL0     H28234   4.082  -0.015   7.138 -0.4251  0.2309 -1.2383
  950MOL0     H28235   4.260   0.143   7.111 -0.0192 -1.0654  0.2335
  950MOL0     H28236   5.683   0.455   6.341  0.1705 -1.9536  1.0952
  950MOL0     H28237   5.829   0.371   6.535  0.9434 -0.6026  1.2455
  950MOL0     H28238   6.327   0.165   6.521  1.9393  2.7624 -0.4332
  950MOL0     H28239   6.460   0.059   6.679  0.5344 -0.3274  1.0599
  950MOL0     H28240   6.527   0.051   7.119  0.8429 -0.1926 -2.4795
  950MOL0     H28241   6.363   0.107   7.103 -0.8806  0.3004 -0.8781
  950MOL0     H28242   6.324  -0.106   6.947 -1.2301  0.7233 -0.1196
  950MOL0     H28243   6.322  -0.130   7.120 -2.3027  0.0746 -1.0723
  950MOL0     H28244   6.581  -0.158   6.977 -1.2735  2.0319 -0.5144
  950MOL0     H28245   6.465  -0.285   6.981 -0.7582  2.2186 -2.5442
  950MOL0     H28246   6.465  -0.303   7.226 -0.7389 -0.6596 -1.0960
  950MOL0     H28247   6.569  -0.165   7.235 -0.6863  1.1396 -3.2236
  950MOL0     H28248   6.831  -0.500   7.132  0.5433  0.7143 -0.3734
  950MOL0     H28249   6.310   0.301   6.997 -2.3027 -3.5441  0.0754
  950MOL0     H28250   6.167   0.415   6.830  3.1308  3.6238 -0.2119
  951MOL0     O28251   9.254   3.562   5.166 -0.2053  0.7552  0.0587
  951MOL0     C28252   9.229   3.452   5.127 -0.3527 -0.6422 -0.0987
  951MOL0     O28253   9.106   3.396   5.148 -0.6803 -0.5508  0.6384
  951MOL0     C28254   8.996   3.480   5.166  0.3780  0.5326  0.6503
  951MOL0     C28255   8.956   3.569   5.069  0.0371 -0.4517 -0.1878
  951MOL0     C28256   8.841   3.638   5.085  0.8597 -0.2550  0.2741
  951MOL0     C28257   8.769   3.629   5.201  0.3619 -0.1927 -0.4298
  951MOL0     O28258   8.657   3.710   5.200  0.8327  0.4292 -0.3547
  951MOL0     C28259   8.581   3.717   5.319  0.6987 -0.1546 -0.8132
  951MOL0     C28260   8.467   3.812   5.293  0.1784  0.0723 -0.7160
  951MOL0     C28261   8.330   3.739   5.308  0.7999 -0.3742 -0.4651
  951MOL0     C28262   8.307   3.660   5.441 -0.5206 -0.6562 -0.0038
  951MOL0     C28263   8.164   3.668   5.472  0.0604  0.5482  0.0839
  951MOL0     C28264   8.116   3.606   5.609  0.1138 -0.3032 -0.8770
  951MOL0     C28265   7.963   3.607   5.617  0.2245  1.3474 -0.5990
  951MOL0     C28266   7.896   3.721   5.548 -0.3373  0.0137 -0.2711
  951MOL0     N28267   7.756   3.730   5.594 -0.4399 -0.1562 -0.3592
  951MOL0     C28268   7.677   3.620   5.638 -0.5815 -0.4577 -0.0546
  951MOL0     C28269   7.575   3.669   5.710 -0.1657 -0.8846 -0.4324
  951MOL0     C28270   7.465   3.582   5.765  0.2005  0.6910 -0.5580
  951MOL0     C28271   7.339   3.626   5.695  0.2260  0.0905  0.4756
  951MOL0     C28272   7.232   3.510   5.680  1.0450 -0.1531 -0.1092
  951MOL0     C28273   7.088   3.552   5.637 -0.0351  0.0080  0.6349
  951MOL0     O28274   7.023   3.646   5.711  0.2961  0.4102  0.2293
  951MOL0     C28275   6.888   3.622   5.741  0.4359 -0.4429 -0.2253
  951MOL0     C28276   6.805   3.544   5.661  0.4869 -1.1557 -0.5946
  951MOL0     C28277   6.661   3.535   5.696 -0.0693 -0.3501 -1.1859
  951MOL0     C28278   6.565   3.477   5.598  0.5786 -0.9560 -0.6129
  951MOL0     C28279   6.612   3.604   5.812  1.3194 -0.8264  0.1403
  951MOL0     C28280   6.480   3.576   5.855 -0.1436  0.1743  0.3025
  951MOL0     O28281   6.450   3.457   5.892 -0.4034  0.1780 -0.4881
  951MOL0     C28282   6.317   3.415   5.921  0.8879 -0.6621 -0.2953
  951MOL0     C28283   6.207   3.478   5.858  0.5502  0.8082  0.2295
  951MOL0     C28284   6.076   3.450   5.888 -0.6517 -0.1132 -0.2909
  951MOL0     C28285   6.052   3.364   5.999  0.7817  0.1831  0.1165
  951MOL0     O28286   5.924   3.330   6.042  0.0175 -0.2476 -0.4141
  951MOL0     C28287   5.820   3.382   5.956  0.3261  0.4997  0.3001
  951MOL0     C28288   5.697   3.352   6.038 -0.4541  0.0800  0.5647
  951MOL0     C28289   5.577   3.421   5.974  0.4752  0.8772 -0.3501
  951MOL0     C28290   5.447   3.382   6.053 -0.0247  0.1077  0.0266
  951MOL0     C28291   5.338   3.477   5.993 -0.2686  0.3842 -0.2551
  951MOL0     C28292   5.207   3.458   6.072 -0.1292 -0.0428 -0.0599
  951MOL0     C28293   5.104   3.545   6.009 -0.6446 -0.4086 -0.5756
  951MOL0     C28294   4.970   3.530   6.071 -0.1109  1.2589 -0.2828
  951MOL0    Cl28295   4.854   3.648   5.989 -0.5796  0.3241 -0.4251
  951MOL0     C28296   6.154   3.295   6.065 -0.0008 -0.1762 -1.4066
  951MOL0     C28297   6.284   3.323   6.025 -0.3232 -0.0738  0.6288
  951MOL0     O28298   6.415   3.678   5.888 -1.0131  0.1345  0.2316
  951MOL0     C28299   6.697   3.684   5.887 -0.5923  0.2893 -0.5245
  951MOL0     C28300   6.838   3.693   5.851  0.0476 -0.4167  0.7593
  951MOL0     N28301   7.597   3.803   5.722 -0.4840  0.5455 -0.6778
  951MOL0     N28302   7.699   3.838   5.647 -0.4827  0.1548  0.1318
  951MOL0     C28303   8.803   3.538   5.301 -0.3052 -0.3032  0.2758
  951MOL0     C28304   8.917   3.467   5.287 -0.3503 -0.2835 -0.0130
  951MOL0     C28305   9.328   3.378   5.044 -0.0668  0.5907  0.4486
  951MOL0     C28306   9.455   3.424   5.038  0.3374  1.2684 -0.3360
  951MOL0     C28307   9.548   3.347   4.964 -0.1524 -0.1950 -0.0691
  951MOL0     C28308   9.517   3.228   4.900  0.4523 -0.2549  0.3740
  951MOL0     O28309   9.628   3.170   4.846 -0.1842 -0.0785  0.4822
  951MOL0     C28310   9.617   3.119   4.713  0.4959 -0.7012  0.0669
  951MOL0     C28311   9.752   3.058   4.672 -0.7576  0.1330  0.1813
  951MOL0     C28312   9.868   3.165   4.683  0.1126 -0.7334  0.0196
  951MOL0     C28313  10.002   3.097   4.659  0.3504 -0.6146  0.2439
  951MOL0     C28314  10.111   3.175   4.729 -0.7985  0.4060 -0.5988
  951MOL0     C28315  10.213   3.207   4.786 -0.8955 -0.2169  0.7407
  951MOL0     C28316   9.385   3.189   4.897  0.8684 -0.1496  0.7643
  951MOL0     C28317   9.289   3.269   4.961 -0.3700 -0.2455  0.3723
  951MOL0     H28318   9.018   3.570   4.980  0.4065 -0.9386  0.0607
  951MOL0     H28319   8.806   3.702   5.004 -2.0769 -0.3653  1.3357
  951MOL0     H28320   8.529   3.623   5.342 -1.8952  1.3802  0.0312
  951MOL0     H28321   8.640   3.744   5.408 -2.2357 -2.7865  2.2372
  951MOL0     H28322   8.468   3.875   5.382 -2.0292 -0.5807 -0.1656
  951MOL0     H28323   8.481   3.874   5.205 -1.6990  1.1868 -0.2708
  951MOL0     H28324   8.265   3.826   5.312  1.3768  0.0337  0.0731
  951MOL0     H28325   8.299   3.673   5.226  4.3691 -3.0821  0.1159
  951MOL0     H28326   8.342   3.557   5.441  0.5460 -0.3307  1.8457
  951MOL0     H28327   8.370   3.706   5.518 -1.6448  2.5032 -0.7986
  951MOL0     H28328   8.134   3.773   5.475  0.8844  0.7773  2.4055
  951MOL0     H28329   8.112   3.620   5.389 -0.3492 -0.1702  0.7384
  951MOL0     H28330   8.151   3.503   5.623 -0.4553 -0.4250 -0.2824
  951MOL0     H28331   8.144   3.674   5.690  2.2037 -1.4030 -0.5961
  951MOL0     H28332   7.921   3.512   5.583  0.5857  1.7877 -2.3848
  951MOL0     H28333   7.932   3.611   5.722  0.2613  0.8935 -0.5727
  951MOL0     H28334   7.902   3.714   5.439  2.1322 -0.1017 -0.1938
  951MOL0     H28335   7.929   3.819   5.582 -0.7527  0.5657 -1.4122
  951MOL0     H28336   7.684   3.513   5.624 -2.8882 -0.5282 -1.2354
  951MOL0     H28337   7.491   3.479   5.736 -0.6377  0.4599 -0.5031
  951MOL0     H28338   7.466   3.589   5.874 -0.8036 -0.6494 -0.4421
  951MOL0     H28339   7.359   3.676   5.600 -0.0874 -0.0379  0.3417
  951MOL0     H28340   7.286   3.698   5.759  1.2508 -0.2027  1.6953
  951MOL0     H28341   7.222   3.457   5.775 -1.4656  1.1006  0.4208
  951MOL0     H28342   7.267   3.435   5.609 -0.1969  0.1898 -1.1361
  951MOL0     H28343   7.032   3.458   5.641  0.7342 -0.4456  1.0953
  951MOL0     H28344   7.089   3.585   5.532  2.7801  2.8795  1.4317
  951MOL0     H28345   6.839   3.484   5.577 -0.4132 -2.8578  0.1925
  951MOL0     H28346   6.587   3.370   5.602  1.6765 -0.8456 -2.4535
  951MOL0     H28347   6.459   3.496   5.617  0.7372  1.3464 -1.7066
  951MOL0     H28348   6.582   3.525   5.501  1.1712  2.1634  0.9034
  951MOL0     H28349   6.243   3.551   5.786  0.4995 -0.1856 -0.8314
  951MOL0     H28350   6.004   3.499   5.824 -0.9402 -0.6856 -0.4076
  951MOL0     H28351   5.832   3.487   5.928  0.6207  0.5755  0.7094
  951MOL0     H28352   5.817   3.323   5.864  0.5119  1.3133 -0.2356
  951MOL0     H28353   5.681   3.249   6.071  0.2198 -0.9794 -2.1880
  951MOL0     H28354   5.705   3.401   6.136  1.0120  1.9978 -0.4505
  951MOL0     H28355   5.571   3.390   5.869 -1.2754  0.0718 -0.0530
  951MOL0     H28356   5.584   3.530   5.978 -1.3283  0.9979  0.4522
  951MOL0     H28357   5.421   3.276   6.054 -0.1218  0.1063  2.2868
  951MOL0     H28358   5.456   3.408   6.158  0.3709 -0.2889  0.0952
  951MOL0     H28359   5.322   3.464   5.886 -1.0758  4.4364 -0.7584
  951MOL0     H28360   5.371   3.581   6.003 -0.3673  0.2873  1.4281
  951MOL0     H28361   5.171   3.354   6.068 -1.2915  0.2571  1.5542
  951MOL0     H28362   5.228   3.483   6.176 -3.1519 -0.7260  0.8200
  951MOL0     H28363   5.101   3.540   5.900  0.6728  1.0450 -0.7249
  951MOL0     H28364   5.135   3.648   6.031 -4.0582  0.1903  2.3041
  951MOL0     H28365   4.973   3.537   6.180 -1.0017 -2.1931  0.0998
  951MOL0     H28366   4.923   3.431   6.064 -0.2247  1.3886 -1.6900
  951MOL0     H28367   6.130   3.227   6.146 -1.1365  0.3331 -1.2948
  951MOL0     H28368   6.359   3.276   6.088  1.0254 -0.2128 -1.0095
  951MOL0     H28369   6.668   3.734   5.979  0.6613  0.9650 -0.4736
  951MOL0     H28370   6.908   3.754   5.907  1.7292  0.7738 -2.3533
  951MOL0     H28371   8.745   3.529   5.393 -0.8894 -0.1310 -0.0716
  951MOL0     H28372   8.945   3.404   5.372 -3.3730 -1.7424  0.0456
  951MOL0     H28373   9.478   3.508   5.102  1.6930  0.9004 -0.3044
  951MOL0     H28374   9.652   3.376   4.974 -0.1847  0.1260 -0.6746
  951MOL0     H28375   9.529   3.053   4.707 -0.5719  0.6006  0.7397
  951MOL0     H28376   9.599   3.206   4.649  2.1352 -0.6871 -0.4034
  951MOL0     H28377   9.753   3.038   4.565  0.6721  1.0154  0.0021
  951MOL0     H28378   9.768   2.980   4.747  1.4967  1.3038  1.0202
  951MOL0     H28379   9.880   3.204   4.784  0.8993  2.7435 -1.2736
  951MOL0     H28380   9.866   3.255   4.621  2.2107 -0.0711  0.8428
  951MOL0     H28381  10.012   3.093   4.550  1.0938 -0.1187  0.2842
  951MOL0     H28382   9.997   2.994   4.694 -1.0954 -1.4080 -2.0451
  951MOL0     H28383  10.306   3.237   4.831 -0.0869 -1.2311 -0.1976
  951MOL0     H28384   9.371   3.085   4.866  2.2369  0.0041 -0.4648
  951MOL0     H28385   9.185   3.237   4.957 -1.2021  2.3188 -0.6464
  952MOL0     O28386   8.714   9.497   2.559  0.1005 -0.0026  0.4500
  952MOL0     C28387   8.685   9.586   2.638  0.2149  0.0507  0.0038
  952MOL0     O28388   8.578   9.673   2.635  0.2440  0.8485 -0.1438
  952MOL0     C28389   8.457   9.642   2.574  0.1741 -0.1321 -0.0512
  952MOL0     C28390   8.381   9.753   2.550  0.3163 -0.4673  0.3462
  952MOL0     C28391   8.252   9.749   2.494  1.1025  0.4600 -0.1570
  952MOL0     C28392   8.189   9.625   2.470 -0.3623 -0.5606  0.2340
  952MOL0     O28393   8.064   9.602   2.417 -0.2993 -0.0628 -0.1469
  952MOL0     C28394   8.002   9.717   2.356  0.1988  0.3624  0.2233
  952MOL0     C28395   7.871   9.669   2.289 -0.5452 -0.9328  0.3921
  952MOL0     C28396   7.785   9.786   2.240 -1.0191 -0.2511  0.1070
  952MOL0     C28397   7.671   9.743   2.145 -0.4379 -0.2736  0.8844
  952MOL0     C28398   7.597   9.864   2.098  0.2018  0.0858 -0.1355
  952MOL0     C28399   7.481   9.817   2.003  0.0934  0.0032 -0.4539
  952MOL0     C28400   7.412   9.943   1.945  0.0079  1.2495 -0.0442
  952MOL0     C28401   7.284   9.923   1.868  0.3730  0.0543 -0.1856
  952MOL0     N28402   7.174   9.834   1.926 -0.4116  0.9015 -0.4041
  952MOL0     C28403   7.108   9.733   1.860 -0.5770 -0.2724 -0.3474
  952MOL0     C28404   7.022   9.677   1.949 -0.4973 -0.5970  0.3411
  952MOL0     C28405   6.940   9.556   1.940 -0.1951  0.0656 -0.0622
  952MOL0     C28406   6.806   9.580   1.858 -0.5628  0.1491 -0.4365
  952MOL0     C28407   6.694   9.642   1.939 -0.3500  0.4902  0.4120
  952MOL0     C28408   6.568   9.676   1.854  0.4899  0.4609  0.0049
  952MOL0     O28409   6.536   9.568   1.757 -0.3250  0.1312 -0.2294
  952MOL0     C28410   6.409   9.575   1.695 -0.2434 -0.0883 -0.0891
  952MOL0     C28411   6.361   9.461   1.638 -0.6851  0.4376 -0.2121
  952MOL0     C28412   6.239   9.452   1.570  0.8700 -1.0852 -0.2212
  952MOL0     C28413   6.209   9.321   1.497 -0.1071 -0.3881 -0.0442
  952MOL0     C28414   6.156   9.566   1.570  0.7156  0.4362  0.0719
  952MOL0     C28415   6.033   9.580   1.494  0.0991  0.5978 -0.0707
  952MOL0     O28416   5.991   9.701   1.473  0.1580 -0.4337  0.0350
  952MOL0     C28417   5.872   9.709   1.402 -0.8786  0.4269  0.9757
  952MOL0     C28418   5.764   9.762   1.470  0.3802  0.3722  0.0447
  952MOL0     C28419   5.638   9.757   1.397 -0.9860  0.1801 -0.5048
  952MOL0     C28420   5.631   9.740   1.263 -0.3623  0.7621 -0.2780
  952MOL0     O28421   5.518   9.717   1.191  0.3433  0.1971 -0.1507
  952MOL0     C28422   5.423   9.616   1.244 -0.1903 -0.6836  0.3392
  952MOL0     C28423   5.321   9.588   1.134  0.5688 -0.7153 -0.7922
  952MOL0     C28424   5.229   9.469   1.175  0.4145 -0.0247  0.1179
  952MOL0     C28425   5.091   9.522   1.243 -0.0773 -0.1090  0.0315
  952MOL0     C28426   5.002   9.408   1.295 -0.7623 -0.5697 -0.1101
  952MOL0     C28427   4.885   9.451   1.381 -0.8599 -0.2998 -0.5666
  952MOL0     C28428   4.773   9.486   1.291  0.2212  0.4026 -0.2928
  952MOL0     C28429   4.658   9.539   1.373  0.3488  0.0313 -0.2173
  952MOL0    Cl28430   4.705   9.701   1.456  0.5465  0.0470  0.3152
  952MOL0     C28431   5.755   9.717   1.194 -0.2445 -0.5050 -0.2990
  952MOL0     C28432   5.870   9.687   1.263  1.0654 -0.7255  0.9926
  952MOL0     O28433   5.970   9.474   1.467 -0.2719  0.2662  0.6147
  952MOL0     C28434   6.209   9.690   1.626 -0.4885 -0.3960 -0.3814
  952MOL0     C28435   6.337   9.688   1.679  0.1125 -1.0077  0.1253
  952MOL0     N28436   7.022   9.749   2.059  0.2681 -0.4167  0.4640
  952MOL0     N28437   7.116   9.840   2.050  0.2956  0.1847  0.1148
  952MOL0     C28438   8.266   9.511   2.502  0.0835 -0.8583  0.4403
  952MOL0     C28439   8.398   9.518   2.548  0.3297  0.2170 -0.7185
  952MOL0     C28440   8.767   9.615   2.747 -0.7507  0.5804 -0.1241
  952MOL0     C28441   8.725   9.696   2.863 -0.1746 -0.5554  1.1858
  952MOL0     C28442   8.815   9.738   2.964  0.0619 -0.4028  0.6093
  952MOL0     C28443   8.950   9.682   2.963  0.2420 -0.8686  0.1564
  952MOL0     O28444   9.056   9.707   3.046  0.4545  0.3203 -0.2201
  952MOL0     C28445   9.040   9.815   3.136 -0.4692  0.2455 -0.7292
  952MOL0     C28446   9.171   9.861   3.184 -0.5116 -0.5166 -0.3209
  952MOL0     C28447   9.161   9.975   3.288  0.7284  0.1137  1.2573
  952MOL0     C28448   9.296  10.000   3.357  0.3579  0.3526 -0.2434
  952MOL0     C28449   9.283  10.119   3.445 -1.3996 -0.4414  0.5169
  952MOL0     C28450   9.299  10.215   3.518  0.6475 -1.3954  0.3788
  952MOL0     C28451   8.986   9.599   2.851 -0.2325  0.2251 -0.5329
  952MOL0     C28452   8.896   9.565   2.747  0.2259  0.4667  0.3477
  952MOL0     H28453   8.424   9.852   2.558  0.4901 -0.5528  0.4522
  952MOL0     H28454   8.212   9.849   2.478  0.4789  0.3281  0.5537
  952MOL0     H28455   7.974   9.784   2.438 -1.5727 -0.9047  0.7228
  952MOL0     H28456   8.066   9.773   2.288  0.2020 -1.6669 -1.5152
  952MOL0     H28457   7.896   9.615   2.197 -1.9467 -1.1530  0.1140
  952MOL0     H28458   7.812   9.599   2.350 -0.5184 -3.1529 -1.9694
  952MOL0     H28459   7.740   9.835   2.327  0.9751  0.2910  0.8989
  952MOL0     H28460   7.850   9.852   2.182 -1.1365 -0.6166 -0.4469
  952MOL0     H28461   7.711   9.689   2.059 -2.3222 -0.2703 -0.0432
  952MOL0     H28462   7.604   9.671   2.192 -1.1370 -0.6807 -0.6719
  952MOL0     H28463   7.557   9.917   2.186 -0.3174 -0.0096 -0.3099
  952MOL0     H28464   7.666   9.932   2.048 -0.8232 -1.0023 -3.2026
  952MOL0     H28465   7.523   9.746   1.930  4.2134  0.0257  1.6280
  952MOL0     H28466   7.404   9.765   2.060 -0.1753 -1.2879 -1.9148
  952MOL0     H28467   7.385  10.008   2.028 -3.3803 -1.0843  0.8865
  952MOL0     H28468   7.487   9.992   1.883  2.7344  1.7901  3.3532
  952MOL0     H28469   7.290   9.902   1.761 -1.7455  2.4860 -0.9028
  952MOL0     H28470   7.238  10.022   1.867 -0.2756 -0.2451 -0.2911
  952MOL0     H28471   7.127   9.697   1.760  2.2977 -2.3854  0.8450
  952MOL0     H28472   6.998   9.473   1.896  0.4833  1.6549 -2.3605
  952MOL0     H28473   6.916   9.514   2.038  0.9262  0.9342  0.5977
  952MOL0     H28474   6.762   9.483   1.833 -3.2379  1.2968 -0.4962
  952MOL0     H28475   6.827   9.636   1.767 -2.9665  3.0552  0.6445
  952MOL0     H28476   6.727   9.732   1.992 -1.3146 -0.1153  2.1102
  952MOL0     H28477   6.666   9.568   2.014 -1.5323 -0.6820 -1.1228
  952MOL0     H28478   6.591   9.767   1.799  0.7093 -0.1030 -0.8537
  952MOL0     H28479   6.485   9.697   1.922  0.3545  1.8000 -0.5481
  952MOL0     H28480   6.415   9.367   1.648  2.1399  2.1818  2.9263
  952MOL0     H28481   6.123   9.273   1.544 -0.0729 -0.5089 -0.1061
  952MOL0     H28482   6.173   9.347   1.397 -3.9398  0.0265  1.2736
  952MOL0     H28483   6.294   9.254   1.509 -1.2402 -1.2821  5.3604
  952MOL0     H28484   5.779   9.783   1.575  2.2808  1.1590 -0.3449
  952MOL0     H28485   5.546   9.761   1.454 -3.2873 -0.6686 -3.9031
  952MOL0     H28486   5.467   9.518   1.259 -0.2416 -0.5015  1.7906
  952MOL0     H28487   5.361   9.649   1.328 -1.4880 -0.1546 -0.7788
  952MOL0     H28488   5.260   9.679   1.133  0.1324 -0.9239  1.7212
  952MOL0     H28489   5.353   9.576   1.030  0.0229 -1.4301 -0.8877
  952MOL0     H28490   5.284   9.406   1.246  0.7247  1.6452  1.4270
  952MOL0     H28491   5.200   9.417   1.083  1.7516  1.7004 -1.3568
  952MOL0     H28492   5.109   9.586   1.330  2.4042 -0.4540 -0.1445
  952MOL0     H28493   5.034   9.584   1.173  0.2970  1.1491  0.7977
  952MOL0     H28494   5.065   9.348   1.360  2.5979  2.4148 -0.3169
  952MOL0     H28495   4.969   9.347   1.210 -1.1701  0.5830 -0.8057
  952MOL0     H28496   4.861   9.353   1.423 -0.9182  0.2561  0.7405
  952MOL0     H28497   4.913   9.522   1.460 -1.3643  1.4123 -1.8582
  952MOL0     H28498   4.733   9.399   1.239  0.8263  0.6112 -1.1141
  952MOL0     H28499   4.804   9.548   1.207  2.6374  0.9391  0.9022
  952MOL0     H28500   4.640   9.474   1.459  0.3786  1.2702  0.7453
  952MOL0     H28501   4.567   9.570   1.321  0.9078  2.0520 -0.0881
  952MOL0     H28502   5.759   9.725   1.086  0.2261  1.9200 -0.1599
  952MOL0     H28503   5.963   9.672   1.210  0.5152 -1.0328  0.0838
  952MOL0     H28504   6.170   9.791   1.614  0.1983 -0.3278 -2.3194
  952MOL0     H28505   6.378   9.779   1.723  1.9387 -1.9769  0.5144
  952MOL0     H28506   8.213   9.417   2.492 -0.2098 -0.7670  1.0718
  952MOL0     H28507   8.455   9.428   2.566 -0.8422 -0.1437  1.4616
  952MOL0     H28508   8.625   9.738   2.858 -0.4344 -1.2898 -0.0777
  952MOL0     H28509   8.780   9.801   3.045 -2.5259 -0.3074 -0.4607
  952MOL0     H28510   8.984   9.901   3.098 -0.8664  1.4128  2.2665
  952MOL0     H28511   8.976   9.786   3.219 -1.2395 -1.3166 -1.8271
  952MOL0     H28512   9.237   9.905   3.109  0.7672 -1.4385  0.2104
  952MOL0     H28513   9.220   9.775   3.232 -1.6978 -0.5006  0.9696
  952MOL0     H28514   9.080   9.962   3.360 -0.4483  1.5907  0.2696
  952MOL0     H28515   9.133  10.068   3.239 -2.0057 -0.6544  1.1983
  952MOL0     H28516   9.378  10.025   3.289 -0.3278 -1.1312 -1.6990
  952MOL0     H28517   9.334   9.912   3.411  1.2064  0.3234 -0.8613
  952MOL0     H28518   9.312  10.305   3.574 -0.6433 -1.8412  1.4812
  952MOL0     H28519   9.093   9.581   2.841  0.0452  0.5851  1.4287
  952MOL0     H28520   8.935   9.515   2.658  2.2715  1.5529  0.5602
  953MOL0     O28521   6.171   7.519  10.073  0.0397 -0.0642  0.2613
  953MOL0     C28522   6.194   7.635  10.028 -0.1619  0.0764 -0.7435
  953MOL0     O28523   6.104   7.721   9.971 -0.2656  0.1102  0.4895
  953MOL0     C28524   5.978   7.672   9.941 -0.0282 -0.5822  0.2916
  953MOL0     C28525   5.887   7.773   9.917 -0.1120 -0.7186  0.0871
  953MOL0     C28526   5.754   7.749   9.877 -0.6883  0.0260  0.0497
  953MOL0     C28527   5.725   7.618   9.863  0.7171  0.0394  0.7473
  953MOL0     O28528   5.602   7.579   9.827  0.0203 -0.4470 -0.3192
  953MOL0     C28529   5.512   7.670   9.764 -0.7621 -0.5479  0.8621
  953MOL0     C28530   5.379   7.593   9.759  0.3139  0.5881  0.0778
  953MOL0     C28531   5.322   7.577   9.893  0.2587  0.7282 -0.1821
  953MOL0     C28532   5.173   7.534   9.896  0.5546 -0.5257 -0.2873
  953MOL0     C28533   5.084   7.658   9.876 -1.2311 -0.6328 -0.3175
  953MOL0     C28534   4.937   7.615   9.870 -0.0020  1.2134 -0.3987
  953MOL0     C28535   4.841   7.729   9.833  0.3035  0.1641  0.2900
  953MOL0     C28536   4.701   7.680   9.807 -0.0081 -0.2084  0.2672
  953MOL0     N28537   4.688   7.583   9.696 -0.4364  0.2807  0.0371
  953MOL0     C28538   4.680   7.446   9.702 -0.1412 -1.0832 -0.1713
  953MOL0     C28539   4.670   7.400   9.578 -0.2607  0.5186 -0.1228
  953MOL0     C28540   4.651   7.256   9.533  0.2393 -0.1611  0.4029
  953MOL0     C28541   4.515   7.227   9.483 -0.5247  0.3502  0.2729
  953MOL0     C28542   4.482   7.073   9.487  0.4784 -0.3092 -0.3724
  953MOL0     C28543   4.339   7.057   9.540 -0.2574  0.5219 -0.2438
  953MOL0     O28544   4.256   7.150   9.465  0.8963  0.6141 -0.0144
  953MOL0     C28545   4.126   7.112   9.453  0.1878 -0.4645 -0.0515
  953MOL0     C28546   4.053   7.032   9.544  0.5925 -0.1368  0.7570
  953MOL0     C28547   3.912   7.007   9.538 -0.1916  0.2430  0.0637
  953MOL0     C28548   3.860   6.920   9.645 -0.0126 -0.5172  0.2890
  953MOL0     C28549   3.845   7.073   9.434 -0.0371  0.9941 -0.6379
  953MOL0     C28550   3.693   7.062   9.416  0.7119  0.0944  0.2203
  953MOL0     O28551   3.616   7.033   9.530 -0.1404  0.1218  0.4106
  953MOL0     C28552   3.475   7.002   9.532 -0.4160  0.6693 -0.5321
  953MOL0     C28553   3.415   6.959   9.412 -0.6865  0.6503  0.6811
  953MOL0     C28554   3.276   6.931   9.416  0.7125 -0.4225 -0.0268
  953MOL0     C28555   3.192   6.945   9.534 -0.2515 -0.5891  0.0001
  953MOL0     O28556   3.056   6.935   9.533  0.4393  0.2295  0.5886
  953MOL0     C28557   2.984   6.899   9.408 -0.0052 -0.5635 -0.0533
  953MOL0     C28558   2.833   6.919   9.417  0.7044 -0.7233  0.4901
  953MOL0     C28559   2.761   6.862   9.535  0.2811  0.4997  0.0330
  953MOL0     C28560   2.616   6.920   9.554  0.2923  0.7455 -0.3350
  953MOL0     C28561   2.515   6.928   9.427  1.4153  0.0883  0.0200
  953MOL0     C28562   2.363   6.889   9.457 -0.6324 -0.1262 -0.7205
  953MOL0     C28563   2.314   6.990   9.566  0.6147  0.1996 -0.4059
  953MOL0     C28564   2.169   6.960   9.580 -0.2965 -0.4396 -0.0924
  953MOL0    Cl28565   2.096   7.055   9.719  0.5364 -0.0948 -0.4147
  953MOL0     C28566   3.260   6.983   9.650 -0.4244  0.3685  0.6444
  953MOL0     C28567   3.396   7.014   9.654  0.0864 -0.1234  0.5966
  953MOL0     O28568   3.647   7.085   9.305 -0.2372 -0.8320  0.4192
  953MOL0     C28569   3.914   7.152   9.342  0.5164 -0.6991 -0.1964
  953MOL0     C28570   4.050   7.177   9.356  0.1488  0.0326  0.0182
  953MOL0     N28571   4.669   7.502   9.494  0.4444 -0.6235 -0.5878
  953MOL0     N28572   4.678   7.615   9.566 -0.2583 -0.1846  0.3804
  953MOL0     C28573   5.811   7.515   9.890  0.4910  0.0436  0.6818
  953MOL0     C28574   5.940   7.539   9.927 -0.1773 -0.0659  0.1920
  953MOL0     C28575   6.331   7.694  10.061  0.1601 -0.5703  0.6878
  953MOL0     C28576   6.349   7.832  10.047  0.0630  0.2005 -0.3355
  953MOL0     C28577   6.473   7.879  10.054 -0.9742 -0.0806  0.1104
  953MOL0     C28578   6.582   7.798  10.063 -0.2462  0.8288  0.3611
  953MOL0     O28579   6.696   7.859  10.069  0.3046  0.1228 -0.7794
  953MOL0     C28580   6.818   7.792  10.089 -0.0412 -0.8855 -0.3624
  953MOL0     C28581   6.941   7.873  10.115 -0.1075  0.2996 -0.2117
  953MOL0     C28582   7.001   7.936   9.985 -0.2722  0.0710  0.3708
  953MOL0     C28583   7.133   7.872   9.950  1.1302  0.0448 -0.4645
  953MOL0     C28584   7.185   7.919   9.825 -0.1047 -0.3931 -0.5373
  953MOL0     C28585   7.251   7.961   9.732 -0.8973 -0.0581  0.1061
  953MOL0     C28586   6.571   7.654  10.081  0.5948 -0.5599 -0.0737
  953MOL0     C28587   6.444   7.608  10.078  0.0131 -0.7980 -0.9852
  953MOL0     H28588   5.917   7.877   9.919  0.3526 -0.8549  0.8967
  953MOL0     H28589   5.692   7.834   9.851 -2.8486 -1.6517 -0.6029
  953MOL0     H28590   5.509   7.767   9.814  1.4662  1.7212 -2.9633
  953MOL0     H28591   5.548   7.692   9.663  1.0601 -1.5552  1.2664
  953MOL0     H28592   5.307   7.645   9.695 -0.6882  0.2664  0.9180
  953MOL0     H28593   5.392   7.491   9.722  1.0658 -0.5946  3.3445
  953MOL0     H28594   5.380   7.493   9.934  1.1102  0.7732 -1.2349
  953MOL0     H28595   5.335   7.667   9.952  1.6731  1.0063 -0.8730
  953MOL0     H28596   5.148   7.462   9.817  0.7197 -0.0534 -0.7775
  953MOL0     H28597   5.141   7.485   9.989 -2.0157  0.3261 -0.6656
  953MOL0     H28598   5.091   7.740   9.949  1.2447  1.1732 -2.4080
  953MOL0     H28599   5.110   7.716   9.787  0.2354  4.6357  3.0229
  953MOL0     H28600   4.917   7.531   9.802  0.0144  1.4137 -0.6527
  953MOL0     H28601   4.900   7.577   9.966 -1.8344 -3.3043 -2.5773
  953MOL0     H28602   4.842   7.799   9.917  2.6822 -2.0398  2.2647
  953MOL0     H28603   4.881   7.773   9.742  1.6597 -2.3865 -0.4470
  953MOL0     H28604   4.633   7.763   9.786 -0.4544 -0.8034 -0.7082
  953MOL0     H28605   4.655   7.635   9.896 -1.0063 -0.0914 -0.1832
  953MOL0     H28606   4.693   7.389   9.793 -1.4975  0.2328  0.9119
  953MOL0     H28607   4.725   7.235   9.455  0.3109  1.3769  0.0347
  953MOL0     H28608   4.675   7.190   9.618  1.6963 -1.6129 -1.0608
  953MOL0     H28609   4.494   7.263   9.382 -0.1433  0.5690  0.2698
  953MOL0     H28610   4.453   7.288   9.548  1.7949  1.0629  1.9578
  953MOL0     H28611   4.539   7.020   9.564 -0.5731  1.5786  1.8133
  953MOL0     H28612   4.494   7.025   9.389  0.6288 -0.0269 -0.4933
  953MOL0     H28613   4.347   7.080   9.647 -1.0709  1.3184 -0.3434
  953MOL0     H28614   4.304   6.954   9.535  0.4469  0.1543  1.5459
  953MOL0     H28615   4.117   6.990   9.622  0.0896 -0.4942  0.9794
  953MOL0     H28616   3.804   6.986   9.712  1.1297  1.7571 -0.9037
  953MOL0     H28617   3.791   6.846   9.602 -0.4046 -0.1645  0.3088
  953MOL0     H28618   3.943   6.870   9.696 -0.3684 -3.2750 -1.6450
  953MOL0     H28619   3.468   6.945   9.319  1.8843 -0.8758  2.2374
  953MOL0     H28620   3.225   6.915   9.322 -0.9690  0.7519  0.6493
  953MOL0     H28621   3.021   6.957   9.323  0.5210 -1.6464 -0.5800
  953MOL0     H28622   3.002   6.793   9.392 -1.1173 -0.9868  1.2749
  953MOL0     H28623   2.819   7.026   9.403  0.7981 -0.6520  0.9130
  953MOL0     H28624   2.794   6.868   9.328 -1.2303 -2.0096  1.9955
  953MOL0     H28625   2.821   6.880   9.625 -0.0963 -1.8168  0.8071
  953MOL0     H28626   2.754   6.753   9.531 -0.9101  0.5728 -0.5455
  953MOL0     H28627   2.563   6.855   9.624 -1.6433  1.5781 -0.9618
  953MOL0     H28628   2.622   7.021   9.594  0.2596  1.0161 -0.9955
  953MOL0     H28629   2.558   6.860   9.353 -1.2608  0.2191 -1.8104
  953MOL0     H28630   2.509   7.028   9.382 -1.7435 -1.3231 -3.1845
  953MOL0     H28631   2.295   6.894   9.371 -3.2519 -0.4132  1.1925
  953MOL0     H28632   2.365   6.788   9.499  2.2266  1.4035  3.3407
  953MOL0     H28633   2.331   7.097   9.549 -0.1332  0.4719  0.4840
  953MOL0     H28634   2.372   6.962   9.655 -1.2280 -1.7056  0.2714
  953MOL0     H28635   2.148   6.856   9.607  0.0548 -0.4173  0.2743
  953MOL0     H28636   2.119   6.990   9.487  1.0994  2.9624  0.1000
  953MOL0     H28637   3.203   6.976   9.742  3.2322 -2.6059  2.9540
  953MOL0     H28638   3.455   7.052   9.737  2.4358  0.5463 -1.2514
  953MOL0     H28639   3.861   7.204   9.262 -0.1983  0.0475  0.7351
  953MOL0     H28640   4.098   7.245   9.286  2.5321 -0.9891  0.5624
  953MOL0     H28641   5.763   7.419   9.877 -2.4987  1.4998  0.0727
  953MOL0     H28642   6.002   7.451   9.935 -2.5549 -1.8600  0.1162
  953MOL0     H28643   6.265   7.901  10.050 -0.0819  0.0232 -0.2870
  953MOL0     H28644   6.499   7.983  10.036 -5.5295  0.9500 -2.1366
  953MOL0     H28645   6.795   7.730  10.177 -2.2167 -0.0874 -0.3055
  953MOL0     H28646   6.846   7.730  10.003  3.4488  0.0557 -0.0410
  953MOL0     H28647   7.013   7.811  10.168 -1.6189 -1.3456 -0.0103
  953MOL0     H28648   6.914   7.942  10.196  2.4788 -1.0614  1.9549
  953MOL0     H28649   7.019   8.042  10.004  0.0495  0.1826 -0.5317
  953MOL0     H28650   6.929   7.932   9.903  1.7165  2.5386 -1.6598
  953MOL0     H28651   7.130   7.763   9.945  1.0835  0.0848 -4.3949
  953MOL0     H28652   7.202   7.901  10.029  1.9917 -2.8629 -0.0677
  953MOL0     H28653   7.319   7.984   9.653  0.1458 -2.2043  0.2962
  953MOL0     H28654   6.655   7.587  10.093  0.5843 -0.5589  0.0098
  953MOL0     H28655   6.422   7.502  10.084 -0.5690 -0.6026  1.7618
  954MOL0     O28656   4.479   4.431   5.980 -0.5179  0.4137  0.1947
  954MOL0     C28657   4.518   4.539   6.025 -0.6356 -0.0977  0.0659
  954MOL0     O28658   4.447   4.634   6.106  0.7468  0.0205 -1.1801
  954MOL0     C28659   4.313   4.609   6.135  0.3213 -0.5454 -0.4713
  954MOL0     C28660   4.275   4.684   6.251  0.2265  0.7024  0.1807
  954MOL0     C28661   4.133   4.693   6.282  0.0637  0.3580  0.3529
  954MOL0     C28662   4.037   4.638   6.207  0.4407  0.1938 -0.1657
  954MOL0     O28663   3.909   4.640   6.256 -0.2906 -0.0747 -0.0978
  954MOL0     C28664   3.805   4.599   6.164  0.2952  0.1315 -0.1290
  954MOL0     C28665   3.673   4.613   6.244 -0.4866 -0.3448 -0.0457
  954MOL0     C28666   3.552   4.622   6.155  0.4382  0.5319  0.1972
  954MOL0     C28667   3.456   4.723   6.213 -0.0780  0.5393 -0.2634
  954MOL0     C28668   3.325   4.701   6.142 -0.0861  0.3422  0.3629
  954MOL0     C28669   3.242   4.602   6.223  0.8457  0.0937  0.3533
  954MOL0     C28670   3.110   4.580   6.148 -0.0720  0.1887 -0.6020
  954MOL0     C28671   3.023   4.492   6.243 -0.1676 -0.2096 -0.2643
  954MOL0     N28672   2.880   4.481   6.208 -0.4563  0.8598 -0.0767
  954MOL0     C28673   2.772   4.495   6.289  0.3280 -0.0680 -0.3197
  954MOL0     C28674   2.659   4.476   6.215 -0.2582 -0.2439 -0.3057
  954MOL0     C28675   2.516   4.503   6.257 -0.1403 -0.0304  0.4520
  954MOL0     C28676   2.485   4.666   6.250  0.5446  0.4189  0.2865
  954MOL0     C28677   2.333   4.673   6.242  0.3396 -0.2755  0.0559
  954MOL0     C28678   2.288   4.827   6.226 -0.3944 -0.0379  1.1945
  954MOL0     O28679   2.150   4.822   6.174 -0.3817 -0.9728 -0.3555
  954MOL0     C28680   2.042   4.827   6.265  0.1084 -0.1602  0.0343
  954MOL0     C28681   2.048   4.837   6.406 -0.9531  0.6560 -0.0614
  954MOL0     C28682   1.930   4.849   6.478 -1.1320 -0.1404  0.4777
  954MOL0     C28683   1.947   4.857   6.628 -0.0117 -0.3483 -0.0650
  954MOL0     C28684   1.802   4.840   6.412 -0.4218  0.2599 -0.3404
  954MOL0     C28685   1.676   4.839   6.485  0.2879 -1.0512  0.4761
  954MOL0     O28686   1.658   4.907   6.595 -0.3439  0.2215  0.1647
  954MOL0     C28687   1.544   4.918   6.664 -0.0168 -0.3987  0.2465
  954MOL0     C28688   1.543   4.892   6.807  0.0783  0.8761  0.7144
  954MOL0     C28689   1.421   4.915   6.878 -0.9869  0.3118  0.3239
  954MOL0     C28690   1.305   4.959   6.816 -0.3380  0.6313  1.1423
  954MOL0     O28691   1.187   4.982   6.882 -0.2477  0.7343  0.3331
  954MOL0     C28692   1.175   4.966   7.024  0.3904  0.4048 -0.9854
  954MOL0     C28693   1.039   5.015   7.064  1.0641  0.5998 -0.1062
  954MOL0     C28694   1.020   5.036   7.207  0.4869 -0.6543 -0.4645
  954MOL0     C28695   0.885   5.097   7.242  0.2695 -0.4977  1.4831
  954MOL0     C28696   0.767   5.000   7.223  0.2294 -0.4207 -0.3587
  954MOL0     C28697   0.620   5.062   7.225 -0.6678 -0.0129 -0.7960
  954MOL0     C28698   0.577   5.082   7.374 -0.0288  0.0268 -0.2163
  954MOL0     C28699   0.431   5.129   7.395 -0.3214 -0.8847 -0.2186
  954MOL0    Cl28700   0.385   5.280   7.292 -0.1013  0.3721  0.1386
  954MOL0     C28701   1.318   4.994   6.682  0.4114 -0.5968 -0.7311
  954MOL0     C28702   1.432   4.965   6.605  0.1037 -0.0894 -0.3913
  954MOL0     O28703   1.587   4.773   6.424  0.5088 -0.0770  0.6511
  954MOL0     C28704   1.806   4.838   6.269 -0.3230 -0.4735 -0.4123
  954MOL0     C28705   1.924   4.839   6.200  0.0538  0.1271 -0.3933
  954MOL0     N28706   2.706   4.444   6.090  0.1988 -1.0502  0.1918
  954MOL0     N28707   2.835   4.435   6.090 -0.2391  0.8288  0.3144
  954MOL0     C28708   4.075   4.567   6.085 -0.7196 -0.0197  0.3891
  954MOL0     C28709   4.212   4.557   6.051 -0.1135  0.7270 -0.0837
  954MOL0     C28710   4.655   4.590   5.999  0.2969  0.7031 -0.0994
  954MOL0     C28711   4.679   4.720   5.955  0.2229  0.4088  0.2582
  954MOL0     C28712   4.811   4.765   5.938  0.4853 -0.5070  0.2006
  954MOL0     C28713   4.920   4.676   5.949 -0.1889 -0.1965  0.8372
  954MOL0     O28714   5.053   4.715   5.948 -0.5892 -0.4525 -0.1702
  954MOL0     C28715   5.092   4.849   5.935 -0.4653 -0.1734 -0.9022
  954MOL0     C28716   5.249   4.866   5.934  0.5887  0.3524  0.3630
  954MOL0     C28717   5.303   4.779   5.824 -0.0058  0.2303 -0.1763
  954MOL0     C28718   5.457   4.799   5.798  0.2245 -0.0041  0.6726
  954MOL0     C28719   5.497   4.919   5.717 -0.1644 -0.2343  0.6118
  954MOL0     C28720   5.535   5.013   5.645 -0.5264 -0.1972  0.7574
  954MOL0     C28721   4.895   4.550   5.988  0.0630 -0.5247  0.3597
  954MOL0     C28722   4.768   4.503   6.019 -0.7418  1.0497  0.0639
  954MOL0     H28723   4.352   4.733   6.310  0.6879  0.2406 -0.0304
  954MOL0     H28724   4.095   4.746   6.369 -0.7618  2.7097 -1.3293
  954MOL0     H28725   3.813   4.671   6.082  1.3451  0.5242  0.3064
  954MOL0     H28726   3.809   4.501   6.115 -1.9093  0.8539 -1.9435
  954MOL0     H28727   3.665   4.530   6.315 -2.5024 -0.8077 -0.7495
  954MOL0     H28728   3.685   4.709   6.295  0.5818  0.1523 -1.2047
  954MOL0     H28729   3.576   4.664   6.057  1.1148  1.8487  0.8906
  954MOL0     H28730   3.506   4.523   6.146 -1.5764  1.5984 -2.3435
  954MOL0     H28731   3.441   4.710   6.321  0.0149  1.9174 -0.0653
  954MOL0     H28732   3.494   4.825   6.199  1.1027 -0.0055 -1.2188
  954MOL0     H28733   3.271   4.796   6.138  0.5571  0.7097  0.2579
  954MOL0     H28734   3.343   4.673   6.038 -0.8222  0.9352  0.0578
  954MOL0     H28735   3.296   4.508   6.235 -0.3838 -1.1372 -2.8893
  954MOL0     H28736   3.225   4.648   6.321  0.7256  2.3450 -0.6652
  954MOL0     H28737   3.069   4.681   6.140  1.8676  0.9577 -1.5153
  954MOL0     H28738   3.132   4.528   6.055  0.1994 -0.9670  0.0905
  954MOL0     H28739   3.029   4.542   6.340  0.2616  0.7577 -0.7852
  954MOL0     H28740   3.072   4.394   6.246  0.0336 -0.1066 -0.1896
  954MOL0     H28741   2.764   4.525   6.393 -0.7880 -0.2568 -0.3452
  954MOL0     H28742   2.455   4.441   6.191 -2.0792  1.9358  0.2893
  954MOL0     H28743   2.489   4.465   6.356  0.2190 -2.5048 -0.3332
  954MOL0     H28744   2.522   4.710   6.158 -3.7204  1.8518 -0.9702
  954MOL0     H28745   2.530   4.725   6.331  2.4840 -0.9933  0.3068
  954MOL0     H28746   2.289   4.633   6.334 -1.5144  1.5347  0.0428
  954MOL0     H28747   2.298   4.614   6.156  0.0076  2.0458 -1.5000
  954MOL0     H28748   2.352   4.875   6.152  0.6688  0.7242  2.5530
  954MOL0     H28749   2.304   4.881   6.320  2.3921  0.1758  0.6769
  954MOL0     H28750   2.144   4.830   6.456 -0.6584 -2.2699 -0.8666
  954MOL0     H28751   1.871   4.802   6.685  0.9218 -3.2933 -1.4551
  954MOL0     H28752   2.044   4.826   6.667 -0.0488  1.4099  1.5623
  954MOL0     H28753   1.932   4.963   6.653  3.0062  0.3554 -0.8016
  954MOL0     H28754   1.627   4.875   6.873 -0.6015 -1.1316  1.1361
  954MOL0     H28755   1.426   4.906   6.986 -4.2972 -0.0409  0.5606
  954MOL0     H28756   1.184   4.859   7.045 -0.2526  0.3357 -1.0446
  954MOL0     H28757   1.251   5.022   7.079 -0.2682 -1.7872  2.4452
  954MOL0     H28758   1.007   5.102   7.006 -0.5399 -0.1561 -0.4135
  954MOL0     H28759   0.967   4.938   7.033  0.8217  0.7323  0.1237
  954MOL0     H28760   1.110   5.091   7.238 -0.3202  0.0317  0.7700
  954MOL0     H28761   1.022   4.939   7.256  1.5323 -0.3392  0.1485
  954MOL0     H28762   0.886   5.115   7.350  2.5422 -0.0492  1.4348
  954MOL0     H28763   0.870   5.188   7.183 -1.5744 -1.4333  0.4168
  954MOL0     H28764   0.777   4.927   7.304  1.7663  1.3601  1.1355
  954MOL0     H28765   0.777   4.937   7.133 -2.3651  0.8589 -1.6702
  954MOL0     H28766   0.612   5.158   7.174 -2.2804  0.1506 -0.3022
  954MOL0     H28767   0.548   4.996   7.174 -0.2700 -3.4284  2.5898
  954MOL0     H28768   0.651   5.151   7.415  1.8061 -1.9449 -0.0666
  954MOL0     H28769   0.588   4.985   7.422  1.0767 -0.7379 -1.9533
  954MOL0     H28770   0.414   5.147   7.502 -0.5809  0.8714 -0.5185
  954MOL0     H28771   0.362   5.050   7.366 -1.2022 -0.3948  0.5104
  954MOL0     H28772   1.229   5.035   6.634  1.4746  2.3993 -0.3878
  954MOL0     H28773   1.426   4.991   6.500 -0.5105  1.9293  0.1062
  954MOL0     H28774   1.714   4.846   6.212  0.8312 -1.1364 -2.4998
  954MOL0     H28775   1.925   4.861   6.094  0.0368  0.8425 -0.2549
  954MOL0     H28776   4.002   4.529   6.014  1.4375  1.4967 -2.8894
  954MOL0     H28777   4.238   4.515   5.955 -0.4349 -0.4506  0.3211
  954MOL0     H28778   4.595   4.781   5.924 -2.5141 -2.5614  1.2554
  954MOL0     H28779   4.834   4.870   5.921  0.0369 -0.4260  0.0797
  954MOL0     H28780   5.058   4.893   5.841  0.6556  2.0520 -0.3436
  954MOL0     H28781   5.044   4.905   6.016  0.5342 -0.0886 -0.3451
  954MOL0     H28782   5.279   4.832   6.033 -4.0673  0.7643  2.1788
  954MOL0     H28783   5.271   4.973   5.925  1.2316  0.1915 -0.0447
  954MOL0     H28784   5.242   4.806   5.739 -1.2632 -3.7456 -0.7502
  954MOL0     H28785   5.287   4.673   5.846 -0.6501  0.4039  0.2204
  954MOL0     H28786   5.485   4.718   5.729 -4.8061 -1.8573  0.4312
  954MOL0     H28787   5.516   4.801   5.890  0.1830  3.7181  0.7643
  954MOL0     H28788   5.573   5.086   5.576  0.5628 -1.8442 -0.4553
  954MOL0     H28789   4.982   4.486   6.004  1.4756  2.0245  4.1179
  954MOL0     H28790   4.762   4.407   6.070  0.0784  1.2386  0.5402
  955MOL0     O28791  10.397   5.423   9.656  0.4932 -0.6598  0.5682
  955MOL0     C28792  10.484   5.484   9.592 -0.6097 -0.4287 -0.7150
  955MOL0     O28793  10.466   5.558   9.491 -0.7940 -0.0256  0.7013
  955MOL0     C28794  10.341   5.579   9.442  0.2699  0.3597 -0.6282
  955MOL0     C28795  10.289   5.709   9.448 -0.4485 -0.6714 -0.0813
  955MOL0     C28796  10.171   5.741   9.393  1.0247 -0.1845  0.1806
  955MOL0     C28797  10.093   5.653   9.317  0.9351  0.3124  0.4534
  955MOL0     O28798   9.982   5.705   9.262 -0.5011 -0.9317 -0.1633
  955MOL0     C28799   9.907   5.618   9.183  0.2657  0.0709 -0.3898
  955MOL0     C28800   9.774   5.685   9.142 -1.2710  0.4699 -0.2006
  955MOL0     C28801   9.683   5.704   9.264 -0.7362 -0.5494 -0.3695
  955MOL0     C28802   9.551   5.774   9.218  0.1236  0.0231  0.1271
  955MOL0     C28803   9.451   5.677   9.153 -0.0026 -0.6026  0.4440
  955MOL0     C28804   9.337   5.750   9.081  0.5175  0.4390  0.6738
  955MOL0     C28805   9.254   5.655   9.008 -0.0796  1.2174 -0.3918
  955MOL0     C28806   9.161   5.717   8.907  0.4012  0.3140 -0.0836
  955MOL0     N28807   9.141   5.622   8.798  0.5820 -0.6757  0.5305
  955MOL0     C28808   9.213   5.629   8.683  0.5663  0.4888 -0.8061
  955MOL0     C28809   9.150   5.559   8.584 -0.3459 -0.0848 -0.1929
  955MOL0     C28810   9.190   5.539   8.435 -0.3120 -1.0160 -0.9478
  955MOL0     C28811   9.222   5.667   8.362  0.2788 -0.2687  0.4219
  955MOL0     C28812   9.291   5.647   8.227  0.9211  0.6342  0.0206
  955MOL0     C28813   9.298   5.784   8.159 -0.2518  0.3218 -0.6025
  955MOL0     O28814   9.345   5.781   8.027 -0.0889 -0.6221 -0.8647
  955MOL0     C28815   9.275   5.733   7.921 -0.4925  0.5862  0.8494
  955MOL0     C28816   9.143   5.684   7.928 -0.8682  0.4358 -0.6594
  955MOL0     C28817   9.079   5.638   7.813  0.8569 -0.1607  0.3991
  955MOL0     C28818   8.930   5.600   7.832  0.5342  0.7386 -0.4340
  955MOL0     C28819   9.147   5.647   7.685  0.4736 -0.0772  0.3596
  955MOL0     C28820   9.080   5.613   7.547 -0.4446  0.2377 -0.5870
  955MOL0     O28821   8.945   5.630   7.540  0.7941 -0.3519  0.4397
  955MOL0     C28822   8.878   5.572   7.434  0.4254  0.7509 -0.2884
  955MOL0     C28823   8.922   5.463   7.353 -0.6303 -0.2317 -0.4221
  955MOL0     C28824   8.844   5.432   7.239 -0.7163 -0.3188  0.9982
  955MOL0     C28825   8.726   5.496   7.207 -0.5182  0.6490 -0.5677
  955MOL0     O28826   8.648   5.443   7.108 -0.1874 -0.0729  0.1636
  955MOL0     C28827   8.665   5.528   6.992  0.3259  0.4334 -0.3195
  955MOL0     C28828   8.595   5.465   6.871  0.5885  0.1062 -0.2622
  955MOL0     C28829   8.455   5.411   6.895  0.4580  0.3787  0.7729
  955MOL0     C28830   8.420   5.311   6.775 -0.1378 -0.3542  0.6232
  955MOL0     C28831   8.287   5.240   6.794  0.0222 -0.0950  0.1554
  955MOL0     C28832   8.177   5.332   6.739 -0.2922 -0.2877  0.0916
  955MOL0     C28833   8.040   5.283   6.782 -0.3959 -0.6690  0.0117
  955MOL0     C28834   7.929   5.377   6.747 -0.0182  0.9730  0.1810
  955MOL0    Cl28835   7.904   5.388   6.572  0.0036 -0.0796 -0.4185
  955MOL0     C28836   8.678   5.592   7.293 -0.8445 -0.3713  0.1495
  955MOL0     C28837   8.760   5.629   7.402 -0.6313  0.8991 -0.5043
  955MOL0     O28838   9.161   5.580   7.455 -0.0132 -0.3531  0.2673
  955MOL0     C28839   9.283   5.690   7.681  0.9641 -0.2607  0.0808
  955MOL0     C28840   9.345   5.736   7.797 -0.0968 -0.2163 -0.1626
  955MOL0     N28841   9.036   5.512   8.646 -0.5493 -0.1711  0.0323
  955MOL0     N28842   9.023   5.558   8.767 -0.7217 -0.1557  0.5145
  955MOL0     C28843  10.145   5.519   9.304 -0.2628  0.2181 -0.3642
  955MOL0     C28844  10.267   5.489   9.369  0.0512 -0.1832  0.2335
  955MOL0     C28845  10.628   5.462   9.636  0.7817 -0.7294  0.1392
  955MOL0     C28846  10.660   5.385   9.749 -0.2296 -0.2189  0.4224
  955MOL0     C28847  10.801   5.372   9.775  0.0127  0.7607  0.1834
  955MOL0     C28848  10.900   5.423   9.699 -1.0212  0.7946  0.3115
  955MOL0     O28849  11.033   5.412   9.736  0.4147  0.4788  0.5305
  955MOL0     C28850  11.127   5.365   9.636  0.1763 -0.1464 -0.5715
  955MOL0     C28851  11.258   5.432   9.642 -0.4441  0.3601 -0.0847
  955MOL0     C28852  11.342   5.397   9.761 -0.7856 -0.3623 -0.5665
  955MOL0     C28853  11.487   5.453   9.747  0.2467 -0.8209  0.6307
  955MOL0     C28854  11.555   5.362   9.659  0.6137 -0.0766 -0.6220
  955MOL0     C28855  11.622   5.291   9.589 -0.2953  0.2488  0.0242
  955MOL0     C28856  10.864   5.509   9.602  0.6957  0.1094 -0.5107
  955MOL0     C28857  10.728   5.525   9.564 -0.5631  0.0708 -0.0343
  955MOL0     H28858  10.358   5.777   9.497 -0.4961 -1.5259  1.2426
  955MOL0     H28859  10.137   5.843   9.411  0.3945 -0.4804  0.7040
  955MOL0     H28860   9.957   5.596   9.088  0.3689  0.1265 -0.3473
  955MOL0     H28861   9.892   5.520   9.230  1.5050 -0.6721 -1.4431
  955MOL0     H28862   9.801   5.773   9.082  1.2093 -1.7958 -2.6711
  955MOL0     H28863   9.726   5.625   9.065 -2.6260  0.1699  0.8449
  955MOL0     H28864   9.659   5.609   9.313 -3.0603 -0.4341 -1.1796
  955MOL0     H28865   9.728   5.770   9.339  0.0976 -0.1521 -1.1949
  955MOL0     H28866   9.511   5.819   9.310 -1.0106  0.6298 -0.6456
  955MOL0     H28867   9.574   5.854   9.148  0.3012  0.2121  0.3981
  955MOL0     H28868   9.502   5.611   9.082  0.1911  1.4829 -1.4873
  955MOL0     H28869   9.404   5.607   9.223  0.6983  0.2948  1.8425
  955MOL0     H28870   9.276   5.808   9.151 -0.6243  0.2027 -0.0941
  955MOL0     H28871   9.383   5.816   9.007 -0.6227  1.0432  0.4804
  955MOL0     H28872   9.310   5.576   8.958 -1.5872  0.6601 -1.2733
  955MOL0     H28873   9.189   5.609   9.082 -0.4870  2.0168 -0.2401
  955MOL0     H28874   9.214   5.804   8.869  1.8301  0.5654  2.3051
  955MOL0     H28875   9.064   5.742   8.952  0.8858 -1.5562  2.1908
  955MOL0     H28876   9.313   5.668   8.669 -0.4795  3.3895 -0.9162
  955MOL0     H28877   9.272   5.467   8.430 -1.8227 -2.7436 -1.8892
  955MOL0     H28878   9.117   5.482   8.377  3.1057 -3.8005 -2.9334
  955MOL0     H28879   9.295   5.723   8.422  0.9462 -0.1090 -0.5113
  955MOL0     H28880   9.125   5.716   8.352  0.5555  0.6071  1.7959
  955MOL0     H28881   9.237   5.575   8.165  2.7457  0.6405 -1.6950
  955MOL0     H28882   9.388   5.599   8.241  0.1124 -0.5755  1.7632
  955MOL0     H28883   9.365   5.839   8.225  2.2563 -3.2224  0.0984
  955MOL0     H28884   9.204   5.840   8.157 -0.5841 -0.2330 -1.8683
  955MOL0     H28885   9.098   5.680   8.027  1.9946 -0.4456  0.7163
  955MOL0     H28886   8.865   5.660   7.768 -0.8343  0.2630  0.4570
  955MOL0     H28887   8.919   5.493   7.811 -0.9203  0.1312  2.7235
  955MOL0     H28888   8.896   5.613   7.935  2.0119  2.4338 -0.1044
  955MOL0     H28889   9.007   5.406   7.390  1.1111  2.3819 -0.0650
  955MOL0     H28890   8.867   5.349   7.173 -0.0532  2.2927 -2.3088
  955MOL0     H28891   8.620   5.627   6.999  0.4807  0.5648 -1.1090
  955MOL0     H28892   8.772   5.530   6.970  1.0176  0.0448  2.6514
  955MOL0     H28893   8.596   5.527   6.781 -3.2713  1.8838  0.7318
  955MOL0     H28894   8.652   5.374   6.849 -0.7587 -1.1813  1.2568
  955MOL0     H28895   8.383   5.494   6.897  1.6751  1.5213 -0.5146
  955MOL0     H28896   8.449   5.349   6.984 -0.1127  0.5916  0.8864
  955MOL0     H28897   8.423   5.373   6.685  0.6484  2.0450  2.2066
  955MOL0     H28898   8.501   5.237   6.774 -2.2673 -2.8249  0.4229
  955MOL0     H28899   8.270   5.225   6.901  0.9671 -2.6174  0.0345
  955MOL0     H28900   8.277   5.140   6.750 -0.8723  0.3630 -0.7196
  955MOL0     H28901   8.189   5.435   6.774 -1.2258 -0.9650  2.6680
  955MOL0     H28902   8.187   5.340   6.631 -1.7556  1.3740  0.0489
  955MOL0     H28903   8.032   5.265   6.889 -0.7670 -0.0885  0.0879
  955MOL0     H28904   8.036   5.184   6.735  2.1407  0.3932 -2.7652
  955MOL0     H28905   7.949   5.477   6.788 -0.0343  0.3059  1.8923
  955MOL0     H28906   7.838   5.334   6.790 -1.5125  4.1007  0.4300
  955MOL0     H28907   8.578   5.632   7.286 -0.2246  1.3075  0.4215
  955MOL0     H28908   8.719   5.696   7.477 -0.7663 -0.7816  1.0239
  955MOL0     H28909   9.329   5.700   7.583 -0.0980  0.9846 -0.3064
  955MOL0     H28910   9.446   5.776   7.801  0.3419 -1.3492  1.3567
  955MOL0     H28911  10.097   5.436   9.254  1.7610 -1.7509  0.7837
  955MOL0     H28912  10.309   5.389   9.376  2.9834  0.9084 -0.6056
  955MOL0     H28913  10.581   5.339   9.807  0.1114  0.5811  1.5623
  955MOL0     H28914  10.832   5.310   9.859  0.6709  0.2450 -0.4300
  955MOL0     H28915  11.145   5.257   9.638 -2.1403 -0.5860  0.0108
  955MOL0     H28916  11.086   5.381   9.535  1.1111 -1.0130 -1.1122
  955MOL0     H28917  11.237   5.539   9.636 -2.9099 -0.1366 -2.2092
  955MOL0     H28918  11.320   5.417   9.553  3.3845  0.7374  2.2884
  955MOL0     H28919  11.343   5.290   9.783  1.3131 -0.0127  1.4759
  955MOL0     H28920  11.298   5.446   9.849 -0.8302  1.2615 -1.4443
  955MOL0     H28921  11.535   5.459   9.845 -0.0521  1.2489  0.6963
  955MOL0     H28922  11.490   5.557   9.714  0.6149 -1.5535 -1.8816
  955MOL0     H28923  11.664   5.224   9.516 -0.3338  0.2177  0.0301
  955MOL0     H28924  10.939   5.566   9.547  1.8108  0.7772  1.5944
  955MOL0     H28925  10.710   5.593   9.481  1.6981  0.6062 -0.1679
  956MOL0     O28926   6.272   1.526   8.198  0.0632 -0.7608 -0.2839
  956MOL0     C28927   6.365   1.586   8.246  0.1743 -0.4532 -0.2316
  956MOL0     O28928   6.371   1.640   8.368  0.2768 -0.2871  0.4213
  956MOL0     C28929   6.268   1.617   8.462  0.3321 -0.9006 -1.0731
  956MOL0     C28930   6.228   1.716   8.547  0.4937 -0.9828 -0.0719
  956MOL0     C28931   6.126   1.697   8.643 -0.0551 -0.1565 -1.6058
  956MOL0     C28932   6.053   1.577   8.645 -0.2269 -0.6087 -0.2786
  956MOL0     O28933   5.946   1.547   8.727 -0.4215  0.2160  0.0932
  956MOL0     C28934   5.960   1.582   8.866  0.4808 -0.3315  0.6873
  956MOL0     C28935   5.828   1.575   8.946 -0.5405 -0.6775 -0.8699
  956MOL0     C28936   5.770   1.431   8.942 -0.8648  0.3451 -0.5327
  956MOL0     C28937   5.632   1.420   9.020 -0.7086 -0.1997  0.0232
  956MOL0     C28938   5.592   1.278   9.028  0.5371  0.7174 -0.5911
  956MOL0     C28939   5.483   1.260   9.129 -0.6477 -0.6086 -0.0022
  956MOL0     C28940   5.453   1.117   9.132 -0.4658 -0.1502  0.5923
  956MOL0     C28941   5.344   1.074   9.235  0.5723  0.0999 -0.7640
  956MOL0     N28942   5.316   0.923   9.236 -0.0520  0.1541  0.4082
  956MOL0     C28943   5.209   0.862   9.297  0.4198  0.6437  0.4281
  956MOL0     C28944   5.210   0.731   9.246 -0.1103 -0.5826  0.3964
  956MOL0     C28945   5.132   0.606   9.283  0.4944  0.2912 -0.8264
  956MOL0     C28946   5.195   0.557   9.410  0.2440 -0.7638 -0.0225
  956MOL0     C28947   5.137   0.426   9.461  0.3108 -0.2466 -0.7265
  956MOL0     C28948   5.022   0.445   9.562  0.3851 -0.0805  0.3114
  956MOL0     O28949   4.910   0.465   9.482 -0.5722  0.7003  0.4952
  956MOL0     C28950   4.806   0.393   9.537  0.2075  0.1146 -0.3996
  956MOL0     C28951   4.770   0.267   9.488 -0.9557 -0.3308  0.5201
  956MOL0     C28952   4.655   0.192   9.539 -0.3074 -0.6848  0.5307
  956MOL0     C28953   4.637   0.057   9.475  0.4577  0.1343  0.9552
  956MOL0     C28954   4.588   0.244   9.652 -0.5554 -0.3366 -0.4382
  956MOL0     C28955   4.487   0.181   9.733 -0.0588  0.0792  0.0162
  956MOL0     O28956   4.413   0.257   9.818  0.3154 -0.2839 -0.3051
  956MOL0     C28957   4.302   0.211   9.876  0.1493 -0.5274  0.0035
  956MOL0     C28958   4.180   0.223   9.810 -0.8316  0.1415  0.3823
  956MOL0     C28959   4.073   0.179   9.881  0.4423 -0.2946 -0.2203
  956MOL0     C28960   4.073   0.123  10.013  0.3475 -0.9240  0.9208
  956MOL0     O28961   3.950   0.088  10.062 -0.3983 -0.2226  0.1634
  956MOL0     C28962   3.948  -0.012  10.166 -0.0782 -0.3699 -0.4396
  956MOL0     C28963   3.963  -0.142  10.096 -0.2369 -0.1240 -0.2253
  956MOL0     C28964   3.951  -0.262  10.177 -0.0950  0.4296 -0.6253
  956MOL0     C28965   3.960  -0.387  10.083 -1.1840 -0.5790 -0.3440
  956MOL0     C28966   4.010  -0.512  10.151 -0.1552  0.5716  0.7070
  956MOL0     C28967   3.895  -0.581  10.222  0.1464  0.0376 -0.1900
  956MOL0     C28968   3.946  -0.702  10.291  0.3930 -0.0275 -0.3522
  956MOL0     C28969   3.835  -0.762  10.377 -0.5831  0.1207 -0.6469
  956MOL0    Cl28970   3.685  -0.789  10.274  0.3621 -0.1441 -0.0478
  956MOL0     C28971   4.197   0.109  10.069 -0.0865  0.3032  0.0745
  956MOL0     C28972   4.312   0.147   9.999 -0.0978  0.2127  0.1144
  956MOL0     O28973   4.468   0.062   9.717  0.8826 -0.3675 -0.3380
  956MOL0     C28974   4.637   0.372   9.703 -0.3298  0.4764  0.6944
  956MOL0     C28975   4.739   0.443   9.644  0.5888  0.6535  0.3109
  956MOL0     N28976   5.299   0.717   9.146 -0.2657  0.0888 -0.0941
  956MOL0     N28977   5.358   0.834   9.137  0.6398  0.1694 -0.3292
  956MOL0     C28978   6.105   1.474   8.566 -0.1726 -0.1752 -0.1589
  956MOL0     C28979   6.215   1.492   8.480 -0.3113  0.0158 -0.1203
  956MOL0     C28980   6.494   1.592   8.181 -0.2158  0.3986 -0.1318
  956MOL0     C28981   6.530   1.507   8.075  0.1362 -0.9635 -1.1123
  956MOL0     C28982   6.655   1.508   8.014  0.0424 -1.3223 -0.8806
  956MOL0     C28983   6.757   1.597   8.062 -0.6030  0.0934 -0.4618
  956MOL0     O28984   6.887   1.599   8.007  0.0615  0.1609 -0.6295
  956MOL0     C28985   6.996   1.690   8.051 -0.2927  0.5744  0.0799
  956MOL0     C28986   7.143   1.633   8.037 -0.4365 -0.3536 -0.0637
  956MOL0     C28987   7.172   1.512   8.119  0.4103  0.1277 -0.6346
  956MOL0     C28988   7.317   1.462   8.088  0.1314  0.2154 -0.4266
  956MOL0     C28989   7.434   1.551   8.113  0.5536 -0.2007 -0.1700
  956MOL0     C28990   7.525   1.621   8.135  0.2270 -0.0121  0.4930
  956MOL0     C28991   6.724   1.682   8.163  0.3068 -0.6005 -1.0057
  956MOL0     C28992   6.594   1.682   8.218  0.0053  0.2246 -0.7911
  956MOL0     H28993   6.282   1.811   8.543 -0.2105 -0.6096 -1.1990
  956MOL0     H28994   6.100   1.773   8.715 -0.1737 -0.6925 -1.0733
  956MOL0     H28995   6.033   1.523   8.922  2.3293  1.2834  0.0755
  956MOL0     H28996   5.987   1.688   8.878 -2.0928  0.4486  0.2745
  956MOL0     H28997   5.855   1.601   9.048  1.6668 -0.7298 -1.3846
  956MOL0     H28998   5.744   1.638   8.915 -0.6553 -0.3780  0.0495
  956MOL0     H28999   5.761   1.388   8.842 -0.8447 -2.2183  0.4885
  956MOL0     H29000   5.845   1.368   8.991  0.1174  2.7322  1.1906
  956MOL0     H29001   5.654   1.465   9.117  1.0192 -1.8369  0.4654
  956MOL0     H29002   5.554   1.480   8.973 -3.5272 -2.6381  1.2286
  956MOL0     H29003   5.552   1.260   8.928  0.6182  1.8738 -0.8450
  956MOL0     H29004   5.680   1.216   9.044  1.3793  1.8139 -0.9024
  956MOL0     H29005   5.520   1.299   9.224  2.0536 -0.5159 -1.0288
  956MOL0     H29006   5.396   1.317   9.095  1.0052  1.6702 -0.6342
  956MOL0     H29007   5.424   1.082   9.033 -1.0453  1.6440  0.1006
  956MOL0     H29008   5.548   1.069   9.158 -0.5914 -1.2937 -0.9349
  956MOL0     H29009   5.257   1.137   9.214 -0.8522 -0.9326  1.5804
  956MOL0     H29010   5.361   1.110   9.336  0.2870 -2.7389  0.3963
  956MOL0     H29011   5.144   0.904   9.373  0.2030  0.7319  0.1957
  956MOL0     H29012   5.025   0.624   9.298  0.3970 -1.9237  1.8271
  956MOL0     H29013   5.122   0.528   9.207 -3.3434  1.5108 -1.7932
  956MOL0     H29014   5.168   0.632   9.485 -2.0520 -2.5012  1.0155
  956MOL0     H29015   5.302   0.559   9.388  0.2510 -0.4581  0.0271
  956MOL0     H29016   5.213   0.372   9.518  0.5494  0.0475 -0.7611
  956MOL0     H29017   5.100   0.355   9.386 -0.2140 -1.8674  0.9989
  956MOL0     H29018   5.029   0.538   9.620  2.1624  0.1408 -0.1763
  956MOL0     H29019   5.009   0.357   9.626  0.5297  1.1773  2.1646
  956MOL0     H29020   4.815   0.234   9.395 -2.1547 -0.7261  0.0548
  956MOL0     H29021   4.535   0.037   9.442  0.5974 -0.9184  1.1200
  956MOL0     H29022   4.688   0.048   9.378 -2.5062 -0.6557 -0.6378
  956MOL0     H29023   4.676  -0.025   9.536  1.1937 -0.2907 -0.0551
  956MOL0     H29024   4.178   0.275   9.715  0.0475  2.4049  1.5396
  956MOL0     H29025   3.971   0.201   9.851  0.9756 -0.1224 -2.0376
  956MOL0     H29026   4.021   0.010  10.245 -0.5379  2.3168 -0.6975
  956MOL0     H29027   3.848  -0.010  10.210  0.6039  3.0066  1.2988
  956MOL0     H29028   3.895  -0.152  10.011 -2.4433 -3.3332  1.6683
  956MOL0     H29029   4.066  -0.136  10.061 -0.7794 -0.3982 -1.9634
  956MOL0     H29030   3.865  -0.264  10.245  0.5488  0.4122  0.1988
  956MOL0     H29031   4.038  -0.275  10.241 -0.0643  1.7575 -0.3596
  956MOL0     H29032   3.860  -0.399  10.039 -0.0876 -2.1346 -2.5570
  956MOL0     H29033   4.033  -0.368  10.004  0.0798  0.9416  1.1135
  956MOL0     H29034   4.102  -0.509  10.211 -0.2575 -0.2643  0.9153
  956MOL0     H29035   4.049  -0.580  10.075  3.8501  2.8354  0.4436
  956MOL0     H29036   3.857  -0.509  10.296  0.1829 -0.4739  0.3390
  956MOL0     H29037   3.821  -0.611  10.147 -1.5722 -1.2869  1.9152
  956MOL0     H29038   4.031  -0.675  10.355 -0.7263  1.1586  0.6854
  956MOL0     H29039   3.978  -0.787  10.230  5.0112 -0.9237  2.7542
  956MOL0     H29040   3.801  -0.712  10.468  0.1497 -0.2892 -0.1349
  956MOL0     H29041   3.861  -0.849  10.439 -1.1594  1.5275  1.6833
  956MOL0     H29042   4.202   0.066  10.168 -2.0969 -0.4706 -0.1149
  956MOL0     H29043   4.413   0.143  10.038 -0.2508  2.1859  0.8453
  956MOL0     H29044   4.588   0.415   9.790 -0.5926  0.5137  0.5289
  956MOL0     H29045   4.761   0.544   9.677  2.9587  0.1792  0.3371
  956MOL0     H29046   6.049   1.381   8.567  1.1390 -0.9985  0.8846
  956MOL0     H29047   6.264   1.411   8.427 -2.1427 -1.0350 -0.3068
  956MOL0     H29048   6.456   1.431   8.051 -2.9704  1.5314 -0.2051
  956MOL0     H29049   6.674   1.454   7.923 -0.9323  0.4991 -2.2388
  956MOL0     H29050   6.985   1.775   7.983  0.0682  0.4626 -0.1224
  956MOL0     H29051   6.980   1.723   8.155  0.3419  0.5009  0.2068
  956MOL0     H29052   7.205   1.720   8.060 -0.4529  0.3649 -2.3979
  956MOL0     H29053   7.163   1.605   7.933  1.5444 -0.2547  0.2635
  956MOL0     H29054   7.101   1.441   8.075  0.3179 -0.9554  1.1769
  956MOL0     H29055   7.142   1.530   8.222  3.9218  1.9871  0.2275
  956MOL0     H29056   7.321   1.441   7.981 -1.5682 -1.0970 -0.2784
  956MOL0     H29057   7.335   1.363   8.129 -2.8521 -1.1743 -2.1824
  956MOL0     H29058   7.610   1.686   8.145  0.0501  0.0008  2.1347
  956MOL0     H29059   6.791   1.760   8.198 -1.0303  0.4593 -0.7705
  956MOL0     H29060   6.570   1.768   8.281 -2.9361 -1.6085  0.7870
  957MOL0     O29061   6.195   0.290   2.476  0.7882 -0.4849  0.0515
  957MOL0     C29062   6.245   0.262   2.578 -0.1715  0.5212 -0.6905
  957MOL0     O29063   6.179   0.218   2.690  0.6747 -0.0367  0.2313
  957MOL0     C29064   6.037   0.226   2.691  0.1173  0.7713 -0.0254
  957MOL0     C29065   5.964   0.335   2.651 -0.1871 -0.5674  0.1822
  957MOL0     C29066   5.824   0.324   2.654  0.2711 -0.4501  0.7390
  957MOL0     C29067   5.751   0.211   2.697 -0.0315 -0.6620  0.4952
  957MOL0     O29068   5.614   0.211   2.677  0.0201 -0.4630  0.2754
  957MOL0     C29069   5.524   0.131   2.758 -0.2796  0.2236 -0.6363
  957MOL0     C29070   5.391   0.200   2.770 -0.9721  0.7467  0.1224
  957MOL0     C29071   5.280   0.109   2.811  0.0336  0.4137 -0.6164
  957MOL0     C29072   5.286   0.089   2.966  0.5155 -0.3555 -0.5910
  957MOL0     C29073   5.213  -0.043   3.004  0.0389  0.4561 -1.1540
  957MOL0     C29074   5.208  -0.062   3.158 -0.5645 -0.0084 -0.4787
  957MOL0     C29075   5.105  -0.176   3.196 -0.2064  1.3182 -0.3918
  957MOL0     C29076   5.062  -0.149   3.342  0.0759 -0.3683  1.1864
  957MOL0     N29077   4.979  -0.264   3.396 -0.4654  0.5347 -1.0516
  957MOL0     C29078   4.846  -0.281   3.377  0.1205  0.5334  0.3760
  957MOL0     C29079   4.815  -0.407   3.430 -0.2448  0.6121  0.1589
  957MOL0     C29080   4.672  -0.450   3.461 -0.8110 -0.2346 -0.7120
  957MOL0     C29081   4.665  -0.583   3.540 -0.7583  0.4159 -0.4395
  957MOL0     C29082   4.668  -0.713   3.466 -0.3635  0.5604  0.1310
  957MOL0     C29083   4.789  -0.726   3.362  0.7803 -0.3463 -0.9412
  957MOL0     O29084   4.800  -0.861   3.325  0.0025  0.0794 -0.3617
  957MOL0     C29085   4.718  -0.889   3.218  0.4394  0.3246 -0.7317
  957MOL0     C29086   4.739  -0.836   3.088 -0.8033  0.0816  0.2546
  957MOL0     C29087   4.644  -0.856   2.990 -0.2896 -0.1724  0.3314
  957MOL0     C29088   4.683  -0.806   2.853 -0.5859 -0.8150 -1.2556
  957MOL0     C29089   4.526  -0.915   3.019  0.3368  0.3900  0.2057
  957MOL0     C29090   4.413  -0.930   2.918 -0.2470  0.4034  0.1002
  957MOL0     O29091   4.291  -0.916   2.973  0.1543 -0.1461 -0.6939
  957MOL0     C29092   4.187  -0.903   2.889 -0.2544  0.7368  0.9021
  957MOL0     C29093   4.178  -0.807   2.782  0.0894  0.0886  0.4246
  957MOL0     C29094   4.067  -0.779   2.708  0.2660  0.1824 -1.1434
  957MOL0     C29095   3.954  -0.854   2.749 -0.2834  0.1527 -0.0278
  957MOL0     O29096   3.832  -0.828   2.692 -0.9790  0.2240  0.4115
  957MOL0     C29097   3.777  -0.703   2.729  0.8979 -0.6348 -0.3104
  957MOL0     C29098   3.642  -0.666   2.653 -0.3127  0.1795 -0.6285
  957MOL0     C29099   3.584  -0.532   2.696 -0.3716  0.1094  0.7371
  957MOL0     C29100   3.448  -0.491   2.620  0.7797  0.1859  0.2430
  957MOL0     C29101   3.381  -0.358   2.667  0.3543  0.5533  0.4526
  957MOL0     C29102   3.235  -0.346   2.621  0.0648  0.7287  0.3733
  957MOL0     C29103   3.184  -0.199   2.638 -0.5052 -0.5059 -0.6405
  957MOL0     C29104   3.041  -0.179   2.579  1.4647  0.2030  0.0418
  957MOL0    Cl29105   2.912  -0.291   2.655  0.0871  0.2427 -0.2445
  957MOL0     C29106   3.954  -0.954   2.847  0.0593  0.1116 -0.1978
  957MOL0     C29107   4.066  -0.970   2.919  0.0200  0.6469  0.3124
  957MOL0     O29108   4.433  -0.957   2.800 -0.3744  0.4797  0.3987
  957MOL0     C29109   4.495  -0.953   3.149  0.2518  0.4699 -0.0318
  957MOL0     C29110   4.590  -0.942   3.242 -0.5213 -0.1840  1.4404
  957MOL0     N29111   4.929  -0.463   3.482  0.1138  0.0028  0.0087
  957MOL0     N29112   5.030  -0.373   3.464  0.2810  0.6918  0.8559
  957MOL0     C29113   5.824   0.106   2.733 -0.2197  0.1514  0.0735
  957MOL0     C29114   5.962   0.109   2.741 -0.4003 -0.2165  0.2236
  957MOL0     C29115   6.397   0.267   2.584  0.0949 -0.0539  0.0150
  957MOL0     C29116   6.473   0.299   2.468  0.1368 -0.0984  0.4468
  957MOL0     C29117   6.611   0.315   2.478  0.9250  0.3740  0.6306
  957MOL0     C29118   6.683   0.294   2.601  0.5539  1.5115 -0.1061
  957MOL0     O29119   6.822   0.302   2.591  0.0647 -0.1043 -0.3743
  957MOL0     C29120   6.909   0.290   2.708  0.2945 -0.3315 -0.1598
  957MOL0     C29121   7.056   0.300   2.674 -0.3745  0.0779 -0.3260
  957MOL0     C29122   7.107   0.208   2.562 -0.5737  0.0740 -1.0298
  957MOL0     C29123   7.106   0.055   2.606  0.4330 -1.0464 -0.0434
  957MOL0     C29124   7.123  -0.045   2.499 -1.1171 -0.3561  0.7427
  957MOL0     C29125   7.130  -0.120   2.403 -0.1264  0.2085 -0.2973
  957MOL0     C29126   6.605   0.254   2.707 -0.0526  0.2065 -0.1033
  957MOL0     C29127   6.463   0.235   2.703  0.3473 -0.0750 -0.2386
  957MOL0     H29128   6.002   0.429   2.610 -3.1947  0.6049 -0.1546
  957MOL0     H29129   5.764   0.411   2.628  1.2980 -0.5102 -2.2785
  957MOL0     H29130   5.514   0.030   2.717 -1.4620  0.1657 -0.2317
  957MOL0     H29131   5.557   0.127   2.862  0.2219  0.9547 -0.7607
  957MOL0     H29132   5.383   0.297   2.820  0.2815  0.5117  0.8215
  957MOL0     H29133   5.358   0.218   2.667  1.3457 -2.1937 -1.2891
  957MOL0     H29134   5.192   0.168   2.784  0.9336  0.9843 -2.5113
  957MOL0     H29135   5.280   0.015   2.755  0.1421  0.5342 -0.8206
  957MOL0     H29136   5.391   0.077   2.993  0.6220  0.6203 -0.5540
  957MOL0     H29137   5.243   0.169   3.027 -2.3905 -1.5669 -0.8990
  957MOL0     H29138   5.111  -0.026   2.970  0.9100  2.6110 -2.9383
  957MOL0     H29139   5.257  -0.128   2.952 -0.9797 -0.3273 -0.7536
  957MOL0     H29140   5.304  -0.094   3.200 -2.5491 -2.4789  2.5801
  957MOL0     H29141   5.178   0.033   3.203  1.5256  0.8838 -0.8388
  957MOL0     H29142   5.013  -0.187   3.138 -0.8776 -2.4418  1.0813
  957MOL0     H29143   5.149  -0.277   3.192 -0.7673  1.1137 -2.3137
  957MOL0     H29144   5.007  -0.056   3.328 -0.2845 -0.3285  2.7571
  957MOL0     H29145   5.156  -0.142   3.398 -0.1035  0.6702  1.3707
  957MOL0     H29146   4.785  -0.205   3.330  1.2122 -0.0136 -2.0794
  957MOL0     H29147   4.633  -0.369   3.523 -1.3236 -0.6950 -0.4204
  957MOL0     H29148   4.613  -0.439   3.369 -0.0358  2.1048 -0.9799
  957MOL0     H29149   4.568  -0.591   3.591 -0.1078  1.3214  0.9777
  957MOL0     H29150   4.741  -0.579   3.618 -2.9015  0.3540  1.7677
  957MOL0     H29151   4.580  -0.725   3.402 -0.7914 -0.5954  0.9051
  957MOL0     H29152   4.677  -0.800   3.531  0.0470  2.0779  2.1856
  957MOL0     H29153   4.885  -0.686   3.397  0.5923  0.2334 -1.0768
  957MOL0     H29154   4.756  -0.673   3.272  3.2760 -1.3436 -2.5572
  957MOL0     H29155   4.832  -0.786   3.063 -1.1478  0.4064 -0.4278
  957MOL0     H29156   4.604  -0.741   2.814  0.4453  2.1513  1.1953
  957MOL0     H29157   4.775  -0.748   2.861 -1.8982  1.1388  1.3421
  957MOL0     H29158   4.690  -0.885   2.778 -1.0101  0.3302 -2.5265
  957MOL0     H29159   4.262  -0.740   2.766 -0.3518  1.1569  2.3647
  957MOL0     H29160   4.068  -0.698   2.636  1.2914  3.1666  2.0053
  957MOL0     H29161   3.753  -0.706   2.836  2.5929  0.9198  0.1550
  957MOL0     H29162   3.844  -0.617   2.721  0.1929 -0.1998 -1.9659
  957MOL0     H29163   3.668  -0.664   2.547 -3.1160  1.3118 -1.3750
  957MOL0     H29164   3.571  -0.749   2.660 -0.0196 -0.0976 -0.9104
  957MOL0     H29165   3.661  -0.458   2.672  0.5882 -1.3355 -0.8509
  957MOL0     H29166   3.561  -0.535   2.803 -1.1532 -2.1560  0.5636
  957MOL0     H29167   3.462  -0.493   2.511  0.0813 -1.1334  0.1486
  957MOL0     H29168   3.381  -0.576   2.638  2.7693 -1.0600  2.3163
  957MOL0     H29169   3.443  -0.275   2.633 -1.8046  2.5272  1.0961
  957MOL0     H29170   3.383  -0.329   2.772  0.1359  1.4580  0.2200
  957MOL0     H29171   3.247  -0.377   2.517  0.2150  1.2197  0.2409
  957MOL0     H29172   3.161  -0.410   2.670  1.3536 -0.5134  0.7864
  957MOL0     H29173   3.256  -0.127   2.597 -2.2985  1.4232 -0.5448
  957MOL0     H29174   3.186  -0.167   2.743  0.4925 -0.8986 -0.5211
  957MOL0     H29175   3.037  -0.206   2.473  2.7779  3.2202 -0.9187
  957MOL0     H29176   3.011  -0.074   2.589  2.9780  0.7921 -1.2311
  957MOL0     H29177   3.853  -0.990   2.868 -1.1108  3.7167  1.0720
  957MOL0     H29178   4.040  -1.024   3.010 -1.5413  0.4442 -0.2239
  957MOL0     H29179   4.396  -0.988   3.176 -0.8987  3.3942 -0.1545
  957MOL0     H29180   4.569  -0.977   3.343  2.3074 -1.0413  1.8166
  957MOL0     H29181   5.780   0.008   2.748 -1.1799  0.8168  1.8917
  957MOL0     H29182   6.018   0.022   2.773 -0.2242 -0.3620 -0.4684
  957MOL0     H29183   6.408   0.317   2.383 -0.0849 -1.4116  0.3103
  957MOL0     H29184   6.673   0.342   2.394  1.2359 -0.1888  0.6712
  957MOL0     H29185   6.883   0.379   2.765  3.4147 -0.0877  1.0883
  957MOL0     H29186   6.892   0.197   2.764  1.4897  0.3799  1.4622
  957MOL0     H29187   7.106   0.279   2.769 -3.2390 -0.0539  1.2778
  957MOL0     H29188   7.073   0.405   2.650  0.0835  0.3168  0.9961
  957MOL0     H29189   7.211   0.237   2.546 -0.9387  1.2175 -1.3773
  957MOL0     H29190   7.063   0.228   2.464 -2.4958  1.8888  0.1154
  957MOL0     H29191   7.005   0.034   2.641  0.4541 -0.2173  0.5296
  957MOL0     H29192   7.184   0.041   2.682 -1.3338 -0.6853  1.9407
  957MOL0     H29193   7.126  -0.199   2.331  0.9557  0.1622 -0.3202
  957MOL0     H29194   6.652   0.241   2.804  0.3644 -1.8738 -0.5343
  957MOL0     H29195   6.407   0.189   2.783  0.7294 -2.0730 -1.0790
  958MOL0     O29196   5.460   8.256   0.580 -1.0209  0.4285  0.4720
  958MOL0     C29197   5.540   8.163   0.604  0.6881  0.0917 -0.3471
  958MOL0     O29198   5.544   8.037   0.544  0.3970  0.4704 -0.0565
  958MOL0     C29199   5.430   7.971   0.505  0.3037  0.2630 -0.6188
  958MOL0     C29200   5.456   7.862   0.433  0.4044  0.4888  1.0413
  958MOL0     C29201   5.349   7.773   0.386 -0.1565  0.3795 -0.0806
  958MOL0     C29202   5.216   7.808   0.401  0.2861 -0.0816 -0.3737
  958MOL0     O29203   5.097   7.757   0.344 -0.2027  0.4004 -0.1012
  958MOL0     C29204   5.104   7.666   0.230 -0.3972 -0.4500  0.9613
  958MOL0     C29205   5.111   7.534   0.293 -0.1352 -0.1396 -0.4984
  958MOL0     C29206   5.061   7.422   0.200 -0.7874  0.0766 -0.2147
  958MOL0     C29207   5.088   7.283   0.260 -0.4293 -0.8252 -0.5064
  958MOL0     C29208   5.191   7.201   0.187 -0.8146  0.6343 -0.3405
  958MOL0     C29209   5.335   7.252   0.195  0.4163 -0.6310  0.0048
  958MOL0     C29210   5.387   7.271   0.334  0.1117 -0.8287 -0.4555
  958MOL0     C29211   5.542   7.288   0.347 -1.2153  0.4343  0.2169
  958MOL0     N29212   5.586   7.421   0.300 -0.1002 -0.1375 -0.2154
  958MOL0     C29213   5.578   7.483   0.178 -1.2275  0.1465  0.3782
  958MOL0     C29214   5.644   7.597   0.196 -0.6225  0.1781 -0.1030
  958MOL0     C29215   5.649   7.696   0.083  0.6256  1.1056 -0.8508
  958MOL0     C29216   5.514   7.740   0.041  0.4313  0.1522 -0.5467
  958MOL0     C29217   5.511   7.879  -0.027 -0.1623 -0.5246  0.0227
  958MOL0     C29218   5.375   7.897  -0.098 -0.5151 -0.0547 -0.7419
  958MOL0     O29219   5.280   7.937   0.003 -0.8736 -0.1956  0.1657
  958MOL0     C29220   5.153   7.964  -0.030  0.4393  0.0984 -0.1488
  958MOL0     C29221   5.056   7.969   0.074 -0.1941  0.7059  0.7346
  958MOL0     C29222   4.919   7.981   0.047  0.0304 -0.7807 -0.2992
  958MOL0     C29223   4.824   7.937   0.155 -0.4707  0.1948  0.1228
  958MOL0     C29224   4.878   8.004  -0.087  0.6213 -0.7842  0.2748
  958MOL0     C29225   4.739   8.011  -0.121  0.0716  0.1101 -1.0066
  958MOL0     O29226   4.692   7.935  -0.220 -0.0735  0.0086  0.0891
  958MOL0     C29227   4.559   7.935  -0.240  0.6916 -0.1288  0.2201
  958MOL0     C29228   4.508   7.990  -0.352 -0.2829  0.6071 -0.8666
  958MOL0     C29229   4.372   7.986  -0.377  0.2102 -0.2416 -0.3362
  958MOL0     C29230   4.282   7.947  -0.285  0.8333  0.3008  0.2347
  958MOL0     O29231   4.154   7.967  -0.330 -0.1872  0.0696 -0.1906
  958MOL0     C29232   4.039   7.910  -0.273  0.9027 -0.3265  0.0369
  958MOL0     C29233   3.901   7.970  -0.320  0.6183  0.0241  0.1762
  958MOL0     C29234   3.788   7.867  -0.285  0.1127  0.6398  1.1626
  958MOL0     C29235   3.651   7.905  -0.336 -0.6680  0.6263  0.1309
  958MOL0     C29236   3.560   7.785  -0.344  0.6597  0.0720  0.2351
  958MOL0     C29237   3.435   7.813  -0.415 -0.6127  0.2169 -0.2290
  958MOL0     C29238   3.459   7.804  -0.564 -1.1594 -0.4853  0.1404
  958MOL0     C29239   3.322   7.771  -0.625  0.2584  0.7663  0.3677
  958MOL0    Cl29240   3.340   7.709  -0.799 -0.0543  0.1034 -0.3376
  958MOL0     C29241   4.328   7.895  -0.162  0.3761 -0.5041  0.3219
  958MOL0     C29242   4.471   7.872  -0.140  0.9761  0.7581  0.3484
  958MOL0     O29243   4.679   8.083  -0.047 -0.0940 -0.2205  0.6302
  958MOL0     C29244   4.971   7.994  -0.196 -1.0905  0.7843 -0.3004
  958MOL0     C29245   5.108   7.982  -0.165 -0.3869  0.1812 -0.2916
  958MOL0     N29246   5.692   7.611   0.331 -0.7227 -0.3989  0.8828
  958MOL0     N29247   5.660   7.495   0.392  0.3767 -0.9677  0.2898
  958MOL0     C29248   5.197   7.930   0.479 -0.0207  0.1041 -0.3370
  958MOL0     C29249   5.297   8.004   0.533  0.0565  0.0813 -0.4975
  958MOL0     C29250   5.655   8.185   0.692  0.2206  0.1820 -0.4842
  958MOL0     C29251   5.734   8.075   0.751  0.2018  0.2395  0.1545
  958MOL0     C29252   5.833   8.106   0.850  0.3078  0.1375  0.4515
  958MOL0     C29253   5.855   8.233   0.889  0.3930 -0.8239 -0.2021
  958MOL0     O29254   5.962   8.249   0.970 -0.2901 -0.1440 -0.7691
  958MOL0     C29255   6.036   8.372   0.983 -0.1278  0.4370 -0.3517
  958MOL0     C29256   6.124   8.379   0.860  0.0727 -0.4966  0.5293
  958MOL0     C29257   6.192   8.518   0.863  0.5975  0.1607  0.7957
  958MOL0     C29258   6.302   8.548   0.766 -0.4127 -0.1245 -0.8094
  958MOL0     C29259   6.431   8.485   0.811  0.0877  0.8150  0.4295
  958MOL0     C29260   6.533   8.419   0.833 -0.2913  0.2316 -0.2907
  958MOL0     C29261   5.779   8.334   0.832 -0.4975 -0.2736 -0.2504
  958MOL0     C29262   5.678   8.317   0.743 -0.4364  0.3433  0.2341
  958MOL0     H29263   5.553   7.832   0.395 -0.3200  0.6249 -1.0745
  958MOL0     H29264   5.362   7.685   0.325 -0.7974  0.3489 -0.1820
  958MOL0     H29265   5.017   7.675   0.165 -0.7835 -2.3019  1.1671
  958MOL0     H29266   5.189   7.681   0.163 -0.3453 -4.2502 -0.0380
  958MOL0     H29267   5.214   7.521   0.329  1.1163  4.9441 -1.4422
  958MOL0     H29268   5.052   7.532   0.385  1.4024  0.2486  0.5526
  958MOL0     H29269   4.954   7.437   0.185 -1.0173 -2.7121 -2.3494
  958MOL0     H29270   5.114   7.436   0.105  0.8360 -0.9139  0.4982
  958MOL0     H29271   5.122   7.300   0.362 -0.1209  2.4148 -1.0376
  958MOL0     H29272   4.996   7.225   0.261  0.6149 -2.5701 -0.3065
  958MOL0     H29273   5.187   7.096   0.219  1.3078  0.4962 -0.3579
  958MOL0     H29274   5.169   7.202   0.079 -1.1000 -2.6869 -0.4218
  958MOL0     H29275   5.400   7.183   0.140  0.2221 -0.3473 -0.5995
  958MOL0     H29276   5.335   7.350   0.144  1.7517 -0.1282  0.9293
  958MOL0     H29277   5.337   7.358   0.376  2.2420  0.6531 -0.8067
  958MOL0     H29278   5.362   7.181   0.391 -2.0425  0.9251  1.5365
  958MOL0     H29279   5.590   7.206   0.293 -1.1490  1.2700 -1.0406
  958MOL0     H29280   5.573   7.271   0.450  0.3756  2.2307  0.0971
  958MOL0     H29281   5.524   7.448   0.091 -0.8294 -3.4816  1.4212
  958MOL0     H29282   5.722   7.773   0.110  0.5030  0.2875  2.2066
  958MOL0     H29283   5.700   7.653  -0.004  0.7186 -0.3800 -0.1072
  958MOL0     H29284   5.440   7.741   0.122  1.2337  1.2464  0.1968
  958MOL0     H29285   5.473   7.662  -0.025 -2.2722  2.5241 -1.8828
  958MOL0     H29286   5.591   7.887  -0.102  0.8045 -0.2403  1.0440
  958MOL0     H29287   5.517   7.959   0.047 -2.9498  2.3535 -2.5674
  958MOL0     H29288   5.349   7.798  -0.138  0.6303  0.2166 -2.2547
  958MOL0     H29289   5.394   7.967  -0.181  1.3431  0.2209 -0.1188
  958MOL0     H29290   5.100   7.949   0.171 -0.3459  0.4933  0.7591
  958MOL0     H29291   4.869   7.858   0.217  0.2065  0.1981 -0.3505
  958MOL0     H29292   4.808   8.017   0.227 -2.0554 -1.5710  1.8565
  958MOL0     H29293   4.732   7.895   0.115  0.6518 -2.1339 -0.1781
  958MOL0     H29294   4.579   8.029  -0.423  0.2874  0.7030 -0.2530
  958MOL0     H29295   4.343   8.037  -0.469  0.2948  0.4963  0.0338
  958MOL0     H29296   4.029   7.805  -0.299 -1.7916 -0.0877 -0.1666
  958MOL0     H29297   4.049   7.921  -0.164  1.7314 -0.7664  0.0103
  958MOL0     H29298   3.884   8.065  -0.267  1.8306  0.6464 -0.5089
  958MOL0     H29299   3.896   7.991  -0.427  0.4174  1.6216  0.4698
  958MOL0     H29300   3.779   7.852  -0.177  0.1017 -0.2786  1.0418
  958MOL0     H29301   3.820   7.770  -0.325 -2.2683 -1.1021  3.0884
  958MOL0     H29302   3.605   7.976  -0.267 -3.9249 -0.0207 -1.1869
  958MOL0     H29303   3.663   7.952  -0.434  1.5253 -1.5671 -0.7573
  958MOL0     H29304   3.535   7.746  -0.245 -0.8893  1.8845  0.6212
  958MOL0     H29305   3.624   7.712  -0.394  1.2585  1.2991 -0.8365
  958MOL0     H29306   3.364   7.739  -0.378 -0.0415  0.2770  1.0558
  958MOL0     H29307   3.409   7.916  -0.387  0.6010 -0.6698  5.1936
  958MOL0     H29308   3.532   7.728  -0.590 -1.5333 -0.5767 -0.6635
  958MOL0     H29309   3.489   7.900  -0.606 -3.3484 -0.1420 -0.7605
  958MOL0     H29310   3.256   7.858  -0.630 -3.0638 -1.6230 -1.6764
  958MOL0     H29311   3.270   7.685  -0.582 -0.1507 -0.7042 -2.7597
  958MOL0     H29312   4.252   7.876  -0.088  0.1101  2.8015  1.0366
  958MOL0     H29313   4.504   7.814  -0.055 -0.9629 -1.4573 -0.3143
  958MOL0     H29314   4.939   7.988  -0.300  1.7639  1.1215 -1.2829
  958MOL0     H29315   5.168   7.975  -0.255  0.6805 -1.0598  0.4706
  958MOL0     H29316   5.094   7.963   0.489 -0.2276 -0.7483  0.4743
  958MOL0     H29317   5.264   8.088   0.594  0.8534 -0.5052  0.7874
  958MOL0     H29318   5.727   7.969   0.727  2.2503  0.5775 -2.3231
  958MOL0     H29319   5.889   8.030   0.904  0.0663  0.1656  0.7454
  958MOL0     H29320   5.970   8.458   0.992  1.9601  2.4025 -2.4979
  958MOL0     H29321   6.101   8.370   1.071 -2.1952  0.2265  1.2346
  958MOL0     H29322   6.053   8.377   0.776  2.6507 -0.4253 -1.7959
  958MOL0     H29323   6.194   8.296   0.872  1.5574  0.4634 -1.0258
  958MOL0     H29324   6.242   8.532   0.960 -1.1536  0.5035  1.6994
  958MOL0     H29325   6.119   8.599   0.851  0.9486  0.4813  0.7892
  958MOL0     H29326   6.322   8.655   0.768 -2.3083  0.3718 -3.1452
  958MOL0     H29327   6.274   8.514   0.666 -1.7118 -0.9863 -0.1921
  958MOL0     H29328   6.632   8.385   0.857  0.1201 -0.9232 -3.2190
  958MOL0     H29329   5.793   8.436   0.866 -1.0011  0.0234 -0.9165
  958MOL0     H29330   5.620   8.401   0.707 -0.6315  0.4600  0.8092
  959MOL0     O29331   9.560   7.477   5.749  0.7291  0.0973  0.0107
  959MOL0     C29332   9.551   7.566   5.659 -0.1763 -0.4544 -0.9623
  959MOL0     O29333   9.445   7.651   5.644 -0.1563  0.9199 -0.4783
  959MOL0     C29334   9.330   7.628   5.719 -0.2104  0.0760 -0.3071
  959MOL0     C29335   9.262   7.517   5.748 -0.3705  0.2870  0.0953
  959MOL0     C29336   9.142   7.527   5.830  0.1080  0.8017  0.1938
  959MOL0     C29337   9.091   7.646   5.882 -0.6403 -0.2601 -0.7738
  959MOL0     O29338   8.990   7.653   5.975 -0.3736  0.0318 -0.2214
  959MOL0     C29339   8.858   7.682   5.935  0.1180  0.0085  0.1190
  959MOL0     C29340   8.787   7.551   5.891 -0.5170  0.0051 -0.5426
  959MOL0     C29341   8.639   7.562   5.900 -0.5901  0.6507 -0.2546
  959MOL0     C29342   8.588   7.505   6.030 -0.1245  0.2758 -0.6860
  959MOL0     C29343   8.435   7.479   6.015  0.5752 -0.2015  0.1445
  959MOL0     C29344   8.368   7.404   6.139  0.7416 -0.4225 -0.0143
  959MOL0     C29345   8.217   7.438   6.155  0.4074  0.1918  0.5006
  959MOL0     C29346   8.166   7.359   6.282 -0.6536  0.5174 -0.2099
  959MOL0     N29347   8.034   7.397   6.324  0.4165 -0.7648  0.1813
  959MOL0     C29348   7.924   7.350   6.263  0.2075  0.3836 -0.7810
  959MOL0     C29349   7.821   7.423   6.325  0.1849 -0.1399  0.6425
  959MOL0     C29350   7.671   7.388   6.319  0.1802 -0.3144  0.4596
  959MOL0     C29351   7.624   7.306   6.442 -0.1327 -0.4127 -1.4298
  959MOL0     C29352   7.483   7.244   6.414  0.7718  0.5125 -0.2064
  959MOL0     C29353   7.402   7.211   6.530  0.0221  0.1477 -0.8459
  959MOL0     O29354   7.359   7.328   6.600  0.6839  0.2728  0.5371
  959MOL0     C29355   7.231   7.339   6.646 -0.1797 -0.4796  0.2651
  959MOL0     C29356   7.158   7.236   6.704  0.1830 -0.1231  0.1526
  959MOL0     C29357   7.032   7.261   6.759  0.5268 -0.0684  0.5724
  959MOL0     C29358   6.971   7.139   6.816  0.1071  0.2620  0.2509
  959MOL0     C29359   6.981   7.393   6.769 -0.4829 -0.6771 -0.6860
  959MOL0     C29360   6.854   7.425   6.845  0.1146  0.6112  0.9724
  959MOL0     O29361   6.755   7.328   6.851  0.1867 -1.0097 -0.2511
  959MOL0     C29362   6.640   7.322   6.929 -0.5561 -0.0922  0.3359
  959MOL0     C29363   6.555   7.431   6.941  0.8454  0.0325  0.5428
  959MOL0     C29364   6.428   7.423   7.000  0.4110  0.3208 -1.1099
  959MOL0     C29365   6.393   7.308   7.070  0.2846 -0.3819  0.0905
  959MOL0     O29366   6.280   7.286   7.144  0.2203 -0.3904 -0.9757
  959MOL0     C29367   6.181   7.382   7.146  0.3100 -0.5958 -0.6998
  959MOL0     C29368   6.056   7.314   7.203  0.2220 -0.2009  0.6350
  959MOL0     C29369   5.950   7.419   7.233 -0.2401 -0.3784 -0.5532
  959MOL0     C29370   5.820   7.350   7.285 -0.0371  0.6271 -0.8995
  959MOL0     C29371   5.812   7.315   7.437 -0.2795 -0.2873  0.0664
  959MOL0     C29372   5.809   7.438   7.537  0.2167  0.6830 -0.0779
  959MOL0     C29373   5.698   7.542   7.508  0.1813  0.1242 -0.2462
  959MOL0     C29374   5.680   7.652   7.618 -0.2131  0.5717  0.0691
  959MOL0    Cl29375   5.827   7.759   7.646 -0.2818  0.8558  0.0728
  959MOL0     C29376   6.484   7.196   7.063 -1.0809 -0.2770  0.6365
  959MOL0     C29377   6.606   7.201   6.989  0.7488  0.1322 -0.9110
  959MOL0     O29378   6.850   7.539   6.888 -0.3945  0.3591 -0.9874
  959MOL0     C29379   7.063   7.502   6.722  0.1100  0.4530 -0.5079
  959MOL0     C29380   7.185   7.470   6.657  0.8630 -1.0391  0.3997
  959MOL0     N29381   7.877   7.513   6.413  0.5023  0.4763 -0.0568
  959MOL0     N29382   8.004   7.498   6.420  0.0397 -0.2349  1.0960
  959MOL0     C29383   9.168   7.762   5.857 -0.2730  0.6483  1.2545
  959MOL0     C29384   9.289   7.751   5.772  0.1598  0.0079 -0.6662
  959MOL0     C29385   9.664   7.593   5.571 -0.3407  0.5197  0.4339
  959MOL0     C29386   9.781   7.516   5.591 -0.4015 -0.5585 -0.1284
  959MOL0     C29387   9.891   7.510   5.502 -0.2176 -0.5761  0.3525
  959MOL0     C29388   9.883   7.596   5.386 -0.2791  0.3924  0.2800
  959MOL0     O29389   9.994   7.619   5.304  0.5451  0.0593 -0.6997
  959MOL0     C29390  10.124   7.625   5.365  0.5461 -0.3041  0.1381
  959MOL0     C29391  10.232   7.684   5.270 -0.9366 -0.5228 -0.9957
  959MOL0     C29392  10.316   7.579   5.188 -0.0055 -0.1131 -0.7442
  959MOL0     C29393  10.403   7.627   5.069 -0.1963  0.3206 -1.0343
  959MOL0     C29394  10.424   7.498   4.994 -0.5241 -0.0717 -0.1873
  959MOL0     C29395  10.450   7.405   4.914 -0.0058 -0.3008 -0.0121
  959MOL0     C29396   9.767   7.676   5.365  0.7642  0.6394  0.0128
  959MOL0     C29397   9.658   7.668   5.455 -0.1386  0.3782 -0.7267
  959MOL0     H29398   9.303   7.427   5.703  0.8798  0.4077  0.9382
  959MOL0     H29399   9.092   7.432   5.846  2.5060 -0.6679 -0.5074
  959MOL0     H29400   8.805   7.719   6.023 -0.9443  1.1399 -0.9615
  959MOL0     H29401   8.860   7.755   5.853  0.3057  1.0386  1.0199
  959MOL0     H29402   8.817   7.543   5.786 -0.9909 -2.2831 -0.5541
  959MOL0     H29403   8.825   7.466   5.948  1.4261  0.7148 -0.6895
  959MOL0     H29404   8.604   7.665   5.885 -1.0201  0.6562  0.6661
  959MOL0     H29405   8.595   7.509   5.815 -0.3993 -0.1327  0.1297
  959MOL0     H29406   8.639   7.414   6.065 -0.9212  0.1936  0.3184
  959MOL0     H29407   8.600   7.576   6.112 -4.4758  2.3270 -1.5194
  959MOL0     H29408   8.366   7.562   5.998 -3.8034 -3.3697  0.8115
  959MOL0     H29409   8.411   7.414   5.929 -1.7592  0.6440  0.0740
  959MOL0     H29410   8.382   7.296   6.139 -2.4355 -0.9200  0.5849
  959MOL0     H29411   8.413   7.432   6.235  0.2099  1.2660 -0.2187
  959MOL0     H29412   8.199   7.544   6.172 -2.3311 -0.4884  2.6514
  959MOL0     H29413   8.165   7.409   6.063  2.7783 -0.7118 -0.6308
  959MOL0     H29414   8.227   7.362   6.373 -3.4046  1.7010  1.7366
  959MOL0     H29415   8.173   7.250   6.269  1.2516  0.4388  1.0381
  959MOL0     H29416   7.918   7.256   6.209 -0.6582  0.1410 -0.2905
  959MOL0     H29417   7.618   7.484   6.326 -0.2348 -0.5850  1.0845
  959MOL0     H29418   7.639   7.337   6.227 -0.6968 -1.3500  1.3081
  959MOL0     H29419   7.621   7.371   6.530 -2.2389 -0.6114 -1.3032
  959MOL0     H29420   7.687   7.220   6.468  0.2966  0.9624  2.9497
  959MOL0     H29421   7.490   7.162   6.342  0.9572  0.3703 -0.0266
  959MOL0     H29422   7.426   7.326   6.369  0.4019  0.4027  0.0534
  959MOL0     H29423   7.463   7.155   6.602  2.1111  3.6541  0.3331
  959MOL0     H29424   7.317   7.151   6.496 -0.9759  1.7459 -1.2813
  959MOL0     H29425   7.196   7.135   6.693 -2.7018 -1.6120  2.3803
  959MOL0     H29426   6.868   7.121   6.782 -1.1690  3.0099  2.1999
  959MOL0     H29427   7.032   7.050   6.799 -0.3008 -0.0421  0.3461
  959MOL0     H29428   6.967   7.144   6.925  2.1286 -3.0234  0.5972
  959MOL0     H29429   6.568   7.526   6.890  1.3222 -1.3672 -2.0942
  959MOL0     H29430   6.355   7.502   6.985 -1.3682 -1.2762 -1.2027
  959MOL0     H29431   6.216   7.470   7.200  2.1357 -0.3579 -2.1507
  959MOL0     H29432   6.156   7.409   7.043  1.9401  2.0893 -0.4780
  959MOL0     H29433   6.015   7.247   7.128 -2.2180  0.3799  1.3525
  959MOL0     H29434   6.083   7.244   7.282 -0.9537 -3.2901 -1.5270
  959MOL0     H29435   5.926   7.461   7.135  0.7630  0.4953 -0.4487
  959MOL0     H29436   5.984   7.497   7.302  0.5386 -2.3717  1.4277
  959MOL0     H29437   5.731   7.406   7.256 -1.6101 -1.7515 -0.9931
  959MOL0     H29438   5.817   7.253   7.233  0.9712 -0.9208  1.7028
  959MOL0     H29439   5.886   7.240   7.466  0.4749  0.2218 -0.5007
  959MOL0     H29440   5.712   7.272   7.452 -0.3483  0.2025  1.0989
  959MOL0     H29441   5.817   7.398   7.638 -0.2307  1.9869  0.4944
  959MOL0     H29442   5.904   7.491   7.529  1.1516 -0.5607  1.9113
  959MOL0     H29443   5.601   7.496   7.485  1.5247 -2.2794 -1.5793
  959MOL0     H29444   5.718   7.594   7.414  1.7355 -0.8008 -0.4580
  959MOL0     H29445   5.641   7.610   7.711 -2.2308  1.3670 -0.3565
  959MOL0     H29446   5.607   7.726   7.584  0.9402  1.2860 -0.9610
  959MOL0     H29447   6.463   7.101   7.112  0.1527 -0.0373  1.6851
  959MOL0     H29448   6.677   7.119   6.996  0.7225  0.0426 -1.6074
  959MOL0     H29449   7.040   7.603   6.753 -0.0677  0.3276 -0.2283
  959MOL0     H29450   7.246   7.555   6.627 -1.1986  1.1316  1.9267
  959MOL0     H29451   9.154   7.859   5.904  3.5882  1.3220  1.3194
  959MOL0     H29452   9.347   7.841   5.756 -0.2651  0.2766 -0.7202
  959MOL0     H29453   9.774   7.455   5.681 -0.7550 -0.1547  0.1248
  959MOL0     H29454   9.977   7.455   5.537  1.4536  0.7809 -1.3811
  959MOL0     H29455  10.124   7.694   5.450  1.5364 -0.4017  0.2289
  959MOL0     H29456  10.158   7.530   5.408 -2.4257 -1.2763  0.5849
  959MOL0     H29457  10.296   7.744   5.334 -1.1913 -1.9780  0.6888
  959MOL0     H29458  10.178   7.752   5.204 -1.8335  0.6788  0.8979
  959MOL0     H29459  10.236   7.517   5.146  0.5830 -0.9197 -0.7034
  959MOL0     H29460  10.374   7.520   5.260 -1.0024 -0.3560 -0.1350
  959MOL0     H29461  10.501   7.667   5.095 -1.9556  5.5115 -1.1567
  959MOL0     H29462  10.371   7.707   5.000  2.2609  0.7798 -1.7445
  959MOL0     H29463  10.472   7.321   4.852  3.9975 -1.0053  2.0186
  959MOL0     H29464   9.746   7.733   5.275 -0.9951 -0.3960 -0.2841
  959MOL0     H29465   9.568   7.724   5.433  0.2203  1.3330  0.1464
  960MOL0     O29466   5.195   0.420   3.112 -0.0438 -0.0306  0.7362
  960MOL0     C29467   5.217   0.536   3.074  0.6374 -0.0162 -0.6875
  960MOL0     O29468   5.136   0.640   3.111 -0.6587 -0.2520  0.2601
  960MOL0     C29469   5.019   0.626   3.183 -0.9290  0.6515 -0.4642
  960MOL0     C29470   4.926   0.539   3.140  0.6531  0.3828 -1.1953
  960MOL0     C29471   4.809   0.512   3.217 -0.3777 -0.0406  0.1606
  960MOL0     C29472   4.794   0.573   3.341  0.1318  0.7787 -0.0055
  960MOL0     O29473   4.683   0.537   3.419 -0.4919 -0.5840 -0.6164
  960MOL0     C29474   4.648   0.629   3.529 -0.1310  0.2007 -1.5410
  960MOL0     C29475   4.519   0.576   3.585  0.4247  0.7553 -0.0118
  960MOL0     C29476   4.447   0.667   3.677  0.6355  0.3107 -0.4091
  960MOL0     C29477   4.301   0.631   3.691 -0.8145  0.5015  0.1429
  960MOL0     C29478   4.229   0.717   3.791  0.0836 -0.7583  0.1725
  960MOL0     C29479   4.238   0.676   3.932  0.3028  0.5045  0.6694
  960MOL0     C29480   4.131   0.747   4.016 -0.2041 -0.3418  0.3501
  960MOL0     C29481   3.997   0.677   4.034  0.6834 -0.0115 -0.0393
  960MOL0     N29482   4.026   0.540   4.094 -0.3137  0.0200 -0.2928
  960MOL0     C29483   4.048   0.429   4.016  0.1214  0.1689  0.2362
  960MOL0     C29484   4.068   0.329   4.108 -0.1898 -0.7782  0.2389
  960MOL0     C29485   4.098   0.188   4.064 -0.1100  0.5145  0.3489
  960MOL0     C29486   4.251   0.180   4.063 -0.1117  0.1753  0.1337
  960MOL0     C29487   4.318   0.043   4.018  0.6501 -0.0244  0.5265
  960MOL0     C29488   4.466   0.041   4.017  0.8417 -0.3166 -0.1061
  960MOL0     O29489   4.521   0.121   3.910  0.1854 -0.0691 -0.3138
  960MOL0     C29490   4.551   0.075   3.787 -0.0373  0.5976 -0.1668
  960MOL0     C29491   4.633   0.158   3.703  1.1859  0.4961 -0.0399
  960MOL0     C29492   4.649   0.134   3.571  0.3694 -0.4075 -0.1090
  960MOL0     C29493   4.737   0.241   3.512 -0.3233 -0.0347  0.3787
  960MOL0     C29494   4.598   0.021   3.512 -0.4278  0.3857 -0.6003
  960MOL0     C29495   4.623  -0.030   3.376  0.6260  0.8185 -0.1537
  960MOL0     O29496   4.712   0.037   3.303  0.7695  0.1392  0.4042
  960MOL0     C29497   4.749   0.013   3.175  0.2336 -0.0559  0.8835
  960MOL0     C29498   4.848   0.103   3.117  0.6382  0.8485  0.0334
  960MOL0     C29499   4.874   0.094   2.982  0.6048 -0.6847  1.1112
  960MOL0     C29500   4.815   0.003   2.895 -0.2577  0.2143 -0.1737
  960MOL0     O29501   4.845   0.008   2.762 -0.0509  0.2162 -0.1544
  960MOL0     C29502   4.951  -0.085   2.727  1.2544  0.1346  0.5097
  960MOL0     C29503   4.984  -0.101   2.578 -0.5314 -0.1796 -0.5846
  960MOL0     C29504   4.995   0.038   2.513 -0.0909 -0.0192  0.8447
  960MOL0     C29505   5.079   0.024   2.387 -0.1003 -0.5448  0.8232
  960MOL0     C29506   5.236   0.035   2.407  0.3142 -0.1394 -0.1672
  960MOL0     C29507   5.303   0.028   2.268  0.0481 -0.2849 -0.0527
  960MOL0     C29508   5.457   0.030   2.299  0.1632  0.2343 -0.5180
  960MOL0     C29509   5.549   0.033   2.175  0.5824  0.2835 -0.8066
  960MOL0    Cl29510   5.497  -0.111   2.071 -0.4207 -0.0951  0.1351
  960MOL0     C29511   4.723  -0.089   2.953  0.1018  0.0046  0.6781
  960MOL0     C29512   4.687  -0.084   3.088  0.4303 -0.4148  0.3273
  960MOL0     O29513   4.563  -0.121   3.327 -0.0571  0.7275 -0.3400
  960MOL0     C29514   4.525  -0.066   3.594 -0.9455 -0.8524 -0.1590
  960MOL0     C29515   4.510  -0.043   3.732  0.4802  0.1426 -0.1207
  960MOL0     N29516   4.058   0.379   4.234  0.0619  0.0435 -0.1212
  960MOL0     N29517   4.030   0.504   4.225  0.2091 -0.0672  0.0670
  960MOL0     C29518   4.901   0.659   3.393  0.1555  0.7104 -0.7056
  960MOL0     C29519   5.007   0.691   3.311  0.1533 -0.0979  0.2100
  960MOL0     C29520   5.331   0.560   2.982 -0.3115 -0.1003 -0.1746
  960MOL0     C29521   5.330   0.674   2.896 -0.0466 -0.6291 -0.8385
  960MOL0     C29522   5.432   0.692   2.804 -0.7705 -0.3027 -0.5487
  960MOL0     C29523   5.545   0.610   2.809  0.0342  0.7809  0.2374
  960MOL0     O29524   5.648   0.609   2.723  0.2709 -0.7730  0.5936
  960MOL0     C29525   5.648   0.707   2.610 -0.5324 -0.4516 -0.7568
  960MOL0     C29526   5.797   0.727   2.575  0.0580  0.0626  0.7468
  960MOL0     C29527   5.825   0.821   2.459 -0.2324 -0.1034  0.5848
  960MOL0     C29528   5.850   0.758   2.328  0.4994  0.0991  0.2578
  960MOL0     C29529   5.989   0.705   2.325 -0.5042  0.2199  0.0826
  960MOL0     C29530   6.101   0.661   2.341 -0.8906 -0.0119 -1.1244
  960MOL0     C29531   5.544   0.499   2.893  0.7822  0.8490 -0.4967
  960MOL0     C29532   5.441   0.476   2.981  0.1318 -0.6325  0.2061
  960MOL0     H29533   4.947   0.487   3.047  2.9440  1.4022 -1.3068
  960MOL0     H29534   4.733   0.440   3.192 -1.8704  0.4978  2.7578
  960MOL0     H29535   4.716   0.627   3.614 -2.5838  1.4166  0.5758
  960MOL0     H29536   4.635   0.728   3.484  0.0830  1.0711  0.2297
  960MOL0     H29537   4.459   0.548   3.499  0.6605  1.0363 -0.2723
  960MOL0     H29538   4.549   0.493   3.650  0.3335  1.7077  1.2879
  960MOL0     H29539   4.481   0.653   3.780 -0.6916 -3.2358 -0.3131
  960MOL0     H29540   4.462   0.769   3.643  0.9990  0.6764  0.7834
  960MOL0     H29541   4.254   0.637   3.593 -0.4559  1.7837  0.0253
  960MOL0     H29542   4.293   0.530   3.733 -0.4133  1.6276  3.2393
  960MOL0     H29543   4.268   0.817   3.771  1.0842 -1.4586 -1.5136
  960MOL0     H29544   4.124   0.711   3.762  0.4658 -1.6506 -1.0760
  960MOL0     H29545   4.223   0.568   3.943 -1.8896  0.7864  0.7842
  960MOL0     H29546   4.339   0.698   3.968 -0.6306  0.5429  3.5601
  960MOL0     H29547   4.173   0.764   4.115  2.3743  0.4225 -0.7810
  960MOL0     H29548   4.115   0.845   3.971 -0.6087 -1.4466 -2.0718
  960MOL0     H29549   3.954   0.671   3.933 -1.2546  0.8021  0.6748
  960MOL0     H29550   3.927   0.744   4.084  0.0210  2.9783 -4.3684
  960MOL0     H29551   4.058   0.420   3.908  0.2720 -3.1025  0.4188
  960MOL0     H29552   4.062   0.117   4.140 -1.6144  2.0430  1.1480
  960MOL0     H29553   4.059   0.162   3.965  0.3697 -1.0922  0.5623
  960MOL0     H29554   4.293   0.218   4.156 -1.5971  0.2549  0.8074
  960MOL0     H29555   4.279   0.252   3.986 -0.4767  2.2536  1.8479
  960MOL0     H29556   4.281   0.004   3.923 -1.5670 -1.2405  1.7956
  960MOL0     H29557   4.281  -0.027   4.093 -2.0760 -1.4221 -1.8838
  960MOL0     H29558   4.503  -0.062   4.028 -4.1151 -2.2896  0.3676
  960MOL0     H29559   4.497   0.094   4.107  0.2661 -0.3481  0.1098
  960MOL0     H29560   4.678   0.246   3.748  2.1188  0.5656 -1.0712
  960MOL0     H29561   4.714   0.338   3.557 -0.3994  1.3663 -2.4620
  960MOL0     H29562   4.839   0.203   3.516 -0.0017  0.0109 -3.3275
  960MOL0     H29563   4.722   0.250   3.404  0.4042 -0.2083  0.2602
  960MOL0     H29564   4.880   0.180   3.187 -0.3422  0.9426  0.3990
  960MOL0     H29565   4.945   0.167   2.947  1.7476 -2.0921  0.3617
  960MOL0     H29566   5.038  -0.058   2.789  0.4498 -0.2207  1.8366
  960MOL0     H29567   4.916  -0.186   2.748  0.3313  0.1249 -0.9560
  960MOL0     H29568   5.081  -0.150   2.575 -1.1321 -1.7486  2.1303
  960MOL0     H29569   4.912  -0.160   2.521  2.6820 -2.8309 -2.2217
  960MOL0     H29570   5.029   0.115   2.584  0.7239 -1.0263  1.5745
  960MOL0     H29571   4.891   0.064   2.491  0.1649  0.9516  0.7094
  960MOL0     H29572   5.062  -0.073   2.339 -3.1112  0.1604  0.2422
  960MOL0     H29573   5.052   0.106   2.320 -1.6377  0.1893  2.2767
  960MOL0     H29574   5.266  -0.046   2.475 -0.1463 -1.8831 -1.9267
  960MOL0     H29575   5.267   0.129   2.453 -0.3841 -0.5314  1.1648
  960MOL0     H29576   5.261  -0.063   2.224  0.3123 -0.1290 -0.6437
  960MOL0     H29577   5.285   0.109   2.196  2.2262  0.9179  0.6669
  960MOL0     H29578   5.476  -0.068   2.343  3.3808 -0.3999 -2.9712
  960MOL0     H29579   5.487   0.106   2.372 -1.5999  0.7761 -0.3057
  960MOL0     H29580   5.655   0.023   2.199 -0.1431  1.5032  3.7481
  960MOL0     H29581   5.540   0.121   2.110  0.1657  2.2654  1.7881
  960MOL0     H29582   4.687  -0.158   2.877 -0.3649  3.3196 -2.4012
  960MOL0     H29583   4.604  -0.150   3.111  0.8147 -1.1345 -0.3320
  960MOL0     H29584   4.494  -0.166   3.566  2.6808 -2.2305  0.1352
  960MOL0     H29585   4.466  -0.121   3.793  1.6403 -1.1893 -0.9037
  960MOL0     H29586   4.890   0.695   3.495  0.7514 -0.8393 -0.0511
  960MOL0     H29587   5.091   0.755   3.337  1.9281 -2.1034 -0.2389
  960MOL0     H29588   5.247   0.743   2.903  0.7393  0.2696 -0.0602
  960MOL0     H29589   5.432   0.780   2.740  1.0849  0.1156 -0.0522
  960MOL0     H29590   5.580   0.662   2.536 -2.5188  2.5359 -0.9251
  960MOL0     H29591   5.613   0.805   2.644  0.6315 -0.5258  0.7030
  960MOL0     H29592   5.838   0.628   2.552 -0.8285  0.2145 -1.8311
  960MOL0     H29593   5.839   0.773   2.664  1.4008  0.6282 -0.1458
  960MOL0     H29594   5.907   0.889   2.485  1.8266 -0.8336 -3.1815
  960MOL0     H29595   5.743   0.890   2.436 -0.2593 -0.4320 -0.3797
  960MOL0     H29596   5.861   0.841   2.259  1.2287  2.1995  2.7233
  960MOL0     H29597   5.770   0.691   2.296 -1.5436  2.5448 -0.0673
  960MOL0     H29598   6.194   0.610   2.357 -0.6179  0.3250 -1.6072
  960MOL0     H29599   5.636   0.441   2.896  0.0388 -0.4028 -1.2150
  960MOL0     H29600   5.448   0.396   3.054  3.6269 -1.0259 -0.3644
  961MOL0     O29601   8.951   1.774   5.945 -0.0323 -0.4155 -0.6690
  961MOL0     C29602   8.998   1.882   5.909  0.0509  0.0388 -0.8303
  961MOL0     O29603   8.927   1.996   5.884 -0.1384  0.7672  0.4713
  961MOL0     C29604   8.794   1.985   5.872  0.7406  1.0227  0.1269
  961MOL0     C29605   8.720   1.970   5.988  0.2415  1.0556  0.3589
  961MOL0     C29606   8.578   1.967   5.987  0.6557  0.5114 -0.0668
  961MOL0     C29607   8.513   1.985   5.865  0.8265 -0.7947  0.1375
  961MOL0     O29608   8.377   2.000   5.860 -0.2653  0.2104  0.9562
  961MOL0     C29609   8.295   1.943   5.973  0.7994  0.0438  0.3510
  961MOL0     C29610   8.175   2.038   5.980 -0.7128 -0.8907  0.1641
  961MOL0     C29611   8.050   1.963   6.026  0.3190  0.2386 -0.0477
  961MOL0     C29612   7.939   2.063   6.055  0.1361  0.2968 -0.5839
  961MOL0     C29613   7.798   1.989   6.037 -0.8642 -0.1966  0.0708
  961MOL0     C29614   7.690   2.091   6.087  0.0881  0.4547  0.2510
  961MOL0     C29615   7.551   2.041   6.058 -1.0922  0.4879 -0.6392
  961MOL0     C29616   7.449   2.119   6.121 -0.5127  0.3841  0.2482
  961MOL0     N29617   7.323   2.040   6.137 -0.8224  0.2499  0.3834
  961MOL0     C29618   7.263   1.976   6.033 -0.7805  0.0168 -0.0811
  961MOL0     C29619   7.148   1.934   6.094 -0.8017  0.5327  0.3659
  961MOL0     C29620   7.027   1.872   6.034 -0.0554 -0.0583 -0.4922
  961MOL0     C29621   6.904   1.975   6.031  0.7222  0.7811  0.3177
  961MOL0     C29622   6.925   2.061   5.913  0.3168  0.2468  0.4421
  961MOL0     C29623   6.795   2.155   5.891  0.2030  0.5108 -0.7417
  961MOL0     O29624   6.790   2.199   5.755  0.2062  0.2483  0.6469
  961MOL0     C29625   6.680   2.281   5.731 -0.7846 -0.1841 -0.9300
  961MOL0     C29626   6.647   2.391   5.814  0.3382 -0.7250 -0.0866
  961MOL0     C29627   6.521   2.455   5.799  0.6161 -0.1872 -0.2170
  961MOL0     C29628   6.490   2.567   5.902 -0.1896 -0.3909  0.4330
  961MOL0     C29629   6.424   2.408   5.712 -0.9687 -0.4007 -0.1004
  961MOL0     C29630   6.291   2.462   5.709  0.9133  0.2288  0.4194
  961MOL0     O29631   6.201   2.358   5.687 -0.1399  0.0638  0.4018
  961MOL0     C29632   6.066   2.375   5.649  0.1493  0.6493 -0.5120
  961MOL0     C29633   6.001   2.255   5.613  0.1607  0.3680 -0.2199
  961MOL0     C29634   5.874   2.248   5.559  0.0051 -0.1493  0.4503
  961MOL0     C29635   5.806   2.365   5.519 -0.2080  0.0130 -0.7154
  961MOL0     O29636   5.685   2.358   5.458  0.2647  0.1093 -0.0064
  961MOL0     C29637   5.617   2.484   5.417  0.7337 -1.2860 -0.0235
  961MOL0     C29638   5.475   2.475   5.369 -0.8003  0.2849 -0.3226
  961MOL0     C29639   5.375   2.457   5.482 -0.1925 -0.3036  0.6354
  961MOL0     C29640   5.225   2.454   5.438  0.0123  0.1229 -0.3743
  961MOL0     C29641   5.133   2.436   5.564 -0.5622  0.6383  0.5667
  961MOL0     C29642   4.991   2.424   5.519  0.2640  0.0615 -0.2459
  961MOL0     C29643   4.895   2.411   5.634  0.0400 -1.1609  1.1645
  961MOL0     C29644   4.756   2.420   5.567  0.8308 -0.2807 -0.1327
  961MOL0    Cl29645   4.633   2.390   5.700 -0.2075  0.1036  0.3020
  961MOL0     C29646   5.875   2.491   5.558  0.2865 -0.3776  0.4915
  961MOL0     C29647   6.002   2.495   5.616  0.9230  0.4059 -0.4155
  961MOL0     O29648   6.267   2.578   5.730 -0.2572  0.5736 -0.5582
  961MOL0     C29649   6.455   2.303   5.629 -1.2580  0.2170  0.8212
  961MOL0     C29650   6.584   2.243   5.640 -0.6373 -0.4425  0.1197
  961MOL0     N29651   7.148   1.969   6.224  0.4686  0.8616  0.1317
  961MOL0     N29652   7.257   2.024   6.257  0.7664  0.2065 -0.0659
  961MOL0     C29653   8.589   1.984   5.746  0.2828  0.0842 -0.4564
  961MOL0     C29654   8.729   1.983   5.750 -0.7348  0.4189 -0.0225
  961MOL0     C29655   9.148   1.896   5.918  0.1737  0.3065 -0.5778
  961MOL0     C29656   9.225   1.798   5.980 -0.1319 -0.8369  0.0916
  961MOL0     C29657   9.366   1.828   5.994 -0.2694  0.2692  0.0338
  961MOL0     C29658   9.426   1.940   5.944  0.2559  0.0601  0.8281
  961MOL0     O29659   9.559   1.945   5.958 -0.3771  0.0105  0.8366
  961MOL0     C29660   9.627   2.008   5.845  0.4617 -0.1932 -0.3324
  961MOL0     C29661   9.630   1.901   5.734  0.3334 -0.9760 -0.8040
  961MOL0     C29662   9.766   1.877   5.686  0.6552 -0.0550  0.3394
  961MOL0     C29663   9.777   1.784   5.571 -0.0927 -0.5074 -0.0943
  961MOL0     C29664   9.734   1.844   5.442  0.8910  0.2706  0.1679
  961MOL0     C29665   9.698   1.893   5.331 -0.0558 -0.6446  0.1095
  961MOL0     C29666   9.344   2.036   5.888  0.3226 -0.4194  0.8839
  961MOL0     C29667   9.209   2.013   5.874  0.0135  1.0536  0.4141
  961MOL0     H29668   8.774   1.967   6.082 -1.5023  0.7028  1.3950
  961MOL0     H29669   8.527   1.970   6.083  0.3306  0.3000 -0.2307
  961MOL0     H29670   8.264   1.841   5.949  2.8316 -0.2184 -1.5114
  961MOL0     H29671   8.338   1.937   6.073  0.9744 -1.9321  0.1914
  961MOL0     H29672   8.208   2.125   6.038 -1.5984  1.4977 -2.6669
  961MOL0     H29673   8.159   2.074   5.878  4.2613 -0.2147 -0.6304
  961MOL0     H29674   8.029   1.900   5.939 -0.9910 -0.6681  0.8977
  961MOL0     H29675   8.070   1.897   6.111  0.0999 -0.1558 -0.2994
  961MOL0     H29676   7.949   2.110   6.153 -2.4656 -0.3264  0.0831
  961MOL0     H29677   7.949   2.142   5.980  0.0008 -0.3392 -1.2901
  961MOL0     H29678   7.781   1.966   5.931  1.6791  0.4990 -0.5529
  961MOL0     H29679   7.798   1.898   6.097  2.1757 -0.0995  0.3769
  961MOL0     H29680   7.701   2.118   6.193 -2.0212  4.5940 -0.3928
  961MOL0     H29681   7.703   2.191   6.046  1.5907  0.3061  0.2900
  961MOL0     H29682   7.547   2.048   5.949  1.2519  2.8887 -0.6748
  961MOL0     H29683   7.544   1.943   6.105 -0.8851  2.4120  3.8416
  961MOL0     H29684   7.433   2.205   6.054  0.0593  0.3139  0.0179
  961MOL0     H29685   7.473   2.165   6.217  1.5555 -1.0106  0.4622
  961MOL0     H29686   7.288   1.948   5.931 -0.3276  2.8566 -0.8334
  961MOL0     H29687   7.055   1.838   5.935 -0.1472  0.2392 -0.6237
  961MOL0     H29688   7.006   1.782   6.092  5.1468 -0.7312  0.8541
  961MOL0     H29689   6.906   2.036   6.122  1.1311  0.5535  0.4598
  961MOL0     H29690   6.812   1.916   6.023  0.9270  0.6716 -2.2022
  961MOL0     H29691   6.945   1.989   5.832  1.6482 -2.7321  3.1768
  961MOL0     H29692   7.006   2.134   5.922  1.4256 -0.7639 -0.8066
  961MOL0     H29693   6.813   2.247   5.947  0.4127  0.2264 -0.3413
  961MOL0     H29694   6.703   2.101   5.913 -0.9589  1.8001 -2.2332
  961MOL0     H29695   6.721   2.423   5.886  1.0746 -0.7832 -0.8040
  961MOL0     H29696   6.421   2.527   5.977 -1.7938 -1.6063 -1.5621
  961MOL0     H29697   6.582   2.588   5.958  1.5855  0.6664 -2.6622
  961MOL0     H29698   6.453   2.654   5.847 -0.7684 -0.3846  0.8178
  961MOL0     H29699   6.049   2.159   5.629 -0.7263 -0.4002 -1.8787
  961MOL0     H29700   5.812   2.161   5.540 -1.2239  0.9845 -0.9192
  961MOL0     H29701   5.621   2.554   5.501  1.2990 -2.1737  0.7189
  961MOL0     H29702   5.672   2.527   5.333  2.9662 -0.8115  1.5969
  961MOL0     H29703   5.445   2.564   5.312 -4.3696  2.4030  4.1948
  961MOL0     H29704   5.470   2.392   5.298 -1.5285 -0.6240  0.7549
  961MOL0     H29705   5.402   2.534   5.555  1.7595 -2.0638  1.9213
  961MOL0     H29706   5.385   2.355   5.522 -2.3845 -0.8694 -0.1179
  961MOL0     H29707   5.208   2.547   5.383 -1.2133 -0.2544 -0.6646
  961MOL0     H29708   5.201   2.375   5.367 -0.8998  0.1487 -0.1013
  961MOL0     H29709   5.144   2.521   5.631  1.1025  0.3727  0.6735
  961MOL0     H29710   5.155   2.340   5.611  0.5457  0.8296  0.4539
  961MOL0     H29711   4.977   2.516   5.461  2.3742  0.8874  0.4595
  961MOL0     H29712   4.996   2.336   5.454 -1.1206 -0.0242 -0.2600
  961MOL0     H29713   4.895   2.492   5.707 -1.1115 -0.3598  0.3102
  961MOL0     H29714   4.903   2.321   5.695 -1.4966 -1.6490  0.6909
  961MOL0     H29715   4.751   2.350   5.484  2.9357 -1.4492  0.6588
  961MOL0     H29716   4.741   2.522   5.532 -0.1893  0.7084  2.8500
  961MOL0     H29717   5.832   2.591   5.557  3.2994  1.0194  0.1555
  961MOL0     H29718   6.045   2.593   5.630  1.8912  0.5224 -3.4072
  961MOL0     H29719   6.377   2.258   5.568 -2.4314  3.6707 -0.4746
  961MOL0     H29720   6.597   2.163   5.568 -0.7596  1.3525 -1.9806
  961MOL0     H29721   8.549   2.003   5.647  0.1099  0.9314 -0.2286
  961MOL0     H29722   8.793   1.991   5.663  0.7650  0.2175  1.0000
  961MOL0     H29723   9.188   1.706   6.022 -1.9653  0.3785  1.3018
  961MOL0     H29724   9.437   1.759   6.037  0.8065  1.1830 -0.2343
  961MOL0     H29725   9.583   2.103   5.814 -2.2179 -0.1156  3.0769
  961MOL0     H29726   9.725   2.036   5.886 -0.0368  0.8224  0.1936
  961MOL0     H29727   9.557   1.914   5.653  0.0246 -1.1328 -0.5530
  961MOL0     H29728   9.605   1.805   5.780  1.8078 -1.5291 -1.0911
  961MOL0     H29729   9.825   1.828   5.763  2.0317  1.7441  0.5031
  961MOL0     H29730   9.810   1.972   5.655 -3.4250  1.0056 -3.2210
  961MOL0     H29731   9.720   1.691   5.586 -2.1734  0.7665  0.3169
  961MOL0     H29732   9.877   1.750   5.543 -0.0482  0.0977 -0.6911
  961MOL0     H29733   9.665   1.932   5.237 -2.5079 -2.3877  0.1838
  961MOL0     H29734   9.390   2.128   5.855 -0.8285 -0.1010  0.1027
  961MOL0     H29735   9.150   2.094   5.833 -3.6849 -1.8562 -0.5351
  962MOL0     O29736   3.429   4.553   7.169 -0.1686  0.7165 -0.1093
  962MOL0     C29737   3.467   4.556   7.054 -0.0717  0.2610  0.0774
  962MOL0     O29738   3.386   4.555   6.948  0.3243  0.3592  0.1073
  962MOL0     C29739   3.252   4.550   6.963  0.4960  0.6293 -0.4335
  962MOL0     C29740   3.179   4.645   7.032 -0.7812 -0.5513 -0.8462
  962MOL0     C29741   3.039   4.623   7.072 -0.3086 -0.9484  0.9374
  962MOL0     C29742   2.972   4.509   7.018 -0.6788 -0.3509  0.2696
  962MOL0     O29743   2.851   4.469   7.062 -0.1262  0.2630  0.3072
  962MOL0     C29744   2.734   4.557   7.043 -1.3784 -0.4439 -0.4860
  962MOL0     C29745   2.605   4.476   7.035  0.3559 -0.2198  0.0154
  962MOL0     C29746   2.490   4.570   7.010  0.5094  0.4444  0.0038
  962MOL0     C29747   2.365   4.483   7.013 -0.9988  0.7254  0.2652
  962MOL0     C29748   2.239   4.556   7.044 -0.3434 -0.0320  0.3085
  962MOL0     C29749   2.182   4.654   6.934 -0.2631  0.1296 -0.9947
  962MOL0     C29750   2.087   4.757   6.991  0.6134 -0.2164  0.0578
  962MOL0     C29751   1.984   4.692   7.097 -0.7984 -0.0329 -0.5053
  962MOL0     N29752   1.898   4.586   7.042  0.5774 -0.5376  0.0764
  962MOL0     C29753   1.796   4.624   6.952  0.1313 -0.0341  0.7037
  962MOL0     C29754   1.724   4.513   6.942  0.4423 -0.4522  0.3077
  962MOL0     C29755   1.601   4.489   6.865  0.9395 -0.3060 -0.4688
  962MOL0     C29756   1.480   4.459   6.962 -0.8880  0.3192  0.1434
  962MOL0     C29757   1.352   4.429   6.875 -0.8814  0.0619  0.3244
  962MOL0     C29758   1.237   4.415   6.978  0.3617 -0.1691 -0.0239
  962MOL0     O29759   1.118   4.378   6.901 -0.4781  0.1505  0.8241
  962MOL0     C29760   1.023   4.474   6.902 -0.1799 -0.3529  0.2656
  962MOL0     C29761   0.901   4.448   6.951  0.2170  0.3488  0.2894
  962MOL0     C29762   0.787   4.529   6.935 -1.6652  0.3296  0.2462
  962MOL0     C29763   0.654   4.490   6.990 -0.0908  0.1094  0.6208
  962MOL0     C29764   0.803   4.649   6.867  0.1306  0.2508 -1.1518
  962MOL0     C29765   0.708   4.754   6.849  0.6365 -0.4131  0.2247
  962MOL0     O29766   0.573   4.729   6.863  0.7963  0.4856 -0.2641
  962MOL0     C29767   0.475   4.825   6.858 -0.6206 -0.0917  0.2889
  962MOL0     C29768   0.341   4.792   6.830  0.3986 -0.5261  0.7426
  962MOL0     C29769   0.237   4.881   6.846  0.4295 -0.9877 -1.2990
  962MOL0     C29770   0.266   5.020   6.884  0.3630  0.7562  0.3373
  962MOL0     O29771   0.169   5.118   6.881  0.3990 -0.2432  0.2539
  962MOL0     C29772   0.139   5.187   7.005 -0.4954  0.6022 -0.4460
  962MOL0     C29773   0.108   5.330   6.978 -0.0318 -0.1594  0.6528
  962MOL0     C29774   0.134   5.417   7.106 -0.1057 -0.0398  0.3268
  962MOL0     C29775   0.055   5.372   7.232  0.0817  0.2968  0.9097
  962MOL0     C29776   0.040   5.494   7.326 -0.1268  0.1805 -0.7131
  962MOL0     C29777  -0.058   5.455   7.438  0.4496  0.6685  0.2895
  962MOL0     C29778  -0.082   5.567   7.537  0.5649 -0.6382 -0.4213
  962MOL0     C29779  -0.213   5.563   7.609  0.0879 -0.7022 -0.5248
  962MOL0    Cl29780  -0.228   5.409   7.698  0.1978 -0.6044 -0.0336
  962MOL0     C29781   0.396   5.051   6.904 -0.0121 -0.3085  0.3984
  962MOL0     C29782   0.502   4.961   6.895  0.0675  1.1902 -0.3669
  962MOL0     O29783   0.748   4.858   6.803 -0.3248 -0.2256 -0.0704
  962MOL0     C29784   0.927   4.677   6.812 -0.3585  0.1696 -0.6076
  962MOL0     C29785   1.040   4.601   6.835  0.1983 -0.1178  0.2471
  962MOL0     N29786   1.779   4.408   7.018  0.1228 -0.3605  0.0881
  962MOL0     N29787   1.880   4.457   7.083 -0.2390  0.1229  1.1539
  962MOL0     C29788   3.040   4.422   6.932  0.5976 -0.1869 -0.4003
  962MOL0     C29789   3.177   4.438   6.909 -1.3271 -0.1720 -0.4874
  962MOL0     C29790   3.614   4.568   7.025  0.4902  0.2206 -0.0134
  962MOL0     C29791   3.659   4.555   6.896  0.1355  0.0630  0.7892
  962MOL0     C29792   3.796   4.538   6.863 -0.7509 -0.5500 -0.3965
  962MOL0     C29793   3.889   4.543   6.969  0.3341  0.5791 -0.1625
  962MOL0     O29794   4.022   4.545   6.957 -0.1278 -0.0314  0.5078
  962MOL0     C29795   4.082   4.614   6.841  0.3559 -1.2888 -0.2326
  962MOL0     C29796   4.225   4.682   6.863  0.2420 -0.9297  0.3683
  962MOL0     C29797   4.284   4.723   6.722 -0.3710 -0.8605  0.4204
  962MOL0     C29798   4.333   4.598   6.653 -0.5042 -0.3870  0.2269
  962MOL0     C29799   4.452   4.541   6.707  0.1531  0.8692  1.1190
  962MOL0     C29800   4.548   4.486   6.749 -0.6220  0.8443 -0.9491
  962MOL0     C29801   3.840   4.545   7.096  0.5591  0.0824  0.1923
  962MOL0     C29802   3.704   4.560   7.127  0.1405  0.1938  0.4407
  962MOL0     H29803   3.223   4.737   7.069 -2.0082  0.5975 -2.1059
  962MOL0     H29804   3.001   4.687   7.151  1.9148  0.2581  1.1400
  962MOL0     H29805   2.724   4.626   7.127  1.5088 -1.2829  0.6566
  962MOL0     H29806   2.743   4.627   6.959 -2.0284  2.8081  1.9656
  962MOL0     H29807   2.623   4.398   6.960  1.6332 -0.8225  0.9179
  962MOL0     H29808   2.586   4.428   7.132 -0.7320  2.6962  1.3402
  962MOL0     H29809   2.473   4.631   7.099 -2.1017 -0.1204 -0.0380
  962MOL0     H29810   2.498   4.633   6.921 -1.3520  2.0961  0.9248
  962MOL0     H29811   2.356   4.422   6.922 -2.7012  1.4449 -0.0888
  962MOL0     H29812   2.377   4.413   7.096 -0.6991  1.5214  0.9006
  962MOL0     H29813   2.155   4.489   7.066  0.3311 -0.2979  2.2855
  962MOL0     H29814   2.249   4.613   7.137 -1.4699 -0.9838  1.0426
  962MOL0     H29815   2.266   4.713   6.898 -0.0383  2.3064  2.6177
  962MOL0     H29816   2.135   4.585   6.863 -2.6825  0.3242  0.2848
  962MOL0     H29817   2.141   4.832   7.050  0.4910  0.4882 -0.7113
  962MOL0     H29818   2.032   4.820   6.920  1.0178  2.4783  1.9870
  962MOL0     H29819   1.913   4.767   7.132  0.5911 -0.2760  3.3027
  962MOL0     H29820   2.029   4.658   7.191  1.1334 -0.0566 -1.3798
  962MOL0     H29821   1.775   4.718   6.901 -2.4748 -1.7363 -1.6114
  962MOL0     H29822   1.577   4.575   6.803  0.4288 -2.6919 -3.8322
  962MOL0     H29823   1.621   4.405   6.798 -0.8984  1.0702 -2.8851
  962MOL0     H29824   1.474   4.542   7.033  1.2041 -1.9458  3.2311
  962MOL0     H29825   1.495   4.366   7.017 -2.3371 -0.6373 -1.0059
  962MOL0     H29826   1.370   4.353   6.799 -0.2559  0.6470 -0.1301
  962MOL0     H29827   1.335   4.519   6.815  0.1286 -2.4022 -4.1028
  962MOL0     H29828   1.228   4.509   7.034 -1.0592  1.1342 -2.2764
  962MOL0     H29829   1.255   4.338   7.053  2.4860 -1.2563 -1.5496
  962MOL0     H29830   0.884   4.361   7.014  1.4636 -0.0539  0.1028
  962MOL0     H29831   0.601   4.456   6.900  2.2630 -1.5581 -0.2466
  962MOL0     H29832   0.664   4.401   7.053  3.8272 -1.6481 -2.0398
  962MOL0     H29833   0.593   4.567   7.037 -3.4804 -0.9513 -1.7111
  962MOL0     H29834   0.318   4.691   6.799  1.2688 -0.2664 -0.8915
  962MOL0     H29835   0.136   4.850   6.821 -0.0134 -1.1575  0.5495
  962MOL0     H29836   0.052   5.134   7.043  0.5416 -0.9492 -0.1520
  962MOL0     H29837   0.229   5.182   7.068  0.3975  3.0735 -1.4032
  962MOL0     H29838   0.168   5.361   6.892 -2.7662  0.9712 -0.9606
  962MOL0     H29839   0.004   5.337   6.946  0.2451  0.3117 -0.1663
  962MOL0     H29840   0.108   5.521   7.085  0.4635 -0.1732 -1.1485
  962MOL0     H29841   0.242   5.428   7.118 -0.1994  1.7924 -0.2628
  962MOL0     H29842  -0.042   5.337   7.197  1.3917 -2.1688 -0.5680
  962MOL0     H29843   0.107   5.291   7.284  1.3301  0.7032  0.3563
  962MOL0     H29844   0.007   5.581   7.269 -0.6533 -1.1010 -2.4427
  962MOL0     H29845   0.132   5.527   7.374 -1.1189  2.0858 -0.0280
  962MOL0     H29846  -0.156   5.431   7.397  0.3617  0.6218  0.5252
  962MOL0     H29847  -0.028   5.366   7.494 -0.1034  0.9806  1.0931
  962MOL0     H29848  -0.066   5.667   7.496 -0.3780  1.3657  3.5394
  962MOL0     H29849   0.001   5.559   7.607 -1.3167 -0.6410  1.9696
  962MOL0     H29850  -0.297   5.572   7.539 -0.7821  0.9887  0.6886
  962MOL0     H29851  -0.240   5.655   7.662 -2.4458  0.4285 -3.4142
  962MOL0     H29852   0.439   5.149   6.922  0.1947 -0.7276  2.4010
  962MOL0     H29853   0.598   5.006   6.919  0.7296 -1.5297  2.7459
  962MOL0     H29854   0.950   4.763   6.750 -1.5807  0.3927 -0.7694
  962MOL0     H29855   1.133   4.626   6.785 -0.5978 -0.5487 -1.5238
  962MOL0     H29856   3.000   4.329   6.893 -3.6066  0.1315  2.4763
  962MOL0     H29857   3.230   4.365   6.849  1.0789  1.3610 -0.3495
  962MOL0     H29858   3.593   4.544   6.811 -1.4798  1.1476  1.8476
  962MOL0     H29859   3.839   4.533   6.764 -1.4270 -0.9353 -0.6808
  962MOL0     H29860   4.090   4.546   6.755  1.1933 -1.5689  0.0588
  962MOL0     H29861   4.002   4.686   6.821  1.0846 -0.9001 -1.9290
  962MOL0     H29862   4.290   4.612   6.915  0.7977  1.2187  2.7568
  962MOL0     H29863   4.222   4.777   6.918  0.1273 -0.6134 -0.1643
  962MOL0     H29864   4.368   4.788   6.750 -1.7112  0.9515  0.4346
  962MOL0     H29865   4.211   4.780   6.664 -1.3720 -1.5596  0.9586
  962MOL0     H29866   4.355   4.622   6.549 -0.8719  0.1891  0.2761
  962MOL0     H29867   4.257   4.519   6.645 -0.9149 -0.0571  0.7669
  962MOL0     H29868   4.628   4.420   6.778 -2.0256  0.0002  1.3130
  962MOL0     H29869   3.908   4.532   7.179  1.2800 -1.4268 -0.5844
  962MOL0     H29870   3.682   4.553   7.233 -1.3973 -0.6346  0.0869
  963MOL0     O29871   6.670   3.027  10.852 -0.4927  0.1104 -0.3598
  963MOL0     C29872   6.722   3.134  10.811 -0.5512 -0.2487 -0.7551
  963MOL0     O29873   6.654   3.244  10.770  0.7563 -0.4356  1.1768
  963MOL0     C29874   6.523   3.263  10.803 -0.3269 -0.2105  0.1439
  963MOL0     C29875   6.434   3.300  10.702 -0.7371 -0.8915  0.2033
  963MOL0     C29876   6.301   3.324  10.729  0.2659  0.7480 -0.1629
  963MOL0     C29877   6.250   3.306  10.858 -0.1295  0.2020 -0.2268
  963MOL0     O29878   6.117   3.314  10.888 -0.5862 -0.4982 -0.6119
  963MOL0     C29879   6.049   3.427  10.833 -0.3267 -0.8726 -0.4318
  963MOL0     C29880   5.906   3.405  10.870  0.5831 -0.5984 -0.3659
  963MOL0     C29881   5.809   3.519  10.831 -0.1013  0.4165 -0.2837
  963MOL0     C29882   5.663   3.486  10.866  0.4344 -0.5062  0.0292
  963MOL0     C29883   5.572   3.602  10.826  0.1485 -0.2494 -0.3448
  963MOL0     C29884   5.432   3.544  10.863 -0.0093 -0.0005 -0.2458
  963MOL0     C29885   5.323   3.639  10.818  0.3400  0.6121  0.3492
  963MOL0     C29886   5.307   3.761  10.925  1.4738  0.1437  0.0696
  963MOL0     N29887   5.189   3.839  10.883  0.6673  0.7522  0.7378
  963MOL0     C29888   5.062   3.786  10.848  0.8126  0.4422 -0.5766
  963MOL0     C29889   4.993   3.897  10.817  0.2292  0.4230 -0.1266
  963MOL0     C29890   4.852   3.900  10.757  0.8162 -0.4335  0.2245
  963MOL0     C29891   4.761   3.966  10.853  0.2591 -0.2237 -0.0450
  963MOL0     C29892   4.632   4.015  10.807  0.0113 -0.0063 -0.4441
  963MOL0     C29893   4.558   4.093  10.921 -0.2297  0.5078  0.6477
  963MOL0     O29894   4.552   4.029  11.052  0.4168 -0.0152 -0.5896
  963MOL0     C29895   4.465   4.084  11.140  0.7399  0.3357 -0.2198
  963MOL0     C29896   4.450   4.019  11.262  0.2961  0.3927 -0.3797
  963MOL0     C29897   4.354   4.053  11.356  0.2588 -0.5113  0.1184
  963MOL0     C29898   4.337   3.964  11.470  0.6349  0.9250  0.1722
  963MOL0     C29899   4.272   4.167  11.333  0.1033 -0.5732  0.2591
  963MOL0     C29900   4.160   4.224  11.416  0.1744  0.0918 -0.6356
  963MOL0     O29901   4.099   4.334  11.355  0.5467 -0.3240 -1.5211
  963MOL0     C29902   4.023   4.417  11.432 -0.6029 -0.2185 -0.7579
  963MOL0     C29903   3.923   4.378  11.529 -0.5486 -0.8797  0.1668
  963MOL0     C29904   3.842   4.473  11.602 -0.1150  0.4527  1.1923
  963MOL0     C29905   3.849   4.605  11.565  0.7352 -0.3067 -0.3732
  963MOL0     O29906   3.765   4.687  11.643 -0.4137 -0.3188  0.4382
  963MOL0     C29907   3.730   4.816  11.591 -0.0569 -0.9837  0.4754
  963MOL0     C29908   3.647   4.904  11.686 -0.0444 -0.0593  0.2286
  963MOL0     C29909   3.598   5.019  11.602 -0.1297 -0.3334 -0.3446
  963MOL0     C29910   3.521   5.124  11.689  0.2173 -0.5234 -0.0556
  963MOL0     C29911   3.497   5.261  11.621  0.4944  0.3299 -0.5898
  963MOL0     C29912   3.390   5.334  11.692  0.0042  0.2864 -0.0497
  963MOL0     C29913   3.383   5.479  11.649 -0.2614  0.2612  0.7448
  963MOL0     C29914   3.252   5.545  11.678 -0.5990  0.4974 -0.6051
  963MOL0    Cl29915   3.124   5.463  11.582  0.1311  0.3256  0.7682
  963MOL0     C29916   3.942   4.645  11.472 -0.7843  0.1883 -0.3569
  963MOL0     C29917   4.026   4.553  11.405  0.6226 -0.0291  0.3741
  963MOL0     O29918   4.131   4.169  11.518 -0.6595 -0.1469 -0.3725
  963MOL0     C29919   4.298   4.236  11.208  0.8642  1.1235  0.0656
  963MOL0     C29920   4.379   4.193  11.109  0.3724  0.0861 -0.2912
  963MOL0     N29921   5.072   4.010  10.840  0.2077  0.0263 -0.3599
  963MOL0     N29922   5.187   3.970  10.877  0.7795 -0.4921  0.4635
  963MOL0     C29923   6.335   3.264  10.951 -0.1862 -0.0174 -0.7525
  963MOL0     C29924   6.467   3.240  10.928 -0.2104 -0.0798  0.1089
  963MOL0     C29925   6.867   3.135  10.771  0.3424  0.3363  0.4023
  963MOL0     C29926   6.949   3.023  10.807  0.5528 -0.2141 -0.4284
  963MOL0     C29927   7.085   3.028  10.788 -0.8496  0.3292 -0.3464
  963MOL0     C29928   7.147   3.139  10.731 -0.2729  0.3925  0.8781
  963MOL0     O29929   7.288   3.151  10.713 -0.0544 -0.0594 -0.0401
  963MOL0     C29930   7.368   3.034  10.722 -0.5628  0.5035 -0.8984
  963MOL0     C29931   7.513   3.070  10.707 -0.7610 -0.2804 -0.3957
  963MOL0     C29932   7.555   3.182  10.806 -0.5712  0.4493 -0.4768
  963MOL0     C29933   7.705   3.198  10.808  0.2086  0.5301 -0.4910
  963MOL0     C29934   7.772   3.245  10.678 -0.2309  0.3891 -0.1569
  963MOL0     C29935   7.839   3.266  10.575  0.4384 -0.2498  0.0903
  963MOL0     C29936   7.063   3.249  10.689  0.3065  1.0179  0.1671
  963MOL0     C29937   6.921   3.247  10.706 -1.0086  0.1494  0.1139
  963MOL0     H29938   6.460   3.306  10.597  0.7670  1.8891  0.6262
  963MOL0     H29939   6.251   3.351  10.636  1.4452  0.8460 -0.7907
  963MOL0     H29940   6.083   3.522  10.877  0.0106 -0.8422 -0.7521
  963MOL0     H29941   6.053   3.437  10.724  0.4829 -1.4167 -0.4650
  963MOL0     H29942   5.857   3.318  10.826 -0.5092 -0.3591  0.3339
  963MOL0     H29943   5.875   3.386  10.973 -1.8435  2.6306 -0.3387
  963MOL0     H29944   5.847   3.601  10.892  0.8051  2.3989 -3.2503
  963MOL0     H29945   5.820   3.542  10.724 -0.7222 -0.3576 -0.5273
  963MOL0     H29946   5.638   3.400  10.802 -0.5602  0.0994 -0.4166
  963MOL0     H29947   5.650   3.459  10.971 -0.3524  1.1589  0.3793
  963MOL0     H29948   5.593   3.694  10.881  0.8739  2.1946 -4.2977
  963MOL0     H29949   5.577   3.625  10.719 -0.5630 -1.0168 -0.5494
  963MOL0     H29950   5.415   3.450  10.810 -4.3752  0.5577 -0.1778
  963MOL0     H29951   5.426   3.526  10.971  0.0243 -1.6405 -0.4880
  963MOL0     H29952   5.331   3.685  10.719 -1.8597 -0.4759 -0.4009
  963MOL0     H29953   5.230   3.581  10.822 -0.1701  1.4649  2.5463
  963MOL0     H29954   5.392   3.829  10.931  1.3261  1.2219 -5.4122
  963MOL0     H29955   5.274   3.713  11.018 -1.4710 -1.8233 -1.8362
  963MOL0     H29956   5.023   3.685  10.834  0.0541  0.5866  0.4027
  963MOL0     H29957   4.849   3.964  10.669 -0.7869 -0.0326  0.5219
  963MOL0     H29958   4.800   3.804  10.744 -2.6311  1.2776  0.0923
  963MOL0     H29959   4.819   4.048  10.898  3.2484 -1.6830 -1.0172
  963MOL0     H29960   4.739   3.899  10.937 -2.3687  1.4710  0.7773
  963MOL0     H29961   4.564   3.937  10.771  1.7895 -1.6852 -0.3730
  963MOL0     H29962   4.650   4.091  10.730  0.3007  1.3059  0.8798
  963MOL0     H29963   4.455   4.090  10.883 -0.5543  1.4486  1.4145
  963MOL0     H29964   4.594   4.196  10.921  1.4957 -0.0427 -0.4560
  963MOL0     H29965   4.509   3.930  11.281  0.4250 -0.0274 -2.5155
  963MOL0     H29966   4.390   3.990  11.562 -0.8275  4.5740  0.1350
  963MOL0     H29967   4.231   3.949  11.491  0.9709 -1.9591  0.2094
  963MOL0     H29968   4.376   3.867  11.437 -0.2507  1.0711 -1.3680
  963MOL0     H29969   3.911   4.273  11.553 -0.1194 -1.5307 -2.1861
  963MOL0     H29970   3.777   4.435  11.680  0.8585 -0.8958  1.3690
  963MOL0     H29971   3.826   4.868  11.580 -0.1638 -0.7372  0.7099
  963MOL0     H29972   3.679   4.800  11.495  1.0027  0.1585 -0.3126
  963MOL0     H29973   3.570   4.857  11.749  0.0808  2.3851  2.3597
  963MOL0     H29974   3.710   4.935  11.770 -0.3081  0.7832  0.1244
  963MOL0     H29975   3.531   4.996  11.519  0.3808  1.4899 -1.3152
  963MOL0     H29976   3.692   5.065  11.570  1.0280 -1.7098  0.9759
  963MOL0     H29977   3.425   5.083  11.722  0.7623 -2.0702 -0.2851
  963MOL0     H29978   3.585   5.144  11.775  0.2613 -1.5510  0.1614
  963MOL0     H29979   3.463   5.231  11.521 -1.8244 -0.4254  0.3521
  963MOL0     H29980   3.588   5.320  11.606 -0.4448  1.5236 -1.8581
  963MOL0     H29981   3.292   5.287  11.682  1.6156 -3.2847 -0.7415
  963MOL0     H29982   3.411   5.326  11.799 -0.7905  3.2228  0.4144
  963MOL0     H29983   3.405   5.493  11.543 -2.9962  1.5172  0.2583
  963MOL0     H29984   3.450   5.532  11.718  0.5532  0.6918 -0.3454
  963MOL0     H29985   3.258   5.652  11.656 -0.9860  0.3946 -1.2053
  963MOL0     H29986   3.226   5.527  11.783  1.1822 -2.9218 -0.6026
  963MOL0     H29987   3.951   4.751  11.451 -0.5342 -0.0021 -1.2710
  963MOL0     H29988   4.085   4.593  11.324 -1.6998 -0.8410 -1.8526
  963MOL0     H29989   4.222   4.305  11.175 -3.0530 -2.5731  0.5692
  963MOL0     H29990   4.386   4.249  11.016 -2.1283 -1.6741 -1.6244
  963MOL0     H29991   6.299   3.252  11.053 -0.3567  2.5113 -0.4591
  963MOL0     H29992   6.517   3.195  11.013 -2.4499 -1.0729  0.9696
  963MOL0     H29993   6.908   2.938  10.861  0.7129  0.9632  1.6731
  963MOL0     H29994   7.134   2.934  10.813 -2.4303  0.1638  2.6027
  963MOL0     H29995   7.345   2.980  10.814 -1.0650  0.8531 -0.8138
  963MOL0     H29996   7.342   2.973  10.635  1.2686 -1.6413 -0.0409
  963MOL0     H29997   7.528   3.110  10.607  0.9374  0.5045  0.1418
  963MOL0     H29998   7.573   2.980  10.721 -0.2758  0.2813  1.4003
  963MOL0     H29999   7.524   3.151  10.907 -0.0586  2.5737  0.3767
  963MOL0     H30000   7.505   3.275  10.776 -0.6969  0.1014 -1.3766
  963MOL0     H30001   7.759   3.112  10.850 -2.3983 -0.5183  0.9575
  963MOL0     H30002   7.725   3.274  10.884  1.9700 -1.4714  1.1815
  963MOL0     H30003   7.911   3.259  10.496  0.0867  1.5880 -0.4373
  963MOL0     H30004   7.109   3.335  10.641  0.6312  0.2016 -1.0287
  963MOL0     H30005   6.859   3.327  10.665  0.6061  1.9582  1.0328
  964MOL0     O30006   7.315   3.876   0.131  0.0480 -0.0550  0.2072
  964MOL0     C30007   7.361   3.782   0.189  0.1508 -0.1812 -0.1485
  964MOL0     O30008   7.285   3.691   0.266 -0.0297  0.1557  0.4487
  964MOL0     C30009   7.163   3.732   0.319  1.1769  0.6804 -0.2220
  964MOL0     C30010   7.115   3.638   0.406 -0.1169 -0.1776 -0.1678
  964MOL0     C30011   6.992   3.645   0.477  0.8255 -0.1151 -1.1227
  964MOL0     C30012   6.913   3.768   0.457 -0.1797  1.1157  0.1689
  964MOL0     O30013   6.790   3.786   0.509 -0.7830 -0.0132  0.6226
  964MOL0     C30014   6.751   3.701   0.616  0.5658 -0.4286 -0.0057
  964MOL0     C30015   6.604   3.722   0.654 -0.1696 -0.5785 -0.0152
  964MOL0     C30016   6.583   3.630   0.776  0.9025 -0.1112 -0.0883
  964MOL0     C30017   6.505   3.695   0.895  0.0196 -1.4056 -0.2143
  964MOL0     C30018   6.517   3.611   1.024 -0.3971 -0.8676  0.6134
  964MOL0     C30019   6.456   3.478   1.012  0.2778  1.2853  0.3824
  964MOL0     C30020   6.421   3.421   1.148 -0.2993  0.1935  0.2288
  964MOL0     C30021   6.361   3.278   1.135 -0.7226  0.7162 -0.2610
  964MOL0     N30022   6.378   3.201   1.266  0.1991  0.1623 -0.1636
  964MOL0     C30023   6.285   3.195   1.373 -1.0109 -0.6995 -0.0917
  964MOL0     C30024   6.357   3.143   1.472 -0.0983  0.2483  0.2785
  964MOL0     C30025   6.303   3.102   1.613 -0.7420  0.4435  0.4871
  964MOL0     C30026   6.385   3.165   1.732  0.5691  0.1898  0.4680
  964MOL0     C30027   6.340   3.095   1.864  0.0313 -0.0764  0.6811
  964MOL0     C30028   6.203   3.148   1.913 -0.0032 -1.3338  0.7942
  964MOL0     O30029   6.127   3.031   1.941 -0.2872 -0.4570 -0.2219
  964MOL0     C30030   6.028   3.003   1.850 -0.0301  0.6619 -0.0287
  964MOL0     C30031   6.061   2.907   1.745  0.5824 -0.4841 -0.5912
  964MOL0     C30032   5.954   2.855   1.663  0.1007  0.5316 -0.1585
  964MOL0     C30033   5.993   2.751   1.551  0.1990 -0.7309 -0.1896
  964MOL0     C30034   5.826   2.909   1.687  0.7151  0.8325  0.2844
  964MOL0     C30035   5.717   2.858   1.599  0.1295 -0.2485 -0.4843
  964MOL0     O30036   5.618   2.954   1.575 -0.0455 -0.3909  0.3717
  964MOL0     C30037   5.529   2.933   1.472 -0.4223  0.5021  1.0733
  964MOL0     C30038   5.397   2.901   1.495  0.1066  0.6214  0.7077
  964MOL0     C30039   5.299   2.915   1.398 -0.6407 -0.2890  0.4518
  964MOL0     C30040   5.344   2.950   1.267  0.0430  0.3045  0.6699
  964MOL0     O30041   5.267   2.968   1.157  0.4403 -0.3473 -0.7538
  964MOL0     C30042   5.132   2.914   1.162 -0.4376  0.0394 -0.3560
  964MOL0     C30043   5.083   2.878   1.021 -0.2477 -0.5215  0.2806
  964MOL0     C30044   4.946   2.809   1.022 -0.1479 -0.1415  0.0841
  964MOL0     C30045   4.905   2.759   0.882  0.3605 -0.7963 -0.1995
  964MOL0     C30046   4.828   2.859   0.801  0.2385 -0.3199  0.3137
  964MOL0     C30047   4.685   2.881   0.862 -0.2279  1.2973 -0.0554
  964MOL0     C30048   4.590   2.769   0.826  0.3219 -0.0908  0.6443
  964MOL0     C30049   4.447   2.798   0.853 -0.4281  0.6934 -0.4403
  964MOL0    Cl30050   4.376   2.912   0.730  0.0422  0.6837 -0.2884
  964MOL0     C30051   5.483   2.973   1.239 -0.0228 -0.0243 -0.0299
  964MOL0     C30052   5.574   2.967   1.347  0.5819  0.4502  0.1587
  964MOL0     O30053   5.716   2.743   1.544  0.1513  0.0954 -0.2946
  964MOL0     C30054   5.805   3.014   1.775 -0.3623 -0.8190  0.0810
  964MOL0     C30055   5.901   3.052   1.863 -0.9007  0.3464 -0.3536
  964MOL0     N30056   6.487   3.108   1.430 -0.0883 -0.5316  0.0825
  964MOL0     N30057   6.486   3.147   1.307  0.3870  0.1692 -0.6761
  964MOL0     C30058   6.962   3.863   0.369 -0.3274 -0.8390  0.2985
  964MOL0     C30059   7.085   3.846   0.299 -0.0676 -0.4597  0.6610
  964MOL0     C30060   7.503   3.745   0.184  0.5089  0.6796 -0.1892
  964MOL0     C30061   7.587   3.807   0.091 -0.4076  0.2971  0.4339
  964MOL0     C30062   7.719   3.765   0.078  0.5319 -0.0801 -0.1276
  964MOL0     C30063   7.782   3.682   0.168  0.1199 -1.0880 -0.4760
  964MOL0     O30064   7.918   3.655   0.187  0.2744  0.1571 -0.0943
  964MOL0     C30065   8.010   3.761   0.186  0.0301  0.2500  0.1265
  964MOL0     C30066   8.064   3.799   0.039  0.7090 -0.0782 -0.1702
  964MOL0     C30067   8.096   3.674  -0.037  0.5994  0.1312  0.3873
  964MOL0     C30068   8.177   3.705  -0.162  0.4973 -0.2400  0.3410
  964MOL0     C30069   8.300   3.797  -0.145 -0.3531  0.2159 -0.3024
  964MOL0     C30070   8.395   3.869  -0.114 -1.0094 -0.4037  0.0124
  964MOL0     C30071   7.698   3.612   0.259  0.5043 -0.2033 -0.4956
  964MOL0     C30072   7.560   3.642   0.264 -0.6996 -0.1640  0.8303
  964MOL0     H30073   7.169   3.545   0.425  1.0980  0.8406  1.6722
  964MOL0     H30074   6.962   3.557   0.532 -2.1243  2.5359  1.9433
  964MOL0     H30075   6.760   3.595   0.590  1.9278 -0.2901 -0.1663
  964MOL0     H30076   6.812   3.732   0.701  1.8461  0.8952 -1.3652
  964MOL0     H30077   6.591   3.823   0.693  3.3458 -0.3884  1.0836
  964MOL0     H30078   6.540   3.702   0.568 -2.2908  1.4854  0.9879
  964MOL0     H30079   6.529   3.541   0.742 -0.9603  1.2725 -0.9159
  964MOL0     H30080   6.679   3.608   0.825 -0.0264 -1.2213  1.3078
  964MOL0     H30081   6.543   3.796   0.913  0.2630 -1.1377 -2.0906
  964MOL0     H30082   6.401   3.717   0.870  0.2082  1.5258  1.1312
  964MOL0     H30083   6.622   3.603   1.054 -0.4520  0.2745  1.1489
  964MOL0     H30084   6.469   3.678   1.095 -0.6251 -1.6216  1.1864
  964MOL0     H30085   6.367   3.484   0.949 -0.4388 -0.4184  1.1868
  964MOL0     H30086   6.520   3.415   0.951 -0.0343  2.3093 -1.0659
  964MOL0     H30087   6.503   3.397   1.217 -0.8782 -0.7767  0.6031
  964MOL0     H30088   6.348   3.475   1.209 -2.1880 -1.7315 -0.1947
  964MOL0     H30089   6.424   3.218   1.068  2.5366  1.9828  1.4192
  964MOL0     H30090   6.260   3.274   1.095 -0.9764 -0.3917  0.4373
  964MOL0     H30091   6.184   3.236   1.376 -1.2692 -1.2909 -0.4768
  964MOL0     H30092   6.197   3.131   1.616 -0.3475  2.0550 -0.0158
  964MOL0     H30093   6.314   2.993   1.611 -3.5122 -0.0819 -4.3948
  964MOL0     H30094   6.369   3.273   1.745  1.8232  0.2553  1.5605
  964MOL0     H30095   6.491   3.143   1.726  0.4818 -0.5666  1.4960
  964MOL0     H30096   6.419   3.115   1.937  2.4679  0.1597 -1.8537
  964MOL0     H30097   6.344   2.987   1.845 -0.3962  0.1190 -0.5937
  964MOL0     H30098   6.148   3.205   1.837 -0.1107 -0.1702  1.7160
  964MOL0     H30099   6.211   3.218   1.997 -0.2983  1.5996 -1.4666
  964MOL0     H30100   6.162   2.870   1.731  0.5298 -1.4686  1.3571
  964MOL0     H30101   5.945   2.788   1.459 -1.2088 -0.9961  0.4118
  964MOL0     H30102   6.098   2.727   1.533  0.8860  0.7519  1.4834
  964MOL0     H30103   5.945   2.660   1.587 -2.0043  1.0981  1.9147
  964MOL0     H30104   5.365   2.878   1.596 -2.1249  1.0596  0.1500
  964MOL0     H30105   5.195   2.886   1.412 -1.0190  0.3402 -0.8820
  964MOL0     H30106   5.132   2.818   1.216 -1.6713 -1.3049 -2.5614
  964MOL0     H30107   5.066   2.985   1.212 -1.5844 -2.0843  1.3339
  964MOL0     H30108   5.075   2.974   0.969  0.1720 -0.4532  0.3352
  964MOL0     H30109   5.157   2.815   0.970 -0.6181 -1.5732  1.0149
  964MOL0     H30110   4.870   2.880   1.055  0.1006 -0.4530  1.3815
  964MOL0     H30111   4.938   2.730   1.097 -1.7718  1.3159  1.5227
  964MOL0     H30112   4.994   2.729   0.826 -0.6142 -3.4913 -0.4483
  964MOL0     H30113   4.844   2.668   0.880  1.6190 -1.6686 -0.0131
  964MOL0     H30114   4.820   2.823   0.698 -0.9014 -1.9754  0.9348
  964MOL0     H30115   4.887   2.951   0.800  1.2658 -0.9746 -0.1919
  964MOL0     H30116   4.684   2.901   0.970 -0.3066  0.3691  0.1260
  964MOL0     H30117   4.642   2.973   0.821  1.4283  2.1463  0.0336
  964MOL0     H30118   4.615   2.672   0.870 -0.6426 -1.3262 -1.3750
  964MOL0     H30119   4.590   2.747   0.719 -0.4565 -2.1836  1.0263
  964MOL0     H30120   4.437   2.838   0.954  3.2204  2.2529 -0.5483
  964MOL0     H30121   4.397   2.701   0.839 -2.3549  1.6813 -0.6797
  964MOL0     H30122   5.503   3.009   1.138 -2.1670 -0.3645 -0.6390
  964MOL0     H30123   5.682   2.975   1.340  0.6728 -0.6898  0.0747
  964MOL0     H30124   5.704   3.053   1.782  0.2437  0.9904 -0.6241
  964MOL0     H30125   5.889   3.124   1.943  1.4422  0.5085 -0.1008
  964MOL0     H30126   6.908   3.953   0.342 -1.0143 -1.6462 -1.1503
  964MOL0     H30127   7.119   3.925   0.232  2.7579 -2.6469 -0.6806
  964MOL0     H30128   7.558   3.890   0.027  1.0505 -0.7967 -1.7970
  964MOL0     H30129   7.786   3.799  -0.000  1.3728  1.5186  1.2088
  964MOL0     H30130   7.968   3.846   0.240 -3.3881 -0.2289 -1.5598
  964MOL0     H30131   8.091   3.720   0.247  0.7669  2.7521  0.9492
  964MOL0     H30132   8.145   3.870   0.060 -0.5492  1.2663  0.3782
  964MOL0     H30133   7.987   3.852  -0.018 -0.4195 -1.1301  0.3386
  964MOL0     H30134   8.002   3.622  -0.059  2.0547 -3.3348  1.6863
  964MOL0     H30135   8.154   3.608   0.028  1.1796 -2.9399 -2.8760
  964MOL0     H30136   8.118   3.754  -0.240 -1.3895 -0.5438  1.5220
  964MOL0     H30137   8.209   3.606  -0.198 -0.8067 -0.6922  0.4004
  964MOL0     H30138   8.471   3.944  -0.105 -2.3572  1.5198 -3.0775
  964MOL0     H30139   7.737   3.529   0.317  2.0024  0.2576 -0.8058
  964MOL0     H30140   7.499   3.578   0.327 -0.1490 -1.8472 -0.3036
  965MOL0     O30141   1.994  10.600   4.806  0.5162  0.5684 -0.2612
  965MOL0     C30142   2.074  10.689   4.832 -0.2764 -0.1770 -0.1226
  965MOL0     O30143   2.051  10.820   4.834  0.6951  0.2496 -0.5861
  965MOL0     C30144   1.921  10.860   4.827  1.2625  1.2067  0.3810
  965MOL0     C30145   1.868  10.908   4.948 -0.5870 -0.7733 -1.1889
  965MOL0     C30146   1.741  10.965   4.954  0.5402 -0.4818 -0.2144
  965MOL0     C30147   1.657  10.976   4.843  0.3376  0.4290  0.5313
  965MOL0     O30148   1.536  11.024   4.861  0.7734 -0.3337 -0.3041
  965MOL0     C30149   1.440  11.030   4.748  0.4401  0.1958  0.2771
  965MOL0     C30150   1.303  11.063   4.813  0.0201  0.6602  0.1262
  965MOL0     C30151   1.187  11.039   4.722 -0.6112  0.4712  0.2787
  965MOL0     C30152   1.050  11.099   4.769 -0.5936  0.0016 -0.0452
  965MOL0     C30153   0.935  11.058   4.671  0.8674  0.5702 -0.0582
  965MOL0     C30154   0.791  11.079   4.718  0.1482  0.3507  0.1314
  965MOL0     C30155   0.761  11.227   4.735  0.3960 -0.4150 -0.1331
  965MOL0     C30156   0.682  11.241   4.866  0.1696  0.2477  0.3658
  965MOL0     N30157   0.545  11.172   4.882 -0.2919  0.3879  0.3530
  965MOL0     C30158   0.426  11.230   4.924 -0.2470 -0.0824 -0.0954
  965MOL0     C30159   0.346  11.122   4.935 -0.5439  0.3493 -0.2352
  965MOL0     C30160   0.198  11.138   4.960 -0.3764  0.2633 -0.6207
  965MOL0     C30161   0.137  11.022   5.042  0.0115 -0.5307  0.3583
  965MOL0     C30162   0.089  10.900   4.965 -0.3129  0.0193 -0.9421
  965MOL0     C30163  -0.034  10.919   4.887  0.2786  0.3106  0.1881
  965MOL0     O30164  -0.138  10.899   4.991  0.1050 -0.0793  0.3181
  965MOL0     C30165  -0.266  10.939   4.963 -0.1506  0.5635  0.1016
  965MOL0     C30166  -0.372  10.909   5.051 -0.6432 -0.5999  0.2455
  965MOL0     C30167  -0.504  10.941   5.021  1.1242 -0.1897 -0.5083
  965MOL0     C30168  -0.607  10.928   5.128 -0.0005  0.6148  0.0912
  965MOL0     C30169  -0.544  10.989   4.899  0.7556 -0.7900  0.0927
  965MOL0     C30170  -0.680  11.014   4.842  0.7133 -0.4950  0.6549
  965MOL0     O30171  -0.689  11.052   4.707 -0.1331 -0.5740  0.1899
  965MOL0     C30172  -0.812  11.077   4.649 -0.9076  0.2731  0.2215
  965MOL0     C30173  -0.884  11.186   4.678  0.8130  0.0792 -0.6092
  965MOL0     C30174  -1.008  11.209   4.610 -0.7081 -0.2917 -0.3697
  965MOL0     C30175  -1.053  11.121   4.508 -0.6639 -0.5134  0.0958
  965MOL0     O30176  -1.162  11.144   4.434  0.2369 -0.5367 -0.0751
  965MOL0     C30177  -1.164  11.278   4.373  0.3766 -0.5887  0.5395
  965MOL0     C30178  -1.276  11.364   4.430  0.5524  0.7014 -0.6503
  965MOL0     C30179  -1.300  11.496   4.350 -0.4488 -0.2895  0.3336
  965MOL0     C30180  -1.452  11.527   4.348  0.1164  0.1147 -0.1712
  965MOL0     C30181  -1.483  11.648   4.262 -0.8365 -0.2552 -0.9596
  965MOL0     C30182  -1.627  11.694   4.257  0.5781 -0.6595  0.0840
  965MOL0     C30183  -1.688  11.751   4.381 -1.3124  0.4651  0.1947
  965MOL0     C30184  -1.827  11.804   4.361 -0.1517  0.3671  1.0882
  965MOL0    Cl30185  -1.946  11.666   4.338 -0.2813 -0.0541 -0.3573
  965MOL0     C30186  -0.986  11.003   4.488 -0.0034 -0.3924 -1.2501
  965MOL0     C30187  -0.860  10.986   4.555  0.1280  0.3137 -0.0042
  965MOL0     O30188  -0.779  10.993   4.911  0.1897  0.5176 -0.5954
  965MOL0     C30189  -0.438  11.011   4.809 -1.2959 -0.5897  0.3946
  965MOL0     C30190  -0.303  10.999   4.841 -0.4755  0.4089  0.6593
  965MOL0     N30191   0.415  11.010   4.890  0.6274 -0.2086 -0.5050
  965MOL0     N30192   0.533  11.038   4.863 -0.6932 -0.8319 -0.9058
  965MOL0     C30193   1.713  10.922   4.727 -0.1721  0.0292  0.8814
  965MOL0     C30194   1.847  10.866   4.712  0.8102  0.1115  0.4335
  965MOL0     C30195   2.215  10.639   4.856  0.6320 -0.5899  0.1084
  965MOL0     C30196   2.238  10.499   4.890  0.1805 -0.2423 -0.2904
  965MOL0     C30197   2.363  10.455   4.906  0.0121 -0.0738  0.1584
  965MOL0     C30198   2.471  10.539   4.893 -0.2605  0.0357  0.4955
  965MOL0     O30199   2.593  10.476   4.913  0.5094  0.2211 -0.7220
  965MOL0     C30200   2.712  10.546   4.918  0.6361  0.1450  0.0587
  965MOL0     C30201   2.823  10.453   4.960 -0.4436 -1.0774 -0.1641
  965MOL0     C30202   2.952  10.538   5.003 -0.5951  0.6751 -0.8349
  965MOL0     C30203   3.058  10.456   5.077  0.3699  0.1888  0.1198
  965MOL0     C30204   3.191  10.526   5.066  0.2885 -0.2091 -0.5502
  965MOL0     C30205   3.300  10.569   5.068 -0.1737  0.4962 -0.0345
  965MOL0     C30206   2.449  10.679   4.891  0.2513 -0.0379  0.3250
  965MOL0     C30207   2.323  10.728   4.864 -0.8125 -0.0442 -0.0268
  965MOL0     H30208   1.937  10.917   5.032 -0.5171 -1.4441 -1.1701
  965MOL0     H30209   1.704  10.997   5.051 -2.8782 -0.1991 -1.4615
  965MOL0     H30210   1.476  11.108   4.680  1.0072  0.0490  0.4080
  965MOL0     H30211   1.436  10.939   4.688  1.0922 -0.9597  1.9358
  965MOL0     H30212   1.291  11.011   4.909  3.6159  1.2487  1.0394
  965MOL0     H30213   1.302  11.170   4.836  0.5268  0.4799  1.0541
  965MOL0     H30214   1.208  11.075   4.621  2.7080 -0.0476  0.6737
  965MOL0     H30215   1.167  10.932   4.720 -1.4046  0.5477  1.9490
  965MOL0     H30216   1.033  11.060   4.870  0.4368 -1.0673 -0.2539
  965MOL0     H30217   1.065  11.206   4.783 -0.5837 -0.1540  1.2252
  965MOL0     H30218   0.953  11.120   4.583 -0.1655  1.2293  0.1775
  965MOL0     H30219   0.945  10.958   4.627 -2.4579 -0.1302  0.4656
  965MOL0     H30220   0.734  11.040   4.633 -1.2881  0.5340  0.9861
  965MOL0     H30221   0.775  11.011   4.802 -1.2131 -2.0375 -1.9048
  965MOL0     H30222   0.851  11.290   4.736 -0.1669  0.4652  1.8416
  965MOL0     H30223   0.712  11.265   4.646  1.8625  1.6355 -0.1462
  965MOL0     H30224   0.688  11.350   4.873  0.4682  0.4301 -1.9926
  965MOL0     H30225   0.740  11.195   4.947  1.0629 -0.0212 -0.4165
  965MOL0     H30226   0.400  11.335   4.930 -4.0983 -0.8897  0.0239
  965MOL0     H30227   0.193  11.232   5.015  1.7563  2.1531 -3.3587
  965MOL0     H30228   0.144  11.140   4.864 -0.9415 -3.1460 -0.5197
  965MOL0     H30229   0.061  11.060   5.111  1.5006 -0.1263  1.8440
  965MOL0     H30230   0.215  10.987   5.111  0.9601  0.6875 -0.0412
  965MOL0     H30231   0.060  10.819   5.033 -1.7600  0.3531 -1.1286
  965MOL0     H30232   0.171  10.859   4.905  1.9659  0.7379  1.4524
  965MOL0     H30233  -0.042  10.850   4.802 -1.7734 -1.5896  1.8192
  965MOL0     H30234  -0.030  11.024   4.856  1.4529  0.1864 -0.1310
  965MOL0     H30235  -0.343  10.886   5.153  3.9731  0.4055 -0.6070
  965MOL0     H30236  -0.559  10.928   5.226 -0.5635  4.7922  0.5679
  965MOL0     H30237  -0.686  11.003   5.138 -2.2211 -1.5181 -0.4402
  965MOL0     H30238  -0.652  10.829   5.121 -1.3399  1.3314 -2.5920
  965MOL0     H30239  -0.858  11.251   4.761 -1.3377  3.6177 -2.4587
  965MOL0     H30240  -1.056  11.305   4.628 -0.7230 -0.6019  1.3806
  965MOL0     H30241  -1.067  11.327   4.362 -0.4709  1.1473  0.4536
  965MOL0     H30242  -1.196  11.262   4.269  2.5237 -1.1502 -0.0812
  965MOL0     H30243  -1.372  11.313   4.423  0.1899  1.3236 -0.3101
  965MOL0     H30244  -1.272  11.387   4.537 -0.3261 -0.9181 -0.2458
  965MOL0     H30245  -1.257  11.483   4.250 -0.1255 -2.6115  0.7086
  965MOL0     H30246  -1.248  11.575   4.405  2.0012 -1.3857 -0.2685
  965MOL0     H30247  -1.516  11.447   4.311  1.0421  0.2331 -2.1650
  965MOL0     H30248  -1.488  11.547   4.450 -0.5503  0.4070 -0.4581
  965MOL0     H30249  -1.450  11.649   4.157 -0.6315  1.1342 -0.9023
  965MOL0     H30250  -1.443  11.742   4.300 -2.5492  0.7054 -1.3779
  965MOL0     H30251  -1.630  11.763   4.172  0.1285  1.8568  1.9983
  965MOL0     H30252  -1.684  11.607   4.221  1.1754 -1.3967  0.8873
  965MOL0     H30253  -1.627  11.840   4.402 -1.4518  0.7346 -0.4951
  965MOL0     H30254  -1.676  11.673   4.457 -1.6492 -0.7481 -0.9586
  965MOL0     H30255  -1.815  11.866   4.271 -1.2472  0.1608  0.7884
  965MOL0     H30256  -1.856  11.865   4.447  1.0514  0.5245  1.4117
  965MOL0     H30257  -1.034  10.937   4.416 -2.8772  1.6031 -1.3154
  965MOL0     H30258  -0.798  10.900   4.534  3.4435  1.8860  2.5260
  965MOL0     H30259  -0.451  11.046   4.707 -0.0570  0.5104  0.5967
  965MOL0     H30260  -0.225  11.018   4.768  0.3739 -1.0242  1.1452
  965MOL0     H30261   1.655  10.921   4.635  1.1453  2.1984 -0.0747
  965MOL0     H30262   1.913  10.847   4.628 -0.2515 -1.9494 -0.0116
  965MOL0     H30263   2.165  10.421   4.906 -0.4997  1.0454  4.1392
  965MOL0     H30264   2.375  10.349   4.926  1.7282  0.0794  0.0664
  965MOL0     H30265   2.726  10.602   4.826  1.2300  2.2284  1.3566
  965MOL0     H30266   2.701  10.624   4.994  4.7807 -0.8757  2.0100
  965MOL0     H30267   2.855  10.385   4.881 -1.3576 -1.3924 -0.2727
  965MOL0     H30268   2.803  10.403   5.055  2.4302  1.8432  2.2092
  965MOL0     H30269   2.925  10.624   5.066  0.8215  0.1901  0.5118
  965MOL0     H30270   3.004  10.574   4.913  0.3365 -0.3247 -0.7158
  965MOL0     H30271   3.068  10.364   5.018  1.5491  0.2919  0.1544
  965MOL0     H30272   3.035  10.421   5.178  1.2421 -3.2184 -0.7424
  965MOL0     H30273   3.400  10.604   5.059  0.2614 -0.5960  0.3937
  965MOL0     H30274   2.529  10.749   4.910 -1.7357  2.1068  1.1355
  965MOL0     H30275   2.312  10.834   4.846  1.2920  0.0632 -1.0090
  966MOL0     O30276   5.873   0.744   1.172  0.7578  0.0040 -0.1674
  966MOL0     C30277   5.868   0.637   1.233  0.1293 -0.2592  0.0263
  966MOL0     O30278   5.752   0.566   1.253 -0.9782  0.0549  0.2109
  966MOL0     C30279   5.652   0.584   1.160 -0.0579 -0.5653 -0.2116
  966MOL0     C30280   5.666   0.570   1.019 -0.5081 -0.4500 -0.0937
  966MOL0     C30281   5.557   0.582   0.929 -0.2560  0.1431 -0.0095
  966MOL0     C30282   5.435   0.625   0.981  0.1793  0.0113 -0.7433
  966MOL0     O30283   5.338   0.638   0.895  0.4079  0.1001  0.0472
  966MOL0     C30284   5.212   0.720   0.924 -0.2157  1.2189  0.2799
  966MOL0     C30285   5.145   0.761   0.783 -0.0082 -0.0534 -0.7415
  966MOL0     C30286   5.163   0.649   0.677  0.3979 -0.5526  0.4879
  966MOL0     C30287   5.097   0.511   0.700  0.2055  0.8449 -0.1825
  966MOL0     C30288   5.033   0.447   0.572  0.6689  0.4134  0.0756
  966MOL0     C30289   4.918   0.342   0.605 -0.0643 -0.1964  0.1263
  966MOL0     C30290   4.963   0.235   0.705 -1.1331  0.3875 -0.2473
  966MOL0     C30291   4.873   0.112   0.695 -0.0015  0.3103  0.0829
  966MOL0     N30292   4.770   0.133   0.800  0.3958  0.8607 -0.1004
  966MOL0     C30293   4.773   0.061   0.919  0.0476  0.2219  0.9764
  966MOL0     C30294   4.657   0.093   0.975 -1.0453 -0.5328  0.0160
  966MOL0     C30295   4.599   0.035   1.104  0.3040 -0.6616  0.1726
  966MOL0     C30296   4.562  -0.110   1.082 -0.0619  0.5401  0.3762
  966MOL0     C30297   4.481  -0.175   1.192  0.3803  0.6570 -0.5189
  966MOL0     C30298   4.344  -0.122   1.223  0.9517 -0.0406 -0.1600
  966MOL0     O30299   4.247  -0.200   1.147 -0.0096  0.4312  0.1900
  966MOL0     C30300   4.113  -0.209   1.179  0.6500 -0.4035 -0.2942
  966MOL0     C30301   4.050  -0.093   1.226  1.5998 -0.5109 -1.0901
  966MOL0     C30302   3.906  -0.100   1.252 -0.5475  0.0981 -0.3906
  966MOL0     C30303   3.849   0.026   1.310 -0.1723  0.1584 -0.2966
  966MOL0     C30304   3.833  -0.223   1.231 -0.3742 -0.1953 -0.1847
  966MOL0     C30305   3.688  -0.249   1.280  0.6149 -0.1296 -0.0840
  966MOL0     O30306   3.606  -0.322   1.195 -0.5483  0.2278 -0.8197
  966MOL0     C30307   3.474  -0.319   1.229  0.1439  0.1679  0.6881
  966MOL0     C30308   3.429  -0.420   1.309 -0.0243  0.3308  0.3423
  966MOL0     C30309   3.295  -0.431   1.348 -0.5381 -0.2753  0.1272
  966MOL0     C30310   3.205  -0.333   1.306 -0.4572  0.5639  0.7008
  966MOL0     O30311   3.070  -0.342   1.321  0.2999 -0.1520 -0.1996
  966MOL0     C30312   3.017  -0.393   1.441  0.0375 -1.0423  0.1870
  966MOL0     C30313   2.865  -0.380   1.419 -0.1949  0.0586  0.7199
  966MOL0     C30314   2.819  -0.232   1.432 -0.1473 -0.5082 -0.0593
  966MOL0     C30315   2.665  -0.253   1.420 -0.4246  0.3402 -0.0128
  966MOL0     C30316   2.586  -0.125   1.446 -0.9102 -0.2504  0.2912
  966MOL0     C30317   2.440  -0.145   1.418 -0.1218  0.0968 -0.4720
  966MOL0     C30318   2.365  -0.022   1.471  0.3183  0.0206 -0.0602
  966MOL0     C30319   2.224  -0.016   1.426 -0.2042  0.0393  0.5218
  966MOL0    Cl30320   2.118  -0.155   1.438 -0.0038 -0.2377 -0.0730
  966MOL0     C30321   3.250  -0.229   1.220  0.3447  0.3792  0.3808
  966MOL0     C30322   3.383  -0.214   1.188  0.0763  0.6672 -0.0386
  966MOL0     O30323   3.650  -0.185   1.375 -0.1549 -0.1249  0.4454
  966MOL0     C30324   3.906  -0.331   1.173 -0.5600  0.7164  0.7056
  966MOL0     C30325   4.040  -0.317   1.143  0.5524  0.1499  0.3513
  966MOL0     N30326   4.584   0.176   0.889  0.0365 -0.2562 -0.0918
  966MOL0     N30327   4.655   0.203   0.782 -0.1017  0.4304  0.3040
  966MOL0     C30328   5.416   0.647   1.117 -0.5692  0.9389 -0.2945
  966MOL0     C30329   5.527   0.626   1.206  0.0634  0.5355  0.3210
  966MOL0     C30330   5.982   0.587   1.311  0.1817  0.3748  0.2237
  966MOL0     C30331   6.108   0.641   1.308 -0.5324 -0.1319 -0.1004
  966MOL0     C30332   6.223   0.582   1.360 -0.3642  0.0593 -0.7102
  966MOL0     C30333   6.210   0.464   1.435 -0.8089  0.0155  0.1374
  966MOL0     O30334   6.314   0.390   1.487 -0.7944 -0.9395  0.0962
  966MOL0     C30335   6.448   0.454   1.491  0.1475  1.0228  0.7019
  966MOL0     C30336   6.539   0.348   1.552  0.0574 -0.3358 -0.5103
  966MOL0     C30337   6.694   0.388   1.563 -0.2876 -0.3432 -0.3313
  966MOL0     C30338   6.728   0.500   1.658  0.1787  0.3696  0.5111
  966MOL0     C30339   6.717   0.459   1.797  0.8385  0.7032 -0.3044
  966MOL0     C30340   6.711   0.411   1.912 -0.9033  0.9863 -0.0998
  966MOL0     C30341   6.085   0.403   1.437 -0.1775 -0.5245  0.3308
  966MOL0     C30342   5.978   0.463   1.375  0.2157  0.2616 -0.0376
  966MOL0     H30343   5.756   0.544   0.964 -0.7321 -2.9102  0.5822
  966MOL0     H30344   5.568   0.562   0.823  1.1678 -0.4368  0.2220
  966MOL0     H30345   5.141   0.653   0.972  0.0380 -0.4670 -1.5802
  966MOL0     H30346   5.235   0.805   0.990  2.4372  0.7248  0.0940
  966MOL0     H30347   5.040   0.783   0.800 -0.1531 -0.3966 -1.1686
  966MOL0     H30348   5.191   0.852   0.744 -0.2203  1.2719  1.8380
  966MOL0     H30349   5.126   0.687   0.582 -1.6006 -1.6002  0.7703
  966MOL0     H30350   5.269   0.637   0.657  0.1799 -0.6168 -0.6902
  966MOL0     H30351   5.169   0.440   0.742  0.1302 -0.1717 -1.6915
  966MOL0     H30352   5.014   0.520   0.771 -1.3291  2.0471 -2.0151
  966MOL0     H30353   4.995   0.531   0.513  1.6827  1.3805  0.7618
  966MOL0     H30354   5.113   0.404   0.512  1.5152  1.0998  0.6799
  966MOL0     H30355   4.831   0.396   0.644 -0.0244  0.5448 -0.7840
  966MOL0     H30356   4.891   0.293   0.511 -1.3364 -0.4779  0.6232
  966MOL0     H30357   5.064   0.200   0.683 -0.8561 -0.9359  2.5539
  966MOL0     H30358   4.958   0.268   0.810 -2.0594 -1.1635  0.2402
  966MOL0     H30359   4.929   0.023   0.725 -2.7883 -1.4375  0.4391
  966MOL0     H30360   4.851   0.090   0.590  1.3647 -1.5446  0.1360
  966MOL0     H30361   4.847  -0.010   0.954  0.1190 -0.1102  0.1582
  966MOL0     H30362   4.670   0.033   1.186  0.6466  1.6733  0.0010
  966MOL0     H30363   4.512   0.099   1.123  0.5736 -0.6048  1.2424
  966MOL0     H30364   4.660  -0.158   1.071 -0.4800 -0.0955 -0.7724
  966MOL0     H30365   4.507  -0.124   0.988  1.5195 -1.0826 -0.3627
  966MOL0     H30366   4.535  -0.174   1.287  0.0895  2.6814 -0.3359
  966MOL0     H30367   4.472  -0.279   1.160  1.0464  0.1304  0.8737
  966MOL0     H30368   4.346  -0.014   1.205  2.3081 -0.1573 -0.8270
  966MOL0     H30369   4.325  -0.138   1.329  1.1631 -0.2349 -0.1533
  966MOL0     H30370   4.100  -0.001   1.253  0.6168 -0.0672 -0.7080
  966MOL0     H30371   3.741   0.034   1.293 -0.3817  0.2018  0.9836
  966MOL0     H30372   3.864   0.041   1.417 -1.5391  1.3052 -0.2350
  966MOL0     H30373   3.895   0.114   1.264  2.2912 -0.2370  1.2798
  966MOL0     H30374   3.505  -0.490   1.341 -0.8873 -0.6683  0.2352
  966MOL0     H30375   3.266  -0.517   1.407 -3.4922  1.7027  1.8339
  966MOL0     H30376   3.052  -0.496   1.456  1.2429 -0.3784  2.5474
  966MOL0     H30377   3.041  -0.324   1.523 -2.3610  2.5309 -1.8243
  966MOL0     H30378   2.852  -0.425   1.320  2.6014 -0.4727  0.5011
  966MOL0     H30379   2.807  -0.441   1.488 -2.1274 -0.5781 -1.3643
  966MOL0     H30380   2.844  -0.170   1.346 -1.3592  0.8177  0.5121
  966MOL0     H30381   2.845  -0.180   1.524 -0.5239  1.1619 -0.8615
  966MOL0     H30382   2.643  -0.307   1.328  0.4989  0.8560 -0.5496
  966MOL0     H30383   2.632  -0.314   1.505  0.3026  0.0678  0.0812
  966MOL0     H30384   2.637  -0.046   1.389 -1.6578  0.4437  0.5694
  966MOL0     H30385   2.610  -0.100   1.550 -1.7958 -1.3516  0.7742
  966MOL0     H30386   2.435  -0.162   1.310 -0.5419 -1.4928 -0.2360
  966MOL0     H30387   2.387  -0.231   1.462 -1.7627  0.6477 -1.2726
  966MOL0     H30388   2.414   0.070   1.438  3.8168 -1.2884  1.0815
  966MOL0     H30389   2.368  -0.021   1.580  0.2398  2.6680 -0.0312
  966MOL0     H30390   2.222   0.002   1.318 -0.7668  4.0527  1.0187
  966MOL0     H30391   2.180   0.075   1.469  1.5795  0.8829  0.6621
  966MOL0     H30392   3.181  -0.165   1.168 -0.3058 -0.5224  0.1184
  966MOL0     H30393   3.412  -0.137   1.118  0.1339 -0.8961 -1.8314
  966MOL0     H30394   3.846  -0.422   1.166 -0.2164  0.4766  0.8545
  966MOL0     H30395   4.081  -0.404   1.092  2.4362  1.8369 -1.2100
  966MOL0     H30396   5.324   0.672   1.169 -0.0502  0.2987  1.0012
  966MOL0     H30397   5.500   0.649   1.309 -0.4919 -0.4013  0.3991
  966MOL0     H30398   6.115   0.740   1.265 -2.3467  1.0054  2.0002
  966MOL0     H30399   6.315   0.637   1.343  0.2870 -0.7134  0.1435
  966MOL0     H30400   6.481   0.482   1.390 -0.0543  1.3942  0.7391
  966MOL0     H30401   6.436   0.542   1.554 -0.7080  0.5939  1.1559
  966MOL0     H30402   6.536   0.261   1.486 -1.7146 -3.5618  3.4032
  966MOL0     H30403   6.505   0.328   1.654 -2.6232  0.6897 -1.1263
  966MOL0     H30404   6.737   0.409   1.465 -1.1739  0.5162 -0.5583
  966MOL0     H30405   6.746   0.300   1.600  2.3430  0.9691 -0.7143
  966MOL0     H30406   6.661   0.585   1.642 -0.8604 -0.9511 -3.0201
  966MOL0     H30407   6.827   0.536   1.629 -0.4558  1.4868 -0.3431
  966MOL0     H30408   6.714   0.349   1.999 -1.4268 -1.7234 -1.8766
  966MOL0     H30409   6.071   0.311   1.494 -0.9627  0.1368  1.2519
  966MOL0     H30410   5.886   0.407   1.382  0.1193  0.2429 -1.2383
  967MOL0     O30411   3.308   6.391   7.329  0.1819 -0.1681  0.2690
  967MOL0     C30412   3.387   6.466   7.281  0.4708 -0.2019  0.2219
  967MOL0     O30413   3.357   6.560   7.189  0.2412  0.0614  0.0433
  967MOL0     C30414   3.226   6.589   7.164  0.5554  0.0256 -0.6195
  967MOL0     C30415   3.154   6.690   7.233  0.3267 -0.7235 -1.0507
  967MOL0     C30416   3.019   6.726   7.221 -1.0373  0.9556 -0.6683
  967MOL0     C30417   2.958   6.669   7.102  0.6040  0.2667 -0.4617
  967MOL0     O30418   2.830   6.687   7.068  0.0564  0.2818  0.1634
  967MOL0     C30419   2.744   6.762   7.150  0.2307 -0.4810 -1.2601
  967MOL0     C30420   2.640   6.845   7.072  0.3772 -0.0098  0.3118
  967MOL0     C30421   2.601   6.968   7.152  0.2049  0.1611  0.1857
  967MOL0     C30422   2.690   7.093   7.132 -0.9492 -0.3005 -0.6670
  967MOL0     C30423   2.619   7.215   7.193  0.0202  0.5158 -0.7609
  967MOL0     C30424   2.519   7.285   7.095  0.3023 -0.1728 -0.3210
  967MOL0     C30425   2.452   7.402   7.166  0.8106  0.1060  0.2082
  967MOL0     C30426   2.546   7.535   7.164  0.5369  0.3052 -1.0132
  967MOL0     N30427   2.542   7.604   7.029  0.1670  0.2588 -0.2628
  967MOL0     C30428   2.659   7.618   6.959 -0.4015 -0.6480 -0.1071
  967MOL0     C30429   2.617   7.696   6.859  0.7532 -0.0831  0.7714
  967MOL0     C30430   2.712   7.742   6.750 -0.8944  0.0299 -0.0803
  967MOL0     C30431   2.666   7.715   6.603 -0.3763  0.0714 -0.7221
  967MOL0     C30432   2.708   7.572   6.550  0.1025  0.7261  0.4798
  967MOL0     C30433   2.653   7.444   6.616  0.0384 -0.2788 -0.3235
  967MOL0     O30434   2.701   7.341   6.533  0.5825 -0.0062  0.1130
  967MOL0     C30435   2.608   7.247   6.515  0.1423  0.1332 -0.4728
  967MOL0     C30436   2.589   7.147   6.610 -0.6425 -0.0014  0.3229
  967MOL0     C30437   2.476   7.067   6.610 -0.3969 -0.5959  0.5832
  967MOL0     C30438   2.465   6.977   6.736  0.6177  0.4160  0.9114
  967MOL0     C30439   2.383   7.084   6.509  0.6798 -0.4381  0.5197
  967MOL0     C30440   2.255   7.016   6.490 -0.3610 -0.4804  0.8314
  967MOL0     O30441   2.169   7.072   6.402 -0.2051  0.0575  0.3127
  967MOL0     C30442   2.040   7.045   6.418 -0.2445  0.2203  0.6581
  967MOL0     C30443   1.983   6.970   6.320 -0.2755  0.7768 -0.6574
  967MOL0     C30444   1.860   6.917   6.337 -0.0941  0.1300  0.2813
  967MOL0     C30445   1.785   6.944   6.456  0.1197 -0.6498 -0.4235
  967MOL0     O30446   1.648   6.927   6.478 -0.0542 -0.2130  0.2946
  967MOL0     C30447   1.585   6.810   6.426 -0.3624 -0.4678  0.4019
  967MOL0     C30448   1.456   6.784   6.503 -0.4388 -1.0588  0.0307
  967MOL0     C30449   1.478   6.722   6.649 -0.2582  0.1381  0.5395
  967MOL0     C30450   1.366   6.759   6.749 -0.0767 -0.1476  0.3075
  967MOL0     C30451   1.373   6.903   6.810 -0.3228 -0.1681  0.6223
  967MOL0     C30452   1.254   6.939   6.898 -0.7058 -0.1758  0.2597
  967MOL0     C30453   1.261   7.077   6.952  0.1000  0.5378  0.2155
  967MOL0     C30454   1.142   7.119   7.027  0.4944 -0.3773 -0.0398
  967MOL0    Cl30455   1.150   7.247   7.143  0.1936 -0.3899 -0.2273
  967MOL0     C30456   1.834   7.039   6.539  0.6566 -0.1581 -0.8682
  967MOL0     C30457   1.966   7.081   6.531  0.4836 -0.6975 -0.8618
  967MOL0     O30458   2.243   6.910   6.546  0.3287  1.2515 -0.1589
  967MOL0     C30459   2.411   7.187   6.407  0.1509  0.3770 -0.0440
  967MOL0     C30460   2.523   7.269   6.413  0.9519  0.1768  0.0620
  967MOL0     N30461   2.482   7.729   6.864 -0.7399 -0.2114  0.2499
  967MOL0     N30462   2.443   7.678   6.972  0.4196 -0.8229 -0.1716
  967MOL0     C30463   3.024   6.593   7.020  0.3050  0.5730 -0.0388
  967MOL0     C30464   3.155   6.550   7.045 -0.6031 -0.2248 -0.4587
  967MOL0     C30465   3.526   6.453   7.326  0.2995  0.1817  0.6172
  967MOL0     C30466   3.628   6.520   7.256 -0.0901 -0.6852  0.6130
  967MOL0     C30467   3.759   6.507   7.300 -0.0748  0.1707  0.5385
  967MOL0     C30468   3.791   6.416   7.401  0.3813 -0.0607  0.2791
  967MOL0     O30469   3.906   6.401   7.459 -0.7347  0.6454 -0.7588
  967MOL0     C30470   4.027   6.444   7.389 -0.8867 -0.5716  0.9007
  967MOL0     C30471   4.147   6.359   7.435 -0.2743 -0.8998 -0.2394
  967MOL0     C30472   4.204   6.408   7.569  0.6474  0.5510  0.2082
  967MOL0     C30473   4.330   6.326   7.608 -1.1534 -0.8939  0.5999
  967MOL0     C30474   4.464   6.368   7.550 -0.4834 -0.1231 -0.2542
  967MOL0     C30475   4.577   6.385   7.516  0.3642 -0.3995 -0.3348
  967MOL0     C30476   3.686   6.348   7.470 -0.1899 -0.7170  0.1159
  967MOL0     C30477   3.555   6.360   7.422 -0.5883 -0.2098 -0.8006
  967MOL0     H30478   3.206   6.729   7.320  0.0683 -3.4580  0.4549
  967MOL0     H30479   2.976   6.784   7.302 -1.1500  0.9972 -0.7578
  967MOL0     H30480   2.683   6.698   7.215 -1.0901 -1.3695 -3.2859
  967MOL0     H30481   2.802   6.838   7.204  3.6923 -2.2574 -2.1669
  967MOL0     H30482   2.671   6.875   6.971  2.5232 -0.9648  0.6256
  967MOL0     H30483   2.558   6.773   7.061  0.3562 -0.1990  1.5714
  967MOL0     H30484   2.505   7.005   7.114  1.4704  0.3803 -3.1700
  967MOL0     H30485   2.580   6.949   7.258 -2.2049 -1.0809 -0.4239
  967MOL0     H30486   2.787   7.086   7.181 -0.3699 -0.4720 -1.8041
  967MOL0     H30487   2.722   7.107   7.029  0.3206 -1.2494 -0.4343
  967MOL0     H30488   2.575   7.198   7.292 -1.4865  3.6020 -0.7926
  967MOL0     H30489   2.697   7.288   7.216  2.6361 -2.0226 -0.9995
  967MOL0     H30490   2.573   7.323   7.008 -0.2721 -0.2334 -0.7108
  967MOL0     H30491   2.441   7.218   7.057 -1.7396  1.6221  0.5027
  967MOL0     H30492   2.361   7.427   7.111  0.6683 -1.0847 -0.1138
  967MOL0     H30493   2.426   7.373   7.268  1.5751  1.8173  0.9376
  967MOL0     H30494   2.653   7.519   7.181  0.6690  0.4791 -1.6423
  967MOL0     H30495   2.509   7.597   7.246  1.3078 -3.0185  2.0759
  967MOL0     H30496   2.761   7.590   6.982  0.3344  1.7392 -0.2675
  967MOL0     H30497   2.713   7.851   6.757  0.8614 -0.0095  0.8842
  967MOL0     H30498   2.811   7.701   6.771 -0.9923 -0.1557  0.0305
  967MOL0     H30499   2.727   7.780   6.540  3.3544 -0.8627  1.5907
  967MOL0     H30500   2.558   7.724   6.593 -0.8652 -1.6126  2.0571
  967MOL0     H30501   2.817   7.563   6.552 -0.0182 -1.0551  1.8937
  967MOL0     H30502   2.685   7.565   6.444  0.5039 -0.9479  0.4687
  967MOL0     H30503   2.545   7.456   6.626  0.2391 -0.6239  3.3382
  967MOL0     H30504   2.707   7.431   6.710  3.3675 -3.1843 -2.3702
  967MOL0     H30505   2.650   7.149   6.700  0.6311  0.3821 -0.5060
  967MOL0     H30506   2.362   6.969   6.772  0.3623 -0.8109 -0.0229
  967MOL0     H30507   2.498   6.873   6.727  0.7628  0.3517  2.0826
  967MOL0     H30508   2.528   7.011   6.819  2.7556 -0.5346 -0.2239
  967MOL0     H30509   2.041   6.948   6.231  1.1242 -1.9627  0.7711
  967MOL0     H30510   1.818   6.857   6.256 -0.3117  1.2773 -0.4839
  967MOL0     H30511   1.568   6.814   6.318  1.0216 -0.6730  0.1575
  967MOL0     H30512   1.650   6.724   6.443  0.8755 -0.1663 -2.2114
  967MOL0     H30513   1.406   6.879   6.521 -2.5857 -2.6560  3.6454
  967MOL0     H30514   1.385   6.717   6.454 -1.8574 -1.9297  3.0686
  967MOL0     H30515   1.571   6.754   6.698 -0.7917 -1.0770  2.4626
  967MOL0     H30516   1.499   6.614   6.645 -1.2024 -0.2424  3.2918
  967MOL0     H30517   1.269   6.759   6.699 -0.3551 -0.6739  0.8331
  967MOL0     H30518   1.360   6.684   6.829  3.4705 -1.2878 -0.3269
  967MOL0     H30519   1.378   6.972   6.725  2.2704  0.3256  1.0758
  967MOL0     H30520   1.464   6.898   6.871 -0.0997 -0.5537  0.2637
  967MOL0     H30521   1.170   6.925   6.830  0.8650  0.8662 -2.0059
  967MOL0     H30522   1.258   6.874   6.986 -2.8057 -1.1508 -0.3218
  967MOL0     H30523   1.294   7.147   6.874  2.4069 -0.2266  0.4229
  967MOL0     H30524   1.349   7.082   7.017  0.9576 -1.7792 -0.6612
  967MOL0     H30525   1.095   7.039   7.085  0.9252 -2.3663 -2.2492
  967MOL0     H30526   1.074   7.136   6.943 -0.4914  2.8206  1.2640
  967MOL0     H30527   1.772   7.080   6.617  1.4490 -0.4325 -0.0696
  967MOL0     H30528   1.998   7.152   6.607 -3.6494  1.6209 -0.9887
  967MOL0     H30529   2.345   7.202   6.322 -0.0282 -1.7242 -0.3494
  967MOL0     H30530   2.536   7.341   6.334 -0.4569  2.3755  1.6940
  967MOL0     H30531   2.984   6.554   6.927 -2.3282  0.0466  1.2179
  967MOL0     H30532   3.204   6.498   6.963 -0.9265 -0.4812 -0.4866
  967MOL0     H30533   3.606   6.587   7.174 -1.5437 -1.4932  0.2956
  967MOL0     H30534   3.836   6.568   7.254 -0.4297 -1.2345 -2.0981
  967MOL0     H30535   4.017   6.425   7.282  0.2885 -3.5045  1.2340
  967MOL0     H30536   4.037   6.552   7.403  0.1491 -0.7633  1.7913
  967MOL0     H30537   4.225   6.359   7.358  0.2224 -1.9091  0.2398
  967MOL0     H30538   4.121   6.253   7.449  2.5713 -1.3273  3.7205
  967MOL0     H30539   4.126   6.411   7.645 -0.6411  0.8552 -1.0944
  967MOL0     H30540   4.222   6.516   7.565  1.2928  0.5774  2.3039
  967MOL0     H30541   4.316   6.218   7.595  1.2444 -1.1798 -0.1728
  967MOL0     H30542   4.345   6.328   7.716  4.8711 -5.6197  0.4056
  967MOL0     H30543   4.680   6.394   7.486 -0.0817 -0.9455 -2.1880
  967MOL0     H30544   3.701   6.277   7.551  0.7743  1.5984  2.1077
  967MOL0     H30545   3.479   6.301   7.472 -0.6028 -1.4839 -2.2477
  968MOL0     O30546   6.666   4.955   0.063  0.9490 -0.7705 -0.1261
  968MOL0     C30547   6.686   4.848   0.128 -0.1696 -0.4591  1.3919
  968MOL0     O30548   6.593   4.765   0.180  0.5212 -0.2487  0.2074
  968MOL0     C30549   6.467   4.795   0.149  0.1621 -0.7419 -0.0882
  968MOL0     C30550   6.381   4.847   0.240  0.0134 -0.0811  0.1203
  968MOL0     C30551   6.239   4.860   0.211  0.7418  0.3229  1.1176
  968MOL0     C30552   6.184   4.833   0.084 -0.2511 -0.7520 -0.1942
  968MOL0     O30553   6.043   4.833   0.070  0.0561 -0.4411 -0.2126
  968MOL0     C30554   6.000   4.801  -0.059 -0.5815 -0.3603  0.4658
  968MOL0     C30555   5.844   4.788  -0.033  0.4428  0.4034 -0.5270
  968MOL0     C30556   5.767   4.919  -0.010  0.1527 -0.3631 -0.2514
  968MOL0     C30557   5.712   4.969  -0.150 -0.6905  0.4932 -0.6193
  968MOL0     C30558   5.623   5.099  -0.141 -0.1980  0.1527 -0.0236
  968MOL0     C30559   5.703   5.226  -0.121  0.7671  1.0440 -0.0402
  968MOL0     C30560   5.618   5.352  -0.114  0.5080 -0.2362  0.6150
  968MOL0     C30561   5.701   5.477  -0.084  0.1107  0.2926  0.3488
  968MOL0     N30562   5.611   5.599  -0.089  0.2353  0.4978  0.6208
  968MOL0     C30563   5.533   5.631  -0.196  0.1541  0.3033 -0.7857
  968MOL0     C30564   5.474   5.748  -0.163  0.8731 -1.0030 -0.4101
  968MOL0     C30565   5.403   5.846  -0.263 -0.8369  1.3709  0.3718
  968MOL0     C30566   5.242   5.828  -0.243 -0.6973  0.1433 -0.2347
  968MOL0     C30567   5.197   5.686  -0.278 -0.5872  0.2427 -1.1426
  968MOL0     C30568   5.044   5.684  -0.289 -0.1995  0.3044  0.2970
  968MOL0     O30569   5.001   5.751  -0.410  0.1001 -0.5333  0.6929
  968MOL0     C30570   4.867   5.785  -0.423 -1.0399  0.6297 -0.4483
  968MOL0     C30571   4.841   5.873  -0.525 -0.7626  0.5764 -0.5511
  968MOL0     C30572   4.719   5.940  -0.544  0.2047  0.8310 -0.4601
  968MOL0     C30573   4.725   6.056  -0.642  0.6151 -0.5048 -0.0148
  968MOL0     C30574   4.611   5.910  -0.461 -0.3280 -0.7624  0.1270
  968MOL0     C30575   4.487   5.986  -0.472  0.6155 -0.3742 -0.3818
  968MOL0     O30576   4.447   6.024  -0.605 -0.3289  0.4767  0.4898
  968MOL0     C30577   4.335   6.102  -0.630  1.1723 -0.0359 -0.6573
  968MOL0     C30578   4.254   6.072  -0.742 -0.0045  0.2135 -0.3061
  968MOL0     C30579   4.134   6.132  -0.762  0.2834 -0.5655  0.4455
  968MOL0     C30580   4.093   6.248  -0.685 -0.0604 -0.3459  0.4037
  968MOL0     O30581   3.981   6.310  -0.735 -0.0419 -0.2072 -0.0447
  968MOL0     C30582   3.956   6.450  -0.683 -0.2217 -0.3899  0.5636
  968MOL0     C30583   3.839   6.511  -0.772 -1.3606 -0.0757 -0.0371
  968MOL0     C30584   3.702   6.484  -0.713 -0.2590 -0.2050  0.7154
  968MOL0     C30585   3.606   6.527  -0.828  0.0243 -1.3081  0.4444
  968MOL0     C30586   3.452   6.541  -0.792 -0.5090 -1.0013  0.1461
  968MOL0     C30587   3.431   6.629  -0.674 -0.0741 -0.4577 -0.5483
  968MOL0     C30588   3.278   6.653  -0.667  0.3530  0.1547  0.1727
  968MOL0     C30589   3.254   6.682  -0.526  0.5741 -0.2084 -0.5598
  968MOL0    Cl30590   3.074   6.723  -0.515 -0.0747  0.3515  0.1862
  968MOL0     C30591   4.169   6.281  -0.574  0.5989 -0.4310  0.8823
  968MOL0     C30592   4.280   6.196  -0.539 -0.2685 -0.4009  0.3847
  968MOL0     O30593   4.406   5.977  -0.376  0.6028  0.3322  0.2599
  968MOL0     C30594   4.633   5.812  -0.365  0.5341 -0.0038  0.5097
  968MOL0     C30595   4.758   5.753  -0.339 -0.2246  0.5176  0.7450
  968MOL0     N30596   5.505   5.778  -0.027  0.6433  0.3569  0.4497
  968MOL0     N30597   5.591   5.687   0.014 -1.1266  0.2083 -0.0612
  968MOL0     C30598   6.279   4.783  -0.007  0.0729 -0.0185  0.1753
  968MOL0     C30599   6.415   4.771   0.022 -0.0531  0.1060  0.6190
  968MOL0     C30600   6.830   4.821   0.141 -0.7458 -1.0020  0.0771
  968MOL0     C30601   6.930   4.891   0.064 -0.4576  0.1371 -0.7811
  968MOL0     C30602   7.063   4.856   0.086  0.6974 -0.1440 -0.8912
  968MOL0     C30603   7.104   4.750   0.175 -0.0679 -0.2069  0.8171
  968MOL0     O30604   7.226   4.697   0.175 -0.5635 -0.5419  0.1093
  968MOL0     C30605   7.327   4.754   0.090 -0.7903 -1.0032  0.7714
  968MOL0     C30606   7.452   4.673   0.089 -0.3080  0.4764  0.0229
  968MOL0     C30607   7.557   4.741  -0.000 -0.3525  0.0919 -0.2158
  968MOL0     C30608   7.696   4.684   0.027  0.1153  0.2721 -0.1990
  968MOL0     C30609   7.776   4.705  -0.092 -0.0038  0.5097 -0.6347
  968MOL0     C30610   7.845   4.703  -0.190 -0.2945  0.1627  0.7575
  968MOL0     C30611   7.007   4.680   0.240  0.0613  0.0574  0.6862
  968MOL0     C30612   6.875   4.718   0.226  0.2325 -0.4331  0.9127
  968MOL0     H30613   6.416   4.863   0.341  2.0560 -0.4889 -0.4660
  968MOL0     H30614   6.174   4.893   0.291 -1.2860 -1.9933  0.5699
  968MOL0     H30615   6.010   4.876  -0.138 -1.2014 -2.3005 -1.5585
  968MOL0     H30616   6.032   4.701  -0.088 -0.6968  0.5024 -3.1348
  968MOL0     H30617   5.809   4.742  -0.126 -0.6971  0.1874  0.0036
  968MOL0     H30618   5.818   4.718   0.046  1.5173  1.9689  1.3219
  968MOL0     H30619   5.685   4.897   0.059 -1.6794  3.6785 -0.8573
  968MOL0     H30620   5.825   5.001   0.033  0.6787  0.0489 -1.7122
  968MOL0     H30621   5.796   5.000  -0.213 -0.4329 -1.1344 -1.1390
  968MOL0     H30622   5.659   4.889  -0.203  0.1007 -1.1073  0.8929
  968MOL0     H30623   5.575   5.107  -0.239 -0.6713 -0.8552  0.1149
  968MOL0     H30624   5.546   5.088  -0.064  1.2147 -1.5658  1.2147
  968MOL0     H30625   5.758   5.210  -0.028 -0.7347  0.2078  0.7537
  968MOL0     H30626   5.772   5.237  -0.206 -0.2214  1.6364 -0.7869
  968MOL0     H30627   5.563   5.365  -0.207  2.5614  0.5138 -0.5732
  968MOL0     H30628   5.539   5.344  -0.038  0.0306 -2.1775 -0.0498
  968MOL0     H30629   5.785   5.476  -0.153  1.1918 -2.4463  1.5506
  968MOL0     H30630   5.748   5.467   0.014  0.1372 -2.8815  0.1302
  968MOL0     H30631   5.531   5.590  -0.297 -0.1951 -1.8528  0.0402
  968MOL0     H30632   5.430   5.949  -0.240  2.0921  0.6340  0.5262
  968MOL0     H30633   5.435   5.815  -0.362  3.4129 -1.8416  2.4227
  968MOL0     H30634   5.196   5.897  -0.314  0.8294  0.0097 -1.4190
  968MOL0     H30635   5.201   5.858  -0.146  0.0942 -0.2031  0.2191
  968MOL0     H30636   5.222   5.611  -0.203 -1.2581  0.0310 -1.1167
  968MOL0     H30637   5.233   5.644  -0.373 -2.9787 -0.9046 -1.6512
  968MOL0     H30638   5.005   5.727  -0.197  0.1190  0.6822  0.2617
  968MOL0     H30639   5.000   5.584  -0.295 -1.3614  0.8631 -1.7537
  968MOL0     H30640   4.915   5.888  -0.603 -0.2800 -1.9972 -0.6491
  968MOL0     H30641   4.726   6.150  -0.587  2.4892 -1.0398  0.9209
  968MOL0     H30642   4.814   6.051  -0.706  0.9687  2.3146  0.1214
  968MOL0     H30643   4.645   6.046  -0.717  1.0664  0.5488 -0.6656
  968MOL0     H30644   4.289   6.003  -0.818 -2.1599 -0.1287 -1.0675
  968MOL0     H30645   4.069   6.099  -0.842 -0.6291  0.8673  0.5612
  968MOL0     H30646   3.934   6.441  -0.577 -2.1524 -2.1292  0.0859
  968MOL0     H30647   4.049   6.505  -0.696  0.7550 -2.1599 -0.3127
  968MOL0     H30648   3.858   6.618  -0.778  1.2557 -0.5080 -0.8807
  968MOL0     H30649   3.838   6.475  -0.875  0.4676  1.2550 -0.5720
  968MOL0     H30650   3.686   6.545  -0.623 -0.4663  2.7667 -1.1867
  968MOL0     H30651   3.694   6.378  -0.691  0.3330 -0.2431  0.7846
  968MOL0     H30652   3.633   6.622  -0.876  0.8397 -2.6782 -2.0064
  968MOL0     H30653   3.613   6.455  -0.910  2.1061  1.4889 -2.0957
  968MOL0     H30654   3.411   6.440  -0.777 -0.9305 -0.5523  2.2488
  968MOL0     H30655   3.404   6.580  -0.882 -1.4543 -1.9233  0.2241
  968MOL0     H30656   3.474   6.586  -0.582  1.6352 -1.6326 -1.8300
  968MOL0     H30657   3.487   6.719  -0.699 -0.9267 -0.4908 -2.7692
  968MOL0     H30658   3.233   6.556  -0.691  2.6594 -1.8634  3.2377
  968MOL0     H30659   3.225   6.733  -0.720 -4.4154 -2.4394  0.4102
  968MOL0     H30660   3.309   6.768  -0.489 -2.6282  0.7112  2.6409
  968MOL0     H30661   3.286   6.601  -0.459  3.2263  0.6862 -0.6243
  968MOL0     H30662   4.137   6.365  -0.513 -1.4309  0.2231 -0.9810
  968MOL0     H30663   4.343   6.224  -0.455  0.5433  0.1620 -0.3914
  968MOL0     H30664   4.556   5.788  -0.292 -1.6342  1.9858 -0.9540
  968MOL0     H30665   4.768   5.692  -0.250 -1.6691 -0.3081  0.3630
  968MOL0     H30666   6.237   4.754  -0.102  1.0160 -2.6538  0.4723
  968MOL0     H30667   6.482   4.726  -0.051 -2.0147  1.6209 -2.2890
  968MOL0     H30668   6.907   4.970  -0.007  1.0841  0.6210 -0.7655
  968MOL0     H30669   7.141   4.923   0.052  2.2528 -1.2656  0.3223
  968MOL0     H30670   7.301   4.781  -0.013  1.8280  0.8976  0.5226
  968MOL0     H30671   7.347   4.856   0.124  0.7306 -0.6912 -0.9168
  968MOL0     H30672   7.442   4.570   0.053 -1.1170  0.7510 -0.5587
  968MOL0     H30673   7.486   4.665   0.193 -2.5317 -1.8603  0.6653
  968MOL0     H30674   7.549   4.850   0.010 -2.7610  0.0214 -0.7587
  968MOL0     H30675   7.539   4.702  -0.101 -4.1417 -2.2277  1.1522
  968MOL0     H30676   7.683   4.578   0.049  0.3902  0.4107  0.6822
  968MOL0     H30677   7.730   4.735   0.118 -0.5726 -0.8213  0.6892
  968MOL0     H30678   7.909   4.704  -0.275 -0.5986 -1.3773  0.4792
  968MOL0     H30679   7.037   4.599   0.306 -1.3945 -0.6623  0.4893
  968MOL0     H30680   6.803   4.664   0.287 -1.7138  0.9239 -0.0654
  969MOL0     O30681   3.322   6.149   8.923  0.5138  0.2232  0.2919
  969MOL0     C30682   3.408   6.229   8.889  0.1704 -0.6730 -0.5125
  969MOL0     O30683   3.394   6.319   8.791  0.4072  0.1234 -0.1460
  969MOL0     C30684   3.281   6.315   8.723  0.7352  0.0462 -0.3698
  969MOL0     C30685   3.244   6.200   8.651  0.3629 -0.3832 -0.8006
  969MOL0     C30686   3.144   6.209   8.557  0.3558  0.2517  0.7451
  969MOL0     C30687   3.077   6.331   8.541 -0.3325  0.2205  1.1265
  969MOL0     O30688   2.974   6.363   8.451 -0.9712 -0.5325  0.0271
  969MOL0     C30689   2.879   6.264   8.434 -0.9975 -0.1874 -0.0773
  969MOL0     C30690   2.760   6.314   8.358  0.3353 -0.1593  0.3170
  969MOL0     C30691   2.674   6.197   8.332 -0.0466 -0.1666 -0.1148
  969MOL0     C30692   2.553   6.230   8.248 -0.3635 -0.2678 -0.4279
  969MOL0     C30693   2.470   6.104   8.234  0.3696  0.3327 -0.2865
  969MOL0     C30694   2.345   6.152   8.154  0.9985 -0.7165  0.4989
  969MOL0     C30695   2.296   6.043   8.057  0.1292  0.4821  0.1680
  969MOL0     C30696   2.155   6.075   8.003  0.6780  0.3542 -0.8096
  969MOL0     N30697   2.049   6.054   8.106 -0.1533  0.5104 -1.2194
  969MOL0     C30698   2.050   6.039   8.247  0.4399  0.4971  0.3878
  969MOL0     C30699   1.927   6.006   8.280  0.4703 -0.1273  0.3647
  969MOL0     C30700   1.873   5.960   8.413 -0.2656 -0.3487  0.7280
  969MOL0     C30701   1.796   6.071   8.489 -0.5448  0.1414  0.2775
  969MOL0     C30702   1.664   6.107   8.416  0.6617  0.3565 -0.0769
  969MOL0     C30703   1.573   6.191   8.508 -0.0778  0.2310  0.4495
  969MOL0     O30704   1.563   6.138   8.641  0.3605  0.3436 -0.0585
  969MOL0     C30705   1.440   6.148   8.702 -0.3104  0.8027  0.0783
  969MOL0     C30706   1.396   6.059   8.795  0.2084  0.4348  0.6134
  969MOL0     C30707   1.265   6.050   8.843  0.6528 -0.2149  0.2551
  969MOL0     C30708   1.230   5.930   8.917  0.6854 -0.1245 -0.4250
  969MOL0     C30709   1.170   6.142   8.801 -0.1380 -0.8988 -0.1760
  969MOL0     C30710   1.028   6.141   8.844 -0.3187  0.3992  0.4039
  969MOL0     O30711   0.943   6.041   8.818  0.1914  0.4658 -0.0178
  969MOL0     C30712   0.809   6.062   8.856 -0.5876 -0.0420 -0.1007
  969MOL0     C30713   0.706   6.084   8.773 -0.3766  0.0765  0.4774
  969MOL0     C30714   0.571   6.093   8.804 -0.5988  0.4142 -1.4203
  969MOL0     C30715   0.541   6.063   8.938  0.3625  0.0353 -0.4907
  969MOL0     O30716   0.413   6.051   8.972  0.1671  0.3795  0.6332
  969MOL0     C30717   0.384   5.920   9.027  0.4535  0.1485 -1.3667
  969MOL0     C30718   0.231   5.902   9.052  0.1851  0.5726  0.0861
  969MOL0     C30719   0.160   5.952   8.927 -0.4376 -0.0894 -0.3861
  969MOL0     C30720   0.013   5.968   8.946 -0.3523 -0.0059 -0.2879
  969MOL0     C30721  -0.051   6.015   8.822  0.5482 -0.4595  0.3847
  969MOL0     C30722  -0.177   6.102   8.856  0.3193  0.7721 -0.2356
  969MOL0     C30723  -0.294   6.005   8.891 -0.0036 -0.4235  0.0170
  969MOL0     C30724  -0.411   6.076   8.966 -0.4250  0.3900  0.0201
  969MOL0    Cl30725  -0.536   6.139   8.853  0.3214  0.0360 -0.3135
  969MOL0     C30726   0.647   6.052   9.032 -0.1403  0.1375  0.1438
  969MOL0     C30727   0.775   6.048   8.991 -0.4487 -0.1139  0.3369
  969MOL0     O30728   0.990   6.246   8.890  0.4407 -0.1698 -0.2438
  969MOL0     C30729   1.222   6.246   8.719  0.4268  0.9239  0.0222
  969MOL0     C30730   1.348   6.250   8.667  1.1864  0.5273  0.5646
  969MOL0     N30731   1.844   6.022   8.172  0.3790 -0.3191 -0.7151
  969MOL0     N30732   1.922   6.025   8.069 -0.2846  0.0232  0.1937
  969MOL0     C30733   3.121   6.444   8.609 -0.3008  0.3712 -0.0034
  969MOL0     C30734   3.225   6.439   8.699  0.2582  0.0365  0.5403
  969MOL0     C30735   3.534   6.231   8.959 -0.1909 -0.4568 -0.4829
  969MOL0     C30736   3.589   6.130   9.050  0.4687  0.3741  0.0884
  969MOL0     C30737   3.713   6.145   9.099 -0.8354 -0.2931 -0.5133
  969MOL0     C30738   3.801   6.256   9.088 -0.6670  0.4328  0.1643
  969MOL0     O30739   3.924   6.267   9.146 -0.3641  0.3923  0.3918
  969MOL0     C30740   3.989   6.153   9.208  0.1059 -0.0697  0.2408
  969MOL0     C30741   4.132   6.188   9.240  0.5564  0.4683 -0.2941
  969MOL0     C30742   4.216   6.197   9.116 -0.5752  1.2258 -0.1307
  969MOL0     C30743   4.365   6.221   9.155 -0.2613 -0.3747 -0.6092
  969MOL0     C30744   4.455   6.203   9.038  0.2058 -0.1883  0.5721
  969MOL0     C30745   4.513   6.166   8.944  0.2124  0.3893  0.1506
  969MOL0     C30746   3.737   6.356   9.025 -0.3561 -0.4566 -0.2192
  969MOL0     C30747   3.616   6.348   8.959  0.2364  0.5204 -0.1714
  969MOL0     H30748   3.294   6.108   8.678 -1.5755 -0.7109  2.1983
  969MOL0     H30749   3.107   6.119   8.508 -0.9013  1.8435 -1.4430
  969MOL0     H30750   2.926   6.180   8.381 -0.4183  0.9296 -1.4093
  969MOL0     H30751   2.835   6.228   8.527  0.8309  0.7156  1.2005
  969MOL0     H30752   2.715   6.382   8.430  0.5791 -1.9371  2.2605
  969MOL0     H30753   2.781   6.357   8.260  0.2378 -3.7255 -1.4265
  969MOL0     H30754   2.730   6.122   8.275 -3.3960 -3.0403  0.0311
  969MOL0     H30755   2.650   6.137   8.421 -2.8324 -0.2500 -0.8439
  969MOL0     H30756   2.499   6.311   8.298 -1.2054 -1.8488  1.3756
  969MOL0     H30757   2.593   6.262   8.151  0.1100 -1.0569 -0.5023
  969MOL0     H30758   2.516   6.023   8.177 -2.8593 -0.8850 -1.3853
  969MOL0     H30759   2.424   6.074   8.328 -1.6212  1.8451 -0.6826
  969MOL0     H30760   2.263   6.170   8.225  0.1308  1.0500 -0.8630
  969MOL0     H30761   2.358   6.246   8.100  0.0329 -0.4539  0.6922
  969MOL0     H30762   2.372   6.039   7.979  0.5079  2.2898  0.3937
  969MOL0     H30763   2.296   5.944   8.105  0.4322  0.0843 -0.6350
  969MOL0     H30764   2.132   6.021   7.911 -0.3887  1.8742 -1.4709
  969MOL0     H30765   2.150   6.172   7.952  4.7618  0.1255 -2.0339
  969MOL0     H30766   2.131   6.042   8.320  0.1452  2.9930  0.7322
  969MOL0     H30767   1.806   5.878   8.387  1.5768 -1.6254 -0.2517
  969MOL0     H30768   1.960   5.923   8.469 -0.1893 -2.3134 -0.5941
  969MOL0     H30769   1.868   6.153   8.493  1.4708 -1.5715  1.3413
  969MOL0     H30770   1.780   6.035   8.591  2.1766  1.2423  1.1746
  969MOL0     H30771   1.603   6.017   8.404 -1.0679  1.5117 -0.2670
  969MOL0     H30772   1.677   6.171   8.328 -0.2230  2.3272  1.1550
  969MOL0     H30773   1.480   6.190   8.452  0.5935 -0.8757 -0.6901
  969MOL0     H30774   1.619   6.290   8.521  1.4224 -0.0532 -2.1050
  969MOL0     H30775   1.467   5.980   8.814 -0.5092 -1.0269 -2.2342
  969MOL0     H30776   1.316   5.893   8.973  0.3896  0.2025  0.2580
  969MOL0     H30777   1.156   5.946   8.997 -0.5978 -1.6146 -1.2445
  969MOL0     H30778   1.174   5.849   8.868  0.1597  1.8633 -3.3525
  969MOL0     H30779   0.728   6.111   8.671 -0.9422 -1.0837  0.0268
  969MOL0     H30780   0.491   6.123   8.736 -1.0814  0.5038 -0.8194
  969MOL0     H30781   0.414   5.840   8.960  1.6367  1.9690 -3.1136
  969MOL0     H30782   0.433   5.914   9.125 -2.0932  3.3242  0.3376
  969MOL0     H30783   0.201   5.802   9.083  0.1374 -0.3083 -2.5501
  969MOL0     H30784   0.207   5.955   9.145  1.1438 -1.0169  1.2703
  969MOL0     H30785   0.166   5.883   8.842 -0.4747  2.4280 -2.5643
  969MOL0     H30786   0.186   6.057   8.913 -0.2453  0.0787  1.0739
  969MOL0     H30787  -0.028   5.867   8.962  1.9798 -1.3089 -2.0075
  969MOL0     H30788  -0.010   6.028   9.035 -0.5833 -0.2143 -0.2031
  969MOL0     H30789  -0.085   5.929   8.764  2.2311  0.4090 -2.0375
  969MOL0     H30790   0.027   6.066   8.765  0.8073  0.5042  1.5688
  969MOL0     H30791  -0.158   6.169   8.941  1.3691 -0.5937  0.6610
  969MOL0     H30792  -0.203   6.161   8.768 -1.9131 -2.0158 -1.6200
  969MOL0     H30793  -0.258   5.917   8.945 -2.0833 -1.3093  0.0479
  969MOL0     H30794  -0.339   5.960   8.802  0.5605  1.9534 -1.5596
  969MOL0     H30795  -0.369   6.157   9.027  0.3790  0.7999 -1.0619
  969MOL0     H30796  -0.460   6.027   9.051 -0.2513 -1.1234 -0.7288
  969MOL0     H30797   0.639   6.041   9.140  1.6804  0.1689  0.3168
  969MOL0     H30798   0.860   6.039   9.057  0.2321 -1.6510 -0.6827
  969MOL0     H30799   1.153   6.324   8.690 -2.2709 -0.5751  1.9802
  969MOL0     H30800   1.362   6.329   8.594 -0.3532  0.3790  0.0564
  969MOL0     H30801   3.068   6.536   8.590 -0.6496  0.0617 -0.5674
  969MOL0     H30802   3.266   6.525   8.753 -0.6405 -0.2280  1.6922
  969MOL0     H30803   3.540   6.035   9.069  5.0062 -2.4809 -0.9386
  969MOL0     H30804   3.742   6.068   9.170  2.1068  1.0475 -0.1090
  969MOL0     H30805   3.937   6.121   9.298  2.3476 -0.4611  1.4605
  969MOL0     H30806   4.005   6.070   9.138 -1.4407 -0.6905  0.5856
  969MOL0     H30807   4.169   6.110   9.307  0.3471  1.1665  0.6544
  969MOL0     H30808   4.131   6.284   9.292 -1.6912 -0.2058  1.0539
  969MOL0     H30809   4.184   6.285   9.058  2.0346  1.5997 -1.1103
  969MOL0     H30810   4.206   6.109   9.052 -3.1117  0.8540  0.6682
  969MOL0     H30811   4.401   6.182   9.250  0.2027  1.7508  0.1494
  969MOL0     H30812   4.363   6.327   9.184 -3.3225 -0.6753  0.6547
  969MOL0     H30813   4.560   6.132   8.855 -1.1393  0.9202 -0.7971
  969MOL0     H30814   3.785   6.453   9.029  0.8740 -0.7428 -3.9467
  969MOL0     H30815   3.592   6.433   8.897  0.8870  1.6981  1.1157
  970MOL0     O30816  10.964   7.056   4.841 -0.4525 -0.6721 -0.0418
  970MOL0     C30817  10.926   7.012   4.730 -0.3543 -1.1546  0.0785
  970MOL0     O30818  10.795   6.962   4.705  0.4351 -0.5631  0.0086
  970MOL0     C30819  10.697   6.981   4.802  0.5477  0.0615 -0.4517
  970MOL0     C30820  10.578   7.048   4.785  1.1073 -0.8983 -0.5333
  970MOL0     C30821  10.473   7.039   4.876  0.0478 -0.0930 -0.6991
  970MOL0     C30822  10.480   6.968   4.995 -0.1351 -0.2363 -0.3938
  970MOL0     O30823  10.380   6.929   5.084  0.1828 -0.1157  0.4630
  970MOL0     C30824  10.246   6.958   5.054 -0.2369 -0.1797 -0.2069
  970MOL0     C30825  10.144   6.894   5.149  0.2287  0.3135  0.5701
  970MOL0     C30826  10.000   6.920   5.100 -0.3307  0.4891 -1.0103
  970MOL0     C30827   9.902   6.862   5.198  0.3794  0.2382  0.1213
  970MOL0     C30828   9.749   6.867   5.144 -0.4610 -0.2388  0.0714
  970MOL0     C30829   9.646   6.813   5.240 -0.3692 -0.1591  0.1877
  970MOL0     C30830   9.518   6.775   5.178  0.0383  0.5733  0.3253
  970MOL0     C30831   9.406   6.745   5.283  0.4059 -0.3222 -0.5872
  970MOL0     N30832   9.288   6.676   5.223  0.5189 -0.9927 -0.1657
  970MOL0     C30833   9.274   6.548   5.201 -0.0791 -0.4778  0.2089
  970MOL0     C30834   9.147   6.540   5.153  1.2978 -0.2055  0.5085
  970MOL0     C30835   9.075   6.405   5.131 -0.5307 -0.4788 -0.6769
  970MOL0     C30836   9.032   6.406   4.987  0.5127 -0.8583  0.0240
  970MOL0     C30837   8.978   6.274   4.943  0.4070 -0.4402  0.4104
  970MOL0     C30838   8.877   6.289   4.827 -0.4833  0.3868  0.2707
  970MOL0     O30839   8.759   6.350   4.865  0.4707 -1.0908 -0.0864
  970MOL0     C30840   8.656   6.271   4.914 -0.2831  0.3845  0.0200
  970MOL0     C30841   8.666   6.135   4.956  0.0079 -0.6099  0.1646
  970MOL0     C30842   8.549   6.073   4.999 -0.1931  1.1745  0.2094
  970MOL0     C30843   8.556   5.922   5.023  0.0924 -0.3848  0.1194
  970MOL0     C30844   8.428   6.136   5.021  0.0450 -0.9205 -1.1358
  970MOL0     C30845   8.301   6.076   5.071 -0.5294 -0.3111  0.4059
  970MOL0     O30846   8.220   6.163   5.127  0.3368  0.1810 -0.1141
  970MOL0     C30847   8.095   6.119   5.175 -0.0214 -0.1816  1.2007
  970MOL0     C30848   7.999   6.059   5.091 -0.4586  0.8753  0.2990
  970MOL0     C30849   7.866   6.027   5.135 -0.1412 -0.1512 -0.1031
  970MOL0     C30850   7.829   6.062   5.267  0.8821 -0.5302  0.2430
  970MOL0     O30851   7.705   6.051   5.325 -0.2553  0.8989  0.3103
  970MOL0     C30852   7.599   6.105   5.242  0.4868 -0.9404  0.4850
  970MOL0     C30853   7.501   6.173   5.338 -0.0588  0.6239  0.7722
  970MOL0     C30854   7.421   6.280   5.268 -0.3366  0.3991  0.1120
  970MOL0     C30855   7.320   6.340   5.368  0.4495  0.6890  0.1097
  970MOL0     C30856   7.237   6.456   5.299  0.4093 -0.2929 -0.2668
  970MOL0     C30857   7.141   6.522   5.394 -0.6151  0.1133  0.2853
  970MOL0     C30858   7.019   6.436   5.427 -0.7078 -0.7747  0.7230
  970MOL0     C30859   6.906   6.491   5.522 -0.8056  0.4915  0.8306
  970MOL0    Cl30860   6.859   6.640   5.443  0.3670  0.6191  0.3260
  970MOL0     C30861   7.920   6.115   5.355 -0.4689  0.2903  0.3666
  970MOL0     C30862   8.057   6.151   5.310 -0.6797  0.2277 -0.2869
  970MOL0     O30863   8.273   5.962   5.061  0.4582 -0.2491  0.0762
  970MOL0     C30864   8.426   6.269   4.967  0.0481  0.3777 -0.3162
  970MOL0     C30865   8.539   6.336   4.924  0.1543  0.1697  0.4966
  970MOL0     N30866   9.087   6.668   5.156 -0.0269 -0.3910  0.2037
  970MOL0     N30867   9.171   6.744   5.198  0.2373 -0.6003 -0.4660
  970MOL0     C30868  10.604   6.911   5.022  0.0880  0.0606  0.7296
  970MOL0     C30869  10.716   6.918   4.929  0.9375  0.2510 -0.6351
  970MOL0     C30870  11.028   6.981   4.623 -0.5326  1.3723 -0.1323
  970MOL0     C30871  11.170   7.001   4.647 -0.3698 -0.9950  0.0900
  970MOL0     C30872  11.268   6.956   4.550  1.0262 -1.0723 -0.7355
  970MOL0     C30873  11.223   6.904   4.428 -0.7596 -0.3286  1.1193
  970MOL0     O30874  11.311   6.867   4.327 -0.2684 -0.4271 -0.1136
  970MOL0     C30875  11.445   6.827   4.364  0.1152  0.1810 -0.0005
  970MOL0     C30876  11.513   6.731   4.266 -0.1689 -1.1670 -0.0359
  970MOL0     C30877  11.442   6.598   4.239 -0.3026  1.1174 -0.2954
  970MOL0     C30878  11.538   6.494   4.174  0.2397  0.2934  0.3186
  970MOL0     C30879  11.581   6.549   4.040  0.6112 -0.7014 -0.1469
  970MOL0     C30880  11.608   6.593   3.919 -0.2827  0.4993  0.7630
  970MOL0     C30881  11.086   6.882   4.401  0.3132 -0.1477  0.3104
  970MOL0     C30882  10.991   6.923   4.497 -0.2164  0.0980  0.4372
  970MOL0     H30883  10.551   7.098   4.692  0.4957 -0.2431 -0.0145
  970MOL0     H30884  10.387   7.094   4.840  0.8884  0.8189 -1.3667
  970MOL0     H30885  10.235   7.066   5.062  1.3914  0.0188 -0.2748
  970MOL0     H30886  10.236   6.931   4.949 -1.0704 -1.1511  0.1042
  970MOL0     H30887  10.158   6.785   5.150  1.4897  0.3998 -1.3938
  970MOL0     H30888  10.157   6.936   5.249  0.5977  0.2124  0.5686
  970MOL0     H30889   9.985   7.026   5.079 -0.0621  0.5285 -1.0096
  970MOL0     H30890   9.995   6.865   5.005 -0.3314 -2.6895  0.6958
  970MOL0     H30891   9.923   6.757   5.218  0.1294  0.5624  2.2938
  970MOL0     H30892   9.913   6.909   5.296  4.3775 -2.7668  1.3977
  970MOL0     H30893   9.728   6.973   5.124  1.2285  0.2429  0.6585
  970MOL0     H30894   9.743   6.806   5.053 -0.0389  0.1821 -0.2464
  970MOL0     H30895   9.686   6.729   5.299  2.1070  1.1263  0.4838
  970MOL0     H30896   9.620   6.896   5.306 -4.1029 -0.3740 -0.7794
  970MOL0     H30897   9.474   6.838   5.101 -2.9915  0.4553  1.8115
  970MOL0     H30898   9.548   6.684   5.125  0.3748  1.3575 -0.8607
  970MOL0     H30899   9.371   6.840   5.325 -1.3629 -0.4992 -1.5988
  970MOL0     H30900   9.453   6.682   5.360 -1.9569 -0.9150  0.4552
  970MOL0     H30901   9.331   6.456   5.210 -1.9926 -1.7492 -0.0434
  970MOL0     H30902   9.145   6.329   5.166  1.1227  0.0839 -2.6147
  970MOL0     H30903   8.977   6.406   5.181 -1.4354 -0.0490 -2.3865
  970MOL0     H30904   9.125   6.412   4.930  1.9685 -1.9047  2.1446
  970MOL0     H30905   8.962   6.488   4.968  0.2618 -0.7416  1.3272
  970MOL0     H30906   8.931   6.223   5.028 -0.0216 -0.5595  0.1085
  970MOL0     H30907   9.053   6.204   4.904  1.4273  0.6355  0.4037
  970MOL0     H30908   8.851   6.192   4.782  1.6786 -0.4351  0.6287
  970MOL0     H30909   8.924   6.343   4.745  0.4841 -0.7301  0.0528
  970MOL0     H30910   8.756   6.074   4.950 -0.4713 -1.2052 -1.5515
  970MOL0     H30911   8.562   5.897   5.129  3.3604 -0.2113  0.0557
  970MOL0     H30912   8.476   5.861   4.978 -0.4260  0.2313  0.1888
  970MOL0     H30913   8.649   5.895   4.972  0.6309  2.5758 -0.6745
  970MOL0     H30914   8.015   6.029   4.988 -0.1152 -2.8120  1.2864
  970MOL0     H30915   7.795   5.984   5.065 -0.4823  0.5188 -0.1773
  970MOL0     H30916   7.645   6.181   5.178  2.5012 -1.6561  0.9876
  970MOL0     H30917   7.541   6.043   5.173 -2.6352  0.0639  2.0441
  970MOL0     H30918   7.441   6.093   5.383  0.2380 -0.5782 -0.8752
  970MOL0     H30919   7.559   6.213   5.421  1.1394 -1.9607  1.2752
  970MOL0     H30920   7.368   6.238   5.182  0.2729  0.1294 -0.1431
  970MOL0     H30921   7.489   6.356   5.228  0.5967 -0.2525  0.4217
  970MOL0     H30922   7.261   6.267   5.423 -1.1207  2.1814  0.5084
  970MOL0     H30923   7.383   6.388   5.443 -0.8932  0.9096  1.1404
  970MOL0     H30924   7.173   6.413   5.222 -1.6591 -3.3051  2.8305
  970MOL0     H30925   7.299   6.526   5.242 -0.6159  0.6200 -0.2881
  970MOL0     H30926   7.203   6.553   5.479  2.1098 -0.2083 -1.4524
  970MOL0     H30927   7.104   6.610   5.341 -2.5022  0.3957  1.9514
  970MOL0     H30928   7.060   6.348   5.477 -0.5545  0.2179  2.4410
  970MOL0     H30929   6.964   6.413   5.335 -1.7064 -0.6266  1.2719
  970MOL0     H30930   6.950   6.504   5.621 -1.9708 -0.0184  1.4329
  970MOL0     H30931   6.818   6.426   5.531  1.1126 -2.5082 -0.4963
  970MOL0     H30932   7.892   6.156   5.451  2.1756  0.2198  1.2366
  970MOL0     H30933   8.117   6.210   5.378  1.7632 -1.9634 -0.3909
  970MOL0     H30934   8.330   6.319   4.971 -1.1420 -1.7935 -0.5508
  970MOL0     H30935   8.520   6.442   4.909 -1.6412  0.0953  1.7927
  970MOL0     H30936  10.617   6.852   5.112  1.4440  0.0633  0.5562
  970MOL0     H30937  10.803   6.856   4.947  1.1034  0.0252 -2.1330
  970MOL0     H30938  11.197   7.045   4.743 -2.8097  1.7047 -0.3181
  970MOL0     H30939  11.373   6.982   4.550  0.3236  2.1407  0.3192
  970MOL0     H30940  11.518   6.906   4.387 -1.1117  1.6263 -0.8922
  970MOL0     H30941  11.431   6.764   4.452 -4.1406  1.2443  0.2875
  970MOL0     H30942  11.602   6.697   4.320  0.7490 -1.2230 -1.5355
  970MOL0     H30943  11.550   6.788   4.180 -1.5100  2.3811  1.5554
  970MOL0     H30944  11.363   6.618   4.167 -2.2611  1.0102  1.7061
  970MOL0     H30945  11.399   6.556   4.331 -0.3032  0.4688 -0.5871
  970MOL0     H30946  11.503   6.391   4.168  2.2299 -0.3649 -0.8464
  970MOL0     H30947  11.631   6.499   4.230 -1.2954 -0.0971  3.1156
  970MOL0     H30948  11.626   6.630   3.820 -1.3283 -0.3877  0.2334
  970MOL0     H30949  11.060   6.848   4.301  1.3924  0.0725 -0.0571
  970MOL0     H30950  10.888   6.891   4.486 -0.3911  1.3447 -2.4767
  971MOL0     O30951   7.086   3.176   1.060  0.3166 -0.1131  0.0875
  971MOL0     C30952   7.159   3.088   1.091  0.0021  0.4762  0.4567
  971MOL0     O30953   7.123   2.958   1.109 -0.0852  0.0425  0.2717
  971MOL0     C30954   6.991   2.925   1.123  0.2819 -0.3797 -0.3576
  971MOL0     C30955   6.886   3.005   1.169  0.4355  0.1013 -0.4342
  971MOL0     C30956   6.760   2.948   1.196  0.8403 -0.0498 -0.4079
  971MOL0     C30957   6.736   2.817   1.161 -0.2002  1.0699  0.4027
  971MOL0     O30958   6.612   2.749   1.168 -0.6559 -0.0732 -0.7058
  971MOL0     C30959   6.491   2.821   1.200  0.2607 -0.0980  0.1730
  971MOL0     C30960   6.384   2.730   1.214  0.3505  0.3820 -0.2097
  971MOL0     C30961   6.260   2.824   1.253 -0.4976 -0.6533  0.5490
  971MOL0     C30962   6.192   2.876   1.127 -0.2345 -0.5035 -0.3127
  971MOL0     C30963   6.045   2.927   1.162  0.5712 -0.4550 -0.0266
  971MOL0     C30964   5.973   2.982   1.038 -0.1027 -0.9776  0.3792
  971MOL0     C30965   5.827   3.026   1.064 -0.2291 -0.1349  0.1031
  971MOL0     C30966   5.803   3.131   0.955  0.4828 -0.1475  0.4914
  971MOL0     N30967   5.661   3.153   0.927 -0.2684  0.3080 -0.0971
  971MOL0     C30968   5.584   3.083   0.839  0.1640 -0.3641 -0.3582
  971MOL0     C30969   5.457   3.120   0.868 -0.2106  0.2773  1.0724
  971MOL0     C30970   5.332   3.055   0.814  0.6821  0.6140  0.7867
  971MOL0     C30971   5.299   3.108   0.663  0.2291  0.5078 -0.8097
  971MOL0     C30972   5.145   3.067   0.640 -1.1385  0.1855  0.7305
  971MOL0     C30973   5.082   3.142   0.529 -0.3828 -0.3031  0.2362
  971MOL0     O30974   4.942   3.122   0.549  0.0111  0.0848 -1.0523
  971MOL0     C30975   4.849   3.104   0.454  0.5581  0.0797 -0.4924
  971MOL0     C30976   4.874   3.118   0.313  0.0700 -0.0906  1.1205
  971MOL0     C30977   4.766   3.120   0.224 -0.5449  0.3068 -0.1347
  971MOL0     C30978   4.806   3.137   0.076  0.9355 -0.3678 -0.6933
  971MOL0     C30979   4.629   3.093   0.270 -0.8419  0.6598  0.0885
  971MOL0     C30980   4.508   3.080   0.177 -0.2136 -0.9311 -0.1338
  971MOL0     O30981   4.399   3.027   0.236 -0.0333 -0.0785  0.1202
  971MOL0     C30982   4.284   3.018   0.170 -0.1295 -0.3303 -0.2673
  971MOL0     C30983   4.192   2.930   0.224  0.5027 -0.3815  0.1568
  971MOL0     C30984   4.066   2.906   0.160 -1.1548 -0.0270  1.4826
  971MOL0     C30985   4.020   2.972   0.040 -0.3285  0.0433 -0.4228
  971MOL0     O30986   3.896   2.934  -0.007 -0.9729  0.2581 -0.1559
  971MOL0     C30987   3.863   2.943  -0.141 -0.3300  0.8009  0.0654
  971MOL0     C30988   3.813   3.073  -0.182 -0.3936 -0.0990 -0.2801
  971MOL0     C30989   3.687   3.124  -0.116  0.2914  0.7407 -0.1385
  971MOL0     C30990   3.711   3.275  -0.093 -0.4252 -1.2467 -0.7691
  971MOL0     C30991   3.805   3.302   0.021  0.1319  0.2900 -0.1194
  971MOL0     C30992   3.773   3.235   0.158  0.5997  0.3538  0.1218
  971MOL0     C30993   3.876   3.273   0.263 -0.8026 -0.9481 -0.4530
  971MOL0     C30994   3.836   3.245   0.412  0.1796  0.7440 -0.1514
  971MOL0    Cl30995   3.721   3.375   0.463  0.0132 -0.0757  0.0412
  971MOL0     C30996   4.114   3.057  -0.016 -0.4739 -0.1289 -0.3809
  971MOL0     C30997   4.239   3.079   0.049  0.4193  0.2676 -0.7315
  971MOL0     O30998   4.521   3.106   0.054 -0.8850  0.4663 -0.8114
  971MOL0     C30999   4.618   3.068   0.407  0.1149 -0.6283  0.2668
  971MOL0     C31000   4.721   3.067   0.495 -0.5460  0.1712  0.2477
  971MOL0     N31001   5.466   3.228   0.954 -0.4524 -1.1183  0.5474
  971MOL0     N31002   5.582   3.242   0.993  0.1538 -0.1436 -0.1555
  971MOL0     C31003   6.838   2.743   1.110 -0.0599 -0.9101 -0.4768
  971MOL0     C31004   6.969   2.801   1.087 -0.6853  1.2026 -0.4111
  971MOL0     C31005   7.305   3.111   1.066 -0.3813 -0.1753  0.3974
  971MOL0     C31006   7.380   3.017   1.005  0.5042  1.3799  0.5640
  971MOL0     C31007   7.507   3.048   0.970 -0.5535 -0.3723  0.0982
  971MOL0     C31008   7.567   3.172   0.987 -0.0190  0.0968  0.0129
  971MOL0     O31009   7.691   3.197   0.928 -0.5366  0.6545  0.2642
  971MOL0     C31010   7.755   3.316   0.973  0.3275  1.4449  0.1049
  971MOL0     C31011   7.891   3.327   0.904  0.4567  0.2023 -0.0906
  971MOL0     C31012   7.993   3.207   0.919  0.4182 -0.5396 -0.3304
  971MOL0     C31013   8.133   3.235   0.979 -0.0678 -0.5240  0.7084
  971MOL0     C31014   8.206   3.343   0.920 -0.5936 -0.1801  0.7856
  971MOL0     C31015   8.268   3.431   0.865 -0.1293  0.5238  0.1574
  971MOL0     C31016   7.496   3.267   1.070 -0.2987 -0.0874  0.0825
  971MOL0     C31017   7.363   3.238   1.103  0.0005  0.3954  0.7404
  971MOL0     H31018   6.904   3.110   1.190  1.4610 -0.1111 -0.2165
  971MOL0     H31019   6.687   3.018   1.237  3.8419  2.5681  0.9012
  971MOL0     H31020   6.505   2.879   1.291 -0.5476 -3.7824  2.8772
  971MOL0     H31021   6.468   2.902   1.129  3.0323  2.3121  1.8145
  971MOL0     H31022   6.354   2.676   1.124 -1.0729 -0.7489  0.8696
  971MOL0     H31023   6.418   2.662   1.293 -1.5634  1.2215  1.4281
  971MOL0     H31024   6.195   2.760   1.313 -0.7297  0.0567  1.0619
  971MOL0     H31025   6.290   2.911   1.311 -1.4668 -0.1628  0.3297
  971MOL0     H31026   6.257   2.956   1.090  0.3168 -0.4024  0.8137
  971MOL0     H31027   6.177   2.797   1.054  0.6319  0.5969 -1.7228
  971MOL0     H31028   5.989   2.846   1.211  0.7969 -0.4080  0.3064
  971MOL0     H31029   6.061   3.008   1.233  1.1846  0.3929 -1.1030
  971MOL0     H31030   6.041   3.056   0.995 -2.3939  1.4932  0.7418
  971MOL0     H31031   5.973   2.900   0.966 -3.5374 -1.8420  1.1847
  971MOL0     H31032   5.752   2.947   1.068 -2.1155  1.3632 -2.6225
  971MOL0     H31033   5.818   3.070   1.164 -1.3503 -1.9522  0.8428
  971MOL0     H31034   5.842   3.090   0.862 -2.4359 -2.1269 -0.0059
  971MOL0     H31035   5.844   3.231   0.971  1.6715 -0.0987 -2.2540
  971MOL0     H31036   5.609   2.995   0.782  1.8035 -1.0887  1.3721
  971MOL0     H31037   5.332   2.945   0.815 -0.0258  0.5586 -0.8855
  971MOL0     H31038   5.255   3.090   0.883  1.0818  0.5427  1.2695
  971MOL0     H31039   5.366   3.056   0.593 -0.6556 -2.2863  0.2540
  971MOL0     H31040   5.318   3.215   0.665 -0.1650  0.6051 -1.7620
  971MOL0     H31041   5.095   3.084   0.736  1.0502 -1.6300  2.2989
  971MOL0     H31042   5.147   2.962   0.611 -0.7780  0.6811 -1.1919
  971MOL0     H31043   5.108   3.113   0.426 -0.5993 -0.3405  0.1914
  971MOL0     H31044   5.104   3.249   0.537 -0.9997  0.5619 -5.4215
  971MOL0     H31045   4.972   3.127   0.267 -0.7877  2.6654 -0.3887
  971MOL0     H31046   4.914   3.155   0.069  0.8889 -0.5097 -2.0197
  971MOL0     H31047   4.770   3.048   0.024  0.2878 -0.6620  0.2279
  971MOL0     H31048   4.754   3.225   0.035 -2.2930 -1.8867 -0.1825
  971MOL0     H31049   4.219   2.870   0.311  1.7706  0.5335  0.4174
  971MOL0     H31050   4.006   2.825   0.200  0.1278 -2.7749 -1.7359
  971MOL0     H31051   3.944   2.906  -0.205 -2.2444 -3.1062 -0.3851
  971MOL0     H31052   3.778   2.876  -0.160  0.2141 -0.9489  3.2099
  971MOL0     H31053   3.897   3.142  -0.167 -0.2228 -0.6927  1.6591
  971MOL0     H31054   3.798   3.066  -0.290  0.8467 -2.7530 -0.3440
  971MOL0     H31055   3.676   3.068  -0.023 -0.2469  0.3548 -0.4300
  971MOL0     H31056   3.591   3.104  -0.166 -0.9156  1.7903  1.6495
  971MOL0     H31057   3.744   3.336  -0.178  1.4189 -1.8361 -0.5248
  971MOL0     H31058   3.616   3.323  -0.067  0.8175  0.3017  1.2726
  971MOL0     H31059   3.798   3.408   0.045 -0.2650  0.3985 -0.7065
  971MOL0     H31060   3.910   3.285  -0.004 -0.0329 -0.7760 -0.1282
  971MOL0     H31061   3.679   3.259   0.208  1.4895 -2.4843  3.5159
  971MOL0     H31062   3.767   3.127   0.142 -1.1395  0.0642  2.2516
  971MOL0     H31063   3.907   3.378   0.261 -2.9512 -0.2685 -0.2001
  971MOL0     H31064   3.963   3.207   0.251 -0.7538 -0.9460 -0.1153
  971MOL0     H31065   3.924   3.228   0.475  1.5725 -0.6438 -2.3853
  971MOL0     H31066   3.776   3.154   0.419  0.9341  0.2926  0.7060
  971MOL0     H31067   4.095   3.115  -0.105 -1.1834 -1.8400 -1.4004
  971MOL0     H31068   4.312   3.147   0.004 -0.2506  2.3021  1.0868
  971MOL0     H31069   4.520   3.047   0.448 -0.5578 -1.0140 -1.4322
  971MOL0     H31070   4.707   3.043   0.600  1.8856 -0.7162  0.4423
  971MOL0     H31071   6.813   2.644   1.076 -0.3369 -1.5026  1.3316
  971MOL0     H31072   7.061   2.747   1.066 -1.5403  0.4603 -2.5796
  971MOL0     H31073   7.347   2.914   0.996 -0.4493  1.7667 -0.8283
  971MOL0     H31074   7.564   2.981   0.906 -2.0693  0.3898 -2.1709
  971MOL0     H31075   7.691   3.402   0.953  0.4237  1.8114  1.2944
  971MOL0     H31076   7.771   3.294   1.079 -1.1202 -0.3620  0.0011
  971MOL0     H31077   7.938   3.422   0.931 -1.8639  1.9603 -1.8834
  971MOL0     H31078   7.890   3.339   0.795 -0.4297  0.3789 -0.0675
  971MOL0     H31079   8.006   3.186   0.812 -2.0770  1.4355 -1.1066
  971MOL0     H31080   7.946   3.118   0.962  2.2629 -0.6707  1.6116
  971MOL0     H31081   8.194   3.144   0.966  1.2490  0.5367 -1.0076
  971MOL0     H31082   8.125   3.256   1.086  1.2487 -1.1109  0.9369
  971MOL0     H31083   8.322   3.511   0.819  0.7439 -0.4800 -0.6479
  971MOL0     H31084   7.536   3.363   1.102 -0.3730 -0.7890  2.4465
  971MOL0     H31085   7.296   3.310   1.149 -0.0803  0.4021  0.6126
  972MOL0     O31086   8.171   7.524   0.349  0.9862 -0.2128  0.9355
  972MOL0     C31087   8.154   7.645   0.378  0.1365  0.3846 -0.0834
  972MOL0     O31088   8.041   7.706   0.425 -0.6286 -0.0251  0.1722
  972MOL0     C31089   7.916   7.645   0.417  0.0094 -0.0500 -0.4403
  972MOL0     C31090   7.820   7.713   0.496 -0.3076 -0.1580  0.0085
  972MOL0     C31091   7.688   7.665   0.511 -0.5148  0.5344 -0.1397
  972MOL0     C31092   7.655   7.547   0.450  0.6601 -0.2999  0.4664
  972MOL0     O31093   7.537   7.482   0.469  0.0146  0.3079 -0.1153
  972MOL0     C31094   7.443   7.511   0.580  0.1779 -0.5397 -0.0845
  972MOL0     C31095   7.322   7.424   0.561  0.1394 -0.3543 -0.1996
  972MOL0     C31096   7.193   7.461   0.645 -0.1340  0.0906  0.5008
  972MOL0     C31097   7.099   7.338   0.637 -0.5055  0.3434 -0.0103
  972MOL0     C31098   6.965   7.363   0.715  0.6487 -0.1471  0.6713
  972MOL0     C31099   6.872   7.236   0.726 -0.5046  0.2768  0.1809
  972MOL0     C31100   6.718   7.274   0.763  0.3350 -0.0075  0.3189
  972MOL0     C31101   6.715   7.320   0.910  0.4094  0.5837  0.2648
  972MOL0     N31102   6.574   7.338   0.925  0.1967  0.2368  0.6551
  972MOL0     C31103   6.482   7.252   0.977 -0.3324  0.6201  0.1131
  972MOL0     C31104   6.361   7.317   0.969 -0.2343 -0.6455  0.4890
  972MOL0     C31105   6.235   7.261   1.023 -0.5903  0.2322  0.0537
  972MOL0     C31106   6.186   7.350   1.128 -0.9976 -0.6396 -0.4849
  972MOL0     C31107   6.080   7.287   1.219  0.7105 -0.9153 -0.0514
  972MOL0     C31108   5.938   7.275   1.165  0.6213 -0.0299 -0.0837
  972MOL0     O31109   5.887   7.410   1.151  0.0190 -0.0052  0.4025
  972MOL0     C31110   5.756   7.417   1.114  0.6477 -0.3121  0.9976
  972MOL0     C31111   5.703   7.543   1.115 -0.9471 -0.0496 -0.3652
  972MOL0     C31112   5.566   7.572   1.084  0.9968 -0.6621 -0.5073
  972MOL0     C31113   5.529   7.723   1.072  0.1375  0.7383  0.7889
  972MOL0     C31114   5.477   7.467   1.066  0.1914  0.4630  0.1749
  972MOL0     C31115   5.337   7.491   1.056  0.1004  0.4921  0.6176
  972MOL0     O31116   5.293   7.602   1.118 -0.7746  0.2937 -0.7234
  972MOL0     C31117   5.167   7.605   1.165 -0.4246 -0.3110 -0.3021
  972MOL0     C31118   5.070   7.687   1.114 -0.1761 -0.1706 -0.2686
  972MOL0     C31119   4.940   7.686   1.174  0.2198  0.6240  0.2942
  972MOL0     C31120   4.918   7.613   1.293 -1.0166  0.1262  0.1442
  972MOL0     O31121   4.795   7.624   1.348  0.2606 -0.5811 -0.2910
  972MOL0     C31122   4.745   7.529   1.439 -0.7466 -0.5017  1.0208
  972MOL0     C31123   4.612   7.584   1.503 -0.8925  0.6412 -0.1845
  972MOL0     C31124   4.620   7.702   1.603 -0.0479 -0.2861 -0.7845
  972MOL0     C31125   4.696   7.669   1.727 -0.5082 -0.0450 -0.3752
  972MOL0     C31126   4.728   7.792   1.812  0.6454  0.1033 -0.1792
  972MOL0     C31127   4.830   7.762   1.924  0.3782 -0.2361  0.4076
  972MOL0     C31128   4.971   7.804   1.876 -0.2450  0.3092  0.5877
  972MOL0     C31129   5.080   7.797   1.977  0.0442 -0.0635  0.2332
  972MOL0    Cl31130   5.231   7.851   1.910  0.0720 -0.3450 -0.3465
  972MOL0     C31131   5.017   7.541   1.349 -0.0882  0.1279  0.1313
  972MOL0     C31132   5.137   7.542   1.285  0.0266 -0.1780 -0.3821
  972MOL0     O31133   5.265   7.390   1.032  0.9221  0.3599  0.0061
  972MOL0     C31134   5.534   7.340   1.056 -0.4367  0.9579  0.0557
  972MOL0     C31135   5.673   7.311   1.080 -0.7252 -0.2214  0.1629
  972MOL0     N31136   6.383   7.443   0.909  0.3126 -0.5614 -0.0476
  972MOL0     N31137   6.511   7.457   0.891  0.4828 -0.4026 -0.1046
  972MOL0     C31138   7.744   7.483   0.360 -0.3444  0.4005  0.0506
  972MOL0     C31139   7.871   7.531   0.338  0.0185  0.0129 -0.1673
  972MOL0     C31140   8.273   7.734   0.375 -0.1546 -0.1451 -0.6831
  972MOL0     C31141   8.404   7.685   0.360 -0.2139  0.0663  0.2381
  972MOL0     C31142   8.512   7.772   0.390 -0.3398  0.1047  0.4446
  972MOL0     C31143   8.492   7.907   0.424 -0.3497 -0.9957  0.5285
  972MOL0     O31144   8.594   7.991   0.472 -0.3949 -0.1461  0.2999
  972MOL0     C31145   8.736   7.953   0.442  0.8222 -0.2793 -0.7243
  972MOL0     C31146   8.760   7.983   0.294 -0.5471  0.1522 -0.8844
  972MOL0     C31147   8.908   8.000   0.248 -0.2432 -0.2405 -0.2940
  972MOL0     C31148   8.952   8.154   0.238  0.0670 -0.4454  0.7095
  972MOL0     C31149   8.899   8.239   0.342 -0.2836 -0.0195  0.7191
  972MOL0     C31150   8.883   8.316   0.435 -0.0688 -1.4015 -0.3684
  972MOL0     C31151   8.363   7.955   0.428 -0.0237  0.1084  0.7780
  972MOL0     C31152   8.258   7.870   0.416  0.3445 -0.1161  0.1391
  972MOL0     H31153   7.857   7.795   0.557  0.4664  1.4286 -2.4304
  972MOL0     H31154   7.624   7.726   0.574 -1.2228 -1.4806  1.1948
  972MOL0     H31155   7.494   7.497   0.676 -0.4899 -0.4644  0.2898
  972MOL0     H31156   7.414   7.616   0.569 -1.3511 -0.9314 -0.0289
  972MOL0     H31157   7.298   7.423   0.454 -1.7120  2.1689  0.1137
  972MOL0     H31158   7.342   7.319   0.585  1.0349 -0.1029  0.1942
  972MOL0     H31159   7.216   7.481   0.750 -1.2758 -0.6369  0.9078
  972MOL0     H31160   7.143   7.546   0.597  1.2799  0.3086 -0.6741
  972MOL0     H31161   7.087   7.325   0.529 -0.8613 -0.8990  0.1589
  972MOL0     H31162   7.143   7.242   0.667 -0.4648  0.0514 -0.9555
  972MOL0     H31163   6.980   7.396   0.818 -0.8859  0.4419  0.7259
  972MOL0     H31164   6.910   7.438   0.657 -1.5897 -2.9097 -1.0275
  972MOL0     H31165   6.865   7.174   0.636 -0.5494  1.1727 -0.4469
  972MOL0     H31166   6.900   7.166   0.804 -3.9804 -0.5261  0.9038
  972MOL0     H31167   6.683   7.348   0.691  2.3941  2.3517  1.6150
  972MOL0     H31168   6.664   7.178   0.768 -2.4841  1.5304  2.4397
  972MOL0     H31169   6.766   7.415   0.927  5.0700 -1.5359 -0.5060
  972MOL0     H31170   6.746   7.245   0.982 -1.4568 -0.1450  0.3632
  972MOL0     H31171   6.491   7.158   1.029 -1.8938  0.8311  0.7953
  972MOL0     H31172   6.160   7.254   0.944  0.8173 -0.3206 -1.2704
  972MOL0     H31173   6.252   7.158   1.057  1.5011  0.9906  1.5370
  972MOL0     H31174   6.157   7.445   1.081 -1.1141 -1.3384 -1.8693
  972MOL0     H31175   6.267   7.371   1.199 -1.9008 -0.3925  0.5053
  972MOL0     H31176   6.057   7.353   1.303 -2.5772 -1.9524 -0.0159
  972MOL0     H31177   6.104   7.187   1.256  0.3260 -1.4210 -1.1223
  972MOL0     H31178   5.876   7.214   1.231 -1.0475  0.6620 -0.9551
  972MOL0     H31179   5.931   7.215   1.074 -4.3740 -1.2285  0.7826
  972MOL0     H31180   5.776   7.622   1.126  0.2012 -1.1707  0.2122
  972MOL0     H31181   5.625   7.775   1.069  1.8745 -2.2548  0.7998
  972MOL0     H31182   5.478   7.743   0.978 -0.3464 -2.9688  0.1132
  972MOL0     H31183   5.466   7.742   1.160 -2.1395 -3.1211  0.2409
  972MOL0     H31184   5.089   7.739   1.020 -1.4259  3.0458  1.1394
  972MOL0     H31185   4.860   7.745   1.132 -0.1865 -0.6461 -0.7566
  972MOL0     H31186   4.735   7.431   1.392  0.8175 -0.0426 -0.3995
  972MOL0     H31187   4.816   7.525   1.522  1.7500 -2.9952 -1.0568
  972MOL0     H31188   4.527   7.593   1.434 -0.7892  0.7061 -0.3051
  972MOL0     H31189   4.579   7.505   1.570  1.2282  0.9080  1.2573
  972MOL0     H31190   4.518   7.727   1.633 -0.6874  0.5217 -3.3511
  972MOL0     H31191   4.672   7.786   1.556  0.9608 -0.0969  0.6078
  972MOL0     H31192   4.635   7.600   1.787 -0.0425 -0.5634 -0.4842
  972MOL0     H31193   4.786   7.614   1.698 -0.7284  0.6385 -2.5969
  972MOL0     H31194   4.632   7.833   1.846 -0.6348 -0.7171 -2.6005
  972MOL0     H31195   4.770   7.878   1.759  1.4395 -2.3894 -3.9601
  972MOL0     H31196   4.801   7.818   2.014  1.8488  1.8366 -0.3180
  972MOL0     H31197   4.828   7.658   1.959  0.7763 -0.5794 -0.5606
  972MOL0     H31198   4.962   7.902   1.829  3.3678  0.8951  0.8623
  972MOL0     H31199   5.001   7.744   1.790 -4.8787 -1.6907  0.0568
  972MOL0     H31200   5.098   7.695   2.015  0.4118  1.0770  3.4299
  972MOL0     H31201   5.047   7.864   2.056 -0.8838 -0.4658  0.1989
  972MOL0     H31202   4.995   7.478   1.435 -1.3633  1.9149  1.1836
  972MOL0     H31203   5.218   7.478   1.321 -0.2374 -0.2601  0.0726
  972MOL0     H31204   5.465   7.257   1.050  0.8496 -0.2895  1.5481
  972MOL0     H31205   5.703   7.207   1.082 -0.6157 -0.1945  3.0364
  972MOL0     H31206   7.725   7.388   0.312  0.4577  0.3205 -0.1231
  972MOL0     H31207   7.924   7.475   0.262 -1.5514 -1.3381 -0.3136
  972MOL0     H31208   8.423   7.578   0.350 -2.1692 -0.2569 -0.4882
  972MOL0     H31209   8.609   7.728   0.408 -1.0517 -2.8389 -1.8859
  972MOL0     H31210   8.792   8.006   0.520  1.1580  1.2417 -1.9565
  972MOL0     H31211   8.756   7.847   0.463  1.9265  0.3204  1.6372
  972MOL0     H31212   8.698   8.069   0.268 -2.3746 -1.1411 -1.0008
  972MOL0     H31213   8.719   7.902   0.234 -1.4964  0.3546 -0.5163
  972MOL0     H31214   8.919   7.959   0.147 -0.2882  1.2270 -0.9242
  972MOL0     H31215   8.966   7.948   0.325 -2.5390  0.2743  1.9120
  972MOL0     H31216   8.921   8.199   0.143  1.1291  1.7990  1.3564
  972MOL0     H31217   9.060   8.164   0.249 -0.2946  0.8158  4.5038
  972MOL0     H31218   8.877   8.401   0.500 -0.1745  0.0576 -2.1905
  972MOL0     H31219   8.349   8.057   0.464 -2.9841 -0.4006  1.2972
  972MOL0     H31220   8.160   7.910   0.439  0.6172  0.5060  0.2320
  973MOL0     O31221   2.228   3.206   3.931  0.2951 -0.3873  0.0957
  973MOL0     C31222   2.326   3.147   3.981 -0.0591 -0.1236 -0.2781
  973MOL0     O31223   2.317   3.057   4.083  0.5834  1.0059 -0.1018
  973MOL0     C31224   2.199   3.012   4.133  0.2145  0.0884  0.6441
  973MOL0     C31225   2.193   2.872   4.162 -0.3584 -0.5563 -0.6971
  973MOL0     C31226   2.077   2.808   4.208 -0.3009 -0.3562  0.3286
  973MOL0     C31227   1.958   2.880   4.228 -0.9387 -0.1958 -0.6338
  973MOL0     O31228   1.854   2.814   4.285 -0.7222  0.2201 -0.0814
  973MOL0     C31229   1.746   2.780   4.196  1.0042  0.3287 -0.4619
  973MOL0     C31230   1.792   2.686   4.087 -0.7125 -0.1758  0.3505
  973MOL0     C31231   1.686   2.607   4.007 -0.0847 -0.8317 -0.2376
  973MOL0     C31232   1.558   2.696   3.968  0.1736 -0.0701  0.3115
  973MOL0     C31233   1.466   2.602   3.878 -0.5039 -0.2277  0.5825
  973MOL0     C31234   1.341   2.676   3.831  0.2177  0.0515 -0.3442
  973MOL0     C31235   1.237   2.577   3.773  0.6674  1.3016  0.2078
  973MOL0     C31236   1.126   2.657   3.705  0.3554  0.1445 -0.3771
  973MOL0     N31237   1.048   2.565   3.622 -0.4235  0.2079  0.0448
  973MOL0     C31238   0.932   2.513   3.668 -0.1914 -0.3134  0.0803
  973MOL0     C31239   0.892   2.434   3.561  0.5695 -0.3069  0.1539
  973MOL0     C31240   0.775   2.336   3.557 -0.4166  0.1877  0.5445
  973MOL0     C31241   0.643   2.405   3.575 -0.0074  0.2599 -1.5237
  973MOL0     C31242   0.538   2.287   3.544 -0.0419 -0.0378  0.0414
  973MOL0     C31243   0.396   2.335   3.562 -0.3137 -0.5090 -0.4699
  973MOL0     O31244   0.304   2.220   3.546 -0.0867  0.3511  0.1427
  973MOL0     C31245   0.306   2.140   3.433 -0.1551 -0.2623 -0.4812
  973MOL0     C31246   0.265   2.014   3.449  0.3464  0.7357  0.5895
  973MOL0     C31247   0.257   1.927   3.343  0.0707  0.1857  0.4955
  973MOL0     C31248   0.208   1.794   3.368  0.0344  0.4069 -0.0436
  973MOL0     C31249   0.280   1.976   3.213  0.8852  0.1775  0.2226
  973MOL0     C31250   0.266   1.903   3.090  0.1294 -0.6843  0.7748
  973MOL0     O31251   0.292   1.771   3.109  0.0590 -0.1479  0.3475
  973MOL0     C31252   0.276   1.678   3.007 -0.1821  0.7772  0.0904
  973MOL0     C31253   0.371   1.571   2.994  0.1087  0.0233  0.2169
  973MOL0     C31254   0.354   1.466   2.899  0.4278 -0.3949  0.1555
  973MOL0     C31255   0.248   1.468   2.810  0.5891  0.0760  0.5436
  973MOL0     O31256   0.231   1.374   2.716 -0.7742  0.2783  0.2398
  973MOL0     C31257   0.101   1.337   2.675  0.1643 -0.2215  0.4939
  973MOL0     C31258   0.102   1.191   2.628  0.5908  0.8073  0.2489
  973MOL0     C31259  -0.039   1.158   2.582 -0.0044  0.5675 -0.2328
  973MOL0     C31260  -0.045   1.030   2.499 -0.7455 -1.4950  0.4393
  973MOL0     C31261  -0.193   0.980   2.469  0.4257 -0.0358  0.6335
  973MOL0     C31262  -0.197   0.863   2.375  0.2368 -0.3882  0.0598
  973MOL0     C31263  -0.187   0.728   2.453  0.3094 -0.4008  0.2782
  973MOL0     C31264  -0.144   0.609   2.360  0.9480  0.3190  0.5266
  973MOL0    Cl31265  -0.084   0.475   2.447 -0.0980  0.4538 -0.2662
  973MOL0     C31266   0.149   1.568   2.822 -0.3350  0.1245 -0.3873
  973MOL0     C31267   0.166   1.675   2.920 -0.0869  1.0984 -0.0712
  973MOL0     O31268   0.232   1.954   2.985  0.3458 -0.5955  0.0382
  973MOL0     C31269   0.315   2.110   3.197 -0.7141  0.3571  0.7027
  973MOL0     C31270   0.332   2.190   3.305 -0.2281 -0.8721  0.5904
  973MOL0     N31271   0.982   2.452   3.457 -0.4040 -0.1543 -0.3431
  973MOL0     N31272   1.073   2.525   3.499  0.4935  0.2625 -0.3881
  973MOL0     C31273   1.968   3.021   4.216  0.0369  0.0765  0.9711
  973MOL0     C31274   2.081   3.085   4.163 -0.1500 -0.1091  0.3097
  973MOL0     C31275   2.460   3.178   3.924 -0.5908  0.3099 -0.6469
  973MOL0     C31276   2.573   3.106   3.969 -0.6707  0.4606  0.8499
  973MOL0     C31277   2.697   3.145   3.921  0.2304 -0.3569 -0.2311
  973MOL0     C31278   2.710   3.238   3.819 -0.2957 -0.4310 -0.2524
  973MOL0     O31279   2.830   3.270   3.756  0.3354  0.0518 -0.9352
  973MOL0     C31280   2.948   3.206   3.809 -0.1179 -0.2436 -0.0066
  973MOL0     C31281   3.078   3.235   3.718  0.9484 -0.3467 -0.3062
  973MOL0     C31282   3.204   3.162   3.764  1.6528  0.3180 -0.5607
  973MOL0     C31283   3.323   3.174   3.657  0.2142 -0.4589 -0.2575
  973MOL0     C31284   3.461   3.146   3.703  0.6219 -0.1808 -0.1062
  973MOL0     C31285   3.577   3.125   3.726 -1.2604  0.2919 -0.0956
  973MOL0     C31286   2.606   3.317   3.783  1.0552  0.3120  0.0564
  973MOL0     C31287   2.473   3.284   3.838 -0.2898 -0.0657  0.6314
  973MOL0     H31288   2.282   2.821   4.127  0.1169 -0.1172 -0.1432
  973MOL0     H31289   2.077   2.701   4.223  1.5075 -0.1354  2.3879
  973MOL0     H31290   1.664   2.728   4.246  2.7090 -2.4365 -0.2748
  973MOL0     H31291   1.714   2.878   4.160  0.9039 -0.3299 -2.3115
  973MOL0     H31292   1.849   2.744   4.014 -2.7506 -1.5857 -2.5628
  973MOL0     H31293   1.862   2.610   4.123 -1.7885 -2.3535 -1.8417
  973MOL0     H31294   1.736   2.559   3.923  0.4264 -2.6107  1.0381
  973MOL0     H31295   1.651   2.521   4.065 -0.7817 -0.3215  0.1102
  973MOL0     H31296   1.499   2.728   4.054 -0.8806  1.2025 -0.8291
  973MOL0     H31297   1.578   2.783   3.904  0.6709 -0.4611 -0.0724
  973MOL0     H31298   1.520   2.577   3.787  1.2477  0.9324  1.2595
  973MOL0     H31299   1.426   2.511   3.925 -3.5203  0.3629 -0.6425
  973MOL0     H31300   1.301   2.736   3.913  0.5466 -1.6439  1.0959
  973MOL0     H31301   1.373   2.743   3.751  2.4776  1.2246  1.4166
  973MOL0     H31302   1.290   2.518   3.697 -1.3887 -0.0477 -0.2398
  973MOL0     H31303   1.207   2.510   3.854  3.9221 -0.0247  0.4873
  973MOL0     H31304   1.179   2.713   3.627  0.5926 -2.7150 -2.4802
  973MOL0     H31305   1.067   2.714   3.777 -0.1441 -0.7412 -0.0671
  973MOL0     H31306   0.895   2.518   3.770 -1.0786 -0.8319 -0.2074
  973MOL0     H31307   0.779   2.296   3.456  0.4381  0.7306  0.3487
  973MOL0     H31308   0.794   2.255   3.628  0.0211  0.3504  0.6210
  973MOL0     H31309   0.640   2.504   3.527 -0.2704  1.8941  1.5825
  973MOL0     H31310   0.622   2.430   3.680 -0.1941 -0.5636 -1.3584
  973MOL0     H31311   0.558   2.212   3.621  0.9155  0.3889  0.2285
  973MOL0     H31312   0.551   2.241   3.446 -1.7629  0.4379 -0.4507
  973MOL0     H31313   0.378   2.420   3.495 -0.3404  2.0579  2.5821
  973MOL0     H31314   0.376   2.377   3.660 -1.5451 -1.0955 -0.4502
  973MOL0     H31315   0.261   1.974   3.549  1.7891  1.2107  0.8610
  973MOL0     H31316   0.156   1.789   3.464 -1.0283  0.5773 -0.5955
  973MOL0     H31317   0.136   1.769   3.289  1.9205 -1.2966 -1.3335
  973MOL0     H31318   0.286   1.717   3.368  1.1379  1.4891  0.8358
  973MOL0     H31319   0.456   1.582   3.061  1.3268 -0.5286 -1.1720
  973MOL0     H31320   0.431   1.391   2.885  0.3428 -0.1096 -2.2828
  973MOL0     H31321   0.030   1.336   2.758 -2.3016  3.3542 -1.2881
  973MOL0     H31322   0.063   1.402   2.596 -1.1617 -2.0641 -0.4707
  973MOL0     H31323   0.157   1.168   2.536 -4.8478  1.5605 -3.6558
  973MOL0     H31324   0.128   1.130   2.715 -0.8309  1.3192  1.0677
  973MOL0     H31325  -0.082   1.233   2.515 -0.9408 -0.9719 -1.4445
  973MOL0     H31326  -0.104   1.157   2.670  1.2795  1.0251  0.7651
  973MOL0     H31327   0.004   1.050   2.403  2.7571  0.5477  2.4386
  973MOL0     H31328   0.014   0.945   2.537  0.1725 -1.4197 -0.7383
  973MOL0     H31329  -0.258   1.058   2.426  0.9090  0.2742  0.4499
  973MOL0     H31330  -0.229   0.963   2.570 -2.0861  2.1333  0.2342
  973MOL0     H31331  -0.286   0.866   2.313 -2.0438 -0.3507  3.1165
  973MOL0     H31332  -0.110   0.877   2.311 -0.0507  0.5615 -0.1297
  973MOL0     H31333  -0.282   0.714   2.505  1.1858  0.0609  2.1060
  973MOL0     H31334  -0.113   0.728   2.534 -0.7130 -0.4040  1.2316
  973MOL0     H31335  -0.058   0.637   2.299  0.8732 -1.2407 -0.3373
  973MOL0     H31336  -0.233   0.589   2.299  2.2834 -4.4564 -0.2449
  973MOL0     H31337   0.066   1.570   2.753 -0.6021  0.8437 -0.0493
  973MOL0     H31338   0.094   1.755   2.935  1.6047  2.6638  0.0733
  973MOL0     H31339   0.345   2.148   3.100  2.0990 -1.7613  0.6079
  973MOL0     H31340   0.366   2.291   3.286 -3.9953  0.2169 -1.5060
  973MOL0     H31341   1.881   3.083   4.236  1.1759  1.4320  1.9589
  973MOL0     H31342   2.090   3.193   4.151 -0.6316  0.1400  1.9427
  973MOL0     H31343   2.577   3.025   4.041  0.7335  0.4619  0.8002
  973MOL0     H31344   2.778   3.088   3.965  0.8049  1.2514  0.8960
  973MOL0     H31345   2.978   3.243   3.908  3.3483 -2.6757  0.0572
  973MOL0     H31346   2.934   3.098   3.809  1.0672 -0.4530 -1.9446
  973MOL0     H31347   3.093   3.343   3.728  0.3285 -0.2780 -0.1070
  973MOL0     H31348   3.047   3.193   3.621 -1.4112 -0.0676  0.2803
  973MOL0     H31349   3.176   3.061   3.794  1.1886  1.2528  2.5515
  973MOL0     H31350   3.244   3.206   3.856  3.5185 -1.9239 -0.2085
  973MOL0     H31351   3.325   3.280   3.630 -1.3402 -0.5842 -0.9752
  973MOL0     H31352   3.305   3.108   3.572  3.6844 -1.9448 -0.0097
  973MOL0     H31353   3.681   3.104   3.743 -1.4789  0.1051  1.1444
  973MOL0     H31354   2.603   3.405   3.719  0.4258 -0.9677 -1.7705
  973MOL0     H31355   2.389   3.351   3.822 -0.1414 -0.1953 -0.7972
  974MOL0     O31356   7.973   3.959   8.304 -0.4046 -0.2855  0.3762
  974MOL0     C31357   8.060   3.967   8.390  0.3484 -0.8979 -0.6401
  974MOL0     O31358   8.033   3.963   8.526 -0.6641 -1.0756  0.7172
  974MOL0     C31359   7.916   3.954   8.579  0.2564 -0.7307  0.0954
  974MOL0     C31360   7.799   4.013   8.530 -0.3893 -0.0286 -0.3062
  974MOL0     C31361   7.671   3.982   8.579  0.0948  0.0885  0.0481
  974MOL0     C31362   7.662   3.915   8.701  1.3637 -0.5811  0.3287
  974MOL0     O31363   7.541   3.901   8.767 -0.2025  0.4630 -0.3738
  974MOL0     C31364   7.412   3.944   8.715 -0.6285 -0.2016 -0.5177
  974MOL0     C31365   7.317   3.882   8.808  0.3064 -0.4466 -0.0128
  974MOL0     C31366   7.176   3.877   8.748  0.2001  0.3552 -0.1019
  974MOL0     C31367   7.080   3.967   8.831 -0.2324 -0.5660 -0.6314
  974MOL0     C31368   7.041   3.916   8.978  0.0261  0.1341 -0.0517
  974MOL0     C31369   6.953   4.010   9.042  0.4191 -0.1071 -0.8275
  974MOL0     C31370   6.796   4.003   9.002 -0.2010 -0.1342 -1.0880
  974MOL0     C31371   6.731   4.119   9.073 -0.3080  0.2758 -0.2809
  974MOL0     N31372   6.743   4.248   9.005  0.5100  0.0374  0.3530
  974MOL0     C31373   6.627   4.316   8.980  0.1531 -0.4628 -0.8732
  974MOL0     C31374   6.657   4.404   8.886  0.1109  0.5430 -0.6095
  974MOL0     C31375   6.565   4.503   8.820  0.1270 -0.9199  0.4297
  974MOL0     C31376   6.457   4.435   8.719  0.0783 -0.3938 -0.1543
  974MOL0     C31377   6.373   4.553   8.648  0.5869 -0.1797 -0.3880
  974MOL0     C31378   6.263   4.488   8.560  0.3771 -0.3822  0.2202
  974MOL0     O31379   6.322   4.393   8.468  0.4553  0.6221  0.3263
  974MOL0     C31380   6.239   4.347   8.369 -0.5631  0.2240 -0.3599
  974MOL0     C31381   6.107   4.396   8.344  0.1484 -0.5871  0.2149
  974MOL0     C31382   6.031   4.339   8.243 -0.1676 -0.1672 -0.0113
  974MOL0     C31383   5.891   4.391   8.218  0.4204  0.3756  0.5416
  974MOL0     C31384   6.084   4.233   8.159 -0.3671 -0.0545 -0.0937
  974MOL0     C31385   6.019   4.170   8.047  0.0001 -0.2714 -0.3457
  974MOL0     O31386   5.957   4.260   7.959  0.0302  0.3923  0.2404
  974MOL0     C31387   5.875   4.214   7.861  0.2640 -0.3971 -0.1110
  974MOL0     C31388   5.891   4.256   7.729 -0.7525  0.1338 -0.1539
  974MOL0     C31389   5.794   4.224   7.631  0.1220  0.5110  0.6980
  974MOL0     C31390   5.673   4.156   7.667  0.2785 -0.4951  0.0493
  974MOL0     O31391   5.570   4.142   7.574 -0.0490 -0.1136 -0.0209
  974MOL0     C31392   5.438   4.096   7.618 -0.6177  0.2511 -0.3107
  974MOL0     C31393   5.348   4.120   7.496  0.7510 -0.0931  0.4980
  974MOL0     C31394   5.201   4.090   7.531  0.7595  0.0915 -0.3419
  974MOL0     C31395   5.153   4.098   7.680 -0.9138  0.1730  0.2090
  974MOL0     C31396   5.008   4.040   7.688 -0.3520 -0.2773  0.0427
  974MOL0     C31397   4.966   4.040   7.839  0.1591 -0.0165  0.3743
  974MOL0     C31398   4.865   3.932   7.850  0.8346 -0.1751  0.0703
  974MOL0     C31399   4.729   3.979   7.792  0.1160  0.4741  0.1704
  974MOL0    Cl31400   4.601   3.886   7.876  0.5259 -0.2660  0.0519
  974MOL0     C31401   5.667   4.113   7.800  0.6333 -0.1117  0.1814
  974MOL0     C31402   5.764   4.139   7.893  0.1532  0.5531 -0.7203
  974MOL0     O31403   6.031   4.050   8.034  0.1631  0.2838 -0.0003
  974MOL0     C31404   6.218   4.189   8.195  0.1740 -0.6007  0.2171
  974MOL0     C31405   6.299   4.253   8.291 -0.1181 -0.7181  0.8374
  974MOL0     N31406   6.788   4.397   8.865  0.2745  0.1544  0.5092
  974MOL0     N31407   6.843   4.299   8.932 -0.4803  0.7934  0.0538
  974MOL0     C31408   7.776   3.874   8.763 -0.2601 -0.2762 -0.0709
  974MOL0     C31409   7.904   3.898   8.709 -1.0782 -0.3907 -0.3556
  974MOL0     C31410   8.197   3.977   8.345 -0.3256  0.8673  0.3131
  974MOL0     C31411   8.294   4.046   8.424  0.1478  0.0164 -0.6347
  974MOL0     C31412   8.425   4.069   8.376  1.1330  0.5149  0.1868
  974MOL0     C31413   8.460   4.016   8.250  0.6424  0.0066 -0.3473
  974MOL0     O31414   8.582   4.040   8.208 -0.3670 -0.6333 -0.4153
  974MOL0     C31415   8.679   3.951   8.266 -0.4691 -0.1558  0.1449
  974MOL0     C31416   8.817   3.979   8.216 -0.6133 -0.5223  0.2345
  974MOL0     C31417   8.913   3.950   8.326 -0.7370 -0.0756  0.1915
  974MOL0     C31418   8.912   3.799   8.358 -0.3460 -0.7740 -0.0889
  974MOL0     C31419   9.046   3.747   8.408  0.2744  0.8988  0.3076
  974MOL0     C31420   9.152   3.706   8.442 -0.0302 -0.4087 -0.0485
  974MOL0     C31421   8.368   3.943   8.174 -0.7201  0.3691 -0.7688
  974MOL0     C31422   8.234   3.925   8.216  0.1031 -0.2730 -0.6849
  974MOL0     H31423   7.800   4.076   8.442  0.6069 -0.3720 -0.5566
  974MOL0     H31424   7.582   4.020   8.529  0.3432  2.5861  1.3387
  974MOL0     H31425   7.403   4.053   8.717 -3.3614 -0.3630 -0.5987
  974MOL0     H31426   7.391   3.907   8.614 -4.6083 -1.3809  0.5369
  974MOL0     H31427   7.345   3.777   8.825 -2.9809 -1.4179 -0.0431
  974MOL0     H31428   7.329   3.936   8.903 -0.8707  0.7972 -0.5465
  974MOL0     H31429   7.178   3.920   8.648  0.9638  3.0038  0.9841
  974MOL0     H31430   7.140   3.773   8.751  0.4159  0.2486 -0.9185
  974MOL0     H31431   7.125   4.066   8.836  0.3110 -0.8287 -0.1850
  974MOL0     H31432   6.993   3.978   8.766 -0.2819 -1.2741 -0.6929
  974MOL0     H31433   6.999   3.815   8.981  1.3517 -0.5399 -1.9259
  974MOL0     H31434   7.134   3.910   9.035 -1.1500 -2.8577  1.7792
  974MOL0     H31435   6.947   3.996   9.150 -2.4271 -2.1549 -1.1215
  974MOL0     H31436   7.004   4.106   9.032  0.5535 -0.0600  0.2439
  974MOL0     H31437   6.799   4.012   8.893  1.3373 -2.4718 -1.3216
  974MOL0     H31438   6.768   3.905   9.043  2.0595 -0.1160  0.7136
  974MOL0     H31439   6.785   4.139   9.166 -1.7423  4.5869 -0.1592
  974MOL0     H31440   6.628   4.082   9.082 -0.5750  1.3271  1.4983
  974MOL0     H31441   6.526   4.296   9.015  0.9625 -1.6599  0.9917
  974MOL0     H31442   6.498   4.551   8.892 -0.5234 -0.2086 -0.6183
  974MOL0     H31443   6.613   4.588   8.772 -2.0888 -0.2981 -0.8045
  974MOL0     H31444   6.383   4.375   8.772 -0.0795 -0.5612 -0.5544
  974MOL0     H31445   6.503   4.378   8.638  0.3488 -1.6255  0.8474
  974MOL0     H31446   6.438   4.604   8.577  0.0517  0.8082 -0.1840
  974MOL0     H31447   6.322   4.622   8.716 -0.3761 -0.7974 -0.4569
  974MOL0     H31448   6.212   4.570   8.508 -1.4198  0.6766  3.3792
  974MOL0     H31449   6.187   4.430   8.613 -1.4367  0.7275 -1.0262
  974MOL0     H31450   6.065   4.476   8.404  1.6056 -0.5244  1.2014
  974MOL0     H31451   5.907   4.495   8.189  1.8435 -0.9917 -4.7446
  974MOL0     H31452   5.830   4.336   8.146  0.5624 -0.6209  1.1560
  974MOL0     H31453   5.824   4.385   8.304  1.0107 -0.3114  0.9677
  974MOL0     H31454   5.983   4.310   7.710 -0.6429  0.2062  0.5420
  974MOL0     H31455   5.808   4.246   7.525  0.1472 -1.5145  0.2254
  974MOL0     H31456   5.435   3.991   7.651  2.2018  0.7531  1.9696
  974MOL0     H31457   5.398   4.154   7.702  1.2573  0.4210  0.5204
  974MOL0     H31458   5.358   4.223   7.460 -3.8607 -0.0684 -1.4101
  974MOL0     H31459   5.391   4.043   7.431  1.3821 -0.7161  1.6325
  974MOL0     H31460   5.185   3.985   7.506 -0.3630  0.1310  0.1368
  974MOL0     H31461   5.140   4.158   7.471 -1.5943  1.0889  2.8950
  974MOL0     H31462   5.218   4.037   7.744 -2.3976  0.0799  1.6979
  974MOL0     H31463   5.158   4.199   7.723  0.5511 -1.1538  3.5756
  974MOL0     H31464   5.004   3.937   7.651 -3.4727 -0.1256 -0.3544
  974MOL0     H31465   4.944   4.104   7.626  1.4236  1.8563  0.3214
  974MOL0     H31466   5.048   4.015   7.906 -0.5608  0.9582  1.6582
  974MOL0     H31467   4.936   4.140   7.872 -0.2828  1.0906 -2.9866
  974MOL0     H31468   4.860   3.901   7.955 -2.5320 -2.1777 -0.5216
  974MOL0     H31469   4.885   3.841   7.793 -0.8881  0.0738 -1.0182
  974MOL0     H31470   4.730   3.965   7.684 -0.0810 -0.3078  0.2637
  974MOL0     H31471   4.729   4.085   7.819  0.3527  0.7452 -0.8761
  974MOL0     H31472   5.577   4.060   7.831 -0.7317  1.1539 -1.4446
  974MOL0     H31473   5.752   4.107   7.995  0.2876  1.7159 -0.3196
  974MOL0     H31474   6.263   4.122   8.123  0.5818  2.0074 -2.0960
  974MOL0     H31475   6.406   4.239   8.300  0.8384  4.5452  0.5271
  974MOL0     H31476   7.778   3.831   8.863 -0.1554  0.5573  0.2900
  974MOL0     H31477   7.994   3.859   8.755 -1.0705  0.4831  0.4009
  974MOL0     H31478   8.256   4.074   8.521  2.3930  3.5749 -0.5911
  974MOL0     H31479   8.501   4.123   8.431  0.6010  0.7294  0.7169
  974MOL0     H31480   8.682   3.965   8.374  1.9969  3.4159 -0.2289
  974MOL0     H31481   8.658   3.845   8.249 -0.5504 -0.1077 -0.0576
  974MOL0     H31482   8.833   4.085   8.194  0.8094 -0.5144  1.1849
  974MOL0     H31483   8.829   3.921   8.124  0.8113  1.2620 -0.7704
  974MOL0     H31484   8.908   4.014   8.414  2.0349  0.0528  0.3387
  974MOL0     H31485   9.014   3.966   8.287 -0.3199 -1.3532  0.6886
  974MOL0     H31486   8.878   3.743   8.270 -0.1186 -1.2831  0.1432
  974MOL0     H31487   8.843   3.776   8.439 -1.7633 -4.0105 -1.9909
  974MOL0     H31488   9.247   3.676   8.482  0.8436  0.3413 -1.5026
  974MOL0     H31489   8.419   3.895   8.091 -1.1467 -0.6668 -0.4501
  974MOL0     H31490   8.163   3.856   8.170 -0.7071 -1.1819  1.7489
  975MOL0     O31491   8.109   2.136   7.944  0.0716 -0.3283 -0.0319
  975MOL0     C31492   8.039   2.067   8.018 -0.2021  0.1966  0.9008
  975MOL0     O31493   7.901   2.059   8.007  0.3674 -0.0780  0.0866
  975MOL0     C31494   7.831   2.126   7.909  0.1274  0.8271  0.8004
  975MOL0     C31495   7.747   2.051   7.824 -0.4074  0.3266  0.1340
  975MOL0     C31496   7.655   2.127   7.740  0.6474 -0.1630 -0.2090
  975MOL0     C31497   7.666   2.271   7.728  0.1411 -0.1483 -0.0061
  975MOL0     O31498   7.585   2.344   7.638  0.0477  0.4365  0.3739
  975MOL0     C31499   7.480   2.278   7.570  0.3730  0.5658  0.2939
  975MOL0     C31500   7.387   2.386   7.522  0.9445 -0.9162  0.3195
  975MOL0     C31501   7.273   2.312   7.452 -0.7230 -0.6994 -0.4297
  975MOL0     C31502   7.194   2.410   7.369  0.2021 -0.8264  0.4452
  975MOL0     C31503   7.104   2.344   7.262 -0.2654  0.3594 -0.0427
  975MOL0     C31504   7.013   2.247   7.323  0.5490 -0.2054 -0.9641
  975MOL0     C31505   6.911   2.213   7.223 -0.2933  0.5145 -0.0343
  975MOL0     C31506   6.788   2.146   7.281  0.0115  0.2973  0.1463
  975MOL0     N31507   6.690   2.118   7.172 -0.8659  0.4171  0.8613
  975MOL0     C31508   6.621   2.223   7.098  0.0797 -0.4666 -0.9144
  975MOL0     C31509   6.548   2.153   7.008 -0.1914 -0.4256  0.4603
  975MOL0     C31510   6.435   2.215   6.922 -0.7418  0.2531 -0.1231
  975MOL0     C31511   6.300   2.171   6.971  1.5517 -0.7877 -0.0883
  975MOL0     C31512   6.184   2.251   6.921  0.8578  0.4311  0.4590
  975MOL0     C31513   6.046   2.205   6.974  0.1191  0.0966 -0.5325
  975MOL0     O31514   6.033   2.063   6.994  0.2557  0.4869 -0.0807
  975MOL0     C31515   5.911   2.015   7.042  0.6142  0.4875  0.0385
  975MOL0     C31516   5.902   1.880   7.073 -0.2638 -0.0112  0.1296
  975MOL0     C31517   5.779   1.807   7.094  0.6298 -0.0205  0.6647
  975MOL0     C31518   5.799   1.665   7.138 -0.0254  0.4314 -0.2837
  975MOL0     C31519   5.657   1.881   7.089 -0.1945  0.1769  0.5524
  975MOL0     C31520   5.526   1.816   7.098 -0.3769 -0.0779 -0.2796
  975MOL0     O31521   5.526   1.688   7.147 -0.3654 -0.2582  0.7520
  975MOL0     C31522   5.408   1.627   7.200 -0.2753 -1.1114 -0.0853
  975MOL0     C31523   5.298   1.694   7.266 -0.3645  0.3231  0.6829
  975MOL0     C31524   5.192   1.619   7.315 -0.0469  0.0899 -0.4889
  975MOL0     C31525   5.202   1.481   7.320  0.5611  0.1414 -0.6551
  975MOL0     O31526   5.109   1.399   7.378 -0.3003 -0.2276 -0.0938
  975MOL0     C31527   4.986   1.448   7.415 -0.4007 -0.2005  0.8628
  975MOL0     C31528   4.894   1.471   7.286 -0.0774  0.7491  0.1826
  975MOL0     C31529   4.760   1.556   7.315  0.0059 -0.5160  0.1280
  975MOL0     C31530   4.645   1.461   7.345  0.4740  0.6931 -0.1105
  975MOL0     C31531   4.519   1.534   7.399 -0.4295 -0.4183  0.3983
  975MOL0     C31532   4.454   1.620   7.292  0.1544 -0.5289  0.0679
  975MOL0     C31533   4.307   1.655   7.328 -0.2452 -0.0223 -0.5896
  975MOL0     C31534   4.223   1.692   7.209  0.7810 -0.1372  0.1321
  975MOL0    Cl31535   4.169   1.550   7.113 -0.1144 -0.4070 -0.5031
  975MOL0     C31536   5.305   1.409   7.263 -0.3929 -0.2200  0.2521
  975MOL0     C31537   5.410   1.487   7.202 -0.3047  0.3906 -0.1283
  975MOL0     O31538   5.427   1.877   7.069  0.3825 -0.5443  0.2962
  975MOL0     C31539   5.663   2.021   7.063 -0.0898 -0.2404  0.0832
  975MOL0     C31540   5.787   2.084   7.043  0.6253  0.1201  0.3953
  975MOL0     N31541   6.577   2.016   7.025  1.2672  0.0316  0.0369
  975MOL0     N31542   6.667   1.997   7.111 -0.3437 -0.2253 -0.4701
  975MOL0     C31543   7.765   2.337   7.801 -0.5088  0.5535 -0.1187
  975MOL0     C31544   7.838   2.259   7.890 -0.1108  0.0914 -0.4733
  975MOL0     C31545   8.106   1.964   8.106 -0.2838  0.1026 -0.0297
  975MOL0     C31546   8.241   1.986   8.159  0.2913 -0.2635  0.4420
  975MOL0     C31547   8.295   1.901   8.250 -0.0765  0.2555 -0.1454
  975MOL0     C31548   8.226   1.783   8.285 -0.3326 -0.8298 -0.4590
  975MOL0     O31549   8.273   1.692   8.382  0.7199 -0.3334  0.0440
  975MOL0     C31550   8.410   1.701   8.440  0.2668 -0.0210  0.9688
  975MOL0     C31551   8.438   1.589   8.539  0.5035 -0.0402 -0.3604
  975MOL0     C31552   8.461   1.454   8.475 -0.4211 -0.2894  0.4120
  975MOL0     C31553   8.490   1.333   8.571  0.0927  0.5497  0.0468
  975MOL0     C31554   8.358   1.309   8.642  0.0094  0.2760  0.7189
  975MOL0     C31555   8.246   1.310   8.692 -0.2155 -0.1033  0.3607
  975MOL0     C31556   8.102   1.765   8.238 -0.3077  0.1672 -1.2749
  975MOL0     C31557   8.034   1.857   8.149  0.6068  0.3649  0.0832
  975MOL0     H31558   7.725   1.945   7.826  1.6967 -0.1677 -0.2781
  975MOL0     H31559   7.583   2.080   7.674 -0.7153  2.9748 -1.1560
  975MOL0     H31560   7.513   2.225   7.481  0.2210  1.8325 -0.5382
  975MOL0     H31561   7.427   2.209   7.636  2.4215  0.4267  1.8796
  975MOL0     H31562   7.350   2.453   7.601  2.1154 -1.1645  1.1052
  975MOL0     H31563   7.431   2.451   7.446 -3.9826  0.7026 -1.5798
  975MOL0     H31564   7.333   2.249   7.386 -1.3505 -1.2409 -0.4818
  975MOL0     H31565   7.214   2.253   7.523 -1.9425  2.2517  1.2103
  975MOL0     H31566   7.133   2.473   7.435 -2.1355 -1.7989 -0.6759
  975MOL0     H31567   7.255   2.474   7.305  0.5225 -1.9609 -0.4099
  975MOL0     H31568   7.046   2.425   7.215 -0.5428  1.4971  2.1506
  975MOL0     H31569   7.172   2.293   7.193  1.5494  0.7796  1.3445
  975MOL0     H31570   7.066   2.161   7.364 -1.6683 -1.8275 -1.2773
  975MOL0     H31571   6.964   2.298   7.406  2.9203  3.0470 -1.3960
  975MOL0     H31572   6.883   2.301   7.165 -0.0245  1.5971  1.4069
  975MOL0     H31573   6.968   2.152   7.152  0.1373 -0.2097  0.9011
  975MOL0     H31574   6.735   2.219   7.343 -0.8755  1.3687 -1.7695
  975MOL0     H31575   6.809   2.059   7.343 -0.6343 -0.1685 -0.2833
  975MOL0     H31576   6.612   2.329   7.116  0.5605  0.0873 -3.4875
  975MOL0     H31577   6.428   2.323   6.941 -2.0269 -0.0905  1.5351
  975MOL0     H31578   6.450   2.202   6.814  2.3031  0.6585  0.1702
  975MOL0     H31579   6.302   2.158   7.080 -2.5546  0.5922  0.3297
  975MOL0     H31580   6.293   2.074   6.920 -1.6747 -0.8357  0.2340
  975MOL0     H31581   6.185   2.241   6.812 -1.3944  1.0240  0.3383
  975MOL0     H31582   6.197   2.356   6.951  0.9924  0.2497  1.0448
  975MOL0     H31583   5.967   2.237   6.905 -1.3904 -0.4992  0.8577
  975MOL0     H31584   6.043   2.266   7.064  0.8038 -0.0784 -0.3847
  975MOL0     H31585   5.998   1.831   7.075 -1.0118 -1.5164  0.0615
  975MOL0     H31586   5.737   1.594   7.083  0.2724  0.7476 -1.0304
  975MOL0     H31587   5.905   1.638   7.139 -0.3346 -0.9545  1.5465
  975MOL0     H31588   5.760   1.653   7.240  0.0603  0.2879 -0.2683
  975MOL0     H31589   5.312   1.801   7.277  2.2810  0.0404  0.7429
  975MOL0     H31590   5.105   1.678   7.341  1.2227  2.7514 -1.8561
  975MOL0     H31591   4.934   1.383   7.486 -0.6521 -2.8314 -1.6064
  975MOL0     H31592   5.012   1.546   7.458  0.0310 -0.4921  1.2770
  975MOL0     H31593   4.961   1.518   7.213  0.6674 -1.2689 -0.5262
  975MOL0     H31594   4.866   1.376   7.238 -0.3705  1.8899 -2.0423
  975MOL0     H31595   4.744   1.614   7.223  1.2223  0.8427  0.7157
  975MOL0     H31596   4.777   1.628   7.395 -0.9694 -1.0243  0.7967
  975MOL0     H31597   4.614   1.402   7.258  1.8032 -1.2671  0.6604
  975MOL0     H31598   4.684   1.388   7.417  0.5588 -0.5074 -1.3169
  975MOL0     H31599   4.548   1.594   7.486  4.8153  0.1050 -1.3096
  975MOL0     H31600   4.445   1.460   7.431 -1.0932 -0.2077 -0.6250
  975MOL0     H31601   4.519   1.708   7.278  1.0898 -1.0452  0.9914
  975MOL0     H31602   4.447   1.569   7.196 -1.8858  0.8161 -0.5706
  975MOL0     H31603   4.306   1.738   7.401  1.3492 -0.1929 -0.3363
  975MOL0     H31604   4.267   1.570   7.383 -0.3315  0.6664  0.4493
  975MOL0     H31605   4.280   1.748   7.135  0.9481 -1.9800 -1.2020
  975MOL0     H31606   4.140   1.759   7.235 -0.1003 -0.6593 -1.2111
  975MOL0     H31607   5.315   1.301   7.274 -1.2324 -0.5306 -1.7107
  975MOL0     H31608   5.503   1.443   7.168 -0.7563 -0.2536 -0.5510
  975MOL0     H31609   5.571   2.075   7.046  0.9317  1.1193 -1.5011
  975MOL0     H31610   5.797   2.190   7.022  0.3102  0.0379 -0.1960
  975MOL0     H31611   7.776   2.445   7.810 -4.0879  0.8942  2.5785
  975MOL0     H31612   7.892   2.318   7.963  0.4314 -0.4615 -0.4166
  975MOL0     H31613   8.309   2.062   8.120  2.1654 -3.0373 -2.1002
  975MOL0     H31614   8.402   1.903   8.266  0.4690 -0.4147 -3.0819
  975MOL0     H31615   8.488   1.708   8.364 -0.0384 -0.9779  0.5529
  975MOL0     H31616   8.400   1.795   8.495  1.5788  0.0968  1.0180
  975MOL0     H31617   8.357   1.586   8.613 -0.6879  0.0104 -1.6265
  975MOL0     H31618   8.528   1.616   8.595 -1.3300  3.7213  1.1317
  975MOL0     H31619   8.539   1.484   8.404 -1.6915  0.2016 -0.8232
  975MOL0     H31620   8.369   1.428   8.421 -0.1919  0.6145 -0.4312
  975MOL0     H31621   8.572   1.343   8.642  0.7598 -1.9026 -0.2710
  975MOL0     H31622   8.519   1.251   8.503  1.4296  0.6022  0.5241
  975MOL0     H31623   8.146   1.298   8.728 -0.1158 -0.6773  0.4728
  975MOL0     H31624   8.044   1.684   8.283  1.0820  0.8252  1.9490
  975MOL0     H31625   7.930   1.830   8.129  1.6294 -4.5239  0.0058
  976MOL0     O31626   8.172   4.404   8.592  0.0085 -0.2304  0.0982
  976MOL0     C31627   8.240   4.397   8.696 -0.7331  0.5528  0.5410
  976MOL0     O31628   8.195   4.404   8.823 -0.4687 -0.3971 -0.0538
  976MOL0     C31629   8.058   4.395   8.838 -0.6301 -0.3196 -0.5316
  976MOL0     C31630   7.974   4.292   8.786  0.1674 -0.5094  0.5639
  976MOL0     C31631   7.839   4.303   8.808 -0.4398  0.0532  0.8839
  976MOL0     C31632   7.785   4.410   8.887  0.0422 -0.3081  0.1678
  976MOL0     O31633   7.654   4.441   8.900  0.1276  0.3603  0.4080
  976MOL0     C31634   7.559   4.365   8.819 -0.2180 -0.0928 -0.4673
  976MOL0     C31635   7.410   4.398   8.859  0.4939  0.1569 -0.1362
  976MOL0     C31636   7.384   4.352   9.004 -0.5821 -1.0225  0.1128
  976MOL0     C31637   7.248   4.390   9.058 -0.3812 -0.6428  0.1887
  976MOL0     C31638   7.209   4.299   9.184  0.0081  0.1389  0.4069
  976MOL0     C31639   7.084   4.342   9.248 -0.0813  0.5150  0.0484
  976MOL0     C31640   7.048   4.261   9.378 -0.2684 -0.7635  0.9139
  976MOL0     C31641   7.128   4.310   9.500 -0.8189 -0.6740 -0.5110
  976MOL0     N31642   7.096   4.449   9.542  0.2993  0.5288 -0.8047
  976MOL0     C31643   6.967   4.477   9.590 -0.0323  0.3364 -0.7747
  976MOL0     C31644   6.971   4.610   9.610 -0.3371  0.2153  0.1547
  976MOL0     C31645   6.859   4.677   9.697 -0.3471 -0.4196  0.1620
  976MOL0     C31646   6.717   4.686   9.621 -0.6751 -0.1249  0.4565
  976MOL0     C31647   6.627   4.563   9.650  0.9616  0.7705 -0.0825
  976MOL0     C31648   6.496   4.567   9.573 -0.4712  0.2753  0.1884
  976MOL0     O31649   6.422   4.459   9.624 -0.0579  0.2481 -0.8630
  976MOL0     C31650   6.293   4.435   9.580  1.1186  0.1325 -1.2589
  976MOL0     C31651   6.224   4.326   9.636 -0.4116 -0.1912 -0.2248
  976MOL0     C31652   6.091   4.293   9.597 -0.3684  0.3529  0.1368
  976MOL0     C31653   6.020   4.179   9.659  0.1823  0.1668 -0.6253
  976MOL0     C31654   6.032   4.368   9.492 -0.5617  0.0161  0.5025
  976MOL0     C31655   5.903   4.335   9.427  0.5353  0.3703  0.3387
  976MOL0     O31656   5.847   4.437   9.354  0.0373  0.2665  0.4315
  976MOL0     C31657   5.741   4.394   9.270 -0.0759  0.4307 -0.4907
  976MOL0     C31658   5.608   4.378   9.324 -0.2133 -0.8306  0.4527
  976MOL0     C31659   5.506   4.329   9.245  0.1505 -0.4893 -0.0219
  976MOL0     C31660   5.528   4.284   9.113 -0.4059 -0.0817 -0.0342
  976MOL0     O31661   5.442   4.222   9.036  0.7052  0.7371 -0.6836
  976MOL0     C31662   5.320   4.185   9.105 -0.1381  0.1811  0.7953
  976MOL0     C31663   5.231   4.127   8.989  0.8270  0.1653  0.4352
  976MOL0     C31664   5.149   4.228   8.914  0.7505 -0.0769 -0.2285
  976MOL0     C31665   5.089   4.170   8.784 -0.3548 -0.1962 -0.5915
  976MOL0     C31666   5.016   4.281   8.698  0.2522  0.1795 -1.1541
  976MOL0     C31667   4.874   4.323   8.752 -0.2816 -0.5346 -0.1982
  976MOL0     C31668   4.778   4.204   8.781 -0.0252 -0.4450  0.5916
  976MOL0     C31669   4.639   4.246   8.806  0.5460  0.1512 -0.3921
  976MOL0    Cl31670   4.629   4.360   8.942  0.2120  0.1143  0.1640
  976MOL0     C31671   5.656   4.318   9.052  0.0495  0.1854 -0.3413
  976MOL0     C31672   5.758   4.377   9.131 -0.0524 -0.3061  0.9497
  976MOL0     O31673   5.878   4.215   9.406 -0.2862 -0.0493 -0.3099
  976MOL0     C31674   6.104   4.477   9.438 -1.3507  0.0360  0.7920
  976MOL0     C31675   6.232   4.507   9.483 -0.0743 -0.7505 -0.1045
  976MOL0     N31676   7.094   4.658   9.576  0.3370  0.2192 -0.2738
  976MOL0     N31677   7.166   4.563   9.532  0.6219  0.2745 -0.3774
  976MOL0     C31678   7.874   4.501   8.944  0.1514  0.9359  0.2438
  976MOL0     C31679   8.006   4.487   8.927  0.3033  0.1211  0.7267
  976MOL0     C31680   8.389   4.392   8.684  0.3737  0.0924 -0.2964
  976MOL0     C31681   8.455   4.436   8.573  0.6643  0.0148 -0.0907
  976MOL0     C31682   8.595   4.441   8.566  0.3861  0.1269  0.1714
  976MOL0     C31683   8.675   4.388   8.673  0.2004 -0.6302  0.6305
  976MOL0     O31684   8.812   4.393   8.656 -0.1769  0.5548  0.5912
  976MOL0     C31685   8.899   4.368   8.772  0.4943  0.3244 -0.0936
  976MOL0     C31686   9.043   4.413   8.755 -0.1201  0.6119 -0.8829
  976MOL0     C31687   9.098   4.345   8.636  0.3008 -0.7811  0.1534
  976MOL0     C31688   9.099   4.441   8.516  0.0921  0.4060  0.9819
  976MOL0     C31689   9.200   4.551   8.526 -0.1747 -0.4128  0.1561
  976MOL0     C31690   9.273   4.646   8.529  0.4180 -0.6792  0.2146
  976MOL0     C31691   8.601   4.350   8.790  0.6256 -0.6914  0.3130
  976MOL0     C31692   8.462   4.349   8.797  0.1309  0.1727  0.3503
  976MOL0     H31693   8.008   4.200   8.739  3.1098  0.6270  0.2877
  976MOL0     H31694   7.780   4.224   8.762  2.2629 -0.4184 -2.1181
  976MOL0     H31695   7.574   4.403   8.718 -1.0864 -1.3899 -1.1152
  976MOL0     H31696   7.566   4.256   8.811 -2.2210 -0.1594 -2.0887
  976MOL0     H31697   7.408   4.507   8.866 -2.0627  0.0419  3.2793
  976MOL0     H31698   7.336   4.353   8.793 -1.6825  0.8325  1.7467
  976MOL0     H31699   7.397   4.243   9.002  1.7315 -0.8728  2.1975
  976MOL0     H31700   7.472   4.380   9.062 -0.1365 -2.1993  0.0356
  976MOL0     H31701   7.260   4.494   9.088 -0.4382 -0.9655  1.3625
  976MOL0     H31702   7.171   4.378   8.980 -2.5169  1.8392  1.7635
  976MOL0     H31703   7.188   4.198   9.149 -1.8402  1.2527 -1.9904
  976MOL0     H31704   7.291   4.297   9.257  0.2367  1.5415  0.2255
  976MOL0     H31705   7.083   4.450   9.267 -1.7774  0.7705 -1.2549
  976MOL0     H31706   6.994   4.344   9.187 -0.4476 -0.6889  0.5172
  976MOL0     H31707   6.943   4.283   9.403  0.0414 -1.2277  2.7213
  976MOL0     H31708   7.056   4.154   9.359 -1.1247 -0.4285 -1.8758
  976MOL0     H31709   7.235   4.304   9.474 -0.3605 -0.2663  1.1563
  976MOL0     H31710   7.109   4.236   9.578 -0.5811 -1.8943 -1.5633
  976MOL0     H31711   6.891   4.401   9.605  1.7868 -1.7849 -1.6518
  976MOL0     H31712   6.835   4.642   9.798 -1.5546 -2.0796 -0.6547
  976MOL0     H31713   6.886   4.782   9.714 -1.3923 -0.0142 -0.5729
  976MOL0     H31714   6.735   4.714   9.517 -0.7623  1.0877  0.7475
  976MOL0     H31715   6.677   4.773   9.674  1.6629 -1.1133  4.3535
  976MOL0     H31716   6.621   4.563   9.759  0.2062  1.2105 -0.1175
  976MOL0     H31717   6.667   4.472   9.604 -1.2635 -0.3663  0.0846
  976MOL0     H31718   6.515   4.552   9.467 -1.8868  2.0299 -0.3579
  976MOL0     H31719   6.449   4.666   9.579 -1.4656  0.0510 -2.6640
  976MOL0     H31720   6.271   4.282   9.723 -2.2801  2.6587  2.4360
  976MOL0     H31721   6.057   4.083   9.622  0.6678 -0.4954  1.4355
  976MOL0     H31722   6.028   4.186   9.768  0.4692 -2.8340 -0.3753
  976MOL0     H31723   5.912   4.173   9.643 -0.5555  0.2068  3.3737
  976MOL0     H31724   5.605   4.405   9.429 -0.4879 -1.2980  0.5642
  976MOL0     H31725   5.414   4.305   9.296  0.5153  0.2575  1.0314
  976MOL0     H31726   5.340   4.106   9.178  2.8897 -0.1200 -0.2298
  976MOL0     H31727   5.263   4.274   9.135 -0.3603  0.6287 -0.8630
  976MOL0     H31728   5.292   4.059   8.929 -0.6766 -0.5545 -0.3245
  976MOL0     H31729   5.160   4.055   9.030  2.0856 -1.2006  0.3255
  976MOL0     H31730   5.224   4.300   8.877  1.7466 -1.0531 -0.1604
  976MOL0     H31731   5.082   4.278   8.985  2.4975  1.5863  0.3530
  976MOL0     H31732   5.173   4.125   8.731  0.7572 -0.1695  1.0573
  976MOL0     H31733   5.019   4.091   8.811 -0.3215 -0.4863 -1.3400
  976MOL0     H31734   5.011   4.238   8.597 -0.8562 -0.0480 -1.0148
  976MOL0     H31735   5.081   4.369   8.694 -0.0402  0.5784  1.2404
  976MOL0     H31736   4.894   4.374   8.846  1.2034 -3.4113  1.1710
  976MOL0     H31737   4.819   4.387   8.682 -0.8106  0.0233  0.7030
  976MOL0     H31738   4.806   4.148   8.871 -1.6047 -0.6121  1.0105
  976MOL0     H31739   4.782   4.141   8.692  1.4205  2.2114 -1.3716
  976MOL0     H31740   4.593   4.149   8.827  2.4167 -0.8121 -0.5358
  976MOL0     H31741   4.584   4.278   8.717  1.1544 -1.6885 -1.4713
  976MOL0     H31742   5.670   4.299   8.946 -0.0599 -1.0700 -0.1535
  976MOL0     H31743   5.857   4.404   9.096 -1.0158  3.1092  0.5652
  976MOL0     H31744   6.076   4.540   9.354  0.9055 -0.3275 -0.3125
  976MOL0     H31745   6.285   4.591   9.438 -0.6749 -0.0698  0.4331
  976MOL0     H31746   7.834   4.581   9.006  1.2328 -0.9298  3.6330
  976MOL0     H31747   8.078   4.562   8.961 -0.1521  1.2667 -0.7283
  976MOL0     H31748   8.398   4.470   8.487  2.1562  3.5888  0.1442
  976MOL0     H31749   8.629   4.480   8.470  1.7613 -0.2921  0.4553
  976MOL0     H31750   8.863   4.414   8.865  4.3575  0.2286  1.6452
  976MOL0     H31751   8.906   4.262   8.797  0.9027  0.9015  2.4824
  976MOL0     H31752   9.090   4.369   8.843 -0.9121  1.2511 -0.1241
  976MOL0     H31753   9.055   4.522   8.751  3.8667  0.3651  0.3274
  976MOL0     H31754   9.039   4.259   8.602  0.3240 -1.0671  0.8339
  976MOL0     H31755   9.201   4.314   8.656  0.8544  1.5556  1.2494
  976MOL0     H31756   8.998   4.480   8.499  0.7280  0.8586 -2.3315
  976MOL0     H31757   9.128   4.377   8.432  1.3218  0.9407  0.9877
  976MOL0     H31758   9.332   4.735   8.536 -1.2595  0.4319  0.7013
  976MOL0     H31759   8.657   4.322   8.879 -1.0003  0.6885  1.8359
  976MOL0     H31760   8.421   4.328   8.895  0.3916  1.3196  0.7231
  977MOL0     O31761   0.762   1.489  10.514 -0.3636 -0.3149  0.3043
  977MOL0     C31762   0.802   1.378  10.468  0.3831 -0.2463 -0.2051
  977MOL0     O31763   0.724   1.282  10.407 -0.5377 -0.5002 -0.3412
  977MOL0     C31764   0.587   1.285  10.400 -0.2773  0.9303 -0.1097
  977MOL0     C31765   0.506   1.261  10.518 -0.3903 -0.2458  0.3414
  977MOL0     C31766   0.368   1.263  10.513  0.2334 -0.1346  0.1880
  977MOL0     C31767   0.307   1.285  10.390  0.1948 -0.2996 -0.5852
  977MOL0     O31768   0.166   1.288  10.397 -0.2441 -0.7832  0.0436
  977MOL0     C31769   0.099   1.293  10.266  0.1228  0.5819  0.7751
  977MOL0     C31770  -0.051   1.258  10.273  0.0019  0.2991 -0.0637
  977MOL0     C31771  -0.134   1.362  10.355  0.4106 -0.3278  0.2742
  977MOL0     C31772  -0.283   1.369  10.301 -0.4628  1.0648 -0.6383
  977MOL0     C31773  -0.368   1.491  10.344  0.2410  0.2956 -0.1511
  977MOL0     C31774  -0.509   1.444  10.297  0.5389 -0.0190  0.3099
  977MOL0     C31775  -0.617   1.554  10.346  0.4687 -0.0413  1.1586
  977MOL0     C31776  -0.760   1.506  10.304 -0.2139  0.2496 -0.3961
  977MOL0     N31777  -0.857   1.605  10.356  0.5961  0.2612 -0.7729
  977MOL0     C31778  -0.832   1.737  10.393  0.0281 -0.0408  0.5061
  977MOL0     C31779  -0.942   1.784  10.454  0.6725 -0.2900 -0.0257
  977MOL0     C31780  -0.973   1.921  10.501  0.1360 -0.7709  0.0334
  977MOL0     C31781  -1.023   2.015  10.392  0.1176  0.8965 -0.3599
  977MOL0     C31782  -1.163   1.972  10.337  0.1354 -0.7176  0.2053
  977MOL0     C31783  -1.206   2.062  10.221 -0.4704  0.3474  0.1968
  977MOL0     O31784  -1.137   2.030  10.101  0.0904 -0.2775  0.2185
  977MOL0     C31785  -1.187   2.080   9.988  0.6843 -0.0032 -0.3904
  977MOL0     C31786  -1.287   2.184   9.979  0.2341  0.3117 -0.3009
  977MOL0     C31787  -1.326   2.242   9.857 -0.1828  0.1874 -0.6044
  977MOL0     C31788  -1.420   2.364   9.883 -0.1526  0.9581  0.4841
  977MOL0     C31789  -1.256   2.204   9.740  1.2924  0.0826  0.9925
  977MOL0     C31790  -1.295   2.266   9.614 -0.0987 -0.5754  0.5548
  977MOL0     O31791  -1.269   2.189   9.500 -0.1898 -0.1379 -0.1996
  977MOL0     C31792  -1.316   2.218   9.376  0.3279  0.4678 -0.9315
  977MOL0     C31793  -1.263   2.128   9.280  0.5392  0.0298  0.1044
  977MOL0     C31794  -1.294   2.146   9.144  0.1739 -0.1928  0.2152
  977MOL0     C31795  -1.369   2.252   9.100 -0.0514  0.2615 -0.9814
  977MOL0     O31796  -1.391   2.279   8.965  1.2195  0.0717  0.0181
  977MOL0     C31797  -1.370   2.178   8.865 -0.1564  0.1408  0.0311
  977MOL0     C31798  -1.463   2.211   8.745  0.2016 -0.5535 -0.4181
  977MOL0     C31799  -1.434   2.124   8.620 -0.0078 -0.3511 -0.5155
  977MOL0     C31800  -1.506   1.982   8.632 -0.4269  0.1315  1.5583
  977MOL0     C31801  -1.438   1.880   8.540 -0.3405  1.0521 -0.2934
  977MOL0     C31802  -1.463   1.910   8.393  0.6357 -0.5641  0.8254
  977MOL0     C31803  -1.396   1.807   8.302  0.4946 -0.5885 -0.1326
  977MOL0     C31804  -1.402   1.651   8.337  0.1683 -0.3834 -0.1444
  977MOL0    Cl31805  -1.571   1.585   8.332  0.0710 -0.2902 -0.0989
  977MOL0     C31806  -1.418   2.334   9.195  0.3390 -0.0932 -0.1694
  977MOL0     C31807  -1.398   2.318   9.330  0.2832  0.3060 -0.1909
  977MOL0     O31808  -1.347   2.380   9.606 -0.0121  0.2529 -0.5567
  977MOL0     C31809  -1.175   2.092   9.749 -0.8731  0.2164  0.1798
  977MOL0     C31810  -1.131   2.044   9.870 -0.6778 -0.9845  0.5656
  977MOL0     N31811  -1.029   1.673  10.466 -0.1045  1.0816  0.1437
  977MOL0     N31812  -0.975   1.567  10.412 -0.0236 -0.3776  0.7455
  977MOL0     C31813   0.383   1.331  10.275 -0.1073  0.6160  0.1719
  977MOL0     C31814   0.521   1.322  10.275  0.3620 -0.5084 -0.1263
  977MOL0     C31815   0.949   1.356  10.480 -0.3045  0.3015  0.0553
  977MOL0     C31816   1.003   1.236  10.424 -0.2942 -0.5297  0.4378
  977MOL0     C31817   1.131   1.210  10.432 -0.6171 -0.4222 -0.2776
  977MOL0     C31818   1.227   1.290  10.492  0.8955 -0.6165  0.4092
  977MOL0     O31819   1.352   1.246  10.494  0.2866  0.6501 -0.0882
  977MOL0     C31820   1.436   1.300  10.593 -0.3535 -0.2491 -0.2639
  977MOL0     C31821   1.514   1.409  10.528  0.4879 -1.3468  0.1636
  977MOL0     C31822   1.610   1.463  10.642  0.5160  0.1640  0.9210
  977MOL0     C31823   1.707   1.571  10.582 -0.8905 -0.0269 -0.2260
  977MOL0     C31824   1.825   1.583  10.668 -0.1605  1.1444 -0.3304
  977MOL0     C31825   1.938   1.567  10.713 -0.0618 -0.1377  0.0226
  977MOL0     C31826   1.177   1.397  10.558  0.3099 -0.2416 -0.8596
  977MOL0     C31827   1.041   1.436  10.556 -0.7413  0.5752  1.4220
  977MOL0     H31828   0.557   1.231  10.609 -1.4523 -2.9396  0.1505
  977MOL0     H31829   0.314   1.248  10.606  0.4617 -0.9492  0.2024
  977MOL0     H31830   0.099   1.395  10.226 -0.8602  0.9880  1.8065
  977MOL0     H31831   0.136   1.218  10.195 -2.0620 -0.5884  0.8061
  977MOL0     H31832  -0.094   1.263  10.173 -2.5632 -0.3430  0.9171
  977MOL0     H31833  -0.064   1.155  10.307  2.3040  0.0782  0.3524
  977MOL0     H31834  -0.141   1.338  10.461 -0.7170 -1.3548 -0.0187
  977MOL0     H31835  -0.085   1.459  10.346 -0.9848  0.3757 -0.1654
  977MOL0     H31836  -0.289   1.364  10.192 -3.1942  2.7408 -0.6379
  977MOL0     H31837  -0.333   1.278  10.336  1.1291  0.8465  1.2315
  977MOL0     H31838  -0.367   1.499  10.453  3.3908  0.1734 -0.0837
  977MOL0     H31839  -0.325   1.583  10.304  3.9607  0.3389  3.3052
  977MOL0     H31840  -0.513   1.440  10.188  0.1693  2.7415  0.1535
  977MOL0     H31841  -0.539   1.348  10.338 -0.0750  0.7001  1.6152
  977MOL0     H31842  -0.610   1.554  10.455  1.7162 -0.9627  1.1085
  977MOL0     H31843  -0.591   1.655  10.314 -0.2049 -0.0052  0.7088
  977MOL0     H31844  -0.766   1.404  10.343  3.5982 -0.9034 -2.3162
  977MOL0     H31845  -0.770   1.491  10.197  1.8202 -0.7167 -0.4918
  977MOL0     H31846  -0.751   1.803  10.364 -1.9343  0.5797 -4.4178
  977MOL0     H31847  -1.041   1.912  10.586  0.5768 -2.4636  0.2452
  977MOL0     H31848  -0.877   1.951  10.544 -0.3886 -0.4491  0.9991
  977MOL0     H31849  -0.947   2.026  10.314 -0.8345 -1.5134 -1.7335
  977MOL0     H31850  -1.041   2.114  10.433 -2.2041  0.1392  0.6026
  977MOL0     H31851  -1.238   1.988  10.414 -3.5826 -0.4823 -3.1614
  977MOL0     H31852  -1.180   1.867  10.312 -1.3098 -0.2205 -1.0326
  977MOL0     H31853  -1.180   2.163  10.253  3.1920 -1.2753  3.2725
  977MOL0     H31854  -1.313   2.049  10.205 -0.5114  2.4495 -1.6038
  977MOL0     H31855  -1.326   2.224  10.073  1.1363 -0.0472  0.2308
  977MOL0     H31856  -1.433   2.381   9.990 -2.8033 -0.1456  0.4052
  977MOL0     H31857  -1.391   2.457   9.834 -1.9091  0.4186 -1.7365
  977MOL0     H31858  -1.518   2.345   9.838  1.3780  0.7176 -3.1392
  977MOL0     H31859  -1.200   2.045   9.311  0.8958 -0.7076 -2.3648
  977MOL0     H31860  -1.245   2.078   9.075  0.4747 -0.6678  0.8796
  977MOL0     H31861  -1.265   2.167   8.836 -1.2035  1.0756 -4.9761
  977MOL0     H31862  -1.389   2.077   8.904  2.2575  0.4738  2.3639
  977MOL0     H31863  -1.564   2.200   8.785  0.7894  1.1804  1.7584
  977MOL0     H31864  -1.457   2.315   8.715  2.4596 -0.3712  0.4621
  977MOL0     H31865  -1.327   2.100   8.620  0.6306  1.8723  2.7341
  977MOL0     H31866  -1.468   2.175   8.529 -1.3586 -0.3303 -0.0136
  977MOL0     H31867  -1.502   1.933   8.729 -2.6239 -2.8767  0.2729
  977MOL0     H31868  -1.612   1.996   8.610 -1.2541 -2.4106  3.5209
  977MOL0     H31869  -1.486   1.784   8.557  2.8020 -0.6301 -0.2225
  977MOL0     H31870  -1.333   1.861   8.563 -0.5125  1.2701  0.7139
  977MOL0     H31871  -1.570   1.899   8.378  0.5684  1.0865 -0.1078
  977MOL0     H31872  -1.430   2.012   8.371  0.0756 -0.4336  0.5955
  977MOL0     H31873  -1.290   1.837   8.302 -0.5163  4.7756  5.0577
  977MOL0     H31874  -1.431   1.835   8.202 -1.1781  0.7127  0.7848
  977MOL0     H31875  -1.360   1.633   8.437  0.7339 -0.4119 -0.3832
  977MOL0     H31876  -1.343   1.599   8.261 -0.9239  0.4583 -1.6154
  977MOL0     H31877  -1.489   2.408   9.157 -3.2472 -4.7540 -3.8595
  977MOL0     H31878  -1.447   2.383   9.402  3.1048  0.5977  1.6053
  977MOL0     H31879  -1.130   2.051   9.659  1.5618  0.2161  1.3363
  977MOL0     H31880  -1.057   1.965   9.879  0.9059  0.1876 -1.3586
  977MOL0     H31881   0.338   1.374  10.186  1.9346  0.1037 -1.1876
  977MOL0     H31882   0.571   1.341  10.180  1.7028 -2.2747  0.1863
  977MOL0     H31883   0.939   1.163  10.375 -1.1523 -0.1792  1.0070
  977MOL0     H31884   1.163   1.109  10.409 -1.4234 -1.2257  1.8347
  977MOL0     H31885   1.392   1.339  10.685  0.6896  2.0045 -0.6695
  977MOL0     H31886   1.505   1.221  10.624  0.0688  0.5701  0.9189
  977MOL0     H31887   1.450   1.488  10.486 -1.0770 -1.4741  2.1853
  977MOL0     H31888   1.581   1.375  10.448  0.2580 -0.5425 -0.3818
  977MOL0     H31889   1.657   1.374  10.685  2.2747 -0.8664 -2.7437
  977MOL0     H31890   1.553   1.522  10.715  0.7688  0.1969  1.0905
  977MOL0     H31891   1.654   1.666  10.594 -0.7850  0.3104 -2.0711
  977MOL0     H31892   1.734   1.549  10.478  0.4103 -0.3668  0.1622
  977MOL0     H31893   2.040   1.554  10.740  0.5963 -0.3862 -2.3310
  977MOL0     H31894   1.229   1.461  10.629 -0.5606 -0.5150  0.0389
  977MOL0     H31895   1.001   1.527  10.599 -0.4388  0.8722  1.0793
  978MOL0     O31896   5.742   0.417   9.047  0.5865 -0.5003 -0.0243
  978MOL0     C31897   5.755   0.299   9.059 -0.4629  0.2360 -0.4487
  978MOL0     O31898   5.868   0.235   9.032 -0.1945  1.1261 -0.1296
  978MOL0     C31899   5.984   0.293   8.975  1.5900 -0.4622 -0.5999
  978MOL0     C31900   6.000   0.429   8.937 -0.2962  0.6222  0.0370
  978MOL0     C31901   6.120   0.470   8.875 -0.5950  0.3227  0.1719
  978MOL0     C31902   6.222   0.383   8.834  0.0337 -0.1321 -0.8336
  978MOL0     O31903   6.324   0.438   8.768 -0.4505  0.2837  0.2687
  978MOL0     C31904   6.454   0.373   8.769  0.6417 -0.1186 -0.2823
  978MOL0     C31905   6.559   0.465   8.705  0.7409 -0.2651 -0.3933
  978MOL0     C31906   6.707   0.403   8.724 -0.3941 -0.3206  0.4611
  978MOL0     C31907   6.817   0.506   8.683  0.3684  0.4682 -0.3750
  978MOL0     C31908   6.962   0.457   8.725  0.5412 -0.4364 -1.0200
  978MOL0     C31909   7.062   0.542   8.658  0.1767  0.0308  0.2319
  978MOL0     C31910   7.211   0.493   8.695 -0.2213  0.5854  0.5163
  978MOL0     C31911   7.252   0.353   8.669  0.4198  0.3170  0.6021
  978MOL0     N31912   7.217   0.303   8.530  0.4955  0.2974  0.5385
  978MOL0     C31913   7.306   0.293   8.430 -0.8354  0.0456 -0.0409
  978MOL0     C31914   7.241   0.246   8.324 -1.1389  0.4491  0.3026
  978MOL0     C31915   7.289   0.200   8.191 -0.8255  0.0525  0.8287
  978MOL0     C31916   7.426   0.268   8.152 -0.1482  0.5625 -0.0866
  978MOL0     C31917   7.546   0.180   8.190 -0.7886  0.1851  0.1379
  978MOL0     C31918   7.685   0.239   8.184 -0.4407 -0.2819  0.0654
  978MOL0     O31919   7.698   0.321   8.302  0.6279  0.7170 -0.3808
  978MOL0     C31920   7.824   0.311   8.353  0.4249  0.1355  0.2294
  978MOL0     C31921   7.862   0.209   8.447  0.3808 -0.4060 -0.5115
  978MOL0     C31922   7.990   0.202   8.493  0.1698 -0.3253 -0.0012
  978MOL0     C31923   8.029   0.096   8.594  0.1156  0.0074 -0.0289
  978MOL0     C31924   8.080   0.312   8.458 -0.1968 -0.0335 -0.1371
  978MOL0     C31925   8.214   0.317   8.509 -0.0516 -0.2255 -0.1756
  978MOL0     O31926   8.244   0.444   8.559  0.0835  0.5222 -0.6117
  978MOL0     C31927   8.377   0.461   8.599  1.0459 -0.3279 -0.1312
  978MOL0     C31928   8.414   0.461   8.734 -0.3894 -0.1731  0.1847
  978MOL0     C31929   8.556   0.476   8.769  0.1245  0.4609 -1.5970
  978MOL0     C31930   8.648   0.502   8.672 -0.5560  0.2524  1.1835
  978MOL0     O31931   8.775   0.518   8.719 -0.9403  0.0975 -0.4199
  978MOL0     C31932   8.879   0.519   8.618  0.7997 -0.5523  0.4770
  978MOL0     C31933   9.014   0.477   8.692  0.0266  0.1919  0.2061
  978MOL0     C31934   9.139   0.521   8.615 -0.2736  1.0986 -0.0527
  978MOL0     C31935   9.254   0.418   8.663  0.1482 -0.0823 -0.3816
  978MOL0     C31936   9.388   0.452   8.604  0.2841 -0.7589 -0.3958
  978MOL0     C31937   9.508   0.391   8.674  0.1928  0.2063  0.1374
  978MOL0     C31938   9.640   0.462   8.651  0.2526 -0.1886 -1.0624
  978MOL0     C31939   9.754   0.402   8.733  0.0734  0.0171  0.1021
  978MOL0    Cl31940   9.772   0.225   8.688 -0.6335  0.4378  0.1944
  978MOL0     C31941   8.609   0.507   8.536 -0.6344 -0.0850  0.2294
  978MOL0     C31942   8.478   0.480   8.499  0.2270  0.1255  0.2805
  978MOL0     O31943   8.290   0.221   8.506  0.3270  0.9801 -0.0017
  978MOL0     C31944   8.039   0.409   8.368  0.9691 -0.2253  0.2585
  978MOL0     C31945   7.917   0.401   8.309 -0.0632 -0.2371 -0.6922
  978MOL0     N31946   7.115   0.216   8.370 -0.2098 -0.6198 -0.1262
  978MOL0     N31947   7.100   0.253   8.490  0.4290  0.0596 -0.0061
  978MOL0     C31948   6.212   0.250   8.882  0.4362  0.3951 -0.5121
  978MOL0     C31949   6.088   0.212   8.950  0.3270 -0.0088  0.2174
  978MOL0     C31950   5.653   0.221   9.127  0.4580  0.8602 -0.2972
  978MOL0     C31951   5.542   0.288   9.183 -0.3178  0.2412 -0.5482
  978MOL0     C31952   5.449   0.228   9.264  0.1970  0.0795  0.1095
  978MOL0     C31953   5.460   0.089   9.289 -0.0417 -1.1228  1.2086
  978MOL0     O31954   5.371   0.017   9.364 -0.1623  0.0939  0.3287
  978MOL0     C31955   5.251   0.083   9.422  0.2012  0.0006  0.0016
  978MOL0     C31956   5.179  -0.012   9.514 -0.7723  0.0433 -0.8816
  978MOL0     C31957   5.065   0.064   9.586  0.3134 -0.1480  0.3154
  978MOL0     C31958   4.965  -0.031   9.661 -0.8343 -0.4113  0.0691
  978MOL0     C31959   5.044  -0.104   9.765  0.2436 -0.1884 -0.2974
  978MOL0     C31960   5.122  -0.161   9.839 -0.3690  0.2181  0.7762
  978MOL0     C31961   5.565   0.023   9.228 -0.0196 -0.0028 -0.1861
  978MOL0     C31962   5.665   0.076   9.143  0.1427  0.1429 -0.0077
  978MOL0     H31963   5.938   0.515   8.960 -1.5361 -0.2498  0.0714
  978MOL0     H31964   6.128   0.570   8.835 -1.1962 -0.1704 -1.2895
  978MOL0     H31965   6.486   0.355   8.872 -0.4984 -1.0102 -0.0547
  978MOL0     H31966   6.440   0.274   8.723  2.1419 -1.3037  1.6526
  978MOL0     H31967   6.532   0.473   8.599  0.2175 -0.3940 -0.2711
  978MOL0     H31968   6.556   0.567   8.744 -0.9791  0.5121 -2.3713
  978MOL0     H31969   6.727   0.387   8.831  0.7196  1.0059  0.4785
  978MOL0     H31970   6.703   0.313   8.662 -0.5701 -1.3479  1.9112
  978MOL0     H31971   6.808   0.535   8.577 -0.9379 -0.2856 -0.4968
  978MOL0     H31972   6.800   0.598   8.739 -0.2438  0.5370 -0.6625
  978MOL0     H31973   6.988   0.456   8.832  0.5286  1.9349 -0.9615
  978MOL0     H31974   6.970   0.353   8.690  1.4269 -0.1388 -1.7005
  978MOL0     H31975   7.048   0.530   8.550  0.3436 -2.8144  0.4548
  978MOL0     H31976   7.047   0.647   8.685  0.4923  0.1299  0.0275
  978MOL0     H31977   7.280   0.555   8.637 -1.6468  0.6218 -1.2414
  978MOL0     H31978   7.242   0.501   8.799  3.0104 -0.8121 -0.2102
  978MOL0     H31979   7.203   0.276   8.730 -0.7571 -0.8781 -1.7045
  978MOL0     H31980   7.360   0.341   8.676  0.4253 -0.1568 -0.1658
  978MOL0     H31981   7.412   0.308   8.442 -0.7457  1.0750 -1.7822
  978MOL0     H31982   7.301   0.092   8.181  1.7330  0.4804 -3.1739
  978MOL0     H31983   7.215   0.239   8.120  0.1684  1.6981  0.6392
  978MOL0     H31984   7.446   0.365   8.199 -2.3241  0.4287  1.2628
  978MOL0     H31985   7.432   0.284   8.044  2.0380 -0.8918 -0.2423
  978MOL0     H31986   7.537   0.091   8.126  2.2596 -1.7918  2.1594
  978MOL0     H31987   7.540   0.147   8.294 -0.3546  2.6310  0.9944
  978MOL0     H31988   7.699   0.300   8.094 -3.2028  0.7624  0.2392
  978MOL0     H31989   7.762   0.161   8.178 -1.3845 -1.1992 -0.5297
  978MOL0     H31990   7.789   0.143   8.494  1.0434  0.2191  1.4773
  978MOL0     H31991   7.936   0.045   8.621 -0.7668  1.8103  0.4800
  978MOL0     H31992   8.108   0.037   8.547 -0.0297  0.9949 -1.5930
  978MOL0     H31993   8.081   0.131   8.684  1.5374 -0.7335 -0.5334
  978MOL0     H31994   8.342   0.446   8.814 -0.3064  0.5429  0.4025
  978MOL0     H31995   8.587   0.471   8.872 -1.5797  0.0401 -1.0618
  978MOL0     H31996   8.856   0.449   8.537  1.8106 -0.2552 -0.0913
  978MOL0     H31997   8.890   0.617   8.572 -0.2984 -2.4446 -4.5270
  978MOL0     H31998   9.033   0.524   8.789  0.0899 -0.3441  0.4526
  978MOL0     H31999   8.999   0.369   8.701 -2.1876  0.0526 -3.2852
  978MOL0     H32000   9.176   0.621   8.637 -0.4888  1.2469 -0.3503
  978MOL0     H32001   9.123   0.512   8.507 -1.1796  0.6487  0.1048
  978MOL0     H32002   9.261   0.436   8.770 -0.4747 -4.7007  0.6341
  978MOL0     H32003   9.227   0.312   8.654 -1.9112  0.5289 -2.6788
  978MOL0     H32004   9.400   0.559   8.624 -1.7425 -0.2654 -1.5287
  978MOL0     H32005   9.395   0.430   8.497  2.3623  2.7763 -1.1595
  978MOL0     H32006   9.490   0.405   8.781 -1.9085  2.9248 -0.4563
  978MOL0     H32007   9.516   0.283   8.659 -0.1434 -0.3761  3.4238
  978MOL0     H32008   9.641   0.566   8.686  3.4646 -0.4877  0.1319
  978MOL0     H32009   9.674   0.462   8.547  2.2381 -0.2871 -0.4635
  978MOL0     H32010   9.722   0.399   8.838 -1.0115  0.6587 -0.1983
  978MOL0     H32011   9.850   0.453   8.720  0.7121 -1.1335  0.1405
  978MOL0     H32012   8.679   0.522   8.454 -1.3987 -2.6495 -0.9795
  978MOL0     H32013   8.455   0.476   8.393 -0.6102  2.3430  0.3376
  978MOL0     H32014   8.102   0.491   8.335  0.2533  0.3705  0.3417
  978MOL0     H32015   7.889   0.485   8.246 -0.5471  2.7458  3.1071
  978MOL0     H32016   6.289   0.175   8.867  0.7026  0.1746  1.6202
  978MOL0     H32017   6.071   0.111   8.985 -2.7426 -0.0930 -1.2100
  978MOL0     H32018   5.545   0.396   9.178  2.3605  0.3221  0.9561
  978MOL0     H32019   5.392   0.300   9.321  1.2391  1.1724 -0.1986
  978MOL0     H32020   5.284   0.175   9.473  1.8250  0.1572 -1.2480
  978MOL0     H32021   5.177   0.109   9.346 -2.9203 -0.5342  2.6134
  978MOL0     H32022   5.254  -0.043   9.588 -1.0428  3.2179  0.9122
  978MOL0     H32023   5.148  -0.091   9.446  0.5326  0.5779 -2.1477
  978MOL0     H32024   5.020   0.122   9.505  0.6336 -0.2364  0.0682
  978MOL0     H32025   5.117   0.136   9.650 -0.3693 -0.0197  0.7337
  978MOL0     H32026   4.920  -0.107   9.596 -4.1137 -0.3307  2.0244
  978MOL0     H32027   4.889   0.036   9.704 -0.2342  1.7794 -2.0188
  978MOL0     H32028   5.196  -0.205   9.903  1.2834 -1.6517 -2.2093
  978MOL0     H32029   5.567  -0.085   9.236  0.4896  0.0881  1.0845
  978MOL0     H32030   5.747   0.015   9.107  1.7731  1.1648  1.7594
  979MOL0     O32031   2.478   7.742  10.256  0.4226  0.0216 -0.2703
  979MOL0     C32032   2.501   7.631  10.232 -0.3345  1.5260  0.1025
  979MOL0     O32033   2.430   7.519  10.276 -0.3527 -0.6743 -0.7009
  979MOL0     C32034   2.309   7.549  10.336 -0.2260  0.1062 -0.3871
  979MOL0     C32035   2.303   7.603  10.466 -0.5129  0.0207  0.2621
  979MOL0     C32036   2.186   7.640  10.525  0.2902 -0.5300 -0.2929
  979MOL0     C32037   2.064   7.626  10.452 -0.2930  0.0175  0.4514
  979MOL0     O32038   1.951   7.664  10.515 -0.0886  0.5631 -0.5758
  979MOL0     C32039   1.829   7.643  10.436  0.2003  0.6085 -0.4873
  979MOL0     C32040   1.697   7.689  10.505  0.3375  0.7111 -0.1063
  979MOL0     C32041   1.694   7.836  10.549  0.3739  0.5226 -0.8228
  979MOL0     C32042   1.555   7.860  10.623 -0.0201  0.7612  0.1281
  979MOL0     C32043   1.557   7.961  10.731 -0.6897 -0.2515 -0.1760
  979MOL0     C32044   1.552   8.110  10.675 -0.0461  0.2794  0.5910
  979MOL0     C32045   1.409   8.148  10.636 -0.1355 -0.3215  0.3673
  979MOL0     C32046   1.429   8.254  10.523 -0.1057 -1.3090  0.2144
  979MOL0     N32047   1.292   8.301  10.496 -0.1529 -0.0486 -0.1169
  979MOL0     C32048   1.213   8.375  10.584  0.2694 -0.2011 -0.0880
  979MOL0     C32049   1.099   8.406  10.514  1.2832 -0.5196  0.5875
  979MOL0     C32050   0.980   8.489  10.561 -0.4161 -0.4176  0.8851
  979MOL0     C32051   0.868   8.420  10.640  0.1784 -0.0811 -0.0377
  979MOL0     C32052   0.763   8.523  10.692 -0.5276  0.2195  0.4934
  979MOL0     C32053   0.644   8.467  10.762  0.0076  0.0035  0.2111
  979MOL0     O32054   0.552   8.570  10.796 -0.0265 -0.5691  0.3000
  979MOL0     C32055   0.444   8.544  10.859  0.1063 -0.6400 -0.1194
  979MOL0     C32056   0.369   8.656  10.907 -0.4935  0.3044  0.2246
  979MOL0     C32057   0.241   8.629  10.956 -0.8253  0.4216  0.1515
  979MOL0     C32058   0.162   8.750  10.990 -0.5889 -0.9892 -1.0001
  979MOL0     C32059   0.184   8.500  10.961 -0.2191 -0.7059  0.3220
  979MOL0     C32060   0.047   8.467  11.009  0.3020  0.3450 -0.3934
  979MOL0     O32061  -0.034   8.396  10.924 -0.6818  0.3671  0.0448
  979MOL0     C32062  -0.175   8.409  10.929 -1.2985  0.5525  0.6818
  979MOL0     C32063  -0.254   8.342  11.025  0.0437 -0.5656 -0.2000
  979MOL0     C32064  -0.395   8.361  11.038  0.7185 -0.5457 -0.1970
  979MOL0     C32065  -0.457   8.442  10.940  1.5142  0.2300  0.3309
  979MOL0     O32066  -0.595   8.438  10.941  0.2896  0.5240  0.3406
  979MOL0     C32067  -0.668   8.435  10.813  0.1374 -0.1366  0.0731
  979MOL0     C32068  -0.823   8.411  10.842 -0.1462 -0.4641 -0.2550
  979MOL0     C32069  -0.826   8.272  10.904  0.7567 -0.1912  0.4294
  979MOL0     C32070  -0.976   8.233  10.897 -0.3542  0.3251  0.6348
  979MOL0     C32071  -1.006   8.115  10.994 -0.2429  0.1924  0.0661
  979MOL0     C32072  -1.142   8.052  10.971 -0.7843  0.4207  0.6609
  979MOL0     C32073  -1.137   7.953  10.853  0.4922 -0.3998 -0.6599
  979MOL0     C32074  -1.269   7.874  10.823  0.6811  0.0482  1.0430
  979MOL0    Cl32075  -1.392   7.989  10.761  0.4717  0.4040  0.4382
  979MOL0     C32076  -0.379   8.492  10.830 -0.6372 -0.4787  0.6603
  979MOL0     C32077  -0.236   8.478  10.824  0.9941 -0.4522  0.0640
  979MOL0     O32078   0.013   8.511  11.118  0.5449  0.3579  0.2025
  979MOL0     C32079   0.264   8.396  10.926  0.9423 -0.4924  0.3075
  979MOL0     C32080   0.390   8.412  10.877  0.5737 -0.7341 -0.1354
  979MOL0     N32081   1.116   8.343  10.395  0.8375  0.2093 -0.3815
  979MOL0     N32082   1.224   8.284  10.379 -0.5607  0.5666 -0.6942
  979MOL0     C32083   2.071   7.579  10.313  1.2846 -0.3271 -0.2702
  979MOL0     C32084   2.194   7.537  10.261  0.0494 -0.1444  0.8315
  979MOL0     C32085   2.612   7.597  10.143  0.1079  0.0418  0.8368
  979MOL0     C32086   2.656   7.466  10.122  0.0671 -0.2406  0.0784
  979MOL0     C32087   2.745   7.436  10.020 -0.0090  0.4383  0.0048
  979MOL0     C32088   2.812   7.535   9.946 -0.6055 -0.3430 -0.5236
  979MOL0     O32089   2.885   7.518   9.835 -0.4851 -0.6108  0.0791
  979MOL0     C32090   3.000   7.435   9.849  0.1413  0.1721 -0.2587
  979MOL0     C32091   3.116   7.484   9.755  0.0425 -0.1900 -0.5325
  979MOL0     C32092   3.230   7.374   9.752 -0.3915 -0.3217  0.6491
  979MOL0     C32093   3.357   7.438   9.700 -0.5284 -0.7223  0.7366
  979MOL0     C32094   3.472   7.348   9.696  0.1919  0.2182  0.3302
  979MOL0     C32095   3.572   7.283   9.700  0.3026 -0.4668  0.4860
  979MOL0     C32096   2.782   7.671   9.976  0.3995 -0.1275 -0.0794
  979MOL0     C32097   2.681   7.702  10.075 -0.7263  0.7928  0.2016
  979MOL0     H32098   2.400   7.620  10.511 -1.1352 -0.7395  1.9902
  979MOL0     H32099   2.188   7.691  10.621  1.0083  1.7755 -1.4668
  979MOL0     H32100   1.830   7.680  10.333  0.7473  0.4457 -0.5446
  979MOL0     H32101   1.822   7.536  10.417 -0.3468  0.7928 -1.3792
  979MOL0     H32102   1.612   7.666  10.439  3.2103  0.0424 -3.9595
  979MOL0     H32103   1.686   7.625  10.593 -1.7494 -0.1633 -0.9069
  979MOL0     H32104   1.772   7.860  10.622  0.8042  2.2368 -1.8035
  979MOL0     H32105   1.714   7.896  10.460  0.5562 -0.2123 -1.2860
  979MOL0     H32106   1.474   7.889  10.555  1.3168 -0.8845 -2.3180
  979MOL0     H32107   1.533   7.770  10.682  1.6944  0.6857  0.6979
  979MOL0     H32108   1.475   7.956  10.804  0.4232  1.2115  1.2390
  979MOL0     H32109   1.645   7.953  10.796 -1.5414 -1.7793  0.8578
  979MOL0     H32110   1.593   8.186  10.743 -0.6701  2.7270 -1.6123
  979MOL0     H32111   1.610   8.112  10.582  0.0477 -2.0509  0.5411
  979MOL0     H32112   1.345   8.066  10.604  0.6792 -0.5966 -0.6115
  979MOL0     H32113   1.365   8.194  10.725  1.1879  0.4985  0.6337
  979MOL0     H32114   1.458   8.207  10.429 -0.8961  2.3904 -2.0893
  979MOL0     H32115   1.488   8.341  10.554  0.2746 -1.1189 -0.9912
  979MOL0     H32116   1.240   8.405  10.685 -2.0056  0.3101  0.4199
  979MOL0     H32117   1.012   8.576  10.619 -1.5678  0.5315  0.1323
  979MOL0     H32118   0.948   8.542  10.471  1.2837 -4.1276 -2.1405
  979MOL0     H32119   0.912   8.368  10.726 -0.9893 -1.3211 -0.1458
  979MOL0     H32120   0.822   8.342  10.579  0.2528 -0.2251  0.0872
  979MOL0     H32121   0.719   8.568  10.602  0.7142 -1.0286 -0.7845
  979MOL0     H32122   0.816   8.598  10.752  1.1608  0.0792 -0.7343
  979MOL0     H32123   0.673   8.405  10.847  1.6048  1.8287  1.0763
  979MOL0     H32124   0.595   8.401  10.690  0.0569 -0.1348  0.3037
  979MOL0     H32125   0.411   8.755  10.897 -3.1562  1.5389  0.4147
  979MOL0     H32126   0.080   8.762  10.918  0.1505  2.4046 -1.4138
  979MOL0     H32127   0.108   8.753  11.085 -0.2588  0.0357 -0.8341
  979MOL0     H32128   0.226   8.838  10.984  0.7634 -1.8995 -0.4547
  979MOL0     H32129  -0.196   8.278  11.091  2.3937  2.8459  1.3463
  979MOL0     H32130  -0.444   8.333  11.130  0.7120 -0.2956 -0.1247
  979MOL0     H32131  -0.664   8.534  10.766 -2.1446 -0.4121 -0.8082
  979MOL0     H32132  -0.631   8.350  10.754  1.0252 -1.2898  2.1903
  979MOL0     H32133  -0.869   8.493  10.898 -0.9635 -0.7639 -0.4747
  979MOL0     H32134  -0.883   8.393  10.752 -1.0784  1.6289 -0.1071
  979MOL0     H32135  -0.800   8.272  11.011  1.0512  0.5864  0.3672
  979MOL0     H32136  -0.762   8.198  10.856 -2.4021 -2.7359 -0.1476
  979MOL0     H32137  -1.033   8.319  10.933 -2.8798 -0.5883 -0.9137
  979MOL0     H32138  -1.006   8.220  10.793 -1.9670  2.2227  0.8005
  979MOL0     H32139  -1.003   8.152  11.096  0.5108 -0.9118  0.4671
  979MOL0     H32140  -0.922   8.046  10.975 -1.6299 -1.2864 -0.9605
  979MOL0     H32141  -1.159   8.007  11.069  1.6395  1.4348  1.6324
  979MOL0     H32142  -1.220   8.128  10.960 -1.8583 -0.6335  0.8250
  979MOL0     H32143  -1.065   7.877  10.882  0.6269  0.1913  0.6334
  979MOL0     H32144  -1.105   7.998  10.759  0.5696  1.6962  0.2952
  979MOL0     H32145  -1.320   7.833  10.911 -2.2645  0.5991 -0.3090
  979MOL0     H32146  -1.253   7.789  10.757 -3.0801 -0.3227  0.3759
  979MOL0     H32147  -0.434   8.562  10.768  0.2059 -1.3514 -1.1513
  979MOL0     H32148  -0.188   8.525  10.738 -1.4443  0.0536 -1.1012
  979MOL0     H32149   0.222   8.296  10.929  1.7346 -0.9538 -2.0002
  979MOL0     H32150   0.442   8.321  10.850  0.2209 -0.6910 -0.9806
  979MOL0     H32151   1.993   7.569  10.238  0.2644 -1.9199  0.9349
  979MOL0     H32152   2.198   7.493  10.162 -4.2077 -1.1388  0.9244
  979MOL0     H32153   2.628   7.376  10.176 -0.0605 -0.1055  0.2374
  979MOL0     H32154   2.769   7.332   9.999 -1.9469 -0.0583  0.0549
  979MOL0     H32155   3.027   7.417   9.954  0.8580  0.6045 -0.3632
  979MOL0     H32156   2.969   7.337   9.813  0.7867 -0.4089  0.7169
  979MOL0     H32157   3.152   7.571   9.810 -0.1870  0.1492 -0.9222
  979MOL0     H32158   3.077   7.506   9.655 -5.3813 -2.0564  0.8151
  979MOL0     H32159   3.213   7.284   9.693  0.9839 -0.4610  0.4511
  979MOL0     H32160   3.239   7.341   9.856  0.4067  1.4426  1.1865
  979MOL0     H32161   3.387   7.528   9.753 -2.8061  0.1643  0.6120
  979MOL0     H32162   3.343   7.479   9.600  1.1778 -2.0872 -0.1312
  979MOL0     H32163   3.659   7.220   9.692  1.2624  1.0364 -2.7337
  979MOL0     H32164   2.825   7.741   9.905  0.3454 -1.4618 -1.4712
  979MOL0     H32165   2.658   7.805  10.099 -1.7271  0.6403 -0.0788
  980MOL0     O32166   9.238   5.260   0.433  0.3339  0.5095 -0.1064
  980MOL0     C32167   9.333   5.314   0.392 -0.1222 -0.0431 -0.3223
  980MOL0     O32168   9.340   5.452   0.354  0.7347  0.0742  0.5470
  980MOL0     C32169   9.225   5.536   0.356 -0.1401  0.9995 -0.8821
  980MOL0     C32170   9.255   5.675   0.375  0.9243  0.3428  0.7082
  980MOL0     C32171   9.147   5.765   0.375  0.2926 -0.1520  0.2340
  980MOL0     C32172   9.015   5.721   0.338  0.7702 -0.7429 -0.0866
  980MOL0     O32173   8.922   5.825   0.327  0.5255 -0.3068  0.5934
  980MOL0     C32174   8.789   5.795   0.301  0.6439  0.1297 -0.2811
  980MOL0     C32175   8.718   5.935   0.316 -0.9803  0.1133 -0.1974
  980MOL0     C32176   8.569   5.931   0.343 -0.1506  1.4867  0.5181
  980MOL0     C32177   8.493   6.066   0.363  0.7036  0.1915 -0.0332
  980MOL0     C32178   8.350   6.058   0.401 -0.5975  0.2203 -0.0837
  980MOL0     C32179   8.287   6.198   0.385 -0.5845 -0.6375  0.2216
  980MOL0     C32180   8.132   6.193   0.416 -0.5233  0.3522  0.2281
  980MOL0     C32181   8.043   6.131   0.314 -0.0348  0.3636  0.0525
  980MOL0     N32182   7.900   6.137   0.334  0.8604  0.1946 -0.8135
  980MOL0     C32183   7.820   6.042   0.396 -0.4957 -0.0882  0.1945
  980MOL0     C32184   7.700   6.088   0.386  0.2342 -0.4936  0.5907
  980MOL0     C32185   7.574   6.008   0.423  0.5722  0.0480  0.4052
  980MOL0     C32186   7.550   5.992   0.578  0.3345 -0.0564  0.1276
  980MOL0     C32187   7.408   5.948   0.624  0.0964  0.4530  0.3671
  980MOL0     C32188   7.370   5.816   0.550  0.2363 -0.3437 -0.1615
  980MOL0     O32189   7.265   5.743   0.623  0.2872 -0.3263  0.5670
  980MOL0     C32190   7.139   5.793   0.595 -1.2593  0.4893 -0.0725
  980MOL0     C32191   7.050   5.771   0.695  0.1149  0.2593 -0.5008
  980MOL0     C32192   6.917   5.817   0.688 -0.3544 -0.1023  0.0903
  980MOL0     C32193   6.837   5.798   0.808  0.6148 -0.0672 -0.3612
  980MOL0     C32194   6.870   5.886   0.574 -0.0735 -0.0055  0.6634
  980MOL0     C32195   6.727   5.926   0.546 -0.8234  0.4185  0.0811
  980MOL0     O32196   6.720   5.995   0.432  0.0360  0.5541  0.4203
  980MOL0     C32197   6.600   6.032   0.384  0.0426  0.3081 -0.1355
  980MOL0     C32198   6.495   5.944   0.390  0.6918  0.4607  0.6198
  980MOL0     C32199   6.380   5.977   0.324 -0.4120  0.4210  0.1435
  980MOL0     C32200   6.366   6.100   0.253 -0.0325  0.4017 -0.5638
  980MOL0     O32201   6.249   6.128   0.183  0.2364 -0.5002 -0.1402
  980MOL0     C32202   6.244   6.075   0.051 -0.7725  0.3772  0.2242
  980MOL0     C32203   6.179   5.935   0.035  0.2919  0.3572 -0.2417
  980MOL0     C32204   6.043   5.902   0.114 -0.3650  0.1812  1.0219
  980MOL0     C32205   5.929   5.976   0.045  0.0845  0.6070 -0.8767
  980MOL0     C32206   5.831   6.053   0.139  0.1414 -0.2915  0.0087
  980MOL0     C32207   5.696   6.077   0.070  0.2004 -0.1284  0.3423
  980MOL0     C32208   5.583   6.135   0.153  0.8896  0.0718 -0.2171
  980MOL0     C32209   5.449   6.117   0.082 -0.6935 -0.1976  0.1691
  980MOL0    Cl32210   5.440   6.238  -0.064  0.3489 -0.2934  0.3581
  980MOL0     C32211   6.471   6.190   0.249 -1.1340 -0.0454 -0.0098
  980MOL0     C32212   6.592   6.154   0.309  0.2014 -0.2145 -1.2214
  980MOL0     O32213   6.640   5.903   0.626 -0.5562 -0.1670 -0.1944
  980MOL0     C32214   6.967   5.917   0.479  0.2006 -0.0058 -0.0895
  980MOL0     C32215   7.092   5.873   0.491 -0.1874  0.3707 -0.0415
  980MOL0     N32216   7.697   6.205   0.315  0.5667  0.5581  0.7394
  980MOL0     N32217   7.818   6.235   0.288  0.3724  0.3031 -0.4762
  980MOL0     C32218   8.991   5.583   0.311 -0.1495 -0.0738  0.7823
  980MOL0     C32219   9.097   5.496   0.320 -0.9500  0.2791 -0.3543
  980MOL0     C32220   9.465   5.237   0.391  1.3413 -0.6833 -0.1083
  980MOL0     C32221   9.580   5.314   0.384 -0.5220  0.1796  0.3259
  980MOL0     C32222   9.706   5.250   0.378  0.9137  0.1755 -0.4755
  980MOL0     C32223   9.715   5.117   0.380  0.6851  0.5512  0.5918
  980MOL0     O32224   9.837   5.058   0.369  0.3497 -0.0479 -0.0851
  980MOL0     C32225   9.907   5.073   0.495 -0.7602  0.0960 -0.6388
  980MOL0     C32226  10.045   4.999   0.502 -0.2262 -0.4335  0.2742
  980MOL0     C32227  10.154   5.036   0.409  0.4667  0.4452  0.1724
  980MOL0     C32228  10.219   5.180   0.401  0.2179  0.0592 -0.1249
  980MOL0     C32229  10.310   5.203   0.523  0.0922 -0.3581  0.2271
  980MOL0     C32230  10.379   5.229   0.623 -0.6782  0.6318 -0.4132
  980MOL0     C32231   9.605   5.039   0.381  0.5144  0.2486 -0.3693
  980MOL0     C32232   9.475   5.096   0.403  0.3938 -0.2222 -0.2683
  980MOL0     H32233   9.359   5.698   0.394  1.1188  0.7076 -0.6629
  980MOL0     H32234   9.170   5.866   0.407 -4.2273  1.4060 -0.6907
  980MOL0     H32235   8.766   5.757   0.201  1.4837  0.0964 -0.4720
  980MOL0     H32236   8.755   5.723   0.376 -1.3979  0.5242 -0.7534
  980MOL0     H32237   8.756   5.985   0.406 -1.3229 -1.8109  1.0890
  980MOL0     H32238   8.733   6.000   0.229  2.2407 -0.6169 -0.2915
  980MOL0     H32239   8.517   5.875   0.265  0.1822 -0.1980  1.4458
  980MOL0     H32240   8.556   5.876   0.437 -0.2372  1.4790  0.5013
  980MOL0     H32241   8.535   6.133   0.439 -0.5949  2.7995 -1.4534
  980MOL0     H32242   8.505   6.123   0.270 -2.4043 -0.5760 -1.0001
  980MOL0     H32243   8.302   5.981   0.341  1.3338 -0.6266 -0.6169
  980MOL0     H32244   8.354   6.018   0.503  1.1905  0.0885 -0.1722
  980MOL0     H32245   8.338   6.254   0.465  3.2887 -2.8022 -0.5054
  980MOL0     H32246   8.298   6.238   0.284 -1.6494 -4.4978 -1.5696
  980MOL0     H32247   8.109   6.138   0.508 -1.3580 -0.1526 -0.2614
  980MOL0     H32248   8.113   6.298   0.440  2.1782  1.2927 -1.2782
  980MOL0     H32249   8.066   6.025   0.316 -1.4396  0.0549  1.1436
  980MOL0     H32250   8.061   6.186   0.220  1.1851  2.3057  1.3432
  980MOL0     H32251   7.848   5.944   0.435 -0.1010 -0.1904 -0.3350
  980MOL0     H32252   7.484   6.052   0.380  0.5156  0.0208  0.4941
  980MOL0     H32253   7.576   5.910   0.374  3.5191 -0.0287  0.4869
  980MOL0     H32254   7.583   6.073   0.643  1.1535 -1.1551  1.1044
  980MOL0     H32255   7.623   5.915   0.605 -0.1423 -1.0440 -1.2798
  980MOL0     H32256   7.337   6.031   0.624 -2.0730 -1.2823  2.7733
  980MOL0     H32257   7.414   5.923   0.730 -3.7117  0.9230  0.8294
  980MOL0     H32258   7.456   5.749   0.543  0.8501  0.3597  0.4238
  980MOL0     H32259   7.341   5.835   0.447  3.1399 -0.9592 -1.1725
  980MOL0     H32260   7.082   5.722   0.787 -2.5296 -0.4369  0.1333
  980MOL0     H32261   6.742   5.745   0.796 -1.2379  2.8364  0.4964
  980MOL0     H32262   6.885   5.739   0.886  1.0034 -0.4863 -0.9125
  980MOL0     H32263   6.810   5.895   0.851  1.2600 -0.4882  1.0370
  980MOL0     H32264   6.500   5.848   0.439 -1.1544 -0.1424 -0.2830
  980MOL0     H32265   6.298   5.906   0.331 -2.3895  2.6775  1.3487
  980MOL0     H32266   6.181   6.148  -0.000  1.5607  1.3714 -1.4364
  980MOL0     H32267   6.341   6.085   0.002  0.6414  1.9212  3.0597
  980MOL0     H32268   6.165   5.927  -0.073  0.1659 -1.6032 -0.1190
  980MOL0     H32269   6.259   5.866   0.063  0.9508  0.3829 -1.9746
  980MOL0     H32270   6.056   5.930   0.219  2.3816  1.8677  0.3238
  980MOL0     H32271   6.010   5.797   0.113  0.2907 -0.0393 -0.3712
  980MOL0     H32272   5.961   6.047  -0.032 -1.0081  1.3011 -0.7198
  980MOL0     H32273   5.872   5.897  -0.004  0.8586 -0.5278  0.0088
  980MOL0     H32274   5.885   6.146   0.159  1.7993 -0.1445 -4.1571
  980MOL0     H32275   5.828   5.999   0.234 -0.4322 -1.0795 -0.4445
  980MOL0     H32276   5.711   6.141  -0.018 -1.0326  0.3312  0.4414
  980MOL0     H32277   5.667   5.979   0.032  0.6743 -0.0583 -0.2043
  980MOL0     H32278   5.603   6.242   0.165 -0.4596  0.1018  2.5876
  980MOL0     H32279   5.584   6.095   0.255 -2.6885  0.4286  0.0963
  980MOL0     H32280   5.375   6.130   0.162  0.9560 -2.2627  2.1627
  980MOL0     H32281   5.442   6.015   0.044 -1.1041  0.0758 -0.4890
  980MOL0     H32282   6.465   6.283   0.193  2.0466  0.7634  0.8202
  980MOL0     H32283   6.671   6.229   0.305  1.1672 -1.0301  1.0570
  980MOL0     H32284   6.949   5.971   0.387  0.6937  1.6828  0.7740
  980MOL0     H32285   7.161   5.908   0.415  0.7009  0.1955  0.6688
  980MOL0     H32286   8.889   5.556   0.288 -0.1153  0.5144 -0.1129
  980MOL0     H32287   9.074   5.392   0.296  2.9282 -0.4317 -1.6550
  980MOL0     H32288   9.565   5.421   0.375 -3.8163 -0.2337 -0.4952
  980MOL0     H32289   9.791   5.316   0.370  0.7123  0.7066  1.3614
  980MOL0     H32290   9.932   5.179   0.501  2.6645 -0.6472  0.6177
  980MOL0     H32291   9.847   5.032   0.578  0.0759 -1.5225 -0.7825
  980MOL0     H32292  10.030   4.890   0.505  1.6260 -0.6871  1.8670
  980MOL0     H32293  10.098   5.019   0.595  4.5742  1.3715 -2.4876
  980MOL0     H32294  10.115   5.018   0.308  1.2480  1.4129 -0.3118
  980MOL0     H32295  10.235   4.964   0.425 -1.7837 -2.6470 -1.3074
  980MOL0     H32296  10.135   5.249   0.389  0.3181  0.0130 -1.1972
  980MOL0     H32297  10.285   5.200   0.316  1.7589 -1.4067  0.6702
  980MOL0     H32298  10.446   5.236   0.706  0.3278  0.0784 -1.1543
  980MOL0     H32299   9.622   4.931   0.379 -0.1427 -0.0479  3.0740
  980MOL0     H32300   9.395   5.024   0.415 -0.0824  0.4976  0.9849
  981MOL0     O32301   8.171   6.951   4.509  0.0101  0.2129  0.1761
  981MOL0     C32302   8.272   6.947   4.575  0.2140 -0.6866 -0.2380
  981MOL0     O32303   8.285   6.993   4.708 -0.0770 -0.0349 -0.0309
  981MOL0     C32304   8.177   7.027   4.781  0.0895  0.3626 -0.4500
  981MOL0     C32305   8.060   7.087   4.733  0.1360 -0.6082 -0.2311
  981MOL0     C32306   7.964   7.120   4.826 -0.0159 -0.6634 -0.1914
  981MOL0     C32307   7.995   7.110   4.970 -0.2631  1.1805  0.2155
  981MOL0     O32308   7.916   7.139   5.076 -0.1852  0.0928  0.2447
  981MOL0     C32309   7.779   7.184   5.059 -0.8394 -0.1180  0.2875
  981MOL0     C32310   7.710   7.186   5.198 -0.1215 -0.8115  0.2678
  981MOL0     C32311   7.561   7.235   5.200 -1.2148  0.4672  0.2863
  981MOL0     C32312   7.508   7.215   5.336  0.4376  0.3341 -0.4970
  981MOL0     C32313   7.358   7.243   5.357 -0.2661 -0.0559  0.6067
  981MOL0     C32314   7.316   7.187   5.492 -0.7775  0.3796  0.5249
  981MOL0     C32315   7.177   7.243   5.519  0.5838  1.2537 -0.8648
  981MOL0     C32316   7.179   7.390   5.559  0.2896  0.0494 -0.5242
  981MOL0     N32317   7.042   7.437   5.580 -0.1768 -0.7846 -0.2934
  981MOL0     C32318   6.995   7.474   5.703 -0.4855  0.5469 -0.0640
  981MOL0     C32319   6.877   7.534   5.672  0.9513  0.3577 -0.5235
  981MOL0     C32320   6.778   7.584   5.776 -0.7454 -0.9925 -0.1121
  981MOL0     C32321   6.769   7.737   5.777 -0.2040 -0.7988  0.5344
  981MOL0     C32322   6.659   7.781   5.873 -0.3482 -0.3079 -0.5374
  981MOL0     C32323   6.522   7.718   5.863  0.6830 -0.2039  0.1985
  981MOL0     O32324   6.463   7.717   5.741 -0.1446  0.3695  0.0933
  981MOL0     C32325   6.333   7.672   5.727 -0.8487  0.0037 -0.5041
  981MOL0     C32326   6.271   7.596   5.824 -0.2161  0.8917  0.0624
  981MOL0     C32327   6.133   7.561   5.814  0.0408  0.0900 -0.5713
  981MOL0     C32328   6.078   7.474   5.928 -0.3721  0.0472  0.4464
  981MOL0     C32329   6.064   7.599   5.695 -0.4721  0.8586 -0.1913
  981MOL0     C32330   5.923   7.560   5.659  0.1382 -0.0892  0.5344
  981MOL0     O32331   5.870   7.600   5.534 -0.3023 -0.1457 -0.5327
  981MOL0     C32332   5.740   7.559   5.517 -0.2495  0.2057 -0.2859
  981MOL0     C32333   5.624   7.615   5.592  0.9241 -0.2784  0.4014
  981MOL0     C32334   5.497   7.579   5.560 -0.2531  0.2099 -0.6063
  981MOL0     C32335   5.475   7.467   5.476 -0.2182  0.0651  0.3838
  981MOL0     O32336   5.352   7.425   5.433  0.2389  0.3110  0.6683
  981MOL0     C32337   5.264   7.536   5.406  0.4719 -0.7208  0.5855
  981MOL0     C32338   5.162   7.510   5.301  0.1433  0.7439  0.4968
  981MOL0     C32339   5.083   7.379   5.341 -0.0644 -0.5220 -0.1412
  981MOL0     C32340   5.000   7.317   5.229 -0.5625  0.9641  0.1412
  981MOL0     C32341   4.863   7.385   5.208 -0.7934 -0.6882 -0.0278
  981MOL0     C32342   4.768   7.353   5.329  0.4675  0.3811  0.3082
  981MOL0     C32343   4.621   7.392   5.302  0.0059 -0.2697  0.0678
  981MOL0     C32344   4.561   7.334   5.182 -0.2045  0.7396  0.4851
  981MOL0    Cl32345   4.567   7.161   5.179 -0.1999  0.3617  0.6396
  981MOL0     C32346   5.584   7.418   5.412 -0.3228  1.2491 -0.0493
  981MOL0     C32347   5.716   7.460   5.422  0.2729  0.5734 -0.3843
  981MOL0     O32348   5.864   7.486   5.735  0.1645 -1.0319 -0.7763
  981MOL0     C32349   6.134   7.673   5.602  0.7951 -0.3257  0.0123
  981MOL0     C32350   6.265   7.705   5.620  0.6161  0.0563  0.8993
  981MOL0     N32351   6.839   7.521   5.541  1.0091  0.9067 -0.2683
  981MOL0     N32352   6.945   7.467   5.486 -0.6019 -0.0345  0.0282
  981MOL0     C32353   8.113   7.051   5.010  0.3518  0.1520 -0.1289
  981MOL0     C32354   8.198   7.002   4.915 -0.2258  1.4126  0.1075
  981MOL0     C32355   8.401   6.905   4.508  0.1234  0.2696 -0.1598
  981MOL0     C32356   8.534   6.914   4.571 -0.0236  0.3425  0.3648
  981MOL0     C32357   8.651   6.888   4.497 -0.0610  0.0410  0.4793
  981MOL0     C32358   8.640   6.857   4.360  0.0762  0.5835 -0.1557
  981MOL0     O32359   8.752   6.838   4.281  0.1230  0.3663 -0.5723
  981MOL0     C32360   8.741   6.833   4.138 -0.5546 -0.0426  0.6425
  981MOL0     C32361   8.738   6.689   4.086 -0.4883  0.0790  0.7012
  981MOL0     C32362   8.833   6.589   4.150 -0.1222 -0.5002 -0.5885
  981MOL0     C32363   8.982   6.620   4.128  0.4070 -0.1406 -0.1889
  981MOL0     C32364   9.021   6.610   3.990  0.1201  0.1581  0.2321
  981MOL0     C32365   9.066   6.589   3.878  0.0443  0.6896 -0.6387
  981MOL0     C32366   8.513   6.852   4.297  0.6509 -0.4536 -1.2329
  981MOL0     C32367   8.399   6.873   4.373 -0.1300  1.3756  0.4526
  981MOL0     H32368   8.044   7.105   4.627  0.0367  0.5196 -0.0358
  981MOL0     H32369   7.872   7.162   4.787  2.2523  0.1046 -5.6018
  981MOL0     H32370   7.771   7.277   5.001 -0.9639 -1.0263 -1.1993
  981MOL0     H32371   7.723   7.107   5.005 -1.3651  1.4685 -1.5608
  981MOL0     H32372   7.723   7.084   5.235 -0.2192 -0.9090  0.0361
  981MOL0     H32373   7.774   7.249   5.261  2.4965 -3.0835  0.0893
  981MOL0     H32374   7.544   7.338   5.168  1.0462  1.6523  2.5264
  981MOL0     H32375   7.506   7.165   5.137  0.2570 -0.3010 -0.1935
  981MOL0     H32376   7.539   7.121   5.382 -0.8172  1.6095  3.3685
  981MOL0     H32377   7.557   7.289   5.400 -2.0370 -0.9557  3.2409
  981MOL0     H32378   7.344   7.351   5.350  0.0739 -0.0496 -0.0299
  981MOL0     H32379   7.291   7.194   5.286  2.1873 -0.5828 -1.4920
  981MOL0     H32380   7.308   7.078   5.484 -0.1450  0.3347  0.4538
  981MOL0     H32381   7.389   7.202   5.572  1.0409  0.6459 -1.1148
  981MOL0     H32382   7.108   7.221   5.436 -0.8669  1.0402  0.3572
  981MOL0     H32383   7.141   7.198   5.612  3.4924  1.8289  0.6366
  981MOL0     H32384   7.230   7.453   5.485  2.0915  1.3947  1.7412
  981MOL0     H32385   7.231   7.403   5.654 -3.7262  2.2483  1.6488
  981MOL0     H32386   7.037   7.460   5.802  0.0915 -1.4293 -0.5274
  981MOL0     H32387   6.683   7.531   5.765  0.5141 -3.8398  1.4375
  981MOL0     H32388   6.818   7.562   5.876  3.2192 -0.7623 -1.4586
  981MOL0     H32389   6.740   7.766   5.675 -4.0512 -2.5108  0.9624
  981MOL0     H32390   6.861   7.781   5.815 -0.1279  0.0757 -0.6131
  981MOL0     H32391   6.638   7.888   5.863  0.4716 -0.1932 -1.0995
  981MOL0     H32392   6.691   7.785   5.977 -0.4726  3.5149 -0.5096
  981MOL0     H32393   6.451   7.771   5.927 -0.5751 -0.5306 -0.8763
  981MOL0     H32394   6.535   7.615   5.898  3.0159  0.3858  1.2938
  981MOL0     H32395   6.327   7.550   5.905  1.6814  0.9477 -1.1713
  981MOL0     H32396   6.093   7.368   5.909 -1.9880 -0.1766  0.3008
  981MOL0     H32397   6.111   7.499   6.030  1.0473 -0.6703  0.1877
  981MOL0     H32398   5.969   7.471   5.934 -0.4044 -0.5181 -0.4091
  981MOL0     H32399   5.640   7.684   5.674  0.8285  1.0673 -0.6709
  981MOL0     H32400   5.417   7.617   5.623  2.6248  3.0347  1.6744
  981MOL0     H32401   5.214   7.581   5.493  1.8308  1.4357  0.3274
  981MOL0     H32402   5.323   7.618   5.365 -4.7582  3.7192  0.8620
  981MOL0     H32403   5.101   7.600   5.291  1.1312  1.4300  0.6007
  981MOL0     H32404   5.211   7.492   5.205 -2.1736 -0.4355 -0.5634
  981MOL0     H32405   5.019   7.394   5.428  0.9365  0.0217  0.5166
  981MOL0     H32406   5.162   7.308   5.366  1.6360  1.1875 -0.4260
  981MOL0     H32407   5.059   7.331   5.137  0.3485 -0.2811  0.5046
  981MOL0     H32408   4.980   7.210   5.234 -0.0656  0.8058 -0.8224
  981MOL0     H32409   4.816   7.354   5.114 -0.1973 -3.1822  0.4352
  981MOL0     H32410   4.892   7.490   5.205 -2.7339 -0.1272 -2.7285
  981MOL0     H32411   4.765   7.245   5.350 -1.2869  0.5145  0.9415
  981MOL0     H32412   4.788   7.407   5.422  0.2329  0.2908  0.4125
  981MOL0     H32413   4.617   7.499   5.283  1.8092 -0.3902 -1.3627
  981MOL0     H32414   4.577   7.348   5.392  2.5556  2.5332  2.9138
  981MOL0     H32415   4.611   7.376   5.095  1.3802  1.3381  1.6400
  981MOL0     H32416   4.453   7.351   5.187 -0.4123 -0.5989  1.0775
  981MOL0     H32417   5.567   7.327   5.356 -1.3863  1.4230 -0.0158
  981MOL0     H32418   5.792   7.420   5.356  2.3480 -1.9118  3.2005
  981MOL0     H32419   6.090   7.699   5.506 -0.7370 -0.2820  0.6999
  981MOL0     H32420   6.314   7.767   5.546 -2.3702  0.6882 -0.7402
  981MOL0     H32421   8.123   7.048   5.118 -0.9884  0.8948  0.0373
  981MOL0     H32422   8.285   6.950   4.954 -0.7137 -0.4715 -1.1667
  981MOL0     H32423   8.546   6.948   4.674  1.4803 -0.3045  0.4193
  981MOL0     H32424   8.752   6.892   4.538 -0.3435 -0.8442  1.2995
  981MOL0     H32425   8.656   6.889   4.099  0.5990  2.5846  1.6366
  981MOL0     H32426   8.827   6.889   4.099 -0.6742  1.2894  2.2145
  981MOL0     H32427   8.764   6.709   3.981  1.8079 -0.0674  1.2046
  981MOL0     H32428   8.639   6.645   4.100 -0.5513 -0.4207 -1.0250
  981MOL0     H32429   8.805   6.485   4.130 -0.7591 -0.4939  0.2021
  981MOL0     H32430   8.811   6.603   4.257 -0.7185  0.0673 -0.7758
  981MOL0     H32431   9.050   6.559   4.188  1.4059  3.4951  2.7269
  981MOL0     H32432   9.012   6.721   4.156  0.9965 -0.2050 -0.5556
  981MOL0     H32433   9.083   6.554   3.778  1.2575 -0.7349  0.0313
  981MOL0     H32434   8.492   6.822   4.195 -0.1750 -1.1145 -0.8861
  981MOL0     H32435   8.303   6.878   4.321  0.8474 -0.4924 -1.6821
  982MOL0     O32436   9.711   4.211   9.042  0.2669  0.0869 -0.1672
  982MOL0     C32437   9.739   4.254   9.147  0.2303 -0.5617  0.2258
  982MOL0     O32438   9.653   4.340   9.224  0.7499 -0.7171  0.4616
  982MOL0     C32439   9.525   4.365   9.193 -0.3142  0.1084  0.3936
  982MOL0     C32440   9.442   4.295   9.093  0.4072 -0.1075  0.4698
  982MOL0     C32441   9.317   4.343   9.068  0.5633  0.1128 -0.6316
  982MOL0     C32442   9.261   4.452   9.144 -0.3152  0.1440 -0.0255
  982MOL0     O32443   9.130   4.485   9.113 -0.6841 -0.2587  1.0855
  982MOL0     C32444   9.037   4.486   9.226 -0.5972  0.6230 -0.0560
  982MOL0     C32445   8.898   4.541   9.189 -1.1953  0.4766 -1.0605
  982MOL0     C32446   8.811   4.540   9.318  0.5944  0.4966  0.6886
  982MOL0     C32447   8.660   4.525   9.273  0.2748 -0.6499  0.1428
  982MOL0     C32448   8.564   4.514   9.399 -0.4890  0.6603  0.1274
  982MOL0     C32449   8.420   4.499   9.367 -0.9142  0.7803 -0.4415
  982MOL0     C32450   8.353   4.633   9.343 -1.0149  0.5553 -0.1163
  982MOL0     C32451   8.211   4.587   9.308 -0.3933 -0.0803 -0.5279
  982MOL0     N32452   8.120   4.690   9.255  0.2054 -0.4438 -0.2729
  982MOL0     C32453   8.149   4.812   9.195  0.2115  0.6781 -0.7359
  982MOL0     C32454   8.036   4.862   9.154  0.1945 -0.6001 -0.6240
  982MOL0     C32455   8.041   4.990   9.079 -0.0166 -0.6695  0.3453
  982MOL0     C32456   7.897   5.056   9.076 -0.1773  0.3982  0.9978
  982MOL0     C32457   7.909   5.212   9.091 -0.1307 -0.0561  0.0866
  982MOL0     C32458   7.785   5.293   9.061 -0.0201  0.3707  1.0508
  982MOL0     O32459   7.679   5.215   9.096 -0.3171 -0.0141 -0.2198
  982MOL0     C32460   7.553   5.273   9.089  0.1679  0.3153 -0.3843
  982MOL0     C32461   7.508   5.392   9.035 -0.6577  0.3813  0.5880
  982MOL0     C32462   7.378   5.439   9.050  0.2957  1.4892 -0.4925
  982MOL0     C32463   7.347   5.575   8.994  0.7717 -0.5739  0.4290
  982MOL0     C32464   7.275   5.350   9.106 -0.1953 -0.6174  0.0447
  982MOL0     C32465   7.132   5.398   9.133 -0.3773 -0.5250  0.2392
  982MOL0     O32466   7.061   5.311   9.203  0.6559 -0.0304  0.0549
  982MOL0     C32467   6.933   5.334   9.225  1.2028  0.5800  0.7025
  982MOL0     C32468   6.883   5.387   9.347  0.2367  0.5618 -0.3953
  982MOL0     C32469   6.746   5.398   9.372 -0.3474  0.3914  0.3753
  982MOL0     C32470   6.656   5.375   9.264 -0.3620 -1.4070 -0.1047
  982MOL0     O32471   6.515   5.386   9.279 -0.4095 -0.0349  0.6276
  982MOL0     C32472   6.458   5.441   9.391 -0.4811  0.9877  0.3434
  982MOL0     C32473   6.316   5.468   9.347 -0.1913 -0.0255 -0.3059
  982MOL0     C32474   6.246   5.341   9.312  0.2456  0.0329 -0.8579
  982MOL0     C32475   6.131   5.359   9.217 -0.6239  0.1493 -0.0269
  982MOL0     C32476   6.018   5.438   9.273 -0.3352  0.0448  0.2169
  982MOL0     C32477   5.892   5.422   9.182 -0.2529  0.1559 -0.1547
  982MOL0     C32478   5.774   5.472   9.253 -0.0360 -0.0624 -0.6527
  982MOL0     C32479   5.757   5.622   9.228 -0.1787 -0.0330 -0.3059
  982MOL0    Cl32480   5.585   5.647   9.227  0.9612  1.0337 -0.3711
  982MOL0     C32481   6.702   5.326   9.146  0.3748 -0.3963 -0.3205
  982MOL0     C32482   6.838   5.291   9.128 -0.5475 -0.1239  0.3257
  982MOL0     O32483   7.093   5.508   9.089 -0.1136  0.4522 -0.4589
  982MOL0     C32484   7.321   5.228   9.168 -0.1343 -0.8599  0.4109
  982MOL0     C32485   7.456   5.197   9.155  0.1018  0.4964 -0.6133
  982MOL0     N32486   7.938   4.766   9.172  0.3841 -0.0560 -0.6184
  982MOL0     N32487   7.985   4.666   9.235  0.2017  0.7106  0.2035
  982MOL0     C32488   9.340   4.516   9.239 -0.2705 -0.2902 -0.4150
  982MOL0     C32489   9.468   4.466   9.262  0.0922 -0.4260 -0.3790
  982MOL0     C32490   9.883   4.277   9.179 -0.1522  0.4059 -0.1029
  982MOL0     C32491   9.985   4.241   9.094  0.2382  0.2851  0.8571
  982MOL0     C32492  10.114   4.254   9.133 -0.4584  0.9969 -0.2115
  982MOL0     C32493  10.155   4.316   9.253  0.8036  0.3586  0.4136
  982MOL0     O32494  10.284   4.336   9.277 -0.3142 -0.2731 -0.3647
  982MOL0     C32495  10.331   4.310   9.415  0.3797 -0.4864 -0.1078
  982MOL0     C32496  10.468   4.232   9.418 -0.4700 -0.1879 -1.2106
  982MOL0     C32497  10.571   4.317   9.355  0.5624  0.4327  0.1585
  982MOL0     C32498  10.717   4.272   9.343  0.1094 -0.3589  0.1422
  982MOL0     C32499  10.717   4.150   9.260  0.3178  0.1231  0.5349
  982MOL0     C32500  10.714   4.040   9.213 -0.4878 -0.1662 -0.2606
  982MOL0     C32501  10.052   4.350   9.338  0.1457 -0.4519 -0.7919
  982MOL0     C32502   9.915   4.337   9.307 -0.5182  0.4035 -0.0545
  982MOL0     H32503   9.480   4.203   9.047 -0.4752 -0.0662 -0.3706
  982MOL0     H32504   9.240   4.290   9.014  0.9085 -1.5701  0.4589
  982MOL0     H32505   9.024   4.383   9.259 -0.2676  0.3390 -0.8010
  982MOL0     H32506   9.072   4.540   9.315  1.0826 -0.7370  0.1541
  982MOL0     H32507   8.910   4.645   9.158 -0.9902  0.5291 -0.8127
  982MOL0     H32508   8.863   4.482   9.104 -1.0811  0.3661 -1.0315
  982MOL0     H32509   8.834   4.459   9.388 -0.1229  0.1514  0.5446
  982MOL0     H32510   8.814   4.629   9.380  0.3713 -0.5037  2.1860
  982MOL0     H32511   8.614   4.605   9.214 -0.5532 -2.4195 -1.7443
  982MOL0     H32512   8.658   4.439   9.205  1.6731 -0.6311  0.0427
  982MOL0     H32513   8.594   4.426   9.457  1.0379  1.5517  0.7337
  982MOL0     H32514   8.587   4.595   9.469 -2.4919 -0.9465  2.8395
  982MOL0     H32515   8.417   4.430   9.281 -1.8043 -0.5127  0.5883
  982MOL0     H32516   8.372   4.444   9.448  1.7270 -2.2777 -0.7687
  982MOL0     H32517   8.347   4.701   9.428  1.1080 -0.7951  1.1905
  982MOL0     H32518   8.405   4.683   9.261 -0.5081 -1.0200 -0.7974
  982MOL0     H32519   8.167   4.532   9.392  0.3636  1.0071  0.6201
  982MOL0     H32520   8.207   4.514   9.227  0.2664 -2.0894  1.1605
  982MOL0     H32521   8.245   4.858   9.177  1.9926 -2.5242 -0.1297
  982MOL0     H32522   8.117   5.052   9.128  1.3736 -2.3981  0.4615
  982MOL0     H32523   8.077   4.988   8.975  1.3032  1.0365  0.7085
  982MOL0     H32524   7.844   5.008   9.158 -1.6132 -1.0611 -0.6988
  982MOL0     H32525   7.839   5.027   8.988 -2.2542  3.3333  1.2670
  982MOL0     H32526   7.999   5.241   9.036 -0.2352 -1.3519 -0.8058
  982MOL0     H32527   7.925   5.222   9.198  0.7468  0.8119 -0.1114
  982MOL0     H32528   7.789   5.314   8.954  2.2355 -0.0120  1.0175
  982MOL0     H32529   7.770   5.387   9.115  0.2717  1.4701 -0.6996
  982MOL0     H32530   7.583   5.461   8.997 -2.2583  0.4684 -2.8018
  982MOL0     H32531   7.260   5.567   8.927  0.1778 -0.1077  1.1397
  982MOL0     H32532   7.328   5.647   9.073  2.0219 -1.9675  2.0768
  982MOL0     H32533   7.429   5.619   8.936 -0.2132  1.9393  0.8093
  982MOL0     H32534   6.958   5.424   9.417  0.5253  0.2890 -0.5530
  982MOL0     H32535   6.710   5.424   9.471 -1.5524 -3.6543  1.1787
  982MOL0     H32536   6.464   5.366   9.470  1.8556 -0.3000 -0.9513
  982MOL0     H32537   6.509   5.534   9.418  1.2990  0.4181 -0.8773
  982MOL0     H32538   6.261   5.502   9.436  2.4284  0.2654  1.3391
  982MOL0     H32539   6.320   5.552   9.277 -0.2302  1.4998  1.4197
  982MOL0     H32540   6.207   5.285   9.398  1.3549 -2.0252 -1.6252
  982MOL0     H32541   6.316   5.266   9.274 -0.5586 -3.0873  3.1113
  982MOL0     H32542   6.163   5.419   9.131  1.7896  1.5906  1.7687
  982MOL0     H32543   6.095   5.263   9.177 -1.6990  1.6160 -2.8556
  982MOL0     H32544   6.045   5.544   9.281  0.9225 -0.0290 -2.2233
  982MOL0     H32545   6.001   5.384   9.367  1.2874 -1.7852 -0.4766
  982MOL0     H32546   5.921   5.467   9.087  0.1272 -0.7807 -0.4957
  982MOL0     H32547   5.889   5.316   9.156 -0.5818 -0.2792  1.4992
  982MOL0     H32548   5.773   5.449   9.360 -1.4071  0.2456 -0.5779
  982MOL0     H32549   5.683   5.417   9.224 -1.1822  0.4757  1.7024
  982MOL0     H32550   5.790   5.648   9.126  0.8948 -2.1390 -0.5449
  982MOL0     H32551   5.807   5.688   9.300 -3.6332  1.8002  0.6308
  982MOL0     H32552   6.625   5.300   9.073  0.1074  0.7795 -0.4667
  982MOL0     H32553   6.863   5.239   9.036 -0.0856 -0.1911  0.4871
  982MOL0     H32554   7.256   5.167   9.231 -0.5900 -0.2387  0.5462
  982MOL0     H32555   7.488   5.105   9.203  0.8480  0.2191 -1.6095
  982MOL0     H32556   9.304   4.594   9.305 -0.7231 -0.8768  0.0396
  982MOL0     H32557   9.525   4.526   9.333 -2.0556  2.7378 -1.1265
  982MOL0     H32558   9.969   4.194   8.997  1.8387 -1.5043  1.3810
  982MOL0     H32559  10.194   4.224   9.066  1.3250  1.4033  1.6490
  982MOL0     H32560  10.335   4.408   9.462 -0.0919  0.3343 -1.7080
  982MOL0     H32561  10.262   4.246   9.472  1.1117 -2.0285 -0.8858
  982MOL0     H32562  10.451   4.141   9.360  1.0283 -0.4669 -1.2503
  982MOL0     H32563  10.494   4.195   9.517  0.3359 -1.7325 -1.9762
  982MOL0     H32564  10.589   4.418   9.395  2.3090  1.0644 -2.0221
  982MOL0     H32565  10.536   4.330   9.252 -0.6676  0.2302  0.5325
  982MOL0     H32566  10.757   4.244   9.441  0.7282  1.5893  0.4899
  982MOL0     H32567  10.781   4.350   9.302 -0.4952  1.1784  1.9792
  982MOL0     H32568  10.730   3.941   9.175  2.4696 -0.6059  1.7664
  982MOL0     H32569  10.072   4.421   9.418 -3.7544 -0.2656  0.2261
  982MOL0     H32570   9.843   4.361   9.384 -1.0309 -0.4237 -0.2617
  983MOL0     O32571   0.896   5.574   2.721 -0.5667 -0.5486 -0.5963
  983MOL0     C32572   0.926   5.616   2.836 -0.4220 -0.0014  1.3869
  983MOL0     O32573   0.836   5.650   2.936  0.5553  0.7071 -0.2193
  983MOL0     C32574   0.702   5.671   2.912 -0.4083 -0.7889  0.5026
  983MOL0     C32575   0.613   5.610   2.997 -0.3757  0.9850 -0.2633
  983MOL0     C32576   0.474   5.625   2.986 -0.0738 -0.5524 -0.4228
  983MOL0     C32577   0.419   5.715   2.887  0.2751  0.3566  0.4584
  983MOL0     O32578   0.283   5.727   2.855  0.0754  0.5684  0.4465
  983MOL0     C32579   0.192   5.617   2.874 -0.6836 -0.4069 -0.5378
  983MOL0     C32580   0.135   5.619   3.019 -0.1228  0.6016  0.0132
  983MOL0     C32581   0.007   5.698   3.036  0.2210  0.3700  0.7348
  983MOL0     C32582   0.006   5.828   2.965 -0.0492 -0.1285  0.4051
  983MOL0     C32583  -0.112   5.923   3.007 -0.1665  0.2993  0.5079
  983MOL0     C32584  -0.088   5.994   3.136  0.1859 -0.0963  0.1536
  983MOL0     C32585  -0.210   6.060   3.194  0.0754  0.2378  0.0694
  983MOL0     C32586  -0.165   6.124   3.321 -0.0896 -0.6623 -0.0713
  983MOL0     N32587  -0.281   6.174   3.400  0.3580 -0.5023 -0.1120
  983MOL0     C32588  -0.336   6.110   3.509 -0.8523  0.3603 -0.0449
  983MOL0     C32589  -0.433   6.192   3.564  0.7008  0.9239  0.1088
  983MOL0     C32590  -0.523   6.170   3.683 -0.2502  0.0864  0.2090
  983MOL0     C32591  -0.658   6.241   3.669  0.1947  0.1580  0.4358
  983MOL0     C32592  -0.743   6.207   3.538 -0.2310  0.2043 -0.1490
  983MOL0     C32593  -0.846   6.315   3.518  0.6813  0.0231 -0.3725
  983MOL0     O32594  -0.928   6.267   3.416  0.0220  0.0043  0.0941
  983MOL0     C32595  -1.068   6.266   3.417  0.5510 -0.7830  0.0274
  983MOL0     C32596  -1.127   6.205   3.304 -0.3003 -0.1590 -0.1840
  983MOL0     C32597  -1.267   6.209   3.270 -0.7527 -0.3558  0.3132
  983MOL0     C32598  -1.301   6.161   3.128 -0.8419  0.3424 -0.0448
  983MOL0     C32599  -1.349   6.274   3.362  0.0327  0.6508  0.7749
  983MOL0     C32600  -1.498   6.268   3.342 -0.5226  0.1174  0.0387
  983MOL0     O32601  -1.564   6.338   3.426  0.2005  0.4557  0.0668
  983MOL0     C32602  -1.700   6.341   3.417 -0.1739  0.5067 -0.2459
  983MOL0     C32603  -1.758   6.468   3.403  0.0625 -0.1753 -0.0893
  983MOL0     C32604  -1.898   6.484   3.409 -0.1893  0.4592 -0.2206
  983MOL0     C32605  -1.978   6.372   3.412 -0.1904 -0.1410 -0.5784
  983MOL0     O32606  -2.116   6.391   3.413 -0.5057 -0.2147 -0.2547
  983MOL0     C32607  -2.197   6.300   3.345  0.0989  0.9760 -0.1244
  983MOL0     C32608  -2.285   6.211   3.440  0.6509  0.0431  0.6677
  983MOL0     C32609  -2.361   6.302   3.537 -0.3406 -0.9494 -0.0571
  983MOL0     C32610  -2.430   6.233   3.651  0.3419  0.1698  1.0267
  983MOL0     C32611  -2.509   6.338   3.735 -0.2034  0.1824 -1.0090
  983MOL0     C32612  -2.671   6.331   3.717  0.0906 -1.2681  0.8034
  983MOL0     C32613  -2.725   6.445   3.800 -0.1519 -0.0721  0.4228
  983MOL0     C32614  -2.874   6.412   3.828 -0.7934  0.3242 -0.5627
  983MOL0    Cl32615  -2.912   6.540   3.951 -0.0735  0.1445  0.3943
  983MOL0     C32616  -1.920   6.238   3.420  0.0787 -0.7718 -0.9735
  983MOL0     C32617  -1.785   6.229   3.425 -0.8366  0.4912 -0.7162
  983MOL0     O32618  -1.549   6.195   3.261  0.0349  0.0747  0.5790
  983MOL0     C32619  -1.292   6.336   3.474  0.5069  0.0592 -0.3887
  983MOL0     C32620  -1.155   6.332   3.506  0.7895  0.6721  0.1820
  983MOL0     N32621  -0.432   6.302   3.483 -0.1588 -0.3341 -0.6836
  983MOL0     N32622  -0.350   6.296   3.384 -0.3854 -0.3131 -0.3749
  983MOL0     C32623   0.512   5.763   2.788 -0.9477 -0.3041 -1.0490
  983MOL0     C32624   0.652   5.752   2.809 -0.0390  0.4678  1.1801
  983MOL0     C32625   1.071   5.630   2.867  0.5251  0.9603  0.2298
  983MOL0     C32626   1.102   5.622   3.002 -0.0965  0.2900 -0.3515
  983MOL0     C32627   1.235   5.640   3.042  0.1309 -0.8320  0.3155
  983MOL0     C32628   1.333   5.692   2.947  0.4263  1.0060 -0.6439
  983MOL0     O32629   1.456   5.731   2.991 -0.4052  0.0064 -0.0948
  983MOL0     C32630   1.535   5.811   2.903 -0.1579  0.1912  0.4969
  983MOL0     C32631   1.653   5.888   2.953  0.3721 -0.3000  0.2273
  983MOL0     C32632   1.748   5.798   3.030  0.3983  0.7915  0.1583
  983MOL0     C32633   1.883   5.863   3.042  0.4058 -0.0006 -0.4569
  983MOL0     C32634   1.967   5.776   3.127  0.5038 -0.3822 -0.0931
  983MOL0     C32635   2.043   5.709   3.206 -0.0147  0.0153  0.2133
  983MOL0     C32636   1.293   5.699   2.809 -1.0479 -0.1243  0.2122
  983MOL0     C32637   1.166   5.665   2.774  0.5068 -0.6458 -0.2695
  983MOL0     H32638   0.648   5.552   3.083 -2.1867  3.1194  2.0697
  983MOL0     H32639   0.409   5.553   3.034 -0.3623 -0.3042 -0.4365
  983MOL0     H32640   0.114   5.634   2.800  1.0727  2.5188 -1.9085
  983MOL0     H32641   0.237   5.519   2.857  0.1151 -0.2216  0.4008
  983MOL0     H32642   0.123   5.516   3.055 -2.2180  0.5054 -0.8304
  983MOL0     H32643   0.210   5.664   3.085  0.4969 -0.0004 -0.2615
  983MOL0     H32644  -0.078   5.635   3.004  1.4253 -0.2887 -1.3841
  983MOL0     H32645  -0.013   5.716   3.142  1.9772 -0.9696  1.3429
  983MOL0     H32646   0.099   5.879   2.992 -1.9049  1.9941  3.2710
  983MOL0     H32647   0.001   5.820   2.856 -2.3942  3.9799 -0.0082
  983MOL0     H32648  -0.138   6.000   2.933  1.7996  2.0499  1.5510
  983MOL0     H32649  -0.206   5.866   3.009 -0.0520  0.0456 -0.4424
  983MOL0     H32650  -0.061   5.908   3.198  1.1938  0.8090  1.0013
  983MOL0     H32651  -0.003   6.062   3.127  0.4933 -0.4082  0.6661
  983MOL0     H32652  -0.249   6.138   3.128 -0.5758  0.7486  1.0365
  983MOL0     H32653  -0.291   5.987   3.204 -0.6315  0.5736 -2.5092
  983MOL0     H32654  -0.112   6.213   3.285  1.3340 -1.6275 -0.4462
  983MOL0     H32655  -0.090   6.069   3.378  1.5978  0.8633 -0.6884
  983MOL0     H32656  -0.295   6.018   3.549 -2.5783  0.5869  2.4824
  983MOL0     H32657  -0.535   6.062   3.692  1.0233 -0.0251  0.7957
  983MOL0     H32658  -0.474   6.211   3.772  0.7131 -0.2773 -0.1465
  983MOL0     H32659  -0.644   6.349   3.683 -1.4232  0.1550  2.7624
  983MOL0     H32660  -0.722   6.206   3.751 -1.1209  1.6971  0.1303
  983MOL0     H32661  -0.788   6.108   3.550 -0.1716  0.4740  4.0530
  983MOL0     H32662  -0.676   6.216   3.452  1.0129  0.4634  0.8168
  983MOL0     H32663  -0.806   6.413   3.491  1.3398  0.1998  1.1192
  983MOL0     H32664  -0.897   6.328   3.614  0.9597 -1.2750 -0.0234
  983MOL0     H32665  -1.055   6.174   3.229  1.1945 -4.9688  2.7875
  983MOL0     H32666  -1.345   6.062   3.140 -3.7127  1.2605 -2.0335
  983MOL0     H32667  -1.362   6.233   3.072 -2.2238 -0.4181  0.4151
  983MOL0     H32668  -1.211   6.138   3.072  0.6028 -0.3542  2.4079
  983MOL0     H32669  -1.685   6.549   3.401 -2.6162  2.3945 -1.5784
  983MOL0     H32670  -1.936   6.585   3.417  3.2960  1.9213 -0.3383
  983MOL0     H32671  -2.260   6.356   3.276 -0.8732  0.3710  0.2461
  983MOL0     H32672  -2.129   6.233   3.290  1.4051  2.3618 -0.2504
  983MOL0     H32673  -2.361   6.163   3.377 -1.4733  2.1458  1.4916
  983MOL0     H32674  -2.229   6.132   3.492  0.2416 -0.7327 -0.0519
  983MOL0     H32675  -2.436   6.348   3.472  0.3647 -0.2463 -0.3983
  983MOL0     H32676  -2.289   6.375   3.578 -2.0593  2.0313 -1.9980
  983MOL0     H32677  -2.504   6.170   3.600 -0.0109 -1.7373  3.6980
  983MOL0     H32678  -2.357   6.175   3.707 -0.9897 -1.6541  0.9365
  983MOL0     H32679  -2.471   6.441   3.728  0.9275 -0.1247  0.2715
  983MOL0     H32680  -2.489   6.321   3.841  1.4067  2.1932 -0.9274
  983MOL0     H32681  -2.684   6.355   3.611 -0.6898  0.7811  1.3105
  983MOL0     H32682  -2.724   6.238   3.736 -0.8399 -0.6484  1.3322
  983MOL0     H32683  -2.724   6.544   3.754  2.0831  1.0175  2.5851
  983MOL0     H32684  -2.676   6.449   3.898  0.6971  0.2685 -0.0063
  983MOL0     H32685  -2.902   6.322   3.883 -2.3876  0.9696 -0.2847
  983MOL0     H32686  -2.921   6.417   3.730 -1.2419 -3.1610 -0.6665
  983MOL0     H32687  -1.981   6.149   3.423  0.2246 -0.8945 -1.6276
  983MOL0     H32688  -1.740   6.132   3.441 -0.8352  0.9285  2.7542
  983MOL0     H32689  -1.364   6.379   3.543  0.7474 -1.1308  0.6349
  983MOL0     H32690  -1.125   6.392   3.591 -3.7208  3.3171  0.2421
  983MOL0     H32691   0.470   5.804   2.696 -2.2834 -1.0452 -0.7984
  983MOL0     H32692   0.719   5.791   2.734  1.4711 -1.1849  1.6154
  983MOL0     H32693   1.039   5.584   3.083  3.9841 -0.6456  2.6859
  983MOL0     H32694   1.268   5.631   3.145 -2.0524 -3.9694  0.9016
  983MOL0     H32695   1.568   5.754   2.815  1.1690 -1.3694  1.9526
  983MOL0     H32696   1.470   5.892   2.868  1.4231  1.2325 -0.1427
  983MOL0     H32697   1.625   5.975   3.012  0.0125 -0.5446  0.4165
  983MOL0     H32698   1.704   5.928   2.864  0.5887 -0.6888  0.1713
  983MOL0     H32699   1.765   5.706   2.974 -2.1504  0.9168 -0.9399
  983MOL0     H32700   1.706   5.769   3.127  0.2339 -0.2691 -0.2168
  983MOL0     H32701   1.874   5.955   3.100 -2.9941 -0.7948  0.5154
  983MOL0     H32702   1.930   5.870   2.943 -0.0937 -0.8651 -0.7689
  983MOL0     H32703   2.112   5.657   3.269  1.0352  1.6943  0.5299
  983MOL0     H32704   1.358   5.733   2.730 -3.0403  2.3248 -0.5107
  983MOL0     H32705   1.135   5.657   2.670  0.6904 -2.0084 -0.2439
  984MOL0     O32706   0.993   4.294   2.728 -0.0055  0.1752  0.3765
  984MOL0     C32707   1.044   4.220   2.640 -0.2246  0.0892  0.0837
  984MOL0     O32708   1.017   4.081   2.623  0.3067 -0.2603  0.0631
  984MOL0     C32709   0.909   4.025   2.682 -0.1164  0.5008 -0.5023
  984MOL0     C32710   0.913   3.881   2.708 -0.3570 -0.8514 -0.3088
  984MOL0     C32711   0.803   3.811   2.745  0.1932 -0.7599  0.8166
  984MOL0     C32712   0.680   3.879   2.763  1.0348  0.6706 -0.2672
  984MOL0     O32713   0.572   3.805   2.796 -0.0192  0.0289 -0.8580
  984MOL0     C32714   0.488   3.872   2.905 -0.4792 -0.2744 -0.5508
  984MOL0     C32715   0.386   3.765   2.954  0.1390 -0.0305 -0.4171
  984MOL0     C32716   0.319   3.688   2.838 -0.4246  0.0229 -0.2818
  984MOL0     C32717   0.257   3.552   2.885  0.7457 -0.7475  0.6900
  984MOL0     C32718   0.169   3.475   2.780 -0.2487 -0.1623 -0.0849
  984MOL0     C32719   0.090   3.364   2.851  0.0144 -0.2194  0.2511
  984MOL0     C32720   0.012   3.276   2.760 -0.2747  0.3787  0.6935
  984MOL0     C32721  -0.067   3.178   2.846  0.3839 -0.0282 -0.1999
  984MOL0     N32722  -0.188   3.128   2.772  0.0239 -0.1365 -0.3895
  984MOL0     C32723  -0.189   3.057   2.656 -0.4946  0.8885  0.5937
  984MOL0     C32724  -0.313   3.079   2.611 -0.9593  0.8054  0.3084
  984MOL0     C32725  -0.379   3.017   2.492  0.3917 -0.1977  0.6268
  984MOL0     C32726  -0.416   2.869   2.528  0.2916  0.1569  0.3687
  984MOL0     C32727  -0.509   2.868   2.653  0.7343  1.7857 -0.2377
  984MOL0     C32728  -0.600   2.741   2.670  0.1941 -0.0737 -0.5737
  984MOL0     O32729  -0.721   2.766   2.608 -0.2273  0.0140  0.5461
  984MOL0     C32730  -0.818   2.667   2.617 -0.1541  0.2288 -0.9641
  984MOL0     C32731  -0.820   2.559   2.710  0.1535 -0.3397  0.3239
  984MOL0     C32732  -0.929   2.470   2.713 -0.7140 -0.0185 -0.0635
  984MOL0     C32733  -0.925   2.363   2.826  0.3986 -0.3186 -0.0355
  984MOL0     C32734  -1.044   2.487   2.629 -0.0557  0.0870 -0.5683
  984MOL0     C32735  -1.163   2.388   2.620 -0.1690 -0.1163  0.3988
  984MOL0     O32736  -1.256   2.426   2.522 -0.3630 -0.3792  0.0199
  984MOL0     C32737  -1.362   2.347   2.498  0.3463 -0.1561  0.6610
  984MOL0     C32738  -1.490   2.408   2.484 -0.1641  0.7386  0.0533
  984MOL0     C32739  -1.600   2.328   2.447  0.0676  0.2988  0.3797
  984MOL0     C32740  -1.601   2.190   2.442 -0.9521 -0.8868  1.4144
  984MOL0     O32741  -1.711   2.124   2.422  1.0260  0.5373  0.6284
  984MOL0     C32742  -1.714   1.994   2.363 -0.1590 -0.4036 -0.0351
  984MOL0     C32743  -1.860   1.951   2.317  0.0312  0.3625  0.2722
  984MOL0     C32744  -1.855   1.804   2.286 -0.6479 -0.1774 -0.7050
  984MOL0     C32745  -1.984   1.767   2.207  0.2453  0.1223 -0.5882
  984MOL0     C32746  -2.108   1.844   2.245 -0.0950  0.0264  0.2799
  984MOL0     C32747  -2.158   1.810   2.378 -0.6389  0.1152 -0.6823
  984MOL0     C32748  -2.313   1.824   2.390  0.3820  0.7379 -0.7441
  984MOL0     C32749  -2.376   1.775   2.528  0.7124  0.6738  0.5278
  984MOL0    Cl32750  -2.353   1.590   2.501  0.0847 -0.2448  0.5773
  984MOL0     C32751  -1.473   2.132   2.449  0.9401  0.5030 -0.7250
  984MOL0     C32752  -1.357   2.209   2.477 -0.1905  0.0308 -0.4744
  984MOL0     O32753  -1.179   2.289   2.690  0.0141  0.3116 -0.6388
  984MOL0     C32754  -1.038   2.594   2.537  0.9750  1.5513 -0.5053
  984MOL0     C32755  -0.928   2.672   2.527  0.2737  0.9017 -0.5002
  984MOL0     N32756  -0.376   3.167   2.693 -0.2224  0.2770  0.0255
  984MOL0     N32757  -0.303   3.192   2.793  0.2220  0.4726 -0.2714
  984MOL0     C32758   0.680   4.019   2.752 -0.0846 -0.7807 -0.3682
  984MOL0     C32759   0.786   4.091   2.710  0.2520  0.4157 -0.1984
  984MOL0     C32760   1.154   4.288   2.566  0.2544  0.9605 -0.3553
  984MOL0     C32761   1.211   4.221   2.458  0.1759 -0.6743  0.0762
  984MOL0     C32762   1.313   4.281   2.387 -0.5847 -0.1315 -0.2213
  984MOL0     C32763   1.379   4.398   2.426  0.0850 -0.6072 -0.0729
  984MOL0     O32764   1.483   4.440   2.352  0.1147 -0.3412 -0.4933
  984MOL0     C32765   1.557   4.562   2.386  0.5965 -0.6227 -0.0971
  984MOL0     C32766   1.685   4.569   2.306 -0.4795  0.4078  0.4144
  984MOL0     C32767   1.659   4.556   2.153 -0.4714  0.0495 -0.3962
  984MOL0     C32768   1.607   4.696   2.101  0.0746 -0.3135 -0.6156
  984MOL0     C32769   1.711   4.796   2.115 -0.1453 -0.4345  0.1095
  984MOL0     C32770   1.800   4.876   2.129  0.4557 -0.0050 -0.4841
  984MOL0     C32771   1.328   4.467   2.540  0.2095  0.0872 -0.2422
  984MOL0     C32772   1.216   4.408   2.602  0.9394 -0.3475 -0.1929
  984MOL0     H32773   1.006   3.827   2.690 -0.0100 -1.4047  2.6471
  984MOL0     H32774   0.810   3.703   2.754  0.4947 -0.6560  2.0110
  984MOL0     H32775   0.543   3.912   2.990  0.2264  1.8010 -1.9128
  984MOL0     H32776   0.430   3.952   2.857 -2.2471 -0.7157  0.7374
  984MOL0     H32777   0.449   3.697   3.013 -0.3524 -0.5968 -0.5329
  984MOL0     H32778   0.308   3.807   3.018  0.7517 -0.0561  0.3617
  984MOL0     H32779   0.249   3.758   2.791 -0.8986  0.7844  1.4574
  984MOL0     H32780   0.391   3.654   2.763 -1.4360  0.9761 -1.7298
  984MOL0     H32781   0.336   3.481   2.914  2.9012  1.0947 -0.3122
  984MOL0     H32782   0.194   3.574   2.971 -1.9342 -0.9926 -1.1021
  984MOL0     H32783   0.104   3.542   2.724  0.2588  0.1497 -0.3157
  984MOL0     H32784   0.251   3.438   2.716 -0.4514  0.6513 -0.8259
  984MOL0     H32785   0.159   3.307   2.914  0.5622  1.6425  1.4067
  984MOL0     H32786   0.022   3.417   2.919 -0.4776 -0.8423  0.2538
  984MOL0     H32787  -0.058   3.339   2.705  0.6239 -1.5847 -3.0770
  984MOL0     H32788   0.067   3.217   2.686 -1.5419 -0.5759  0.4770
  984MOL0     H32789  -0.104   3.224   2.938  1.0801 -1.4913  0.8677
  984MOL0     H32790  -0.006   3.091   2.873 -1.5193 -1.1692  0.5925
  984MOL0     H32791  -0.116   2.988   2.614 -0.6809  1.6158 -0.9971
  984MOL0     H32792  -0.479   3.062   2.484  0.7057  0.2796 -0.9946
  984MOL0     H32793  -0.336   3.034   2.393 -0.8307  0.2209  0.1440
  984MOL0     H32794  -0.326   2.808   2.539  0.6201  0.7167  0.8092
  984MOL0     H32795  -0.474   2.838   2.441  0.1499 -2.4495  1.2799
  984MOL0     H32796  -0.577   2.954   2.646  0.7911  1.7892 -0.7504
  984MOL0     H32797  -0.444   2.877   2.741  1.4323 -3.1005 -0.0252
  984MOL0     H32798  -0.607   2.725   2.778  0.5160  0.0597 -0.5301
  984MOL0     H32799  -0.562   2.646   2.630 -1.8622 -0.8203 -0.8636
  984MOL0     H32800  -0.743   2.542   2.785  0.3211 -1.7036 -0.1353
  984MOL0     H32801  -1.020   2.362   2.881  2.0571  0.9120  3.1436
  984MOL0     H32802  -0.909   2.264   2.782  4.5104 -2.1089  4.4933
  984MOL0     H32803  -0.850   2.378   2.904  0.9904 -0.4985 -0.5631
  984MOL0     H32804  -1.487   2.515   2.470  0.4193  1.1818  2.8390
  984MOL0     H32805  -1.698   2.370   2.425 -0.0123 -0.7714 -1.5611
  984MOL0     H32806  -1.649   1.994   2.275  1.6146 -0.0404  1.2194
  984MOL0     H32807  -1.666   1.923   2.431  4.0015  1.5899 -0.5667
  984MOL0     H32808  -1.929   1.961   2.402 -0.8566 -1.2808 -0.2123
  984MOL0     H32809  -1.884   2.006   2.226 -0.5730  0.9674  0.7797
  984MOL0     H32810  -1.858   1.744   2.377 -0.1412 -0.8013 -1.0909
  984MOL0     H32811  -1.774   1.786   2.215 -0.9147  2.4275 -1.7782
  984MOL0     H32812  -1.951   1.772   2.103 -0.5504 -0.0635 -0.8529
  984MOL0     H32813  -2.010   1.661   2.215  0.2131  0.2388  1.5445
  984MOL0     H32814  -2.183   1.807   2.175 -0.4376 -2.9235  2.0408
  984MOL0     H32815  -2.099   1.952   2.232  2.3577  0.5431  4.3882
  984MOL0     H32816  -2.133   1.705   2.401 -0.3382  0.9584  3.7211
  984MOL0     H32817  -2.108   1.857   2.463  1.5617 -2.6814 -0.2458
  984MOL0     H32818  -2.348   1.758   2.311  0.2738 -3.6999  2.5921
  984MOL0     H32819  -2.341   1.929   2.379 -0.5740  0.9598  2.5782
  984MOL0     H32820  -2.482   1.798   2.542 -0.6114 -2.4796 -2.8152
  984MOL0     H32821  -2.325   1.823   2.612 -0.5838  6.8316 -1.6817
  984MOL0     H32822  -1.463   2.024   2.447 -0.7899  0.2645  0.6561
  984MOL0     H32823  -1.264   2.154   2.486 -0.0157  0.2669 -0.8076
  984MOL0     H32824  -1.120   2.611   2.468 -1.8062  0.5790  2.3080
  984MOL0     H32825  -0.922   2.754   2.456  2.2774  1.8211  0.6407
  984MOL0     H32826   0.591   4.078   2.771  1.4037  1.2768  0.5527
  984MOL0     H32827   0.763   4.196   2.696  0.0309  0.3606 -0.2502
  984MOL0     H32828   1.158   4.130   2.435 -0.5822 -0.3485  0.4962
  984MOL0     H32829   1.362   4.230   2.305  2.3397  0.2493  1.1496
  984MOL0     H32830   1.499   4.652   2.364 -4.0305 -3.3283 -0.3786
  984MOL0     H32831   1.578   4.565   2.493 -1.0044 -0.9823  0.2536
  984MOL0     H32832   1.748   4.487   2.340  2.2953  1.6595 -1.3403
  984MOL0     H32833   1.749   4.655   2.330  1.1373 -0.5473 -0.2747
  984MOL0     H32834   1.594   4.471   2.129  1.2345 -1.2080 -0.7672
  984MOL0     H32835   1.755   4.534   2.106  0.2837  0.1625  1.0394
  984MOL0     H32836   1.521   4.729   2.161  0.7977 -1.6659  1.2520
  984MOL0     H32837   1.580   4.681   1.996 -0.5525  2.1583 -0.8718
  984MOL0     H32838   1.880   4.947   2.125 -0.5561  1.1829 -0.6328
  984MOL0     H32839   1.359   4.566   2.574  0.8312 -0.4098  0.6779
  984MOL0     H32840   1.185   4.459   2.693  3.0293  0.8130 -0.0525
  985MOL0     O32841   3.102   1.579   6.969 -0.3335 -0.2050 -0.2772
  985MOL0     C32842   3.188   1.540   6.893 -0.4837  0.1560  0.2596
  985MOL0     O32843   3.166   1.528   6.759  0.1555  0.4544  0.2233
  985MOL0     C32844   3.045   1.565   6.714 -0.3659  0.3995 -1.0377
  985MOL0     C32845   2.937   1.475   6.733 -0.2265  0.9662  1.8352
  985MOL0     C32846   2.812   1.497   6.676  1.2042  0.0945 -0.4079
  985MOL0     C32847   2.785   1.618   6.606  0.6923 -0.1583 -0.3096
  985MOL0     O32848   2.664   1.656   6.550 -0.3364  0.3408  0.6986
  985MOL0     C32849   2.577   1.556   6.507 -0.0582 -0.6083 -0.1696
  985MOL0     C32850   2.475   1.616   6.410  0.7447 -0.4639  0.4239
  985MOL0     C32851   2.355   1.529   6.374 -0.3366 -0.4463 -0.4381
  985MOL0     C32852   2.265   1.615   6.283  0.0102  0.5213  0.3471
  985MOL0     C32853   2.153   1.530   6.216 -0.3912  0.0589 -0.1222
  985MOL0     C32854   2.038   1.494   6.302  0.8730 -0.4399  0.1059
  985MOL0     C32855   1.961   1.615   6.341 -0.0448 -0.4405 -0.8101
  985MOL0     C32856   1.831   1.584   6.420 -0.0372  0.2100 -0.0488
  985MOL0     N32857   1.709   1.599   6.341  0.2793  0.3644  0.5051
  985MOL0     C32858   1.660   1.721   6.299  0.5977 -0.7509  0.1498
  985MOL0     C32859   1.530   1.704   6.261  0.3363 -0.3597  0.2226
  985MOL0     C32860   1.431   1.817   6.220  0.8521  0.2467  0.0829
  985MOL0     C32861   1.283   1.757   6.195 -0.1763  0.1781  0.2449
  985MOL0     C32862   1.188   1.859   6.135 -0.1358 -0.0170  0.2559
  985MOL0     C32863   1.049   1.797   6.128  0.0119 -0.4392  0.8946
  985MOL0     O32864   0.957   1.910   6.109  0.2568 -0.2873  1.0735
  985MOL0     C32865   0.822   1.872   6.126 -0.3908  0.0964 -0.9040
  985MOL0     C32866   0.763   1.810   6.242 -0.1135  0.2157 -0.1245
  985MOL0     C32867   0.624   1.781   6.242  0.6773  0.0125 -0.1456
  985MOL0     C32868   0.560   1.738   6.374 -0.2978 -0.3270 -0.8801
  985MOL0     C32869   0.545   1.799   6.128 -0.4838  0.3141 -0.0047
  985MOL0     C32870   0.397   1.763   6.108 -0.2354  0.2446 -0.5151
  985MOL0     O32871   0.326   1.844   6.029  0.3602  0.1510 -0.3727
  985MOL0     C32872   0.199   1.802   6.007  0.1003  0.4703 -0.0417
  985MOL0     C32873   0.180   1.689   5.930 -0.0795  0.0163 -0.5724
  985MOL0     C32874   0.050   1.639   5.903 -0.0859 -0.4941 -0.1819
  985MOL0     C32875  -0.053   1.713   5.961 -0.4096  0.2967 -0.6404
  985MOL0     O32876  -0.177   1.651   5.938 -0.0691 -0.3710 -0.3631
  985MOL0     C32877  -0.289   1.738   5.934 -1.0567  0.7319  0.0759
  985MOL0     C32878  -0.404   1.668   5.868  0.3800  1.1958 -0.2920
  985MOL0     C32879  -0.533   1.727   5.931  0.0433 -0.1503  0.6154
  985MOL0     C32880  -0.656   1.657   5.859 -1.0125 -0.0732 -0.6044
  985MOL0     C32881  -0.793   1.705   5.901  0.0895 -0.3364  0.5422
  985MOL0     C32882  -0.902   1.665   5.794  0.8717  0.5558  0.1008
  985MOL0     C32883  -1.043   1.714   5.836 -0.3700  0.0221 -0.4137
  985MOL0     C32884  -1.140   1.725   5.711  0.7001  1.1666  0.0617
  985MOL0    Cl32885  -1.067   1.811   5.559 -0.3670 -0.0477 -0.3676
  985MOL0     C32886  -0.036   1.813   6.049  0.1376  0.5849  0.2765
  985MOL0     C32887   0.089   1.862   6.069  0.4117  0.3531 -0.0593
  985MOL0     O32888   0.353   1.668   6.173 -0.2257 -0.2123 -0.6169
  985MOL0     C32889   0.612   1.851   6.015 -0.8257  0.2904 -0.3589
  985MOL0     C32890   0.743   1.888   6.016 -0.9272 -0.8039  0.0460
  985MOL0     N32891   1.514   1.570   6.249  0.4883  0.5357 -0.1747
  985MOL0     N32892   1.621   1.506   6.299 -0.1335 -0.1202  0.3708
  985MOL0     C32893   2.887   1.703   6.597 -0.2939  0.2721  0.3075
  985MOL0     C32894   3.019   1.676   6.638  0.5030 -0.3667  0.4252
  985MOL0     C32895   3.324   1.506   6.942  0.1430 -0.0620 -0.8818
  985MOL0     C32896   3.436   1.464   6.858  0.2529 -0.4869  0.0664
  985MOL0     C32897   3.559   1.443   6.909  0.6544  0.8587 -1.1074
  985MOL0     C32898   3.579   1.451   7.046 -0.1331  0.2110  0.2948
  985MOL0     O32899   3.701   1.432   7.107 -0.1664  0.6809 -0.2072
  985MOL0     C32900   3.817   1.387   7.035 -0.5800  0.2365  0.8110
  985MOL0     C32901   3.854   1.238   7.035  0.4031 -0.2257  0.4275
  985MOL0     C32902   3.957   1.202   6.924 -0.4160  0.1100  0.2636
  985MOL0     C32903   3.909   1.207   6.775  0.0405 -0.7813  0.1295
  985MOL0     C32904   3.862   1.076   6.726 -0.5455 -0.0417  0.4154
  985MOL0     C32905   3.822   0.963   6.702  0.0374 -0.4101 -0.1091
  985MOL0     C32906   3.475   1.490   7.132  0.2657 -0.7664  0.3975
  985MOL0     C32907   3.346   1.513   7.085 -0.3553 -0.2382 -0.5389
  985MOL0     H32908   2.956   1.381   6.785 -4.1811  0.6380  2.9942
  985MOL0     H32909   2.729   1.428   6.686 -0.3523  1.2524 -3.7153
  985MOL0     H32910   2.642   1.488   6.451 -0.0194 -0.6424 -0.0833
  985MOL0     H32911   2.536   1.501   6.591  1.0659 -0.0672  0.7580
  985MOL0     H32912   2.440   1.716   6.435 -2.0287 -0.5448 -2.4937
  985MOL0     H32913   2.543   1.627   6.325  1.0613 -0.6966  0.6424
  985MOL0     H32914   2.388   1.438   6.324 -0.0580 -0.3306 -0.4653
  985MOL0     H32915   2.304   1.507   6.468 -0.7934  2.4985  0.0975
  985MOL0     H32916   2.219   1.699   6.334  2.0579  0.4740  2.3989
  985MOL0     H32917   2.325   1.661   6.204  1.2441 -0.4488  0.6762
  985MOL0     H32918   2.121   1.590   6.131 -0.2188  0.9556  0.4376
  985MOL0     H32919   2.206   1.439   6.184  0.7887  0.6311  0.1327
  985MOL0     H32920   1.975   1.432   6.238  2.8726 -1.7202 -0.6774
  985MOL0     H32921   2.066   1.442   6.394  0.2528 -2.1358 -0.6178
  985MOL0     H32922   2.018   1.682   6.406 -3.2636 -0.0133  1.8480
  985MOL0     H32923   1.926   1.666   6.251  1.3340  0.1567 -1.0322
  985MOL0     H32924   1.808   1.647   6.506 -3.3314 -0.5861 -0.1861
  985MOL0     H32925   1.823   1.479   6.448 -2.5280 -0.5069 -2.8658
  985MOL0     H32926   1.706   1.816   6.326 -3.6626  1.4512  0.5439
  985MOL0     H32927   1.422   1.893   6.298  1.3186 -1.0655  1.4629
  985MOL0     H32928   1.468   1.868   6.130  1.2813 -1.0258 -0.4855
  985MOL0     H32929   1.240   1.715   6.287  0.0132 -0.7870 -0.0984
  985MOL0     H32930   1.290   1.670   6.128 -0.8909  0.0322  0.3545
  985MOL0     H32931   1.224   1.886   6.036  1.9407  2.2872  1.5368
  985MOL0     H32932   1.190   1.947   6.201  0.3788  1.1361 -1.2552
  985MOL0     H32933   1.021   1.741   6.218 -0.8706 -2.0702 -0.3334
  985MOL0     H32934   1.045   1.719   6.051 -1.9490 -1.6270  2.1058
  985MOL0     H32935   0.833   1.788   6.323 -1.3121 -0.0085  0.8780
  985MOL0     H32936   0.558   1.808   6.458  1.3216 -1.2094 -0.0459
  985MOL0     H32937   0.456   1.708   6.361 -0.1724 -0.0586 -2.8794
  985MOL0     H32938   0.612   1.647   6.406 -3.2568 -2.3434 -1.3708
  985MOL0     H32939   0.268   1.647   5.881  0.1490  1.1676 -1.1775
  985MOL0     H32940   0.022   1.560   5.834  0.3991 -0.3787 -0.5126
  985MOL0     H32941  -0.313   1.758   6.039 -1.3884 -0.2035  0.1867
  985MOL0     H32942  -0.273   1.833   5.881 -0.6683  0.1466 -0.8826
  985MOL0     H32943  -0.405   1.682   5.760 -0.4811 -1.3328 -0.6984
  985MOL0     H32944  -0.400   1.561   5.893 -1.0938  1.5540  1.6912
  985MOL0     H32945  -0.534   1.834   5.905  1.4819  0.0665  1.3823
  985MOL0     H32946  -0.537   1.715   6.039  2.4578 -1.3970  0.6326
  985MOL0     H32947  -0.632   1.657   5.752  0.6342  1.5631 -0.2743
  985MOL0     H32948  -0.656   1.553   5.895 -0.7126  0.1741  0.1196
  985MOL0     H32949  -0.786   1.814   5.905 -1.9976 -0.2022  1.7410
  985MOL0     H32950  -0.810   1.679   6.006  0.8748  3.0452  1.6208
  985MOL0     H32951  -0.874   1.705   5.696  0.1870 -1.6021 -1.0464
  985MOL0     H32952  -0.910   1.557   5.776  3.3007  0.2180  0.6982
  985MOL0     H32953  -1.048   1.809   5.890 -2.9153 -0.0114 -0.4474
  985MOL0     H32954  -1.095   1.642   5.900 -1.1587  0.8660 -0.0773
  985MOL0     H32955  -1.231   1.779   5.739 -1.9876 -3.8073  2.0332
  985MOL0     H32956  -1.175   1.627   5.679  1.7396  0.6986  0.2972
  985MOL0     H32957  -0.125   1.864   6.083  0.4108  1.5717 -0.4252
  985MOL0     H32958   0.100   1.947   6.135 -4.4811  2.2351 -1.1782
  985MOL0     H32959   0.560   1.871   5.922  1.3281  1.1832 -1.4397
  985MOL0     H32960   0.787   1.923   5.923 -3.5434  0.0845 -0.9456
  985MOL0     H32961   2.867   1.797   6.547  0.6735 -0.4142 -1.4737
  985MOL0     H32962   3.101   1.741   6.608 -1.1828  0.6967 -2.1758
  985MOL0     H32963   3.408   1.455   6.753 -0.9336  2.0279  0.0937
  985MOL0     H32964   3.623   1.413   6.827 -1.6309 -0.8287 -2.3878
  985MOL0     H32965   3.819   1.431   6.935 -0.7262  2.6980  1.8209
  985MOL0     H32966   3.902   1.431   7.088 -0.9356 -1.4630  2.9318
  985MOL0     H32967   3.766   1.178   7.009  2.5079 -2.7812 -1.3274
  985MOL0     H32968   3.891   1.209   7.134  0.5058 -1.6712 -0.0078
  985MOL0     H32969   3.987   1.100   6.949 -0.8084 -0.1196 -0.1846
  985MOL0     H32970   4.037   1.275   6.941 -0.4802  0.1601  0.3518
  985MOL0     H32971   3.995   1.237   6.714 -0.0967 -2.6579 -1.0715
  985MOL0     H32972   3.825   1.277   6.772 -0.3840 -1.2008  1.4762
  985MOL0     H32973   3.793   0.861   6.687 -0.3463 -0.1696 -1.0960
  985MOL0     H32974   3.509   1.488   7.235  1.9733  0.1333 -0.1050
  985MOL0     H32975   3.266   1.541   7.152 -0.6999 -0.1656 -0.9818
  986MOL0     O32976   0.705   8.070   5.181  0.1440 -0.0601  0.4155
  986MOL0     C32977   0.633   8.041   5.083  0.7973  0.6086  0.1717
  986MOL0     O32978   0.492   8.047   5.083 -0.3345  0.2678  0.1351
  986MOL0     C32979   0.419   8.087   5.194  0.7188  0.3164 -0.0322
  986MOL0     C32980   0.279   8.101   5.166 -0.1729  0.0891 -0.4552
  986MOL0     C32981   0.184   8.144   5.269  1.2289  0.0970  0.4204
  986MOL0     C32982   0.225   8.164   5.396  0.0725  0.1408  0.3351
  986MOL0     O32983   0.133   8.196   5.491 -0.3756  0.0318 -0.2438
  986MOL0     C32984   0.133   8.106   5.605 -0.1577  0.0126 -0.3800
  986MOL0     C32985   0.069   7.979   5.552  0.5119 -0.3001 -0.6108
  986MOL0     C32986  -0.069   8.002   5.496 -1.1522  1.2145 -0.4933
  986MOL0     C32987  -0.172   8.028   5.615  0.0738 -0.2528 -0.0452
  986MOL0     C32988  -0.304   8.085   5.556 -0.8778  0.1948  0.0730
  986MOL0     C32989  -0.377   7.975   5.477  0.2828 -0.2201  0.3775
  986MOL0     C32990  -0.522   8.023   5.447 -0.1164  0.8311  0.3992
  986MOL0     C32991  -0.604   7.899   5.439 -0.0611 -0.3135  0.3995
  986MOL0     N32992  -0.747   7.920   5.470  0.7960  0.0959 -0.3159
  986MOL0     C32993  -0.841   7.997   5.407 -0.2190  0.8473 -0.4969
  986MOL0     C32994  -0.942   8.017   5.480  0.5269  0.1471 -0.5916
  986MOL0     C32995  -1.040   8.119   5.433  0.0568  0.6384 -0.2325
  986MOL0     C32996  -1.139   8.037   5.348 -0.1316  0.9955 -0.3445
  986MOL0     C32997  -1.274   8.101   5.326  0.3615 -0.4439  0.9591
  986MOL0     C32998  -1.353   7.999   5.239  0.4815  0.0823 -0.9901
  986MOL0     O32999  -1.476   8.055   5.194  0.3352  0.8232  0.8445
  986MOL0     C33000  -1.596   8.044   5.249 -0.3264 -0.0585  0.5680
  986MOL0     C33001  -1.624   8.021   5.376 -0.0952  0.9686 -0.1200
  986MOL0     C33002  -1.750   8.031   5.425  0.0767 -0.0477 -0.0561
  986MOL0     C33003  -1.776   7.980   5.562 -0.9673  0.2473  0.4417
  986MOL0     C33004  -1.853   8.089   5.340  0.3352 -0.4773 -0.6791
  986MOL0     C33005  -1.993   8.125   5.384 -0.3376 -0.7691 -0.5322
  986MOL0     O33006  -2.087   8.146   5.287  1.0185 -0.4714 -0.3091
  986MOL0     C33007  -2.215   8.196   5.316  0.5383 -0.1124  0.3949
  986MOL0     C33008  -2.327   8.115   5.300 -0.3895  0.1314  0.6494
  986MOL0     C33009  -2.459   8.146   5.319  0.0015 -1.6229  0.6001
  986MOL0     C33010  -2.479   8.278   5.368 -0.6835  0.5216  0.6351
  986MOL0     O33011  -2.598   8.331   5.405  0.3899 -0.0434 -0.5063
  986MOL0     C33012  -2.711   8.243   5.400  0.4967 -0.0981  0.5735
  986MOL0     C33013  -2.838   8.298   5.471  0.2948 -0.3769  0.0340
  986MOL0     C33014  -2.952   8.203   5.497 -0.8835  0.4328  0.2152
  986MOL0     C33015  -3.056   8.271   5.581 -0.7582 -0.7735  0.2031
  986MOL0     C33016  -3.202   8.205   5.590 -0.0381 -0.3237  0.4055
  986MOL0     C33017  -3.210   8.072   5.657 -0.8542 -0.0691  0.1693
  986MOL0     C33018  -3.352   8.018   5.678 -0.5617  0.0468 -0.2186
  986MOL0     C33019  -3.411   7.932   5.561  0.5115  0.3158  0.2196
  986MOL0    Cl33020  -3.481   8.033   5.432 -0.1420  0.3080  0.4182
  986MOL0     C33021  -2.372   8.366   5.379 -0.4326 -0.8234 -0.0169
  986MOL0     C33022  -2.242   8.331   5.357 -0.3726  0.5329 -0.4755
  986MOL0     O33023  -2.007   8.133   5.505 -0.9471  0.7984 -0.1857
  986MOL0     C33024  -1.822   8.117   5.203 -0.1742 -0.1087 -0.1941
  986MOL0     C33025  -1.694   8.086   5.157 -0.5429  0.7655  0.1634
  986MOL0     N33026  -0.930   7.927   5.586 -0.5368 -0.4458  0.9468
  986MOL0     N33027  -0.808   7.874   5.585 -0.2607  0.4468  0.9275
  986MOL0     C33028   0.364   8.159   5.426  0.0628  1.1559 -0.1642
  986MOL0     C33029   0.454   8.115   5.326 -0.1801  0.6342  0.2419
  986MOL0     C33030   0.693   7.995   4.950  0.6975 -0.4731 -0.1057
  986MOL0     C33031   0.620   7.913   4.864 -0.3658 -0.2087 -0.2133
  986MOL0     C33032   0.679   7.873   4.743  0.2333  0.5362  0.5540
  986MOL0     C33033   0.813   7.902   4.718 -0.6519  0.0189  0.5872
  986MOL0     O33034   0.872   7.851   4.608 -0.2508  0.6231  0.8198
  986MOL0     C33035   1.011   7.875   4.588 -0.2433  0.8301 -1.1561
  986MOL0     C33036   1.049   7.777   4.478 -0.2736  0.2784 -0.0669
  986MOL0     C33037   1.206   7.774   4.452  0.3656 -0.7188 -0.1894
  986MOL0     C33038   1.275   7.659   4.541 -0.8290 -0.0209 -0.0512
  986MOL0     C33039   1.422   7.673   4.533 -0.4334 -1.5547  0.4439
  986MOL0     C33040   1.548   7.695   4.511  0.7501  0.8565 -0.8036
  986MOL0     C33041   0.884   7.971   4.820 -0.0236 -0.7265 -0.4148
  986MOL0     C33042   0.819   8.021   4.929  0.6757 -0.1037  0.5462
  986MOL0     H33043   0.237   8.077   5.069  0.9090 -0.3792 -0.8101
  986MOL0     H33044   0.078   8.143   5.247  0.9122 -1.7234  1.8473
  986MOL0     H33045   0.233   8.076   5.638  0.7248  1.9154 -1.2065
  986MOL0     H33046   0.091   8.155   5.693  0.0839 -0.0831 -0.2111
  986MOL0     H33047   0.131   7.928   5.477  1.1813 -1.0730  0.4339
  986MOL0     H33048   0.072   7.907   5.635 -1.2739 -0.4782 -0.6786
  986MOL0     H33049  -0.067   8.090   5.431 -1.0624  0.6665 -1.2541
  986MOL0     H33050  -0.090   7.919   5.428  2.3920  0.1031 -0.4176
  986MOL0     H33051  -0.193   7.941   5.677  0.3243 -0.6135 -0.4646
  986MOL0     H33052  -0.132   8.104   5.683  2.2851 -0.7226 -0.7270
  986MOL0     H33053  -0.367   8.109   5.642  0.8487 -0.9138  1.7113
  986MOL0     H33054  -0.283   8.177   5.500  0.8110 -0.3155 -0.1793
  986MOL0     H33055  -0.324   7.945   5.387  0.6883 -0.4155  0.6773
  986MOL0     H33056  -0.372   7.889   5.545  2.7587 -0.8244 -0.4682
  986MOL0     H33057  -0.552   8.091   5.527 -1.0624 -0.0593  0.8281
  986MOL0     H33058  -0.523   8.080   5.354 -0.8427  0.8026  0.3793
  986MOL0     H33059  -0.583   7.818   5.509 -0.4592 -0.9721 -0.2385
  986MOL0     H33060  -0.587   7.863   5.337  1.1107  3.8215 -1.0665
  986MOL0     H33061  -0.818   8.051   5.315  0.6658 -2.2522 -2.2285
  986MOL0     H33062  -1.095   8.169   5.513  1.6964 -0.9895  2.0365
  986MOL0     H33063  -0.994   8.192   5.366  0.1424 -1.2813 -2.4021
  986MOL0     H33064  -1.157   7.936   5.387  3.5494 -0.9861 -3.0928
  986MOL0     H33065  -1.090   8.003   5.256 -0.4778 -0.2764 -0.0779
  986MOL0     H33066  -1.268   8.197   5.274  0.4681  0.5388  2.6995
  986MOL0     H33067  -1.330   8.120   5.419 -0.0112  0.1903  0.6098
  986MOL0     H33068  -1.378   7.909   5.296  0.2244  0.9663  0.3342
  986MOL0     H33069  -1.289   7.964   5.158  0.2456 -0.6316 -0.8738
  986MOL0     H33070  -1.550   7.985   5.446  1.4548  0.9558 -1.7070
  986MOL0     H33071  -1.783   8.070   5.625  2.1237  1.6631 -1.0748
  986MOL0     H33072  -1.867   7.918   5.566 -0.3780 -0.6865  4.9183
  986MOL0     H33073  -1.700   7.911   5.600 -2.2508 -0.4144  2.0013
  986MOL0     H33074  -2.307   8.018   5.256 -1.0628  1.1630 -2.1968
  986MOL0     H33075  -2.536   8.071   5.305 -0.2605 -1.2447 -0.0864
  986MOL0     H33076  -2.738   8.219   5.297 -1.3296  3.3083  0.0986
  986MOL0     H33077  -2.697   8.146   5.448  1.2002  1.0568  2.8700
  986MOL0     H33078  -2.806   8.339   5.567  0.1953 -0.7143  0.2140
  986MOL0     H33079  -2.887   8.381   5.420  0.4498 -1.5804 -2.2037
  986MOL0     H33080  -2.917   8.108   5.538  0.7008  0.7365 -0.3408
  986MOL0     H33081  -3.000   8.176   5.402  0.6068 -0.3894 -0.3444
  986MOL0     H33082  -3.029   8.279   5.687 -4.9050 -0.2799  1.4076
  986MOL0     H33083  -3.064   8.376   5.552  3.1089  0.4172  2.6664
  986MOL0     H33084  -3.246   8.168   5.496 -3.6882  1.8919  1.0172
  986MOL0     H33085  -3.277   8.277   5.624  0.0163  0.9731 -1.9332
  986MOL0     H33086  -3.145   8.005   5.600 -1.0242 -1.7721  1.8475
  986MOL0     H33087  -3.161   8.082   5.754 -0.8616  0.9889  0.0804
  986MOL0     H33088  -3.409   8.108   5.704  1.5714  1.4094  0.0282
  986MOL0     H33089  -3.357   7.947   5.761 -0.6151  1.0817  0.6924
  986MOL0     H33090  -3.493   7.876   5.608 -0.7962  2.7683  1.0238
  986MOL0     H33091  -3.344   7.853   5.525 -0.2597 -0.0474 -0.4250
  986MOL0     H33092  -2.405   8.466   5.404 -0.3576 -0.9882  0.7549
  986MOL0     H33093  -2.160   8.398   5.381  0.2054 -0.8790  1.7507
  986MOL0     H33094  -1.906   8.143   5.141 -2.9218  0.1747  3.3097
  986MOL0     H33095  -1.667   8.105   5.054 -2.6265 -0.5446 -0.7011
  986MOL0     H33096   0.411   8.189   5.518  0.6305 -0.0648 -0.0384
  986MOL0     H33097   0.556   8.103   5.359 -0.4315  3.9360  2.7051
  986MOL0     H33098   0.517   7.890   4.888  0.4853 -3.1823  1.1011
  986MOL0     H33099   0.622   7.810   4.675  0.3435  1.6369 -0.5753
  986MOL0     H33100   1.039   7.972   4.546  4.0073 -0.3104 -1.4111
  986MOL0     H33101   1.068   7.862   4.681 -1.2996  0.5684 -0.5278
  986MOL0     H33102   0.994   7.807   4.388 -0.2001 -0.2845 -0.3065
  986MOL0     H33103   1.018   7.675   4.505 -1.2880  0.4861 -0.3737
  986MOL0     H33104   1.249   7.873   4.467 -1.3162  0.2620 -1.4602
  986MOL0     H33105   1.221   7.747   4.347  0.7512 -1.0402 -0.0523
  986MOL0     H33106   1.262   7.559   4.499  0.9115 -1.0504  1.7150
  986MOL0     H33107   1.238   7.669   4.643 -3.4217  1.1731 -1.0168
  986MOL0     H33108   1.654   7.708   4.516  0.4776  3.4998 -0.3358
  986MOL0     H33109   0.991   7.989   4.827 -0.2279  0.0074  4.1949
  986MOL0     H33110   0.879   8.079   4.998 -0.3852  4.7654 -2.1370
  987MOL0     O33111   7.916  10.498   2.643 -0.1878 -0.3711  0.2027
  987MOL0     C33112   7.982  10.560   2.731  0.2807 -0.0210  0.3996
  987MOL0     O33113   7.933  10.616   2.837 -0.0702 -0.0873  0.0326
  987MOL0     C33114   7.800  10.631   2.872 -0.6013 -0.1690 -0.6244
  987MOL0     C33115   7.703  10.680   2.784  0.1070 -0.3946 -0.6136
  987MOL0     C33116   7.567  10.705   2.829 -1.5462 -0.8216  0.3309
  987MOL0     C33117   7.528  10.688   2.961 -0.4423  0.3873 -0.0362
  987MOL0     O33118   7.400  10.709   2.999  0.1362 -0.7412  0.4024
  987MOL0     C33119   7.366  10.678   3.130 -0.5985 -0.8412  0.6119
  987MOL0     C33120   7.221  10.692   3.159  0.2477 -0.6131  0.7744
  987MOL0     C33121   7.131  10.640   3.045  0.9692 -0.2347 -1.2384
  987MOL0     C33122   6.983  10.674   3.067  1.0765 -0.2812 -0.4322
  987MOL0     C33123   6.891  10.624   2.956  0.4622 -0.0879 -0.4959
  987MOL0     C33124   6.746  10.660   2.999 -0.3231 -0.0157  0.5685
  987MOL0     C33125   6.697  10.784   2.927 -0.5730  0.0321  0.4724
  987MOL0     C33126   6.571  10.848   2.988 -1.1492 -0.4588  0.5706
  987MOL0     N33127   6.459  10.761   2.999 -0.7232  0.2660 -0.3806
  987MOL0     C33128   6.373  10.740   3.104  0.1863 -0.4944  0.3879
  987MOL0     C33129   6.254  10.702   3.047 -0.6419  0.7826  0.1189
  987MOL0     C33130   6.135  10.678   3.135 -0.2483 -0.1898 -0.4598
  987MOL0     C33131   6.011  10.725   3.061  0.0799 -0.0326 -0.0365
  987MOL0     C33132   5.898  10.668   3.129 -0.0918 -0.2952 -0.3090
  987MOL0     C33133   5.772  10.716   3.049 -0.5670  0.1430 -0.9147
  987MOL0     O33134   5.678  10.640   3.129  0.3387  0.4438  0.3358
  987MOL0     C33135   5.547  10.659   3.105 -0.5348  0.4129 -0.8613
  987MOL0     C33136   5.458  10.561   3.136 -0.3109  0.6918 -0.1746
  987MOL0     C33137   5.324  10.567   3.117  0.0810  0.2004  0.2818
  987MOL0     C33138   5.237  10.459   3.173  0.9610  0.1165 -0.4985
  987MOL0     C33139   5.273  10.681   3.054 -0.4647 -0.1058  0.4737
  987MOL0     C33140   5.140  10.686   2.992  0.0732  0.2481 -0.4443
  987MOL0     O33141   5.111  10.810   2.943  0.0752  0.1828  0.4408
  987MOL0     C33142   4.973  10.825   2.921  0.6103 -0.1256  0.9406
  987MOL0     C33143   4.889  10.822   3.037 -0.1521 -0.6244  0.9481
  987MOL0     C33144   4.750  10.849   3.025 -0.6105 -1.0180 -0.1314
  987MOL0     C33145   4.687  10.877   2.898 -0.2334  0.4142 -0.0226
  987MOL0     O33146   4.546  10.889   2.875 -0.3939  0.1345  0.0166
  987MOL0     C33147   4.453  10.874   2.975  0.1155 -0.2239 -0.6300
  987MOL0     C33148   4.430  10.731   3.024 -0.4461 -0.8504 -0.9650
  987MOL0     C33149   4.310  10.710   3.117 -0.3729  0.2094  0.4912
  987MOL0     C33150   4.354  10.737   3.257  0.5246  0.1372  0.7804
  987MOL0     C33151   4.228  10.719   3.341 -0.7939  0.1525  0.2383
  987MOL0     C33152   4.274  10.713   3.488  0.2871 -0.4440 -0.1754
  987MOL0     C33153   4.161  10.717   3.588 -0.7144 -0.1948  0.2282
  987MOL0     C33154   4.213  10.730   3.732  0.1828  0.4729  0.3066
  987MOL0    Cl33155   4.272  10.564   3.781 -0.3575 -0.0486 -0.0634
  987MOL0     C33156   4.768  10.878   2.788  0.0048 -0.1495  0.3582
  987MOL0     C33157   4.906  10.844   2.795 -0.8899  0.8676  0.0224
  987MOL0     O33158   5.067  10.583   2.982  0.1564  0.2258  0.2605
  987MOL0     C33159   5.358  10.789   3.026 -0.9013  0.6764  0.6849
  987MOL0     C33160   5.495  10.779   3.063 -0.6324 -0.3676 -0.1489
  987MOL0     N33161   6.259  10.693   2.905 -0.8449 -0.4755 -0.0196
  987MOL0     N33162   6.387  10.730   2.885 -0.0935 -0.2647 -0.1265
  987MOL0     C33163   7.633  10.649   3.047 -0.1741  0.3362  0.5621
  987MOL0     C33164   7.763  10.612   3.004  0.9857 -0.7642 -0.6307
  987MOL0     C33165   8.127  10.577   2.706 -0.6356  0.3370 -0.4753
  987MOL0     C33166   8.175  10.564   2.576  0.0363 -0.1045 -0.1391
  987MOL0     C33167   8.315  10.560   2.554 -0.8916 -0.0099  0.1293
  987MOL0     C33168   8.404  10.590   2.656 -0.1910  0.4365 -0.3221
  987MOL0     O33169   8.543  10.618   2.635  0.8211  0.4237  0.3785
  987MOL0     C33170   8.600  10.580   2.506 -0.2251 -0.0887 -0.0138
  987MOL0     C33171   8.750  10.619   2.517  0.3926 -0.3545 -1.1872
  987MOL0     C33172   8.830  10.526   2.605  0.7809 -0.2082 -0.4529
  987MOL0     C33173   8.955  10.592   2.661 -0.2503 -0.2911  0.2349
  987MOL0     C33174   9.064  10.583   2.556  0.6088 -1.0899  0.5166
  987MOL0     C33175   9.138  10.573   2.459  0.1098 -0.5096 -0.2175
  987MOL0     C33176   8.352  10.603   2.787 -0.4579  0.3906 -0.9449
  987MOL0     C33177   8.215  10.605   2.816 -0.5534 -0.0725  0.6087
  987MOL0     H33178   7.728  10.707   2.682  1.2292 -0.5669 -0.3956
  987MOL0     H33179   7.496  10.730   2.750  1.8535  0.6319 -2.5141
  987MOL0     H33180   7.392  10.573   3.145 -0.2640 -1.5539 -3.7210
  987MOL0     H33181   7.420  10.740   3.202  0.7987 -0.2767 -0.8589
  987MOL0     H33182   7.202  10.617   3.237  0.7692 -2.0189 -0.4012
  987MOL0     H33183   7.196  10.796   3.183  0.5958 -0.0535 -1.1351
  987MOL0     H33184   7.151  10.687   2.948  0.8916  1.4335 -0.4827
  987MOL0     H33185   7.143  10.532   3.033  0.6946 -0.2238 -1.6207
  987MOL0     H33186   6.958  10.630   3.164 -0.5201 -0.4456 -0.8953
  987MOL0     H33187   6.972  10.782   3.074 -0.3760  0.0351 -4.5721
  987MOL0     H33188   6.927  10.680   2.870  1.3997 -0.5783 -0.4432
  987MOL0     H33189   6.897  10.516   2.941 -4.7922 -0.8408  0.7644
  987MOL0     H33190   6.679  10.579   2.971 -1.4871  1.1533 -0.1470
  987MOL0     H33191   6.732  10.662   3.108  2.0779 -1.5582  0.9749
  987MOL0     H33192   6.773  10.861   2.914  0.7890 -1.7362 -3.2326
  987MOL0     H33193   6.670  10.758   2.824  1.8524  3.3857 -1.1747
  987MOL0     H33194   6.539  10.926   2.919 -1.3927 -1.6683 -0.7122
  987MOL0     H33195   6.600  10.896   3.083  0.6676  0.2257 -0.2707
  987MOL0     H33196   6.384  10.755   3.211 -1.1674  0.6321  0.3923
  987MOL0     H33197   6.136  10.571   3.155 -4.1591 -0.0116  1.8806
  987MOL0     H33198   6.136  10.729   3.232 -0.5729 -2.3371  0.7389
  987MOL0     H33199   6.014  10.682   2.960  1.4669  0.4646 -0.2426
  987MOL0     H33200   6.000  10.834   3.059 -3.9359 -0.3296 -1.2311
  987MOL0     H33201   5.887  10.701   3.232 -0.7230  3.1535 -1.3526
  987MOL0     H33202   5.911  10.559   3.126  2.4604 -0.0328 -0.1809
  987MOL0     H33203   5.764  10.694   2.942  0.3063 -3.1241 -0.4222
  987MOL0     H33204   5.763  10.823   3.067  0.0804 -0.1977  1.8270
  987MOL0     H33205   5.502  10.466   3.165 -0.6169  0.9285  1.1187
  987MOL0     H33206   5.210  10.392   3.091  4.5412  2.1421 -3.6269
  987MOL0     H33207   5.299  10.395   3.237  0.9133  1.7945  1.3201
  987MOL0     H33208   5.156  10.493   3.239 -0.3853 -2.8589 -0.4227
  987MOL0     H33209   4.913  10.785   3.136  0.2948 -1.9832  0.3543
  987MOL0     H33210   4.694  10.859   3.118  1.0517  3.7423  0.6617
  987MOL0     H33211   4.475  10.935   3.062  1.0406 -1.0225 -0.2870
  987MOL0     H33212   4.352  10.898   2.940 -1.0331 -2.0214  1.2333
  987MOL0     H33213   4.412  10.668   2.937 -0.0128 -0.5069 -1.3112
  987MOL0     H33214   4.520  10.693   3.073  0.1248  1.8452  0.2774
  987MOL0     H33215   4.266  10.611   3.102 -1.5045  0.8177 -0.3268
  987MOL0     H33216   4.227  10.773   3.084 -1.1597  0.2857  2.4552
  987MOL0     H33217   4.438  10.673   3.286  3.0599  2.1810 -1.5655
  987MOL0     H33218   4.387  10.841   3.263  0.6381  0.1146  0.5316
  987MOL0     H33219   4.184  10.623   3.312 -4.0219  1.8673 -0.9352
  987MOL0     H33220   4.154  10.798   3.327 -1.7267 -0.1935  2.7737
  987MOL0     H33221   4.340  10.630   3.514  0.3249  0.7013  4.1457
  987MOL0     H33222   4.331  10.806   3.494 -2.6219  1.5561 -0.9687
  987MOL0     H33223   4.090  10.635   3.576  0.4007 -0.8957 -2.1993
  987MOL0     H33224   4.104  10.811   3.579 -0.0868  0.4800  2.5724
  987MOL0     H33225   4.129  10.744   3.801 -1.6457 -4.8735 -0.4060
  987MOL0     H33226   4.294  10.803   3.744 -0.4179  1.0939  0.6752
  987MOL0     H33227   4.722  10.902   2.693 -3.6226  3.0746  2.6032
  987MOL0     H33228   4.971  10.853   2.709  2.9134 -1.3357  2.3925
  987MOL0     H33229   5.318  10.875   2.973  0.1377 -0.3058 -1.8619
  987MOL0     H33230   5.554  10.861   3.024 -1.5720 -1.1712 -3.5499
  987MOL0     H33231   7.619  10.641   3.154 -0.1107 -2.2475  0.4375
  987MOL0     H33232   7.831  10.592   3.086  1.2955  2.6442  0.1271
  987MOL0     H33233   8.100  10.572   2.498  0.7711 -1.5262 -1.0430
  987MOL0     H33234   8.356  10.549   2.454  2.3065 -2.9302  1.5651
  987MOL0     H33235   8.581  10.477   2.475 -0.0368  0.2491 -1.3124
  987MOL0     H33236   8.560  10.652   2.434 -0.0463  4.3168  3.8667
  987MOL0     H33237   8.756  10.716   2.568  0.9338 -2.9336  4.3458
  987MOL0     H33238   8.794  10.629   2.417 -0.5561 -0.3663 -1.6129
  987MOL0     H33239   8.856  10.433   2.554  1.3873 -1.0554  1.3251
  987MOL0     H33240   8.769  10.499   2.692  2.6680 -0.7233  0.7657
  987MOL0     H33241   8.976  10.535   2.752 -0.6669 -3.0615 -1.2880
  987MOL0     H33242   8.932  10.697   2.679 -0.8859 -0.6623  1.7596
  987MOL0     H33243   9.194  10.566   2.367 -1.1152 -1.4526 -0.9300
  987MOL0     H33244   8.418  10.630   2.868  0.7435 -3.6743 -0.3460
  987MOL0     H33245   8.170  10.615   2.914 -2.5468 -3.3981  0.2116
  988MOL0     O33246   8.780   4.835   4.018 -0.5670  0.1636 -0.2478
  988MOL0     C33247   8.859   4.755   3.974 -1.2542 -0.3286  0.0781
  988MOL0     O33248   8.847   4.620   3.971 -0.4377  0.0417 -0.4003
  988MOL0     C33249   8.731   4.570   4.005  1.0479  0.0174 -0.1171
  988MOL0     C33250   8.614   4.588   3.929  0.8795 -0.2084  0.0379
  988MOL0     C33251   8.488   4.527   3.967  0.4372  0.3250  0.3128
  988MOL0     C33252   8.478   4.439   4.078  0.7454 -0.1462  0.3704
  988MOL0     O33253   8.353   4.375   4.103  0.0858 -0.5339  0.2887
  988MOL0     C33254   8.312   4.347   4.236 -0.6474  0.3890 -0.1515
  988MOL0     C33255   8.187   4.429   4.265  0.2490 -0.7570 -0.6908
  988MOL0     C33256   8.081   4.386   4.154 -0.1793 -0.7752  0.2404
  988MOL0     C33257   7.948   4.466   4.161  0.1336 -0.4239  0.7056
  988MOL0     C33258   7.843   4.371   4.095  0.4314  0.6741  0.0635
  988MOL0     C33259   7.705   4.449   4.111  0.2545  0.2110  0.5867
  988MOL0     C33260   7.589   4.365   4.063  0.7016 -0.5188  0.9154
  988MOL0     C33261   7.453   4.439   4.066  0.5995  0.1370 -0.2555
  988MOL0     N33262   7.352   4.353   4.004  0.5229 -0.5412  0.6743
  988MOL0     C33263   7.286   4.239   4.053 -0.2622 -0.6402 -0.3584
  988MOL0     C33264   7.208   4.199   3.950 -0.4041  0.7409 -0.1594
  988MOL0     C33265   7.129   4.068   3.956 -0.2598  0.3908  0.1164
  988MOL0     C33266   6.984   4.083   4.011  0.8937  0.2767 -0.0102
  988MOL0     C33267   6.917   4.184   3.919  0.9750  0.9918  0.9687
  988MOL0     C33268   6.780   4.225   3.976 -0.5366  0.0857 -0.5969
  988MOL0     O33269   6.678   4.117   3.964  0.3586 -0.0247  0.8716
  988MOL0     C33270   6.545   4.142   3.984  0.7158  0.1446 -0.5953
  988MOL0     C33271   6.489   4.244   4.061 -0.2161  0.5138  0.3742
  988MOL0     C33272   6.351   4.245   4.085  0.1989  1.9484  0.3867
  988MOL0     C33273   6.291   4.351   4.170  0.8369  0.8054  0.7808
  988MOL0     C33274   6.263   4.151   4.020  0.3461  0.0739 -0.3163
  988MOL0     C33275   6.107   4.142   4.047  0.3109 -0.1423  0.4479
  988MOL0     O33276   6.042   4.227   4.131  0.0507 -0.1690 -0.0809
  988MOL0     C33277   5.919   4.207   4.193  0.6881  0.1278  0.4958
  988MOL0     C33278   5.866   4.077   4.205 -0.4769  0.5401 -0.7607
  988MOL0     C33279   5.739   4.056   4.253  0.1604  0.3381 -0.2988
  988MOL0     C33280   5.659   4.164   4.283  0.1760 -0.8941 -0.7337
  988MOL0     O33281   5.529   4.133   4.313  0.3150 -0.2269  0.6112
  988MOL0     C33282   5.423   4.235   4.289 -0.3005 -0.0408  0.1810
  988MOL0     C33283   5.285   4.162   4.259 -0.2058 -0.3029  0.3454
  988MOL0     C33284   5.217   4.111   4.377 -0.7942  0.0834 -0.1186
  988MOL0     C33285   5.083   4.043   4.343  0.1939 -0.6438 -0.3577
  988MOL0     C33286   4.967   4.152   4.342 -0.3888 -0.5583 -0.1826
  988MOL0     C33287   4.829   4.092   4.349  0.8188 -0.0068  0.2668
  988MOL0     C33288   4.721   4.186   4.297 -0.3754  0.0763  0.2242
  988MOL0     C33289   4.600   4.183   4.393 -0.0092 -0.2574 -0.4416
  988MOL0    Cl33290   4.471   4.230   4.298  0.3824 -0.2834  0.2368
  988MOL0     C33291   5.708   4.294   4.270 -0.2574 -0.6197  0.8909
  988MOL0     C33292   5.836   4.321   4.228  0.5681  0.4328 -0.0527
  988MOL0     O33293   6.055   4.069   3.967 -0.2322 -0.3019  0.2328
  988MOL0     C33294   6.314   4.044   3.944 -0.3179 -0.3236 -0.3000
  988MOL0     C33295   6.455   4.046   3.925 -0.5391  0.0476  0.7046
  988MOL0     N33296   7.219   4.277   3.842 -0.5096  0.7443 -0.3861
  988MOL0     N33297   7.304   4.380   3.875 -0.0226  0.8462 -0.1849
  988MOL0     C33298   8.595   4.407   4.141  0.2976  0.1663 -0.1902
  988MOL0     C33299   8.717   4.478   4.110 -0.2089  0.3693 -0.5311
  988MOL0     C33300   8.981   4.809   3.914  0.6779 -0.1703 -0.0143
  988MOL0     C33301   9.037   4.937   3.956 -0.3459  0.5545 -0.8961
  988MOL0     C33302   9.166   4.986   3.909  0.3550 -0.8199  0.4226
  988MOL0     C33303   9.226   4.918   3.807  0.0055  0.1128 -0.2407
  988MOL0     O33304   9.345   4.954   3.746  1.0034  0.1281  0.3664
  988MOL0     C33305   9.425   5.032   3.837 -0.9725 -0.9821  0.1887
  988MOL0     C33306   9.567   5.058   3.780  0.6946 -0.0275 -0.6473
  988MOL0     C33307   9.676   4.947   3.805 -0.2288  0.0778  0.3649
  988MOL0     C33308   9.823   4.995   3.776 -0.3122 -0.0422  0.9811
  988MOL0     C33309   9.830   5.076   3.650 -0.3476  0.1498 -0.0113
  988MOL0     C33310   9.811   5.134   3.544 -0.0495  0.8354 -0.5939
  988MOL0     C33311   9.167   4.798   3.761 -0.0868  0.0266  0.8577
  988MOL0     C33312   9.054   4.741   3.817 -0.3986 -0.1059  0.9966
  988MOL0     H33313   8.617   4.638   3.833  0.2680  0.2143  0.2289
  988MOL0     H33314   8.404   4.547   3.901  2.5057  0.5963 -2.4250
  988MOL0     H33315   8.289   4.240   4.244 -2.7027  0.7278 -0.7491
  988MOL0     H33316   8.394   4.381   4.300  1.2948  0.8480 -2.7123
  988MOL0     H33317   8.152   4.400   4.365 -2.6892  0.1322 -1.3536
  988MOL0     H33318   8.215   4.535   4.267  1.2455 -0.9901 -1.5343
  988MOL0     H33319   8.118   4.389   4.051 -0.0721  0.5050  0.2921
  988MOL0     H33320   8.056   4.282   4.175 -3.3988 -0.0089  0.7238
  988MOL0     H33321   7.921   4.477   4.266  1.6834 -0.7728  1.1595
  988MOL0     H33322   7.953   4.561   4.107 -0.2968 -1.1277 -0.6229
  988MOL0     H33323   7.869   4.341   3.993 -1.4937 -0.0213 -0.2596
  988MOL0     H33324   7.830   4.278   4.150 -0.7252 -0.2345 -1.6422
  988MOL0     H33325   7.690   4.492   4.211 -1.1311 -0.3432  0.6355
  988MOL0     H33326   7.713   4.535   4.043 -1.2282 -2.3294 -3.0652
  988MOL0     H33327   7.601   4.334   3.959 -1.8818  1.1350  0.0278
  988MOL0     H33328   7.577   4.275   4.124  2.3524 -0.6938  1.0245
  988MOL0     H33329   7.464   4.536   4.017 -0.3382  0.3153 -0.1162
  988MOL0     H33330   7.427   4.448   4.172  4.3182 -0.9802  0.9091
  988MOL0     H33331   7.299   4.205   4.155 -1.4358  3.1664  1.2583
  988MOL0     H33332   7.145   4.028   3.856  0.2853 -2.5585  1.2697
  988MOL0     H33333   7.185   3.998   4.020  0.1421  1.0001  0.4447
  988MOL0     H33334   6.996   4.113   4.115  1.5097 -0.9898  0.3073
  988MOL0     H33335   6.925   3.991   4.008  0.2762  0.6961 -2.0032
  988MOL0     H33336   6.891   4.144   3.821 -2.5669  0.5799  1.9229
  988MOL0     H33337   6.972   4.278   3.906 -0.7799  1.7985 -1.1682
  988MOL0     H33338   6.752   4.316   3.923  2.1552  2.6374  1.9479
  988MOL0     H33339   6.790   4.255   4.080  1.3401  1.7927 -1.2066
  988MOL0     H33340   6.563   4.313   4.099  1.7096 -0.0253 -2.1724
  988MOL0     H33341   6.236   4.424   4.110 -0.3056 -0.3276  0.4025
  988MOL0     H33342   6.226   4.312   4.248 -0.2355 -0.3086 -0.6063
  988MOL0     H33343   6.375   4.399   4.221  3.6425 -3.8254  1.1148
  988MOL0     H33344   5.918   3.983   4.187  0.1573  0.3474  1.6363
  988MOL0     H33345   5.711   3.951   4.252 -0.0046  0.3648  0.6809
  988MOL0     H33346   5.419   4.300   4.376  1.2341 -0.7921  0.8664
  988MOL0     H33347   5.441   4.298   4.201 -0.2403 -0.2432  0.0466
  988MOL0     H33348   5.224   4.232   4.201  1.4621 -0.6106 -1.9159
  988MOL0     H33349   5.297   4.081   4.186  0.4024  0.5019 -0.4816
  988MOL0     H33350   5.199   4.193   4.447 -0.3260 -0.2350  0.3823
  988MOL0     H33351   5.278   4.031   4.419 -1.7512 -2.3584 -3.0139
  988MOL0     H33352   5.082   3.995   4.245  1.3414  1.1733 -1.3117
  988MOL0     H33353   5.054   3.969   4.419 -0.6949  0.2641  0.2094
  988MOL0     H33354   4.985   4.204   4.248  3.6489 -2.4337 -0.6647
  988MOL0     H33355   4.972   4.230   4.419  3.1099  0.5411 -1.3237
  988MOL0     H33356   4.834   4.004   4.283  3.0766  0.2054  0.0684
  988MOL0     H33357   4.806   4.061   4.451 -0.7228  0.4104  0.0741
  988MOL0     H33358   4.684   4.150   4.200 -1.0888 -1.3498  0.9905
  988MOL0     H33359   4.759   4.288   4.296  0.6330 -0.2884 -0.2420
  988MOL0     H33360   4.606   4.240   4.486 -2.5007  0.0481 -0.3853
  988MOL0     H33361   4.597   4.079   4.428 -1.7039 -0.4628 -1.0826
  988MOL0     H33362   5.643   4.380   4.284  1.3590  1.0042 -0.9484
  988MOL0     H33363   5.868   4.424   4.214  0.6194  0.4501  0.2010
  988MOL0     H33364   6.274   3.955   3.896  0.2730 -0.9184  0.2926
  988MOL0     H33365   6.504   3.965   3.872 -0.9627  0.5228 -0.4314
  988MOL0     H33366   8.589   4.327   4.215 -0.0754 -0.9090 -1.3424
  988MOL0     H33367   8.810   4.455   4.161 -0.5365  1.0258  0.3799
  988MOL0     H33368   9.002   5.008   4.030  0.5631 -1.4667  1.6468
  988MOL0     H33369   9.204   5.076   3.956  0.4835 -0.7700  0.2223
  988MOL0     H33370   9.390   5.136   3.842  1.9827  0.0548  2.0778
  988MOL0     H33371   9.427   4.987   3.937  0.3854 -1.3981 -0.0133
  988MOL0     H33372   9.604   5.154   3.819 -3.0158  0.6053  1.9245
  988MOL0     H33373   9.559   5.089   3.676  0.4244 -2.3244 -1.3518
  988MOL0     H33374   9.655   4.861   3.741 -1.7272  2.4157 -2.5093
  988MOL0     H33375   9.667   4.916   3.910  2.0686  1.1108  0.9232
  988MOL0     H33376   9.895   4.914   3.764  2.0221  2.1863 -1.1116
  988MOL0     H33377   9.856   5.071   3.847  0.6379  0.8139 -0.3222
  988MOL0     H33378   9.817   5.179   3.447 -2.6152 -0.2310 -1.3430
  988MOL0     H33379   9.220   4.746   3.682 -1.8417  1.1591 -1.1601
  988MOL0     H33380   9.016   4.655   3.762 -0.0408  0.9136 -0.9557
  989MOL0     O33381   1.447   6.299   9.567 -0.6044  0.2106  0.1624
  989MOL0     C33382   1.520   6.397   9.582 -0.1766 -0.2907  0.1762
  989MOL0     O33383   1.480   6.525   9.597  0.1364 -0.3157  0.9014
  989MOL0     C33384   1.349   6.558   9.613 -0.1121  0.3128  0.1322
  989MOL0     C33385   1.289   6.573   9.739  0.3557  0.4447 -0.1859
  989MOL0     C33386   1.157   6.610   9.743 -1.1332  0.2984  0.4626
  989MOL0     C33387   1.071   6.609   9.636  0.2237  0.1112 -1.1631
  989MOL0     O33388   0.940   6.655   9.651  0.2096  0.1715 -0.7407
  989MOL0     C33389   0.834   6.559   9.645  0.7010  0.1705  0.8412
  989MOL0     C33390   0.699   6.626   9.677 -0.5331 -0.0793  0.4196
  989MOL0     C33391   0.590   6.519   9.679  1.2860  0.1875 -0.6083
  989MOL0     C33392   0.447   6.578   9.688  0.7030  1.2071 -0.4644
  989MOL0     C33393   0.329   6.481   9.684 -0.5024 -0.0977 -0.1424
  989MOL0     C33394   0.197   6.551   9.678  1.2351  0.6794  0.1261
  989MOL0     C33395   0.086   6.446   9.696  0.1961  0.1120  0.1093
  989MOL0     C33396  -0.043   6.517   9.720  0.3815  0.1442 -0.2245
  989MOL0     N33397  -0.147   6.414   9.724 -0.5538  0.1712  0.6021
  989MOL0     C33398  -0.208   6.346   9.624 -0.4176 -0.6778 -0.5808
  989MOL0     C33399  -0.271   6.245   9.678  0.2686  1.0323 -0.6669
  989MOL0     C33400  -0.347   6.139   9.601 -0.8149 -0.1249  0.0777
  989MOL0     C33401  -0.488   6.175   9.563  0.0140 -0.4784  0.0375
  989MOL0     C33402  -0.519   6.144   9.422 -0.3565  0.4593 -0.6286
  989MOL0     C33403  -0.544   5.998   9.400 -0.8379  0.0233  0.2931
  989MOL0     O33404  -0.583   5.964   9.265 -0.4678 -0.0480 -0.0032
  989MOL0     C33405  -0.715   5.978   9.233  0.3547  0.3263 -0.2068
  989MOL0     C33406  -0.743   5.953   9.105 -0.6483  0.1522 -0.2317
  989MOL0     C33407  -0.873   5.969   9.051 -0.3735 -0.7075 -0.8869
  989MOL0     C33408  -0.892   5.964   8.897  0.0392 -0.4596  0.0227
  989MOL0     C33409  -0.980   6.010   9.141  0.5111 -0.0193 -0.2135
  989MOL0     C33410  -1.121   6.034   9.090 -0.1609 -0.5376 -0.2225
  989MOL0     O33411  -1.216   6.060   9.188  0.1839 -0.1382 -0.1600
  989MOL0     C33412  -1.350   6.069   9.165  0.7773 -0.2033  1.5144
  989MOL0     C33413  -1.392   6.148   9.056  1.6023  0.2384  0.9306
  989MOL0     C33414  -1.538   6.156   9.038 -1.2583 -1.0358 -0.3644
  989MOL0     C33415  -1.632   6.113   9.124  0.4304 -0.9735 -0.4627
  989MOL0     O33416  -1.763   6.164   9.093 -0.0772 -0.2063 -0.4788
  989MOL0     C33417  -1.815   6.267   9.178 -0.4530 -0.2586  0.0042
  989MOL0     C33418  -1.826   6.249   9.325  0.8863 -0.9464 -0.3388
  989MOL0     C33419  -1.915   6.141   9.385 -0.8295 -0.1584  0.6512
  989MOL0     C33420  -1.995   6.200   9.504 -0.2315 -0.2048 -0.3534
  989MOL0     C33421  -2.065   6.102   9.594 -0.5703 -0.6245 -0.0068
  989MOL0     C33422  -2.127   6.166   9.727 -0.2644  0.5026  0.2045
  989MOL0     C33423  -2.215   6.061   9.796 -0.6938  0.5942  0.3678
  989MOL0     C33424  -2.196   6.067   9.946  0.6614  0.3175 -0.8904
  989MOL0    Cl33425  -2.031   6.000   9.980  0.7606 -0.3050 -0.2076
  989MOL0     C33426  -1.589   6.041   9.232 -0.8701  0.1274  0.3008
  989MOL0     C33427  -1.445   6.019   9.251  1.0518  0.0833 -0.0695
  989MOL0     O33428  -1.149   6.004   8.977 -0.3240 -0.4917  0.7367
  989MOL0     C33429  -0.956   6.040   9.272 -0.6140 -0.4575 -0.1392
  989MOL0     C33430  -0.822   6.025   9.315  0.5647  0.5899  0.0123
  989MOL0     N33431  -0.248   6.247   9.812  0.5877 -0.3344  0.0456
  989MOL0     N33432  -0.174   6.351   9.839 -0.2766  0.5896 -0.7723
  989MOL0     C33433   1.122   6.582   9.511  0.1363  0.3061  0.5481
  989MOL0     C33434   1.265   6.555   9.499 -0.2186  0.5966  0.2120
  989MOL0     C33435   1.661   6.377   9.624  0.4960  0.0529  0.4429
  989MOL0     C33436   1.745   6.483   9.666 -0.9940  0.1478  0.0877
  989MOL0     C33437   1.874   6.457   9.698 -0.0463  0.5557 -1.1239
  989MOL0     C33438   1.932   6.327   9.689  0.1289 -0.2657  0.4368
  989MOL0     O33439   2.068   6.310   9.727 -0.5400  0.8370  0.2315
  989MOL0     C33440   2.137   6.190   9.691 -0.3588  0.0974  0.3859
  989MOL0     C33441   2.291   6.198   9.697 -0.2372 -0.4896  0.4143
  989MOL0     C33442   2.335   6.216   9.834 -0.6441 -0.4890 -0.0660
  989MOL0     C33443   2.487   6.244   9.855 -0.4568  0.0813  0.1465
  989MOL0     C33444   2.573   6.129   9.819  0.6571  0.8142 -0.3800
  989MOL0     C33445   2.642   6.041   9.788 -0.3648 -0.0637 -0.0218
  989MOL0     C33446   1.851   6.226   9.652 -0.8243 -0.9707  0.1361
  989MOL0     C33447   1.719   6.248   9.620 -0.9920  0.4627  0.5564
  989MOL0     H33448   1.346   6.564   9.831 -0.4994 -0.9544  0.2531
  989MOL0     H33449   1.107   6.648   9.831 -0.7414  2.0094 -0.0200
  989MOL0     H33450   0.826   6.523   9.542  1.7531  1.1954  0.3790
  989MOL0     H33451   0.850   6.477   9.715 -0.1290 -1.2138 -0.5109
  989MOL0     H33452   0.710   6.675   9.774 -0.1178  2.6415 -0.9185
  989MOL0     H33453   0.667   6.698   9.602 -0.7227  0.1894  0.7560
  989MOL0     H33454   0.580   6.463   9.585 -2.4394  1.5765 -1.2453
  989MOL0     H33455   0.618   6.449   9.758 -0.0542 -2.0543 -1.9909
  989MOL0     H33456   0.455   6.638   9.779 -0.2656 -0.6369  0.9096
  989MOL0     H33457   0.440   6.654   9.609  1.2647 -0.2934 -2.0094
  989MOL0     H33458   0.344   6.414   9.599  1.5062  0.6819 -0.4643
  989MOL0     H33459   0.340   6.410   9.767  1.6525 -3.5657 -3.1152
  989MOL0     H33460   0.196   6.620   9.763 -1.6879 -0.4733  1.1752
  989MOL0     H33461   0.179   6.614   9.591 -1.3939  0.0411  0.1378
  989MOL0     H33462   0.077   6.387   9.605  1.4959 -0.1832  0.1551
  989MOL0     H33463   0.102   6.377   9.779 -1.2415 -0.8726 -0.3908
  989MOL0     H33464  -0.071   6.582   9.636  1.3391 -0.3166 -0.9315
  989MOL0     H33465  -0.036   6.571   9.814 -2.0038  1.8784 -0.9390
  989MOL0     H33466  -0.202   6.370   9.518  0.5793  0.4933 -0.2794
  989MOL0     H33467  -0.291   6.103   9.514  0.1969 -1.0078  1.0625
  989MOL0     H33468  -0.349   6.058   9.675 -1.5289  2.2397  2.8345
  989MOL0     H33469  -0.494   6.284   9.568 -0.4081 -0.4618 -0.6521
  989MOL0     H33470  -0.556   6.128   9.635 -1.2219  1.8237  0.4556
  989MOL0     H33471  -0.444   6.181   9.352  1.3988 -1.3791  0.1671
  989MOL0     H33472  -0.610   6.195   9.389 -1.2173 -0.1904  0.6489
  989MOL0     H33473  -0.610   5.964   9.481  2.4557 -0.2659  3.0797
  989MOL0     H33474  -0.455   5.937   9.416 -1.1091  0.1292  2.5033
  989MOL0     H33475  -0.657   5.927   9.045  2.0725 -2.1658  4.1305
  989MOL0     H33476  -0.921   6.063   8.861  2.4359 -0.0877 -1.0759
  989MOL0     H33477  -0.795   5.945   8.850  1.5662  1.5104  2.1336
  989MOL0     H33478  -0.965   5.888   8.870 -1.7101 -0.3348  3.7854
  989MOL0     H33479  -1.324   6.191   8.984  0.3063  0.2467 -0.3278
  989MOL0     H33480  -1.556   6.219   8.951  0.3085 -0.8199 -0.5667
  989MOL0     H33481  -1.748   6.353   9.164 -1.6406  0.2969 -2.8672
  989MOL0     H33482  -1.916   6.290   9.142  0.4350  0.7444 -1.9751
  989MOL0     H33483  -1.723   6.243   9.360  0.3530  1.1672  1.9443
  989MOL0     H33484  -1.841   6.345   9.376  2.1327 -1.4782  1.0942
  989MOL0     H33485  -1.845   6.067   9.426 -3.0052 -1.6631  1.8387
  989MOL0     H33486  -1.970   6.077   9.315  0.3610  0.5399 -0.9860
  989MOL0     H33487  -1.926   6.254   9.570 -0.3220 -1.3543  0.7171
  989MOL0     H33488  -2.075   6.259   9.460 -0.6546  0.4554  1.2267
  989MOL0     H33489  -1.993   6.023   9.614  0.4633  0.5394  1.0510
  989MOL0     H33490  -2.148   6.052   9.543  0.3305 -2.5723  0.3331
  989MOL0     H33491  -2.047   6.205   9.790  0.7861  0.4520 -1.0346
  989MOL0     H33492  -2.194   6.247   9.694  0.0513  1.5816  2.0880
  989MOL0     H33493  -2.192   5.964   9.752 -1.4681  1.9159 -3.3008
  989MOL0     H33494  -2.322   6.081   9.780 -1.5314 -0.5101  3.7987
  989MOL0     H33495  -2.269   6.007  10.001  1.8496  1.0429  1.6074
  989MOL0     H33496  -2.221   6.170   9.975 -0.0028  0.2315 -1.1349
  989MOL0     H33497  -1.659   6.018   9.311 -2.4492 -0.6429 -1.2463
  989MOL0     H33498  -1.410   5.959   9.335  1.6175 -0.9398 -1.0116
  989MOL0     H33499  -1.023   6.096   9.336 -0.5052  2.4856 -2.3757
  989MOL0     H33500  -0.803   6.051   9.419  0.7244 -2.0662  0.7344
  989MOL0     H33501   1.059   6.588   9.424  0.2242  1.9120  0.5780
  989MOL0     H33502   1.302   6.546   9.397  0.5227 -1.1997  0.5854
  989MOL0     H33503   1.707   6.584   9.671 -1.7370 -0.0837 -0.6578
  989MOL0     H33504   1.934   6.541   9.728 -1.6926  1.3882  0.0013
  989MOL0     H33505   2.107   6.113   9.763  1.5706  0.9979  2.2877
  989MOL0     H33506   2.105   6.161   9.591  0.3619  0.4504  0.0446
  989MOL0     H33507   2.320   6.274   9.623 -0.1045 -1.1851 -0.2560
  989MOL0     H33508   2.322   6.100   9.659  1.9759  0.1742  0.3505
  989MOL0     H33509   2.305   6.132   9.897 -1.2479 -2.0190 -2.2882
  989MOL0     H33510   2.286   6.303   9.878 -0.7672 -0.9113  0.6490
  989MOL0     H33511   2.509   6.278   9.956  6.2001  4.2894 -2.0056
  989MOL0     H33512   2.521   6.331   9.797  2.7068  0.3882  2.2345
  989MOL0     H33513   2.696   5.961   9.741 -0.9027 -1.1709  1.1622
  989MOL0     H33514   1.883   6.122   9.646  0.0848 -0.6860 -0.1385
  989MOL0     H33515   1.660   6.161   9.595  1.7992 -1.7300  1.0999
  990MOL0     O33516  11.111   2.434   0.092 -0.2942 -0.0368  0.0931
  990MOL0     C33517  11.134   2.312   0.113 -0.0196  0.5793 -0.8125
  990MOL0     O33518  11.052   2.201   0.098 -0.0916 -0.6005 -0.2689
  990MOL0     C33519  10.937   2.225   0.038  0.0872 -0.2405  0.1576
  990MOL0     C33520  10.909   2.200  -0.093  0.3447  0.9285  0.1083
  990MOL0     C33521  10.784   2.221  -0.152  0.6626 -0.2599 -0.2326
  990MOL0     C33522  10.681   2.265  -0.075  0.3203  0.2139  0.0899
  990MOL0     O33523  10.555   2.279  -0.137 -0.8887 -0.5950  0.4303
  990MOL0     C33524  10.474   2.401  -0.115 -0.2552  0.0929  0.1152
  990MOL0     C33525  10.347   2.396  -0.199  0.4235 -0.0710  0.6478
  990MOL0     C33526  10.260   2.524  -0.201 -0.3333  0.5092 -0.2257
  990MOL0     C33527  10.181   2.543  -0.332 -0.3462 -0.4243 -0.4737
  990MOL0     C33528  10.055   2.626  -0.318 -0.0835 -0.9687  0.0259
  990MOL0     C33529  10.077   2.747  -0.225  0.1610 -1.0777  0.0183
  990MOL0     C33530   9.937   2.802  -0.201  0.8245  0.2670 -0.1087
  990MOL0     C33531   9.946   2.943  -0.166 -0.2129  0.2141  0.3988
  990MOL0     N33532   9.820   2.993  -0.106  0.7492  0.0188  0.3350
  990MOL0     C33533   9.763   2.934   0.007  0.9597  0.3469  0.2200
  990MOL0     C33534   9.651   3.005   0.024  0.2065  0.0157  0.5477
  990MOL0     C33535   9.560   2.998   0.138 -0.2048  0.1142 -0.3201
  990MOL0     C33536   9.582   3.119   0.241 -0.0206 -0.7380 -0.5183
  990MOL0     C33537   9.441   3.171   0.283 -0.2984 -0.4129 -0.3014
  990MOL0     C33538   9.471   3.288   0.377 -0.0402  0.1380  0.1242
  990MOL0     O33539   9.356   3.368   0.412  0.5017 -0.1103  0.1134
  990MOL0     C33540   9.247   3.310   0.451  0.2925 -0.1089 -0.2937
  990MOL0     C33541   9.121   3.347   0.401 -0.9552 -0.4951 -0.1059
  990MOL0     C33542   8.997   3.287   0.439 -0.2655 -0.0072 -0.4401
  990MOL0     C33543   8.874   3.325   0.365  0.1487  0.2622  0.4467
  990MOL0     C33544   9.006   3.178   0.527 -0.3004 -0.3010 -0.0833
  990MOL0     C33545   8.893   3.112   0.574 -0.1562  0.0639 -0.3749
  990MOL0     O33546   8.776   3.183   0.605  0.6533 -0.4405  0.7895
  990MOL0     C33547   8.653   3.118   0.618 -0.2688  0.3526  1.2255
  990MOL0     C33548   8.633   3.005   0.535  0.2858 -0.7162 -0.5711
  990MOL0     C33549   8.525   2.924   0.558 -0.2895  0.1922  0.0957
  990MOL0     C33550   8.413   2.959   0.636 -0.6246 -0.1124 -0.9414
  990MOL0     O33551   8.302   2.880   0.644 -0.3381 -0.6028 -0.1114
  990MOL0     C33552   8.186   2.930   0.711 -0.3595 -0.8962 -0.4576
  990MOL0     C33553   8.081   2.823   0.696  0.1011  0.6613 -0.0641
  990MOL0     C33554   7.933   2.865   0.721 -0.4854  0.0656 -0.9274
  990MOL0     C33555   7.834   2.746   0.686  0.3977  0.1824 -0.6505
  990MOL0     C33556   7.695   2.807   0.674  0.2130  0.0930  0.1830
  990MOL0     C33557   7.585   2.698   0.672  0.6374 -0.2078  0.0425
  990MOL0     C33558   7.461   2.760   0.726 -0.6212 -0.5190 -0.2372
  990MOL0     C33559   7.332   2.669   0.715 -0.6606  0.3076 -0.4765
  990MOL0    Cl33560   7.195   2.708   0.816  0.0719 -0.0243  0.2717
  990MOL0     C33561   8.430   3.081   0.696  0.4462 -0.1839  0.0149
  990MOL0     C33562   8.546   3.153   0.695  0.8381  0.0239  0.0780
  990MOL0     O33563   8.908   2.995   0.598  0.1409  0.9375 -0.7950
  990MOL0     C33564   9.133   3.124   0.557  0.5513 -0.3205 -0.7587
  990MOL0     C33565   9.244   3.198   0.534  0.5131  0.0713  0.2920
  990MOL0     N33566   9.640   3.101  -0.075  0.1688  0.0110 -0.3428
  990MOL0     N33567   9.740   3.095  -0.148 -0.2966  0.7087  0.7962
  990MOL0     C33568  10.703   2.290   0.055  0.9171 -0.1746  0.3213
  990MOL0     C33569  10.829   2.277   0.111  0.4553 -0.1808 -0.0737
  990MOL0     C33570  11.266   2.275   0.172  0.2184  0.4909  0.4317
  990MOL0     C33571  11.362   2.368   0.203 -0.3022 -0.5054  0.7703
  990MOL0     C33572  11.491   2.324   0.246  0.3905  0.2968 -0.5913
  990MOL0     C33573  11.520   2.185   0.259 -0.8065 -0.4431  0.4020
  990MOL0     O33574  11.645   2.134   0.300  0.8812  0.7636  0.1139
  990MOL0     C33575  11.734   2.206   0.386 -0.5175  0.0864  0.0755
  990MOL0     C33576  11.814   2.107   0.472 -0.4689  0.0143  0.2309
  990MOL0     C33577  11.913   2.161   0.578 -0.6167 -0.0648 -0.2147
  990MOL0     C33578  12.003   2.069   0.659 -0.0701 -0.0193 -0.0626
  990MOL0     C33579  11.923   1.981   0.740 -0.1907 -0.7993  0.1399
  990MOL0     C33580  11.851   1.924   0.810  0.3046 -0.0424  0.3845
  990MOL0     C33581  11.425   2.085   0.221  0.3229 -0.5302 -0.9675
  990MOL0     C33582  11.294   2.129   0.183  0.5423  0.0680 -0.3591
  990MOL0     H33583  10.989   2.156  -0.153  0.6316  2.1665 -0.4470
  990MOL0     H33584  10.757   2.188  -0.252 -0.8956 -0.4976  0.2500
  990MOL0     H33585  10.457   2.410  -0.007  1.0891 -0.0817  0.3566
  990MOL0     H33586  10.519   2.491  -0.157 -0.1913 -0.8580 -2.0103
  990MOL0     H33587  10.369   2.378  -0.305  1.3853  1.3699  0.5820
  990MOL0     H33588  10.295   2.309  -0.158 -1.8544 -0.0284 -1.8473
  990MOL0     H33589  10.190   2.496  -0.123  1.3996 -1.4764  0.6910
  990MOL0     H33590  10.326   2.609  -0.181 -0.9036  1.0271 -0.5102
  990MOL0     H33591  10.246   2.595  -0.403 -2.5093  1.6345 -1.0648
  990MOL0     H33592  10.158   2.445  -0.374  0.3566  0.0343 -2.0100
  990MOL0     H33593  10.023   2.666  -0.415 -0.6669 -1.6425 -0.0728
  990MOL0     H33594   9.968   2.571  -0.280 -1.6455 -0.0403 -1.9807
  990MOL0     H33595  10.112   2.705  -0.130 -1.5771 -4.4243 -0.6551
  990MOL0     H33596  10.157   2.804  -0.272 -0.7528 -0.0527 -0.3351
  990MOL0     H33597   9.878   2.802  -0.292  1.7171 -2.9756 -0.8089
  990MOL0     H33598   9.883   2.738  -0.131  0.2357  0.3876 -0.4503
  990MOL0     H33599   9.976   3.001  -0.254 -2.3704  2.2759  0.9291
  990MOL0     H33600  10.022   2.942  -0.088 -1.1229  1.2176  1.3221
  990MOL0     H33601   9.801   2.866   0.083 -0.3762  2.6570  3.1279
  990MOL0     H33602   9.457   3.003   0.100 -0.3819 -0.5150  0.0645
  990MOL0     H33603   9.572   2.908   0.199  0.3106  1.3442  1.4391
  990MOL0     H33604   9.633   3.203   0.193 -0.2463 -0.9250 -1.0871
  990MOL0     H33605   9.648   3.088   0.323 -0.6690 -0.9515 -0.0702
  990MOL0     H33606   9.390   3.087   0.330 -0.3170 -0.3461 -0.2025
  990MOL0     H33607   9.388   3.206   0.194  1.8332 -1.4723 -2.0884
  990MOL0     H33608   9.541   3.354   0.325 -0.3874  0.5104  0.1201
  990MOL0     H33609   9.512   3.253   0.472 -2.5003 -3.7988 -0.0509
  990MOL0     H33610   9.115   3.431   0.333 -2.3018 -0.9927 -0.6269
  990MOL0     H33611   8.827   3.402   0.426  1.1317  1.4239 -0.2236
  990MOL0     H33612   8.899   3.360   0.265  0.0624 -1.7372 -0.3230
  990MOL0     H33613   8.811   3.235   0.358 -1.1201  0.7627  3.5564
  990MOL0     H33614   8.706   2.967   0.464 -0.6063  0.6743 -2.3249
  990MOL0     H33615   8.521   2.841   0.489  0.2140  0.1874  0.0694
  990MOL0     H33616   8.207   2.948   0.817 -0.6271 -0.5342 -0.4660
  990MOL0     H33617   8.157   3.026   0.666 -1.4351 -0.5593  0.8787
  990MOL0     H33618   8.082   2.796   0.590  0.5745 -0.9269  0.3153
  990MOL0     H33619   8.105   2.740   0.764 -3.0657 -2.0173 -1.9251
  990MOL0     H33620   7.908   2.951   0.658  4.0158  1.6525 -0.9033
  990MOL0     H33621   7.920   2.894   0.825  0.5908  0.3143 -0.8485
  990MOL0     H33622   7.855   2.701   0.589 -1.4913 -1.4684 -0.3660
  990MOL0     H33623   7.831   2.672   0.766  0.0191 -0.6438 -1.4051
  990MOL0     H33624   7.688   2.866   0.582 -0.4055  2.1669  1.5001
  990MOL0     H33625   7.674   2.873   0.758  1.7174  1.1746 -0.2442
  990MOL0     H33626   7.566   2.681   0.565 -1.5973 -1.4152  0.5840
  990MOL0     H33627   7.607   2.613   0.737  1.5018  1.2383  1.7115
  990MOL0     H33628   7.439   2.854   0.676  0.9471 -1.2628 -2.4851
  990MOL0     H33629   7.486   2.780   0.831 -1.7700  1.2296 -0.2628
  990MOL0     H33630   7.360   2.565   0.729 -0.5108  0.1850 -1.6020
  990MOL0     H33631   7.291   2.679   0.614  0.4418  1.6677 -0.8236
  990MOL0     H33632   8.352   3.123   0.759 -0.2879 -0.5008 -0.6582
  990MOL0     H33633   8.549   3.252   0.740 -1.0939  0.4159 -0.5897
  990MOL0     H33634   9.137   3.030   0.610  2.6179  0.0896 -0.0701
  990MOL0     H33635   9.337   3.165   0.581  0.6309  1.0470  0.7689
  990MOL0     H33636  10.627   2.326   0.124  2.8537  3.2991  0.8835
  990MOL0     H33637  10.835   2.298   0.218 -1.0359  0.0780 -0.0205
  990MOL0     H33638  11.351   2.474   0.181 -0.0550 -0.8721 -1.2557
  990MOL0     H33639  11.562   2.402   0.272  0.5097 -0.0034 -0.0094
  990MOL0     H33640  11.809   2.261   0.329  3.6557 -2.1077  2.9357
  990MOL0     H33641  11.686   2.283   0.447  0.8630 -0.2275  1.6192
  990MOL0     H33642  11.853   2.030   0.404 -0.5999 -0.0026  0.1733
  990MOL0     H33643  11.730   2.058   0.522 -3.0631  1.3342 -2.4797
  990MOL0     H33644  11.859   2.235   0.639 -0.0595 -1.6671  2.3476
  990MOL0     H33645  11.991   2.219   0.528 -0.2103  0.7970  1.3673
  990MOL0     H33646  12.065   2.130   0.725 -0.3151 -2.0824  2.2253
  990MOL0     H33647  12.066   2.013   0.589 -0.7102 -3.3482  1.8207
  990MOL0     H33648  11.781   1.891   0.885  1.3153  1.3694  2.0109
  990MOL0     H33649  11.443   1.978   0.229 -3.3959 -1.1367  2.7756
  990MOL0     H33650  11.219   2.054   0.159 -0.6221  0.7563  0.9836
  991MOL0     O33651   7.085   4.271   2.987 -0.0315  0.1208  0.1655
  991MOL0     C33652   7.101   4.236   2.870 -0.3490  0.3826 -0.0643
  991MOL0     O33653   7.019   4.267   2.767 -0.1824 -0.3002 -0.4992
  991MOL0     C33654   6.884   4.286   2.792  0.0663  0.0252  0.1225
  991MOL0     C33655   6.812   4.360   2.695 -0.1905  0.1207  0.2295
  991MOL0     C33656   6.675   4.380   2.703 -0.2595 -0.4679  0.3651
  991MOL0     C33657   6.603   4.349   2.821  0.3490 -1.0181  0.1693
  991MOL0     O33658   6.478   4.381   2.848 -0.6072 -0.0876  0.2756
  991MOL0     C33659   6.394   4.370   2.733  0.4797 -0.3746 -0.5149
  991MOL0     C33660   6.249   4.338   2.793  0.5717 -0.9365  0.2114
  991MOL0     C33661   6.253   4.201   2.857 -0.6625  0.0723 -0.4682
  991MOL0     C33662   6.123   4.177   2.926 -0.1994  0.0155 -0.2159
  991MOL0     C33663   6.117   4.046   3.010 -0.1355  0.3500  0.5899
  991MOL0     C33664   6.004   4.060   3.113 -0.1354  1.1897  0.5212
  991MOL0     C33665   5.858   4.085   3.051 -0.1849 -0.2956  0.0051
  991MOL0     C33666   5.762   4.090   3.174  0.3433 -0.3253  0.2819
  991MOL0     N33667   5.624   4.082   3.117  0.8478  0.3023  0.2345
  991MOL0     C33668   5.523   4.002   3.168 -0.7704  0.4568 -0.0837
  991MOL0     C33669   5.412   4.064   3.132 -0.7321  0.2769  0.3960
  991MOL0     C33670   5.278   4.001   3.165 -0.3233 -0.2665  0.3979
  991MOL0     C33671   5.201   4.095   3.254 -0.4510 -0.5122  0.4123
  991MOL0     C33672   5.057   4.034   3.280 -0.2884 -0.2213 -1.0536
  991MOL0     C33673   4.970   4.121   3.359 -0.4214  0.1200 -0.3535
  991MOL0     O33674   4.847   4.042   3.366 -0.2981  0.0346  0.0712
  991MOL0     C33675   4.727   4.096   3.399  0.4782 -0.0957  0.5354
  991MOL0     C33676   4.712   4.205   3.486 -0.6092  0.5845  0.1137
  991MOL0     C33677   4.592   4.259   3.517 -0.2736  0.1876  0.1021
  991MOL0     C33678   4.595   4.385   3.604  0.4223  0.2873 -0.4958
  991MOL0     C33679   4.470   4.205   3.458  0.8746 -0.4769  0.3576
  991MOL0     C33680   4.330   4.260   3.483 -0.4022 -0.2408  0.1098
  991MOL0     O33681   4.226   4.186   3.434 -0.3317  0.8047 -0.3003
  991MOL0     C33682   4.104   4.236   3.407 -0.7310  0.5207  0.5355
  991MOL0     C33683   4.018   4.278   3.513  0.7571  0.2494  0.0260
  991MOL0     C33684   3.893   4.332   3.481  0.3878  0.0691 -0.8670
  991MOL0     C33685   3.852   4.346   3.352  0.3961  0.3018  0.5385
  991MOL0     O33686   3.729   4.395   3.316 -0.3030 -0.1678  0.0500
  991MOL0     C33687   3.643   4.442   3.419  0.5061 -0.3069  0.5006
  991MOL0     C33688   3.510   4.490   3.352 -1.0605  0.0209 -0.5426
  991MOL0     C33689   3.405   4.535   3.454 -0.0848 -0.2819 -0.7951
  991MOL0     C33690   3.268   4.562   3.394  0.2774  0.8179  0.4195
  991MOL0     C33691   3.169   4.597   3.511 -0.7969 -0.6605  0.2886
  991MOL0     C33692   3.041   4.620   3.444 -0.6017  0.0139 -0.5899
  991MOL0     C33693   2.932   4.633   3.548  0.1551 -0.0503 -0.4871
  991MOL0     C33694   2.791   4.668   3.497 -0.5292 -0.4237 -0.3017
  991MOL0    Cl33695   2.769   4.852   3.515 -0.2607 -0.0536 -0.5122
  991MOL0     C33696   3.942   4.296   3.245  0.2270  0.5542  0.8301
  991MOL0     C33697   4.067   4.243   3.277 -0.2627  0.0263  0.0432
  991MOL0     O33698   4.320   4.377   3.523 -0.6514  0.0298 -0.9481
  991MOL0     C33699   4.489   4.093   3.369  0.8131 -0.3577 -0.9434
  991MOL0     C33700   4.615   4.042   3.336  0.0925  0.7896 -0.2239
  991MOL0     N33701   5.449   4.180   3.057  0.8213  0.1973  0.4047
  991MOL0     N33702   5.581   4.192   3.051 -0.1223  0.2158 -0.5216
  991MOL0     C33703   6.676   4.275   2.920 -0.2349  0.8521 -0.0829
  991MOL0     C33704   6.816   4.239   2.900  0.3547 -0.4595 -0.6234
  991MOL0     C33705   7.235   4.178   2.835  0.2741 -0.6286  0.4285
  991MOL0     C33706   7.354   4.201   2.914  0.8612  0.3685  0.4516
  991MOL0     C33707   7.482   4.158   2.876  0.9982 -0.0840 -0.4755
  991MOL0     C33708   7.505   4.103   2.756 -0.1572 -0.2562 -0.9637
  991MOL0     O33709   7.639   4.067   2.738 -0.2506 -0.0392  0.4692
  991MOL0     C33710   7.683   4.034   2.600  0.5687 -0.1928 -0.0161
  991MOL0     C33711   7.823   3.976   2.596  0.2443  0.6621  0.2388
  991MOL0     C33712   7.930   4.069   2.654  0.7063 -0.5478 -0.6008
  991MOL0     C33713   8.062   4.001   2.681  0.1562  0.3120 -0.0515
  991MOL0     C33714   8.110   3.935   2.559  0.6022 -1.3081  0.6057
  991MOL0     C33715   8.135   3.885   2.452  0.5926  0.1870 -0.3611
  991MOL0     C33716   7.394   4.092   2.667  0.1635  0.5172  0.3572
  991MOL0     C33717   7.264   4.123   2.707  0.4918  0.8836 -0.2098
  991MOL0     H33718   6.866   4.387   2.605  2.3267 -2.6380  0.7711
  991MOL0     H33719   6.623   4.397   2.609 -0.9607 -2.7367  0.2855
  991MOL0     H33720   6.382   4.474   2.700 -0.6909 -0.6477 -0.9953
  991MOL0     H33721   6.420   4.298   2.654 -2.3179 -0.7152 -1.2315
  991MOL0     H33722   6.225   4.415   2.866  3.0518 -1.6608  1.9151
  991MOL0     H33723   6.170   4.345   2.717 -1.2076 -5.4760  1.2539
  991MOL0     H33724   6.269   4.122   2.783  1.9588 -0.4839  0.5809
  991MOL0     H33725   6.333   4.190   2.931 -0.3289 -1.2598 -0.9791
  991MOL0     H33726   6.103   4.257   2.997 -0.9461  2.1932 -2.7331
  991MOL0     H33727   6.035   4.186   2.861 -1.9678  1.8649  2.2448
  991MOL0     H33728   6.104   3.962   2.942 -0.4888  0.0484  1.0180
  991MOL0     H33729   6.216   4.026   3.052  0.7791 -1.6810 -2.2469
  991MOL0     H33730   5.995   3.964   3.166 -2.2848  0.2746 -1.3272
  991MOL0     H33731   6.031   4.139   3.183 -1.0933  0.3353  1.9187
  991MOL0     H33732   5.855   4.177   2.991 -0.6234 -1.0202 -1.1003
  991MOL0     H33733   5.843   4.001   2.983 -0.4984  1.6671 -2.4967
  991MOL0     H33734   5.775   4.192   3.211  1.0745 -0.0875 -0.5749
  991MOL0     H33735   5.762   4.003   3.240 -3.7769 -1.3442 -0.8059
  991MOL0     H33736   5.535   3.917   3.235 -1.3342  0.5343  0.1192
  991MOL0     H33737   5.225   3.972   3.074 -1.2697  3.6385 -0.5033
  991MOL0     H33738   5.302   3.907   3.216 -0.4050 -0.4881  0.0324
  991MOL0     H33739   5.190   4.192   3.207 -1.3589 -2.1343 -3.0195
  991MOL0     H33740   5.251   4.110   3.350  0.9468 -0.4788 -0.2911
  991MOL0     H33741   5.077   3.937   3.327  0.5752  1.2247  1.8339
  991MOL0     H33742   5.006   4.014   3.186 -0.9186  0.3170 -0.8338
  991MOL0     H33743   4.954   4.216   3.306  0.6640  1.8261  2.1685
  991MOL0     H33744   5.016   4.139   3.456  0.7753 -0.8810 -0.7043
  991MOL0     H33745   4.797   4.255   3.530 -3.5655  3.5245  3.0590
  991MOL0     H33746   4.509   4.386   3.670  0.9328 -4.2246  0.5310
  991MOL0     H33747   4.692   4.396   3.654 -1.0631 -0.6088  2.8711
  991MOL0     H33748   4.593   4.479   3.547 -0.5260 -0.8307 -2.4116
  991MOL0     H33749   4.046   4.258   3.615  0.0768 -1.3833 -0.0735
  991MOL0     H33750   3.821   4.345   3.562  2.3466  1.3258  0.7756
  991MOL0     H33751   3.614   4.358   3.483 -3.2405  0.6478  0.2820
  991MOL0     H33752   3.691   4.528   3.468  0.0801  0.3694 -0.2475
  991MOL0     H33753   3.527   4.576   3.287  0.5783 -0.0466 -0.2419
  991MOL0     H33754   3.472   4.412   3.285 -0.4751 -0.7497 -0.0062
  991MOL0     H33755   3.434   4.633   3.493  1.1220 -0.1512 -1.9371
  991MOL0     H33756   3.392   4.463   3.535  1.5858  0.6036  0.3201
  991MOL0     H33757   3.279   4.650   3.330 -1.4259  0.3880 -0.5173
  991MOL0     H33758   3.241   4.476   3.332  2.1687  0.4263  0.0658
  991MOL0     H33759   3.213   4.683   3.562 -0.6468  1.0401 -2.4760
  991MOL0     H33760   3.158   4.518   3.586  0.9032 -0.6011  0.6361
  991MOL0     H33761   3.034   4.705   3.375 -0.5003  0.1594 -0.4204
  991MOL0     H33762   3.016   4.538   3.376 -0.0737  0.0627 -0.8441
  991MOL0     H33763   2.971   4.697   3.627  1.4929 -3.1549  1.5861
  991MOL0     H33764   2.938   4.536   3.599  0.6157 -1.6784 -3.4093
  991MOL0     H33765   2.714   4.626   3.562 -0.8723  0.9392  0.1984
  991MOL0     H33766   2.794   4.627   3.396 -1.3144 -0.3486 -0.3600
  991MOL0     H33767   3.920   4.305   3.139  2.0801  2.1494  0.5237
  991MOL0     H33768   4.143   4.214   3.206  0.3802  1.5573  0.0836
  991MOL0     H33769   4.397   4.050   3.331 -0.8587  1.6810  0.5630
  991MOL0     H33770   4.619   3.954   3.273 -1.6506  0.9094 -0.5632
  991MOL0     H33771   6.634   4.246   3.016  0.1119  0.9268  0.0927
  991MOL0     H33772   6.863   4.166   2.965 -0.4021  1.1141  1.8529
  991MOL0     H33773   7.345   4.240   3.015 -0.6401  0.0338  0.4750
  991MOL0     H33774   7.571   4.176   2.937 -0.5020  1.3396  1.4214
  991MOL0     H33775   7.608   3.962   2.565 -0.9923  1.2530  0.2383
  991MOL0     H33776   7.683   4.121   2.534  0.6924  1.1570  1.6998
  991MOL0     H33777   7.842   3.952   2.491 -2.1365  1.6654 -0.5013
  991MOL0     H33778   7.818   3.895   2.669  0.8964  0.5434  0.1536
  991MOL0     H33779   7.903   4.084   2.759  1.4443  0.6269 -0.5632
  991MOL0     H33780   7.942   4.154   2.587  0.2343 -1.7689 -2.3068
  991MOL0     H33781   8.047   3.919   2.751  0.5417  3.0997  3.5833
  991MOL0     H33782   8.132   4.068   2.732 -1.8215  0.4035  2.7851
  991MOL0     H33783   8.168   3.847   2.357  2.4448  3.2142 -1.0922
  991MOL0     H33784   7.400   4.065   2.562 -1.4344 -0.1342  0.4083
  991MOL0     H33785   7.179   4.117   2.639 -1.2345  2.6346  1.6401
  992MOL0     O33786   0.144   5.988   5.312 -1.0145 -0.0788  0.1928
  992MOL0     C33787   0.225   5.925   5.384 -0.7339 -0.0760  0.2383
  992MOL0     O33788   0.221   5.793   5.423  0.6523  0.5152 -0.0102
  992MOL0     C33789   0.104   5.724   5.407 -0.3644 -0.2575 -0.1258
  992MOL0     C33790  -0.016   5.753   5.477 -0.3055  0.3331 -1.3239
  992MOL0     C33791  -0.132   5.673   5.451  0.1771 -0.6469  0.0577
  992MOL0     C33792  -0.126   5.564   5.362 -0.2470  0.3865  0.1841
  992MOL0     O33793  -0.226   5.482   5.323  0.1837 -0.7166  0.6281
  992MOL0     C33794  -0.318   5.433   5.419 -0.1955 -0.8653 -0.6094
  992MOL0     C33795  -0.415   5.352   5.340  0.2005  0.4539 -0.1470
  992MOL0     C33796  -0.521   5.434   5.269  0.1257  0.4929 -0.2003
  992MOL0     C33797  -0.647   5.349   5.242 -0.2605 -0.7382  0.0829
  992MOL0     C33798  -0.764   5.415   5.164  0.2063 -0.5385 -0.0293
  992MOL0     C33799  -0.718   5.470   5.036  0.3524  0.3234 -0.0294
  992MOL0     C33800  -0.849   5.518   4.966 -0.1655  0.2050 -0.2524
  992MOL0     C33801  -0.898   5.408   4.874  0.1354  0.0242  0.0797
  992MOL0     N33802  -1.007   5.460   4.792  0.3798  0.5863  0.3196
  992MOL0     C33803  -1.141   5.435   4.805 -0.0351 -0.0971  0.2641
  992MOL0     C33804  -1.199   5.491   4.696  0.3740  0.2110  0.2109
  992MOL0     C33805  -1.351   5.518   4.683  0.0114  0.7482  0.2258
  992MOL0     C33806  -1.366   5.659   4.637  0.7218 -0.6823  0.0257
  992MOL0     C33807  -1.510   5.705   4.649  0.3995  0.3732 -0.0507
  992MOL0     C33808  -1.528   5.852   4.680 -0.2152  0.0386  0.5535
  992MOL0     O33809  -1.455   5.921   4.577  0.0790  0.4737 -0.2541
  992MOL0     C33810  -1.513   6.005   4.486 -0.3370 -0.6089  0.4470
  992MOL0     C33811  -1.420   6.065   4.405  0.1425 -0.2932 -0.3374
  992MOL0     C33812  -1.460   6.148   4.294  0.2887  1.0122  0.3509
  992MOL0     C33813  -1.354   6.206   4.209 -0.6410 -0.3179 -0.0292
  992MOL0     C33814  -1.595   6.169   4.273  0.4833 -0.4103 -0.9771
  992MOL0     C33815  -1.633   6.257   4.175  0.3313  0.3577  0.0505
  992MOL0     O33816  -1.715   6.360   4.214  0.2483  0.1303 -0.1410
  992MOL0     C33817  -1.754   6.461   4.132  0.3381 -0.8594 -0.0940
  992MOL0     C33818  -1.741   6.469   3.994  0.7896  0.0650 -0.3440
  992MOL0     C33819  -1.784   6.580   3.918 -0.3834  0.2524 -0.2611
  992MOL0     C33820  -1.873   6.675   3.979 -0.1421  0.5087  0.2192
  992MOL0     O33821  -1.925   6.767   3.886 -0.2396 -0.3295 -0.1391
  992MOL0     C33822  -2.017   6.875   3.927  0.6985  0.5045 -0.2995
  992MOL0     C33823  -2.086   6.955   3.815 -0.0771  0.4086  0.4077
  992MOL0     C33824  -1.991   7.057   3.752 -0.5047 -0.4830 -0.3911
  992MOL0     C33825  -1.872   7.004   3.677 -0.4350  0.0115  0.3580
  992MOL0     C33826  -1.912   6.912   3.560 -0.3524 -0.6213 -0.8477
  992MOL0     C33827  -1.791   6.883   3.472  0.5356 -0.7794 -0.7005
  992MOL0     C33828  -1.663   6.842   3.545 -0.0674 -0.2210 -0.3044
  992MOL0     C33829  -1.538   6.811   3.458 -0.5361 -0.0109 -0.5035
  992MOL0    Cl33830  -1.380   6.800   3.539 -0.6274 -0.0702  0.5126
  992MOL0     C33831  -1.906   6.660   4.112  0.4914  0.5752  0.0551
  992MOL0     C33832  -1.849   6.553   4.188 -0.5075  1.2051 -0.3167
  992MOL0     O33833  -1.603   6.219   4.060 -0.0267 -0.4932  0.0176
  992MOL0     C33834  -1.696   6.111   4.351  0.2449  0.3462 -0.5530
  992MOL0     C33835  -1.650   6.018   4.450 -0.4608 -0.1410 -0.3274
  992MOL0     N33836  -1.100   5.551   4.622  0.1243  0.1959  0.2059
  992MOL0     N33837  -0.984   5.517   4.670 -0.4556 -0.2856  0.8689
  992MOL0     C33838  -0.005   5.535   5.300 -0.2499  0.1299  0.0771
  992MOL0     C33839   0.109   5.614   5.327  0.3097  0.3105  0.0936
  992MOL0     C33840   0.346   6.003   5.436  0.4638  0.2870 -0.0457
  992MOL0     C33841   0.460   5.931   5.484  0.1018  0.5684 -0.8535
  992MOL0     C33842   0.572   5.998   5.532  0.6288 -0.1080  0.1636
  992MOL0     C33843   0.579   6.138   5.538  0.6616 -0.4940 -0.2581
  992MOL0     O33844   0.679   6.219   5.581  0.8853 -0.0051 -0.2438
  992MOL0     C33845   0.685   6.224   5.721 -0.6018 -0.1717  0.1397
  992MOL0     C33846   0.616   6.358   5.764  0.3369  0.0074  0.2620
  992MOL0     C33847   0.604   6.360   5.914  0.5365  0.8232 -0.7933
  992MOL0     C33848   0.736   6.374   5.985  0.0863 -0.4314 -0.7932
  992MOL0     C33849   0.739   6.408   6.132 -1.0407  0.9205  0.4656
  992MOL0     C33850   0.740   6.443   6.251  0.1147  0.7830  0.0108
  992MOL0     C33851   0.468   6.208   5.494  0.7258 -0.1350  0.4280
  992MOL0     C33852   0.354   6.138   5.440 -0.0529 -0.1637 -0.0499
  992MOL0     H33853  -0.031   5.835   5.547  1.5780 -1.6738  1.6684
  992MOL0     H33854  -0.228   5.695   5.496 -0.0773  1.3629 -1.3001
  992MOL0     H33855  -0.255   5.367   5.478  1.9332  0.6363 -1.0974
  992MOL0     H33856  -0.363   5.501   5.492 -1.1460 -2.3376  0.2221
  992MOL0     H33857  -0.361   5.296   5.262 -0.8599 -0.9259  0.0673
  992MOL0     H33858  -0.461   5.281   5.408 -0.1572 -1.2883 -2.0885
  992MOL0     H33859  -0.544   5.509   5.345 -0.3994 -0.7601  0.8911
  992MOL0     H33860  -0.481   5.474   5.174  0.2712 -1.4106 -0.9776
  992MOL0     H33861  -0.613   5.257   5.193 -0.9896 -1.4578  0.8835
  992MOL0     H33862  -0.701   5.320   5.333 -0.4765 -1.3727 -0.2392
  992MOL0     H33863  -0.839   5.337   5.155  1.1563 -2.3401  4.7436
  992MOL0     H33864  -0.801   5.497   5.226 -1.8905 -0.3402 -1.4413
  992MOL0     H33865  -0.641   5.546   5.049  1.4369 -0.6949 -0.3048
  992MOL0     H33866  -0.663   5.393   4.981 -0.4000  0.4230 -0.9456
  992MOL0     H33867  -0.933   5.553   5.026 -0.3246  0.8420 -0.8298
  992MOL0     H33868  -0.815   5.597   4.898  0.3794  0.1477 -0.0534
  992MOL0     H33869  -0.932   5.316   4.922  0.4412 -0.8742 -1.3693
  992MOL0     H33870  -0.821   5.379   4.802 -2.8983 -3.9560 -1.9794
  992MOL0     H33871  -1.188   5.406   4.898  0.6703  0.7274  0.8940
  992MOL0     H33872  -1.405   5.452   4.615  1.3872 -0.5051  0.2923
  992MOL0     H33873  -1.394   5.501   4.782  1.6746 -0.8140  0.7243
  992MOL0     H33874  -1.331   5.682   4.536 -1.6258 -1.5493 -1.0746
  992MOL0     H33875  -1.307   5.721   4.703  1.4336 -2.2622  0.9273
  992MOL0     H33876  -1.557   5.650   4.731 -1.6493  2.3267  0.1949
  992MOL0     H33877  -1.566   5.677   4.559  0.3698 -1.0377  0.3835
  992MOL0     H33878  -1.504   5.892   4.779 -0.3550  0.7462  0.3133
  992MOL0     H33879  -1.634   5.872   4.660 -0.4959 -0.4811  1.4738
  992MOL0     H33880  -1.314   6.049   4.421  0.4728  0.1769 -1.8788
  992MOL0     H33881  -1.356   6.316   4.217 -0.1999 -0.3956  1.7284
  992MOL0     H33882  -1.253   6.182   4.244 -0.6752 -0.6972 -0.1936
  992MOL0     H33883  -1.365   6.157   4.112 -0.5616 -2.2134  0.8779
  992MOL0     H33884  -1.677   6.402   3.937  0.9103  0.9998 -1.3355
  992MOL0     H33885  -1.761   6.587   3.812  0.3583 -1.1108 -0.2018
  992MOL0     H33886  -2.102   6.820   3.969 -1.0751  1.5376 -2.3309
  992MOL0     H33887  -1.961   6.939   3.996  0.1313  1.9659 -1.1547
  992MOL0     H33888  -2.125   6.882   3.744 -1.8273  1.6616  0.0260
  992MOL0     H33889  -2.172   7.008   3.856  0.3404  2.3297 -1.0818
  992MOL0     H33890  -1.949   7.108   3.839  0.0089 -1.9836  0.2591
  992MOL0     H33891  -2.047   7.116   3.678  2.4356  0.0440 -2.3838
  992MOL0     H33892  -1.828   7.090   3.628  0.5096 -0.6649 -0.0073
  992MOL0     H33893  -1.801   6.959   3.746 -0.0713 -1.1701 -0.7440
  992MOL0     H33894  -1.985   6.964   3.497 -2.0990 -1.4354  0.4290
  992MOL0     H33895  -1.962   6.819   3.591  2.5740 -0.8093  4.3868
  992MOL0     H33896  -1.822   6.806   3.401 -0.1224 -0.2229 -1.0238
  992MOL0     H33897  -1.780   6.972   3.409 -0.0911 -0.2412 -0.0621
  992MOL0     H33898  -1.688   6.753   3.602 -4.2893  0.2481 -1.0801
  992MOL0     H33899  -1.625   6.917   3.615  1.6602 -0.7195 -0.6731
  992MOL0     H33900  -1.532   6.890   3.382 -0.0837  3.0086  2.4475
  992MOL0     H33901  -1.558   6.714   3.411 -0.9424 -0.2604  0.1691
  992MOL0     H33902  -1.982   6.730   4.145 -0.5006  0.0629 -1.0463
  992MOL0     H33903  -1.882   6.543   4.290  1.5834 -1.9341  0.1967
  992MOL0     H33904  -1.804   6.121   4.343  0.0388  0.1472  1.4400
  992MOL0     H33905  -1.730   5.964   4.501  0.6094  1.6235  3.5586
  992MOL0     H33906   0.004   5.451   5.232  0.1375  0.6472 -0.5156
  992MOL0     H33907   0.212   5.600   5.297  0.9829  1.8621  1.4765
  992MOL0     H33908   0.465   5.823   5.487 -2.0034  0.4227 -1.4139
  992MOL0     H33909   0.658   5.945   5.572  1.7942  0.9106 -0.8786
  992MOL0     H33910   0.646   6.136   5.773  0.1137  0.8714  2.5825
  992MOL0     H33911   0.791   6.232   5.748 -0.3238 -1.3701 -0.5257
  992MOL0     H33912   0.520   6.360   5.712 -0.7529 -0.0399  2.2002
  992MOL0     H33913   0.673   6.447   5.737  0.4657  0.0460  0.6561
  992MOL0     H33914   0.561   6.262   5.938  1.2089  0.9126  0.9491
  992MOL0     H33915   0.527   6.426   5.954 -2.3440 -3.4052  1.4355
  992MOL0     H33916   0.781   6.461   5.938  0.4261  1.0150  1.9750
  992MOL0     H33917   0.796   6.283   5.976 -0.6151 -0.9907 -0.0360
  992MOL0     H33918   0.738   6.480   6.351  2.3685  0.4639  0.2257
  992MOL0     H33919   0.460   6.316   5.488 -3.1859 -0.1557  2.3200
  992MOL0     H33920   0.276   6.196   5.393  1.6318  4.3349  2.1413
  993MOL0     O33921   8.739   7.312   2.195  0.6048 -0.5559 -0.0562
  993MOL0     C33922   8.743   7.372   2.086  0.1457 -0.6206 -0.7295
  993MOL0     O33923   8.635   7.415   2.012  0.1778 -0.1240 -0.1596
  993MOL0     C33924   8.507   7.389   2.064 -0.1765 -0.6179  0.1415
  993MOL0     C33925   8.460   7.463   2.177 -0.3240 -0.1454  0.4449
  993MOL0     C33926   8.332   7.454   2.236 -0.3024 -0.3601  0.2850
  993MOL0     C33927   8.251   7.345   2.189  0.3681  0.2020  0.2007
  993MOL0     O33928   8.139   7.299   2.245  0.5977 -0.8071  0.0470
  993MOL0     C33929   8.088   7.357   2.371 -0.3945  0.4674  0.0679
  993MOL0     C33930   7.938   7.383   2.346 -0.6133  0.0354 -0.4419
  993MOL0     C33931   7.867   7.393   2.479  0.0029  0.6357  0.5525
  993MOL0     C33932   7.841   7.252   2.549 -0.3274 -0.4441  0.8112
  993MOL0     C33933   7.717   7.176   2.487 -0.3555 -1.0231 -0.2940
  993MOL0     C33934   7.587   7.248   2.487 -0.6320 -0.1909 -0.3342
  993MOL0     C33935   7.486   7.183   2.394 -0.0259 -0.3733 -0.8018
  993MOL0     C33936   7.350   7.214   2.440  0.0344  0.1955  0.0048
  993MOL0     N33937   7.290   7.330   2.368  1.0772  0.1699  0.1653
  993MOL0     C33938   7.229   7.343   2.249  0.1692  0.5377 -0.2512
  993MOL0     C33939   7.200   7.471   2.238  0.4448 -0.6412 -0.2794
  993MOL0     C33940   7.122   7.536   2.124  0.7271  0.1819  0.0871
  993MOL0     C33941   6.967   7.512   2.128  0.0308 -0.8233  0.1348
  993MOL0     C33942   6.908   7.543   2.269 -0.1406  0.1447 -0.3224
  993MOL0     C33943   6.948   7.686   2.314  0.0628  0.1857  0.3465
  993MOL0     O33944   6.920   7.776   2.200  1.3549  0.3987  0.0072
  993MOL0     C33945   6.789   7.823   2.180 -0.7264 -0.7070  0.1180
  993MOL0     C33946   6.687   7.801   2.275  0.1857  1.2577 -0.9093
  993MOL0     C33947   6.559   7.841   2.243 -0.6080 -0.3965 -0.5456
  993MOL0     C33948   6.457   7.803   2.351 -0.3208  0.4210  0.3667
  993MOL0     C33949   6.535   7.925   2.126  0.1501  0.4640 -0.6264
  993MOL0     C33950   6.398   7.988   2.094  0.6450 -0.2261 -0.0384
  993MOL0     O33951   6.390   8.063   1.988  1.1859 -0.4646 -0.0365
  993MOL0     C33952   6.289   8.155   1.981  0.1615  0.9010 -0.2481
  993MOL0     C33953   6.323   8.292   2.003  0.4293  0.1497  0.6293
  993MOL0     C33954   6.218   8.387   2.004 -0.5430 -0.4359  0.9861
  993MOL0     C33955   6.082   8.351   1.985  0.3882  0.5627 -0.4318
  993MOL0     O33956   5.988   8.450   2.001 -0.1854  0.6493 -0.3474
  993MOL0     C33957   5.851   8.425   1.956  0.3409  0.3451  0.0200
  993MOL0     C33958   5.778   8.555   1.961 -0.2205 -0.5219  0.0450
  993MOL0     C33959   5.638   8.533   1.901 -0.4479 -0.4116  0.4313
  993MOL0     C33960   5.563   8.673   1.913  0.6419  0.8779 -0.7794
  993MOL0     C33961   5.418   8.646   1.893  1.0916  0.2788 -0.2728
  993MOL0     C33962   5.325   8.764   1.914 -0.4292  0.0307 -0.2946
  993MOL0     C33963   5.179   8.732   1.885  0.7382 -0.1478 -0.3662
  993MOL0     C33964   5.106   8.647   1.991  0.3284  0.7577  0.3961
  993MOL0    Cl33965   4.943   8.616   1.931 -0.0118 -0.0386  0.0104
  993MOL0     C33966   6.050   8.216   1.966  0.1879  0.0830  0.6008
  993MOL0     C33967   6.157   8.119   1.957  0.6802  0.0067  0.0707
  993MOL0     O33968   6.308   7.974   2.173  0.1227  0.3662 -0.6149
  993MOL0     C33969   6.645   7.943   2.044  0.5077  0.7489  0.5605
  993MOL0     C33970   6.772   7.890   2.058 -0.4490 -0.4431  0.2481
  993MOL0     N33971   7.255   7.543   2.340  0.3022 -0.5180  0.0178
  993MOL0     N33972   7.303   7.457   2.421  0.2032  0.7383  0.0563
  993MOL0     C33973   8.294   7.271   2.080 -0.9080  0.4668 -0.5193
  993MOL0     C33974   8.418   7.291   2.018 -0.2942 -0.2189  0.6465
  993MOL0     C33975   8.869   7.408   2.025 -0.3822 -0.5305  0.6059
  993MOL0     C33976   8.869   7.489   1.907  1.4122 -0.3314 -0.8483
  993MOL0     C33977   8.978   7.524   1.835 -0.2492 -0.7320 -0.7736
  993MOL0     C33978   9.104   7.480   1.889  0.1717  0.0982  0.0465
  993MOL0     O33979   9.218   7.526   1.821 -0.0293  0.2921 -0.7125
  993MOL0     C33980   9.329   7.579   1.894 -0.6749  0.5293 -0.6651
  993MOL0     C33981   9.417   7.643   1.795 -0.3877  0.0770 -0.0908
  993MOL0     C33982   9.462   7.550   1.685 -0.4786  0.8452  0.5515
  993MOL0     C33983   9.609   7.560   1.642 -1.0622  0.2090  0.4446
  993MOL0     C33984   9.645   7.669   1.549 -0.2383  0.4566  0.6143
  993MOL0     C33985   9.666   7.758   1.473  0.1135  0.4106  0.2540
  993MOL0     C33986   9.117   7.411   2.008  0.8325  0.2471  0.3953
  993MOL0     C33987   8.995   7.368   2.074  0.8695 -0.2833 -0.6146
  993MOL0     H33988   8.524   7.538   2.222  2.3854 -1.9027 -0.1946
  993MOL0     H33989   8.311   7.518   2.321 -0.1635 -1.1019  0.9029
  993MOL0     H33990   8.105   7.294   2.458  1.3175  3.2380  1.9186
  993MOL0     H33991   8.131   7.456   2.391  1.6949  0.5343 -3.7893
  993MOL0     H33992   7.923   7.466   2.275  0.1358 -0.1910 -0.8716
  993MOL0     H33993   7.892   7.297   2.297  1.7287 -1.0800 -0.7975
  993MOL0     H33994   7.936   7.459   2.533  2.0913 -0.2454 -0.9099
  993MOL0     H33995   7.770   7.443   2.465 -0.2801  0.3870  1.5294
  993MOL0     H33996   7.932   7.192   2.536 -0.8455 -1.6035  2.3127
  993MOL0     H33997   7.831   7.275   2.655 -0.6672 -0.2915  0.7496
  993MOL0     H33998   7.744   7.160   2.382  0.5951  0.3929 -0.2962
  993MOL0     H33999   7.721   7.076   2.530 -1.8606 -0.4892  1.2158
  993MOL0     H34000   7.554   7.256   2.591  0.2742 -1.0838  0.0410
  993MOL0     H34001   7.594   7.350   2.448  0.5004  1.3173  3.3627
  993MOL0     H34002   7.509   7.204   2.289 -1.9206 -3.6593 -2.0244
  993MOL0     H34003   7.496   7.075   2.408  1.1752 -0.7823 -4.0580
  993MOL0     H34004   7.335   7.229   2.547 -1.0772  0.7627 -0.2246
  993MOL0     H34005   7.287   7.130   2.409  0.3193 -0.0008 -0.0483
  993MOL0     H34006   7.208   7.262   2.180 -1.4492  1.4842 -0.9275
  993MOL0     H34007   7.143   7.644   2.120 -0.1103  0.3659  0.4069
  993MOL0     H34008   7.172   7.492   2.037  1.1711  0.3180  0.2710
  993MOL0     H34009   6.941   7.407   2.108 -4.4965  0.1973 -0.5937
  993MOL0     H34010   6.924   7.570   2.046  1.3273 -0.5380 -0.3575
  993MOL0     H34011   6.940   7.467   2.341 -0.6652  0.3007  0.0857
  993MOL0     H34012   6.798   7.538   2.264 -0.1851  0.4064  0.2901
  993MOL0     H34013   7.057   7.680   2.326  0.1333 -1.3298 -0.7566
  993MOL0     H34014   6.898   7.706   2.408 -3.6072  0.4925 -1.4977
  993MOL0     H34015   6.697   7.736   2.361  0.7611  3.1184  0.4819
  993MOL0     H34016   6.391   7.888   2.369 -0.3551  0.4137  0.2775
  993MOL0     H34017   6.401   7.719   2.310  0.3784 -0.6582  1.5552
  993MOL0     H34018   6.506   7.770   2.443  0.3810 -2.5091 -0.9353
  993MOL0     H34019   6.424   8.328   2.021  1.3789 -2.3186  0.6326
  993MOL0     H34020   6.246   8.490   2.022 -0.1685  0.0741 -1.9791
  993MOL0     H34021   5.842   8.382   1.856 -2.0228  2.2044 -0.6875
  993MOL0     H34022   5.800   8.359   2.028 -0.0509  0.7697  0.1418
  993MOL0     H34023   5.770   8.571   2.069 -1.0325 -2.7557  0.3802
  993MOL0     H34024   5.831   8.631   1.903 -1.5779  0.7906  0.4638
  993MOL0     H34025   5.582   8.465   1.967 -2.5663  1.0890  0.2862
  993MOL0     H34026   5.639   8.496   1.799  1.9644 -0.2227  0.3309
  993MOL0     H34027   5.578   8.719   2.011  2.0627  3.2716 -2.0310
  993MOL0     H34028   5.600   8.748   1.842  3.9961  1.8807  1.7558
  993MOL0     H34029   5.388   8.570   1.966 -0.7370  2.9826  2.0172
  993MOL0     H34030   5.412   8.625   1.786  4.6182  2.2720 -1.0549
  993MOL0     H34031   5.328   8.805   2.015 -0.8263 -2.0966  0.6374
  993MOL0     H34032   5.344   8.839   1.837 -0.9112 -1.2070 -1.6564
  993MOL0     H34033   5.169   8.669   1.797 -1.8766  0.4489 -0.5866
  993MOL0     H34034   5.115   8.819   1.869 -1.3434 -1.8459 -1.8079
  993MOL0     H34035   5.102   8.705   2.084  2.2274  0.9709  0.3774
  993MOL0     H34036   5.155   8.552   2.012 -2.0862 -1.1053 -1.8585
  993MOL0     H34037   5.947   8.180   1.958 -1.9027  3.7186  5.7568
  993MOL0     H34038   6.120   8.019   1.938 -0.0133  0.5409 -1.4903
  993MOL0     H34039   6.631   8.000   1.953 -1.6100 -2.4075 -1.3197
  993MOL0     H34040   6.848   7.913   1.985 -1.0643 -0.6594 -0.4662
  993MOL0     H34041   8.234   7.190   2.039 -0.4837 -0.7215  1.1284
  993MOL0     H34042   8.439   7.241   1.924 -4.1169  3.0487 -2.3610
  993MOL0     H34043   8.773   7.517   1.866  0.4439 -0.1091  1.4243
  993MOL0     H34044   8.978   7.595   1.752 -0.2602 -0.4664 -0.5458
  993MOL0     H34045   9.311   7.660   1.965  3.8451  1.4637 -0.3183
  993MOL0     H34046   9.388   7.500   1.942 -1.0794  0.6218  0.0062
  993MOL0     H34047   9.509   7.683   1.839  0.8017 -1.0350 -1.5005
  993MOL0     H34048   9.351   7.722   1.758  1.2531  1.2273 -0.6270
  993MOL0     H34049   9.408   7.571   1.593 -1.0622 -0.5929  0.5364
  993MOL0     H34050   9.432   7.449   1.715  0.9677  0.0831 -0.4065
  993MOL0     H34051   9.629   7.473   1.578  0.4059  1.1350 -0.4238
  993MOL0     H34052   9.674   7.579   1.727  1.1036  0.6750 -1.2179
  993MOL0     H34053   9.692   7.842   1.412 -0.4946  0.9369  0.7068
  993MOL0     H34054   9.216   7.382   2.044  0.7240 -0.8661 -0.1479
  993MOL0     H34055   8.995   7.297   2.155  2.5085 -0.6440 -0.9034
  994MOL0     O34056  10.472   4.248   1.711  0.8818 -0.4980 -0.4182
  994MOL0     C34057  10.504   4.215   1.822  0.3025 -0.3019 -0.2354
  994MOL0     O34058  10.422   4.175   1.923  0.3704 -0.6494  0.0004
  994MOL0     C34059  10.282   4.179   1.913 -0.2586 -0.4030  0.1281
  994MOL0     C34060  10.196   4.210   1.803 -0.0379 -0.1297  0.3852
  994MOL0     C34061  10.061   4.216   1.811 -0.5830  0.1756 -0.4198
  994MOL0     C34062  10.006   4.190   1.943  0.1306  0.4349  0.0221
  994MOL0     O34063   9.873   4.192   1.946  0.2323  0.1648 -0.3862
  994MOL0     C34064   9.803   4.267   2.045  0.1813 -1.1189  0.8516
  994MOL0     C34065   9.659   4.262   2.005 -0.1807 -0.5023  0.5346
  994MOL0     C34066   9.566   4.354   2.093  0.5737 -0.3003  0.5871
  994MOL0     C34067   9.424   4.352   2.024 -1.0474 -0.5893 -0.2665
  994MOL0     C34068   9.313   4.402   2.108 -0.4521 -0.2009 -0.2397
  994MOL0     C34069   9.318   4.543   2.169  0.3572  0.1441  0.4470
  994MOL0     C34070   9.357   4.656   2.068  0.0941  0.4382  0.6057
  994MOL0     C34071   9.329   4.794   2.136  0.7847 -0.6223 -0.1149
  994MOL0     N34072   9.185   4.803   2.193  0.0702  0.3104  0.2130
  994MOL0     C34073   9.156   4.788   2.326 -0.3943  0.0808  0.4083
  994MOL0     C34074   9.022   4.789   2.330 -0.6863  0.0848 -0.2132
  994MOL0     C34075   8.941   4.766   2.461 -1.3982  0.3300  0.2269
  994MOL0     C34076   8.787   4.789   2.442  0.6632  0.2422  0.2641
  994MOL0     C34077   8.753   4.928   2.399  0.5533 -0.5601 -0.1735
  994MOL0     C34078   8.606   4.939   2.398  0.3299 -0.4101 -0.5073
  994MOL0     O34079   8.561   4.942   2.535  0.3789  0.4315  0.2631
  994MOL0     C34080   8.440   4.985   2.556  0.4811 -0.5390 -0.3873
  994MOL0     C34081   8.433   5.080   2.655  0.3554 -0.4245  0.5574
  994MOL0     C34082   8.308   5.128   2.703  0.1537 -0.3387  0.5679
  994MOL0     C34083   8.314   5.216   2.830 -0.5907 -0.0213  0.1101
  994MOL0     C34084   8.191   5.084   2.629  0.4761  1.1694 -0.7639
  994MOL0     C34085   8.052   5.155   2.656  0.1366 -0.4773  0.0080
  994MOL0     O34086   7.940   5.108   2.594 -0.8338 -0.0166  0.0654
  994MOL0     C34087   7.815   5.148   2.630  0.7292  0.3239  1.0244
  994MOL0     C34088   7.780   5.198   2.756  0.7134  0.1200 -0.5080
  994MOL0     C34089   7.646   5.238   2.780  0.8237  0.8432  0.2001
  994MOL0     C34090   7.543   5.224   2.686 -0.1774  1.1198 -0.1788
  994MOL0     O34091   7.411   5.237   2.734  0.0099  0.7432  0.1692
  994MOL0     C34092   7.318   5.260   2.636  0.7483 -0.2374  0.4973
  994MOL0     C34093   7.192   5.315   2.707 -0.2007 -0.2496  0.0290
  994MOL0     C34094   7.214   5.462   2.756 -0.2412  0.9562 -0.9356
  994MOL0     C34095   7.107   5.499   2.868 -0.2469  0.2544 -1.3004
  994MOL0     C34096   7.097   5.653   2.888 -0.3011 -0.4576  0.0119
  994MOL0     C34097   6.995   5.695   2.983 -0.0074 -0.2865 -0.3666
  994MOL0     C34098   6.849   5.656   2.936 -0.9911  0.5918  0.2210
  994MOL0     C34099   6.745   5.752   2.981  0.3080  0.6619  0.2082
  994MOL0    Cl34100   6.600   5.702   2.896  0.1688  0.2031  0.0203
  994MOL0     C34101   7.580   5.168   2.558 -1.2108  0.2770 -0.8479
  994MOL0     C34102   7.714   5.128   2.533  0.4127 -0.1001  0.4752
  994MOL0     O34103   8.055   5.260   2.717 -0.3658  0.8393 -0.0793
  994MOL0     C34104   8.199   4.981   2.540 -0.6972  0.5046  0.7371
  994MOL0     C34105   8.321   4.933   2.493 -0.5195  0.0732  0.1404
  994MOL0     N34106   8.978   4.830   2.206 -0.3862  0.8762  1.0721
  994MOL0     N34107   9.073   4.822   2.124  0.0902 -0.2451  0.3390
  994MOL0     C34108  10.080   4.154   2.053 -0.1994  0.2932 -0.8545
  994MOL0     C34109  10.221   4.145   2.038 -0.3889  0.1707  0.4830
  994MOL0     C34110  10.645   4.197   1.836  0.1839  0.5943  0.0843
  994MOL0     C34111  10.742   4.204   1.730  0.2570  0.5551 -0.0410
  994MOL0     C34112  10.878   4.174   1.752  0.3912  0.6127  0.0366
  994MOL0     C34113  10.912   4.128   1.877  0.7911  1.0527  0.9942
  994MOL0     O34114  11.044   4.120   1.919 -0.2013  0.0625  1.0534
  994MOL0     C34115  11.145   4.107   1.817 -0.5089  0.6630  0.3260
  994MOL0     C34116  11.275   4.051   1.887 -0.2477  0.8737  0.2255
  994MOL0     C34117  11.358   4.164   1.944  0.8760  0.3930  0.2386
  994MOL0     C34118  11.458   4.131   2.055  0.7520  0.0171 -0.4094
  994MOL0     C34119  11.557   4.034   2.004  0.0094 -0.9316 -0.0993
  994MOL0     C34120  11.645   3.964   1.965 -0.3996 -0.1645 -0.9257
  994MOL0     C34121  10.826   4.123   1.983  0.1824  0.3318  0.2888
  994MOL0     C34122  10.694   4.144   1.956 -0.4538  0.6656  0.3457
  994MOL0     H34123  10.255   4.230   1.714 -1.6048 -1.8335 -1.1217
  994MOL0     H34124   9.993   4.242   1.730 -1.1583  0.6785  0.2027
  994MOL0     H34125   9.816   4.229   2.148  2.3582 -0.3706  0.9124
  994MOL0     H34126   9.856   4.363   2.052 -0.2021 -0.8428 -0.0117
  994MOL0     H34127   9.637   4.282   1.899 -3.4863 -3.1779  0.5260
  994MOL0     H34128   9.632   4.158   2.027  0.0829 -1.2548 -2.3172
  994MOL0     H34129   9.557   4.308   2.193  1.3069  0.1147  0.8484
  994MOL0     H34130   9.610   4.454   2.087  2.0735 -1.0199 -1.0959
  994MOL0     H34131   9.433   4.409   1.931 -2.1874 -0.6876 -0.4546
  994MOL0     H34132   9.399   4.250   1.993  1.0910 -2.2494  2.9204
  994MOL0     H34133   9.222   4.392   2.048 -0.7284 -1.9734  0.4256
  994MOL0     H34134   9.309   4.337   2.196  0.3961  2.3810  1.8571
  994MOL0     H34135   9.218   4.559   2.212 -0.5722 -0.7457 -1.2664
  994MOL0     H34136   9.378   4.549   2.260  0.4465  1.7016  0.3242
  994MOL0     H34137   9.465   4.658   2.052  0.1509  0.8134  1.0018
  994MOL0     H34138   9.299   4.630   1.979 -2.3445  0.6007  2.0351
  994MOL0     H34139   9.345   4.875   2.063  1.3851  1.5029  2.2231
  994MOL0     H34140   9.397   4.805   2.222 -0.8630  0.2789  1.1353
  994MOL0     H34141   9.223   4.782   2.411  3.4590  3.6212 -1.9378
  994MOL0     H34142   8.960   4.666   2.500  0.0945  0.4045 -0.2344
  994MOL0     H34143   8.972   4.836   2.539  0.8977 -0.1922 -0.1352
  994MOL0     H34144   8.740   4.765   2.538  2.3779  1.6635  1.5426
  994MOL0     H34145   8.739   4.722   2.370  0.0747  1.1665 -0.2316
  994MOL0     H34146   8.789   4.954   2.299 -1.2379 -0.7805 -0.9198
  994MOL0     H34147   8.794   4.997   2.474 -0.4719 -0.9860  0.8037
  994MOL0     H34148   8.549   4.868   2.338  0.7195 -1.9538  0.8816
  994MOL0     H34149   8.581   5.035   2.351 -0.1006  1.9097  3.9704
  994MOL0     H34150   8.527   5.103   2.704  2.1843 -3.4007 -1.2364
  994MOL0     H34151   8.415   5.224   2.871 -1.5857  3.6592  2.2870
  994MOL0     H34152   8.295   5.321   2.806 -2.3972 -0.2288  0.4668
  994MOL0     H34153   8.246   5.183   2.909 -1.2697  0.0176 -0.4476
  994MOL0     H34154   7.851   5.212   2.837 -0.6392 -1.1639  0.9721
  994MOL0     H34155   7.618   5.282   2.875 -0.8826  0.5500 -0.1270
  994MOL0     H34156   7.358   5.331   2.562  0.4589 -0.7646 -0.1697
  994MOL0     H34157   7.295   5.162   2.595 -0.1733  0.3666 -0.4749
  994MOL0     H34158   7.118   5.317   2.626  0.4637 -1.0425 -0.6186
  994MOL0     H34159   7.170   5.245   2.788 -0.4433 -1.5516 -1.1082
  994MOL0     H34160   7.193   5.536   2.678  1.2899  1.7078 -0.6712
  994MOL0     H34161   7.319   5.468   2.786  0.5364 -3.0462 -2.2859
  994MOL0     H34162   7.012   5.465   2.825 -0.4011  0.4673 -1.1285
  994MOL0     H34163   7.136   5.452   2.963  2.4423  1.4735 -1.4280
  994MOL0     H34164   7.078   5.706   2.794 -0.1709  0.5451  0.5296
  994MOL0     H34165   7.193   5.693   2.921 -0.3106 -0.5806  0.1914
  994MOL0     H34166   7.031   5.665   3.082  0.9927  1.1708 -0.2630
  994MOL0     H34167   7.008   5.802   2.995  1.9782 -0.6819  1.7219
  994MOL0     H34168   6.820   5.554   2.963  2.4148 -0.9866 -1.3997
  994MOL0     H34169   6.852   5.661   2.827  2.5644 -1.3325  0.0800
  994MOL0     H34170   6.764   5.858   2.966  0.9180  0.7147  1.2522
  994MOL0     H34171   6.722   5.738   3.087 -1.6290  1.2916 -0.0902
  994MOL0     H34172   7.512   5.144   2.477  0.0967 -1.3832 -1.5225
  994MOL0     H34173   7.738   5.086   2.436 -0.6787  0.2824  0.0260
  994MOL0     H34174   8.112   4.947   2.485  0.7090 -1.4844 -0.3788
  994MOL0     H34175   8.332   4.854   2.419 -0.3290  1.9057 -1.8933
  994MOL0     H34176  10.030   4.120   2.142  1.6148 -2.2284 -0.6916
  994MOL0     H34177  10.288   4.108   2.114 -0.2200 -1.9051 -0.5974
  994MOL0     H34178  10.708   4.224   1.629 -0.6647 -1.1127 -0.0934
  994MOL0     H34179  10.950   4.199   1.674  0.2915 -0.2764 -0.3631
  994MOL0     H34180  11.124   4.034   1.737 -1.2811 -1.0170  1.9821
  994MOL0     H34181  11.168   4.205   1.774 -5.1831  1.0792 -1.8281
  994MOL0     H34182  11.331   4.014   1.801  1.6174  0.5716  1.5003
  994MOL0     H34183  11.248   3.979   1.965 -0.9422  0.5978 -0.2601
  994MOL0     H34184  11.290   4.232   1.996  0.7806 -0.9438  1.9396
  994MOL0     H34185  11.423   4.213   1.871  1.2564  0.3008  0.5159
  994MOL0     H34186  11.403   4.088   2.140 -0.8568  2.6849  0.0056
  994MOL0     H34187  11.528   4.206   2.091  2.4114 -2.5862  2.2303
  994MOL0     H34188  11.714   3.899   1.915  0.9576 -0.3377  1.0752
  994MOL0     H34189  10.843   4.079   2.081 -1.8881 -3.1058 -0.6963
  994MOL0     H34190  10.619   4.119   2.030 -0.6598  0.7483  0.1644
  995MOL0     O34191   9.448   2.633   2.574 -0.5213  0.3865  0.3927
  995MOL0     C34192   9.479   2.533   2.636  0.2997 -0.5454  0.2492
  995MOL0     O34193   9.432   2.401   2.614  0.8612 -0.4799  0.0646
  995MOL0     C34194   9.303   2.399   2.556  0.0520 -0.6366 -0.1950
  995MOL0     C34195   9.270   2.272   2.504 -0.0244 -0.0978  0.5759
  995MOL0     C34196   9.137   2.245   2.461 -0.4577 -0.3692  0.2707
  995MOL0     C34197   9.031   2.337   2.472  0.5733  0.8805  0.5232
  995MOL0     O34198   8.904   2.280   2.432 -0.2339 -0.4654  0.0766
  995MOL0     C34199   8.819   2.370   2.360  0.4118 -0.5933 -0.0424
  995MOL0     C34200   8.692   2.301   2.332  1.1085  0.6815  0.6824
  995MOL0     C34201   8.580   2.381   2.266  0.6594 -0.3586 -0.8964
  995MOL0     C34202   8.463   2.298   2.228  0.4982  0.2493  0.6180
  995MOL0     C34203   8.364   2.375   2.130  0.1548 -0.2963 -0.1011
  995MOL0     C34204   8.236   2.290   2.096  0.2028  0.7317  0.4137
  995MOL0     C34205   8.136   2.381   2.024 -0.1650  0.0257 -0.0030
  995MOL0     C34206   8.012   2.303   1.978  0.1066 -0.7210 -0.6416
  995MOL0     N34207   7.927   2.283   2.093  0.2634 -0.0917  0.5526
  995MOL0     C34208   7.827   2.365   2.137  0.0453  0.4299  0.5461
  995MOL0     C34209   7.778   2.318   2.248 -1.1398 -0.3498 -0.0003
  995MOL0     C34210   7.674   2.378   2.328  0.2016  0.5685 -0.9585
  995MOL0     C34211   7.609   2.286   2.435  0.5653 -0.1774  0.0811
  995MOL0     C34212   7.477   2.338   2.506  0.1691 -0.0688 -0.0271
  995MOL0     C34213   7.362   2.394   2.422 -0.0993  0.4565 -0.1876
  995MOL0     O34214   7.270   2.456   2.516 -0.5238  0.1124 -0.4871
  995MOL0     C34215   7.179   2.536   2.459 -0.0961 -0.4601  0.0890
  995MOL0     C34216   7.073   2.577   2.535  0.1753 -0.0049  0.6885
  995MOL0     C34217   6.963   2.652   2.492 -0.1018  0.9504 -0.7978
  995MOL0     C34218   6.855   2.686   2.599  0.9990 -0.1931  0.1785
  995MOL0     C34219   6.963   2.698   2.356 -0.8739  1.0792 -0.3330
  995MOL0     C34220   6.853   2.792   2.302  0.1350 -0.3218 -0.5870
  995MOL0     O34221   6.755   2.833   2.389  0.1837  0.3843  0.4503
  995MOL0     C34222   6.642   2.900   2.349  0.1039  0.1013  0.4033
  995MOL0     C34223   6.522   2.880   2.411 -0.5322 -0.0456  0.5960
  995MOL0     C34224   6.413   2.951   2.379  0.5635 -1.1014 -0.0990
  995MOL0     C34225   6.416   3.061   2.289  0.4947 -0.3247 -0.1973
  995MOL0     O34226   6.302   3.133   2.255  0.3263 -0.5778 -0.9495
  995MOL0     C34227   6.181   3.109   2.329  0.1675  0.7783 -1.0834
  995MOL0     C34228   6.060   3.179   2.266  0.2327  0.0830 -0.2942
  995MOL0     C34229   6.052   3.332   2.271  0.3477 -0.1054 -0.4217
  995MOL0     C34230   6.012   3.364   2.415  0.1132  0.5517 -0.5746
  995MOL0     C34231   6.004   3.513   2.452  0.0700 -0.0702  0.6746
  995MOL0     C34232   6.147   3.563   2.468  0.0941 -0.4016 -1.0757
  995MOL0     C34233   6.142   3.721   2.482 -0.2148 -0.2414  0.3314
  995MOL0     C34234   6.270   3.783   2.432  0.4052  0.5142 -0.5388
  995MOL0    Cl34235   6.288   3.964   2.473  0.4292  0.0737  0.1056
  995MOL0     C34236   6.535   3.095   2.230 -0.3539 -0.6693  0.4115
  995MOL0     C34237   6.652   3.017   2.264  0.5020  0.1597  0.5625
  995MOL0     O34238   6.861   2.827   2.185  0.1289 -0.2092  0.0368
  995MOL0     C34239   7.077   2.665   2.274  0.3676  0.0446  0.0572
  995MOL0     C34240   7.178   2.584   2.327  0.1535  0.5624  0.3902
  995MOL0     N34241   7.859   2.212   2.281 -0.0507 -0.7560  0.2336
  995MOL0     N34242   7.938   2.181   2.184  0.5255 -0.7001 -0.6173
  995MOL0     C34243   9.067   2.471   2.523  0.5171 -0.0325 -0.1843
  995MOL0     C34244   9.194   2.494   2.564 -1.6605 -0.4559  0.2322
  995MOL0     C34245   9.602   2.548   2.718  0.0303 -0.3397  0.2993
  995MOL0     C34246   9.653   2.674   2.741 -0.8615  0.0087  0.2921
  995MOL0     C34247   9.774   2.697   2.823 -0.5574  0.3994 -0.4251
  995MOL0     C34248   9.838   2.578   2.869  0.1110  0.6073  0.2893
  995MOL0     O34249   9.944   2.585   2.948  0.5865 -0.6736 -0.6315
  995MOL0     C34250   9.957   2.481   3.042 -0.7388  0.6029  0.8581
  995MOL0     C34251  10.078   2.527   3.115 -0.5036  0.6204 -0.3186
  995MOL0     C34252  10.116   2.445   3.240 -0.5202  0.1274 -0.4564
  995MOL0     C34253  10.135   2.529   3.371  0.3162  0.1444 -0.4076
  995MOL0     C34254  10.012   2.616   3.394  0.2228 -0.1713 -0.0447
  995MOL0     C34255   9.898   2.666   3.403 -0.3764 -0.4394  0.4836
  995MOL0     C34256   9.782   2.454   2.831  0.1466  0.8185  0.4216
  995MOL0     C34257   9.658   2.438   2.773 -0.5901  0.4113 -0.0756
  995MOL0     H34258   9.344   2.192   2.501 -0.5252 -0.5292 -1.4526
  995MOL0     H34259   9.102   2.147   2.429  0.7434 -0.6235 -0.2972
  995MOL0     H34260   8.800   2.455   2.426  0.0335 -0.3614 -0.4476
  995MOL0     H34261   8.859   2.404   2.264 -2.2325 -2.5308 -1.9607
  995MOL0     H34262   8.716   2.225   2.257 -0.7369  2.1920 -1.6346
  995MOL0     H34263   8.644   2.249   2.415 -2.0138  2.6803  0.3161
  995MOL0     H34264   8.535   2.452   2.337 -1.9779 -2.0321 -0.7804
  995MOL0     H34265   8.614   2.437   2.178 -0.9955  2.4345  0.1066
  995MOL0     H34266   8.488   2.202   2.181  0.7693  0.8934 -0.6076
  995MOL0     H34267   8.410   2.273   2.320 -2.3652  2.8339 -0.1775
  995MOL0     H34268   8.335   2.474   2.166 -1.4376 -0.8340  0.1592
  995MOL0     H34269   8.416   2.392   2.035  0.1268 -1.8087 -0.4133
  995MOL0     H34270   8.269   2.202   2.040 -3.1828 -1.0913  1.0309
  995MOL0     H34271   8.192   2.251   2.188 -1.7245  0.2951 -0.6200
  995MOL0     H34272   8.116   2.469   2.085  3.1131  1.0489 -0.2094
  995MOL0     H34273   8.185   2.412   1.931 -4.2344 -1.5831 -2.9891
  995MOL0     H34274   8.033   2.209   1.927 -1.2028 -0.3860 -1.8558
  995MOL0     H34275   7.955   2.366   1.909 -1.5695 -0.8658  0.5303
  995MOL0     H34276   7.796   2.453   2.081  1.0345 -0.0754 -0.8472
  995MOL0     H34277   7.699   2.474   2.374  2.1481  0.9561 -2.7027
  995MOL0     H34278   7.590   2.409   2.265 -1.1726 -0.8448  0.0820
  995MOL0     H34279   7.680   2.267   2.516  0.1257  0.5973  0.6620
  995MOL0     H34280   7.587   2.191   2.386 -1.2807  1.3067 -2.2046
  995MOL0     H34281   7.506   2.414   2.580 -3.7107 -0.1803  1.8238
  995MOL0     H34282   7.438   2.255   2.565  0.5639  0.5259  1.1168
  995MOL0     H34283   7.311   2.316   2.365 -0.2967 -1.4687  2.4450
  995MOL0     H34284   7.401   2.473   2.358  1.7951 -1.2340 -1.2724
  995MOL0     H34285   7.072   2.543   2.638 -1.1554  0.6344  0.9194
  995MOL0     H34286   6.868   2.634   2.694 -0.3521 -1.3236 -0.2324
  995MOL0     H34287   6.865   2.793   2.618  2.5748 -0.5840  1.8222
  995MOL0     H34288   6.754   2.661   2.565 -0.0556  2.2685  1.2601
  995MOL0     H34289   6.514   2.791   2.473  2.7752 -0.8591  0.0180
  995MOL0     H34290   6.318   2.916   2.418 -0.2208  1.1984  0.2524
  995MOL0     H34291   6.152   3.004   2.342 -0.7813  1.1466  0.0543
  995MOL0     H34292   6.203   3.148   2.429 -1.1860 -0.3271 -0.3064
  995MOL0     H34293   6.069   3.151   2.161 -1.4946 -1.6949 -0.0140
  995MOL0     H34294   5.965   3.144   2.306 -1.0508  1.4159 -1.9963
  995MOL0     H34295   5.982   3.359   2.191  1.3580  0.0566 -1.2767
  995MOL0     H34296   6.150   3.379   2.259  0.0999  0.5470  0.0823
  995MOL0     H34297   5.912   3.322   2.427  0.1743  0.6311  0.2939
  995MOL0     H34298   6.066   3.325   2.502  1.5522  0.4877 -1.4665
  995MOL0     H34299   5.946   3.534   2.542 -0.6475 -0.9252  0.4286
  995MOL0     H34300   5.965   3.572   2.369 -0.3460  0.3846  1.1821
  995MOL0     H34301   6.196   3.518   2.555 -0.1323 -1.7693 -1.6306
  995MOL0     H34302   6.207   3.543   2.379  1.2845  3.5556 -1.3155
  995MOL0     H34303   6.126   3.757   2.584  1.4969 -0.0600  0.5654
  995MOL0     H34304   6.059   3.758   2.421 -0.4903 -2.9080 -1.0365
  995MOL0     H34305   6.310   3.753   2.335  0.7888 -0.6785 -0.0358
  995MOL0     H34306   6.341   3.729   2.496 -1.7400 -0.0498  1.5282
  995MOL0     H34307   6.550   3.184   2.170  0.3960  1.0927  3.0165
  995MOL0     H34308   6.750   3.043   2.225  0.5933  0.1329  0.7753
  995MOL0     H34309   7.071   2.699   2.171  2.0458 -1.3206 -0.5215
  995MOL0     H34310   7.244   2.570   2.242  0.4216  1.4000  0.4525
  995MOL0     H34311   8.987   2.544   2.518  0.4855 -0.1323 -1.5059
  995MOL0     H34312   9.214   2.590   2.611  2.9977 -0.1988 -1.6844
  995MOL0     H34313   9.608   2.768   2.710  1.1013  0.2467 -2.0794
  995MOL0     H34314   9.817   2.794   2.846  2.3712 -0.7575 -0.5430
  995MOL0     H34315   9.869   2.478   3.106 -1.9730  1.0515 -0.7614
  995MOL0     H34316   9.988   2.386   2.999 -0.3440  0.6138  1.1085
  995MOL0     H34317  10.057   2.630   3.146 -1.9096  0.5471 -0.9402
  995MOL0     H34318  10.165   2.531   3.049 -0.6602 -2.0155 -0.7905
  995MOL0     H34319  10.210   2.391   3.222  0.1521  1.3288 -0.6471
  995MOL0     H34320  10.043   2.367   3.263  1.7799 -1.9686  0.3052
  995MOL0     H34321  10.220   2.595   3.351 -0.9139  1.4328 -1.5235
  995MOL0     H34322  10.161   2.469   3.460 -1.8348  0.3917  0.4308
  995MOL0     H34323   9.801   2.710   3.391  0.5079  1.7349  0.9636
  995MOL0     H34324   9.826   2.360   2.863 -1.5035 -0.7512 -1.5764
  995MOL0     H34325   9.628   2.334   2.758  1.9469 -0.5816  1.1563
  996MOL0     O34326   8.162   0.123   5.698  0.3627  0.4064 -0.5486
  996MOL0     C34327   8.235   0.080   5.776 -0.6438  0.0599  0.4494
  996MOL0     O34328   8.204   0.042   5.906  0.5231  0.0657 -0.1611
  996MOL0     C34329   8.075   0.050   5.936  0.3711  0.2053  0.0214
  996MOL0     C34330   7.978  -0.032   5.883  0.4644 -0.3030  0.4941
  996MOL0     C34331   7.847  -0.031   5.923 -0.1599  0.1573 -0.1153
  996MOL0     C34332   7.808   0.067   6.018  0.5845 -0.6496  0.1479
  996MOL0     O34333   7.680   0.072   6.072 -0.2274 -0.7814  0.1900
  996MOL0     C34334   7.654   0.136   6.194  0.1514 -0.3255  0.5811
  996MOL0     C34335   7.520   0.076   6.252  0.9014 -0.7538  1.6784
  996MOL0     C34336   7.385   0.144   6.204  0.4963  0.4988 -0.5208
  996MOL0     C34337   7.268   0.057   6.258  0.4369  0.1679  0.8110
  996MOL0     C34338   7.126   0.086   6.236  0.4843  0.0431  0.0270
  996MOL0     C34339   7.091   0.054   6.084  0.2853 -0.2503  0.4219
  996MOL0     C34340   6.947   0.085   6.042  0.2720  0.0564 -0.6604
  996MOL0     C34341   6.857  -0.031   6.093  0.4807  0.5959 -0.0047
  996MOL0     N34342   6.720  -0.021   6.048  0.6839 -0.2904 -0.0797
  996MOL0     C34343   6.615  -0.082   6.115  0.4802 -0.0537  0.5547
  996MOL0     C34344   6.500  -0.034   6.052 -0.3620 -0.1850  0.4602
  996MOL0     C34345   6.356  -0.065   6.054  0.2932  0.3343 -0.2609
  996MOL0     C34346   6.294  -0.019   6.186  0.7082  1.1091 -0.0636
  996MOL0     C34347   6.274   0.127   6.189  0.0569 -0.5510 -0.4388
  996MOL0     C34348   6.189   0.192   6.079  0.2277 -0.8356 -0.4012
  996MOL0     O34349   6.085   0.111   6.030  0.5247  0.4396  0.3179
  996MOL0     C34350   5.956   0.143   6.064  0.4974 -0.3228  0.3943
  996MOL0     C34351   5.857   0.098   5.981  0.1928 -0.0430  0.0434
  996MOL0     C34352   5.721   0.097   6.024  0.2606  0.8178  0.3253
  996MOL0     C34353   5.625   0.045   5.922 -0.4479  0.1997 -0.0478
  996MOL0     C34354   5.681   0.156   6.151  0.0077  0.0602  0.9098
  996MOL0     C34355   5.540   0.158   6.200  0.2813 -0.0700  0.1985
  996MOL0     O34356   5.430   0.145   6.122  0.6731 -0.5792  0.0320
  996MOL0     C34357   5.310   0.180   6.169  0.2585  0.6129 -0.1266
  996MOL0     C34358   5.221   0.077   6.196 -1.0651  0.2489 -0.8795
  996MOL0     C34359   5.093   0.111   6.246  0.0376  0.6529 -0.1794
  996MOL0     C34360   5.046   0.240   6.250 -0.0973  0.1236 -0.2100
  996MOL0     O34361   4.924   0.254   6.311 -0.1051 -0.3116  0.1845
  996MOL0     C34362   4.897   0.354   6.412 -0.7449 -0.0260  0.1775
  996MOL0     C34363   4.749   0.342   6.462 -0.1775  0.1817  0.5406
  996MOL0     C34364   4.646   0.314   6.358  0.6937  0.0582 -0.3236
  996MOL0     C34365   4.503   0.316   6.417  0.1160 -0.6102  1.3693
  996MOL0     C34366   4.403   0.283   6.305 -0.1714  0.7430 -0.3704
  996MOL0     C34367   4.258   0.317   6.347  0.4718 -0.1073 -0.5488
  996MOL0     C34368   4.152   0.311   6.230 -0.5235 -0.3512  0.1172
  996MOL0     C34369   4.110   0.164   6.203  1.2849 -0.4249 -0.2089
  996MOL0    Cl34370   3.977   0.196   6.078 -0.1781  0.1011 -0.6977
  996MOL0     C34371   5.131   0.338   6.218  0.4617 -0.6704  0.2579
  996MOL0     C34372   5.266   0.314   6.184 -0.3529 -0.6195  0.4037
  996MOL0     O34373   5.537   0.199   6.312  0.5558  0.1159 -0.7223
  996MOL0     C34374   5.792   0.201   6.224  0.1951  0.0289 -1.1080
  996MOL0     C34375   5.923   0.190   6.189 -0.0802  0.4919  0.2129
  996MOL0     N34376   6.537   0.054   5.954  0.7462  0.1252 -0.0206
  996MOL0     N34377   6.664   0.062   5.958  0.1390 -0.2431 -0.1814
  996MOL0     C34378   7.909   0.158   6.062  0.5207 -0.1298  0.1983
  996MOL0     C34379   8.040   0.150   6.022 -0.3398  0.3205 -0.4819
  996MOL0     C34380   8.380   0.070   5.727 -0.3387  0.2095  0.4154
  996MOL0     C34381   8.471  -0.024   5.783 -0.5314  0.3222 -0.3204
  996MOL0     C34382   8.592  -0.039   5.725 -1.1483  0.3588 -0.1965
  996MOL0     C34383   8.651   0.042   5.625  0.8975 -0.2576 -0.3092
  996MOL0     O34384   8.778   0.023   5.600  0.2617  0.0881 -0.0555
  996MOL0     C34385   8.849   0.133   5.545 -0.8394  0.2097 -0.4330
  996MOL0     C34386   9.004   0.118   5.553 -0.4621 -0.0574 -0.3028
  996MOL0     C34387   9.062  -0.007   5.468 -0.6971 -0.7292  0.6648
  996MOL0     C34388   9.215  -0.006   5.467  0.1216 -0.4532 -0.0345
  996MOL0     C34389   9.270  -0.090   5.361  0.3447  0.3845 -0.2042
  996MOL0     C34390   9.325  -0.169   5.289 -0.5551  0.2853  0.0055
  996MOL0     C34391   8.565   0.141   5.577 -0.9127 -0.0405  0.0817
  996MOL0     C34392   8.436   0.155   5.625 -0.4499 -0.2134 -0.2527
  996MOL0     H34393   8.007  -0.098   5.801 -0.4064  1.4491 -1.3096
  996MOL0     H34394   7.772  -0.095   5.877 -0.5225  1.0364 -0.7659
  996MOL0     H34395   7.731   0.117   6.270 -0.0992 -1.5304  0.5604
  996MOL0     H34396   7.643   0.244   6.178  1.8283 -0.3598 -1.0642
  996MOL0     H34397   7.520  -0.028   6.219 -2.0677  0.3639 -2.8441
  996MOL0     H34398   7.520   0.086   6.361  0.6423 -0.8060  1.6844
  996MOL0     H34399   7.375   0.241   6.253  0.1117  0.6186 -0.8338
  996MOL0     H34400   7.372   0.160   6.096 -2.0472  4.9422  0.2011
  996MOL0     H34401   7.274  -0.045   6.219 -0.1109  0.8031 -1.0441
  996MOL0     H34402   7.277   0.038   6.365 -0.6925  1.0122  1.0646
  996MOL0     H34403   7.060   0.025   6.298 -4.9305  1.8265 -3.2782
  996MOL0     H34404   7.099   0.187   6.269 -0.4401 -0.5388  1.1069
  996MOL0     H34405   7.166   0.085   6.010 -1.5170 -0.5895 -1.6615
  996MOL0     H34406   7.096  -0.055   6.080 -0.0481 -0.2609  0.2859
  996MOL0     H34407   6.922   0.184   6.079 -1.5132 -0.8836  0.8002
  996MOL0     H34408   6.945   0.089   5.932 -1.5496  0.7912 -0.6336
  996MOL0     H34409   6.856  -0.027   6.202  0.8828 -2.1640  0.1585
  996MOL0     H34410   6.896  -0.128   6.061  1.6537  0.5947  1.3470
  996MOL0     H34411   6.623  -0.157   6.193  1.7541 -0.1187  0.3769
  996MOL0     H34412   6.310  -0.014   5.969  2.2264  2.8019  0.0666
  996MOL0     H34413   6.353  -0.175   6.055  0.4764  0.3250 -0.6498
  996MOL0     H34414   6.351  -0.047   6.275 -2.4008 -4.4204  0.6941
  996MOL0     H34415   6.202  -0.074   6.208  1.4582 -1.0270 -1.8669
  996MOL0     H34416   6.375   0.167   6.198  0.0382 -0.2883 -1.2437
  996MOL0     H34417   6.211   0.152   6.274  0.3703 -0.5361 -0.2123
  996MOL0     H34418   6.263   0.214   6.001  1.9097  1.6072  1.7228
  996MOL0     H34419   6.146   0.288   6.107 -0.4949 -1.2559 -0.0336
  996MOL0     H34420   5.888   0.051   5.888  1.2014  0.7016 -0.0156
  996MOL0     H34421   5.619  -0.064   5.928  1.6293  0.1180  2.5560
  996MOL0     H34422   5.522   0.081   5.932  0.0604  1.3434  1.4536
  996MOL0     H34423   5.657   0.073   5.822  2.0880 -1.4970  0.2016
  996MOL0     H34424   5.261  -0.023   6.192  0.9425  0.8008  1.8576
  996MOL0     H34425   5.022   0.032   6.267  2.4332 -2.2553 -2.2027
  996MOL0     H34426   4.969   0.343   6.494 -1.2069  1.8620  0.8861
  996MOL0     H34427   4.907   0.457   6.376 -1.9385  0.3416  0.8463
  996MOL0     H34428   4.746   0.258   6.533  0.5420 -0.9738 -0.7466
  996MOL0     H34429   4.712   0.435   6.506 -1.9590  0.6565 -1.7810
  996MOL0     H34430   4.680   0.219   6.317  3.2429  1.4275 -1.6719
  996MOL0     H34431   4.656   0.387   6.276 -1.1911  2.7230  1.6531
  996MOL0     H34432   4.496   0.255   6.508  0.8313  3.0412  4.1252
  996MOL0     H34433   4.490   0.420   6.448  2.0315  0.5294 -1.2566
  996MOL0     H34434   4.406   0.175   6.286 -1.3108  0.3580  1.3847
  996MOL0     H34435   4.421   0.328   6.207 -1.5041  1.5139 -0.2774
  996MOL0     H34436   4.226   0.258   6.434 -1.2638 -0.5613 -1.4522
  996MOL0     H34437   4.263   0.423   6.375 -2.6192  0.6966 -2.5597
  996MOL0     H34438   4.197   0.353   6.139  1.9277  1.3997  1.9857
  996MOL0     H34439   4.063   0.372   6.248 -1.9923 -2.0773 -0.9324
  996MOL0     H34440   4.070   0.126   6.298  1.7226 -0.5993 -0.0901
  996MOL0     H34441   4.201   0.114   6.168  2.4384  1.8556 -0.6828
  996MOL0     H34442   5.089   0.438   6.222  0.1024 -0.8341  0.6771
  996MOL0     H34443   5.336   0.391   6.152  1.0144 -2.5127 -1.4697
  996MOL0     H34444   5.776   0.237   6.325 -0.3606 -0.6262 -0.9590
  996MOL0     H34445   5.997   0.208   6.266  1.4912 -0.2547 -1.0726
  996MOL0     H34446   7.879   0.235   6.133 -1.1798 -0.0063 -0.6031
  996MOL0     H34447   8.120   0.217   6.051 -1.3125  1.1220  0.3957
  996MOL0     H34448   8.443  -0.079   5.872 -2.5502  0.0756 -1.0400
  996MOL0     H34449   8.663  -0.118   5.752  0.3916  2.1515  1.2787
  996MOL0     H34450   8.830   0.139   5.437  2.3304  0.1978 -1.0917
  996MOL0     H34451   8.829   0.228   5.596  0.9192  0.7269 -0.6381
  996MOL0     H34452   9.040   0.107   5.656  1.2018 -3.5513 -1.0988
  996MOL0     H34453   9.041   0.211   5.509  0.1478 -1.0517 -1.9777
  996MOL0     H34454   9.026  -0.002   5.365 -2.6466 -1.6096  1.2506
  996MOL0     H34455   9.022  -0.098   5.513 -2.9318 -0.9542 -1.5387
  996MOL0     H34456   9.247  -0.035   5.567  1.6880  2.3869  0.4125
  996MOL0     H34457   9.257   0.094   5.453  0.9592 -0.9772 -1.4799
  996MOL0     H34458   9.380  -0.228   5.219 -3.5871 -0.9848 -1.4600
  996MOL0     H34459   8.604   0.201   5.496  0.3012  1.4358  1.7017
  996MOL0     H34460   8.380   0.234   5.576 -1.3754  0.2545  1.4659
  997MOL0     O34461   6.681   0.016   7.597 -0.8408  0.6069  0.4425
  997MOL0     C34462   6.738   0.037   7.707  0.8045  0.3940  0.3818
  997MOL0     O34463   6.670   0.061   7.821  0.3732 -0.0992  0.9238
  997MOL0     C34464   6.543   0.101   7.828  0.1494 -0.5173 -0.0673
  997MOL0     C34465   6.443   0.057   7.733 -0.3052  0.2212 -0.7092
  997MOL0     C34466   6.317   0.125   7.736 -0.0884 -0.4107 -0.3798
  997MOL0     C34467   6.280   0.220   7.830 -0.3453 -0.1574  1.3016
  997MOL0     O34468   6.167   0.289   7.835 -0.0506  0.2415 -0.1665
  997MOL0     C34469   6.055   0.224   7.779 -0.0792  0.1094  0.6588
  997MOL0     C34470   5.929   0.292   7.852  0.5368  0.0089  0.2840
  997MOL0     C34471   5.803   0.250   7.783 -0.8634 -0.9343 -1.0283
  997MOL0     C34472   5.757   0.114   7.829 -0.4601  0.2830  0.6094
  997MOL0     C34473   5.634   0.069   7.747  0.4654  0.4432 -0.2919
  997MOL0     C34474   5.504   0.135   7.792  0.0566 -0.1436  0.7636
  997MOL0     C34475   5.437   0.087   7.923  0.0597  0.5658 -0.1436
  997MOL0     C34476   5.346   0.194   7.983 -0.2405  0.4886  0.8124
  997MOL0     N34477   5.240   0.219   7.889  0.5872 -0.0873  0.2892
  997MOL0     C34478   5.128   0.145   7.878  0.5601 -0.3021 -0.1165
  997MOL0     C34479   5.050   0.207   7.783  0.1692  0.7021 -0.1164
  997MOL0     C34480   4.914   0.167   7.738 -0.6628  0.2208 -0.1169
  997MOL0     C34481   4.809   0.231   7.831  0.2733  0.7134  0.5185
  997MOL0     C34482   4.672   0.229   7.760  1.3151  0.0273  1.0484
  997MOL0     C34483   4.554   0.228   7.853 -0.6691 -0.3555  0.2194
  997MOL0     O34484   4.445   0.219   7.769  0.3361 -0.5343 -0.3455
  997MOL0     C34485   4.324   0.205   7.825  0.2645 -0.1427  0.7117
  997MOL0     C34486   4.220   0.186   7.732 -1.1774  0.3033 -0.1470
  997MOL0     C34487   4.087   0.156   7.772  0.2953  0.0007 -0.2136
  997MOL0     C34488   3.992   0.144   7.653  0.0934 -0.0387  0.0103
  997MOL0     C34489   4.058   0.134   7.905 -0.2297  0.7555 -0.7122
  997MOL0     C34490   3.923   0.108   7.966  0.3987  0.0823  0.1000
  997MOL0     O34491   3.925   0.137   8.094  0.1764 -0.2887  0.3811
  997MOL0     C34492   3.819   0.115   8.174 -0.3652  0.5671 -0.2751
  997MOL0     C34493   3.772  -0.013   8.201 -0.7495  0.2834  0.6572
  997MOL0     C34494   3.667  -0.035   8.283  0.3447 -0.2607  0.2903
  997MOL0     C34495   3.591   0.069   8.325 -0.6781 -0.7085 -0.8445
  997MOL0     O34496   3.474   0.046   8.395 -0.7038  0.4300  0.4576
  997MOL0     C34497   3.482   0.079   8.532  0.1834  0.4303  0.0975
  997MOL0     C34498   3.611   0.037   8.606  0.4294 -0.2083  0.1891
  997MOL0     C34499   3.585  -0.007   8.749  0.3417 -0.0595 -0.3086
  997MOL0     C34500   3.569   0.116   8.843 -0.1216 -0.2110 -0.0863
  997MOL0     C34501   3.517   0.056   8.975 -0.2490 -0.3518 -0.4272
  997MOL0     C34502   3.498   0.180   9.071  0.5214 -0.4489  0.3772
  997MOL0     C34503   3.443   0.139   9.206 -0.0700  0.5745  0.2375
  997MOL0     C34504   3.484   0.238   9.319 -0.2565 -0.2206  0.3575
  997MOL0    Cl34505   3.385   0.202   9.455  0.0107 -0.5513  0.1917
  997MOL0     C34506   3.634   0.201   8.296 -0.2898  0.1455 -0.3335
  997MOL0     C34507   3.744   0.220   8.221 -0.1629  0.1719  0.4259
  997MOL0     O34508   3.828   0.059   7.905 -0.5355  0.5546 -0.3810
  997MOL0     C34509   4.165   0.153   7.994 -0.3403 -0.4096 -1.1459
  997MOL0     C34510   4.295   0.186   7.959  0.0147 -0.9150  0.2897
  997MOL0     N34511   5.113   0.323   7.750 -0.4264 -0.3829  0.0128
  997MOL0     N34512   5.234   0.324   7.802  0.2911 -0.3930  0.5493
  997MOL0     C34513   6.383   0.249   7.930  0.0085  0.2051  0.5624
  997MOL0     C34514   6.506   0.190   7.925  0.0016 -0.6981 -0.8801
  997MOL0     C34515   6.889   0.033   7.708  0.9842 -0.0754  0.2232
  997MOL0     C34516   6.963   0.002   7.596 -1.1792 -0.0032  0.2359
  997MOL0     C34517   7.099  -0.009   7.605 -0.3391  0.3181 -1.0012
  997MOL0     C34518   7.169   0.017   7.726 -0.9793  0.1453 -0.3858
  997MOL0     O34519   7.302   0.000   7.741 -0.0309 -0.4972 -0.3144
  997MOL0     C34520   7.380   0.081   7.819  0.1587 -0.6200  0.1512
  997MOL0     C34521   7.529   0.074   7.783  0.2147 -0.0849 -0.2087
  997MOL0     C34522   7.608  -0.054   7.803  0.6605 -0.7375 -0.2301
  997MOL0     C34523   7.740  -0.051   7.735  0.8793 -0.0162  0.5460
  997MOL0     C34524   7.716  -0.064   7.586 -0.4293  0.1250  0.2389
  997MOL0     C34525   7.704  -0.068   7.468  0.0227 -0.5705  0.4534
  997MOL0     C34526   7.097   0.067   7.834 -0.2398  0.3198  0.8179
  997MOL0     C34527   6.958   0.073   7.824  0.1309  0.3624  0.1882
  997MOL0     H34528   6.467  -0.019   7.659  0.7420 -2.8650  2.4963
  997MOL0     H34529   6.246   0.095   7.660  0.3864 -2.6578 -0.0090
  997MOL0     H34530   6.045   0.245   7.672  2.3060 -1.8292 -0.0472
  997MOL0     H34531   6.072   0.118   7.800  2.9041  0.9668  3.3370
  997MOL0     H34532   5.937   0.245   7.950  1.5227 -0.4056  0.0222
  997MOL0     H34533   5.937   0.401   7.846  0.0442  0.0526  0.4551
  997MOL0     H34534   5.732   0.332   7.797  0.3231 -0.0227 -0.2024
  997MOL0     H34535   5.824   0.248   7.676  0.7186 -0.6674 -0.7427
  997MOL0     H34536   5.842   0.046   7.831 -0.9651 -0.5626 -2.0278
  997MOL0     H34537   5.721   0.116   7.932  0.4362 -2.3534  1.0441
  997MOL0     H34538   5.654   0.084   7.640  0.5423 -0.6963 -0.4518
  997MOL0     H34539   5.625  -0.040   7.754  0.0420  0.5129  0.3586
  997MOL0     H34540   5.525   0.241   7.810 -2.1078  0.0075  2.7564
  997MOL0     H34541   5.438   0.111   7.709  0.5316 -0.2379  0.4056
  997MOL0     H34542   5.389  -0.009   7.900  2.0538 -0.1136 -1.8382
  997MOL0     H34543   5.509   0.067   8.003  1.1374 -0.2127 -1.2644
  997MOL0     H34544   5.403   0.287   7.994  1.4878 -0.6271  1.8541
  997MOL0     H34545   5.290   0.168   8.073 -1.2078  2.5249  0.8518
  997MOL0     H34546   5.111   0.050   7.928  0.5715  0.6110  1.6791
  997MOL0     H34547   4.892   0.194   7.635 -0.4985  0.8986  0.0198
  997MOL0     H34548   4.913   0.057   7.736 -2.3829  0.2205 -2.1895
  997MOL0     H34549   4.844   0.332   7.852  2.9651 -0.1890  0.7147
  997MOL0     H34550   4.805   0.177   7.926  1.8734  2.5988  1.7250
  997MOL0     H34551   4.662   0.144   7.692 -0.2914 -0.6649  2.0975
  997MOL0     H34552   4.671   0.320   7.698 -3.1516  0.1283  0.9620
  997MOL0     H34553   4.549   0.317   7.916  1.6603  1.1751 -1.6160
  997MOL0     H34554   4.563   0.135   7.911 -0.2894  0.4949  1.5736
  997MOL0     H34555   4.254   0.194   7.630 -0.3812 -0.0004  0.0863
  997MOL0     H34556   4.052   0.119   7.565 -0.0220 -0.0308 -0.0705
  997MOL0     H34557   3.902   0.082   7.666 -0.0123  0.3625  1.3087
  997MOL0     H34558   3.946   0.243   7.644  1.0325  0.6148  1.8694
  997MOL0     H34559   3.822  -0.101   8.159 -0.4258  1.0351 -0.5740
  997MOL0     H34560   3.638  -0.137   8.306 -0.0710 -0.5393 -1.3271
  997MOL0     H34561   3.467   0.186   8.547 -0.1455  1.1037 -3.9851
  997MOL0     H34562   3.396   0.035   8.583  1.3218 -1.0090  0.8391
  997MOL0     H34563   3.639  -0.055   8.554 -1.9251 -1.1416  0.4361
  997MOL0     H34564   3.694   0.109   8.602  0.1459  0.0524 -2.0758
  997MOL0     H34565   3.667  -0.071   8.784  0.4946  0.8713  1.0832
  997MOL0     H34566   3.494  -0.067   8.751  1.6593 -2.1615  0.9045
  997MOL0     H34567   3.664   0.169   8.858 -0.8566  0.4822  2.5556
  997MOL0     H34568   3.497   0.191   8.808  0.5787 -1.1326 -3.9262
  997MOL0     H34569   3.581  -0.018   9.024  1.5346  0.5438 -1.3153
  997MOL0     H34570   3.425   0.001   8.953  0.2045 -2.6701  2.6842
  997MOL0     H34571   3.595   0.228   9.087 -1.3476  3.8527  0.1707
  997MOL0     H34572   3.428   0.255   9.034 -2.1232 -2.7251  0.4202
  997MOL0     H34573   3.469   0.038   9.240 -2.5470 -0.2025  0.0150
  997MOL0     H34574   3.334   0.135   9.202 -0.0425  0.2184 -3.3379
  997MOL0     H34575   3.459   0.340   9.290  1.3905 -0.0309 -0.5152
  997MOL0     H34576   3.590   0.226   9.345 -0.6916 -1.5926  1.6981
  997MOL0     H34577   3.578   0.289   8.325  1.3683  1.1487 -0.0258
  997MOL0     H34578   3.772   0.322   8.196 -2.0115  0.4249 -0.8039
  997MOL0     H34579   4.151   0.137   8.100 -0.2541 -1.4975 -1.2943
  997MOL0     H34580   4.367   0.194   8.040 -1.3970 -3.3006  1.9061
  997MOL0     H34581   6.364   0.326   8.004  0.4020  0.0002  0.8797
  997MOL0     H34582   6.587   0.231   7.985 -0.0337  3.9560 -3.5311
  997MOL0     H34583   6.915  -0.030   7.504 -1.4877  3.0926 -0.7792
  997MOL0     H34584   7.154  -0.055   7.523  0.4449  1.0379 -0.8983
  997MOL0     H34585   7.345   0.184   7.801  0.6530 -0.7480 -1.7273
  997MOL0     H34586   7.373   0.051   7.923  2.5699 -1.4879  0.1259
  997MOL0     H34587   7.577   0.154   7.840 -0.1907  1.1912 -1.5960
  997MOL0     H34588   7.532   0.106   7.678 -1.1307  0.4594 -0.1031
  997MOL0     H34589   7.535  -0.129   7.772 -0.4225 -0.0624  0.6328
  997MOL0     H34590   7.625  -0.073   7.909 -0.6184  2.0907  0.5796
  997MOL0     H34591   7.796  -0.138   7.770 -0.6817 -0.3021  2.5212
  997MOL0     H34592   7.802   0.036   7.759  0.5123 -0.0459  1.6440
  997MOL0     H34593   7.691  -0.073   7.362  1.2660  1.0583  0.1852
  997MOL0     H34594   7.149   0.101   7.923 -0.6066  1.2156  0.6963
  997MOL0     H34595   6.906   0.111   7.911 -1.0164 -2.1026  0.6904
  998MOL0     O34596   3.954   4.314   2.582  0.3048  0.8755  0.0814
  998MOL0     C34597   3.973   4.423   2.629 -0.1909 -0.5168  0.1413
  998MOL0     O34598   3.884   4.501   2.699 -0.8599 -0.6109 -0.5672
  998MOL0     C34599   3.756   4.457   2.735  0.0481  0.8326 -0.3380
  998MOL0     C34600   3.641   4.467   2.662 -0.3171  0.0652  0.2663
  998MOL0     C34601   3.517   4.437   2.711 -0.0467  0.7206 -0.1815
  998MOL0     C34602   3.496   4.401   2.843  1.1039  0.6555  0.2804
  998MOL0     O34603   3.368   4.377   2.893 -0.4177 -0.2205  0.2329
  998MOL0     C34604   3.254   4.453   2.850  0.2615  0.4662 -0.0464
  998MOL0     C34605   3.128   4.353   2.862 -0.1577 -0.6032 -0.0217
  998MOL0     C34606   3.100   4.267   2.736  0.7335 -0.1683 -0.3990
  998MOL0     C34607   2.984   4.177   2.759 -0.0059 -0.6026  0.7882
  998MOL0     C34608   2.941   4.072   2.649  0.3457  0.2470 -0.2428
  998MOL0     C34609   2.820   3.986   2.691  0.2430 -0.3998  0.0819
  998MOL0     C34610   2.769   3.879   2.588 -0.3021  0.3000  0.4465
  998MOL0     C34611   2.636   3.827   2.626  0.1000  0.3307 -0.3093
  998MOL0     N34612   2.588   3.719   2.540 -0.5411  0.6750  0.9174
  998MOL0     C34613   2.572   3.579   2.566  0.3115  0.2248 -0.0345
  998MOL0     C34614   2.526   3.535   2.441 -0.9264  0.4763  0.4935
  998MOL0     C34615   2.489   3.392   2.418  0.0995 -0.3689  0.4902
  998MOL0     C34616   2.341   3.380   2.377 -0.7432  0.9766  0.6397
  998MOL0     C34617   2.307   3.236   2.321  0.8892  0.2345 -0.7161
  998MOL0     C34618   2.163   3.199   2.291 -0.1062 -0.1742  0.9572
  998MOL0     O34619   2.102   3.299   2.211  0.0930 -0.2181 -0.6014
  998MOL0     C34620   1.965   3.304   2.209 -0.0741  0.0390  0.1032
  998MOL0     C34621   1.912   3.432   2.191 -0.3128 -0.3412  0.1319
  998MOL0     C34622   1.774   3.453   2.186  0.1205 -0.3872 -0.7892
  998MOL0     C34623   1.742   3.601   2.166 -0.3541 -0.8589 -0.0268
  998MOL0     C34624   1.681   3.349   2.205  0.6482 -0.9606 -0.2228
  998MOL0     C34625   1.535   3.361   2.169 -0.2259 -0.4095 -0.3297
  998MOL0     O34626   1.468   3.246   2.130  0.0941 -0.1793 -0.1776
  998MOL0     C34627   1.334   3.270   2.092  0.1119 -0.3126  0.1780
  998MOL0     C34628   1.291   3.249   1.960 -0.3771 -0.1002  1.0219
  998MOL0     C34629   1.169   3.271   1.911  0.1202 -0.1598  0.4190
  998MOL0     C34630   1.067   3.329   1.998 -0.0209 -0.4869  0.6344
  998MOL0     O34631   0.939   3.357   1.956  0.1702  0.6729  0.3251
  998MOL0     C34632   0.914   3.349   1.811  0.6227 -0.4511  0.6005
  998MOL0     C34633   0.773   3.416   1.790 -0.3354  0.7234 -0.6421
  998MOL0     C34634   0.714   3.390   1.654 -0.4030 -0.2504 -0.8820
  998MOL0     C34635   0.576   3.447   1.645 -0.1983  1.1330  0.5616
  998MOL0     C34636   0.498   3.348   1.559 -0.7383  0.5577  0.4307
  998MOL0     C34637   0.349   3.381   1.563 -0.5641 -0.1615 -0.5620
  998MOL0     C34638   0.330   3.532   1.533 -0.2643  0.5651 -0.1901
  998MOL0     C34639   0.195   3.554   1.480 -0.0103 -0.6905 -0.4377
  998MOL0    Cl34640   0.069   3.538   1.599 -0.1866 -0.0425  0.0267
  998MOL0     C34641   1.107   3.341   2.136 -0.0339 -0.4304 -0.9899
  998MOL0     C34642   1.238   3.318   2.179  1.1003 -0.3896  0.3140
  998MOL0     O34643   1.485   3.472   2.172  0.0127 -0.2818  0.0404
  998MOL0     C34644   1.734   3.222   2.208 -0.8987  0.2679  0.2674
  998MOL0     C34645   1.874   3.201   2.213 -0.2889 -0.1424  0.3036
  998MOL0     N34646   2.505   3.650   2.360  0.2592  0.1613  0.6028
  998MOL0     N34647   2.547   3.753   2.417  0.1975 -0.1858 -0.1696
  998MOL0     C34648   3.608   4.380   2.923  0.0409 -0.2481  0.1840
  998MOL0     C34649   3.734   4.420   2.869  0.0957  0.0614  0.6215
  998MOL0     C34650   4.111   4.477   2.610  0.1452  0.4107  0.8594
  998MOL0     C34651   4.211   4.405   2.539 -0.4926  0.0366  0.3421
  998MOL0     C34652   4.340   4.451   2.517 -0.4594  0.0829 -0.6886
  998MOL0     C34653   4.377   4.581   2.558 -0.8892 -0.0599  0.6006
  998MOL0     O34654   4.503   4.615   2.513  0.2471  0.5483 -0.9954
  998MOL0     C34655   4.573   4.726   2.560  0.3164 -0.8667  0.2786
  998MOL0     C34656   4.682   4.672   2.655  0.9443 -1.0527  0.0816
  998MOL0     C34657   4.789   4.572   2.604 -0.3042 -0.8091  0.0034
  998MOL0     C34658   4.889   4.533   2.717 -0.0867  0.3379  0.5618
  998MOL0     C34659   4.999   4.446   2.663 -0.0730 -0.1368 -0.1522
  998MOL0     C34660   5.071   4.382   2.595 -0.5669  0.6185 -0.0223
  998MOL0     C34661   4.281   4.651   2.632  0.2538 -0.0476 -0.8895
  998MOL0     C34662   4.147   4.605   2.657  0.0212  0.0871  0.0161
  998MOL0     H34663   3.647   4.514   2.565 -0.5864 -0.1861  0.1259
  998MOL0     H34664   3.434   4.445   2.642  0.3411  0.3408 -0.6994
  998MOL0     H34665   3.247   4.536   2.921  2.3629  1.0167 -0.4363
  998MOL0     H34666   3.266   4.500   2.753 -0.1447  0.0415 -0.3091
  998MOL0     H34667   3.141   4.285   2.946  1.5172  1.3968  1.4251
  998MOL0     H34668   3.035   4.398   2.898  0.1760 -1.1676  1.6000
  998MOL0     H34669   3.079   4.332   2.651  0.1151  1.3513  0.8617
  998MOL0     H34670   3.183   4.197   2.719 -0.6640 -2.4968  1.6098
  998MOL0     H34671   2.998   4.108   2.843  1.5447 -1.4857 -0.1557
  998MOL0     H34672   2.895   4.238   2.778 -0.0118 -0.4710  0.3425
  998MOL0     H34673   2.904   4.129   2.563 -1.5195  0.2083  0.4897
  998MOL0     H34674   3.025   4.004   2.631 -0.6480 -1.3471  0.8061
  998MOL0     H34675   2.837   3.924   2.779 -0.6686 -1.5957 -0.5603
  998MOL0     H34676   2.736   4.052   2.714  0.7302  0.0571  0.5819
  998MOL0     H34677   2.772   3.921   2.487  0.7681  1.3556  0.8884
  998MOL0     H34678   2.835   3.792   2.587  2.9454  2.5243 -1.7860
  998MOL0     H34679   2.567   3.912   2.626 -0.2558  0.1199 -3.3336
  998MOL0     H34680   2.646   3.792   2.730  3.1484 -0.2850 -0.7165
  998MOL0     H34681   2.611   3.525   2.651  1.6070  0.4237 -0.4778
  998MOL0     H34682   2.545   3.348   2.335 -1.6472 -2.4083  0.3074
  998MOL0     H34683   2.501   3.329   2.507  1.2669 -0.4510  0.2946
  998MOL0     H34684   2.314   3.453   2.300  1.5667  3.1803  1.7794
  998MOL0     H34685   2.281   3.400   2.466 -2.2108  1.4726 -0.4272
  998MOL0     H34686   2.345   3.156   2.386 -0.8307 -0.4469 -0.4646
  998MOL0     H34687   2.347   3.226   2.220  0.3645  0.4762 -0.9491
  998MOL0     H34688   2.123   3.176   2.390  2.8977 -0.0129  2.3066
  998MOL0     H34689   2.169   3.103   2.240  1.4304 -1.1272  2.7710
  998MOL0     H34690   1.982   3.514   2.181 -0.2010 -0.2647  1.3440
  998MOL0     H34691   1.777   3.657   2.253 -0.0502  0.0542 -0.7199
  998MOL0     H34692   1.798   3.634   2.078 -1.1777  1.5543  0.2817
  998MOL0     H34693   1.644   3.634   2.132  0.5906  2.2364 -0.0172
  998MOL0     H34694   1.368   3.213   1.893 -0.3656  3.3788 -1.0508
  998MOL0     H34695   1.139   3.247   1.810 -2.8056  1.1795  0.8757
  998MOL0     H34696   0.988   3.407   1.754 -1.9051  0.3834 -2.1068
  998MOL0     H34697   0.909   3.247   1.774 -0.0164 -0.0413 -0.4919
  998MOL0     H34698   0.711   3.362   1.862  0.7642  1.7795  1.1597
  998MOL0     H34699   0.765   3.522   1.816 -5.0605  0.3088  0.5876
  998MOL0     H34700   0.721   3.281   1.649  1.1131 -0.4063  2.0693
  998MOL0     H34701   0.775   3.428   1.571  1.4033 -0.9805  0.0490
  998MOL0     H34702   0.523   3.443   1.741  0.4578 -0.6128  0.8793
  998MOL0     H34703   0.584   3.551   1.611  1.2631  2.0832  3.4469
  998MOL0     H34704   0.500   3.245   1.597 -3.6143  0.8632  1.6310
  998MOL0     H34705   0.543   3.355   1.459  0.3401 -2.0031  0.6498
  998MOL0     H34706   0.300   3.321   1.486 -2.4027  0.9194 -0.2962
  998MOL0     H34707   0.316   3.355   1.664  3.0004 -1.8709  0.3242
  998MOL0     H34708   0.402   3.573   1.461  2.2593 -2.0625  0.6653
  998MOL0     H34709   0.335   3.592   1.624  1.2811 -2.4903  1.9132
  998MOL0     H34710   0.188   3.490   1.392  1.1601 -0.9702 -0.3388
  998MOL0     H34711   0.201   3.659   1.448 -0.1928 -0.0687  1.4416
  998MOL0     H34712   1.044   3.387   2.211 -1.8812 -3.2551 -0.6527
  998MOL0     H34713   1.263   3.352   2.279  0.6662 -0.7248  0.5445
  998MOL0     H34714   1.677   3.129   2.208  0.6815 -0.7981 -2.1301
  998MOL0     H34715   1.901   3.096   2.205 -0.6525 -0.1971 -0.2718
  998MOL0     H34716   3.593   4.345   3.025  1.7145  0.6187  0.7638
  998MOL0     H34717   3.818   4.418   2.938 -0.5696  1.1354  1.5034
  998MOL0     H34718   4.194   4.311   2.489 -0.3477  0.8860 -1.3754
  998MOL0     H34719   4.414   4.391   2.465  0.7556  0.2373  0.7656
  998MOL0     H34720   4.611   4.779   2.472 -1.3462  0.9250  0.5848
  998MOL0     H34721   4.513   4.803   2.610 -0.8202 -1.0315 -0.7695
  998MOL0     H34722   4.622   4.619   2.728 -0.9264  0.4834 -0.2736
  998MOL0     H34723   4.732   4.759   2.700  0.6571 -0.0151 -1.5169
  998MOL0     H34724   4.833   4.632   2.523 -0.4375  0.9792  1.2073
  998MOL0     H34725   4.735   4.487   2.562 -1.7140  0.8086 -1.6105
  998MOL0     H34726   4.842   4.482   2.802 -1.1034  0.6738  0.2174
  998MOL0     H34727   4.926   4.629   2.756  0.6934 -0.3924  1.6612
  998MOL0     H34728   5.146   4.321   2.549  0.9801  1.5225  1.1914
  998MOL0     H34729   4.317   4.746   2.670 -0.4437 -0.0015 -0.3429
  998MOL0     H34730   4.089   4.670   2.722  3.2128  0.3059  2.9516
  999MOL0     O34731   4.495   3.623   4.398 -0.2220  0.0130  0.0830
  999MOL0     C34732   4.564   3.716   4.440  0.0228 -1.6658  1.0048
  999MOL0     O34733   4.510   3.832   4.490 -0.4232  0.1689 -0.0599
  999MOL0     C34734   4.374   3.841   4.493  1.0018  0.2484 -0.0938
  999MOL0     C34735   4.286   3.768   4.576  0.1194 -0.2174 -0.1183
  999MOL0     C34736   4.145   3.792   4.574 -0.1038  0.3006 -0.6564
  999MOL0     C34737   4.091   3.890   4.491  0.3107 -0.0851  0.2205
  999MOL0     O34738   3.955   3.896   4.479 -0.3924  0.6243  0.2432
  999MOL0     C34739   3.890   4.024   4.493 -0.6441  0.6370  0.1344
  999MOL0     C34740   3.746   4.011   4.434  0.6007 -0.9117 -0.4396
  999MOL0     C34741   3.649   4.135   4.459  0.9408 -0.7386  0.8095
  999MOL0     C34742   3.507   4.083   4.426 -0.2146 -0.5337 -0.7790
  999MOL0     C34743   3.402   4.179   4.471  0.0126  0.7570  0.2779
  999MOL0     C34744   3.262   4.115   4.436  0.0300 -0.4221  0.1596
  999MOL0     C34745   3.146   4.206   4.484  0.0815  0.7724  1.1456
  999MOL0     C34746   3.016   4.129   4.483  0.4480 -0.2357 -0.2031
  999MOL0     N34747   2.901   4.217   4.532 -0.9004 -0.2870  0.2529
  999MOL0     C34748   2.873   4.345   4.485  0.3750  0.2798  0.7126
  999MOL0     C34749   2.756   4.382   4.547 -0.4756  0.7046 -0.1900
  999MOL0     C34750   2.673   4.498   4.534  0.1643  0.1616 -0.4819
  999MOL0     C34751   2.536   4.478   4.605  0.2783  1.2098 -0.9062
  999MOL0     C34752   2.453   4.612   4.614  0.0257  0.0425  0.6231
  999MOL0     C34753   2.329   4.578   4.688 -0.4122 -0.3633 -0.4446
  999MOL0     O34754   2.263   4.704   4.713  0.3300 -0.1776  0.3390
  999MOL0     C34755   2.147   4.694   4.770  0.5147 -0.6011 -0.4591
  999MOL0     C34756   2.071   4.812   4.779 -0.0819  0.7564 -0.1480
  999MOL0     C34757   1.941   4.820   4.824  0.1431  0.2328 -0.5600
  999MOL0     C34758   1.871   4.952   4.834 -0.1225 -0.1591 -0.9003
  999MOL0     C34759   1.875   4.701   4.866  0.9497  0.0050 -0.2619
  999MOL0     C34760   1.731   4.693   4.896 -0.2166 -0.1108  0.8736
  999MOL0     O34761   1.640   4.768   4.827  0.2699 -0.1926  0.1741
  999MOL0     C34762   1.508   4.763   4.869 -0.2993 -0.4524 -0.6533
  999MOL0     C34763   1.392   4.724   4.783  0.4537 -0.1021  0.1106
  999MOL0     C34764   1.264   4.714   4.826  0.6671  0.2942 -1.0058
  999MOL0     C34765   1.232   4.761   4.957 -0.0589  0.0364 -0.0571
  999MOL0     O34766   1.108   4.757   5.020  0.1263  0.6835  0.0386
  999MOL0     C34767   1.001   4.700   4.944  0.6776 -1.2395 -0.6734
  999MOL0     C34768   0.878   4.698   5.036 -0.1046 -0.3452  0.0422
  999MOL0     C34769   0.857   4.571   5.118 -0.3330  0.5950 -0.0101
  999MOL0     C34770   0.712   4.580   5.187 -0.9962 -0.4831  0.3497
  999MOL0     C34771   0.610   4.530   5.087 -0.2985  0.5971 -0.7499
  999MOL0     C34772   0.476   4.524   5.161 -0.5633  0.6146  0.0460
  999MOL0     C34773   0.359   4.503   5.057  0.5561 -0.2202 -0.3637
  999MOL0     C34774   0.214   4.515   5.108 -0.0287  0.4576 -0.0119
  999MOL0    Cl34775   0.158   4.360   5.182 -0.4688 -0.3825 -0.0342
  999MOL0     C34776   1.342   4.792   5.041  0.9004  0.0035  0.2330
  999MOL0     C34777   1.471   4.794   5.001 -0.7161 -0.7645  0.2191
  999MOL0     O34778   1.700   4.612   4.980 -0.1276 -0.1618 -0.1145
  999MOL0     C34779   1.953   4.579   4.862 -0.5288 -0.4719  0.1650
  999MOL0     C34780   2.082   4.577   4.821 -0.2889 -0.0781 -0.9575
  999MOL0     N34781   2.720   4.278   4.633  0.6582  0.2521 -0.1368
  999MOL0     N34782   2.808   4.186   4.627  0.1496  0.1200  0.6671
  999MOL0     C34783   4.179   3.971   4.421 -0.4220 -0.7359 -0.4561
  999MOL0     C34784   4.314   3.943   4.420 -0.0334  0.0611  0.0644
  999MOL0     C34785   4.706   3.701   4.453  0.1256 -0.0255  0.2503
  999MOL0     C34786   4.770   3.594   4.384 -0.7117 -0.8082 -0.3327
  999MOL0     C34787   4.906   3.570   4.402  0.3241  0.4005 -0.6924
  999MOL0     C34788   4.987   3.657   4.481  0.6682 -0.7977 -0.2888
  999MOL0     O34789   5.124   3.648   4.507  0.5349  0.2474 -0.3438
  999MOL0     C34790   5.195   3.528   4.456  0.3486  1.1433  0.2960
  999MOL0     C34791   5.284   3.596   4.352  0.1189  0.2713 -0.6753
  999MOL0     C34792   5.389   3.498   4.286 -0.3986 -0.2780  0.0353
  999MOL0     C34793   5.510   3.460   4.386  0.4306  0.1492  0.1367
  999MOL0     C34794   5.601   3.366   4.319  0.7147  0.3898 -0.2593
  999MOL0     C34795   5.680   3.273   4.287 -0.6261 -0.8814 -0.9230
  999MOL0     C34796   4.928   3.771   4.534  0.4396 -0.9352  0.9373
  999MOL0     C34797   4.788   3.786   4.522 -0.1584 -0.2496 -0.1914
  999MOL0     H34798   4.325   3.685   4.634  0.3455  2.0811  3.2959
  999MOL0     H34799   4.071   3.733   4.627 -0.1782 -0.0838 -1.1788
  999MOL0     H34800   3.903   4.049   4.598 -1.6093 -2.4038  1.0929
  999MOL0     H34801   3.933   4.098   4.426 -2.4163  0.5072 -1.2376
  999MOL0     H34802   3.747   3.989   4.327 -1.1310  1.2400 -0.9797
  999MOL0     H34803   3.701   3.921   4.477 -1.3496  0.2863  0.1513
  999MOL0     H34804   3.661   4.172   4.561  2.1959 -0.2210  0.4848
  999MOL0     H34805   3.675   4.213   4.387  0.5140 -2.8570 -1.7859
  999MOL0     H34806   3.507   4.063   4.318 -1.9697  1.9602 -1.3366
  999MOL0     H34807   3.499   3.990   4.482  2.8343 -0.4788 -0.0855
  999MOL0     H34808   3.401   4.193   4.579  0.5069  2.1285  0.1199
  999MOL0     H34809   3.415   4.272   4.414  0.2309 -0.8895 -2.5664
  999MOL0     H34810   3.265   4.108   4.327  1.1494  3.1365 -0.1700
  999MOL0     H34811   3.263   4.014   4.478  0.1626 -0.3947  0.2227
  999MOL0     H34812   3.181   4.235   4.583  3.3585  0.9137  0.0777
  999MOL0     H34813   3.138   4.299   4.427  1.3112  1.1710  1.6068
  999MOL0     H34814   3.019   4.038   4.543 -2.0006 -1.1348 -1.2973
  999MOL0     H34815   2.999   4.085   4.384  1.7974 -0.1642 -0.4815
  999MOL0     H34816   2.938   4.408   4.425  0.1748  0.1307  0.3340
  999MOL0     H34817   2.723   4.584   4.578 -0.7571  0.0914  0.7638
  999MOL0     H34818   2.653   4.525   4.430 -0.4925  1.8693  0.0571
  999MOL0     H34819   2.561   4.443   4.706  1.7647 -0.2194 -1.7077
  999MOL0     H34820   2.487   4.396   4.550  1.3222  1.1025 -1.6949
  999MOL0     H34821   2.435   4.660   4.517 -1.1224 -2.2232 -0.3627
  999MOL0     H34822   2.494   4.687   4.682 -0.8959 -0.9852  2.3721
  999MOL0     H34823   2.359   4.523   4.778 -2.3387  1.3755  1.3833
  999MOL0     H34824   2.267   4.513   4.625  1.8685 -1.7440 -1.4091
  999MOL0     H34825   2.121   4.902   4.744  0.4975  0.8434  0.8644
  999MOL0     H34826   1.837   4.954   4.938  0.4196 -0.0632 -0.7189
  999MOL0     H34827   1.946   5.031   4.822  0.0592 -0.1786  0.0506
  999MOL0     H34828   1.784   4.970   4.770  0.0555  1.3442 -0.7631
  999MOL0     H34829   1.409   4.698   4.679 -1.0714  1.3839 -0.5586
  999MOL0     H34830   1.188   4.686   4.754 -0.9942  1.2280  0.3110
  999MOL0     H34831   0.979   4.760   4.856  0.8959  0.3889  0.3347
  999MOL0     H34832   1.016   4.595   4.916 -0.9555 -2.2518  1.8352
  999MOL0     H34833   0.891   4.784   5.102  1.1683 -1.9227  1.9696
  999MOL0     H34834   0.784   4.723   4.986  0.9856  2.4192 -0.7890
  999MOL0     H34835   0.934   4.576   5.195 -1.2356  0.2402  0.9399
  999MOL0     H34836   0.873   4.483   5.056  1.7274  0.8192  0.1233
  999MOL0     H34837   0.710   4.511   5.272  0.2745  1.0763  1.6946
  999MOL0     H34838   0.696   4.682   5.222 -1.5368 -0.6707  0.6578
  999MOL0     H34839   0.633   4.427   5.057 -1.9832 -1.3366  3.6019
  999MOL0     H34840   0.611   4.591   4.997 -1.0432  1.3440 -0.2750
  999MOL0     H34841   0.464   4.454   5.244 -0.4503  1.1740  0.5442
  999MOL0     H34842   0.466   4.625   5.202 -1.1380  0.2284  0.8779
  999MOL0     H34843   0.370   4.406   5.008 -1.3621 -1.6749  1.8228
  999MOL0     H34844   0.369   4.594   4.998 -0.6933  0.2918  0.1914
  999MOL0     H34845   0.148   4.544   5.026 -1.3755  1.1147  1.2621
  999MOL0     H34846   0.204   4.592   5.185  0.3244  2.5082 -1.9219
  999MOL0     H34847   1.312   4.825   5.140 -2.6712  0.6321 -0.8828
  999MOL0     H34848   1.552   4.813   5.071  0.1867 -0.9036 -0.7752
  999MOL0     H34849   1.897   4.491   4.893 -2.1437 -0.5222 -2.6431
  999MOL0     H34850   2.130   4.480   4.816  0.1976  0.0800  0.2327
  999MOL0     H34851   4.148   4.059   4.365  0.9182  0.9778  1.3728
  999MOL0     H34852   4.378   4.005   4.357 -0.7803  2.0952  1.1981
  999MOL0     H34853   4.719   3.520   4.323  0.4194  0.5723 -3.1142
  999MOL0     H34854   4.947   3.483   4.353 -2.7722 -0.7343 -1.5052
  999MOL0     H34855   5.253   3.474   4.531 -2.3994  1.3013  2.6983
  999MOL0     H34856   5.136   3.447   4.410  2.8878 -0.5997 -0.1229
  999MOL0     H34857   5.335   3.679   4.402 -1.8561  0.1540  1.7341
  999MOL0     H34858   5.219   3.649   4.282 -0.0829  0.0696 -0.6427
  999MOL0     H34859   5.437   3.551   4.203 -1.1591  3.2339  1.6350
  999MOL0     H34860   5.338   3.411   4.245  1.6066 -1.8078  0.6365
  999MOL0     H34861   5.460   3.407   4.467 -0.3884  0.3362 -0.2278
  999MOL0     H34862   5.569   3.547   4.414 -1.8746  2.3081 -1.2043
  999MOL0     H34863   5.753   3.197   4.266  4.7732  3.0300  1.4895
  999MOL0     H34864   4.990   3.837   4.593 -0.6526  1.1589 -0.1216
  999MOL0     H34865   4.750   3.874   4.573 -0.8898 -0.6738  0.0166
 1000MOL0     O34866   6.635   0.914   1.624 -0.2382 -0.0379  0.2170
 1000MOL0     C34867   6.713   0.841   1.559 -0.5447 -0.0410 -0.0305
 1000MOL0     O34868   6.687   0.785   1.436 -0.2454  0.7090 -0.2924
 1000MOL0     C34869   6.585   0.809   1.348  0.2215  0.3602 -0.4777
 1000MOL0     C34870   6.588   0.710   1.245  0.2499 -0.2580 -0.6840
 1000MOL0     C34871   6.482   0.721   1.153 -0.6895 -0.7679  0.0811
 1000MOL0     C34872   6.389   0.826   1.154  0.1728  0.3580 -0.4472
 1000MOL0     O34873   6.280   0.815   1.070 -0.5307  0.5855 -0.4583
 1000MOL0     C34874   6.204   0.935   1.045  0.4584  0.0971 -0.0179
 1000MOL0     C34875   6.115   0.910   0.916  0.3544 -0.3396  0.7033
 1000MOL0     C34876   6.028   1.024   0.867  0.0286  0.1818 -0.2023
 1000MOL0     C34877   5.957   1.002   0.735  0.2465  1.2847 -0.4537
 1000MOL0     C34878   6.040   0.998   0.597  0.5667 -0.5096 -0.4511
 1000MOL0     C34879   6.045   1.147   0.559 -0.2129  0.1538  0.0389
 1000MOL0     C34880   6.076   1.165   0.407  0.2418 -0.2414  0.8481
 1000MOL0     C34881   6.066   1.317   0.369 -0.2029 -0.0261 -0.2688
 1000MOL0     N34882   5.955   1.399   0.414  0.6771  0.2161  0.8129
 1000MOL0     C34883   5.821   1.371   0.392 -0.2692  0.0545  0.2402
 1000MOL0     C34884   5.765   1.480   0.457  0.5437  0.0400  0.1917
 1000MOL0     C34885   5.613   1.502   0.454 -0.2434 -0.5375 -0.2974
 1000MOL0     C34886   5.529   1.413   0.542  1.0906  0.6757 -0.4103
 1000MOL0     C34887   5.518   1.442   0.697  0.4703  0.4685 -0.5189
 1000MOL0     C34888   5.624   1.369   0.766  0.8021  0.4323  0.5333
 1000MOL0     O34889   5.656   1.438   0.885  0.2785 -0.0861  0.0191
 1000MOL0     C34890   5.780   1.410   0.936  0.0320  0.2304  0.4715
 1000MOL0     C34891   5.784   1.340   1.054  0.0412  0.1433 -0.2759
 1000MOL0     C34892   5.896   1.306   1.130  0.8837  0.1145  0.0786
 1000MOL0     C34893   5.873   1.240   1.272  0.0016 -0.8004  0.6191
 1000MOL0     C34894   6.019   1.339   1.065  1.0488 -0.7540 -1.1845
 1000MOL0     C34895   6.155   1.296   1.110 -0.2115 -0.2886  0.5445
 1000MOL0     O34896   6.272   1.340   1.044 -0.0889  0.4452  0.4497
 1000MOL0     C34897   6.389   1.298   1.103  0.0720 -0.5847 -0.3824
 1000MOL0     C34898   6.467   1.211   1.033  0.1090  0.0756 -0.7423
 1000MOL0     C34899   6.583   1.167   1.089  0.2307  0.6618  0.4664
 1000MOL0     C34900   6.635   1.216   1.208 -0.6683 -0.2417 -0.7100
 1000MOL0     O34901   6.764   1.179   1.231 -0.4335 -0.5709 -0.1006
 1000MOL0     C34902   6.808   1.167   1.370  0.6923  0.1521 -0.4533
 1000MOL0     C34903   6.915   1.062   1.381 -0.2526  0.0858 -0.3656
 1000MOL0     C34904   7.053   1.106   1.310 -0.1250 -0.6560 -0.1145
 1000MOL0     C34905   7.168   1.018   1.353 -0.1324 -0.4126 -0.2335
 1000MOL0     C34906   7.262   1.082   1.464  0.4451 -0.0145 -0.1590
 1000MOL0     C34907   7.176   1.115   1.584  0.2373 -0.3928 -0.3929
 1000MOL0     C34908   7.258   1.182   1.702 -0.4452  0.0534 -0.5463
 1000MOL0     C34909   7.178   1.184   1.833 -0.4268 -0.2396  0.6056
 1000MOL0    Cl34910   7.295   1.179   1.969  0.1122 -0.2282  0.2694
 1000MOL0     C34911   6.557   1.311   1.280  0.5981  0.2416 -0.5148
 1000MOL0     C34912   6.428   1.337   1.235 -0.4242  0.3444  0.0706
 1000MOL0     O34913   6.153   1.220   1.205  0.7691  0.6752 -0.7531
 1000MOL0     C34914   6.024   1.403   0.937 -0.1319  0.7349  0.3409
 1000MOL0     C34915   5.907   1.442   0.873 -0.1497  0.1975  0.3421
 1000MOL0     N34916   5.862   1.564   0.513  0.5332 -0.5701 -0.0253
 1000MOL0     N34917   5.970   1.507   0.495 -0.3720  0.1757 -0.3192
 1000MOL0     C34918   6.394   0.930   1.248 -0.1051 -0.2921  0.2723
 1000MOL0     C34919   6.492   0.919   1.349 -0.9939  0.1506  0.3557
 1000MOL0     C34920   6.854   0.822   1.609  1.1093  0.2440 -0.3173
 1000MOL0     C34921   6.955   0.752   1.539 -0.4324 -0.8257 -0.4175
 1000MOL0     C34922   7.086   0.745   1.589  0.3584 -0.0866 -0.0981
 1000MOL0     C34923   7.123   0.798   1.705  0.4322 -0.1462  0.2995
 1000MOL0     O34924   7.250   0.796   1.753 -0.7530 -0.3976 -0.0382
 1000MOL0     C34925   7.313   0.665   1.757 -0.5506 -0.5599 -0.3405
 1000MOL0     C34926   7.431   0.683   1.660  0.5418  0.1797 -0.2591
 1000MOL0     C34927   7.547   0.592   1.697  0.3551  0.8959 -0.3375
 1000MOL0     C34928   7.561   0.452   1.629  0.2229  0.3335  0.4735
 1000MOL0     C34929   7.681   0.386   1.693  0.4322 -0.8706 -0.1721
 1000MOL0     C34930   7.768   0.331   1.761 -0.3498 -1.2561 -0.2806
 1000MOL0     C34931   7.015   0.842   1.789  0.1790 -0.0691  0.0619
 1000MOL0     C34932   6.882   0.857   1.744 -0.4137 -0.0036  0.3632
 1000MOL0     H34933   6.668   0.639   1.263  0.4706  0.6394  2.6801
 1000MOL0     H34934   6.474   0.647   1.074 -1.1102 -1.0051  0.3447
 1000MOL0     H34935   6.142   0.953   1.134 -0.5792  1.6248 -0.9994
 1000MOL0     H34936   6.280   1.013   1.032  0.0750  0.4142 -0.3748
 1000MOL0     H34937   6.186   0.886   0.837 -0.9823  3.2290 -1.8345
 1000MOL0     H34938   6.043   0.829   0.931  0.9163 -1.3104 -1.4505
 1000MOL0     H34939   5.946   1.039   0.938 -0.2927  2.7574 -0.9956
 1000MOL0     H34940   6.078   1.121   0.868  0.3625  0.0099  0.6399
 1000MOL0     H34941   5.910   0.904   0.737  1.3849  0.7268  0.3133
 1000MOL0     H34942   5.862   1.056   0.726 -0.0459  0.6338 -1.4807
 1000MOL0     H34943   6.137   0.948   0.603  0.2486 -0.9771  2.8435
 1000MOL0     H34944   5.968   0.952   0.529 -2.1175  2.2336  0.3090
 1000MOL0     H34945   5.943   1.176   0.585  0.3633 -0.0529  2.9465
 1000MOL0     H34946   6.115   1.203   0.622 -1.1491  2.6665 -1.0284
 1000MOL0     H34947   6.174   1.121   0.384  0.2713  0.3811 -0.2731
 1000MOL0     H34948   5.998   1.112   0.351  0.2447 -0.1113  0.7215
 1000MOL0     H34949   6.071   1.323   0.260  3.6239  3.4597 -0.1228
 1000MOL0     H34950   6.156   1.371   0.401  0.7246 -1.8995  0.4471
 1000MOL0     H34951   5.766   1.301   0.331 -1.4383  1.9512 -0.9722
 1000MOL0     H34952   5.599   1.608   0.473  2.7586 -0.1488  0.2706
 1000MOL0     H34953   5.583   1.481   0.351 -2.3630 -0.0132  0.1661
 1000MOL0     H34954   5.560   1.309   0.526  0.7574  0.7521 -1.6615
 1000MOL0     H34955   5.429   1.419   0.499  1.1983 -2.9280 -1.4490
 1000MOL0     H34956   5.424   1.402   0.737 -0.0437 -0.1559 -2.2474
 1000MOL0     H34957   5.523   1.550   0.714  2.1608  0.4455 -0.7199
 1000MOL0     H34958   5.712   1.361   0.701  0.1375  0.3551 -0.3841
 1000MOL0     H34959   5.607   1.263   0.786  2.8298  0.1901  1.1277
 1000MOL0     H34960   5.693   1.315   1.109  0.0154 -2.4054 -1.3792
 1000MOL0     H34961   5.922   1.143   1.272  1.4279 -0.1053  1.1370
 1000MOL0     H34962   5.909   1.310   1.348 -0.0663  0.1415 -0.1861
 1000MOL0     H34963   5.763   1.235   1.275 -0.6651  3.9842 -2.7115
 1000MOL0     H34964   6.438   1.180   0.933 -0.4003 -1.8410 -0.0480
 1000MOL0     H34965   6.647   1.115   1.019 -2.3051 -1.2767 -0.6036
 1000MOL0     H34966   6.852   1.259   1.407  1.5558 -0.8604  1.1817
 1000MOL0     H34967   6.724   1.126   1.428  0.5175 -0.9024 -1.4029
 1000MOL0     H34968   6.944   1.045   1.485  0.0736 -0.5876 -0.5642
 1000MOL0     H34969   6.878   0.970   1.336  0.2459  1.0375 -2.9109
 1000MOL0     H34970   7.069   1.212   1.332 -0.8232 -0.1477 -1.9216
 1000MOL0     H34971   7.045   1.102   1.201  1.9391  3.2803 -0.5515
 1000MOL0     H34972   7.135   0.921   1.392  2.2868 -0.7950  1.0484
 1000MOL0     H34973   7.234   0.991   1.270  0.1803 -2.2149  0.5423
 1000MOL0     H34974   7.308   1.175   1.431 -0.2493  0.0259 -1.0434
 1000MOL0     H34975   7.352   1.026   1.491  0.1625  0.0535  0.9892
 1000MOL0     H34976   7.096   1.185   1.556 -0.1775 -0.4945  0.5223
 1000MOL0     H34977   7.118   1.034   1.627  0.4018  0.1522  0.8851
 1000MOL0     H34978   7.294   1.285   1.688  1.8378 -0.7628 -1.1944
 1000MOL0     H34979   7.346   1.118   1.715 -1.4295 -1.4996 -1.2711
 1000MOL0     H34980   7.115   1.095   1.848  0.8894 -1.6105 -1.4608
 1000MOL0     H34981   7.123   1.278   1.840  1.1018  0.8398 -1.0708
 1000MOL0     H34982   6.603   1.347   1.372  0.0107  0.2359 -0.2094
 1000MOL0     H34983   6.367   1.400   1.299 -2.5844 -1.7413  0.2212
 1000MOL0     H34984   6.110   1.416   0.873 -1.0188 -0.5551 -1.2143
 1000MOL0     H34985   5.909   1.486   0.773  0.0476 -1.3561 -0.3649
 1000MOL0     H34986   6.327   1.015   1.247 -0.5925 -0.6406  1.5194
 1000MOL0     H34987   6.501   0.995   1.426 -0.4454 -0.4588  0.9041
 1000MOL0     H34988   6.938   0.732   1.434 -0.1458  0.5980 -0.7453
 1000MOL0     H34989   7.154   0.723   1.507  0.8089 -1.9767  0.7242
 1000MOL0     H34990   7.339   0.657   1.863  1.3318  1.1905 -0.5982
 1000MOL0     H34991   7.251   0.579   1.732 -1.3698  0.0505 -0.4730
 1000MOL0     H34992   7.458   0.788   1.646  0.4688  0.5341  1.8176
 1000MOL0     H34993   7.402   0.660   1.557  2.8106  1.1892 -1.1975
 1000MOL0     H34994   7.551   0.578   1.806 -1.0280 -1.3067 -0.5134
 1000MOL0     H34995   7.640   0.642   1.669  0.3376 -0.1369 -2.4081
 1000MOL0     H34996   7.576   0.465   1.522 -1.1614  2.0848  0.4626
 1000MOL0     H34997   7.472   0.389   1.639 -2.1266  3.0397 -1.8183
 1000MOL0     H34998   7.846   0.302   1.829 -1.3314  0.0486  1.4922
 1000MOL0     H34999   7.032   0.866   1.894  0.1569  0.4727 -0.0537
 1000MOL0     H35000   6.809   0.900   1.812  1.9865 -2.5525  5.0112
 1001MOL0     O35001   2.519   9.323   2.371  0.4798 -0.3099 -0.2686
 1001MOL0     C35002   2.569   9.283   2.264  0.1085 -0.1461 -0.0903
 1001MOL0     O35003   2.517   9.288   2.136  1.0189  0.4846 -0.8883
 1001MOL0     C35004   2.387   9.331   2.130 -0.5851  0.5736 -0.0073
 1001MOL0     C35005   2.329   9.271   2.015  0.0988  0.5412 -0.6106
 1001MOL0     C35006   2.187   9.275   2.001 -1.1405  0.7375 -0.0045
 1001MOL0     C35007   2.108   9.359   2.081 -0.3790  0.2001  0.0255
 1001MOL0     O35008   1.975   9.389   2.065  0.0307 -0.7312 -0.5238
 1001MOL0     C35009   1.885   9.312   1.981 -0.3895 -1.1809 -0.2857
 1001MOL0     C35010   1.849   9.385   1.848 -0.0780 -0.2010 -0.2403
 1001MOL0     C35011   1.786   9.526   1.880 -0.3862 -0.5880 -0.6117
 1001MOL0     C35012   1.735   9.595   1.756 -0.1826 -0.2407 -0.5484
 1001MOL0     C35013   1.694   9.746   1.783 -0.1208  0.3578  0.3941
 1001MOL0     C35014   1.624   9.794   1.662  0.3001  0.8730  0.2614
 1001MOL0     C35015   1.479   9.765   1.677  0.8426 -0.4918  0.9000
 1001MOL0     C35016   1.414   9.803   1.537  0.4078 -0.0382 -0.6987
 1001MOL0     N35017   1.287   9.736   1.520  0.2303  0.5824  0.1359
 1001MOL0     C35018   1.182   9.771   1.605 -0.0145 -0.5138  1.0140
 1001MOL0     C35019   1.068   9.705   1.562  0.3305 -0.7434  0.1508
 1001MOL0     C35020   0.935   9.711   1.635 -0.1366  0.5328 -0.5746
 1001MOL0     C35021   0.840   9.596   1.610  0.1520 -0.0403 -0.2508
 1001MOL0     C35022   0.726   9.595   1.704 -0.3924 -0.3241 -0.7104
 1001MOL0     C35023   0.598   9.538   1.650 -1.1422  1.1345  0.3136
 1001MOL0     O35024   0.539   9.616   1.550  0.5336 -0.2500 -0.1032
 1001MOL0     C35025   0.426   9.683   1.580  0.1189  0.3563  0.8309
 1001MOL0     C35026   0.392   9.748   1.692  0.7396 -0.6637 -0.1855
 1001MOL0     C35027   0.262   9.787   1.715 -0.6193  0.3294  0.6178
 1001MOL0     C35028   0.230   9.856   1.843  0.2883 -0.1665 -0.0407
 1001MOL0     C35029   0.168   9.761   1.611 -0.1321 -0.2501  0.5839
 1001MOL0     C35030   0.025   9.792   1.619  0.4994 -0.0343  0.2674
 1001MOL0     O35031  -0.051   9.781   1.506 -1.1360  0.0500  0.4881
 1001MOL0     C35032  -0.184   9.802   1.503  0.4557  1.0139  0.3555
 1001MOL0     C35033  -0.235   9.805   1.369 -0.4152 -0.1235 -0.7903
 1001MOL0     C35034  -0.364   9.834   1.336 -1.0780 -0.0838  0.2910
 1001MOL0     C35035  -0.459   9.856   1.437 -0.1417  0.9450  0.8762
 1001MOL0     O35036  -0.587   9.900   1.387  0.2198 -0.6324 -0.9669
 1001MOL0     C35037  -0.700   9.805   1.420 -0.4711  0.4695  0.1345
 1001MOL0     C35038  -0.782   9.865   1.534  0.8354 -0.2075 -0.0874
 1001MOL0     C35039  -0.922   9.786   1.552 -0.2898  0.2395 -0.1998
 1001MOL0     C35040  -1.031   9.883   1.612 -0.1698  0.3762 -0.3994
 1001MOL0     C35041  -1.137   9.797   1.684  0.6299 -0.1983  0.2611
 1001MOL0     C35042  -1.238   9.729   1.592 -0.2063 -0.7709  0.1234
 1001MOL0     C35043  -1.355   9.653   1.665 -0.3847 -0.6908  0.0047
 1001MOL0     C35044  -1.321   9.537   1.752 -0.5887  1.1459 -0.5894
 1001MOL0    Cl35045  -1.472   9.493   1.852 -0.1097  0.0189 -0.2097
 1001MOL0     C35046  -0.421   9.866   1.570 -0.2001  0.1715 -0.5643
 1001MOL0     C35047  -0.287   9.824   1.598  0.5572  0.6000 -0.3140
 1001MOL0     O35048  -0.020   9.818   1.731  0.1446  0.3849 -0.0574
 1001MOL0     C35049   0.212   9.712   1.482  0.2091 -0.4375 -0.4133
 1001MOL0     C35050   0.344   9.671   1.471  0.5203  0.2897 -0.5882
 1001MOL0     N35051   1.111   9.633   1.449 -0.3895 -0.7545 -0.2748
 1001MOL0     N35052   1.241   9.650   1.426  0.0401 -0.4418 -0.2885
 1001MOL0     C35053   2.175   9.432   2.179 -0.4496  0.4872  0.8372
 1001MOL0     C35054   2.312   9.415   2.211 -0.1482 -0.4931 -0.3177
 1001MOL0     C35055   2.722   9.258   2.263  1.3165  0.7182  0.3981
 1001MOL0     C35056   2.784   9.213   2.146 -0.0896  0.3346  0.0756
 1001MOL0     C35057   2.926   9.186   2.145 -0.6941  0.0639 -0.4559
 1001MOL0     C35058   2.994   9.197   2.262 -0.6873  0.6772 -0.3344
 1001MOL0     O35059   3.119   9.161   2.284  0.0728  0.1818 -0.0984
 1001MOL0     C35060   3.192   9.101   2.173 -0.0368  0.1663 -0.5050
 1001MOL0     C35061   3.330   9.047   2.219  1.0851  0.5438 -0.2835
 1001MOL0     C35062   3.425   9.165   2.243  0.2469 -0.3486 -0.0432
 1001MOL0     C35063   3.476   9.242   2.120  0.0898 -0.1042  0.3257
 1001MOL0     C35064   3.616   9.270   2.144  0.1419 -0.1477 -0.1421
 1001MOL0     C35065   3.731   9.281   2.177  1.2224 -0.0379  0.7182
 1001MOL0     C35066   2.937   9.254   2.372  1.4226 -0.3625 -0.3014
 1001MOL0     C35067   2.801   9.281   2.372 -0.3470  0.0124 -0.3059
 1001MOL0     H35068   2.380   9.198   1.953  0.3158 -1.6319  1.9557
 1001MOL0     H35069   2.145   9.215   1.921  0.2493  1.2586 -1.1747
 1001MOL0     H35070   1.927   9.212   1.971  0.3712 -1.1165  1.6632
 1001MOL0     H35071   1.794   9.299   2.041 -0.5067  1.7177  0.3627
 1001MOL0     H35072   1.940   9.406   1.792 -0.5191 -1.0012 -1.2925
 1001MOL0     H35073   1.787   9.321   1.786 -1.1330  1.1405 -0.6185
 1001MOL0     H35074   1.715   9.538   1.962  2.1020 -0.1583  1.6404
 1001MOL0     H35075   1.867   9.587   1.922 -2.5386  0.8796  1.6371
 1001MOL0     H35076   1.821   9.592   1.688  1.6204 -2.3605  1.6856
 1001MOL0     H35077   1.654   9.537   1.710 -1.5258 -1.4795  3.0746
 1001MOL0     H35078   1.630   9.757   1.871 -1.8275 -0.2172 -0.7276
 1001MOL0     H35079   1.790   9.794   1.805 -0.4559  0.5594  1.4919
 1001MOL0     H35080   1.631   9.901   1.643  1.5544  0.6938 -0.4298
 1001MOL0     H35081   1.677   9.752   1.577  2.3339 -0.4387  2.0612
 1001MOL0     H35082   1.464   9.659   1.699 -0.4563 -0.5129 -0.0073
 1001MOL0     H35083   1.439   9.815   1.766 -0.8196 -1.3700  0.6873
 1001MOL0     H35084   1.486   9.784   1.457  1.4003  1.1543 -0.1265
 1001MOL0     H35085   1.382   9.907   1.546 -2.3632 -0.6903 -1.8498
 1001MOL0     H35086   1.183   9.847   1.683  0.8859 -0.5871  1.0895
 1001MOL0     H35087   0.965   9.715   1.740  0.8845  1.1784 -0.8836
 1001MOL0     H35088   0.882   9.804   1.610  1.1681  1.7476  0.9646
 1001MOL0     H35089   0.892   9.500   1.621  0.7556  0.0439 -2.0244
 1001MOL0     H35090   0.802   9.608   1.508 -2.3258 -1.0727  0.4663
 1001MOL0     H35091   0.707   9.699   1.734 -2.3019 -0.7446 -0.3041
 1001MOL0     H35092   0.774   9.542   1.787 -0.4502  0.1648 -0.3585
 1001MOL0     H35093   0.542   9.529   1.744  0.6899  1.9854  1.5409
 1001MOL0     H35094   0.622   9.436   1.618 -0.8887  1.4334 -0.4816
 1001MOL0     H35095   0.460   9.757   1.775 -0.9351  0.9589  1.1065
 1001MOL0     H35096   0.322   9.885   1.894  1.0880  1.7110 -2.3716
 1001MOL0     H35097   0.174   9.948   1.823 -1.6219 -1.3007 -0.1543
 1001MOL0     H35098   0.169   9.784   1.898 -0.9617 -1.4029 -2.8524
 1001MOL0     H35099  -0.156   9.774   1.302  0.7804 -2.3823  1.5007
 1001MOL0     H35100  -0.385   9.834   1.229 -0.4804 -0.0016  0.1687
 1001MOL0     H35101  -0.764   9.789   1.333 -0.9900 -0.1505  0.6224
 1001MOL0     H35102  -0.671   9.706   1.456 -1.8913 -0.0549 -0.1208
 1001MOL0     H35103  -0.721   9.873   1.625  0.9851  3.3480 -0.3407
 1001MOL0     H35104  -0.813   9.964   1.498 -1.2172 -1.0113 -0.6559
 1001MOL0     H35105  -0.912   9.696   1.613 -0.1656  1.0506  1.0218
 1001MOL0     H35106  -0.947   9.742   1.455  4.4130  0.5603 -1.7678
 1001MOL0     H35107  -0.990   9.958   1.680 -1.2118  0.2843  0.3436
 1001MOL0     H35108  -1.083   9.936   1.531  1.1996  1.9629 -0.2807
 1001MOL0     H35109  -1.198   9.863   1.746  1.3078  2.0665 -1.3362
 1001MOL0     H35110  -1.093   9.726   1.754  1.0566 -0.6435 -0.4504
 1001MOL0     H35111  -1.274   9.802   1.519 -1.1466 -0.3862  0.9352
 1001MOL0     H35112  -1.184   9.655   1.533  0.0811 -2.9242  2.8985
 1001MOL0     H35113  -1.422   9.614   1.588 -0.2390 -1.1613  0.1113
 1001MOL0     H35114  -1.402   9.722   1.737 -4.6723 -2.2618 -0.9804
 1001MOL0     H35115  -1.230   9.560   1.808 -1.8016  1.3607  1.4283
 1001MOL0     H35116  -1.286   9.451   1.695 -2.5628  0.6299 -1.1093
 1001MOL0     H35117  -0.494   9.898   1.644  2.1582  2.9172  0.7970
 1001MOL0     H35118  -0.255   9.818   1.702 -2.1141  1.0653  0.6043
 1001MOL0     H35119   0.156   9.704   1.389 -1.3702 -1.5220  0.5850
 1001MOL0     H35120   0.380   9.617   1.384  1.2706 -1.6642  0.8523
 1001MOL0     H35121   2.127   9.499   2.250  1.1445  0.8240  1.6513
 1001MOL0     H35122   2.355   9.476   2.289 -1.9960 -0.5599  0.8090
 1001MOL0     H35123   2.743   9.189   2.048  2.6404 -0.4864 -0.9707
 1001MOL0     H35124   2.965   9.156   2.048  0.6872  2.0892 -0.5865
 1001MOL0     H35125   3.141   9.016   2.127 -0.9134  1.1367 -1.3960
 1001MOL0     H35126   3.222   9.172   2.094  2.0417  2.5895  2.2364
 1001MOL0     H35127   3.364   8.989   2.133 -0.1230  0.7155 -0.8979
 1001MOL0     H35128   3.333   8.983   2.308  0.3305  1.1404  0.1834
 1001MOL0     H35129   3.507   9.119   2.298 -1.3500 -0.9367  1.9603
 1001MOL0     H35130   3.386   9.238   2.315  0.7628 -1.4977  1.4513
 1001MOL0     H35131   3.426   9.339   2.111 -1.1692 -0.6434  1.2159
 1001MOL0     H35132   3.461   9.184   2.029 -0.8918 -0.5393  0.7451
 1001MOL0     H35133   3.834   9.283   2.205  1.5164  1.1895 -0.3341
 1001MOL0     H35134   2.992   9.278   2.463 -0.3309  1.9814  0.2388
 1001MOL0     H35135   2.754   9.338   2.452 -0.3405 -1.1751  0.5816
 1002MOL0     O35136   6.119   9.556   2.465  0.0590 -0.4326 -0.0776
 1002MOL0     C35137   6.104   9.437   2.463 -0.6995  0.6054  0.3561
 1002MOL0     O35138   5.994   9.373   2.428 -0.1649  0.5922 -0.0409
 1002MOL0     C35139   5.886   9.441   2.392  0.2056  0.5713 -0.2579
 1002MOL0     C35140   5.771   9.435   2.470 -0.5091 -0.1153 -0.0592
 1002MOL0     C35141   5.649   9.496   2.425  0.5958  0.6123 -0.5044
 1002MOL0     C35142   5.645   9.571   2.304  0.8418 -0.2930 -0.8450
 1002MOL0     O35143   5.525   9.649   2.275  0.2326 -0.6792 -0.1593
 1002MOL0     C35144   5.538   9.737   2.162 -0.6652 -0.6886  0.4798
 1002MOL0     C35145   5.396   9.782   2.140 -0.3377  0.5064 -0.5470
 1002MOL0     C35146   5.362   9.914   2.216 -0.6230 -0.0845  1.3180
 1002MOL0     C35147   5.236   9.983   2.165  0.2394 -0.2216  0.1561
 1002MOL0     C35148   5.113   9.898   2.185  0.3716  0.3451 -0.3864
 1002MOL0     C35149   4.982   9.969   2.131 -0.4329 -0.2911  0.3485
 1002MOL0     C35150   4.869   9.864   2.149  0.1512  0.2111 -0.7051
 1002MOL0     C35151   4.738   9.931   2.141  0.0909  0.1034  0.1903
 1002MOL0     N35152   4.643   9.828   2.149 -0.0991  0.3727 -0.5246
 1002MOL0     C35153   4.566   9.805   2.262 -0.3802 -0.3438  0.4111
 1002MOL0     C35154   4.466   9.729   2.213 -0.3556 -0.4652 -0.7812
 1002MOL0     C35155   4.353   9.675   2.306  0.0546 -0.3804  0.5419
 1002MOL0     C35156   4.265   9.785   2.358 -0.4605 -0.1604  0.2592
 1002MOL0     C35157   4.222   9.756   2.497  0.0332 -0.1251  0.0660
 1002MOL0     C35158   4.099   9.837   2.542 -0.2988 -0.6223 -0.5620
 1002MOL0     O35159   3.980   9.779   2.490 -0.3743  0.3125 -0.0637
 1002MOL0     C35160   3.859   9.842   2.476  0.7533  0.4803 -0.8667
 1002MOL0     C35161   3.828   9.962   2.545 -1.0279  1.1668 -0.0077
 1002MOL0     C35162   3.711  10.034   2.541 -0.6494 -0.5989 -0.3658
 1002MOL0     C35163   3.705  10.167   2.615 -0.4040  0.2028  0.3487
 1002MOL0     C35164   3.608   9.982   2.459  0.2572  0.3173  0.4922
 1002MOL0     C35165   3.466  10.044   2.439 -0.7996  0.6960 -0.2405
 1002MOL0     O35166   3.390   9.988   2.337 -0.1872  0.0564 -0.2173
 1002MOL0     C35167   3.265  10.029   2.336  0.0989 -0.1445  0.0256
 1002MOL0     C35168   3.178   9.967   2.422 -0.4522 -0.4442  0.4368
 1002MOL0     C35169   3.035   9.981   2.406 -0.6464  0.3671 -0.1318
 1002MOL0     C35170   3.001  10.076   2.313  0.2723 -0.2929 -0.7178
 1002MOL0     O35171   2.868  10.101   2.293  0.2220  0.3411  0.2622
 1002MOL0     C35172   2.764  10.002   2.311  0.1766  0.3739  0.1654
 1002MOL0     C35173   2.636  10.045   2.237  0.7397  0.0052  0.0317
 1002MOL0     C35174   2.604  10.191   2.259  0.8021 -0.6008  0.3055
 1002MOL0     C35175   2.498  10.243   2.162 -0.7747 -0.1458  0.8754
 1002MOL0     C35176   2.479  10.385   2.192 -0.3760 -0.0118 -0.2609
 1002MOL0     C35177   2.383  10.453   2.084  0.5472 -0.5165 -0.4938
 1002MOL0     C35178   2.432  10.474   1.940 -0.0374  1.0280  0.3530
 1002MOL0     C35179   2.360  10.590   1.875  0.3388 -0.1143 -0.1228
 1002MOL0    Cl35180   2.187  10.549   1.867  0.5991 -0.0941 -0.3506
 1002MOL0     C35181   3.093  10.157   2.243  0.6405  0.5485  0.2080
 1002MOL0     C35182   3.225  10.123   2.243  0.0411 -0.0342  0.0490
 1002MOL0     O35183   3.425  10.126   2.522  0.7472 -0.2290  1.0687
 1002MOL0     C35184   3.637   9.861   2.386  0.4924 -0.0233  1.3358
 1002MOL0     C35185   3.759   9.790   2.395 -0.4711 -0.6536  0.4654
 1002MOL0     N35186   4.464   9.738   2.077  0.5421  0.0772 -0.2988
 1002MOL0     N35187   4.576   9.779   2.039  0.3153 -0.0055 -0.2581
 1002MOL0     C35188   5.764   9.578   2.232 -0.5120 -0.1553  0.8086
 1002MOL0     C35189   5.885   9.518   2.275 -0.1606 -0.9081 -0.2435
 1002MOL0     C35190   6.226   9.361   2.513  0.3354  0.6416  0.1473
 1002MOL0     C35191   6.235   9.225   2.513 -0.4259  0.2608 -0.1848
 1002MOL0     C35192   6.339   9.151   2.567 -0.7993 -0.4833 -1.1248
 1002MOL0     C35193   6.446   9.219   2.629 -0.3062 -0.1536  0.4395
 1002MOL0     O35194   6.557   9.168   2.688  0.0638 -0.3497  0.1121
 1002MOL0     C35195   6.542   9.033   2.739 -0.3651 -0.0541 -0.6492
 1002MOL0     C35196   6.640   8.942   2.659  1.3796 -0.5267  0.1294
 1002MOL0     C35197   6.787   8.952   2.699 -0.0725  0.0458 -0.1234
 1002MOL0     C35198   6.884   8.852   2.623 -0.8874 -0.4061 -0.5676
 1002MOL0     C35199   6.824   8.716   2.633 -0.4062 -0.6016 -0.6998
 1002MOL0     C35200   6.771   8.607   2.631 -0.4851 -0.7870  0.1773
 1002MOL0     C35201   6.451   9.362   2.610 -0.1156 -0.0824 -0.2879
 1002MOL0     C35202   6.347   9.428   2.551  0.3904 -0.6271 -0.2498
 1002MOL0     H35203   5.779   9.385   2.566  2.9685  2.7510  1.4085
 1002MOL0     H35204   5.563   9.503   2.492  1.5302  1.6542  0.6562
 1002MOL0     H35205   5.605   9.816   2.197 -0.4492 -0.5346 -0.2624
 1002MOL0     H35206   5.578   9.683   2.076 -0.9861 -2.2512  1.2762
 1002MOL0     H35207   5.374   9.801   2.035 -1.5183 -1.1018 -0.6211
 1002MOL0     H35208   5.321   9.708   2.169  0.4189  0.0369  0.2742
 1002MOL0     H35209   5.350   9.892   2.323  4.5936 -1.7707  1.8380
 1002MOL0     H35210   5.450   9.977   2.202 -1.8692  1.8038  1.6367
 1002MOL0     H35211   5.227  10.076   2.220  3.0485 -0.2419  0.7927
 1002MOL0     H35212   5.246  10.008   2.059 -0.0726  1.7604  0.5664
 1002MOL0     H35213   5.122   9.794   2.153 -2.7797  0.1807 -1.0687
 1002MOL0     H35214   5.093   9.886   2.292 -2.3843 -3.3969 -1.0945
 1002MOL0     H35215   4.976  10.056   2.197 -0.9746  0.3579 -0.5393
 1002MOL0     H35216   5.014   9.992   2.028  2.7328  1.1391  1.5226
 1002MOL0     H35217   4.870   9.780   2.079 -0.2895 -0.6090  0.2571
 1002MOL0     H35218   4.871   9.814   2.246 -0.6195  0.6233 -0.4621
 1002MOL0     H35219   4.718   9.987   2.049 -2.3843  0.5932  0.9580
 1002MOL0     H35220   4.736   9.999   2.227 -1.0835 -0.4359  0.6130
 1002MOL0     H35221   4.601   9.817   2.364 -0.2184  2.4036  0.0988
 1002MOL0     H35222   4.284   9.609   2.252 -0.8131  1.2095 -0.3603
 1002MOL0     H35223   4.393   9.617   2.390  1.0307  4.0663  3.4963
 1002MOL0     H35224   4.177   9.794   2.293 -0.9825 -0.5919  0.8894
 1002MOL0     H35225   4.315   9.882   2.356 -0.3291  0.0180  4.2727
 1002MOL0     H35226   4.307   9.771   2.565 -0.1620 -1.6610  0.6893
 1002MOL0     H35227   4.198   9.649   2.504 -0.0184 -0.2106 -1.1709
 1002MOL0     H35228   4.117   9.941   2.516  3.9135 -0.7662  0.9126
 1002MOL0     H35229   4.096   9.816   2.649 -3.1028 -1.4662 -0.7421
 1002MOL0     H35230   3.904   9.999   2.613 -1.0333 -0.5108  0.9644
 1002MOL0     H35231   3.657  10.156   2.712 -1.1993 -1.9399 -0.2215
 1002MOL0     H35232   3.802  10.211   2.640 -1.7378  2.7710  1.2552
 1002MOL0     H35233   3.662  10.245   2.553 -0.6873 -0.4907 -0.3483
 1002MOL0     H35234   3.215   9.901   2.499 -0.2647  0.4987  1.1674
 1002MOL0     H35235   2.974   9.924   2.474  0.8339 -2.0813 -0.7328
 1002MOL0     H35236   2.794   9.908   2.264 -0.9892  0.6095 -1.1104
 1002MOL0     H35237   2.745   9.993   2.419  1.8199 -2.1164  0.3239
 1002MOL0     H35238   2.653  10.030   2.129  1.6276 -0.2789  0.2012
 1002MOL0     H35239   2.557   9.979   2.273 -0.4514  2.2933  1.8344
 1002MOL0     H35240   2.693  10.252   2.247  1.9529 -2.4022 -0.8846
 1002MOL0     H35241   2.565  10.199   2.361 -3.3935  0.3532 -1.1705
 1002MOL0     H35242   2.542  10.237   2.062  1.0214  2.9922  1.3516
 1002MOL0     H35243   2.410  10.178   2.157 -1.6480  1.1143 -2.1321
 1002MOL0     H35244   2.575  10.437   2.199 -0.2763  0.1414 -2.2259
 1002MOL0     H35245   2.419  10.387   2.283 -1.5411 -1.5514 -0.9585
 1002MOL0     H35246   2.288  10.399   2.087 -1.1275  2.2908  0.6686
 1002MOL0     H35247   2.367  10.554   2.123  2.0754  0.2949 -1.8188
 1002MOL0     H35248   2.432  10.381   1.882  2.7203 -0.0671  1.9143
 1002MOL0     H35249   2.540  10.491   1.942  0.2329 -0.3395 -0.8133
 1002MOL0     H35250   2.404  10.611   1.777  2.4321  1.8398  1.1302
 1002MOL0     H35251   2.378  10.680   1.935 -0.8534 -0.1279  0.2799
 1002MOL0     H35252   3.053  10.235   2.180 -1.6483 -1.5323 -1.0776
 1002MOL0     H35253   3.293  10.182   2.182 -1.7221  0.9578 -1.0319
 1002MOL0     H35254   3.566   9.807   2.325  1.7992  0.8696 -1.0889
 1002MOL0     H35255   3.776   9.692   2.350 -2.6389 -0.4516 -0.9773
 1002MOL0     H35256   5.780   9.649   2.152  0.8028  1.0282  2.0723
 1002MOL0     H35257   5.973   9.531   2.214 -0.2311 -0.6470 -0.2905
 1002MOL0     H35258   6.163   9.157   2.469 -0.3542 -1.9518  2.7328
 1002MOL0     H35259   6.334   9.045   2.545 -0.7146 -0.9263  0.7782
 1002MOL0     H35260   6.576   9.029   2.842  1.2080  0.1662 -1.1301
 1002MOL0     H35261   6.438   8.998   2.736 -1.0129  1.5510  0.9670
 1002MOL0     H35262   6.617   8.966   2.554 -0.3691  1.8721  0.9689
 1002MOL0     H35263   6.607   8.841   2.685  0.6406  0.1567  2.0062
 1002MOL0     H35264   6.794   8.937   2.807 -1.0951 -0.1829 -0.0737
 1002MOL0     H35265   6.828   9.050   2.675  2.4881 -0.2999  2.3241
 1002MOL0     H35266   6.983   8.849   2.670 -0.7707  0.9692 -0.6862
 1002MOL0     H35267   6.899   8.881   2.519  0.5158 -0.9700 -0.5435
 1002MOL0     H35268   6.714   8.517   2.632  0.1256 -1.2774 -2.2589
 1002MOL0     H35269   6.537   9.420   2.644  0.6631 -1.5784  0.3791
 1002MOL0     H35270   6.370   9.534   2.545  5.8670 -1.4260  1.1036
 1003MOL0     O35271   5.842   9.277   0.771  0.0170  0.1718 -0.1254
 1003MOL0     C35272   5.842   9.396   0.798  0.2041 -0.0600 -0.0869
 1003MOL0     O35273   5.761   9.496   0.737 -0.3036  0.6047 -0.5980
 1003MOL0     C35274   5.662   9.464   0.646 -0.2040 -0.3045  0.3408
 1003MOL0     C35275   5.677   9.385   0.535  0.3550 -0.2184 -0.0419
 1003MOL0     C35276   5.564   9.360   0.450  0.4122 -0.7809  0.1264
 1003MOL0     C35277   5.439   9.419   0.469  0.3259  0.5021 -0.8895
 1003MOL0     O35278   5.325   9.411   0.395 -0.0798  0.1407  0.6301
 1003MOL0     C35279   5.318   9.329   0.281 -0.4761  0.3583  0.5673
 1003MOL0     C35280   5.171   9.322   0.231 -1.1980 -0.0933  0.4121
 1003MOL0     C35281   5.118   9.453   0.163 -0.3709 -0.6301 -0.3602
 1003MOL0     C35282   4.967   9.432   0.130 -0.6455  0.5381 -0.3539
 1003MOL0     C35283   4.881   9.403   0.255 -0.2349  0.2806 -0.0855
 1003MOL0     C35284   4.729   9.434   0.235 -0.0234 -0.0867 -0.2591
 1003MOL0     C35285   4.672   9.372   0.109  0.3741  0.2102 -0.5965
 1003MOL0     C35286   4.517   9.358   0.139  0.0255  0.3750  0.6498
 1003MOL0     N35287   4.460   9.490   0.139 -0.2015 -0.0003  0.3109
 1003MOL0     C35288   4.414   9.550   0.255 -0.5378 -0.2749  0.2727
 1003MOL0     C35289   4.377   9.676   0.213  0.3931 -0.1721 -0.6074
 1003MOL0     C35290   4.331   9.787   0.303 -0.0188  1.1470 -0.9218
 1003MOL0     C35291   4.215   9.756   0.397  0.1068  0.3352 -0.4174
 1003MOL0     C35292   4.081   9.765   0.326 -0.4675 -0.0114  0.7663
 1003MOL0     C35293   3.970   9.780   0.438 -1.0172 -0.3449  0.4058
 1003MOL0     O35294   3.951   9.651   0.481  0.6929  0.6210 -0.0058
 1003MOL0     C35295   3.850   9.621   0.566  0.0089 -0.3586 -1.1592
 1003MOL0     C35296   3.820   9.486   0.582 -0.5068 -0.1640 -0.2954
 1003MOL0     C35297   3.727   9.437   0.674  0.4262 -0.1407 -0.6903
 1003MOL0     C35298   3.720   9.286   0.693  0.4720  0.6286 -0.1144
 1003MOL0     C35299   3.646   9.539   0.741  0.1755 -0.7594  0.2603
 1003MOL0     C35300   3.523   9.507   0.821 -0.4324 -0.4016 -0.6221
 1003MOL0     O35301   3.452   9.621   0.866  0.1921 -0.3324  0.4882
 1003MOL0     C35302   3.320   9.611   0.863  0.5001  0.5316  0.4457
 1003MOL0     C35303   3.243   9.601   0.752  0.5247 -0.3326  0.0927
 1003MOL0     C35304   3.098   9.613   0.756  0.1369 -0.3055 -1.1869
 1003MOL0     C35305   3.039   9.635   0.887  0.6155  0.0857  0.1244
 1003MOL0     O35306   2.901   9.649   0.892 -0.9486  0.4913 -0.7254
 1003MOL0     C35307   2.826   9.533   0.945 -0.4750 -0.0051 -0.2312
 1003MOL0     C35308   2.728   9.588   1.052  0.9320  0.1136 -0.4514
 1003MOL0     C35309   2.622   9.686   0.997 -0.0424  0.2021 -0.2396
 1003MOL0     C35310   2.638   9.830   1.061 -0.6137  0.0344 -0.0326
 1003MOL0     C35311   2.563   9.943   0.983  0.4671 -0.2303 -0.2799
 1003MOL0     C35312   2.420   9.900   0.943  0.6673 -0.9570  0.2489
 1003MOL0     C35313   2.328  10.012   0.875 -0.2155  0.4334 -0.2016
 1003MOL0     C35314   2.190   9.955   0.844 -0.6090  0.1743 -0.1701
 1003MOL0    Cl35315   2.106   9.879   0.982 -0.7570  0.2056 -0.4468
 1003MOL0     C35316   3.120   9.634   0.997 -0.4221  0.3804  0.8096
 1003MOL0     C35317   3.256   9.619   0.986 -1.0968 -0.0970  0.3318
 1003MOL0     O35318   3.481   9.394   0.829  0.7131 -1.0444  0.6463
 1003MOL0     C35319   3.671   9.682   0.725 -0.2536 -0.2906 -0.2885
 1003MOL0     C35320   3.778   9.726   0.634 -0.2585 -0.3969  1.0531
 1003MOL0     N35321   4.404   9.689   0.078 -0.2660  0.2350  0.0895
 1003MOL0     N35322   4.447   9.579   0.031  0.3672  0.1159 -0.6951
 1003MOL0     C35323   5.427   9.491   0.591 -0.0768 -0.3264 -0.7797
 1003MOL0     C35324   5.539   9.521   0.672  0.3315  0.7075 -0.0704
 1003MOL0     C35325   5.938   9.429   0.900  0.4285  0.4451  0.8894
 1003MOL0     C35326   6.000   9.559   0.891 -0.3579  1.1883 -0.5015
 1003MOL0     C35327   6.096   9.593   0.986 -0.0306  0.2942  0.3569
 1003MOL0     C35328   6.138   9.493   1.080  0.1666 -0.2063 -1.2363
 1003MOL0     O35329   6.224   9.520   1.182 -0.0578 -0.3045 -0.5724
 1003MOL0     C35330   6.285   9.646   1.196  0.5021 -0.6183 -0.3242
 1003MOL0     C35331   6.410   9.635   1.286 -0.0946 -0.1047 -0.9845
 1003MOL0     C35332   6.488   9.765   1.294 -0.9255 -0.3091 -0.4812
 1003MOL0     C35333   6.639   9.754   1.330 -0.3732 -0.1345 -0.2487
 1003MOL0     C35334   6.723   9.725   1.215  0.0843 -0.1190 -0.6621
 1003MOL0     C35335   6.797   9.706   1.124  0.1958  0.1681  0.8403
 1003MOL0     C35336   6.084   9.364   1.076 -0.9810 -0.3352 -0.5963
 1003MOL0     C35337   5.996   9.332   0.977  0.4118  0.6023  0.5440
 1003MOL0     H35338   5.773   9.337   0.523 -0.2844 -1.8355  0.8870
 1003MOL0     H35339   5.580   9.293   0.366 -0.2330  2.5199 -2.8537
 1003MOL0     H35340   5.383   9.362   0.200 -1.0365 -2.5046 -1.1824
 1003MOL0     H35341   5.345   9.230   0.319 -1.1471  0.8397  2.4221
 1003MOL0     H35342   5.171   9.250   0.149 -4.2634  1.3611 -1.0352
 1003MOL0     H35343   5.106   9.277   0.307 -1.1247 -2.9225 -1.0743
 1003MOL0     H35344   5.132   9.540   0.227  3.3762 -1.3533  0.0605
 1003MOL0     H35345   5.175   9.467   0.071 -1.1402 -4.0519 -1.5249
 1003MOL0     H35346   4.936   9.519   0.072 -0.3906 -0.5884 -2.2683
 1003MOL0     H35347   4.951   9.344   0.067 -3.5393  1.0576 -0.4692
 1003MOL0     H35348   4.896   9.300   0.289  0.8766  0.8571  1.2922
 1003MOL0     H35349   4.911   9.465   0.340  1.1452 -1.0148  0.4091
 1003MOL0     H35350   4.676   9.401   0.325  0.5476 -3.1095 -0.9262
 1003MOL0     H35351   4.731   9.542   0.217  6.6495  0.7276  2.6148
 1003MOL0     H35352   4.699   9.430   0.020 -0.2850  1.7748  0.1972
 1003MOL0     H35353   4.713   9.272   0.091 -0.4997 -0.1762 -0.4644
 1003MOL0     H35354   4.510   9.312   0.238 -0.6461  0.6949  0.7595
 1003MOL0     H35355   4.472   9.303   0.056 -2.6524  0.8562  1.6826
 1003MOL0     H35356   4.410   9.518   0.359  0.6215 -2.0887 -0.2031
 1003MOL0     H35357   4.416   9.813   0.365  0.4435  2.1433 -1.9242
 1003MOL0     H35358   4.308   9.877   0.244  0.1348  1.7784 -0.0331
 1003MOL0     H35359   4.217   9.829   0.479  1.0950  0.3608 -0.4515
 1003MOL0     H35360   4.226   9.658   0.444  1.0815  0.6217 -0.0244
 1003MOL0     H35361   4.063   9.685   0.253  1.3806  1.1324 -1.0583
 1003MOL0     H35362   4.079   9.857   0.267 -1.5153 -1.2231 -1.2145
 1003MOL0     H35363   3.884   9.831   0.393 -1.3983 -1.6706 -0.4099
 1003MOL0     H35364   4.011   9.850   0.512  2.1815 -1.2476 -0.3489
 1003MOL0     H35365   3.883   9.417   0.528 -0.7498 -2.7920  2.4854
 1003MOL0     H35366   3.648   9.249   0.620 -0.2424  2.4643 -0.3813
 1003MOL0     H35367   3.819   9.243   0.671  0.0550 -0.6132  0.3019
 1003MOL0     H35368   3.694   9.256   0.795 -3.8801 -0.0104 -1.2471
 1003MOL0     H35369   3.284   9.587   0.652 -1.9175 -1.4940 -0.8363
 1003MOL0     H35370   3.032   9.599   0.670  1.5337 -5.1505 -1.7911
 1003MOL0     H35371   2.766   9.480   0.869  0.9221 -0.4140 -1.0846
 1003MOL0     H35372   2.890   9.460   0.993 -1.5538  0.6647  2.3798
 1003MOL0     H35373   2.671   9.510   1.104 -0.1734  0.4851 -1.0742
 1003MOL0     H35374   2.783   9.641   1.131 -2.0108  1.4767  0.8640
 1003MOL0     H35375   2.519   9.649   1.004 -0.0559 -0.3668 -2.6355
 1003MOL0     H35376   2.639   9.691   0.889  1.0991 -1.9437 -0.2106
 1003MOL0     H35377   2.603   9.832   1.164  1.9573 -2.5445  1.0574
 1003MOL0     H35378   2.745   9.855   1.065 -0.7942  1.3405 -2.0094
 1003MOL0     H35379   2.622   9.961   0.892 -1.1957  0.7586 -1.2246
 1003MOL0     H35380   2.564  10.042   1.031 -1.7312 -0.1509 -0.2911
 1003MOL0     H35381   2.422   9.816   0.873 -0.9505  0.1365 -1.1967
 1003MOL0     H35382   2.366   9.846   1.021  3.0618 -1.6278  1.5432
 1003MOL0     H35383   2.374  10.047   0.782 -1.2818 -2.9659 -2.1624
 1003MOL0     H35384   2.323  10.096   0.945  2.8659 -0.3872  1.2045
 1003MOL0     H35385   2.204   9.882   0.764 -1.9913  0.8979 -1.1085
 1003MOL0     H35386   2.125  10.028   0.795 -1.1644 -1.3717 -1.8129
 1003MOL0     H35387   3.068   9.644   1.091 -1.4357  3.7941  0.0412
 1003MOL0     H35388   3.320   9.623   1.073 -0.4940  0.1802 -0.1186
 1003MOL0     H35389   3.637   9.766   0.784  2.9186  0.6156  0.4715
 1003MOL0     H35390   3.804   9.829   0.609 -0.1636 -0.5954  0.2945
 1003MOL0     H35391   5.331   9.539   0.600 -0.0967 -0.1567 -1.7529
 1003MOL0     H35392   5.541   9.596   0.750 -2.2434  1.1161 -0.3002
 1003MOL0     H35393   5.968   9.634   0.820  2.0059  0.1210 -2.8902
 1003MOL0     H35394   6.141   9.692   0.981  0.0893  0.2434  0.4181
 1003MOL0     H35395   6.325   9.681   1.101  1.8265 -1.8041 -0.2323
 1003MOL0     H35396   6.217   9.720   1.239 -0.4671 -1.8310  0.3264
 1003MOL0     H35397   6.481   9.564   1.243  1.0779  0.4378 -0.0067
 1003MOL0     H35398   6.373   9.607   1.385 -1.3636  0.9854 -1.1172
 1003MOL0     H35399   6.439   9.824   1.372 -0.8585 -1.5391  0.5373
 1003MOL0     H35400   6.486   9.828   1.205  1.7712  0.7234  0.1113
 1003MOL0     H35401   6.651   9.684   1.413  2.0049  1.7259  1.1010
 1003MOL0     H35402   6.666   9.853   1.366  0.0246 -0.4838  0.4259
 1003MOL0     H35403   6.854   9.675   1.038 -1.9268 -2.1339  0.1649
 1003MOL0     H35404   6.121   9.288   1.143 -1.0167 -1.9813 -2.3610
 1003MOL0     H35405   5.958   9.231   0.966  2.9949 -0.5179  1.1283
 1004MOL0     O35406   2.409   7.922   5.104 -0.3638 -0.0375  0.3810
 1004MOL0     C35407   2.441   7.935   5.222 -0.6195 -0.3738  0.0843
 1004MOL0     O35408   2.359   7.965   5.330 -0.9024 -0.3326  0.0787
 1004MOL0     C35409   2.233   8.008   5.316  0.1889 -0.1160  0.3697
 1004MOL0     C35410   2.174   8.071   5.427 -1.4296 -0.3852 -0.0827
 1004MOL0     C35411   2.042   8.101   5.434 -0.2872 -0.1086 -0.5317
 1004MOL0     C35412   1.957   8.079   5.323 -0.4062 -0.2537  0.5647
 1004MOL0     O35413   1.827   8.115   5.340  0.1143 -0.6606  0.7709
 1004MOL0     C35414   1.735   8.001   5.324  0.0980 -0.2197 -0.2011
 1004MOL0     C35415   1.590   8.051   5.347 -0.1392 -0.0414 -0.9230
 1004MOL0     C35416   1.547   8.022   5.493 -0.5919 -0.3483 -0.1168
 1004MOL0     C35417   1.401   8.048   5.521  0.9836 -1.1936 -0.0995
 1004MOL0     C35418   1.346   8.005   5.658  0.2371 -0.1082 -0.1839
 1004MOL0     C35419   1.193   7.993   5.661 -0.0541  0.3935  0.2882
 1004MOL0     C35420   1.120   8.119   5.604  0.0201  0.6753  0.4513
 1004MOL0     C35421   0.976   8.080   5.581  0.3167 -0.2209 -0.2417
 1004MOL0     N35422   0.910   8.213   5.533 -0.1110  0.1705 -0.4022
 1004MOL0     C35423   0.852   8.224   5.403  0.0678 -0.2441  0.1180
 1004MOL0     C35424   0.799   8.348   5.398 -0.1192 -0.7234 -1.0683
 1004MOL0     C35425   0.716   8.414   5.283  0.0205 -0.0398  0.0323
 1004MOL0     C35426   0.609   8.505   5.328  0.3542 -0.6340 -0.0970
 1004MOL0     C35427   0.502   8.518   5.228 -0.0776 -0.1227  0.0549
 1004MOL0     C35428   0.368   8.583   5.267 -0.8107  0.4791  0.8404
 1004MOL0     O35429   0.398   8.711   5.325  0.7786  0.4529 -0.2624
 1004MOL0     C35430   0.290   8.797   5.338 -0.5586  0.4551  0.1681
 1004MOL0     C35431   0.317   8.930   5.317  0.2798  0.1797 -0.5569
 1004MOL0     C35432   0.216   9.029   5.317 -0.2840  0.3665  0.1088
 1004MOL0     C35433   0.260   9.171   5.283  0.4556 -0.3165  0.7177
 1004MOL0     C35434   0.082   8.991   5.350 -0.0405  0.0010  0.5648
 1004MOL0     C35435  -0.034   9.083   5.370  0.2386  0.7808 -0.1955
 1004MOL0     O35436  -0.158   9.022   5.391  0.0333 -0.1447 -0.2137
 1004MOL0     C35437  -0.279   9.094   5.401 -0.6031  0.3640  0.5651
 1004MOL0     C35438  -0.399   9.017   5.414  0.3204 -0.3637  0.5530
 1004MOL0     C35439  -0.518   9.087   5.412  0.5473 -0.2612  0.5951
 1004MOL0     C35440  -0.528   9.221   5.383  0.0759 -0.1794 -0.3372
 1004MOL0     O35441  -0.657   9.271   5.375  0.0519  0.5700  0.5948
 1004MOL0     C35442  -0.665   9.388   5.457  0.1675 -0.3181 -0.6711
 1004MOL0     C35443  -0.803   9.403   5.509 -0.3470 -0.0076 -0.5270
 1004MOL0     C35444  -0.842   9.284   5.595  0.5660 -0.0194 -0.0062
 1004MOL0     C35445  -0.930   9.319   5.720 -0.2870 -0.4223  0.2694
 1004MOL0     C35446  -0.998   9.197   5.791  0.1459 -0.7819 -0.6133
 1004MOL0     C35447  -1.107   9.138   5.696  0.2433  0.1592 -0.2331
 1004MOL0     C35448  -1.199   9.032   5.758  0.2839  0.2757 -0.6109
 1004MOL0     C35449  -1.302   8.990   5.653 -1.0537  0.8419  0.4099
 1004MOL0    Cl35450  -1.388   8.846   5.717  0.4159  0.1413  0.3084
 1004MOL0     C35451  -0.410   9.290   5.362  0.1716 -1.1377 -0.3768
 1004MOL0     C35452  -0.288   9.237   5.380  0.1835 -0.8917  0.5771
 1004MOL0     O35453  -0.010   9.203   5.383  0.1446 -0.9102  0.0998
 1004MOL0     C35454   0.054   8.852   5.362  0.6757  0.6713 -0.0018
 1004MOL0     C35455   0.160   8.760   5.355 -1.1221 -0.2147 -1.0966
 1004MOL0     N35456   0.830   8.407   5.520  0.4521  0.4590 -0.5216
 1004MOL0     N35457   0.890   8.325   5.599 -0.0509 -0.6133  0.4941
 1004MOL0     C35458   2.014   8.019   5.206 -0.1905 -0.4112 -0.7367
 1004MOL0     C35459   2.143   7.986   5.207  0.2711 -0.0246  0.2084
 1004MOL0     C35460   2.575   7.903   5.253 -0.3215  0.1404 -0.9881
 1004MOL0     C35461   2.667   7.866   5.150 -0.5982  0.3561 -1.1663
 1004MOL0     C35462   2.795   7.820   5.181 -0.1635 -0.7663 -0.2510
 1004MOL0     C35463   2.838   7.815   5.307  0.2202 -0.2722 -1.0553
 1004MOL0     O35464   2.964   7.766   5.321 -0.5840  0.3673  0.4762
 1004MOL0     C35465   3.013   7.747   5.456  0.1978  0.1091 -0.2820
 1004MOL0     C35466   3.145   7.673   5.433  0.0047  0.3425 -1.1841
 1004MOL0     C35467   3.238   7.660   5.558 -0.1520 -0.6695  0.1407
 1004MOL0     C35468   3.377   7.622   5.522  0.2103 -0.3570  0.9264
 1004MOL0     C35469   3.466   7.628   5.641 -0.0589  0.7161  0.2977
 1004MOL0     C35470   3.518   7.612   5.746  0.1812  0.0011 -0.2613
 1004MOL0     C35471   2.748   7.839   5.419 -0.2898 -0.0225  1.0678
 1004MOL0     C35472   2.620   7.887   5.389  0.3259  0.0095  0.3585
 1004MOL0     H35473   2.237   8.086   5.515 -0.8463  1.2538 -0.7378
 1004MOL0     H35474   2.015   8.133   5.534  1.0787  1.1076 -0.5312
 1004MOL0     H35475   1.748   7.964   5.222 -2.4644 -1.0780 -0.2747
 1004MOL0     H35476   1.763   7.921   5.392  2.9338  1.8621  1.3033
 1004MOL0     H35477   1.594   8.159   5.330 -1.6772  0.2042  0.1274
 1004MOL0     H35478   1.529   7.993   5.277 -0.4196 -1.5795  0.5233
 1004MOL0     H35479   1.548   7.914   5.514  0.6323 -0.4926 -0.8290
 1004MOL0     H35480   1.595   8.086   5.568 -2.5920  1.1829 -0.0606
 1004MOL0     H35481   1.393   8.157   5.514 -0.2737 -1.2060  0.8206
 1004MOL0     H35482   1.347   8.017   5.431  0.2684 -0.0859 -0.0702
 1004MOL0     H35483   1.380   7.904   5.685  0.7286  0.3716  1.0552
 1004MOL0     H35484   1.384   8.061   5.744 -0.6948 -0.4666  0.4826
 1004MOL0     H35485   1.174   7.914   5.588 -1.5466  0.1894  0.8541
 1004MOL0     H35486   1.153   7.972   5.761 -0.3240 -0.5750 -0.0138
 1004MOL0     H35487   1.116   8.204   5.673 -1.7009  0.9333  0.0848
 1004MOL0     H35488   1.154   8.155   5.506 -2.3506 -3.1461 -2.0382
 1004MOL0     H35489   0.923   8.039   5.667  1.6811 -1.6270 -0.0325
 1004MOL0     H35490   0.974   8.005   5.502 -0.5134  1.4417 -1.8678
 1004MOL0     H35491   0.854   8.148   5.326 -2.1668  1.0563 -1.3439
 1004MOL0     H35492   0.780   8.466   5.211  0.1361 -0.9997 -0.5799
 1004MOL0     H35493   0.676   8.326   5.232  0.1853  0.7375 -1.5034
 1004MOL0     H35494   0.648   8.601   5.364 -0.7076 -0.8775  1.8903
 1004MOL0     H35495   0.559   8.462   5.416  2.6884 -0.1285  1.5819
 1004MOL0     H35496   0.486   8.417   5.191  0.5294 -0.2550  0.1483
 1004MOL0     H35497   0.529   8.574   5.138 -2.1317  1.5271  0.3778
 1004MOL0     H35498   0.319   8.513   5.336 -0.5063 -1.0067 -0.3935
 1004MOL0     H35499   0.300   8.597   5.183 -0.3226 -1.7987 -0.0193
 1004MOL0     H35500   0.422   8.951   5.301  1.7220 -4.0741  1.7065
 1004MOL0     H35501   0.197   9.214   5.204  4.1487  5.0277  0.1260
 1004MOL0     H35502   0.248   9.236   5.370 -2.2696 -0.0077  0.1827
 1004MOL0     H35503   0.360   9.191   5.243  0.0625  2.4245  0.8892
 1004MOL0     H35504  -0.378   8.912   5.433  1.8396  0.0421  1.2303
 1004MOL0     H35505  -0.613   9.035   5.427 -0.5853  2.0684  2.0602
 1004MOL0     H35506  -0.593   9.376   5.538  1.4169 -1.9841 -1.9623
 1004MOL0     H35507  -0.647   9.473   5.391 -1.9581  0.3948 -0.4126
 1004MOL0     H35508  -0.811   9.497   5.563 -3.4333 -0.6914  0.4005
 1004MOL0     H35509  -0.866   9.404   5.419 -0.1610 -3.6740 -0.8831
 1004MOL0     H35510  -0.754   9.235   5.636  0.4049  1.5560  2.3961
 1004MOL0     H35511  -0.900   9.215   5.533  1.2865 -0.4043 -0.2671
 1004MOL0     H35512  -0.875   9.360   5.805 -0.7320 -2.3891  1.5643
 1004MOL0     H35513  -1.004   9.398   5.701 -0.6250 -0.0067  2.9853
 1004MOL0     H35514  -1.042   9.244   5.880  0.7101 -0.6535 -0.3986
 1004MOL0     H35515  -0.927   9.118   5.817 -1.1851 -1.9145 -0.3425
 1004MOL0     H35516  -1.183   9.214   5.678 -0.2629 -0.3137 -0.1159
 1004MOL0     H35517  -1.066   9.102   5.602  0.5199 -2.0510  0.6686
 1004MOL0     H35518  -1.247   9.082   5.843 -0.8193  0.6192 -1.4053
 1004MOL0     H35519  -1.137   8.945   5.783 -1.2474 -0.9995 -1.0235
 1004MOL0     H35520  -1.248   8.961   5.563  0.0175 -0.9845  1.5789
 1004MOL0     H35521  -1.373   9.070   5.628 -0.5381  1.0999 -0.2635
 1004MOL0     H35522  -0.405   9.393   5.329 -2.8716 -0.8115 -0.1676
 1004MOL0     H35523  -0.208   9.311   5.382  0.2089 -0.7972 -1.3821
 1004MOL0     H35524  -0.042   8.817   5.401  0.6448  0.6869 -0.0659
 1004MOL0     H35525   0.137   8.654   5.361  0.8902 -0.6298 -0.1998
 1004MOL0     H35526   1.955   7.999   5.117  0.0698  1.6412 -1.4224
 1004MOL0     H35527   2.173   7.938   5.114  0.4613  2.1621 -0.9299
 1004MOL0     H35528   2.634   7.886   5.048  1.8904  1.8910 -1.7768
 1004MOL0     H35529   2.866   7.798   5.103  0.3899 -0.6359  0.2125
 1004MOL0     H35530   3.031   7.845   5.501  0.2893  0.4876 -1.1249
 1004MOL0     H35531   2.940   7.689   5.513 -0.8638  1.5592 -0.1112
 1004MOL0     H35532   3.202   7.734   5.362  1.4605  0.2834 -0.1187
 1004MOL0     H35533   3.119   7.573   5.397 -2.9529  0.6156 -0.0815
 1004MOL0     H35534   3.198   7.590   5.633  1.5116  0.8163  2.5435
 1004MOL0     H35535   3.235   7.752   5.616 -2.7786 -0.7347  0.2550
 1004MOL0     H35536   3.403   7.703   5.453 -1.5479 -0.7207 -0.2234
 1004MOL0     H35537   3.381   7.527   5.467  0.9921 -0.6880  1.5215
 1004MOL0     H35538   3.554   7.588   5.844 -0.9897 -1.8275 -0.2347
 1004MOL0     H35539   2.769   7.827   5.525  1.2012  1.0739  0.9387
 1004MOL0     H35540   2.546   7.907   5.465 -2.2221 -3.7240 -0.8805
 1005MOL0     O35541   5.247   1.972   7.722 -0.0778 -0.7775  0.6615
 1005MOL0     C35542   5.306   1.886   7.661 -0.1833 -1.0151 -0.3710
 1005MOL0     O35543   5.265   1.753   7.648  0.1407 -0.4065 -0.1216
 1005MOL0     C35544   5.129   1.729   7.672 -0.6856  0.8209  0.5105
 1005MOL0     C35545   5.034   1.816   7.623  0.0054 -0.2490 -0.9754
 1005MOL0     C35546   4.897   1.778   7.647  1.1486 -0.3358 -1.1950
 1005MOL0     C35547   4.859   1.661   7.713 -0.5125 -0.2955  0.0586
 1005MOL0     O35548   4.728   1.649   7.728  0.3759  0.0375  0.0769
 1005MOL0     C35549   4.689   1.524   7.790  0.3431  0.3991  0.9072
 1005MOL0     C35550   4.537   1.494   7.790  0.4335 -0.5781 -0.5699
 1005MOL0     C35551   4.521   1.338   7.822  0.2639 -0.8119  1.5783
 1005MOL0     C35552   4.378   1.310   7.874 -0.2257 -0.2927  0.6429
 1005MOL0     C35553   4.343   1.166   7.890 -0.0925  0.3087  0.0568
 1005MOL0     C35554   4.193   1.156   7.941 -0.4067  0.9523 -0.1737
 1005MOL0     C35555   4.178   1.013   7.984 -0.8541  0.1936  0.0430
 1005MOL0     C35556   4.048   0.985   8.061  0.2724 -0.5640 -0.2644
 1005MOL0     N35557   3.928   1.002   7.978 -0.0020  0.1608  0.4911
 1005MOL0     C35558   3.858   0.900   7.914  0.4059 -0.7682  0.7985
 1005MOL0     C35559   3.749   0.963   7.858 -0.3240  0.5431 -0.1430
 1005MOL0     C35560   3.634   0.900   7.780  0.1607 -0.3954 -0.5690
 1005MOL0     C35561   3.677   0.800   7.674  0.1521  0.7943  0.3376
 1005MOL0     C35562   3.560   0.718   7.621 -1.1057  0.1063 -0.0416
 1005MOL0     C35563   3.607   0.642   7.498 -0.1294  0.1955  0.3229
 1005MOL0     O35564   3.483   0.576   7.458 -0.3424  0.0811 -0.0927
 1005MOL0     C35565   3.473   0.496   7.350  0.1321 -0.1354  0.3331
 1005MOL0     C35566   3.350   0.430   7.323  0.2537  0.1906 -0.0173
 1005MOL0     C35567   3.331   0.353   7.209  0.3945 -1.0950  0.4181
 1005MOL0     C35568   3.186   0.305   7.192  0.2481 -0.0728  0.1849
 1005MOL0     C35569   3.429   0.329   7.115  0.7216 -0.1798 -0.5178
 1005MOL0     C35570   3.417   0.266   6.981 -0.3625  0.3258 -0.3372
 1005MOL0     O35571   3.472   0.324   6.868  0.6060 -0.0450 -0.0561
 1005MOL0     C35572   3.471   0.465   6.867 -0.3912 -0.0617  0.7121
 1005MOL0     C35573   3.585   0.548   6.837 -0.4375  0.4284  0.3173
 1005MOL0     C35574   3.590   0.686   6.832  0.5310  0.3086 -0.6562
 1005MOL0     C35575   3.465   0.757   6.832  0.7443  0.8511 -0.1411
 1005MOL0     O35576   3.449   0.889   6.794 -0.4088 -0.4339  0.5080
 1005MOL0     C35577   3.497   0.984   6.891  0.8610 -0.8168  0.0969
 1005MOL0     C35578   3.447   1.128   6.873  0.7203  0.3037 -0.7714
 1005MOL0     C35579   3.305   1.155   6.911 -0.1858  0.0122 -0.3713
 1005MOL0     C35580   3.276   1.145   7.061 -0.7049 -0.1872 -0.7816
 1005MOL0     C35581   3.126   1.110   7.082  0.8953  0.3776 -0.8213
 1005MOL0     C35582   3.044   1.240   7.074  0.3269  0.1048  0.1686
 1005MOL0     C35583   2.891   1.225   7.116  0.3157 -0.0560  0.7809
 1005MOL0     C35584   2.832   1.371   7.121  1.1284 -0.3235 -0.1177
 1005MOL0    Cl35585   2.656   1.342   7.138  0.6513 -0.0398  0.1590
 1005MOL0     C35586   3.344   0.682   6.854 -0.0615 -0.0756  0.7943
 1005MOL0     C35587   3.348   0.538   6.868  0.5058  0.4082  0.1721
 1005MOL0     O35588   3.369   0.151   6.984 -0.0378  0.6821 -0.3202
 1005MOL0     C35589   3.556   0.387   7.146  0.0680 -0.3719 -0.3654
 1005MOL0     C35590   3.574   0.475   7.259 -0.2987  0.7811  0.5480
 1005MOL0     N35591   3.742   1.090   7.900  0.7238 -0.2055  0.0341
 1005MOL0     N35592   3.836   1.107   7.979 -0.6565  0.1543 -0.2760
 1005MOL0     C35593   4.961   1.590   7.769  0.0649 -0.0219 -0.2114
 1005MOL0     C35594   5.093   1.607   7.738  0.2564  0.2015  0.1872
 1005MOL0     C35595   5.435   1.937   7.599 -0.3845 -0.0996  0.1280
 1005MOL0     C35596   5.487   2.064   7.631 -0.4276 -0.5846 -0.2390
 1005MOL0     C35597   5.602   2.122   7.565  0.1221 -0.1942  0.2157
 1005MOL0     C35598   5.675   2.034   7.478  0.5294 -0.1022  0.9260
 1005MOL0     O35599   5.775   2.079   7.399 -0.1407  0.0206  0.3276
 1005MOL0     C35600   5.878   2.160   7.463 -0.0390  0.5998  0.2455
 1005MOL0     C35601   6.000   2.078   7.430 -0.3257 -0.1760  0.3411
 1005MOL0     C35602   6.122   2.143   7.500 -0.2626  0.4510 -0.1533
 1005MOL0     C35603   6.231   2.041   7.536  0.6458 -0.2678  0.5646
 1005MOL0     C35604   6.289   1.983   7.414  0.3501  0.0569 -0.5578
 1005MOL0     C35605   6.338   1.938   7.313 -0.2263  0.6913 -0.2477
 1005MOL0     C35606   5.625   1.907   7.460 -0.8731 -0.4133 -0.4817
 1005MOL0     C35607   5.509   1.864   7.515 -0.3367  0.7077 -0.5509
 1005MOL0     H35608   5.053   1.907   7.567  0.0689 -0.7082 -1.7026
 1005MOL0     H35609   4.822   1.850   7.615 -0.8667 -1.7253  0.1492
 1005MOL0     H35610   4.741   1.450   7.728  0.8188  1.3435  0.1668
 1005MOL0     H35611   4.723   1.515   7.894 -0.9803  3.8486  1.7795
 1005MOL0     H35612   4.476   1.548   7.863  0.1026 -0.0940 -1.1894
 1005MOL0     H35613   4.496   1.508   7.689 -3.2642  1.0667  0.9592
 1005MOL0     H35614   4.542   1.276   7.735  0.9309 -0.6750  1.6301
 1005MOL0     H35615   4.595   1.304   7.895  1.1889 -4.1412 -0.6983
 1005MOL0     H35616   4.359   1.368   7.965 -4.2146  0.1890 -0.3123
 1005MOL0     H35617   4.310   1.349   7.798 -2.6995 -3.5298  1.0041
 1005MOL0     H35618   4.363   1.119   7.793  4.3954 -0.7401  1.2900
 1005MOL0     H35619   4.406   1.119   7.966 -1.4975 -0.6080  0.6992
 1005MOL0     H35620   4.173   1.228   8.021  0.5507  3.2885 -1.9318
 1005MOL0     H35621   4.120   1.179   7.862 -0.6489  0.3988 -0.1130
 1005MOL0     H35622   4.188   0.938   7.905  0.6985  0.5464 -0.1193
 1005MOL0     H35623   4.258   0.983   8.052  0.0617 -0.6404 -1.3502
 1005MOL0     H35624   4.049   1.054   8.145 -2.5266 -1.7493  0.8671
 1005MOL0     H35625   4.036   0.884   8.100 -0.3099 -0.9593 -1.4039
 1005MOL0     H35626   3.886   0.796   7.896 -1.0859 -1.3807  1.8150
 1005MOL0     H35627   3.563   0.861   7.854  0.5576  0.9283  0.5600
 1005MOL0     H35628   3.578   0.979   7.729  1.5567  0.3220 -1.0344
 1005MOL0     H35629   3.751   0.728   7.711  0.8140  1.0000 -0.5634
 1005MOL0     H35630   3.728   0.856   7.595 -0.4202 -1.3693 -1.6869
 1005MOL0     H35631   3.478   0.788   7.602  0.8455  2.2657 -0.9882
 1005MOL0     H35632   3.543   0.646   7.701 -0.8756  0.7997  0.6460
 1005MOL0     H35633   3.696   0.582   7.523  1.0918  2.1249  0.8655
 1005MOL0     H35634   3.636   0.715   7.422 -1.3871 -0.4867 -0.8554
 1005MOL0     H35635   3.267   0.435   7.393  0.1223  4.6400 -0.2309
 1005MOL0     H35636   3.169   0.265   7.092  0.3791 -1.0031  0.5164
 1005MOL0     H35637   3.168   0.214   7.251  1.2723  0.3711  1.2330
 1005MOL0     H35638   3.115   0.386   7.209 -1.5929 -1.3735 -0.9469
 1005MOL0     H35639   3.677   0.489   6.836  0.1188  1.2332 -2.2168
 1005MOL0     H35640   3.681   0.734   6.797  0.2861 -0.7035 -2.8397
 1005MOL0     H35641   3.471   0.958   6.994 -0.9305  1.0055  0.1517
 1005MOL0     H35642   3.605   0.988   6.873  0.7084 -0.2968 -0.7361
 1005MOL0     H35643   3.521   1.180   6.936  0.5719 -2.6343  2.0577
 1005MOL0     H35644   3.466   1.160   6.770  0.5623  0.7072 -0.6773
 1005MOL0     H35645   3.236   1.085   6.863 -4.0012  1.3550  2.6787
 1005MOL0     H35646   3.273   1.255   6.881 -0.0872  1.0221  2.5788
 1005MOL0     H35647   3.342   1.074   7.111  2.0837  2.3761 -0.5666
 1005MOL0     H35648   3.297   1.238   7.113  1.4354 -0.7736 -0.5243
 1005MOL0     H35649   3.117   1.072   7.184 -1.4627 -1.3523 -1.5869
 1005MOL0     H35650   3.087   1.027   7.023 -0.6365  0.9976 -0.7263
 1005MOL0     H35651   3.094   1.307   7.144  2.6164  0.3041 -1.5409
 1005MOL0     H35652   3.046   1.290   6.976 -2.9010 -1.3845 -0.7920
 1005MOL0     H35653   2.875   1.170   7.209 -3.5536  0.1767  0.4118
 1005MOL0     H35654   2.839   1.167   7.040  1.6721 -0.8380  0.4091
 1005MOL0     H35655   2.854   1.440   7.039  1.4095  0.7831  0.8452
 1005MOL0     H35656   2.858   1.434   7.207 -2.1062  1.0105  0.0434
 1005MOL0     H35657   3.252   0.739   6.844 -0.7903 -1.1769  0.9962
 1005MOL0     H35658   3.255   0.482   6.874 -0.6545  1.9464 -1.8729
 1005MOL0     H35659   3.637   0.381   7.073  0.1664 -0.5067 -0.2451
 1005MOL0     H35660   3.671   0.521   7.274  0.4124 -0.4124 -0.2149
 1005MOL0     H35661   4.946   1.495   7.819  1.3273 -0.2722 -0.2751
 1005MOL0     H35662   5.162   1.535   7.780 -0.1415  0.6530  1.6976
 1005MOL0     H35663   5.448   2.125   7.711  3.8792  1.5461  0.5382
 1005MOL0     H35664   5.636   2.225   7.577 -0.2791  0.2129 -1.7005
 1005MOL0     H35665   5.887   2.261   7.422 -0.7785  0.4013 -0.4192
 1005MOL0     H35666   5.853   2.176   7.568 -1.7898  0.8215 -0.1789
 1005MOL0     H35667   6.023   2.069   7.323  1.5761  1.8206  0.5144
 1005MOL0     H35668   5.988   1.973   7.460  2.0817 -0.8610 -0.7582
 1005MOL0     H35669   6.084   2.173   7.598 -0.2007 -2.3168  0.8267
 1005MOL0     H35670   6.161   2.232   7.452  1.6413 -0.5480 -0.5435
 1005MOL0     H35671   6.188   1.959   7.596  1.5715 -0.1395  1.4354
 1005MOL0     H35672   6.313   2.084   7.594  0.2365 -0.5808  1.4072
 1005MOL0     H35673   6.367   1.908   7.214 -1.3160  0.7520 -0.5959
 1005MOL0     H35674   5.676   1.842   7.388  0.4208 -0.1289  0.1532
 1005MOL0     H35675   5.470   1.769   7.480  0.4110  0.3122 -0.3064
 1006MOL0     O35676   3.738   6.718   3.826 -0.5706  0.4492 -0.3575
 1006MOL0     C35677   3.747   6.645   3.729  0.6991 -0.3302 -0.2939
 1006MOL0     O35678   3.860   6.592   3.676 -0.0047 -0.9594 -0.2575
 1006MOL0     C35679   3.981   6.586   3.746 -1.2782  1.0121 -0.5776
 1006MOL0     C35680   3.997   6.570   3.885  0.1129 -1.1031 -0.0003
 1006MOL0     C35681   4.124   6.560   3.940 -0.3027  0.4302  1.0173
 1006MOL0     C35682   4.238   6.540   3.862 -0.0392  0.3824  0.6310
 1006MOL0     O35683   4.361   6.510   3.926 -0.4419  0.1556  0.4676
 1006MOL0     C35684   4.488   6.508   3.850  1.5471  0.1023  0.1926
 1006MOL0     C35685   4.614   6.510   3.927 -0.1359  0.0297 -1.0780
 1006MOL0     C35686   4.736   6.486   3.841  0.5231 -0.0870 -0.3329
 1006MOL0     C35687   4.869   6.488   3.923 -0.0975  0.5248 -0.0001
 1006MOL0     C35688   4.983   6.467   3.827  0.3995  1.1170  0.4438
 1006MOL0     C35689   5.113   6.522   3.893  0.6270  0.9103  0.3780
 1006MOL0     C35690   5.160   6.432   4.006  0.1814 -0.4191  0.0464
 1006MOL0     C35691   5.296   6.457   4.067  0.6534  0.0976  0.9236
 1006MOL0     N35692   5.417   6.410   3.991  0.1514 -0.0535  0.9278
 1006MOL0     C35693   5.409   6.340   3.872  0.0607  0.3807  0.2819
 1006MOL0     C35694   5.541   6.342   3.828  0.8166 -0.1501  0.6083
 1006MOL0     C35695   5.585   6.285   3.693  0.3997 -0.4019  0.6309
 1006MOL0     C35696   5.631   6.141   3.701  0.4621 -0.2168 -0.4186
 1006MOL0     C35697   5.514   6.044   3.732 -0.3066  0.1690 -0.3213
 1006MOL0     C35698   5.401   6.015   3.628 -0.3495 -0.0397  0.2028
 1006MOL0     O35699   5.284   6.048   3.699 -0.1255  0.1575  0.1056
 1006MOL0     C35700   5.165   6.011   3.651 -0.4681 -0.1255 -0.3755
 1006MOL0     C35701   5.147   5.944   3.530  1.1582  1.2424 -0.1705
 1006MOL0     C35702   5.018   5.924   3.476  0.1303  0.4187  1.2975
 1006MOL0     C35703   5.011   5.847   3.345  0.4708 -0.4723 -0.0146
 1006MOL0     C35704   4.896   5.973   3.546  0.1423 -0.0604  0.4911
 1006MOL0     C35705   4.753   5.972   3.496  0.0550  0.4600  0.2635
 1006MOL0     O35706   4.656   6.009   3.586 -0.1115  0.1116  0.3979
 1006MOL0     C35707   4.541   6.057   3.537  0.2486  1.4161 -0.3818
 1006MOL0     C35708   4.515   6.195   3.527  0.3698  0.0339 -0.7548
 1006MOL0     C35709   4.384   6.233   3.498  0.0500  0.3629  0.2608
 1006MOL0     C35710   4.286   6.136   3.470 -1.0004 -0.5009 -0.0318
 1006MOL0     O35711   4.162   6.165   3.436  0.2383 -0.1194 -0.1540
 1006MOL0     C35712   4.129   6.297   3.392  0.6824 -0.5794 -0.0141
 1006MOL0     C35713   3.995   6.291   3.321  0.3122 -0.5172  0.1101
 1006MOL0     C35714   3.966   6.417   3.233  0.1028  0.5724 -0.2290
 1006MOL0     C35715   3.832   6.393   3.150 -0.2996 -0.2708 -0.0437
 1006MOL0     C35716   3.815   6.520   3.066 -0.0272 -0.2628  0.5037
 1006MOL0     C35717   3.686   6.532   2.991  0.5508 -0.8933  0.0891
 1006MOL0     C35718   3.662   6.681   2.946  0.4999 -0.1302 -0.6338
 1006MOL0     C35719   3.744   6.722   2.815 -0.0492 -0.2782 -0.5818
 1006MOL0    Cl35720   3.895   6.812   2.857  0.0745 -0.4686 -0.4851
 1006MOL0     C35721   4.313   6.001   3.486 -0.7408 -0.0500  0.2893
 1006MOL0     C35722   4.440   5.957   3.520  0.0297  0.3380 -0.0546
 1006MOL0     O35723   4.741   5.947   3.373 -0.5940  0.1771  0.3831
 1006MOL0     C35724   4.922   6.028   3.674  0.1449 -1.1631  0.0844
 1006MOL0     C35725   5.058   6.046   3.718  0.3054  0.5440 -0.3130
 1006MOL0     N35726   5.627   6.394   3.925  0.4014  0.1481  0.0225
 1006MOL0     N35727   5.547   6.436   4.020 -0.2262  0.3217  0.0322
 1006MOL0     C35728   4.226   6.543   3.723  0.8722 -0.6254 -0.2237
 1006MOL0     C35729   4.096   6.575   3.669  0.2517  0.8899  0.6505
 1006MOL0     C35730   3.625   6.630   3.647 -0.2941  0.2999  0.7434
 1006MOL0     C35731   3.622   6.538   3.539 -0.1884 -0.0604 -0.8857
 1006MOL0     C35732   3.508   6.530   3.460 -0.1944 -0.7323 -0.4059
 1006MOL0     C35733   3.385   6.584   3.507 -0.3970 -0.0902 -0.1249
 1006MOL0     O35734   3.278   6.556   3.425 -0.0149 -0.2297 -0.1517
 1006MOL0     C35735   3.152   6.545   3.491  0.2496  0.3115  0.5889
 1006MOL0     C35736   3.083   6.425   3.429 -0.9288 -0.1380 -0.5362
 1006MOL0     C35737   2.965   6.360   3.509 -0.0590  0.1403  0.2473
 1006MOL0     C35738   2.890   6.471   3.591  0.0698 -0.0895 -0.0228
 1006MOL0     C35739   2.749   6.426   3.625  0.3044 -0.9304 -0.0517
 1006MOL0     C35740   2.636   6.407   3.655  0.2806  0.5932 -0.2754
 1006MOL0     C35741   3.382   6.669   3.617  0.1217 -1.1542  0.4842
 1006MOL0     C35742   3.499   6.690   3.682 -0.7924  0.2562 -0.1284
 1006MOL0     H35743   3.914   6.573   3.954 -1.2594 -1.3637 -1.5880
 1006MOL0     H35744   4.133   6.549   4.047  0.0043 -1.3395  0.8508
 1006MOL0     H35745   4.480   6.415   3.793 -2.1374 -2.4031  4.1336
 1006MOL0     H35746   4.488   6.593   3.782 -3.5830  2.2716  2.3364
 1006MOL0     H35747   4.623   6.607   3.978  0.4813 -0.3972 -0.3492
 1006MOL0     H35748   4.615   6.443   4.013  0.7471  0.2266 -0.9237
 1006MOL0     H35749   4.722   6.397   3.780 -1.2131 -2.2872  3.0027
 1006MOL0     H35750   4.735   6.567   3.767 -0.9664 -1.5840 -2.0452
 1006MOL0     H35751   4.881   6.581   3.979 -0.7169  0.0769  0.9058
 1006MOL0     H35752   4.860   6.418   4.007  0.5127  1.4606  0.8731
 1006MOL0     H35753   4.990   6.365   3.788  1.7420  0.8794  1.2474
 1006MOL0     H35754   4.966   6.533   3.741 -1.9223  1.9801  1.4535
 1006MOL0     H35755   5.190   6.521   3.816 -3.2308  0.9980 -3.8810
 1006MOL0     H35756   5.096   6.620   3.937 -0.7675  0.9440 -0.1983
 1006MOL0     H35757   5.091   6.441   4.091 -0.5323 -1.3968 -0.4055
 1006MOL0     H35758   5.150   6.326   3.985 -1.3973 -0.1924 -0.5214
 1006MOL0     H35759   5.291   6.405   4.163 -2.8453 -0.9931  0.2825
 1006MOL0     H35760   5.300   6.564   4.092 -2.0823  0.0245  1.9311
 1006MOL0     H35761   5.320   6.302   3.825  1.6704 -2.7731 -0.5013
 1006MOL0     H35762   5.497   6.290   3.629  0.2290  3.4515  0.9297
 1006MOL0     H35763   5.662   6.347   3.645  1.8483 -0.6403  2.5543
 1006MOL0     H35764   5.714   6.138   3.772 -0.5021 -0.3332  0.7359
 1006MOL0     H35765   5.669   6.109   3.603  1.0404  1.8767 -0.9194
 1006MOL0     H35766   5.461   6.071   3.824  3.2956 -0.6195  2.1741
 1006MOL0     H35767   5.565   5.949   3.749  0.3897  0.7294  0.8459
 1006MOL0     H35768   5.402   5.906   3.625 -1.2436 -0.1761  2.6887
 1006MOL0     H35769   5.399   6.045   3.523 -0.4935 -0.6972  0.0113
 1006MOL0     H35770   5.229   5.897   3.478 -0.8294 -0.6510 -1.7982
 1006MOL0     H35771   4.932   5.772   3.349  0.1704 -0.1638 -0.0795
 1006MOL0     H35772   4.987   5.910   3.258  1.1711 -2.5809 -1.8290
 1006MOL0     H35773   5.105   5.794   3.330  1.0409  0.3536  0.5370
 1006MOL0     H35774   4.594   6.267   3.547  0.2867 -0.3818  1.3052
 1006MOL0     H35775   4.364   6.340   3.497  0.4755  0.4431  0.2954
 1006MOL0     H35776   4.128   6.356   3.484  0.7950  0.4677 -0.6696
 1006MOL0     H35777   4.200   6.343   3.323  1.2968 -3.8032 -1.7417
 1006MOL0     H35778   3.990   6.205   3.254  0.9979  0.4360 -1.2118
 1006MOL0     H35779   3.921   6.279   3.400  1.7632  1.5267  1.8853
 1006MOL0     H35780   4.056   6.424   3.170 -0.2378 -2.0295 -1.1090
 1006MOL0     H35781   3.956   6.510   3.289 -0.9213  1.7075 -2.1745
 1006MOL0     H35782   3.845   6.302   3.091  1.3661 -0.4703  0.5742
 1006MOL0     H35783   3.763   6.374   3.232  0.6724 -0.0911  0.8374
 1006MOL0     H35784   3.896   6.512   2.994 -2.2037 -1.6502 -1.9886
 1006MOL0     H35785   3.829   6.606   3.133 -2.5975  1.8024 -1.3617
 1006MOL0     H35786   3.680   6.453   2.916  0.8480 -1.6733  0.8669
 1006MOL0     H35787   3.607   6.523   3.066 -0.1773  2.1117 -0.1747
 1006MOL0     H35788   3.684   6.753   3.025 -1.0059 -0.7015  0.3772
 1006MOL0     H35789   3.556   6.692   2.919 -0.0226  0.4181  1.4363
 1006MOL0     H35790   3.691   6.799   2.758  0.6023  0.6778  0.0864
 1006MOL0     H35791   3.777   6.637   2.755 -1.4297 -1.4344  0.2556
 1006MOL0     H35792   4.233   5.936   3.452  0.1712 -0.0490 -2.0851
 1006MOL0     H35793   4.446   5.849   3.513 -1.6499  0.2230 -0.2111
 1006MOL0     H35794   4.847   6.061   3.744  0.7884 -0.1210  0.3088
 1006MOL0     H35795   5.076   6.083   3.819  0.4788  1.6393 -0.7293
 1006MOL0     H35796   4.305   6.533   3.649  0.9484  0.4258 -0.2913
 1006MOL0     H35797   4.085   6.604   3.565  0.3426  0.6307  0.5682
 1006MOL0     H35798   3.704   6.479   3.498 -0.5659 -1.0860 -0.2152
 1006MOL0     H35799   3.505   6.456   3.381  0.1702 -1.0756 -0.1028
 1006MOL0     H35800   3.171   6.526   3.597  0.7207  1.0382  0.6449
 1006MOL0     H35801   3.098   6.639   3.473  2.4132  1.4448 -0.3781
 1006MOL0     H35802   3.143   6.335   3.411 -3.1158 -2.5037  2.8013
 1006MOL0     H35803   3.049   6.455   3.329 -0.5350  0.9528 -0.3520
 1006MOL0     H35804   3.006   6.287   3.579 -1.1531 -1.2987 -0.5732
 1006MOL0     H35805   2.903   6.303   3.439 -0.3271 -1.5285  1.7988
 1006MOL0     H35806   2.877   6.562   3.533 -0.4084  0.8987  1.5479
 1006MOL0     H35807   2.947   6.494   3.682  0.7296 -0.3654 -0.3588
 1006MOL0     H35808   2.537   6.373   3.676  1.0060 -1.8219 -0.4866
 1006MOL0     H35809   3.293   6.721   3.651  1.8110  2.1858  0.1978
 1006MOL0     H35810   3.485   6.745   3.775 -3.5361  0.8082 -0.7665
 1007MOL0     O35811   8.906   5.251   3.471  0.2416  1.3444 -0.3765
 1007MOL0     C35812   8.988   5.208   3.549  0.3011 -0.2632 -0.7646
 1007MOL0     O35813   8.966   5.140   3.667 -0.2470 -0.4349  0.5488
 1007MOL0     C35814   8.833   5.117   3.691 -1.2892  0.3059  0.3815
 1007MOL0     C35815   8.779   4.991   3.681  0.5240 -0.3530 -0.0915
 1007MOL0     C35816   8.650   4.961   3.706  0.4905  0.0308 -0.3190
 1007MOL0     C35817   8.560   5.060   3.740 -0.2160  0.0079 -0.5856
 1007MOL0     O35818   8.428   5.028   3.765 -0.0607 -0.5063  0.1557
 1007MOL0     C35819   8.372   4.900   3.736  0.2614 -0.0569  0.3807
 1007MOL0     C35820   8.218   4.910   3.770 -0.1809 -0.1169 -0.0465
 1007MOL0     C35821   8.141   4.785   3.767  0.3117  0.8966  0.2770
 1007MOL0     C35822   8.097   4.757   3.622 -0.6554  0.5981  0.3314
 1007MOL0     C35823   8.035   4.617   3.603 -0.2330 -0.3655  0.0067
 1007MOL0     C35824   7.902   4.601   3.657 -0.0634  0.7518  0.3311
 1007MOL0     C35825   7.844   4.467   3.612  0.0875  0.0590 -0.1831
 1007MOL0     C35826   7.716   4.423   3.688 -0.0583 -0.3204 -0.2066
 1007MOL0     N35827   7.614   4.524   3.686  0.8020 -0.3665 -1.0324
 1007MOL0     C35828   7.520   4.550   3.590 -0.3468 -0.3755 -0.0446
 1007MOL0     C35829   7.441   4.643   3.648 -0.2151  0.4719 -0.0033
 1007MOL0     C35830   7.311   4.687   3.592 -0.2042 -0.3676  0.1494
 1007MOL0     C35831   7.196   4.646   3.683  0.2102  0.3727 -0.1502
 1007MOL0     C35832   7.058   4.683   3.624 -0.7525  0.7650 -1.0434
 1007MOL0     C35833   7.052   4.827   3.597  0.4498 -0.5254  0.3844
 1007MOL0     O35834   6.928   4.860   3.535 -0.1822  0.1512  0.4314
 1007MOL0     C35835   6.816   4.886   3.601 -0.0597  0.8685 -0.4976
 1007MOL0     C35836   6.708   4.923   3.524 -0.6318 -0.3857  0.3718
 1007MOL0     C35837   6.591   4.959   3.582  0.1783 -0.7190  0.0514
 1007MOL0     C35838   6.476   5.013   3.503  0.5543 -0.0101  1.0890
 1007MOL0     C35839   6.571   4.937   3.725  0.1276  0.1019  0.2905
 1007MOL0     C35840   6.441   4.952   3.801 -0.8397  0.5827  0.3371
 1007MOL0     O35841   6.453   4.959   3.940 -0.4985  0.1785 -0.3664
 1007MOL0     C35842   6.341   4.925   4.006  0.7556  0.4120  0.2713
 1007MOL0     C35843   6.293   4.796   4.026  0.3992 -0.8492  0.1222
 1007MOL0     C35844   6.184   4.775   4.107 -0.9163  0.2974 -0.0991
 1007MOL0     C35845   6.121   4.882   4.174 -0.0507 -0.4383  0.2911
 1007MOL0     O35846   6.026   4.863   4.271 -0.7258 -0.2090  0.1756
 1007MOL0     C35847   6.040   4.747   4.357 -0.2553 -0.3408  0.2017
 1007MOL0     C35848   5.938   4.758   4.469 -0.0228 -0.1910  0.1471
 1007MOL0     C35849   5.788   4.763   4.422 -0.7338  0.6989  0.4360
 1007MOL0     C35850   5.707   4.647   4.485 -0.1794  0.9733 -0.2580
 1007MOL0     C35851   5.552   4.657   4.479  0.3825 -0.0733 -0.0569
 1007MOL0     C35852   5.501   4.760   4.576 -0.3766 -0.3833 -0.9894
 1007MOL0     C35853   5.349   4.792   4.557  0.6734 -0.0079  0.2776
 1007MOL0     C35854   5.245   4.677   4.608 -0.1030  0.3129  0.7343
 1007MOL0    Cl35855   5.081   4.687   4.552  0.0127  0.1213  0.5465
 1007MOL0     C35856   6.150   5.012   4.138  0.5694  0.1764 -0.2737
 1007MOL0     C35857   6.257   5.027   4.056 -0.3971 -0.6942  1.0738
 1007MOL0     O35858   6.335   4.940   3.737  0.1205 -0.0339 -0.2415
 1007MOL0     C35859   6.678   4.889   3.798 -0.6121 -0.8643  0.0018
 1007MOL0     C35860   6.799   4.862   3.739  0.4250  0.3449  0.3348
 1007MOL0     N35861   7.491   4.676   3.780  0.3420  1.0589  0.1517
 1007MOL0     N35862   7.586   4.593   3.798 -0.0299  0.0178 -0.4121
 1007MOL0     C35863   8.605   5.185   3.758 -0.2965 -0.6411 -0.0171
 1007MOL0     C35864   8.744   5.219   3.732 -1.3916  0.3169 -0.8523
 1007MOL0     C35865   9.119   5.255   3.504 -0.7309  0.4477 -0.4051
 1007MOL0     C35866   9.229   5.239   3.588  0.1370 -0.3270 -0.2266
 1007MOL0     C35867   9.358   5.285   3.563  0.3179 -0.4400 -0.2747
 1007MOL0     C35868   9.374   5.353   3.448  0.2791 -0.2634  0.6615
 1007MOL0     O35869   9.500   5.406   3.436  0.5805 -0.1738 -0.1757
 1007MOL0     C35870   9.534   5.527   3.364 -0.3525  0.5243  0.6186
 1007MOL0     C35871   9.679   5.571   3.404  0.0608 -0.4928 -0.1120
 1007MOL0     C35872   9.708   5.710   3.345  0.6315  0.6566 -0.5070
 1007MOL0     C35873   9.866   5.717   3.326  0.0956 -0.5061 -0.3693
 1007MOL0     C35874   9.942   5.718   3.456 -0.4637  1.1682  0.3998
 1007MOL0     C35875  10.016   5.696   3.552  0.1753 -1.2342 -0.4885
 1007MOL0     C35876   9.269   5.382   3.358  0.2294 -0.2095 -0.1961
 1007MOL0     C35877   9.141   5.320   3.384  0.1710  1.0543  0.2002
 1007MOL0     H35878   8.852   4.913   3.660 -2.3315 -2.7121 -2.0300
 1007MOL0     H35879   8.617   4.859   3.692 -2.1267 -0.1428  4.8112
 1007MOL0     H35880   8.383   4.885   3.629  2.0185 -1.2959  0.6804
 1007MOL0     H35881   8.420   4.820   3.793  3.2584  0.0313 -1.7908
 1007MOL0     H35882   8.217   4.942   3.875 -2.5977  0.7626 -0.2710
 1007MOL0     H35883   8.177   4.977   3.694 -0.4796 -0.0412  0.1760
 1007MOL0     H35884   8.199   4.700   3.803 -3.7420 -2.0379  0.6186
 1007MOL0     H35885   8.058   4.785   3.838 -0.3079 -2.2514 -0.2961
 1007MOL0     H35886   8.019   4.823   3.583 -2.4409 -0.3761  2.0854
 1007MOL0     H35887   8.184   4.759   3.556 -2.5991 -1.3272 -2.5344
 1007MOL0     H35888   8.022   4.614   3.495 -2.5553  0.2729  0.2297
 1007MOL0     H35889   8.098   4.532   3.633  1.2870  0.5319 -0.5139
 1007MOL0     H35890   7.910   4.595   3.766  1.2597 -1.5333  0.1592
 1007MOL0     H35891   7.833   4.683   3.636 -1.5747 -1.2509 -3.3062
 1007MOL0     H35892   7.821   4.474   3.505  0.4213 -0.1121 -0.2696
 1007MOL0     H35893   7.916   4.389   3.638  2.9559  1.9749 -1.7838
 1007MOL0     H35894   7.740   4.390   3.790 -0.9488 -0.1882  0.0586
 1007MOL0     H35895   7.673   4.342   3.627 -2.4785  0.7476 -0.0334
 1007MOL0     H35896   7.504   4.517   3.488 -0.0474  1.8749 -0.8680
 1007MOL0     H35897   7.326   4.795   3.588  1.8898 -0.5887  1.0152
 1007MOL0     H35898   7.297   4.647   3.492  1.1994 -1.2499  0.2802
 1007MOL0     H35899   7.208   4.693   3.781  1.1494 -2.4647  1.2247
 1007MOL0     H35900   7.193   4.538   3.699  2.6858  0.5619  2.3830
 1007MOL0     H35901   6.978   4.654   3.693  0.3017 -0.5096 -0.3080
 1007MOL0     H35902   7.041   4.635   3.527  2.5165 -0.3601 -1.1563
 1007MOL0     H35903   7.123   4.860   3.521 -2.2599  3.6842 -0.5960
 1007MOL0     H35904   7.063   4.892   3.684  0.8803 -0.3717  0.2170
 1007MOL0     H35905   6.721   4.926   3.416 -2.8192  0.9918  0.0841
 1007MOL0     H35906   6.415   4.926   3.475  0.2367 -0.2964  2.5562
 1007MOL0     H35907   6.427   5.091   3.563  0.0532 -0.5397  1.3782
 1007MOL0     H35908   6.502   5.065   3.411  0.2239 -2.5179 -0.5163
 1007MOL0     H35909   6.354   4.712   3.994  0.4261  0.3576 -3.3939
 1007MOL0     H35910   6.161   4.673   4.135 -1.3699  0.5812  0.5871
 1007MOL0     H35911   6.026   4.656   4.298  2.4719  0.0215 -1.1264
 1007MOL0     H35912   6.135   4.756   4.411  0.3369 -0.3265 -0.8337
 1007MOL0     H35913   5.953   4.672   4.534  1.3693  0.6257  0.9617
 1007MOL0     H35914   5.958   4.849   4.526  0.2053 -0.2907  0.2290
 1007MOL0     H35915   5.783   4.748   4.314  0.4219  1.2048  0.2970
 1007MOL0     H35916   5.746   4.858   4.455 -0.7280  0.1824  2.0374
 1007MOL0     H35917   5.727   4.556   4.427 -1.5230  0.0515  0.6420
 1007MOL0     H35918   5.736   4.629   4.589 -3.0408 -0.6973  0.3605
 1007MOL0     H35919   5.511   4.557   4.495 -0.4601  0.0413 -1.3269
 1007MOL0     H35920   5.509   4.682   4.381  1.3709  1.9543 -0.0372
 1007MOL0     H35921   5.519   4.732   4.680  1.5515  2.5203 -0.4216
 1007MOL0     H35922   5.559   4.850   4.555  4.2480 -2.5826  1.0274
 1007MOL0     H35923   5.334   4.813   4.450 -0.8581 -2.2339 -0.0001
 1007MOL0     H35924   5.320   4.886   4.605 -1.7891 -0.6033  0.0725
 1007MOL0     H35925   5.243   4.679   4.718 -1.5777  1.4767  0.7276
 1007MOL0     H35926   5.282   4.578   4.578 -0.6096 -0.0620  1.2988
 1007MOL0     H35927   6.100   5.090   4.195 -0.4615 -1.0706  0.5668
 1007MOL0     H35928   6.302   5.124   4.042  0.5444 -1.5123 -2.7347
 1007MOL0     H35929   6.665   4.864   3.903 -0.5884  0.9152  0.4464
 1007MOL0     H35930   6.876   4.811   3.795  1.1231 -0.4591 -1.2987
 1007MOL0     H35931   8.539   5.265   3.790 -0.6163  0.0200 -2.1706
 1007MOL0     H35932   8.781   5.320   3.745  2.6599 -0.5868 -3.3854
 1007MOL0     H35933   9.205   5.175   3.672  0.1114 -1.0736 -0.7915
 1007MOL0     H35934   9.432   5.276   3.642 -1.5856 -1.2220  1.5217
 1007MOL0     H35935   9.531   5.523   3.254 -3.4497  1.1038  0.6027
 1007MOL0     H35936   9.468   5.607   3.397 -0.0271  0.3471  1.7375
 1007MOL0     H35937   9.750   5.490   3.385  1.4282  0.3231  1.2833
 1007MOL0     H35938   9.697   5.590   3.510  1.9737  2.7568 -0.8576
 1007MOL0     H35939   9.670   5.779   3.420  0.6576  0.4727 -0.3225
 1007MOL0     H35940   9.669   5.723   3.243  0.7552  0.4435 -0.5816
 1007MOL0     H35941   9.881   5.815   3.279  2.0253  0.6159  2.3582
 1007MOL0     H35942   9.898   5.642   3.253  2.0117  0.5479 -0.6817
 1007MOL0     H35943  10.062   5.694   3.649 -3.4842  1.9520  1.6318
 1007MOL0     H35944   9.283   5.433   3.264 -2.6316  0.4823 -0.3565
 1007MOL0     H35945   9.066   5.320   3.306  0.4864 -1.8353 -0.2139
 1008MOL0     O35946   5.129   1.605   3.017 -0.6256  0.1747  0.0439
 1008MOL0     C35947   5.102   1.485   3.023  0.1710  0.3528 -0.0780
 1008MOL0     O35948   5.188   1.383   3.039  0.0979 -0.0012 -0.8219
 1008MOL0     C35949   5.315   1.408   3.078  0.3926  1.3064 -1.1324
 1008MOL0     C35950   5.417   1.382   2.990  1.4345 -0.4865 -0.7635
 1008MOL0     C35951   5.550   1.424   3.011 -0.8765  0.1423 -0.2556
 1008MOL0     C35952   5.580   1.510   3.127  0.4198 -0.4235  0.2853
 1008MOL0     O35953   5.696   1.566   3.171 -0.4566  0.2975 -0.1287
 1008MOL0     C35954   5.807   1.540   3.085  0.5309  0.3826 -0.2289
 1008MOL0     C35955   5.933   1.590   3.143 -0.5023  0.0663  0.0419
 1008MOL0     C35956   6.044   1.588   3.035 -0.3380  0.1236  0.5031
 1008MOL0     C35957   6.123   1.461   3.043 -0.5350  0.4047 -0.4057
 1008MOL0     C35958   6.244   1.468   2.953 -0.0712  0.3731 -0.1788
 1008MOL0     C35959   6.358   1.541   3.019  0.0627 -0.2196 -0.0316
 1008MOL0     C35960   6.480   1.557   2.926 -0.5813  0.2674  0.5289
 1008MOL0     C35961   6.596   1.653   2.972  1.6191 -0.7972 -0.5722
 1008MOL0     N35962   6.543   1.792   2.994  0.4724 -0.9610 -0.0507
 1008MOL0     C35963   6.444   1.855   2.914 -0.6699  0.0616  0.1940
 1008MOL0     C35964   6.416   1.969   2.979 -0.8823 -0.1613 -0.4372
 1008MOL0     C35965   6.337   2.083   2.933  0.0659  0.5999  0.0063
 1008MOL0     C35966   6.207   2.106   3.006  0.8605 -0.2293 -0.2289
 1008MOL0     C35967   6.092   2.009   2.958  0.1332 -0.4729  0.5944
 1008MOL0     C35968   5.955   2.053   3.003 -0.1499 -0.6042 -0.2823
 1008MOL0     O35969   5.847   1.951   2.998 -0.4280  0.6587  0.0661
 1008MOL0     C35970   5.726   1.989   2.947 -1.6709  0.3287 -0.4394
 1008MOL0     C35971   5.638   1.883   2.928 -0.5314  0.0226 -0.0392
 1008MOL0     C35972   5.514   1.902   2.870  0.2737  0.7025  0.1962
 1008MOL0     C35973   5.440   1.765   2.855  0.3989  0.1090 -0.0358
 1008MOL0     C35974   5.469   2.036   2.843  0.2430  0.1247 -0.3914
 1008MOL0     C35975   5.339   2.071   2.775  0.3004  0.7763 -0.2811
 1008MOL0     O35976   5.311   2.201   2.747 -0.1921  0.8530  0.8730
 1008MOL0     C35977   5.202   2.250   2.684 -0.2553  0.2313 -0.2662
 1008MOL0     C35978   5.073   2.188   2.698  0.3409  1.0791  0.2673
 1008MOL0     C35979   4.964   2.249   2.640 -0.2307 -1.4368  0.7403
 1008MOL0     C35980   4.979   2.370   2.565 -0.3759  0.6111  0.0657
 1008MOL0     O35981   4.866   2.424   2.516 -0.1820 -0.4594  0.2113
 1008MOL0     C35982   4.855   2.564   2.483  0.5078  0.5850 -0.8443
 1008MOL0     C35983   4.711   2.597   2.534  0.0393 -0.5964 -0.1089
 1008MOL0     C35984   4.661   2.735   2.489  0.5029 -0.5955 -0.2441
 1008MOL0     C35985   4.510   2.756   2.525 -0.7191  0.4686  0.3746
 1008MOL0     C35986   4.457   2.893   2.486  0.0081  0.4932 -0.3522
 1008MOL0     C35987   4.310   2.923   2.501  0.9882  0.0158 -0.3976
 1008MOL0     C35988   4.289   3.080   2.487  0.0239  0.7560  0.0222
 1008MOL0     C35989   4.194   3.144   2.587 -0.4736  0.7984 -0.1803
 1008MOL0    Cl35990   4.161   3.323   2.572 -0.1354 -0.1574  0.0685
 1008MOL0     C35991   5.102   2.431   2.544 -0.7029 -0.4239 -0.7699
 1008MOL0     C35992   5.215   2.366   2.603 -0.1131 -0.9040 -0.2606
 1008MOL0     O35993   5.270   1.973   2.740  0.0868  0.2903  0.5369
 1008MOL0     C35994   5.556   2.142   2.880 -0.4422  0.5243 -0.6160
 1008MOL0     C35995   5.683   2.118   2.922 -0.5811 -0.1418 -0.9245
 1008MOL0     N35996   6.499   1.976   3.093 -0.3890 -0.0394  0.1150
 1008MOL0     N35997   6.571   1.871   3.097  0.1566 -0.7691 -0.4944
 1008MOL0     C35998   5.471   1.535   3.213 -0.9055 -0.3176 -0.2898
 1008MOL0     C35999   5.344   1.476   3.193 -0.2113 -0.4132  0.2960
 1008MOL0     C36000   4.959   1.445   2.994 -0.9501 -0.8978  0.3362
 1008MOL0     C36001   4.853   1.522   3.039 -1.4395  0.0365  0.1336
 1008MOL0     C36002   4.723   1.474   3.029 -0.1775 -0.1525 -0.8592
 1008MOL0     C36003   4.695   1.361   2.949  0.6502 -0.0255 -0.4105
 1008MOL0     O36004   4.562   1.332   2.930 -0.1942  0.3660 -0.2405
 1008MOL0     C36005   4.539   1.230   2.834  0.5579 -1.3258  0.5255
 1008MOL0     C36006   4.391   1.197   2.815  0.1123 -0.5229  0.0592
 1008MOL0     C36007   4.383   1.071   2.733 -0.7103 -0.0866 -0.6072
 1008MOL0     C36008   4.251   1.052   2.654 -0.2279  0.0916 -0.0101
 1008MOL0     C36009   4.144   0.992   2.729 -0.7693  0.5108  0.0278
 1008MOL0     C36010   4.043   0.935   2.779  0.2283  0.9792 -0.4288
 1008MOL0     C36011   4.799   1.297   2.889 -0.3451  0.7208 -0.6223
 1008MOL0     C36012   4.930   1.331   2.924  0.1096 -0.8424  1.3004
 1008MOL0     H36013   5.410   1.325   2.897  2.7916  1.4881 -2.1564
 1008MOL0     H36014   5.629   1.383   2.949  1.2578 -0.1197  2.4489
 1008MOL0     H36015   5.819   1.432   3.069  3.6523  0.7342 -1.0193
 1008MOL0     H36016   5.788   1.591   2.991 -2.0032  0.5224  0.3043
 1008MOL0     H36017   5.926   1.694   3.176  1.0163 -0.2878  1.6523
 1008MOL0     H36018   5.958   1.524   3.227  2.7776  1.2386  0.1463
 1008MOL0     H36019   6.004   1.606   2.935  1.3319  3.1233  0.2520
 1008MOL0     H36020   6.116   1.668   3.051  0.5070 -0.8582  1.8146
 1008MOL0     H36021   6.157   1.423   3.140  0.2622  0.6404 -0.5814
 1008MOL0     H36022   6.064   1.377   3.005 -0.5991  1.4432 -2.7550
 1008MOL0     H36023   6.280   1.370   2.920 -0.5664  0.2894 -0.4738
 1008MOL0     H36024   6.211   1.519   2.863  1.0549 -0.3181 -1.0132
 1008MOL0     H36025   6.338   1.643   3.053  4.3289  0.2007  1.8167
 1008MOL0     H36026   6.385   1.487   3.110 -2.7240 -1.0224  0.4077
 1008MOL0     H36027   6.519   1.461   2.891 -1.2356  0.9773 -2.3700
 1008MOL0     H36028   6.441   1.592   2.830  2.6326 -2.4695 -2.0266
 1008MOL0     H36029   6.675   1.656   2.896  0.5584  0.4833 -1.6729
 1008MOL0     H36030   6.638   1.622   3.068 -0.5356  0.7582  0.9706
 1008MOL0     H36031   6.400   1.816   2.823 -1.3878  1.8758 -0.2821
 1008MOL0     H36032   6.392   2.177   2.938 -0.0869  0.6509  0.9803
 1008MOL0     H36033   6.313   2.081   2.827 -1.7960 -0.3259  0.3952
 1008MOL0     H36034   6.178   2.210   2.992 -1.0427 -0.4585  1.5295
 1008MOL0     H36035   6.222   2.089   3.113 -0.4286  0.9510  0.1651
 1008MOL0     H36036   6.118   1.910   2.995  3.5545 -0.2491 -0.8627
 1008MOL0     H36037   6.100   2.008   2.848  2.3120 -0.6538  0.7136
 1008MOL0     H36038   5.933   2.133   2.931  1.8107 -0.1276 -0.4138
 1008MOL0     H36039   5.955   2.075   3.110  0.3417  0.5326 -0.4956
 1008MOL0     H36040   5.676   1.785   2.957 -0.2498 -0.7602 -2.7811
 1008MOL0     H36041   5.341   1.762   2.901  0.9390  0.9068  1.2218
 1008MOL0     H36042   5.423   1.749   2.748 -0.5011  2.1555 -0.2447
 1008MOL0     H36043   5.480   1.677   2.906  0.8263 -0.8859 -1.9973
 1008MOL0     H36044   5.060   2.091   2.744  0.0437  1.3527  0.7739
 1008MOL0     H36045   4.865   2.206   2.644 -1.6784  1.5111 -0.0920
 1008MOL0     H36046   4.933   2.622   2.532 -0.5132  0.8079  0.5765
 1008MOL0     H36047   4.863   2.583   2.376 -1.2278 -0.8008 -1.2704
 1008MOL0     H36048   4.638   2.523   2.500  0.2671 -1.1653  0.6073
 1008MOL0     H36049   4.707   2.603   2.643 -3.1408  2.6702 -0.1834
 1008MOL0     H36050   4.668   2.746   2.380 -1.5694  1.4043 -0.2479
 1008MOL0     H36051   4.716   2.812   2.544 -1.0318 -0.1384  0.7029
 1008MOL0     H36052   4.446   2.683   2.474 -1.4557 -0.1282  2.0789
 1008MOL0     H36053   4.501   2.729   2.631  1.0175  0.8247  0.6376
 1008MOL0     H36054   4.485   2.910   2.382 -1.1298  1.0974 -0.5724
 1008MOL0     H36055   4.504   2.969   2.548 -4.2333  2.5076  0.7388
 1008MOL0     H36056   4.257   2.877   2.417  0.6451  0.4485 -0.4208
 1008MOL0     H36057   4.274   2.901   2.602  2.3219  0.9280  0.3065
 1008MOL0     H36058   4.246   3.099   2.389  1.6046 -1.7738 -1.2527
 1008MOL0     H36059   4.386   3.130   2.489  0.3575  0.0878  1.0629
 1008MOL0     H36060   4.241   3.132   2.685 -0.9127 -1.9124 -0.2010
 1008MOL0     H36061   4.101   3.088   2.590 -1.6551  2.7241  1.7298
 1008MOL0     H36062   5.118   2.517   2.479 -0.7496  0.7283  0.6819
 1008MOL0     H36063   5.312   2.415   2.592  0.3366 -1.1477  2.1697
 1008MOL0     H36064   5.536   2.248   2.870  0.2231  0.5778 -1.5459
 1008MOL0     H36065   5.731   2.206   2.963 -1.7251 -0.0719  0.3362
 1008MOL0     H36066   5.486   1.613   3.288 -2.2691  0.9675 -1.2937
 1008MOL0     H36067   5.263   1.512   3.255 -0.0944  3.4573 -1.4896
 1008MOL0     H36068   4.875   1.613   3.094  0.5436 -0.6587  0.5477
 1008MOL0     H36069   4.644   1.520   3.088  1.4227 -2.1162  3.1244
 1008MOL0     H36070   4.588   1.258   2.740  0.0344  2.0027  1.1492
 1008MOL0     H36071   4.594   1.140   2.865  0.9443 -0.7391  1.5749
 1008MOL0     H36072   4.327   1.277   2.777 -0.6726 -0.6148  1.1538
 1008MOL0     H36073   4.354   1.174   2.915  0.7648 -0.5886  0.2964
 1008MOL0     H36074   4.398   0.987   2.802  0.0072  0.0016 -0.6530
 1008MOL0     H36075   4.464   1.067   2.660 -1.5078  3.5121 -1.8516
 1008MOL0     H36076   4.274   0.995   2.563  0.5442  3.8172 -2.3488
 1008MOL0     H36077   4.217   1.153   2.630 -0.9814  0.1676  1.2880
 1008MOL0     H36078   3.960   0.872   2.803  0.6929 -0.2614 -1.9298
 1008MOL0     H36079   4.786   1.207   2.829 -0.5461 -1.5299  2.5600
 1008MOL0     H36080   5.009   1.269   2.883  1.7413  1.8256  0.0780
 1009MOL0     O36081   3.863   1.497   0.964  0.2505  0.5475  0.2770
 1009MOL0     C36082   3.882   1.528   0.844  0.3774 -0.0757 -0.6573
 1009MOL0     O36083   3.783   1.563   0.759  0.1598  0.0764  0.3218
 1009MOL0     C36084   3.649   1.522   0.774 -0.1992  0.2267 -0.0866
 1009MOL0     C36085   3.606   1.393   0.803  0.0696  0.0406  0.2448
 1009MOL0     C36086   3.472   1.352   0.799 -0.3677  0.7126  0.2222
 1009MOL0     C36087   3.381   1.453   0.768 -0.2764  0.4197  0.0705
 1009MOL0     O36088   3.257   1.410   0.752  0.4062 -0.5828  0.2683
 1009MOL0     C36089   3.145   1.497   0.760  0.3519  0.3243  0.6040
 1009MOL0     C36090   3.016   1.421   0.755  0.1391 -0.4059 -0.2049
 1009MOL0     C36091   2.969   1.358   0.624  0.2875 -0.4635  0.4047
 1009MOL0     C36092   2.820   1.318   0.630  0.4784 -0.2021  0.2585
 1009MOL0     C36093   2.782   1.264   0.486  0.9429  0.4813 -0.1839
 1009MOL0     C36094   2.627   1.235   0.487  1.1112 -0.1493  0.0253
 1009MOL0     C36095   2.550   1.224   0.348 -0.0655 -0.6345 -0.3668
 1009MOL0     C36096   2.582   1.099   0.272  0.5896 -0.9971 -0.1966
 1009MOL0     N36097   2.462   1.073   0.191 -0.1843 -0.0404 -0.2093
 1009MOL0     C36098   2.406   1.161   0.100 -0.7492  0.2403  0.2886
 1009MOL0     C36099   2.288   1.111   0.066 -0.5222  0.2058  0.1785
 1009MOL0     C36100   2.190   1.144  -0.042 -0.7128  0.3807 -1.4841
 1009MOL0     C36101   2.250   1.141  -0.183 -0.4514  0.2805 -0.0468
 1009MOL0     C36102   2.136   1.129  -0.290  0.1198 -0.9089 -0.1521
 1009MOL0     C36103   2.074   1.265  -0.337  0.7333 -0.3751  0.2123
 1009MOL0     O36104   1.982   1.251  -0.447 -0.0040 -0.0345  0.0903
 1009MOL0     C36105   1.871   1.172  -0.448  0.5187 -0.9686  0.1670
 1009MOL0     C36106   1.799   1.130  -0.330  0.1360 -0.2007 -0.2007
 1009MOL0     C36107   1.685   1.048  -0.332 -0.2462  0.1624 -0.4057
 1009MOL0     C36108   1.622   1.012  -0.197 -0.0021 -0.0423 -0.4982
 1009MOL0     C36109   1.630   1.001  -0.457  0.6965 -0.5226  0.4029
 1009MOL0     C36110   1.497   0.930  -0.475  0.0638 -0.6285 -0.0071
 1009MOL0     O36111   1.424   0.948  -0.597 -0.7029 -0.4087 -0.1208
 1009MOL0     C36112   1.299   0.896  -0.631 -0.4989 -0.5847  0.5896
 1009MOL0     C36113   1.196   0.854  -0.550  0.1436 -0.6030 -0.2376
 1009MOL0     C36114   1.073   0.832  -0.598 -0.1134 -0.6351  0.1598
 1009MOL0     C36115   1.049   0.842  -0.738  0.5925 -0.4496 -0.5278
 1009MOL0     O36116   0.915   0.809  -0.776  0.5247 -0.3876  0.1573
 1009MOL0     C36117   0.891   0.806  -0.922  0.4086 -0.1729 -0.5253
 1009MOL0     C36118   0.751   0.761  -0.957  0.4922 -0.2804 -0.8534
 1009MOL0     C36119   0.631   0.861  -0.917  1.0474 -0.1444  0.3903
 1009MOL0     C36120   0.492   0.810  -0.959  1.1766 -0.6440  0.4207
 1009MOL0     C36121   0.383   0.915  -0.982  0.1777 -0.1456 -0.1737
 1009MOL0     C36122   0.261   0.846  -1.041  0.8829  0.1347 -0.1838
 1009MOL0     C36123   0.132   0.934  -1.055 -1.0702 -0.7417 -0.1743
 1009MOL0     C36124   0.009   0.852  -1.073  0.3217  0.2098 -0.2048
 1009MOL0    Cl36125  -0.142   0.945  -1.123  0.0507 -0.1579 -0.0324
 1009MOL0     C36126   1.164   0.856  -0.824  0.8077 -0.1881 -0.1659
 1009MOL0     C36127   1.281   0.892  -0.767 -0.0074 -0.4184  0.4977
 1009MOL0     O36128   1.456   0.850  -0.393 -0.9155  0.9774  0.0832
 1009MOL0     C36129   1.708   1.033  -0.566 -0.3035 -0.1466  0.5886
 1009MOL0     C36130   1.823   1.118  -0.563  0.8571 -0.2608  0.7614
 1009MOL0     N36131   2.271   0.996   0.153 -0.1597  0.0243 -0.2958
 1009MOL0     N36132   2.382   0.971   0.212  0.0005 -0.4902  0.6272
 1009MOL0     C36133   3.421   1.585   0.751 -0.7572  0.4971 -0.6733
 1009MOL0     C36134   3.555   1.620   0.752  0.2802  0.2261  1.0845
 1009MOL0     C36135   4.026   1.529   0.797  0.4067 -0.1657 -0.2717
 1009MOL0     C36136   4.122   1.502   0.889 -1.2523  0.9329  0.6429
 1009MOL0     C36137   4.258   1.527   0.851 -0.2068 -0.7325  0.3707
 1009MOL0     C36138   4.298   1.548   0.718 -0.3453 -0.6487  0.1224
 1009MOL0     O36139   4.434   1.552   0.682 -0.4334  0.4280 -0.4938
 1009MOL0     C36140   4.544   1.586   0.778  0.2006 -0.3812 -0.0329
 1009MOL0     C36141   4.669   1.580   0.694  0.2902  0.7059  0.7331
 1009MOL0     C36142   4.661   1.683   0.577  0.3555  0.4611 -0.9910
 1009MOL0     C36143   4.779   1.652   0.467  0.5767 -0.3146 -0.4199
 1009MOL0     C36144   4.873   1.758   0.458  0.2336 -0.6675 -0.0635
 1009MOL0     C36145   4.955   1.847   0.444 -0.5233 -0.2482 -0.0247
 1009MOL0     C36146   4.206   1.574   0.624 -0.5807  0.0105 -0.2320
 1009MOL0     C36147   4.065   1.569   0.663  0.2642 -0.6092 -0.1630
 1009MOL0     H36148   3.677   1.313   0.822  0.2579 -0.1285 -1.0897
 1009MOL0     H36149   3.434   1.252   0.818 -0.1439  0.5524 -0.1618
 1009MOL0     H36150   3.162   1.558   0.849  0.4982  1.5832 -0.2599
 1009MOL0     H36151   3.138   1.566   0.675 -0.3998 -1.9652 -1.2806
 1009MOL0     H36152   3.020   1.342   0.831 -2.8342  0.2006  0.7120
 1009MOL0     H36153   2.944   1.497   0.788  0.6318  0.4419 -1.0291
 1009MOL0     H36154   2.989   1.429   0.543  1.5576 -1.5356 -0.2503
 1009MOL0     H36155   3.022   1.264   0.610 -1.2895 -1.6743  2.0539
 1009MOL0     H36156   2.799   1.242   0.707 -2.9491  1.9541  1.6710
 1009MOL0     H36157   2.758   1.407   0.647  2.1288  1.3585 -1.4854
 1009MOL0     H36158   2.822   1.332   0.410 -2.7280  0.2364 -2.5741
 1009MOL0     H36159   2.830   1.168   0.466  1.9450  1.2937 -1.8949
 1009MOL0     H36160   2.607   1.151   0.555 -0.4068  1.0025  1.0691
 1009MOL0     H36161   2.589   1.321   0.542  1.4491 -0.7597  1.2365
 1009MOL0     H36162   2.443   1.235   0.364 -0.2810 -0.9946 -1.4452
 1009MOL0     H36163   2.576   1.305   0.279 -0.5862  0.0721  0.2520
 1009MOL0     H36164   2.600   1.019   0.345  1.1755 -1.7675 -1.1474
 1009MOL0     H36165   2.677   1.117   0.220  1.7058  3.4422  2.7847
 1009MOL0     H36166   2.459   1.247   0.062 -1.0108  1.4988  2.5921
 1009MOL0     H36167   2.120   1.060  -0.043  0.6795 -0.8368 -0.3682
 1009MOL0     H36168   2.137   1.236  -0.017 -1.0274 -0.3058  0.5734
 1009MOL0     H36169   2.323   1.062  -0.201  0.9556  1.9632 -2.3825
 1009MOL0     H36170   2.308   1.234  -0.193 -1.2061  0.8362  0.5577
 1009MOL0     H36171   2.057   1.069  -0.245 -1.1420  1.7013  1.3519
 1009MOL0     H36172   2.176   1.082  -0.381 -0.2658  0.3085 -0.9760
 1009MOL0     H36173   2.150   1.340  -0.361  0.4084 -0.4799 -1.2439
 1009MOL0     H36174   2.028   1.305  -0.246  0.5993 -2.3583  1.0886
 1009MOL0     H36175   1.852   1.157  -0.240  0.6706 -2.2652  0.1580
 1009MOL0     H36176   1.535   1.074  -0.174 -1.1795  0.3396 -4.9644
 1009MOL0     H36177   1.587   0.909  -0.190 -2.0302  0.5628 -0.9938
 1009MOL0     H36178   1.699   1.026  -0.120  0.6411 -1.0980 -0.9340
 1009MOL0     H36179   1.226   0.852  -0.445  0.1366 -0.4497 -0.2327
 1009MOL0     H36180   0.991   0.818  -0.529 -0.8604 -0.2641 -0.6418
 1009MOL0     H36181   0.908   0.904  -0.968 -2.0108  0.9395  0.7573
 1009MOL0     H36182   0.961   0.730  -0.959 -1.8094 -3.1328  0.9278
 1009MOL0     H36183   0.748   0.763  -1.066  0.9668 -0.6814 -0.8709
 1009MOL0     H36184   0.738   0.655  -0.934  0.2024 -0.0455  0.1086
 1009MOL0     H36185   0.644   0.958  -0.965 -0.8581 -0.1622 -0.2719
 1009MOL0     H36186   0.630   0.899  -0.815 -2.1282 -0.0755  0.4479
 1009MOL0     H36187   0.515   0.772  -1.059 -0.1558 -0.9708  0.2232
 1009MOL0     H36188   0.458   0.735  -0.888  0.3695  0.8088  1.6360
 1009MOL0     H36189   0.406   0.979  -1.068 -2.6274 -0.9954 -1.6969
 1009MOL0     H36190   0.364   0.966  -0.887  1.4887 -2.2495  1.2914
 1009MOL0     H36191   0.293   0.821  -1.142  3.3934 -1.4089  0.8690
 1009MOL0     H36192   0.244   0.756  -0.982  1.7756 -0.0048 -0.1167
 1009MOL0     H36193   0.140   1.007  -1.136 -0.6603  0.4469  0.9130
 1009MOL0     H36194   0.122   0.997  -0.967 -0.5701 -0.9738  0.0521
 1009MOL0     H36195  -0.008   0.806  -0.975  1.7281  2.8886  1.4023
 1009MOL0     H36196   0.033   0.773  -1.145  1.4539  1.7753 -1.6334
 1009MOL0     H36197   1.147   0.854  -0.931  0.8147  1.5224 -0.2183
 1009MOL0     H36198   1.368   0.913  -0.829  1.0491 -2.2253  1.2855
 1009MOL0     H36199   1.674   1.006  -0.665 -2.1641 -1.0426  1.4156
 1009MOL0     H36200   1.865   1.149  -0.659  0.1540  3.7655  1.5591
 1009MOL0     H36201   3.347   1.664   0.743  0.0100  1.3427  0.4063
 1009MOL0     H36202   3.583   1.725   0.741 -1.1532  0.8481  2.8810
 1009MOL0     H36203   4.127   1.467   0.991  1.9825 -0.1630  0.2283
 1009MOL0     H36204   4.341   1.514   0.920 -0.7800 -1.0366  1.0253
 1009MOL0     H36205   4.533   1.689   0.814 -2.6757 -0.0974 -1.3979
 1009MOL0     H36206   4.546   1.523   0.868 -1.6819 -0.2671  0.1457
 1009MOL0     H36207   4.698   1.478   0.666  0.9601  1.2704 -0.7312
 1009MOL0     H36208   4.750   1.611   0.761 -0.8377  2.4458  1.3394
 1009MOL0     H36209   4.684   1.779   0.624 -2.2227  0.7670 -0.1899
 1009MOL0     H36210   4.564   1.689   0.527 -0.5971  0.3088  0.7655
 1009MOL0     H36211   4.751   1.624   0.365  0.6056  0.4521 -0.6445
 1009MOL0     H36212   4.839   1.568   0.503  1.2100 -0.0039 -0.7326
 1009MOL0     H36213   5.025   1.926   0.428 -2.0475  0.8357 -1.7053
 1009MOL0     H36214   4.250   1.620   0.536  0.8209 -0.7073  0.0720
 1009MOL0     H36215   3.999   1.605   0.585  1.0300  2.2446  0.3646
 1010MOL0     O36216   3.192   2.918   0.289  0.5368  0.1897  0.1844
 1010MOL0     C36217   3.114   2.940   0.201 -0.4975  0.0765 -0.9060
 1010MOL0     O36218   2.993   2.871   0.193 -0.6017  0.0820  0.4385
 1010MOL0     C36219   2.967   2.770   0.287  0.1156 -1.1288 -0.5372
 1010MOL0     C36220   2.966   2.797   0.422 -0.0141 -0.7580  0.6029
 1010MOL0     C36221   2.938   2.696   0.516  0.4710 -0.6935  0.3738
 1010MOL0     C36222   2.905   2.561   0.477  0.3572 -0.4892  0.3536
 1010MOL0     O36223   2.864   2.464   0.568 -0.4526 -0.0116 -0.1882
 1010MOL0     C36224   2.903   2.323   0.548  0.1064 -0.4416  0.1713
 1010MOL0     C36225   3.017   2.295   0.639  0.0418  0.0418  0.2233
 1010MOL0     C36226   3.145   2.391   0.623  0.5588 -0.1897 -0.9444
 1010MOL0     C36227   3.239   2.347   0.734 -0.3576 -0.0933  0.6045
 1010MOL0     C36228   3.368   2.435   0.731 -0.4433 -0.1319  0.0920
 1010MOL0     C36229   3.484   2.398   0.828 -0.8173  0.3499  0.2734
 1010MOL0     C36230   3.610   2.461   0.774  0.0283 -0.7826  0.1957
 1010MOL0     C36231   3.731   2.426   0.860 -0.5323  0.4147  0.0787
 1010MOL0     N36232   3.865   2.481   0.813  0.3199 -0.1443  0.2502
 1010MOL0     C36233   3.900   2.611   0.823 -0.2329 -0.0293 -0.5700
 1010MOL0     C36234   4.025   2.612   0.769 -0.4487 -0.9115 -0.5023
 1010MOL0     C36235   4.094   2.746   0.741  0.0229 -0.1222 -0.0593
 1010MOL0     C36236   4.013   2.841   0.647 -1.1206 -0.3450 -0.1573
 1010MOL0     C36237   4.029   2.803   0.503  0.2619  0.5504  0.6064
 1010MOL0     C36238   3.932   2.697   0.460  0.5088 -0.4846  0.2978
 1010MOL0     O36239   3.796   2.732   0.473 -0.3557 -0.7891  0.2404
 1010MOL0     C36240   3.703   2.707   0.375  0.0127 -1.3304  0.1039
 1010MOL0     C36241   3.575   2.665   0.413  0.5132  0.0976  0.7420
 1010MOL0     C36242   3.471   2.636   0.323 -0.4437 -0.0960  0.3797
 1010MOL0     C36243   3.346   2.593   0.391  0.2673  0.8543 -0.6797
 1010MOL0     C36244   3.494   2.650   0.188 -0.2047  0.8625  0.0260
 1010MOL0     C36245   3.398   2.619   0.076  0.1710 -0.6726 -0.0734
 1010MOL0     O36246   3.281   2.549   0.121  0.0231  0.4331 -0.1473
 1010MOL0     C36247   3.192   2.530   0.019  0.0850 -0.5376  0.2140
 1010MOL0     C36248   3.121   2.629  -0.053 -0.4894  0.6088 -0.1973
 1010MOL0     C36249   3.016   2.596  -0.132  0.3126  0.2299  0.3686
 1010MOL0     C36250   2.981   2.464  -0.161  0.3164  0.2159  0.1678
 1010MOL0     O36251   2.879   2.422  -0.244 -0.6792 -0.7587  0.4158
 1010MOL0     C36252   2.925   2.381  -0.374 -0.1035 -0.2370 -0.1437
 1010MOL0     C36253   2.805   2.368  -0.466  0.4043 -0.1294 -0.3033
 1010MOL0     C36254   2.731   2.231  -0.462  0.0498 -0.4375  0.2772
 1010MOL0     C36255   2.614   2.215  -0.573 -0.0167  0.3750 -1.4675
 1010MOL0     C36256   2.530   2.083  -0.575 -0.2846  0.2464  0.1612
 1010MOL0     C36257   2.422   2.100  -0.470 -0.0681 -0.6083 -0.4622
 1010MOL0     C36258   2.338   1.976  -0.458  1.1122  0.6862 -1.1831
 1010MOL0     C36259   2.229   1.963  -0.566 -0.8675 -0.9593 -0.5945
 1010MOL0    Cl36260   2.158   1.805  -0.572 -0.1024 -0.0611 -0.0008
 1010MOL0     C36261   3.048   2.364  -0.089 -0.3071 -0.1320 -1.0530
 1010MOL0     C36262   3.151   2.401   0.002  0.0146  0.1506 -0.6168
 1010MOL0     O36263   3.433   2.653  -0.041 -0.2055 -0.5340 -0.3827
 1010MOL0     C36264   3.626   2.697   0.146  1.0622  0.0861  0.1237
 1010MOL0     C36265   3.717   2.730   0.242  0.1573 -0.3615  0.8388
 1010MOL0     N36266   4.065   2.488   0.733 -0.6043  0.3272 -0.0628
 1010MOL0     N36267   3.964   2.414   0.753 -0.2228 -0.3217 -0.8787
 1010MOL0     C36268   2.894   2.536   0.340 -0.2220 -0.5439  0.9065
 1010MOL0     C36269   2.924   2.637   0.247  0.1182 -1.0148 -0.1370
 1010MOL0     C36270   3.154   3.046   0.101  0.3095  0.0897 -0.1815
 1010MOL0     C36271   3.060   3.102   0.010 -0.1347 -0.6541  0.4786
 1010MOL0     C36272   3.108   3.200  -0.077 -0.8582  0.0467  0.9242
 1010MOL0     C36273   3.245   3.241  -0.085 -0.1551 -0.2927  0.1388
 1010MOL0     O36274   3.307   3.332  -0.172  0.1912  0.2669 -0.1838
 1010MOL0     C36275   3.216   3.392  -0.273 -0.0030  0.0893 -0.5099
 1010MOL0     C36276   3.300   3.437  -0.404  0.3290  0.1022  0.1110
 1010MOL0     C36277   3.401   3.546  -0.374  0.0815 -0.4459  0.3114
 1010MOL0     C36278   3.500   3.572  -0.491  0.6062 -0.0436  0.7595
 1010MOL0     C36279   3.597   3.679  -0.457 -0.2701 -0.1121 -1.0755
 1010MOL0     C36280   3.666   3.772  -0.439  0.8313  0.2923 -0.8553
 1010MOL0     C36281   3.335   3.184   0.002  0.6705  0.2381  0.5772
 1010MOL0     C36282   3.292   3.091   0.092  0.2714  0.0135 -0.1604
 1010MOL0     H36283   2.987   2.895   0.465 -1.8773 -0.0303 -0.0185
 1010MOL0     H36284   2.939   2.716   0.622  2.6477  2.6246 -0.1086
 1010MOL0     H36285   2.819   2.257   0.572 -0.8371  0.3222 -0.9351
 1010MOL0     H36286   2.925   2.297   0.444 -1.0379  2.2408 -0.8475
 1010MOL0     H36287   2.978   2.297   0.741 -2.1627  3.8317 -0.5128
 1010MOL0     H36288   3.055   2.195   0.614  0.5522 -1.3422  5.3632
 1010MOL0     H36289   3.192   2.398   0.524  0.0308 -0.4451 -1.2197
 1010MOL0     H36290   3.100   2.488   0.648 -2.4987 -1.5565 -0.5841
 1010MOL0     H36291   3.200   2.375   0.832 -0.6634  1.6562  0.0191
 1010MOL0     H36292   3.281   2.246   0.725 -0.7865 -0.2486  0.3661
 1010MOL0     H36293   3.404   2.429   0.628 -0.5364  1.6511 -0.0794
 1010MOL0     H36294   3.327   2.537   0.731 -1.8733 -0.6511 -1.2662
 1010MOL0     H36295   3.471   2.431   0.932  0.6217  0.6076  0.3927
 1010MOL0     H36296   3.502   2.290   0.827  0.6353  0.5551  0.8987
 1010MOL0     H36297   3.630   2.433   0.670  2.1053 -0.2035  0.4005
 1010MOL0     H36298   3.601   2.569   0.787  5.0998 -0.2130  1.3287
 1010MOL0     H36299   3.743   2.317   0.857  2.0696  0.6682 -2.4610
 1010MOL0     H36300   3.709   2.453   0.963  2.0960  2.0173  0.2930
 1010MOL0     H36301   3.846   2.692   0.871  1.2240 -0.6787  2.3459
 1010MOL0     H36302   4.122   2.790   0.837  2.7943  0.3080 -0.9769
 1010MOL0     H36303   4.183   2.727   0.679  0.6464  2.3693 -0.0454
 1010MOL0     H36304   4.057   2.938   0.670  0.3660 -1.7000  3.4555
 1010MOL0     H36305   3.909   2.840   0.681 -1.6589  0.1452 -1.7402
 1010MOL0     H36306   4.130   2.779   0.470 -0.5432 -0.6868 -1.1096
 1010MOL0     H36307   3.996   2.887   0.439 -1.8027 -0.5269  0.1576
 1010MOL0     H36308   3.948   2.600   0.508  1.9281 -0.0811  0.7067
 1010MOL0     H36309   3.947   2.688   0.352 -0.9896  0.1001  0.0158
 1010MOL0     H36310   3.556   2.644   0.518 -0.1081 -1.8429  0.2840
 1010MOL0     H36311   3.265   2.652   0.346  1.7866  2.4415 -1.4381
 1010MOL0     H36312   3.330   2.485   0.381 -0.7718  0.9134  0.0798
 1010MOL0     H36313   3.348   2.611   0.499  1.4606 -1.1155 -0.3282
 1010MOL0     H36314   3.157   2.730  -0.041  2.7890 -0.3304 -1.1797
 1010MOL0     H36315   2.964   2.669  -0.194 -2.1633 -0.8451  1.0599
 1010MOL0     H36316   2.993   2.457  -0.414  2.6775 -1.2480  2.3014
 1010MOL0     H36317   2.977   2.285  -0.370 -3.2743 -2.0455  1.2757
 1010MOL0     H36318   2.727   2.445  -0.458  0.6536  0.7053 -4.0578
 1010MOL0     H36319   2.837   2.392  -0.567 -1.0236 -0.8671 -0.9656
 1010MOL0     H36320   2.686   2.234  -0.363 -1.8367  2.2552 -0.5540
 1010MOL0     H36321   2.807   2.153  -0.475  0.3018 -0.2635  0.6949
 1010MOL0     H36322   2.547   2.299  -0.551  0.7271  0.3677  1.2305
 1010MOL0     H36323   2.667   2.221  -0.668  2.4109  0.8174 -0.1535
 1010MOL0     H36324   2.598   2.003  -0.546  1.4158  2.3320  2.2211
 1010MOL0     H36325   2.487   2.062  -0.674 -2.4146  1.0087  0.8636
 1010MOL0     H36326   2.473   2.114  -0.374  0.7054 -1.2656 -0.7618
 1010MOL0     H36327   2.351   2.183  -0.480 -0.8743 -0.9236  1.9682
 1010MOL0     H36328   2.280   1.983  -0.366 -0.7554 -1.5126 -2.0916
 1010MOL0     H36329   2.398   1.885  -0.455  0.7885  0.4655 -1.2941
 1010MOL0     H36330   2.274   1.983  -0.664  1.0469  1.7089  0.7027
 1010MOL0     H36331   2.144   2.030  -0.551 -0.1396  0.3875 -2.1125
 1010MOL0     H36332   3.018   2.260  -0.097  1.3812 -0.8477  0.8832
 1010MOL0     H36333   3.203   2.321   0.053 -0.8073  0.2526  0.4034
 1010MOL0     H36334   3.653   2.716   0.043  1.4865 -0.2247  0.1774
 1010MOL0     H36335   3.812   2.769   0.206  0.2194 -1.0090  0.2761
 1010MOL0     H36336   2.859   2.444   0.295  1.0269 -0.8598  0.5354
 1010MOL0     H36337   2.913   2.621   0.140 -2.2780  4.5196 -1.0838
 1010MOL0     H36338   2.957   3.069   0.006 -0.1001 -0.6669 -0.4191
 1010MOL0     H36339   3.032   3.236  -0.146 -0.2335 -1.1589 -0.4430
 1010MOL0     H36340   3.130   3.338  -0.315 -0.5892  0.3996  0.2738
 1010MOL0     H36341   3.169   3.475  -0.219  2.7659  0.8794  0.8517
 1010MOL0     H36342   3.240   3.488  -0.480  0.1906  0.0184  0.1619
 1010MOL0     H36343   3.350   3.351  -0.449  0.5189  1.9765 -3.5477
 1010MOL0     H36344   3.470   3.522  -0.293  1.7899  2.4679 -0.1481
 1010MOL0     H36345   3.336   3.630  -0.350 -2.3919 -1.7417 -1.3167
 1010MOL0     H36346   3.447   3.614  -0.577  2.5180 -0.0510 -0.4930
 1010MOL0     H36347   3.544   3.479  -0.528 -0.2442  1.0595 -3.5178
 1010MOL0     H36348   3.718   3.863  -0.418  2.2676 -0.7552  0.2665
 1010MOL0     H36349   3.441   3.210   0.003  0.7559 -0.1127  0.5440
 1010MOL0     H36350   3.361   3.066   0.172 -0.2729  2.9777  1.3901
 1011MOL0     O36351   9.123   9.069  10.437  1.0883  0.3085  0.5525
 1011MOL0     C36352   9.210   9.158  10.445 -0.6326 -0.1562 -0.2337
 1011MOL0     O36353   9.182   9.293  10.455  0.3444 -0.0137  0.0269
 1011MOL0     C36354   9.071   9.350  10.402 -0.0473 -0.0452 -0.1906
 1011MOL0     C36355   9.080   9.468  10.332 -0.4424 -0.1462  0.7544
 1011MOL0     C36356   8.968   9.534  10.279  0.2026  0.1750  0.7024
 1011MOL0     C36357   8.835   9.482  10.305 -0.0211 -0.7708  0.2476
 1011MOL0     O36358   8.716   9.551  10.274 -0.1489 -0.3337 -0.3337
 1011MOL0     C36359   8.703   9.602  10.143  0.2022  0.0385 -0.3385
 1011MOL0     C36360   8.548   9.611  10.115 -0.4453  0.1447 -0.4294
 1011MOL0     C36361   8.482   9.477  10.100 -0.7304 -0.7236  0.2502
 1011MOL0     C36362   8.344   9.499  10.050  0.0786 -0.0460 -0.6323
 1011MOL0     C36363   8.284   9.362  10.011 -0.0039  0.8692  0.1346
 1011MOL0     C36364   8.148   9.392   9.937 -0.1241  0.6147  0.2276
 1011MOL0     C36365   8.067   9.260   9.924 -0.1861  0.4289  0.8481
 1011MOL0     C36366   8.108   9.170   9.807  0.3293  0.0266 -0.0252
 1011MOL0     N36367   8.024   9.051   9.791  0.5527 -0.1322 -0.0301
 1011MOL0     C36368   7.958   8.975   9.895 -0.5930 -0.5423  0.4585
 1011MOL0     C36369   7.907   8.862   9.832  0.0161 -0.1959 -0.5863
 1011MOL0     C36370   7.828   8.754   9.891  0.2252 -0.4262  0.0052
 1011MOL0     C36371   7.679   8.789   9.891 -0.3192 -0.4569 -0.4425
 1011MOL0     C36372   7.597   8.680   9.962 -0.1914 -0.0996  0.7957
 1011MOL0     C36373   7.449   8.715   9.964 -0.1665 -0.6730 -0.0205
 1011MOL0     O36374   7.401   8.715   9.830 -0.2035  0.9312  0.3766
 1011MOL0     C36375   7.274   8.767   9.812  0.4471 -0.1208  1.0580
 1011MOL0     C36376   7.181   8.784   9.913 -0.2716 -0.8584 -0.4193
 1011MOL0     C36377   7.051   8.843   9.891 -0.1662 -0.5002  1.3119
 1011MOL0     C36378   6.971   8.860  10.017 -0.2891 -0.3363  0.6133
 1011MOL0     C36379   7.014   8.881   9.760 -0.2944  0.0241  0.0655
 1011MOL0     C36380   6.880   8.937   9.729 -0.4075 -0.6921 -0.0370
 1011MOL0     O36381   6.866   9.010   9.611  0.3673  0.6960 -0.2294
 1011MOL0     C36382   6.743   9.064   9.570  0.0732 -0.5423 -0.6890
 1011MOL0     C36383   6.690   9.028   9.453 -0.0301 -0.0422  0.1605
 1011MOL0     C36384   6.569   9.091   9.409 -0.4153  0.4634 -0.1871
 1011MOL0     C36385   6.499   9.183   9.487 -0.2514  0.0719 -0.1087
 1011MOL0     O36386   6.399   9.243   9.426 -0.2683  0.4695  0.1975
 1011MOL0     C36387   6.283   9.274   9.512  0.9778 -0.4806  0.3530
 1011MOL0     C36388   6.171   9.318   9.421  0.4715  0.3138 -0.3495
 1011MOL0     C36389   6.202   9.441   9.329 -0.6632  0.1240  0.7053
 1011MOL0     C36390   6.086   9.513   9.285  0.7028  0.7525 -0.0250
 1011MOL0     C36391   6.015   9.430   9.167  0.2334 -0.9057 -0.1869
 1011MOL0     C36392   5.872   9.482   9.168 -0.0286  0.3661  1.0694
 1011MOL0     C36393   5.792   9.422   9.052 -0.0666  0.3555 -0.1963
 1011MOL0     C36394   5.653   9.493   9.051 -0.4580  0.1640 -0.5396
 1011MOL0    Cl36395   5.668   9.648   8.950  0.1331  0.0971 -0.1087
 1011MOL0     C36396   6.546   9.204   9.614  0.1441  0.1795 -0.0276
 1011MOL0     C36397   6.666   9.146   9.657 -0.0767  0.1912 -0.3837
 1011MOL0     O36398   6.787   8.924   9.806  0.4608 -0.0890  0.1977
 1011MOL0     C36399   7.104   8.855   9.659  0.0148  0.7309  0.4562
 1011MOL0     C36400   7.232   8.805   9.681 -0.3196  0.3650  1.0181
 1011MOL0     N36401   7.922   8.881   9.699  0.3759  0.4411 -0.0382
 1011MOL0     N36402   7.986   8.989   9.671  0.2456  0.2472 -0.6021
 1011MOL0     C36403   8.824   9.371  10.385  0.0063 -0.0027  0.4834
 1011MOL0     C36404   8.940   9.300  10.428  0.1041 -0.3712  0.0073
 1011MOL0     C36405   9.355   9.108  10.452  0.8033  0.5627  0.7017
 1011MOL0     C36406   9.459   9.199  10.458 -0.3577 -0.6474  0.6364
 1011MOL0     C36407   9.589   9.148  10.464  0.2097  0.4929 -0.1907
 1011MOL0     C36408   9.609   9.017  10.484 -0.3640  0.9318 -0.3182
 1011MOL0     O36409   9.743   8.978  10.498 -0.3566 -0.5542 -0.0046
 1011MOL0     C36410   9.771   8.841  10.547 -0.4944 -0.4017 -0.2869
 1011MOL0     C36411   9.915   8.813  10.533 -0.3899 -0.4277  0.0071
 1011MOL0     C36412   9.990   8.859  10.662 -0.1880  0.7283  0.3950
 1011MOL0     C36413  10.129   8.789  10.648 -0.4455 -0.7101 -0.0135
 1011MOL0     C36414  10.114   8.652  10.700 -0.9172  0.3220  1.1131
 1011MOL0     C36415  10.113   8.535  10.739 -0.0965  0.1652  0.2578
 1011MOL0     C36416   9.503   8.925  10.487  0.7587 -0.3443 -0.6757
 1011MOL0     C36417   9.375   8.971  10.462  0.0409  0.6453 -0.5300
 1011MOL0     H36418   9.178   9.508  10.311 -0.7504 -0.9899 -2.9165
 1011MOL0     H36419   8.970   9.623  10.217 -1.9551  1.2087  1.9560
 1011MOL0     H36420   8.748   9.700  10.127 -1.8192  1.2044  0.8190
 1011MOL0     H36421   8.739   9.523  10.076 -0.5555  0.0353 -0.7446
 1011MOL0     H36422   8.508   9.673  10.195 -0.5599 -3.4498  2.5489
 1011MOL0     H36423   8.536   9.658  10.016 -2.6396 -0.6336 -0.5894
 1011MOL0     H36424   8.546   9.423  10.029  1.8542  0.5724  1.4531
 1011MOL0     H36425   8.492   9.439  10.202 -0.3500 -1.8317 -0.1826
 1011MOL0     H36426   8.277   9.531  10.130 -0.4331 -1.3421 -0.5302
 1011MOL0     H36427   8.333   9.571   9.968 -1.5175  2.8325  1.8726
 1011MOL0     H36428   8.348   9.292   9.955 -1.3854  0.4804 -1.0213
 1011MOL0     H36429   8.274   9.316  10.109  0.6549  1.4270  0.4744
 1011MOL0     H36430   8.098   9.476   9.985  1.0200  1.8544 -0.6570
 1011MOL0     H36431   8.177   9.412   9.833  1.6870  0.0072  0.5746
 1011MOL0     H36432   8.087   9.202  10.014 -0.0320  2.2092  2.0206
 1011MOL0     H36433   7.961   9.285   9.914 -0.0455  1.1573  1.0798
 1011MOL0     H36434   8.210   9.139   9.829  0.6887  0.7962 -0.5790
 1011MOL0     H36435   8.113   9.228   9.714  0.5316 -0.4050 -0.2838
 1011MOL0     H36436   7.949   9.016   9.994 -0.3870  0.6545 -0.0054
 1011MOL0     H36437   7.843   8.668   9.825  0.7722 -0.1752 -0.1995
 1011MOL0     H36438   7.865   8.727   9.990 -1.8044 -0.7143  0.7391
 1011MOL0     H36439   7.636   8.805   9.792  0.5198  0.1438 -0.7159
 1011MOL0     H36440   7.669   8.878   9.953 -1.0607 -0.8639  0.0479
 1011MOL0     H36441   7.632   8.680  10.066 -0.2174  2.6494  0.8785
 1011MOL0     H36442   7.612   8.584   9.913  3.1313  0.1966  0.9981
 1011MOL0     H36443   7.444   8.815  10.007  0.4207 -1.0993  1.0757
 1011MOL0     H36444   7.394   8.643  10.026  2.0255 -1.4364  1.1473
 1011MOL0     H36445   7.209   8.746  10.011  1.1790  2.5256  0.6338
 1011MOL0     H36446   6.867   8.829  10.011 -0.8133  1.0506  1.8550
 1011MOL0     H36447   7.021   8.815  10.103  0.9120  1.0482  0.6774
 1011MOL0     H36448   6.967   8.968  10.034 -1.5642 -0.4949  1.4416
 1011MOL0     H36449   6.748   8.959   9.393 -2.3776 -0.8927 -1.2444
 1011MOL0     H36450   6.528   9.078   9.310 -1.6859  2.7047 -0.0155
 1011MOL0     H36451   6.263   9.180   9.565  2.5920 -1.8138 -1.2207
 1011MOL0     H36452   6.289   9.354   9.585 -1.4438  0.8922 -0.8347
 1011MOL0     H36453   6.138   9.231   9.363 -0.7822 -0.2675  1.1568
 1011MOL0     H36454   6.080   9.346   9.474 -1.4588 -0.5692 -2.9765
 1011MOL0     H36455   6.275   9.416   9.251 -1.5787  0.4597 -0.2796
 1011MOL0     H36456   6.248   9.509   9.401  1.7215 -1.1599  0.5086
 1011MOL0     H36457   6.019   9.519   9.371 -0.6588 -4.8763 -0.3024
 1011MOL0     H36458   6.099   9.610   9.237 -1.4222  0.5965 -1.0305
 1011MOL0     H36459   6.017   9.322   9.184  1.2714 -0.5467  2.4144
 1011MOL0     H36460   6.079   9.449   9.080  0.3078 -0.2449  0.0098
 1011MOL0     H36461   5.812   9.448   9.253 -0.3337  1.6406  1.3908
 1011MOL0     H36462   5.858   9.591   9.172 -1.8734  0.4108 -2.5205
 1011MOL0     H36463   5.788   9.313   9.059 -0.2632  0.4579  1.5054
 1011MOL0     H36464   5.845   9.434   8.957  0.1011 -0.2390 -0.1813
 1011MOL0     H36465   5.616   9.505   9.153 -1.9935  0.3451 -1.0928
 1011MOL0     H36466   5.575   9.423   9.017 -1.8455  0.6182  1.5353
 1011MOL0     H36467   6.488   9.270   9.677  0.5526  1.8470 -1.3126
 1011MOL0     H36468   6.706   9.157   9.758  2.3750 -1.4840 -1.0818
 1011MOL0     H36469   7.086   8.889   9.558 -0.4613 -1.5566 -0.2985
 1011MOL0     H36470   7.292   8.782   9.593 -1.2764  0.7109  0.2583
 1011MOL0     H36471   8.723   9.346  10.417 -2.2755  5.0577 -1.6553
 1011MOL0     H36472   8.917   9.202  10.469  0.1200 -1.1145 -1.6656
 1011MOL0     H36473   9.437   9.306  10.459  2.1007 -0.0633 -0.4826
 1011MOL0     H36474   9.674   9.214  10.477  0.3772  0.8174 -2.5614
 1011MOL0     H36475   9.717   8.816  10.638 -1.4200  0.1179 -0.6765
 1011MOL0     H36476   9.722   8.773  10.476 -0.5930 -0.9390  0.2899
 1011MOL0     H36477   9.963   8.852  10.443  0.5614 -1.6867 -0.0435
 1011MOL0     H36478   9.921   8.706  10.515  1.9921 -0.4704  0.7970
 1011MOL0     H36479   9.928   8.832  10.748  1.3618 -0.9121  1.0634
 1011MOL0     H36480   9.996   8.968  10.650  0.6695  0.5324 -1.3716
 1011MOL0     H36481  10.182   8.847  10.724 -0.9574 -0.4727  0.1693
 1011MOL0     H36482  10.170   8.798  10.546  2.1240 -0.7077  0.9455
 1011MOL0     H36483  10.093   8.436  10.775 -1.1200  0.1664 -0.2529
 1011MOL0     H36484   9.500   8.820  10.517  0.4333  0.2368  1.4790
 1011MOL0     H36485   9.295   8.899  10.474  1.5286 -0.9179  0.3084
 1012MOL0     O36486   7.336  10.198   1.515  0.3480 -0.2371 -0.4165
 1012MOL0     C36487   7.373  10.083   1.537 -0.1851 -0.4699 -0.0563
 1012MOL0     O36488   7.294   9.974   1.512 -0.2940  0.2935  0.0042
 1012MOL0     C36489   7.166  10.001   1.474 -0.1768  0.3039  0.6211
 1012MOL0     C36490   7.125   9.968   1.345 -0.1529  0.2830 -0.2234
 1012MOL0     C36491   6.999  10.006   1.300 -0.0254 -0.5035  0.3558
 1012MOL0     C36492   6.915  10.087   1.376  0.3166 -0.2916  0.3264
 1012MOL0     O36493   6.794  10.127   1.321  0.5006 -0.0764 -0.8654
 1012MOL0     C36494   6.752  10.254   1.374  0.6761 -0.8284  0.5423
 1012MOL0     C36495   6.669  10.319   1.260 -0.0588 -0.1445  1.0610
 1012MOL0     C36496   6.530  10.257   1.249 -0.3788 -0.0412  0.9291
 1012MOL0     C36497   6.453  10.340   1.145  0.5373  0.1031  0.2787
 1012MOL0     C36498   6.297  10.337   1.153 -0.8627  0.3647 -0.4279
 1012MOL0     C36499   6.226  10.453   1.068  0.0828 -0.2210 -0.0005
 1012MOL0     C36500   6.078  10.431   1.042 -0.8313 -0.8764  0.7903
 1012MOL0     C36501   5.991  10.454   1.175 -0.8875  0.4644 -0.5690
 1012MOL0     N36502   5.852  10.490   1.138  1.0671 -0.5589 -0.2152
 1012MOL0     C36503   5.749  10.406   1.102  0.7323 -0.5947  0.4145
 1012MOL0     C36504   5.647  10.493   1.055 -0.3693  1.0826 -0.4088
 1012MOL0     C36505   5.521  10.439   0.999  0.1380 -0.1326 -0.4280
 1012MOL0     C36506   5.406  10.486   1.080 -0.4056 -0.9816  0.2011
 1012MOL0     C36507   5.284  10.398   1.078  0.4717  1.2962 -0.4895
 1012MOL0     C36508   5.212  10.392   0.940 -0.5080  0.7543  0.4445
 1012MOL0     O36509   5.092  10.317   0.952  0.3994 -0.1447 -0.4439
 1012MOL0     C36510   4.984  10.357   0.876  0.6747  0.6009  0.4761
 1012MOL0     C36511   4.981  10.452   0.769  0.1979 -0.1327 -0.1836
 1012MOL0     C36512   4.866  10.487   0.696 -1.5557 -0.0045  0.5894
 1012MOL0     C36513   4.877  10.594   0.589 -0.1376 -0.1096  0.0076
 1012MOL0     C36514   4.738  10.442   0.746  0.1597  0.3398  0.4272
 1012MOL0     C36515   4.604  10.489   0.701  0.4521 -0.6127 -0.5537
 1012MOL0     O36516   4.500  10.436   0.778  0.4158 -0.0116  0.6327
 1012MOL0     C36517   4.376  10.489   0.753 -0.4757  0.6960  0.1214
 1012MOL0     C36518   4.301  10.435   0.649 -0.1080 -0.7224  0.1812
 1012MOL0     C36519   4.175  10.486   0.634  0.1544 -0.3118 -0.2258
 1012MOL0     C36520   4.119  10.578   0.721  0.2073 -0.1311  0.1959
 1012MOL0     O36521   3.990  10.622   0.719  0.5512 -0.2850  0.9162
 1012MOL0     C36522   3.881  10.546   0.667 -0.5011 -0.3057 -0.0880
 1012MOL0     C36523   3.827  10.626   0.540 -0.4815  0.3918 -0.7956
 1012MOL0     C36524   3.776  10.774   0.567  0.8368 -1.6474 -0.1087
 1012MOL0     C36525   3.726  10.835   0.433 -0.6209  0.8695  0.4734
 1012MOL0     C36526   3.687  10.984   0.459  0.1582  0.2336  0.1588
 1012MOL0     C36527   3.612  11.049   0.339  0.4693  0.4921 -0.5153
 1012MOL0     C36528   3.709  11.045   0.220  1.2391 -1.0853  0.1102
 1012MOL0     C36529   3.670  11.132   0.102  0.4429 -0.8730  0.9345
 1012MOL0    Cl36530   3.774  11.095  -0.032 -0.0175  0.4746  0.0705
 1012MOL0     C36531   4.193  10.636   0.825  0.8673 -0.1494  0.6067
 1012MOL0     C36532   4.326  10.588   0.839 -0.3414  0.3440 -0.8798
 1012MOL0     O36533   4.597  10.572   0.614 -0.5061 -0.0174 -0.4985
 1012MOL0     C36534   4.738  10.334   0.841  0.0598 -0.4939 -0.9697
 1012MOL0     C36535   4.862  10.293   0.906 -0.6716  0.2073 -0.4940
 1012MOL0     N36536   5.687  10.621   1.081  0.1230 -0.3099 -0.6609
 1012MOL0     N36537   5.804  10.621   1.123  0.3097 -0.3697 -0.0827
 1012MOL0     C36538   6.946  10.111   1.514 -0.1132 -0.2057  0.6967
 1012MOL0     C36539   7.077  10.073   1.557 -0.5693 -0.5157 -0.3532
 1012MOL0     C36540   7.509  10.069   1.588  0.5536  0.0817 -0.1919
 1012MOL0     C36541   7.561   9.946   1.624  0.6576 -0.0163  0.0519
 1012MOL0     C36542   7.679   9.934   1.704 -0.2201 -0.1138 -0.0032
 1012MOL0     C36543   7.750  10.051   1.742 -0.1688  0.2178 -0.2954
 1012MOL0     O36544   7.868  10.044   1.809  0.3775 -0.0020  0.2655
 1012MOL0     C36545   7.936   9.923   1.822  0.3858 -0.4709  0.4858
 1012MOL0     C36546   8.083   9.957   1.874  0.5206 -0.9538 -0.0892
 1012MOL0     C36547   8.169   9.834   1.908  0.1459  0.1835 -0.2567
 1012MOL0     C36548   8.289   9.881   2.004  0.2049 -0.2154  0.3114
 1012MOL0     C36549   8.357   9.757   2.039 -0.3538  0.6539  0.3942
 1012MOL0     C36550   8.408   9.645   2.057  0.1652  0.7364  0.1747
 1012MOL0     C36551   7.707  10.174   1.699  0.1414  0.0641  0.5876
 1012MOL0     C36552   7.590  10.182   1.618 -0.4323 -0.7147  0.8764
 1012MOL0     H36553   7.198   9.930   1.275 -0.0156 -0.1266  0.1361
 1012MOL0     H36554   6.959   9.975   1.204 -1.8968  0.7506  0.6755
 1012MOL0     H36555   6.691  10.241   1.464  1.1168 -1.4425  0.7559
 1012MOL0     H36556   6.840  10.316   1.396 -0.2590  2.2344 -3.1641
 1012MOL0     H36557   6.657  10.423   1.290  0.5152  0.0150  0.7691
 1012MOL0     H36558   6.720  10.324   1.163 -0.1102 -2.6537  0.8418
 1012MOL0     H36559   6.522  10.152   1.218 -0.3197 -0.3847  2.0491
 1012MOL0     H36560   6.496  10.259   1.353  2.6722  0.8652  2.0227
 1012MOL0     H36561   6.483  10.444   1.157 -2.1518  1.1447 -1.1853
 1012MOL0     H36562   6.481  10.316   1.042 -1.2462  1.8147 -0.6833
 1012MOL0     H36563   6.255  10.240   1.126 -1.3791  0.2000  0.8816
 1012MOL0     H36564   6.272  10.360   1.257 -0.1698  1.9696 -0.5981
 1012MOL0     H36565   6.223  10.550   1.117 -3.5343  0.5022 -1.3894
 1012MOL0     H36566   6.274  10.461   0.970  1.1170 -2.3806  0.2659
 1012MOL0     H36567   6.046  10.500   0.963 -0.5966 -2.4008 -0.7075
 1012MOL0     H36568   6.079  10.332   0.996  1.4297  0.0911 -1.4900
 1012MOL0     H36569   6.033  10.534   1.236  3.7186 -2.2897  0.3280
 1012MOL0     H36570   5.986  10.371   1.246 -1.1448  2.0075  1.3327
 1012MOL0     H36571   5.756  10.297   1.095  3.7689 -0.3804 -1.8110
 1012MOL0     H36572   5.502  10.461   0.894 -3.7895  0.9792  0.3559
 1012MOL0     H36573   5.530  10.330   1.005 -3.2805 -0.7199 -2.8183
 1012MOL0     H36574   5.378  10.588   1.053  0.3074 -0.6326  0.7626
 1012MOL0     H36575   5.427  10.495   1.187 -0.9542  0.6981  0.1865
 1012MOL0     H36576   5.213  10.438   1.150  0.2613  2.4029 -1.2942
 1012MOL0     H36577   5.304  10.297   1.115 -3.3482  0.2451 -0.8752
 1012MOL0     H36578   5.279  10.350   0.864 -0.9180  4.6519 -2.3507
 1012MOL0     H36579   5.200  10.496   0.908 -2.4284  1.1482  2.2314
 1012MOL0     H36580   5.078  10.490   0.739  0.4900 -0.1767  0.6651
 1012MOL0     H36581   4.983  10.615   0.573 -0.1233  0.0211  0.2709
 1012MOL0     H36582   4.852  10.548   0.493  0.6962 -3.5204  1.2585
 1012MOL0     H36583   4.831  10.689   0.618 -0.5059 -0.4364  0.5217
 1012MOL0     H36584   4.335  10.368   0.571 -2.4629  0.3028 -1.8997
 1012MOL0     H36585   4.120  10.450   0.547  1.4594  0.3673 -1.3679
 1012MOL0     H36586   3.912  10.445   0.639  0.8535 -0.0827  0.5039
 1012MOL0     H36587   3.814  10.534   0.752  0.4714  1.7040  1.0571
 1012MOL0     H36588   3.909  10.632   0.467  0.7614 -0.5790  0.4576
 1012MOL0     H36589   3.753  10.555   0.501 -0.3590 -0.0654 -0.2107
 1012MOL0     H36590   3.852  10.833   0.617  0.8428  0.2276 -2.2024
 1012MOL0     H36591   3.689  10.774   0.634  1.4721  0.3965  0.7677
 1012MOL0     H36592   3.792  10.828   0.346 -1.5559  2.2097 -0.3806
 1012MOL0     H36593   3.630  10.792   0.403  1.0594 -2.4579 -0.6898
 1012MOL0     H36594   3.774  11.046   0.482  1.0096  0.0831 -2.4035
 1012MOL0     H36595   3.617  10.978   0.544  0.7789  0.7876  0.7174
 1012MOL0     H36596   3.525  10.995   0.300  1.3618  0.1573 -2.1536
 1012MOL0     H36597   3.578  11.150   0.365 -1.0735  0.3776 -1.8990
 1012MOL0     H36598   3.706  10.942   0.182  0.2957 -0.0086 -3.0406
 1012MOL0     H36599   3.813  11.064   0.249  0.9920 -2.2529  1.9319
 1012MOL0     H36600   3.694  11.237   0.119  2.6680 -0.8624 -1.6222
 1012MOL0     H36601   3.566  11.119   0.071  0.9479 -0.1636 -1.2866
 1012MOL0     H36602   4.150  10.705   0.897  0.3195  2.4606 -2.0492
 1012MOL0     H36603   4.381  10.621   0.927 -2.7468  1.0313  0.4549
 1012MOL0     H36604   4.647  10.292   0.883  0.9543 -1.1732  0.3424
 1012MOL0     H36605   4.855  10.228   0.992 -1.5594 -0.4367 -1.0399
 1012MOL0     H36606   6.885  10.175   1.577  1.4428  2.2053 -0.0977
 1012MOL0     H36607   7.098  10.108   1.657 -2.6692  0.2450 -0.1322
 1012MOL0     H36608   7.517   9.852   1.595 -1.2797  0.1345  2.2752
 1012MOL0     H36609   7.701   9.838   1.750 -1.1132 -0.1689  0.3486
 1012MOL0     H36610   7.893   9.853   1.895 -0.3220  0.3034  0.8268
 1012MOL0     H36611   7.947   9.864   1.730 -0.1364 -1.6766  1.1725
 1012MOL0     H36612   8.061  10.019   1.961  0.5595  0.3943 -1.0113
 1012MOL0     H36613   8.129  10.022   1.799 -1.3102  0.3752 -0.1309
 1012MOL0     H36614   8.201   9.781   1.818 -2.0462  1.1839 -1.6981
 1012MOL0     H36615   8.098   9.770   1.962 -1.4772  1.9915 -0.1601
 1012MOL0     H36616   8.258   9.925   2.099  2.5604 -1.1993  1.6179
 1012MOL0     H36617   8.353   9.951   1.949 -0.3982  0.3212  0.2846
 1012MOL0     H36618   8.464   9.554   2.069 -0.7483 -0.0524 -1.3102
 1012MOL0     H36619   7.755  10.270   1.713  0.3490  0.6640 -3.1517
 1012MOL0     H36620   7.550  10.275   1.579  0.6891 -0.9976 -1.0540
 1013MOL0     O36621  11.290   3.240   3.164 -0.0167  0.6837  0.3721
 1013MOL0     C36622  11.357   3.138   3.164  0.7704  0.5899  0.1029
 1013MOL0     O36623  11.305   3.003   3.164  0.5224  0.0748 -0.4489
 1013MOL0     C36624  11.173   2.973   3.158  0.8864 -0.0487  0.3277
 1013MOL0     C36625  11.140   2.837   3.186  0.1920 -0.5956 -0.4333
 1013MOL0     C36626  11.014   2.792   3.159  0.3004 -0.0037  0.2913
 1013MOL0     C36627  10.912   2.871   3.114 -0.4075 -0.2464 -0.7031
 1013MOL0     O36628  10.796   2.804   3.086 -0.2357 -0.8444 -0.1781
 1013MOL0     C36629  10.686   2.886   3.059  0.1194  0.6801  0.1902
 1013MOL0     C36630  10.561   2.795   3.063  0.3382  0.5745  0.0713
 1013MOL0     C36631  10.461   2.838   2.960 -0.1515  0.1832  0.4734
 1013MOL0     C36632  10.319   2.819   3.016  1.5586  0.2810  0.1560
 1013MOL0     C36633  10.212   2.825   2.905  0.1410 -0.0245 -0.5501
 1013MOL0     C36634  10.206   2.958   2.839  0.4504 -0.0178  0.1474
 1013MOL0     C36635  10.079   2.969   2.754 -0.0973 -0.1908  0.2608
 1013MOL0     C36636  10.097   2.899   2.616  0.7727  0.2996  0.4333
 1013MOL0     N36637   9.967   2.900   2.540  0.3545 -0.1251 -0.4020
 1013MOL0     C36638   9.901   3.022   2.514 -0.6985  0.4606 -0.6255
 1013MOL0     C36639   9.775   2.990   2.472 -0.3857  0.1230 -0.1677
 1013MOL0     C36640   9.663   3.078   2.413  0.2856 -0.6140  0.4726
 1013MOL0     C36641   9.557   3.116   2.529  0.2506  0.4276  0.2912
 1013MOL0     C36642   9.415   3.093   2.480  1.0999 -0.3883 -0.4242
 1013MOL0     C36643   9.308   3.123   2.575  0.0616 -0.6493 -0.2484
 1013MOL0     O36644   9.179   3.117   2.504 -0.3916  0.6864 -0.2867
 1013MOL0     C36645   9.070   3.180   2.578 -0.0296 -0.0305 -0.0208
 1013MOL0     C36646   9.076   3.232   2.708 -0.2309  0.7572 -0.3704
 1013MOL0     C36647   8.961   3.281   2.772 -0.2762 -0.6044  0.8457
 1013MOL0     C36648   8.989   3.350   2.900 -0.3966 -0.4187  0.1146
 1013MOL0     C36649   8.835   3.276   2.708 -0.3841 -1.1857  0.4546
 1013MOL0     C36650   8.706   3.318   2.766  1.4113 -1.1495  0.3782
 1013MOL0     O36651   8.595   3.260   2.712 -0.2640 -0.7287  0.4048
 1013MOL0     C36652   8.472   3.267   2.760  0.7824 -0.3602 -0.3097
 1013MOL0     C36653   8.371   3.276   2.665 -0.0791 -1.0996 -0.5403
 1013MOL0     C36654   8.232   3.286   2.704 -0.6252  0.5296  0.2695
 1013MOL0     C36655   8.193   3.271   2.839  0.0194  0.2756  0.2325
 1013MOL0     O36656   8.053   3.279   2.866 -0.3647 -0.0635 -0.2648
 1013MOL0     C36657   7.997   3.314   2.993  1.0116 -0.0668  0.1018
 1013MOL0     C36658   7.842   3.310   2.974 -0.4406  0.4206 -0.7830
 1013MOL0     C36659   7.773   3.357   3.111  0.0852  0.7632  1.2702
 1013MOL0     C36660   7.615   3.361   3.108  0.7916 -0.5327 -0.1073
 1013MOL0     C36661   7.577   3.428   3.235  0.6753  0.4258  0.2215
 1013MOL0     C36662   7.423   3.416   3.239 -0.1048  0.0063 -0.3296
 1013MOL0     C36663   7.375   3.486   3.374 -0.6284  0.3640 -1.1814
 1013MOL0     C36664   7.408   3.418   3.507  0.6341  0.0695 -0.4030
 1013MOL0    Cl36665   7.392   3.244   3.499  0.0253  0.1513 -0.2523
 1013MOL0     C36666   8.293   3.259   2.936 -0.7655 -0.0933  0.1986
 1013MOL0     C36667   8.429   3.258   2.898 -0.0106  0.5478 -0.4948
 1013MOL0     O36668   8.699   3.412   2.845  0.3491 -0.2165 -0.0143
 1013MOL0     C36669   8.832   3.217   2.576  0.6653 -0.8170  0.4823
 1013MOL0     C36670   8.951   3.177   2.521  0.7016  0.3172 -0.0883
 1013MOL0     N36671   9.771   2.854   2.478 -0.4585 -0.3017  0.5662
 1013MOL0     N36672   9.873   2.793   2.521 -0.1519  0.0024 -0.3183
 1013MOL0     C36673  10.935   3.011   3.101  0.6303 -0.6305 -0.5815
 1013MOL0     C36674  11.067   3.060   3.115  0.9225  0.2057 -1.0143
 1013MOL0     C36675  11.497   3.159   3.156 -0.2777  0.3923 -0.7053
 1013MOL0     C36676  11.588   3.047   3.153  0.3689 -0.3000  0.7845
 1013MOL0     C36677  11.729   3.073   3.166  0.3263 -0.1242 -0.6245
 1013MOL0     C36678  11.780   3.204   3.176 -0.6259  1.0846  0.5746
 1013MOL0     O36679  11.912   3.243   3.195  0.0198  0.7594  0.2206
 1013MOL0     C36680  12.016   3.152   3.151  0.6116 -0.0878  0.1243
 1013MOL0     C36681  12.134   3.243   3.115 -0.9004 -0.7797  0.0550
 1013MOL0     C36682  12.255   3.149   3.081  0.1965  1.6043 -0.0299
 1013MOL0     C36683  12.385   3.225   3.079 -0.1516  0.3528  0.9791
 1013MOL0     C36684  12.417   3.279   3.208 -0.0781  0.3104 -0.4101
 1013MOL0     C36685  12.428   3.308   3.322 -0.3766 -0.2910 -0.1292
 1013MOL0     C36686  11.691   3.311   3.172  0.6357  0.0299 -0.1006
 1013MOL0     C36687  11.554   3.288   3.163 -0.1554  0.0711  0.5759
 1013MOL0     H36688  11.217   2.769   3.220 -0.9343 -0.9589  1.5749
 1013MOL0     H36689  11.004   2.684   3.154  2.0072 -0.4937  4.0368
 1013MOL0     H36690  10.672   2.965   3.134 -1.6683 -0.2191  0.8449
 1013MOL0     H36691  10.701   2.934   2.961  3.0539  1.2729  0.8199
 1013MOL0     H36692  10.591   2.692   3.040  0.3364  0.5105  0.3542
 1013MOL0     H36693  10.521   2.790   3.164 -2.0771  0.8010 -0.8167
 1013MOL0     H36694  10.480   2.939   2.924 -0.7619  0.0663 -0.2006
 1013MOL0     H36695  10.467   2.768   2.876  0.6126  0.9678 -0.1421
 1013MOL0     H36696  10.307   2.723   3.067 -0.2168  0.1076 -0.5095
 1013MOL0     H36697  10.285   2.889   3.093 -3.7680 -1.0382 -0.6342
 1013MOL0     H36698  10.221   2.733   2.847 -4.6656 -2.8072  2.4847
 1013MOL0     H36699  10.118   2.809   2.958  0.2675  1.9053  0.3447
 1013MOL0     H36700  10.194   3.030   2.921  2.4639 -2.0968  2.4433
 1013MOL0     H36701  10.289   2.981   2.772 -0.0046  0.1281 -0.3665
 1013MOL0     H36702  10.007   2.911   2.814 -0.7965 -0.3463 -0.7113
 1013MOL0     H36703  10.056   3.076   2.756  1.8670  0.3033 -0.9667
 1013MOL0     H36704  10.118   2.792   2.631 -2.8497 -0.9366 -1.9175
 1013MOL0     H36705  10.179   2.956   2.571 -1.6660  2.6301 -1.3580
 1013MOL0     H36706   9.940   3.124   2.511 -2.1182  1.1149  1.2368
 1013MOL0     H36707   9.699   3.172   2.372  0.8436 -1.2463 -0.5248
 1013MOL0     H36708   9.610   3.022   2.335 -1.7507  2.2739 -0.3960
 1013MOL0     H36709   9.569   3.223   2.547 -1.2088  0.1538  3.4954
 1013MOL0     H36710   9.581   3.066   2.623  2.6424  2.4947  0.8981
 1013MOL0     H36711   9.404   2.986   2.455 -0.2692 -0.3765  0.0386
 1013MOL0     H36712   9.391   3.154   2.393  1.0456 -3.1055 -2.4561
 1013MOL0     H36713   9.336   3.223   2.607 -1.7134  0.5856 -2.2831
 1013MOL0     H36714   9.302   3.050   2.657 -5.0714 -0.4326 -0.0967
 1013MOL0     H36715   9.170   3.233   2.763 -0.2993  0.0083 -0.2284
 1013MOL0     H36716   8.948   3.287   2.981 -0.7796  2.1729  2.0840
 1013MOL0     H36717   9.094   3.370   2.923 -0.3881 -1.7411  1.4068
 1013MOL0     H36718   8.952   3.452   2.905  2.0092  0.5906 -1.1439
 1013MOL0     H36719   8.384   3.271   2.557  0.1179 -2.0602 -0.4816
 1013MOL0     H36720   8.162   3.310   2.625  0.2381  3.2095  0.1978
 1013MOL0     H36721   8.017   3.242   3.072  1.4037 -0.1331 -0.0575
 1013MOL0     H36722   8.038   3.412   3.020  3.8807 -0.5250 -2.2044
 1013MOL0     H36723   7.823   3.384   2.896 -0.3591 -0.3776 -1.5759
 1013MOL0     H36724   7.816   3.207   2.947 -1.1850  0.8362 -1.6966
 1013MOL0     H36725   7.802   3.460   3.131 -3.9940  2.3090  0.1425
 1013MOL0     H36726   7.812   3.284   3.182 -1.5221  0.5867  2.0155
 1013MOL0     H36727   7.588   3.419   3.019  0.4378 -0.3501  0.1180
 1013MOL0     H36728   7.574   3.260   3.102 -0.6332 -0.2021  2.4922
 1013MOL0     H36729   7.623   3.526   3.249  0.4912  0.4949  0.3613
 1013MOL0     H36730   7.617   3.362   3.313 -2.2823 -0.0530  1.5104
 1013MOL0     H36731   7.381   3.472   3.155  0.3073 -0.7785 -1.0751
 1013MOL0     H36732   7.380   3.315   3.230 -1.6189  0.7347 -1.8829
 1013MOL0     H36733   7.267   3.504   3.371 -0.6526  1.9075  2.5709
 1013MOL0     H36734   7.424   3.584   3.382 -0.8375  0.3700  0.6074
 1013MOL0     H36735   7.344   3.450   3.590  2.2416  1.8443  0.2137
 1013MOL0     H36736   7.507   3.444   3.544 -0.0785 -0.7269  2.3497
 1013MOL0     H36737   8.261   3.252   3.040  0.3503 -1.7360  0.4651
 1013MOL0     H36738   8.507   3.248   2.973  0.4121  0.7810 -0.9029
 1013MOL0     H36739   8.749   3.215   2.505 -0.5012 -0.8863  1.8036
 1013MOL0     H36740   8.945   3.126   2.425  1.1860 -1.6140  0.8616
 1013MOL0     H36741  10.861   3.084   3.070  0.8456 -1.1473 -2.4281
 1013MOL0     H36742  11.081   3.166   3.095 -1.1036  1.3856  2.6976
 1013MOL0     H36743  11.546   2.947   3.157 -1.1236  0.2578 -0.3537
 1013MOL0     H36744  11.807   3.000   3.180  1.9197  1.8346  1.6503
 1013MOL0     H36745  12.048   3.089   3.235 -0.3178 -0.5756  0.1229
 1013MOL0     H36746  11.989   3.102   3.058 -2.2420  0.7030  0.4074
 1013MOL0     H36747  12.142   3.318   3.194 -1.7093  0.2018 -0.7743
 1013MOL0     H36748  12.108   3.298   3.024  1.2271  0.8666  0.3690
 1013MOL0     H36749  12.255   3.107   2.980  1.8873  0.6116  0.3455
 1013MOL0     H36750  12.257   3.070   3.156 -1.3063  1.1074 -0.4770
 1013MOL0     H36751  12.383   3.304   3.003 -0.3942 -0.5556  0.0267
 1013MOL0     H36752  12.462   3.154   3.049 -0.7245  0.0845  0.1058
 1013MOL0     H36753  12.446   3.315   3.428 -3.8535  1.3799  0.4844
 1013MOL0     H36754  11.732   3.411   3.175 -1.7999  1.0904 -0.2518
 1013MOL0     H36755  11.487   3.373   3.157 -1.6661 -1.0899  0.5507
 1014MOL0     O36756   6.607   1.496   0.015  0.3899 -0.3080  0.1815
 1014MOL0     C36757   6.637   1.548   0.118  0.1290  0.1249 -0.2803
 1014MOL0     O36758   6.555   1.626   0.194  0.5507  0.2996 -0.0393
 1014MOL0     C36759   6.424   1.649   0.161 -0.9494 -0.5142  0.6578
 1014MOL0     C36760   6.316   1.600   0.242 -0.8758 -0.0679  0.1240
 1014MOL0     C36761   6.182   1.626   0.212  0.1811 -0.0453 -0.2392
 1014MOL0     C36762   6.146   1.702   0.095  0.2455  0.2799 -0.6865
 1014MOL0     O36763   6.020   1.731   0.060  0.8202  0.0543  0.2850
 1014MOL0     C36764   5.914   1.635   0.100  0.3905  0.2145  0.0842
 1014MOL0     C36765   5.788   1.665   0.020 -0.6550 -0.2793 -0.3911
 1014MOL0     C36766   5.692   1.557   0.028 -0.4099 -0.4238  0.3386
 1014MOL0     C36767   5.640   1.526  -0.118  0.0441 -0.9551 -1.3428
 1014MOL0     C36768   5.530   1.423  -0.106 -0.1993  0.0613 -1.9508
 1014MOL0     C36769   5.471   1.383  -0.238  1.5749 -0.0198  0.3475
 1014MOL0     C36770   5.568   1.320  -0.337 -0.5313 -0.9580 -0.1573
 1014MOL0     C36771   5.500   1.237  -0.449 -0.3983  1.0146  0.7671
 1014MOL0     N36772   5.592   1.208  -0.560  0.3142 -0.0665 -0.5897
 1014MOL0     C36773   5.718   1.257  -0.577 -0.3119 -0.4369 -0.0716
 1014MOL0     C36774   5.752   1.242  -0.709 -0.1866  1.5674 -0.6080
 1014MOL0     C36775   5.879   1.278  -0.767 -0.3596  0.5635  0.7587
 1014MOL0     C36776   5.986   1.184  -0.715 -0.0204 -0.1571 -0.5639
 1014MOL0     C36777   6.111   1.201  -0.792 -0.6733 -0.1679  0.1966
 1014MOL0     C36778   6.213   1.088  -0.759  0.4665  0.0306  0.4521
 1014MOL0     O36779   6.339   1.114  -0.833 -0.2961  0.5828  0.4321
 1014MOL0     C36780   6.450   1.032  -0.827  0.6815 -0.2185  0.3591
 1014MOL0     C36781   6.449   0.915  -0.744 -0.2405 -0.3781 -0.0983
 1014MOL0     C36782   6.560   0.835  -0.715 -0.1754  0.3554  0.7892
 1014MOL0     C36783   6.542   0.732  -0.604 -0.4833 -0.1412 -0.2602
 1014MOL0     C36784   6.677   0.872  -0.785 -0.3165 -0.3915 -0.7219
 1014MOL0     C36785   6.796   0.800  -0.780  0.1962  0.0425  1.0119
 1014MOL0     O36786   6.901   0.857  -0.845 -0.2303  0.3990 -0.3973
 1014MOL0     C36787   7.003   0.776  -0.876  0.2216 -0.2061  0.5650
 1014MOL0     C36788   7.114   0.778  -0.791  0.0362  0.0293  0.0105
 1014MOL0     C36789   7.232   0.710  -0.821 -0.3083 -0.3485 -0.1480
 1014MOL0     C36790   7.236   0.630  -0.932  0.1223  0.1421  0.4286
 1014MOL0     O36791   7.352   0.564  -0.962 -0.3942  0.1946 -0.3398
 1014MOL0     C36792   7.351   0.421  -0.966 -0.7343 -0.5436  0.3453
 1014MOL0     C36793   7.490   0.383  -0.945  0.1786 -0.5846  0.6408
 1014MOL0     C36794   7.505   0.238  -0.956 -0.0094  0.1728  0.0940
 1014MOL0     C36795   7.634   0.192  -0.891  0.1672  0.5540  0.3221
 1014MOL0     C36796   7.740   0.141  -0.974 -0.7171  0.1628  0.5737
 1014MOL0     C36797   7.826   0.243  -1.049  0.0309 -0.2215  0.3570
 1014MOL0     C36798   7.923   0.175  -1.142 -0.3563 -0.5224 -0.3417
 1014MOL0     C36799   8.008   0.074  -1.074  0.1237  0.7162  0.3682
 1014MOL0    Cl36800   8.108   0.141  -0.935 -0.1079 -0.0113 -0.1258
 1014MOL0     C36801   7.142   0.654  -1.031  1.3859  0.1341  0.3590
 1014MOL0     C36802   7.020   0.721  -1.002  0.2274 -0.3326 -0.7934
 1014MOL0     O36803   6.800   0.693  -0.720 -0.0751  0.1664 -0.1016
 1014MOL0     C36804   6.676   0.996  -0.860  0.2422  0.0530  0.7288
 1014MOL0     C36805   6.563   1.069  -0.891  1.2908  0.4622  0.2765
 1014MOL0     N36806   5.640   1.182  -0.766 -0.5346  0.1517 -0.4256
 1014MOL0     N36807   5.543   1.176  -0.684  0.3300  0.4164 -0.3340
 1014MOL0     C36808   6.251   1.722   0.002 -0.1256 -0.9563  0.3069
 1014MOL0     C36809   6.387   1.697   0.032  0.5809 -0.0854 -0.0411
 1014MOL0     C36810   6.774   1.523   0.165  0.6745 -0.4515  0.3103
 1014MOL0     C36811   6.821   1.583   0.288 -0.6669  0.2351  0.1395
 1014MOL0     C36812   6.953   1.562   0.324 -1.0593 -0.4301  0.2403
 1014MOL0     C36813   7.036   1.464   0.262  0.7170  0.0266 -0.1973
 1014MOL0     O36814   7.166   1.456   0.302  0.7610 -0.3788  0.1402
 1014MOL0     C36815   7.220   1.326   0.314 -0.0128 -0.0533  0.2350
 1014MOL0     C36816   7.334   1.320   0.422 -0.0088  0.4553  0.3764
 1014MOL0     C36817   7.284   1.358   0.556 -0.3245 -0.1863 -0.6744
 1014MOL0     C36818   7.387   1.363   0.668 -0.0059 -0.5532  0.2709
 1014MOL0     C36819   7.322   1.379   0.801 -0.5201  0.0016  0.2007
 1014MOL0     C36820   7.259   1.379   0.905  0.3279 -0.6372  0.0438
 1014MOL0     C36821   6.987   1.394   0.145  0.5436  0.5120  0.7058
 1014MOL0     C36822   6.859   1.429   0.095  0.5901 -0.3008 -0.5684
 1014MOL0     H36823   6.345   1.541   0.328 -1.1676 -2.3207 -1.2518
 1014MOL0     H36824   6.105   1.605   0.285 -0.1084  1.6577 -0.0185
 1014MOL0     H36825   5.950   1.535   0.076  3.0179 -0.3110  4.9264
 1014MOL0     H36826   5.882   1.627   0.204 -0.3495 -0.1847 -0.1690
 1014MOL0     H36827   5.740   1.758   0.052  0.8963  1.0952 -1.8274
 1014MOL0     H36828   5.822   1.684  -0.083  0.2081 -2.0389 -0.4541
 1014MOL0     H36829   5.737   1.465   0.068 -1.8205 -0.9186  0.8694
 1014MOL0     H36830   5.612   1.582   0.098  0.5102  1.4050  0.7952
 1014MOL0     H36831   5.613   1.616  -0.174  1.5817  0.3521 -0.0815
 1014MOL0     H36832   5.715   1.488  -0.188  0.0078 -2.1273 -0.7622
 1014MOL0     H36833   5.565   1.332  -0.056  1.0462  0.7998 -1.4298
 1014MOL0     H36834   5.450   1.473  -0.050  1.5256  0.9618 -0.2052
 1014MOL0     H36835   5.387   1.313  -0.228 -0.0856  1.9095  0.5473
 1014MOL0     H36836   5.430   1.473  -0.284 -1.1096 -1.1866  0.2816
 1014MOL0     H36837   5.631   1.400  -0.375 -0.1616 -0.9946  0.3609
 1014MOL0     H36838   5.640   1.252  -0.290  1.6128 -0.4523 -2.5319
 1014MOL0     H36839   5.416   1.292  -0.492  0.1206 -1.0257 -3.3159
 1014MOL0     H36840   5.450   1.151  -0.405 -0.3226  2.1974  3.3531
 1014MOL0     H36841   5.782   1.306  -0.505  1.6965  0.3050 -2.2470
 1014MOL0     H36842   5.867   1.273  -0.876 -0.7391  0.7137  0.7947
 1014MOL0     H36843   5.907   1.380  -0.739  1.5975  0.9557 -2.1839
 1014MOL0     H36844   5.960   1.079  -0.728  0.5078 -0.1046 -2.2310
 1014MOL0     H36845   6.009   1.207  -0.610 -0.0511  1.4964 -0.8880
 1014MOL0     H36846   6.176   1.286  -0.769  2.4543 -2.5711  0.8947
 1014MOL0     H36847   6.085   1.195  -0.898 -2.2625  0.0542  0.5472
 1014MOL0     H36848   6.174   0.994  -0.797  0.8987  0.4862 -1.2202
 1014MOL0     H36849   6.231   1.074  -0.652  0.1008  1.9617  0.8131
 1014MOL0     H36850   6.359   0.877  -0.696 -0.7305  0.5529 -0.2393
 1014MOL0     H36851   6.453   0.752  -0.543 -2.0152 -2.0610 -1.7094
 1014MOL0     H36852   6.527   0.632  -0.647 -1.1787 -0.8388  1.5008
 1014MOL0     H36853   6.633   0.723  -0.545  0.5475  1.4534 -1.5286
 1014MOL0     H36854   7.107   0.838  -0.701  1.2151 -0.8238  0.6861
 1014MOL0     H36855   7.316   0.717  -0.753 -2.4297 -0.1603  2.6347
 1014MOL0     H36856   7.289   0.384  -0.884  0.7094 -1.4456  1.0579
 1014MOL0     H36857   7.325   0.379  -1.064 -0.6815 -1.2436  0.6291
 1014MOL0     H36858   7.555   0.438  -1.014  0.8662  0.0018  1.7326
 1014MOL0     H36859   7.521   0.419  -0.846 -3.0101  2.2309  0.8137
 1014MOL0     H36860   7.503   0.221  -1.064  0.0717  0.1195  0.1006
 1014MOL0     H36861   7.418   0.195  -0.908 -1.1244  3.1665  1.0202
 1014MOL0     H36862   7.678   0.267  -0.825  3.0255 -1.6420  1.1078
 1014MOL0     H36863   7.616   0.108  -0.823  3.8078  0.5247  1.4771
 1014MOL0     H36864   7.692   0.078  -1.050 -0.9109  0.2996  0.5825
 1014MOL0     H36865   7.805   0.080  -0.912  1.1436  0.2145 -1.2286
 1014MOL0     H36866   7.756   0.299  -1.111  0.4001  0.3117  0.4188
 1014MOL0     H36867   7.881   0.312  -0.984 -0.3237 -0.2727  0.7180
 1014MOL0     H36868   7.989   0.254  -1.180 -2.7260  1.9836  0.3523
 1014MOL0     H36869   7.871   0.117  -1.218 -0.0732 -2.3460  0.8019
 1014MOL0     H36870   8.082   0.038  -1.146  1.1285 -1.9809  2.5449
 1014MOL0     H36871   7.949  -0.014  -1.048  0.8963 -0.0883 -0.5506
 1014MOL0     H36872   7.168   0.632  -1.134  3.9708 -2.1159  1.3727
 1014MOL0     H36873   6.955   0.736  -1.087  2.4784  1.6100 -2.3164
 1014MOL0     H36874   6.766   1.038  -0.905 -0.9342  1.9350  0.0281
 1014MOL0     H36875   6.570   1.156  -0.954 -1.4841 -0.4654 -1.4926
 1014MOL0     H36876   6.220   1.764  -0.093  1.5848  1.6421  0.7989
 1014MOL0     H36877   6.471   1.727  -0.030  2.7845 -4.8487  0.1999
 1014MOL0     H36878   6.764   1.648   0.353 -0.3956  0.6890 -0.0686
 1014MOL0     H36879   6.996   1.625   0.401  0.7008 -0.1064 -0.9503
 1014MOL0     H36880   7.147   1.245   0.322  0.1088 -0.3328 -1.1072
 1014MOL0     H36881   7.266   1.302   0.217 -0.4876 -0.0084 -0.0054
 1014MOL0     H36882   7.413   1.392   0.399  0.3637 -1.0629 -4.1800
 1014MOL0     H36883   7.380   1.221   0.422  1.0841  0.9397  1.3459
 1014MOL0     H36884   7.218   1.273   0.578  1.3102 -1.1351  0.8161
 1014MOL0     H36885   7.225   1.449   0.544  1.6202  0.9419 -2.2601
 1014MOL0     H36886   7.453   1.445   0.637 -0.7340 -0.5229 -1.3302
 1014MOL0     H36887   7.448   1.272   0.675  2.8298  0.8927 -2.8249
 1014MOL0     H36888   7.209   1.393   0.999  1.5624  0.9852  0.5010
 1014MOL0     H36889   7.050   1.324   0.092 -1.0874  0.8674 -1.8877
 1014MOL0     H36890   6.811   1.400   0.002 -0.2031  1.4395 -0.7344
 1015MOL0     O36891   0.920  11.029   9.364  0.0034  0.4795  0.0795
 1015MOL0     C36892   0.989  10.928   9.354  0.5353 -0.4452 -0.0864
 1015MOL0     O36893   0.944  10.799   9.358  0.5708  0.5408 -0.1083
 1015MOL0     C36894   0.805  10.784   9.360 -0.0912 -0.1484  0.0451
 1015MOL0     C36895   0.723  10.833   9.258 -0.5756 -0.7283 -0.0754
 1015MOL0     C36896   0.591  10.790   9.238 -0.5742 -0.6239 -0.1395
 1015MOL0     C36897   0.545  10.689   9.316  0.4900 -0.6088 -0.9813
 1015MOL0     O36898   0.424  10.634   9.302  0.4199 -0.2377 -0.1127
 1015MOL0     C36899   0.328  10.693   9.210  0.3593  1.1556 -0.3631
 1015MOL0     C36900   0.182  10.630   9.230 -0.0433  0.0961  0.4026
 1015MOL0     C36901   0.098  10.669   9.110  0.1726 -0.8204  0.3925
 1015MOL0     C36902  -0.046  10.677   9.151 -0.0899 -0.5748  0.0374
 1015MOL0     C36903  -0.127  10.734   9.036  0.3391  0.1052 -0.0791
 1015MOL0     C36904  -0.278  10.746   9.072  0.0212  0.4463 -0.4647
 1015MOL0     C36905  -0.356  10.812   8.961 -0.0685  0.0426 -0.9175
 1015MOL0     C36906  -0.372  10.723   8.833 -0.3050  0.5652 -0.3185
 1015MOL0     N36907  -0.416  10.592   8.848  0.9560  0.6364  0.1654
 1015MOL0     C36908  -0.548  10.551   8.826 -0.4889 -0.3628 -0.3459
 1015MOL0     C36909  -0.536  10.426   8.782  0.1435  0.4205  0.2763
 1015MOL0     C36910  -0.657  10.346   8.763 -0.1057 -0.0862 -0.2969
 1015MOL0     C36911  -0.783  10.410   8.733 -0.1328 -0.2573 -0.3248
 1015MOL0     C36912  -0.893  10.316   8.681  0.1725  1.3607 -0.0284
 1015MOL0     C36913  -1.026  10.372   8.661  0.3102 -1.3874 -0.4755
 1015MOL0     O36914  -1.025  10.472   8.554  0.3281 -0.9572  0.6190
 1015MOL0     C36915  -1.146  10.535   8.505  0.5464  0.9389  0.7247
 1015MOL0     C36916  -1.141  10.618   8.391  0.0071  0.3610 -0.7782
 1015MOL0     C36917  -1.246  10.699   8.358  0.8500 -0.4696  0.0121
 1015MOL0     C36918  -1.234  10.797   8.243 -0.0435  0.2604 -0.3277
 1015MOL0     C36919  -1.372  10.673   8.422 -0.1672  0.1148 -0.1458
 1015MOL0     C36920  -1.492  10.766   8.421 -1.0722  0.3774  0.5280
 1015MOL0     O36921  -1.469  10.900   8.402 -0.1425  0.6022  0.5283
 1015MOL0     C36922  -1.573  10.986   8.400  0.2005  0.4397 -0.4373
 1015MOL0     C36923  -1.543  11.112   8.455 -0.0105  0.1138  0.2697
 1015MOL0     C36924  -1.647  11.207   8.469 -1.1003  0.3005  0.7358
 1015MOL0     C36925  -1.776  11.179   8.433  0.8578  0.1074  0.7302
 1015MOL0     O36926  -1.868  11.277   8.447  0.3296  0.9719  0.1164
 1015MOL0     C36927  -2.006  11.233   8.459  0.4363 -0.3338 -0.2108
 1015MOL0     C36928  -2.087  11.341   8.518 -0.6932  0.5019  0.3749
 1015MOL0     C36929  -2.227  11.289   8.532  0.4889 -0.6223  0.4277
 1015MOL0     C36930  -2.329  11.399   8.572 -0.1523  0.5070  0.1005
 1015MOL0     C36931  -2.465  11.329   8.573  0.9993 -1.2571 -0.5937
 1015MOL0     C36932  -2.567  11.434   8.621 -0.1112 -0.0697  1.0227
 1015MOL0     C36933  -2.710  11.394   8.603 -0.0009 -0.3503  1.0361
 1015MOL0     C36934  -2.751  11.281   8.696  0.0973  0.2368  0.6801
 1015MOL0    Cl36935  -2.912  11.227   8.657 -0.4547 -0.1579  0.4814
 1015MOL0     C36936  -1.795  11.054   8.366  0.0336  0.5139  0.3132
 1015MOL0     C36937  -1.697  10.962   8.344 -0.5043  0.7951 -0.2605
 1015MOL0     O36938  -1.597  10.717   8.438  0.0878  0.3547 -0.1474
 1015MOL0     C36939  -1.386  10.567   8.512  0.1778  0.0063  0.3186
 1015MOL0     C36940  -1.273  10.512   8.562 -0.1934 -0.5300  0.6956
 1015MOL0     N36941  -0.408  10.384   8.798  0.3113  1.0338  0.7065
 1015MOL0     N36942  -0.332  10.486   8.815 -0.6964 -0.6631 -0.2740
 1015MOL0     C36943   0.624  10.637   9.424  0.5385 -0.1785 -0.1649
 1015MOL0     C36944   0.756  10.678   9.447 -0.1537 -0.4368  0.0422
 1015MOL0     C36945   1.140  10.942   9.344  0.8340 -0.1357 -0.6332
 1015MOL0     C36946   1.197  11.067   9.322 -0.2252  0.5915  0.2198
 1015MOL0     C36947   1.333  11.080   9.321 -0.1562  0.2604 -0.0348
 1015MOL0     C36948   1.423  10.974   9.332  0.1085 -0.3546  0.1509
 1015MOL0     O36949   1.551  11.004   9.339 -0.2844  0.4342 -0.0630
 1015MOL0     C36950   1.618  11.004   9.216 -0.7438 -0.0519  0.1645
 1015MOL0     C36951   1.747  11.079   9.229  0.4740 -0.4198 -0.7112
 1015MOL0     C36952   1.722  11.227   9.262  0.0471 -0.1566 -0.6160
 1015MOL0     C36953   1.843  11.318   9.208 -0.4679  1.2051 -0.1960
 1015MOL0     C36954   1.841  11.455   9.251 -0.3422  0.4613 -0.6187
 1015MOL0     C36955   1.844  11.565   9.305 -1.1401 -0.1922 -0.6892
 1015MOL0     C36956   1.363  10.845   9.358 -0.9604 -0.8527 -0.4241
 1015MOL0     C36957   1.227  10.832   9.365  0.0790  0.1690 -0.1542
 1015MOL0     H36958   0.768  10.910   9.196  0.0382  0.4352  1.7305
 1015MOL0     H36959   0.525  10.833   9.164 -0.9608  2.1721  1.6998
 1015MOL0     H36960   0.323  10.802   9.223 -0.9500  1.2193 -1.1958
 1015MOL0     H36961   0.356  10.674   9.106  0.5918 -0.0334 -0.1025
 1015MOL0     H36962   0.188  10.522   9.249 -0.8253 -0.3131 -1.5299
 1015MOL0     H36963   0.136  10.666   9.323  2.3679  1.1182  1.2661
 1015MOL0     H36964   0.134  10.767   9.080 -1.2359 -0.4539 -0.1665
 1015MOL0     H36965   0.110  10.591   9.034 -2.5303  1.2942 -2.4180
 1015MOL0     H36966  -0.089  10.584   9.190 -1.2073  0.4079  1.2482
 1015MOL0     H36967  -0.048  10.753   9.230 -0.8425 -0.0007 -0.5219
 1015MOL0     H36968  -0.097  10.836   9.013  0.3591  0.9598  3.1878
 1015MOL0     H36969  -0.127  10.660   8.955 -3.8111 -0.7071  0.4157
 1015MOL0     H36970  -0.337  10.657   9.093  0.3867 -0.7281 -3.8006
 1015MOL0     H36971  -0.294  10.811   9.159 -1.2160  2.3882 -2.0330
 1015MOL0     H36972  -0.454  10.836   9.003  0.5325  1.6156 -0.3129
 1015MOL0     H36973  -0.312  10.906   8.926  1.1727 -1.0666 -2.5037
 1015MOL0     H36974  -0.270  10.712   8.795  0.3284  1.2130  1.1214
 1015MOL0     H36975  -0.427  10.777   8.755  0.4290  1.0123 -0.5405
 1015MOL0     H36976  -0.630  10.620   8.841  0.6546  1.0435 -0.3220
 1015MOL0     H36977  -0.630  10.281   8.680  0.3741  0.7665 -0.8188
 1015MOL0     H36978  -0.655  10.290   8.857 -2.3685  0.6138  0.2329
 1015MOL0     H36979  -0.768  10.491   8.662  0.3795  1.1496  1.3035
 1015MOL0     H36980  -0.817  10.452   8.828  2.8055 -1.4815  1.4192
 1015MOL0     H36981  -0.901  10.232   8.750  0.4643  1.9984  0.7909
 1015MOL0     H36982  -0.862  10.276   8.584 -1.7176 -3.5524  1.0935
 1015MOL0     H36983  -1.063  10.421   8.752  0.6501  1.2222 -1.6458
 1015MOL0     H36984  -1.101  10.296   8.635 -0.7946 -0.3366 -0.4585
 1015MOL0     H36985  -1.046  10.632   8.340  1.2081  0.6487  1.4174
 1015MOL0     H36986  -1.245  10.904   8.265 -0.8272  0.0274  0.4807
 1015MOL0     H36987  -1.146  10.776   8.181  0.0245 -3.8294  0.8814
 1015MOL0     H36988  -1.309  10.763   8.171  1.1019 -0.8947 -1.0180
 1015MOL0     H36989  -1.444  11.147   8.482 -0.3210  1.3223 -0.1001
 1015MOL0     H36990  -1.631  11.311   8.494  1.1016  0.5508 -1.3755
 1015MOL0     H36991  -2.053  11.207   8.364 -1.5373  0.6121  0.4451
 1015MOL0     H36992  -2.011  11.144   8.523  2.2134  0.1787  0.7242
 1015MOL0     H36993  -2.045  11.361   8.617 -2.7735  1.9649  1.0483
 1015MOL0     H36994  -2.084  11.428   8.452  0.0224  1.9282  2.1908
 1015MOL0     H36995  -2.232  11.210   8.608  0.2515  0.1578  1.2513
 1015MOL0     H36996  -2.269  11.242   8.443 -1.3313  1.2606  0.2225
 1015MOL0     H36997  -2.314  11.439   8.673 -1.2668 -1.4875  1.1088
 1015MOL0     H36998  -2.325  11.481   8.500 -1.5536 -0.1256 -0.7357
 1015MOL0     H36999  -2.466  11.241   8.638 -1.1538 -2.0279 -1.5936
 1015MOL0     H37000  -2.489  11.301   8.470 -0.1735  3.2260 -1.7251
 1015MOL0     H37001  -2.559  11.458   8.728  2.7538 -3.1307  1.6625
 1015MOL0     H37002  -2.556  11.521   8.556 -2.9786  0.8061  1.5760
 1015MOL0     H37003  -2.716  11.375   8.496 -2.0217  1.1741  0.8247
 1015MOL0     H37004  -2.788  11.470   8.616 -1.0336 -1.1520 -0.2908
 1015MOL0     H37005  -2.760  11.326   8.795 -2.4340 -1.1711  1.1696
 1015MOL0     H37006  -2.688  11.192   8.689 -0.3637 -0.1961  1.8263
 1015MOL0     H37007  -1.898  11.030   8.339  0.8936 -2.7368 -0.5225
 1015MOL0     H37008  -1.724  10.868   8.298 -0.4688  0.9495 -0.6059
 1015MOL0     H37009  -1.475  10.533   8.564  0.9848  0.6201  2.2155
 1015MOL0     H37010  -1.286  10.465   8.659  0.2819  0.0696  1.0531
 1015MOL0     H37011   0.582  10.557   9.485  1.9765  0.8278  2.2852
 1015MOL0     H37012   0.814  10.633   9.526  2.2072  0.3416 -1.1739
 1015MOL0     H37013   1.128  11.151   9.319 -0.0188  0.8727  2.1801
 1015MOL0     H37014   1.365  11.183   9.311  2.2415 -0.5963 -2.7796
 1015MOL0     H37015   1.648  10.902   9.189 -0.8584 -0.7754  2.5025
 1015MOL0     H37016   1.560  11.051   9.137 -0.9420  1.7599  1.3381
 1015MOL0     H37017   1.803  11.079   9.135  1.3231 -0.0405 -0.2086
 1015MOL0     H37018   1.804  11.028   9.307 -2.3595  0.3739  2.1143
 1015MOL0     H37019   1.712  11.223   9.371 -1.9562  0.7335 -0.7274
 1015MOL0     H37020   1.629  11.265   9.219  0.6248 -0.7982 -2.5384
 1015MOL0     H37021   1.848  11.316   9.099  0.1152  1.7446 -0.1879
 1015MOL0     H37022   1.936  11.267   9.235 -1.8030 -2.3164 -1.6406
 1015MOL0     H37023   1.851  11.667   9.336 -2.5046  0.1107 -1.3228
 1015MOL0     H37024   1.429  10.759   9.354  0.4731  0.2663 -2.7924
 1015MOL0     H37025   1.178  10.736   9.377 -1.1286  0.5345 -1.8071
 1016MOL0     O37026   7.434   1.085   6.413 -0.2437 -0.3876  0.0964
 1016MOL0     C37027   7.488   1.188   6.441  0.4823 -0.0721 -0.3316
 1016MOL0     O37028   7.442   1.279   6.528 -0.1989  0.4764  0.2251
 1016MOL0     C37029   7.323   1.256   6.590 -0.2024  0.1126 -0.0805
 1016MOL0     C37030   7.214   1.339   6.555 -0.8207 -0.0314  0.0194
 1016MOL0     C37031   7.099   1.318   6.630 -0.3260 -0.8550 -1.0266
 1016MOL0     C37032   7.089   1.233   6.734 -0.0435 -0.2303  0.0909
 1016MOL0     O37033   6.975   1.223   6.807 -0.4256 -0.0257 -0.5229
 1016MOL0     C37034   6.926   1.088   6.824 -0.4859  0.2763  1.0281
 1016MOL0     C37035   6.813   1.089   6.924 -0.2500 -0.0791 -0.4121
 1016MOL0     C37036   6.692   1.174   6.887 -0.2267 -0.5473  0.6161
 1016MOL0     C37037   6.579   1.147   6.985 -0.1956  0.7599  0.2345
 1016MOL0     C37038   6.456   1.214   6.931 -0.7109 -0.3746 -0.2563
 1016MOL0     C37039   6.357   1.230   7.040 -0.9889 -0.5130 -0.3801
 1016MOL0     C37040   6.226   1.271   6.980 -1.0172 -0.5118  1.0615
 1016MOL0     C37041   6.112   1.292   7.076 -1.0250  0.5182 -0.2415
 1016MOL0     N37042   5.982   1.255   7.016 -0.3310 -0.6759  0.3584
 1016MOL0     C37043   5.924   1.328   6.915  0.0338 -0.5839  0.0771
 1016MOL0     C37044   5.805   1.277   6.879  0.3695 -0.3651 -0.1895
 1016MOL0     C37045   5.700   1.317   6.778 -0.0510  0.4124  0.2009
 1016MOL0     C37046   5.595   1.407   6.838 -0.4470 -0.0545 -0.4297
 1016MOL0     C37047   5.488   1.459   6.742  0.1729 -0.1221  0.0569
 1016MOL0     C37048   5.387   1.354   6.698  0.4266 -0.2711  0.5626
 1016MOL0     O37049   5.304   1.329   6.821 -0.0427 -0.3501  0.2924
 1016MOL0     C37050   5.172   1.365   6.827  1.0527 -0.4328  0.3434
 1016MOL0     C37051   5.083   1.321   6.730  0.1057  0.4555 -0.0970
 1016MOL0     C37052   4.946   1.347   6.723 -0.2905 -0.0161  0.1990
 1016MOL0     C37053   4.861   1.275   6.624 -0.0128 -0.2842  0.1090
 1016MOL0     C37054   4.893   1.430   6.823 -0.2924  0.1272 -0.5767
 1016MOL0     C37055   4.745   1.452   6.822 -0.5414 -0.6896  0.6320
 1016MOL0     O37056   4.683   1.496   6.709  0.0173  0.0722 -0.4831
 1016MOL0     C37057   4.553   1.532   6.727 -0.6487  0.4386  0.2354
 1016MOL0     C37058   4.524   1.665   6.754  0.2349 -0.0422  0.3951
 1016MOL0     C37059   4.388   1.708   6.771 -0.0377 -0.1445 -0.1403
 1016MOL0     C37060   4.283   1.612   6.742 -0.7151 -0.1610  0.0680
 1016MOL0     O37061   4.149   1.643   6.745  0.1715  0.1852  0.3191
 1016MOL0     C37062   4.102   1.761   6.820  0.9276  0.3882 -0.0088
 1016MOL0     C37063   3.967   1.738   6.889 -0.2341  0.4473  0.8619
 1016MOL0     C37064   3.897   1.867   6.929 -0.0984  0.3535  0.1487
 1016MOL0     C37065   3.760   1.839   6.992  0.7919 -0.1779 -0.1323
 1016MOL0     C37066   3.763   1.864   7.137  0.4377 -0.1409 -0.4272
 1016MOL0     C37067   3.644   1.808   7.217  0.1922  0.4379 -0.4218
 1016MOL0     C37068   3.519   1.877   7.173  1.0158 -0.2597  0.0116
 1016MOL0     C37069   3.400   1.889   7.276 -0.3058 -0.9830  0.3728
 1016MOL0    Cl37070   3.448   1.959   7.434 -0.4204 -0.3000  0.3002
 1016MOL0     C37071   4.323   1.475   6.723  0.7649 -0.5217 -0.8222
 1016MOL0     C37072   4.458   1.435   6.715  0.3754 -0.1682  0.1876
 1016MOL0     O37073   4.693   1.440   6.935  0.0228 -0.4131  0.5079
 1016MOL0     C37074   4.982   1.487   6.914 -0.7595 -0.4263  0.2691
 1016MOL0     C37075   5.112   1.450   6.921 -0.2585  0.9228 -0.4360
 1016MOL0     N37076   5.803   1.163   6.957  0.5214 -0.1787 -0.0217
 1016MOL0     N37077   5.904   1.158   7.044 -0.1525  0.3181  0.2337
 1016MOL0     C37078   7.199   1.154   6.777 -0.0907 -0.0735 -0.1459
 1016MOL0     C37079   7.319   1.165   6.700  0.3575  1.0564 -0.0011
 1016MOL0     C37080   7.620   1.220   6.388 -0.8715 -0.6476 -0.2792
 1016MOL0     C37081   7.674   1.351   6.410 -0.6397 -0.0950  0.2069
 1016MOL0     C37082   7.805   1.383   6.358  0.9768  0.3875  0.1524
 1016MOL0     C37083   7.866   1.292   6.269  0.3197 -0.3175  0.0119
 1016MOL0     O37084   7.979   1.329   6.210 -0.4153 -0.2744  0.1950
 1016MOL0     C37085   8.076   1.219   6.206 -0.0376  0.2791 -0.0756
 1016MOL0     C37086   8.196   1.295   6.157  0.7909 -0.2068 -0.3972
 1016MOL0     C37087   8.307   1.185   6.156  0.5704  0.1996 -0.1750
 1016MOL0     C37088   8.439   1.246   6.113 -0.2300  0.0927 -0.4301
 1016MOL0     C37089   8.503   1.334   6.208  0.7986 -0.6026  0.2430
 1016MOL0     C37090   8.566   1.396   6.296 -0.1494 -0.6945  0.6047
 1016MOL0     C37091   7.803   1.170   6.241 -0.3897  0.7909  0.8595
 1016MOL0     C37092   7.689   1.131   6.303  0.0492 -0.2978  0.8827
 1016MOL0     H37093   7.222   1.417   6.479  0.5116 -1.2540 -1.1655
 1016MOL0     H37094   7.021   1.394   6.625 -3.7759 -4.1006 -1.6377
 1016MOL0     H37095   6.903   1.043   6.727  0.8450  0.7540  0.4531
 1016MOL0     H37096   7.000   1.020   6.869 -0.1834 -0.7109 -0.8452
 1016MOL0     H37097   6.771   0.989   6.936  0.1043 -0.5624 -2.6199
 1016MOL0     H37098   6.847   1.121   7.022  0.0198 -0.3464 -0.4183
 1016MOL0     H37099   6.721   1.278   6.868 -0.0532 -1.2135 -4.0057
 1016MOL0     H37100   6.659   1.158   6.783 -1.0396  1.1325  0.5679
 1016MOL0     H37101   6.566   1.040   7.006 -2.6583  1.5141  3.1953
 1016MOL0     H37102   6.624   1.189   7.076  0.9209 -1.3460  0.7139
 1016MOL0     H37103   6.483   1.314   6.895  0.1689  0.5019  2.5956
 1016MOL0     H37104   6.415   1.146   6.855 -1.7923  0.5297 -0.5066
 1016MOL0     H37105   6.333   1.136   7.090  0.3492 -0.3654  0.6151
 1016MOL0     H37106   6.398   1.310   7.103  0.1287 -1.3894  0.0544
 1016MOL0     H37107   6.240   1.372   6.940 -0.5006  0.6666  3.9265
 1016MOL0     H37108   6.184   1.216   6.896 -1.0857 -1.1630  1.5117
 1016MOL0     H37109   6.120   1.393   7.118 -1.2509  0.8943 -1.0947
 1016MOL0     H37110   6.117   1.226   7.163 -0.1617 -1.4131 -1.6852
 1016MOL0     H37111   5.970   1.411   6.862  0.0260 -3.2890 -4.8081
 1016MOL0     H37112   5.745   1.355   6.686 -0.8377 -0.9025 -0.7706
 1016MOL0     H37113   5.656   1.222   6.747  0.1566 -0.1262  1.4939
 1016MOL0     H37114   5.634   1.491   6.896 -2.3358  1.1027 -0.7611
 1016MOL0     H37115   5.554   1.343   6.917 -1.2557  0.3447 -0.5224
 1016MOL0     H37116   5.533   1.495   6.649 -0.5883 -3.7926 -1.9305
 1016MOL0     H37117   5.432   1.540   6.791 -0.7987 -0.3724 -0.6095
 1016MOL0     H37118   5.435   1.264   6.658 -2.5763 -2.3850  1.3703
 1016MOL0     H37119   5.328   1.380   6.610  1.0840 -3.2611 -0.8753
 1016MOL0     H37120   5.134   1.259   6.657 -0.9671  0.6599 -1.0515
 1016MOL0     H37121   4.774   1.217   6.658  0.1071  0.9853  2.7761
 1016MOL0     H37122   4.835   1.348   6.547  2.2126 -1.6805 -2.1329
 1016MOL0     H37123   4.914   1.194   6.573  0.5513 -0.2696  0.6654
 1016MOL0     H37124   4.605   1.734   6.777 -1.1742  1.9181 -0.3120
 1016MOL0     H37125   4.365   1.810   6.799 -2.4339 -1.5571  4.0688
 1016MOL0     H37126   4.179   1.789   6.892  0.3164 -1.0773  1.2855
 1016MOL0     H37127   4.092   1.839   6.744  1.6207 -1.5653 -2.2375
 1016MOL0     H37128   3.901   1.688   6.818  1.5938  0.7734 -1.1815
 1016MOL0     H37129   3.981   1.667   6.971  1.2400  2.0957  2.1223
 1016MOL0     H37130   3.886   1.925   6.837 -2.5272  0.8499  0.6767
 1016MOL0     H37131   3.958   1.924   7.000  1.2809 -1.0684  0.1726
 1016MOL0     H37132   3.687   1.908   6.948  0.1169  0.5129  1.9522
 1016MOL0     H37133   3.727   1.737   6.970 -0.9845  0.9372 -3.3318
 1016MOL0     H37134   3.789   1.965   7.170  0.2341 -0.2855  0.2057
 1016MOL0     H37135   3.844   1.811   7.189 -0.9424  1.8232  4.2695
 1016MOL0     H37136   3.626   1.700   7.212  0.4601  0.3299  0.6247
 1016MOL0     H37137   3.651   1.823   7.326 -2.3952 -0.1826 -0.0979
 1016MOL0     H37138   3.479   1.828   7.084 -2.3315 -0.9665  1.7352
 1016MOL0     H37139   3.539   1.981   7.147 -0.7003 -0.2519 -1.5013
 1016MOL0     H37140   3.361   1.789   7.296 -1.1213 -1.1029 -1.5226
 1016MOL0     H37141   3.312   1.943   7.238  0.3347  0.6086  1.0486
 1016MOL0     H37142   4.248   1.396   6.723  1.2055 -0.9424 -1.4607
 1016MOL0     H37143   4.489   1.335   6.684  0.3931  0.3035 -1.3941
 1016MOL0     H37144   4.941   1.559   6.982 -2.2746 -0.8055 -0.2140
 1016MOL0     H37145   5.176   1.490   6.999 -1.1407 -1.4026  1.6602
 1016MOL0     H37146   7.193   1.091   6.864  1.4411  2.3685  1.8715
 1016MOL0     H37147   7.399   1.094   6.718 -0.5382 -0.1942 -0.7723
 1016MOL0     H37148   7.626   1.426   6.473 -0.2288 -1.4672  2.2515
 1016MOL0     H37149   7.854   1.478   6.379  1.0787  0.5260 -0.6660
 1016MOL0     H37150   8.094   1.178   6.306  1.1275 -2.2456 -1.2540
 1016MOL0     H37151   8.056   1.139   6.134  3.5170 -2.1873  1.4321
 1016MOL0     H37152   8.219   1.368   6.235  0.2500 -0.2295 -0.2081
 1016MOL0     H37153   8.179   1.338   6.058  1.0380 -1.4461 -0.9960
 1016MOL0     H37154   8.273   1.100   6.095 -0.9970  1.1895 -0.7247
 1016MOL0     H37155   8.327   1.140   6.253  0.8564  1.4061  0.3364
 1016MOL0     H37156   8.418   1.310   6.027 -4.9026  0.0540  0.4109
 1016MOL0     H37157   8.504   1.162   6.085  2.1820  1.9695 -0.8547
 1016MOL0     H37158   8.634   1.444   6.364  2.4414 -1.0404 -1.5671
 1016MOL0     H37159   7.850   1.108   6.165 -1.1767  3.9472 -2.4919
 1016MOL0     H37160   7.644   1.036   6.278  0.4757 -0.4821  0.8111
 1017MOL0     O37161   3.558  10.554   8.501  0.0741 -0.5439  0.1006
 1017MOL0     C37162   3.613  10.562   8.394  0.1110  0.7164 -0.6028
 1017MOL0     O37163   3.547  10.554   8.278 -0.6121 -0.2062 -0.6334
 1017MOL0     C37164   3.427  10.486   8.279  0.2884  0.2384 -0.3378
 1017MOL0     C37165   3.298  10.547   8.263  0.6279 -0.2197 -0.0320
 1017MOL0     C37166   3.189  10.467   8.247 -0.6447 -1.0964 -0.3011
 1017MOL0     C37167   3.192  10.328   8.272  0.0968  0.2205 -0.3295
 1017MOL0     O37168   3.084  10.245   8.252 -0.3198  0.2997 -0.3958
 1017MOL0     C37169   2.961  10.301   8.217 -0.2227  0.3172 -0.6121
 1017MOL0     C37170   2.834  10.206   8.239  0.0712 -0.3281 -0.1075
 1017MOL0     C37171   2.722  10.262   8.156  0.2786  0.5470  0.0812
 1017MOL0     C37172   2.598  10.170   8.162 -0.3031 -0.5842  0.1415
 1017MOL0     C37173   2.514  10.201   8.041  0.7083  0.7878 -0.5715
 1017MOL0     C37174   2.375  10.130   8.052 -0.4270  0.3074 -0.1912
 1017MOL0     C37175   2.302  10.135   7.917  0.5898 -0.0339  0.2953
 1017MOL0     C37176   2.201  10.020   7.907 -0.5154 -0.1533 -1.4087
 1017MOL0     N37177   2.108  10.033   7.799 -0.5449 -0.5019  0.2700
 1017MOL0     C37178   2.140  10.032   7.666 -0.3367  0.1917  0.0891
 1017MOL0     C37179   2.026  10.083   7.610 -0.0328  0.0219  0.8415
 1017MOL0     C37180   2.003  10.110   7.463 -0.5296  0.3496 -0.2635
 1017MOL0     C37181   1.983   9.977   7.385  0.6272  0.8909 -0.3118
 1017MOL0     C37182   1.864   9.894   7.428 -0.5292  0.0712 -0.1468
 1017MOL0     C37183   1.729   9.970   7.440  0.1035 -0.1461  0.3545
 1017MOL0     O37184   1.622   9.879   7.446 -0.2086 -0.1893  0.5825
 1017MOL0     C37185   1.491   9.927   7.447  0.1367  0.4729  0.4331
 1017MOL0     C37186   1.458  10.049   7.395 -0.7973  0.8434  0.0515
 1017MOL0     C37187   1.319  10.096   7.400  0.1376 -0.0319 -1.1502
 1017MOL0     C37188   1.289  10.231   7.344  0.2520 -0.6319  0.2004
 1017MOL0     C37189   1.220  10.012   7.460 -0.7434 -0.0122 -0.3053
 1017MOL0     C37190   1.081  10.053   7.468 -0.0666  0.5946  0.1507
 1017MOL0     O37191   1.028  10.117   7.358 -0.3667  0.0240  0.6479
 1017MOL0     C37192   0.902  10.166   7.366 -0.3143 -0.3856 -0.1803
 1017MOL0     C37193   0.809  10.099   7.289  0.3792 -0.5424  0.2915
 1017MOL0     C37194   0.682  10.136   7.292 -0.3026  0.0798  0.0243
 1017MOL0     C37195   0.636  10.248   7.362 -0.0353 -1.5184  0.1675
 1017MOL0     O37196   0.505  10.284   7.357  0.4119 -0.3864 -0.3197
 1017MOL0     C37197   0.415  10.222   7.263  0.2802 -0.5364 -0.1474
 1017MOL0     C37198   0.286  10.295   7.280  0.3159  0.1296 -0.0188
 1017MOL0     C37199   0.192  10.247   7.166 -0.8136  0.2685  0.0219
 1017MOL0     C37200   0.063  10.326   7.178 -0.4677  0.4085  0.2498
 1017MOL0     C37201  -0.032  10.255   7.092  0.0508  0.8484  0.2542
 1017MOL0     C37202  -0.149  10.201   7.166  0.7266  0.4367 -0.3886
 1017MOL0     C37203  -0.257  10.135   7.069 -0.4724 -0.3503 -0.1398
 1017MOL0     C37204  -0.377  10.081   7.156 -0.3173  0.9436 -0.6828
 1017MOL0    Cl37205  -0.449  10.224   7.239 -0.2031  0.1154  0.3729
 1017MOL0     C37206   0.727  10.315   7.441 -0.2213 -0.2867 -0.5307
 1017MOL0     C37207   0.860  10.272   7.449  0.2251  0.0885 -0.1875
 1017MOL0     O37208   1.020  10.028   7.570  0.4218  0.6807  0.0147
 1017MOL0     C37209   1.269   9.886   7.517 -0.2207  0.0728  0.6109
 1017MOL0     C37210   1.400   9.848   7.511  0.5986 -0.4900  0.0409
 1017MOL0     N37211   1.937  10.116   7.707 -0.0733 -0.9742 -0.3179
 1017MOL0     N37212   1.989  10.085   7.818  1.0805  0.3384 -0.4968
 1017MOL0     C37213   3.320  10.271   8.295 -0.0160  0.5623  0.4800
 1017MOL0     C37214   3.441  10.346   8.295 -0.6446 -0.5226 -0.1380
 1017MOL0     C37215   3.756  10.591   8.397  0.2695  0.2755 -1.3261
 1017MOL0     C37216   3.847  10.535   8.306 -0.4939 -0.1211  0.4781
 1017MOL0     C37217   3.979  10.541   8.340 -0.7027 -0.3181 -0.0253
 1017MOL0     C37218   4.033  10.617   8.439 -0.7604  0.0921 -0.6532
 1017MOL0     O37219   4.171  10.641   8.440 -0.2433  0.1461  0.8243
 1017MOL0     C37220   4.233  10.572   8.550 -0.1363  0.2348  0.0315
 1017MOL0     C37221   4.328  10.462   8.489 -0.1414  0.2113  0.2902
 1017MOL0     C37222   4.451  10.517   8.404 -0.5424 -0.3176  0.3745
 1017MOL0     C37223   4.403  10.526   8.254  0.1142 -0.4687 -0.1102
 1017MOL0     C37224   4.535  10.545   8.185 -0.3837 -0.5435 -0.2394
 1017MOL0     C37225   4.635  10.589   8.128 -0.1488 -0.1378 -1.0324
 1017MOL0     C37226   3.944  10.682   8.532 -0.2045  0.7966 -0.9607
 1017MOL0     C37227   3.810  10.664   8.509  0.4837  0.2527 -0.5483
 1017MOL0     H37228   3.287  10.653   8.241  2.0658  0.1352  0.7603
 1017MOL0     H37229   3.095  10.518   8.227  0.0681  1.3596  1.9513
 1017MOL0     H37230   2.949  10.379   8.293  4.9775 -2.1676  3.3508
 1017MOL0     H37231   2.974  10.330   8.112  1.6625 -2.1568 -1.1600
 1017MOL0     H37232   2.860  10.102   8.216  0.5945 -0.1766 -0.2223
 1017MOL0     H37233   2.804  10.218   8.343 -2.1378 -1.0359 -0.6039
 1017MOL0     H37234   2.705  10.367   8.183 -1.1215  0.3307  0.1207
 1017MOL0     H37235   2.767  10.259   8.056  2.2011 -2.9657  0.8622
 1017MOL0     H37236   2.617  10.063   8.154 -3.5582 -1.2903  0.7107
 1017MOL0     H37237   2.546  10.182   8.257  0.2934 -2.7885  0.8082
 1017MOL0     H37238   2.497  10.307   8.019  1.5559  0.4041 -3.5217
 1017MOL0     H37239   2.562  10.163   7.950  1.6362  0.6174 -0.0258
 1017MOL0     H37240   2.403  10.024   8.059 -2.1734 -0.1627  0.0446
 1017MOL0     H37241   2.317  10.170   8.136  0.0844  0.6018  0.0252
 1017MOL0     H37242   2.241  10.226   7.916  0.5538 -0.0492 -1.3523
 1017MOL0     H37243   2.371  10.133   7.833  1.1531  2.9174  0.5639
 1017MOL0     H37244   2.135  10.017   7.994 -1.2969  0.6688 -1.9603
 1017MOL0     H37245   2.248   9.921   7.897 -0.1923 -0.0241 -1.1950
 1017MOL0     H37246   2.238  10.018   7.621  0.5350  2.4335  1.1209
 1017MOL0     H37247   1.908  10.164   7.462 -1.1682 -0.7266 -2.0614
 1017MOL0     H37248   2.081  10.171   7.417 -0.6421  0.1556 -0.7141
 1017MOL0     H37249   2.066   9.906   7.393 -0.6745 -1.0010 -2.3011
 1017MOL0     H37250   1.970   9.997   7.278  0.5810 -2.1856 -0.9714
 1017MOL0     H37251   1.880   9.847   7.525  0.7543 -0.9191 -0.8097
 1017MOL0     H37252   1.855   9.814   7.354  2.1259 -0.2629 -0.1894
 1017MOL0     H37253   1.722  10.029   7.348  0.8517 -0.2028  0.2538
 1017MOL0     H37254   1.738  10.027   7.533 -0.4399 -0.4426  0.5888
 1017MOL0     H37255   1.531  10.105   7.337 -0.0196  0.8499  1.0027
 1017MOL0     H37256   1.221  10.288   7.407 -0.3201  1.1495 -1.8834
 1017MOL0     H37257   1.377  10.294   7.329 -0.0500 -0.0923  0.6843
 1017MOL0     H37258   1.241  10.219   7.246  0.9784 -1.3954 -0.0693
 1017MOL0     H37259   0.838  10.015   7.226 -2.3577 -1.0330 -0.4383
 1017MOL0     H37260   0.620  10.069   7.234  1.1250 -2.1181  0.9355
 1017MOL0     H37261   0.447  10.240   7.160  0.6516  0.0573  0.0629
 1017MOL0     H37262   0.398  10.115   7.278  1.6476 -0.9369 -1.2277
 1017MOL0     H37263   0.235  10.280   7.376  1.5394 -0.4834  0.5499
 1017MOL0     H37264   0.296  10.403   7.283 -1.1823  0.3280 -0.9370
 1017MOL0     H37265   0.182  10.141   7.189  1.0327  0.5003  2.4066
 1017MOL0     H37266   0.242  10.262   7.070  3.1504 -1.1256  1.6282
 1017MOL0     H37267   0.030  10.323   7.282 -0.6756  0.4559  0.1852
 1017MOL0     H37268   0.075  10.430   7.147 -0.0421  0.3508  0.2182
 1017MOL0     H37269   0.018  10.170   7.044 -0.8587 -0.5287  1.6610
 1017MOL0     H37270  -0.070  10.314   7.009  0.9651 -1.2108 -1.7507
 1017MOL0     H37271  -0.120  10.132   7.246 -0.5261 -1.5723 -1.5966
 1017MOL0     H37272  -0.184  10.291   7.218  1.4913  0.1571  0.6572
 1017MOL0     H37273  -0.203  10.057   7.014  2.5350  0.8976  0.8073
 1017MOL0     H37274  -0.283  10.200   6.986  1.4460  0.2188 -0.3509
 1017MOL0     H37275  -0.341  10.005   7.225  0.1303 -0.8319 -2.7563
 1017MOL0     H37276  -0.450  10.031   7.093 -0.8263  0.1495  0.5096
 1017MOL0     H37277   0.706  10.410   7.489  0.5947 -0.9557  1.2240
 1017MOL0     H37278   0.932  10.316   7.517 -0.0565 -1.3480  1.0942
 1017MOL0     H37279   1.194   9.828   7.570 -0.6550 -0.6030 -0.7071
 1017MOL0     H37280   1.440   9.753   7.545  0.1574 -0.9695 -0.7609
 1017MOL0     H37281   3.333  10.164   8.301 -0.3904  0.4505 -0.5196
 1017MOL0     H37282   3.536  10.294   8.293 -0.1969  0.2048  1.1175
 1017MOL0     H37283   3.816  10.475   8.221 -3.0589  0.2285  1.0882
 1017MOL0     H37284   4.046  10.482   8.278  0.8494  1.0832  0.2430
 1017MOL0     H37285   4.295  10.645   8.603  0.2498 -1.1069  1.5115
 1017MOL0     H37286   4.173  10.528   8.631  0.7052  2.3961  1.9440
 1017MOL0     H37287   4.272  10.389   8.431 -1.0445  1.1155  0.0026
 1017MOL0     H37288   4.365  10.407   8.576 -1.3076 -2.7956 -0.9806
 1017MOL0     H37289   4.535  10.449   8.419 -0.5487 -0.2292  0.8320
 1017MOL0     H37290   4.477  10.613   8.450  0.7514 -0.9169  0.9388
 1017MOL0     H37291   4.342  10.615   8.236  0.8247  0.3199  1.2456
 1017MOL0     H37292   4.356  10.436   8.213 -1.0885 -0.3607  0.9642
 1017MOL0     H37293   4.708  10.631   8.062 -0.6466  1.5436 -0.5672
 1017MOL0     H37294   3.982  10.736   8.618  0.9211 -2.6920  0.9391
 1017MOL0     H37295   3.753  10.687   8.598  0.5369 -1.4298 -0.0386
 1018MOL0     O37296   5.728   1.402   5.123  0.5107 -0.0941  0.0927
 1018MOL0     C37297   5.779   1.446   5.228 -0.3403 -0.3122  1.1124
 1018MOL0     O37298   5.703   1.503   5.324 -0.9401 -0.7567 -0.0457
 1018MOL0     C37299   5.580   1.447   5.363  0.2728  0.7183  0.1832
 1018MOL0     C37300   5.485   1.539   5.409 -0.5060  0.8110 -0.3406
 1018MOL0     C37301   5.360   1.491   5.445  0.2795  0.5932  0.0848
 1018MOL0     C37302   5.332   1.354   5.463 -0.4269 -0.4996 -0.4500
 1018MOL0     O37303   5.217   1.314   5.529 -0.6373 -0.1393 -0.4556
 1018MOL0     C37304   5.157   1.192   5.498  0.3868  0.1772 -0.1315
 1018MOL0     C37305   5.022   1.186   5.576  0.5321 -0.4094  0.3538
 1018MOL0     C37306   4.984   1.039   5.567  0.1858 -0.0977 -0.1309
 1018MOL0     C37307   4.851   0.997   5.621  0.5932  0.0650 -0.4053
 1018MOL0     C37308   4.774   0.875   5.546  0.2561  0.9695 -0.5555
 1018MOL0     C37309   4.857   0.745   5.553 -0.1371 -0.2012  0.2567
 1018MOL0     C37310   4.777   0.618   5.516  0.4478  0.2632 -0.9547
 1018MOL0     C37311   4.707   0.615   5.388  0.2809 -0.5302 -0.1182
 1018MOL0     N37312   4.637   0.489   5.373  0.2403 -0.5125 -0.6678
 1018MOL0     C37313   4.503   0.476   5.402  0.0974  0.3569  0.0204
 1018MOL0     C37314   4.469   0.352   5.348 -0.0670 -0.0069 -0.1673
 1018MOL0     C37315   4.340   0.286   5.351 -0.2294  0.4391 -0.2510
 1018MOL0     C37316   4.225   0.357   5.274 -0.4071 -0.5112 -0.3768
 1018MOL0     C37317   4.102   0.277   5.244  0.3773  1.1897  0.2815
 1018MOL0     C37318   3.985   0.373   5.211 -0.0661  0.3163  0.0925
 1018MOL0     O37319   3.867   0.298   5.176 -0.5688 -1.3819  0.3560
 1018MOL0     C37320   3.787   0.232   5.256 -0.2530  0.4002  0.4257
 1018MOL0     C37321   3.677   0.162   5.194 -0.1828 -0.1529 -0.3741
 1018MOL0     C37322   3.568   0.098   5.256 -0.8249 -0.8494 -0.4147
 1018MOL0     C37323   3.483   0.012   5.163  0.4862  0.5769 -0.3260
 1018MOL0     C37324   3.583   0.098   5.397  0.4146  0.2283  0.2215
 1018MOL0     C37325   3.481   0.027   5.473 -0.2156  0.1149 -0.2511
 1018MOL0     O37326   3.504   0.013   5.605 -0.0108 -0.5156 -0.4956
 1018MOL0     C37327   3.412  -0.043   5.686  0.2882  0.1213  0.0684
 1018MOL0     C37328   3.470  -0.097   5.797 -0.8657 -0.0038  0.0819
 1018MOL0     C37329   3.397  -0.182   5.883  0.4705 -0.2750  0.5880
 1018MOL0     C37330   3.260  -0.196   5.870  0.2082 -0.3030 -0.1090
 1018MOL0     O37331   3.185  -0.279   5.952 -0.3189  0.3444  0.0321
 1018MOL0     C37332   3.083  -0.360   5.894  0.1188 -0.1150  0.3183
 1018MOL0     C37333   3.036  -0.476   5.984  0.8147 -0.5362 -0.6160
 1018MOL0     C37334   3.152  -0.581   5.982 -0.7451  0.3509  0.2370
 1018MOL0     C37335   3.113  -0.697   6.070 -0.2713 -0.3927 -0.7577
 1018MOL0     C37336   3.226  -0.794   6.074  0.0183  0.0299  0.3906
 1018MOL0     C37337   3.206  -0.899   6.187  0.2985  0.3713 -0.0978
 1018MOL0     C37338   3.226  -0.848   6.321  0.8225 -0.0868  0.4586
 1018MOL0     C37339   3.361  -0.797   6.346 -1.0228  0.0245  0.1647
 1018MOL0    Cl37340   3.479  -0.925   6.324  0.5659 -0.0715 -0.0978
 1018MOL0     C37341   3.195  -0.137   5.753 -0.2914 -0.8575 -0.8100
 1018MOL0     C37342   3.273  -0.056   5.666 -1.3408 -0.8299  0.2119
 1018MOL0     O37343   3.382  -0.022   5.411 -0.6940 -0.7069 -0.7736
 1018MOL0     C37344   3.694   0.151   5.466 -1.4556 -0.3912 -0.2575
 1018MOL0     C37345   3.799   0.221   5.393 -0.2504 -0.2466  0.2514
 1018MOL0     N37346   4.586   0.297   5.305 -0.1367 -0.6947 -0.0554
 1018MOL0     N37347   4.685   0.378   5.322  0.1917 -0.1733  0.0718
 1018MOL0     C37348   5.431   1.258   5.416  0.2584  0.2822  0.6933
 1018MOL0     C37349   5.553   1.309   5.364  1.3723 -0.2487  1.2065
 1018MOL0     C37350   5.922   1.488   5.227 -0.1025  0.6640  0.1893
 1018MOL0     C37351   6.015   1.416   5.142 -0.3882 -0.2744 -0.4590
 1018MOL0     C37352   6.150   1.457   5.136  0.8969  0.0148  0.5052
 1018MOL0     C37353   6.183   1.574   5.214 -1.0097 -0.8946  0.1840
 1018MOL0     O37354   6.317   1.614   5.227  0.5129 -0.1888 -0.5574
 1018MOL0     C37355   6.425   1.513   5.203  0.5359 -0.4339  0.9963
 1018MOL0     C37356   6.557   1.585   5.212  0.5725  0.6781 -0.6961
 1018MOL0     C37357   6.656   1.492   5.145 -0.0487  0.7055 -0.2499
 1018MOL0     C37358   6.804   1.534   5.156 -0.3619  0.3793 -0.5294
 1018MOL0     C37359   6.857   1.509   5.292 -0.0143 -0.2063 -0.5585
 1018MOL0     C37360   6.890   1.488   5.403  0.2290 -0.0774 -0.4033
 1018MOL0     C37361   6.089   1.640   5.296  0.0036 -0.4049  0.2491
 1018MOL0     C37362   5.961   1.597   5.295  0.3251  0.1613 -0.2177
 1018MOL0     H37363   5.507   1.645   5.410  0.4536  0.6164 -0.2703
 1018MOL0     H37364   5.285   1.564   5.473  0.3553  0.1110  1.6026
 1018MOL0     H37365   5.137   1.178   5.391 -2.1087  0.2182  0.2707
 1018MOL0     H37366   5.211   1.103   5.533 -2.9107 -0.3951  4.3641
 1018MOL0     H37367   5.038   1.206   5.682 -1.2538  2.2270  0.2183
 1018MOL0     H37368   4.944   1.254   5.540 -0.2636 -0.7192  1.4379
 1018MOL0     H37369   4.978   1.015   5.460  1.6032 -0.1934 -0.2065
 1018MOL0     H37370   5.062   0.972   5.604  2.0679  1.0407 -1.7697
 1018MOL0     H37371   4.876   0.967   5.723  0.1898  2.6723  0.5355
 1018MOL0     H37372   4.785   1.082   5.641  1.9236  0.4093  3.2242
 1018MOL0     H37373   4.677   0.854   5.592  0.7838  0.8033  0.5177
 1018MOL0     H37374   4.740   0.896   5.444 -1.6999 -1.0268 -0.3913
 1018MOL0     H37375   4.954   0.753   5.503 -0.6697 -0.2898 -0.8341
 1018MOL0     H37376   4.877   0.722   5.658 -2.1924  1.2524  1.0422
 1018MOL0     H37377   4.846   0.533   5.517 -2.3177 -2.1459  0.5871
 1018MOL0     H37378   4.710   0.589   5.598  0.1338  0.2665 -1.2079
 1018MOL0     H37379   4.782   0.631   5.310 -0.6220  5.6778 -0.1937
 1018MOL0     H37380   4.635   0.697   5.381  0.0037 -0.6086  1.5388
 1018MOL0     H37381   4.439   0.547   5.453  0.4830  0.1469  0.8148
 1018MOL0     H37382   4.336   0.184   5.313 -2.1291  0.1982  0.4538
 1018MOL0     H37383   4.313   0.279   5.457 -1.7129 -0.1272 -0.6436
 1018MOL0     H37384   4.259   0.399   5.179 -1.3585  1.2622  0.0203
 1018MOL0     H37385   4.189   0.435   5.341 -0.9346 -1.1543  0.1036
 1018MOL0     H37386   4.076   0.212   5.328 -0.0091  0.0033 -0.7129
 1018MOL0     H37387   4.111   0.205   5.162  1.3193  0.4876  0.9942
 1018MOL0     H37388   4.019   0.439   5.131  2.3375  0.6522  1.2936
 1018MOL0     H37389   3.960   0.437   5.296  0.6624 -0.3614  0.8418
 1018MOL0     H37390   3.674   0.164   5.085  1.2119 -0.3220 -0.4327
 1018MOL0     H37391   3.510   0.012   5.057 -1.3176 -1.2418 -0.8360
 1018MOL0     H37392   3.486  -0.092   5.198 -0.6829  1.2526  1.9583
 1018MOL0     H37393   3.378   0.042   5.160  0.3040  0.3037  1.8224
 1018MOL0     H37394   3.578  -0.086   5.804 -0.9855  0.4349  1.5073
 1018MOL0     H37395   3.450  -0.233   5.963  1.9428  0.7002  0.2699
 1018MOL0     H37396   2.992  -0.303   5.873 -0.5314 -0.4983  1.9380
 1018MOL0     H37397   3.133  -0.399   5.804  2.2574  2.6510  0.1734
 1018MOL0     H37398   2.999  -0.442   6.081 -0.8329 -2.6910 -0.3948
 1018MOL0     H37399   2.949  -0.530   5.945  0.5090 -2.5512  2.4349
 1018MOL0     H37400   3.246  -0.535   6.015  0.0505  1.8241 -3.6297
 1018MOL0     H37401   3.164  -0.613   5.878 -0.6611 -2.5172  1.0531
 1018MOL0     H37402   3.101  -0.651   6.168  0.7746 -0.8277 -0.4130
 1018MOL0     H37403   3.014  -0.740   6.052 -1.0609  0.3990  1.4192
 1018MOL0     H37404   3.312  -0.731   6.099  0.1031 -0.3692  1.1467
 1018MOL0     H37405   3.231  -0.838   5.974 -0.8844  2.1506 -0.6514
 1018MOL0     H37406   3.110  -0.950   6.176  0.1244  0.2857  1.5930
 1018MOL0     H37407   3.273  -0.984   6.171  1.7373  1.1580  1.4051
 1018MOL0     H37408   3.201  -0.928   6.391 -1.0271  0.5690  0.6017
 1018MOL0     H37409   3.161  -0.761   6.333  1.2194 -0.0322  2.5454
 1018MOL0     H37410   3.363  -0.759   6.449 -0.0141 -1.2783  0.6553
 1018MOL0     H37411   3.397  -0.723   6.275 -1.0386 -1.7271 -1.7585
 1018MOL0     H37412   3.088  -0.138   5.734 -1.0288  2.7518  1.8876
 1018MOL0     H37413   3.219  -0.011   5.584  0.0006 -1.4925 -1.0750
 1018MOL0     H37414   3.701   0.148   5.575 -0.0641  0.7985 -0.2850
 1018MOL0     H37415   3.874   0.278   5.446 -1.2418 -0.0254  1.4465
 1018MOL0     H37416   5.411   1.152   5.411  0.8308  0.2154 -0.4403
 1018MOL0     H37417   5.618   1.233   5.321 -0.7797 -1.5726  0.0948
 1018MOL0     H37418   5.983   1.324   5.093 -2.0541 -1.7910  3.1458
 1018MOL0     H37419   6.224   1.406   5.075  1.6647  1.3764  0.2604
 1018MOL0     H37420   6.402   1.435   5.276 -0.3837 -3.0217 -1.9044
 1018MOL0     H37421   6.415   1.490   5.097 -1.6088  0.5369  0.9381
 1018MOL0     H37422   6.589   1.614   5.313  2.5125  0.3189 -1.1631
 1018MOL0     H37423   6.554   1.671   5.146  0.0784 -0.2670 -1.9419
 1018MOL0     H37424   6.637   1.482   5.037 -3.0724 -2.9700  0.4126
 1018MOL0     H37425   6.648   1.392   5.188  1.3451 -0.1840 -1.9043
 1018MOL0     H37426   6.803   1.637   5.119  0.6217  0.3315 -0.7156
 1018MOL0     H37427   6.858   1.463   5.092 -1.4763 -0.8945 -0.1139
 1018MOL0     H37428   6.925   1.449   5.497 -0.7174  0.7989  0.3424
 1018MOL0     H37429   6.115   1.729   5.353  2.0966  0.6970 -2.2465
 1018MOL0     H37430   5.895   1.652   5.361  0.9353 -2.0324  2.4390
 1019MOL0     O37431   2.623   1.711   7.669  0.0327 -0.6157  0.3312
 1019MOL0     C37432   2.645   1.675   7.557 -0.0355 -0.0959  0.2651
 1019MOL0     O37433   2.556   1.681   7.452  0.1965  0.4915  0.1723
 1019MOL0     C37434   2.429   1.728   7.481  0.3404  1.1660  0.1968
 1019MOL0     C37435   2.410   1.870   7.463 -0.2119  0.1916 -0.6632
 1019MOL0     C37436   2.287   1.922   7.475  1.2405 -0.1262 -0.1576
 1019MOL0     C37437   2.184   1.844   7.533 -0.5211 -0.8870  0.0098
 1019MOL0     O37438   2.067   1.909   7.556 -0.4271  0.4861  0.1408
 1019MOL0     C37439   1.989   1.842   7.658  0.0715  0.0019  0.6914
 1019MOL0     C37440   1.884   1.941   7.718 -0.5449  0.1577 -1.2450
 1019MOL0     C37441   1.794   1.999   7.605 -0.0225 -0.4999 -0.7554
 1019MOL0     C37442   1.686   2.094   7.654  0.3123 -0.0297  0.0268
 1019MOL0     C37443   1.582   2.122   7.550  0.7519  0.5606 -0.2729
 1019MOL0     C37444   1.476   2.223   7.594  0.7154  0.4106  0.0223
 1019MOL0     C37445   1.364   2.237   7.480  0.3139  0.9634 -0.2740
 1019MOL0     C37446   1.258   2.338   7.538  0.2859 -0.6429  0.7139
 1019MOL0     N37447   1.157   2.357   7.430 -0.1283  0.5545  0.3036
 1019MOL0     C37448   1.057   2.264   7.392 -0.5077 -0.3432 -1.2614
 1019MOL0     C37449   0.970   2.339   7.328  0.6132  1.0131 -1.1450
 1019MOL0     C37450   0.837   2.288   7.279  0.3928  0.6050  0.0293
 1019MOL0     C37451   0.727   2.300   7.387 -0.7583  0.5119  0.1110
 1019MOL0     C37452   0.611   2.209   7.337 -0.1055  0.7579 -1.0022
 1019MOL0     C37453   0.639   2.060   7.371 -0.0249  0.0979 -0.6985
 1019MOL0     O37454   0.550   1.971   7.304 -0.5269  0.4942 -0.1178
 1019MOL0     C37455   0.421   1.974   7.337  0.3499 -0.8148 -0.9887
 1019MOL0     C37456   0.333   1.919   7.251  0.0183 -0.8814  0.4178
 1019MOL0     C37457   0.200   1.894   7.275  0.1278  0.5000 -0.0522
 1019MOL0     C37458   0.121   1.832   7.169  0.0771  0.4621 -0.2201
 1019MOL0     C37459   0.152   1.933   7.407  0.0319 -0.2842  0.8660
 1019MOL0     C37460   0.016   1.928   7.455 -0.6619 -0.2229  0.2055
 1019MOL0     O37461  -0.025   2.023   7.542  0.4524  0.2630  0.0110
 1019MOL0     C37462  -0.150   2.019   7.611  0.2728  0.2011 -0.0861
 1019MOL0     C37463  -0.198   2.146   7.647 -0.2960 -0.1413 -0.1987
 1019MOL0     C37464  -0.327   2.162   7.698 -0.3636  0.4679 -0.1809
 1019MOL0     C37465  -0.415   2.051   7.715  0.2005 -0.2118 -0.2867
 1019MOL0     O37466  -0.544   2.063   7.749  0.3592  0.5268 -0.1976
 1019MOL0     C37467  -0.628   2.158   7.683  0.5731 -0.2146 -0.8265
 1019MOL0     C37468  -0.776   2.135   7.707  0.2121  0.3859  1.2521
 1019MOL0     C37469  -0.827   1.999   7.677  0.1323 -0.6038 -1.0355
 1019MOL0     C37470  -0.790   1.947   7.547 -0.7686  0.3923  0.0132
 1019MOL0     C37471  -0.808   1.797   7.518  0.0998  0.5270 -0.4186
 1019MOL0     C37472  -0.962   1.746   7.536 -0.0052  0.0964  0.1761
 1019MOL0     C37473  -1.056   1.814   7.431 -0.2400  0.0149  0.3255
 1019MOL0     C37474  -1.139   1.725   7.336  0.6753 -0.0012 -0.3645
 1019MOL0    Cl37475  -1.287   1.674   7.433  0.5557  0.3368  0.0048
 1019MOL0     C37476  -0.367   1.921   7.681  0.8577  0.2681 -0.3364
 1019MOL0     C37477  -0.235   1.905   7.641 -0.2812  0.4818  0.0623
 1019MOL0     O37478  -0.045   1.835   7.403 -0.0027 -0.3327 -0.1668
 1019MOL0     C37479   0.247   1.994   7.496  0.4083 -0.4782  0.2377
 1019MOL0     C37480   0.377   2.017   7.460 -0.2310  0.3387  0.4620
 1019MOL0     N37481   1.008   2.466   7.330 -0.4258 -0.5681  0.3701
 1019MOL0     N37482   1.123   2.476   7.384 -0.3592  0.0363  0.3459
 1019MOL0     C37483   2.197   1.704   7.542  0.4915  0.2872 -0.1809
 1019MOL0     C37484   2.323   1.640   7.512 -0.4053  0.1231 -0.4985
 1019MOL0     C37485   2.786   1.643   7.529  0.2965  0.7466  0.4586
 1019MOL0     C37486   2.883   1.627   7.625  0.1163  0.2934 -0.1630
 1019MOL0     C37487   3.016   1.590   7.591  0.5172 -0.1578  0.7381
 1019MOL0     C37488   3.058   1.586   7.458 -0.2740  0.1899  0.3437
 1019MOL0     O37489   3.190   1.565   7.417  0.2264 -0.7135 -0.1474
 1019MOL0     C37490   3.253   1.458   7.483 -0.2315  0.5126 -0.2914
 1019MOL0     C37491   3.388   1.502   7.541  0.3781  0.1385 -0.0113
 1019MOL0     C37492   3.369   1.570   7.678 -0.1383 -0.4866  0.4032
 1019MOL0     C37493   3.496   1.637   7.725  0.8045  0.6083 -1.0913
 1019MOL0     C37494   3.576   1.528   7.775  0.3563  0.2639 -0.2373
 1019MOL0     C37495   3.632   1.443   7.838  0.1039 -0.3273 -0.1718
 1019MOL0     C37496   2.963   1.610   7.359 -0.1658 -0.1743 -0.1937
 1019MOL0     C37497   2.826   1.634   7.391 -0.4838  0.1644 -0.4379
 1019MOL0     H37498   2.496   1.931   7.434  2.0118 -1.4971  1.8985
 1019MOL0     H37499   2.278   2.029   7.458 -1.1352 -0.6501 -2.8689
 1019MOL0     H37500   1.935   1.764   7.604  1.9224 -1.2407  0.5639
 1019MOL0     H37501   2.048   1.808   7.743 -0.5471  0.6157  1.3858
 1019MOL0     H37502   1.823   1.892   7.793 -1.4056  1.7786 -0.8451
 1019MOL0     H37503   1.927   2.024   7.774 -0.4758 -0.2008 -0.7650
 1019MOL0     H37504   1.860   2.052   7.535  0.8830  0.8396  1.0284
 1019MOL0     H37505   1.747   1.926   7.538  0.2487 -0.5352 -0.9070
 1019MOL0     H37506   1.640   2.056   7.745 -0.1212  0.4022 -0.0071
 1019MOL0     H37507   1.733   2.190   7.677  0.9400 -0.6157  1.2719
 1019MOL0     H37508   1.639   2.154   7.462  1.5652  1.4007  0.5337
 1019MOL0     H37509   1.527   2.030   7.528 -0.8485  1.2039  0.8542
 1019MOL0     H37510   1.431   2.196   7.690  0.8066  1.4897  0.3844
 1019MOL0     H37511   1.528   2.319   7.611  2.0805 -0.3828  0.5137
 1019MOL0     H37512   1.398   2.293   7.392  2.6514  1.2971  0.7716
 1019MOL0     H37513   1.324   2.138   7.460 -2.3624  1.8457  0.2479
 1019MOL0     H37514   1.307   2.430   7.570 -2.7662  0.5427  2.4403
 1019MOL0     H37515   1.215   2.294   7.628 -1.4892 -2.8439 -1.0593
 1019MOL0     H37516   1.061   2.158   7.416  1.9399 -0.1026 -0.3144
 1019MOL0     H37517   0.808   2.344   7.191 -0.9108 -0.8820 -0.5308
 1019MOL0     H37518   0.844   2.183   7.248  2.1802  1.2321 -1.9436
 1019MOL0     H37519   0.694   2.404   7.381 -0.8985  0.4045 -3.9626
 1019MOL0     H37520   0.765   2.277   7.487 -2.6574  0.3585  0.8218
 1019MOL0     H37521   0.605   2.211   7.228 -1.6731 -0.8554 -0.9877
 1019MOL0     H37522   0.517   2.242   7.382 -0.5131  0.3560 -1.5616
 1019MOL0     H37523   0.635   2.053   7.481 -1.3375  0.6568 -0.6897
 1019MOL0     H37524   0.737   2.025   7.339  0.2587  0.2874 -0.0435
 1019MOL0     H37525   0.371   1.883   7.155  0.7078 -1.7628  1.0100
 1019MOL0     H37526   0.171   1.849   7.073  2.1944  0.1576  0.7741
 1019MOL0     H37527   0.110   1.726   7.193  2.3921  0.6117  1.8294
 1019MOL0     H37528   0.023   1.875   7.145 -0.4323 -1.2261 -1.3758
 1019MOL0     H37529  -0.124   2.222   7.626 -1.6708  0.7508 -2.0477
 1019MOL0     H37530  -0.349   2.267   7.716 -0.9004  0.4312 -0.5846
 1019MOL0     H37531  -0.609   2.262   7.713 -1.4084  0.5681 -2.0465
 1019MOL0     H37532  -0.604   2.152   7.576  0.0377 -4.0260 -0.8660
 1019MOL0     H37533  -0.794   2.156   7.813 -1.1604 -4.2695  2.1785
 1019MOL0     H37534  -0.839   2.199   7.644 -1.3161 -0.7584  1.5437
 1019MOL0     H37535  -0.934   1.998   7.698  0.1249  0.5913 -0.9419
 1019MOL0     H37536  -0.792   1.929   7.753 -0.1150 -0.5305 -0.8535
 1019MOL0     H37537  -0.839   2.003   7.466 -1.3160 -0.8842 -0.5534
 1019MOL0     H37538  -0.682   1.962   7.537 -0.6336 -0.0436  0.7811
 1019MOL0     H37539  -0.738   1.761   7.594  0.0864 -0.4711 -0.8686
 1019MOL0     H37540  -0.775   1.772   7.417  0.9328 -2.0386  0.4136
 1019MOL0     H37541  -0.966   1.637   7.519 -0.8603 -0.0457  1.2179
 1019MOL0     H37542  -0.984   1.758   7.642  0.1490  0.1543  0.2026
 1019MOL0     H37543  -0.992   1.878   7.370  0.4309 -0.3310  0.6544
 1019MOL0     H37544  -1.126   1.867   7.497 -0.6261  1.5218 -1.2261
 1019MOL0     H37545  -1.086   1.641   7.290 -0.2934 -0.9218  0.1443
 1019MOL0     H37546  -1.161   1.787   7.248  1.5177 -2.2565 -2.2859
 1019MOL0     H37547  -0.431   1.836   7.700 -0.9739  1.3864 -1.1881
 1019MOL0     H37548  -0.202   1.802   7.628 -0.9668  0.0892  1.2598
 1019MOL0     H37549   0.208   2.030   7.591  2.1198  2.6281 -0.1039
 1019MOL0     H37550   0.441   2.065   7.533  1.6740  0.4973 -1.2428
 1019MOL0     H37551   2.108   1.647   7.569 -0.7432  1.7792 -0.9440
 1019MOL0     H37552   2.333   1.533   7.507  1.2512  0.2264  0.2043
 1019MOL0     H37553   2.867   1.632   7.732  1.3958  0.1087  0.0476
 1019MOL0     H37554   3.083   1.595   7.676  0.7477  0.6233  0.5230
 1019MOL0     H37555   3.186   1.423   7.561 -3.0405  3.0241 -1.3769
 1019MOL0     H37556   3.271   1.380   7.409  1.6842  1.7802 -1.2568
 1019MOL0     H37557   3.438   1.569   7.470  0.5986  0.7228  0.6719
 1019MOL0     H37558   3.446   1.412   7.566  0.1037 -0.2157 -0.6315
 1019MOL0     H37559   3.313   1.506   7.747  0.8192 -1.5174  0.2562
 1019MOL0     H37560   3.301   1.654   7.661  0.0109 -0.0093  1.9999
 1019MOL0     H37561   3.465   1.711   7.799  0.2736  2.1906 -2.8025
 1019MOL0     H37562   3.547   1.682   7.639 -1.0885  1.0898 -2.0375
 1019MOL0     H37563   3.681   1.373   7.902  1.7391  0.7808 -0.1684
 1019MOL0     H37564   2.999   1.595   7.257  0.6791 -1.4933  0.2753
 1019MOL0     H37565   2.748   1.655   7.319 -1.6816 -0.9289  0.4785
 1020MOL0     O37566   0.687   9.590   2.143 -0.2234  0.5631 -0.3242
 1020MOL0     C37567   0.696   9.694   2.077 -0.0761  0.0932 -0.0110
 1020MOL0     O37568   0.588   9.769   2.040  0.4461 -1.1674 -0.3570
 1020MOL0     C37569   0.469   9.746   2.093  0.4447 -0.2502  0.4288
 1020MOL0     C37570   0.413   9.816   2.196  0.2788  0.0535  0.0587
 1020MOL0     C37571   0.284   9.784   2.247 -0.5774  0.6729  0.1345
 1020MOL0     C37572   0.212   9.669   2.204 -0.6159  0.6005  0.4060
 1020MOL0     O37573   0.093   9.623   2.265 -0.1801 -0.2267  0.1463
 1020MOL0     C37574   0.072   9.485   2.265 -0.2364  0.2480 -0.1384
 1020MOL0     C37575   0.012   9.436   2.399 -0.4274  0.5172  0.2121
 1020MOL0     C37576  -0.139   9.460   2.409 -0.3153 -0.6761  0.0643
 1020MOL0     C37577  -0.185   9.604   2.439 -0.2394  0.7214  0.2344
 1020MOL0     C37578  -0.335   9.607   2.437  0.0731  0.4540 -0.2516
 1020MOL0     C37579  -0.392   9.715   2.527 -0.0428 -0.0848 -0.2164
 1020MOL0     C37580  -0.352   9.867   2.500 -0.0891 -0.0772 -1.6313
 1020MOL0     C37581  -0.399   9.965   2.605 -1.0195  0.5465 -0.1590
 1020MOL0     N37582  -0.532   9.921   2.649 -0.1727  0.9052  0.0359
 1020MOL0     C37583  -0.563   9.841   2.757 -0.9960 -0.7048  0.3938
 1020MOL0     C37584  -0.694   9.837   2.755 -0.3073  0.2723 -0.0650
 1020MOL0     C37585  -0.761   9.741   2.829 -0.1615 -0.2600  0.6126
 1020MOL0     C37586  -0.742   9.607   2.752 -0.2554 -0.9835 -0.4392
 1020MOL0     C37587  -0.814   9.494   2.825 -0.2154 -0.3638  0.4301
 1020MOL0     C37588  -0.963   9.495   2.824 -0.0732  0.4585  0.0359
 1020MOL0     O37589  -1.023   9.401   2.909  0.4918  0.3891 -0.2392
 1020MOL0     C37590  -1.149   9.426   2.954 -0.4158  1.0137 -0.3700
 1020MOL0     C37591  -1.255   9.420   2.865 -0.0627 -0.3328 -0.0243
 1020MOL0     C37592  -1.388   9.436   2.907 -0.5238 -0.2121  0.4467
 1020MOL0     C37593  -1.484   9.446   2.794 -0.1811  0.5341  0.5365
 1020MOL0     C37594  -1.423   9.454   3.042  0.2015  1.0916  0.4405
 1020MOL0     C37595  -1.567   9.484   3.087  0.0638 -0.0688 -0.3371
 1020MOL0     O37596  -1.628   9.401   3.182 -0.3998  1.1618 -0.7680
 1020MOL0     C37597  -1.759   9.419   3.214 -0.1459  0.0899 -0.3292
 1020MOL0     C37598  -1.810   9.521   3.287  0.3092 -0.5308 -0.0655
 1020MOL0     C37599  -1.946   9.522   3.322 -0.1077 -0.1998  0.3920
 1020MOL0     C37600  -2.029   9.417   3.302  0.5103  0.2516  1.4153
 1020MOL0     O37601  -2.163   9.433   3.325  0.0855  0.6343  0.4446
 1020MOL0     C37602  -2.259   9.395   3.232  0.2616 -0.0891 -0.0081
 1020MOL0     C37603  -2.392   9.460   3.263 -0.7199 -0.2184  1.0036
 1020MOL0     C37604  -2.493   9.429   3.147  0.1810  0.2924 -0.2866
 1020MOL0     C37605  -2.605   9.331   3.204  0.2328  0.8221  0.7244
 1020MOL0     C37606  -2.696   9.281   3.088 -0.5490  0.2982 -0.9204
 1020MOL0     C37607  -2.798   9.391   3.050 -0.4850  0.6992 -0.2861
 1020MOL0     C37608  -2.896   9.358   2.937 -0.3580 -0.1007 -0.1267
 1020MOL0     C37609  -2.935   9.213   2.942 -0.0483 -0.3546 -0.6192
 1020MOL0    Cl37610  -3.007   9.179   2.790 -0.3717 -0.1630 -0.1072
 1020MOL0     C37611  -1.973   9.305   3.247 -0.3535  0.6496  0.4355
 1020MOL0     C37612  -1.843   9.308   3.200 -1.5936  0.4083 -0.0555
 1020MOL0     O37613  -1.628   9.565   3.015 -0.6325  0.0090 -0.3355
 1020MOL0     C37614  -1.313   9.444   3.137 -0.0145  0.1357 -0.3950
 1020MOL0     C37615  -1.185   9.435   3.089 -0.7104 -0.4108  0.0828
 1020MOL0     N37616  -0.740   9.927   2.670  0.6785 -0.0900  0.3339
 1020MOL0     N37617  -0.639   9.983   2.608  0.5180 -0.0581  0.3706
 1020MOL0     C37618   0.273   9.601   2.097  0.3198  0.7662 -0.1337
 1020MOL0     C37619   0.391   9.648   2.037 -0.1361  0.1632 -0.3914
 1020MOL0     C37620   0.824   9.738   2.031 -0.2785 -0.4698  0.4252
 1020MOL0     C37621   0.838   9.874   2.001  0.0989  0.0960 -0.2959
 1020MOL0     C37622   0.959   9.920   1.958  0.0153  0.8634 -0.6802
 1020MOL0     C37623   1.076   9.843   1.967  0.6684 -0.8985  0.6447
 1020MOL0     O37624   1.199   9.892   1.936  0.0528  0.6978  1.1415
 1020MOL0     C37625   1.239  10.011   2.008 -0.0793 -1.1899  0.2105
 1020MOL0     C37626   1.384  10.011   2.057 -0.3618 -0.6066 -0.8640
 1020MOL0     C37627   1.394   9.916   2.183 -0.0416  0.8117 -0.0992
 1020MOL0     C37628   1.518   9.940   2.269  0.5125  0.0526  0.7659
 1020MOL0     C37629   1.647   9.934   2.182  0.1800 -0.0969  0.1722
 1020MOL0     C37630   1.743   9.943   2.103 -0.0098 -0.2653 -0.6855
 1020MOL0     C37631   1.059   9.705   1.993 -0.7855 -0.3060 -0.1688
 1020MOL0     C37632   0.938   9.655   2.027 -0.2006 -0.4258  0.6286
 1020MOL0     H37633   0.473   9.893   2.243  1.0372  1.7763 -3.3478
 1020MOL0     H37634   0.244   9.847   2.326 -0.1231  0.7576  0.3000
 1020MOL0     H37635   0.006   9.477   2.179 -1.5509  0.1099  0.8537
 1020MOL0     H37636   0.160   9.425   2.240 -0.2996 -0.1689  0.5928
 1020MOL0     H37637   0.051   9.336   2.418  2.7989  1.5182 -0.4948
 1020MOL0     H37638   0.061   9.497   2.475  1.5927 -1.9635  1.0310
 1020MOL0     H37639  -0.188   9.427   2.317 -0.5551 -1.5752  0.4956
 1020MOL0     H37640  -0.164   9.398   2.496 -0.0618  0.8782  1.2899
 1020MOL0     H37641  -0.151   9.642   2.536  0.3042  0.7343  0.0446
 1020MOL0     H37642  -0.140   9.676   2.370 -0.4767 -1.5210 -2.4167
 1020MOL0     H37643  -0.375   9.613   2.335  0.5971 -0.9742 -0.5626
 1020MOL0     H37644  -0.375   9.515   2.480 -0.8548  1.7173  1.7315
 1020MOL0     H37645  -0.498   9.700   2.502  0.3815 -0.3595 -1.9723
 1020MOL0     H37646  -0.363   9.702   2.631 -0.8646  1.0235  0.1664
 1020MOL0     H37647  -0.243   9.882   2.503 -0.0050 -0.3696 -2.8252
 1020MOL0     H37648  -0.379   9.901   2.400  0.1949 -0.9319 -2.0068
 1020MOL0     H37649  -0.400  10.068   2.570  1.5717  1.1531  1.2851
 1020MOL0     H37650  -0.328   9.960   2.688 -0.5727  4.5242 -0.1024
 1020MOL0     H37651  -0.487   9.784   2.810  2.1800  1.6074 -1.3152
 1020MOL0     H37652  -0.715   9.742   2.928 -1.0212 -2.8339  1.1137
 1020MOL0     H37653  -0.869   9.757   2.825 -0.4343 -1.7811  1.3370
 1020MOL0     H37654  -0.638   9.584   2.724  0.5611  0.8322  0.9454
 1020MOL0     H37655  -0.794   9.627   2.658 -2.1094 -0.4290  0.6665
 1020MOL0     H37656  -0.771   9.492   2.925 -1.6604 -0.3970  1.0758
 1020MOL0     H37657  -0.788   9.402   2.771 -0.8582  0.1389 -0.7870
 1020MOL0     H37658  -0.996   9.480   2.721 -0.8242 -1.0794  0.4699
 1020MOL0     H37659  -0.995   9.597   2.848 -3.9837 -0.3036 -1.1487
 1020MOL0     H37660  -1.231   9.425   2.759 -0.7915 -3.1855 -0.4208
 1020MOL0     H37661  -1.569   9.382   2.817 -0.7184  1.1150  0.2015
 1020MOL0     H37662  -1.519   9.550   2.798 -2.3880 -0.1187 -0.5366
 1020MOL0     H37663  -1.439   9.424   2.696  2.1008  0.0950  1.6048
 1020MOL0     H37664  -1.746   9.606   3.310 -1.6707  1.2620 -0.8475
 1020MOL0     H37665  -1.984   9.608   3.376  1.5838  0.1692  1.0543
 1020MOL0     H37666  -2.236   9.417   3.127 -0.5421 -1.1874 -0.4310
 1020MOL0     H37667  -2.272   9.286   3.239  0.1496 -0.1452 -0.9585
 1020MOL0     H37668  -2.427   9.423   3.359 -0.9020 -0.0380  1.0092
 1020MOL0     H37669  -2.383   9.569   3.263 -0.3431 -0.2504  1.2988
 1020MOL0     H37670  -2.444   9.394   3.056  3.9471 -1.4092  2.1275
 1020MOL0     H37671  -2.540   9.523   3.119  1.7378  1.0213 -0.5613
 1020MOL0     H37672  -2.562   9.253   3.267 -2.5289 -0.6883  0.9007
 1020MOL0     H37673  -2.659   9.391   3.278  1.3216  3.7721 -0.7184
 1020MOL0     H37674  -2.742   9.194   3.136  0.5643  1.6264  2.9334
 1020MOL0     H37675  -2.629   9.251   3.007 -0.6901 -3.7015  0.2066
 1020MOL0     H37676  -2.863   9.405   3.137  0.5282  1.5904  0.3489
 1020MOL0     H37677  -2.754   9.490   3.034 -1.5803  0.8618 -2.8343
 1020MOL0     H37678  -2.856   9.392   2.841 -0.8177  0.7279 -0.0318
 1020MOL0     H37679  -2.987   9.418   2.944  0.6729  1.4056  0.6946
 1020MOL0     H37680  -2.997   9.203   3.032  0.6801  1.9947  0.2094
 1020MOL0     H37681  -2.853   9.142   2.957  0.7989  0.5393 -0.9065
 1020MOL0     H37682  -2.020   9.207   3.240  3.3448 -1.2020 -1.5705
 1020MOL0     H37683  -1.796   9.217   3.163  0.1886  0.6913  1.3849
 1020MOL0     H37684  -1.333   9.456   3.243  0.5810  0.8553 -0.3571
 1020MOL0     H37685  -1.104   9.414   3.159 -0.1771 -0.1238 -0.4393
 1020MOL0     H37686   0.242   9.507   2.052 -0.6727  2.0979 -2.4525
 1020MOL0     H37687   0.439   9.588   1.961 -2.5942 -0.0650 -1.8510
 1020MOL0     H37688   0.762   9.950   2.005  0.0534  0.1941 -2.1199
 1020MOL0     H37689   0.961  10.028   1.945 -1.5146  0.9082 -0.7046
 1020MOL0     H37690   1.223  10.100   1.946 -1.2827 -1.6779 -0.1937
 1020MOL0     H37691   1.178  10.029   2.098 -0.0988 -2.1694  0.3979
 1020MOL0     H37692   1.420  10.113   2.077  1.7423 -1.0371 -2.1730
 1020MOL0     H37693   1.447   9.973   1.976 -0.2058  0.4921 -1.2826
 1020MOL0     H37694   1.394   9.815   2.140 -0.5593  0.2057  1.2588
 1020MOL0     H37695   1.307   9.929   2.248  1.3877  0.5967  1.9451
 1020MOL0     H37696   1.528   9.860   2.343 -0.3090 -1.1723 -0.3913
 1020MOL0     H37697   1.510  10.030   2.331  0.3188  1.6054 -1.3721
 1020MOL0     H37698   1.828   9.944   2.038 -1.6739 -0.7206 -2.9695
 1020MOL0     H37699   1.147   9.647   2.017  0.4455  1.6798  0.3765
 1020MOL0     H37700   0.943   9.554   2.067  1.7338 -0.6556 -0.1054
 1021MOL0     O37701   2.984   8.762   8.359 -1.0616  0.2381  0.6836
 1021MOL0     C37702   3.034   8.791   8.253 -0.9745 -0.4632 -0.2777
 1021MOL0     O37703   2.986   8.788   8.131  0.7742  0.2776 -0.0791
 1021MOL0     C37704   2.866   8.744   8.090  0.1256  0.7252 -1.5651
 1021MOL0     C37705   2.747   8.732   8.174  0.0874 -0.4534 -0.3990
 1021MOL0     C37706   2.623   8.717   8.108 -0.1233  0.0973 -0.3362
 1021MOL0     C37707   2.610   8.702   7.973  0.2058  0.1399  0.4155
 1021MOL0     O37708   2.496   8.685   7.900 -1.4482 -0.4379  0.2958
 1021MOL0     C37709   2.379   8.625   7.956 -0.5541  0.4957 -0.1632
 1021MOL0     C37710   2.291   8.577   7.849  0.4593 -0.2103 -0.4357
 1021MOL0     C37711   2.148   8.563   7.907  0.4446 -0.1564 -0.1573
 1021MOL0     C37712   2.049   8.465   7.833  0.3965 -0.1084 -0.4444
 1021MOL0     C37713   1.904   8.465   7.883  0.1501 -0.4219  0.0322
 1021MOL0     C37714   1.898   8.393   8.016  0.6013  0.0857 -0.3128
 1021MOL0     C37715   1.756   8.391   8.077 -0.0297  0.7637 -0.2470
 1021MOL0     C37716   1.759   8.311   8.212 -0.4008 -0.5136  0.8139
 1021MOL0     N37717   1.625   8.281   8.249  0.1115 -0.0068 -0.8272
 1021MOL0     C37718   1.537   8.372   8.302 -0.1897 -0.0393 -0.8711
 1021MOL0     C37719   1.420   8.306   8.301 -0.4448 -0.6551  0.4874
 1021MOL0     C37720   1.291   8.357   8.362  0.3567 -0.2627  0.6336
 1021MOL0     C37721   1.285   8.321   8.515 -0.7026  0.1269  0.2350
 1021MOL0     C37722   1.151   8.324   8.585 -0.2626 -0.6269  0.5291
 1021MOL0     C37723   1.076   8.461   8.587 -0.2927  0.1171 -0.5694
 1021MOL0     O37724   0.939   8.423   8.597 -0.8406  0.4725  0.0333
 1021MOL0     C37725   0.849   8.527   8.601  0.2709 -0.7494  0.2880
 1021MOL0     C37726   0.883   8.660   8.626  0.2325 -0.6355  0.2654
 1021MOL0     C37727   0.802   8.770   8.624  0.3784  0.3423  0.8325
 1021MOL0     C37728   0.866   8.901   8.656  0.5465  0.4679  0.0516
 1021MOL0     C37729   0.663   8.744   8.591 -0.5835 -0.5535 -0.2702
 1021MOL0     C37730   0.565   8.855   8.570 -0.6146  0.3075  0.2409
 1021MOL0     O37731   0.440   8.812   8.543  0.3347  0.3496  0.0263
 1021MOL0     C37732   0.342   8.888   8.487 -0.0651  0.2931 -0.2745
 1021MOL0     C37733   0.347   9.025   8.458  0.5052 -0.4494  0.1396
 1021MOL0     C37734   0.243   9.091   8.400  0.0808 -0.5205  0.2106
 1021MOL0     C37735   0.129   9.026   8.356  0.3202  0.0711  0.1127
 1021MOL0     O37736   0.030   9.089   8.284 -0.2509  0.2554 -0.1204
 1021MOL0     C37737  -0.059   9.153   8.370  0.4567  0.2151  0.0761
 1021MOL0     C37738  -0.190   9.180   8.291  0.1679 -0.3351 -0.4654
 1021MOL0     C37739  -0.267   9.056   8.243  0.1365 -0.0827 -0.1076
 1021MOL0     C37740  -0.299   8.942   8.338  0.5333  0.4661 -0.5155
 1021MOL0     C37741  -0.409   8.856   8.295 -0.1816  0.3062  0.0202
 1021MOL0     C37742  -0.380   8.795   8.156 -0.3751 -0.5522  0.1304
 1021MOL0     C37743  -0.279   8.687   8.148  0.2897 -0.1947  0.5007
 1021MOL0     C37744  -0.251   8.651   8.001 -0.0475  1.2522  0.2075
 1021MOL0    Cl37745  -0.394   8.585   7.912 -0.5739  0.2366 -0.3445
 1021MOL0     C37746   0.121   8.884   8.384 -0.0664  0.3037  1.4235
 1021MOL0     C37747   0.227   8.827   8.448 -0.3939 -0.2383  0.3254
 1021MOL0     O37748   0.610   8.969   8.554 -0.5865 -0.0429 -0.5202
 1021MOL0     C37749   0.629   8.611   8.573 -0.6929 -0.0596  0.0606
 1021MOL0     C37750   0.712   8.506   8.588 -0.0107 -0.4378 -0.2895
 1021MOL0     N37751   1.430   8.182   8.239  0.1077 -0.2123 -0.4807
 1021MOL0     N37752   1.557   8.169   8.207 -0.1141 -0.5672  0.2622
 1021MOL0     C37753   2.726   8.724   7.893  0.0594 -0.0413 -0.2636
 1021MOL0     C37754   2.853   8.735   7.949  0.5179 -0.2984  0.6732
 1021MOL0     C37755   3.179   8.837   8.260 -0.0308 -0.1779  1.0136
 1021MOL0     C37756   3.242   8.882   8.136  0.3601  0.6002  0.1495
 1021MOL0     C37757   3.371   8.916   8.133  0.8101 -0.3828  0.9315
 1021MOL0     C37758   3.446   8.932   8.249  1.0238 -0.7099 -0.7718
 1021MOL0     O37759   3.573   8.974   8.256 -0.7524 -0.2971 -0.0843
 1021MOL0     C37760   3.640   9.027   8.136 -0.3864 -1.1497  0.0389
 1021MOL0     C37761   3.780   9.090   8.172 -0.4560  0.4858 -0.0978
 1021MOL0     C37762   3.875   9.000   8.249 -0.2633 -0.3585  0.2504
 1021MOL0     C37763   4.023   9.045   8.248  0.5150 -0.0382  0.1920
 1021MOL0     C37764   4.072   9.017   8.119  0.1410  0.6128  0.8699
 1021MOL0     C37765   4.118   8.995   8.007 -0.9216 -0.5986 -0.2758
 1021MOL0     C37766   3.390   8.893   8.374 -0.5820 -0.4306  0.7847
 1021MOL0     C37767   3.261   8.840   8.375  0.7769 -0.1256  0.5935
 1021MOL0     H37768   2.756   8.750   8.281  0.3605 -0.8689 -0.3493
 1021MOL0     H37769   2.540   8.726   8.178  1.8233  0.1328  2.0988
 1021MOL0     H37770   2.401   8.534   8.012  0.7337 -1.1123 -3.0374
 1021MOL0     H37771   2.320   8.697   8.013 -2.1172 -3.0109  3.0365
 1021MOL0     H37772   2.286   8.648   7.766 -2.3106  0.1631 -0.0247
 1021MOL0     H37773   2.329   8.481   7.813  0.4637  0.5294 -2.5138
 1021MOL0     H37774   2.166   8.524   8.007 -0.3952  1.3066  0.6128
 1021MOL0     H37775   2.098   8.660   7.912  3.3498  1.3931  1.0503
 1021MOL0     H37776   2.058   8.490   7.727  2.1132  0.0668 -0.2938
 1021MOL0     H37777   2.077   8.359   7.842  0.2419 -0.2150 -1.2116
 1021MOL0     H37778   1.877   8.568   7.908  1.6426 -0.2839  1.1851
 1021MOL0     H37779   1.844   8.413   7.807  0.4004 -1.5046  0.5672
 1021MOL0     H37780   1.928   8.293   7.983  0.8462  0.7284 -2.1357
 1021MOL0     H37781   1.968   8.438   8.086 -0.0808  2.2456 -0.9567
 1021MOL0     H37782   1.734   8.496   8.096  2.7754  1.2127  0.8706
 1021MOL0     H37783   1.678   8.347   8.014 -0.2077  1.7986 -0.7655
 1021MOL0     H37784   1.804   8.373   8.290 -0.2196  0.8863 -0.3524
 1021MOL0     H37785   1.821   8.221   8.213  2.5420  1.3405  0.9945
 1021MOL0     H37786   1.554   8.469   8.348 -0.4689 -0.3279 -0.1407
 1021MOL0     H37787   1.285   8.465   8.345 -3.0654 -0.7816 -2.5951
 1021MOL0     H37788   1.212   8.310   8.303  0.9631 -0.9857  0.3706
 1021MOL0     H37789   1.362   8.374   8.571 -1.9860 -1.1255  3.4335
 1021MOL0     H37790   1.325   8.219   8.513  2.8261  1.3196 -3.5966
 1021MOL0     H37791   1.184   8.301   8.687 -2.3900  0.2966  1.4737
 1021MOL0     H37792   1.087   8.250   8.537 -0.8708 -0.9494  1.8083
 1021MOL0     H37793   1.110   8.520   8.502 -2.6973  1.1054 -0.9447
 1021MOL0     H37794   1.117   8.512   8.674  0.7452 -0.5110 -0.6713
 1021MOL0     H37795   0.986   8.677   8.655  0.5977  1.5528 -1.9340
 1021MOL0     H37796   0.842   8.923   8.761 -4.0395 -1.3890 -0.3855
 1021MOL0     H37797   0.974   8.904   8.640  0.1811 -0.1351 -3.0054
 1021MOL0     H37798   0.836   8.976   8.583  0.2574  0.0400 -0.2781
 1021MOL0     H37799   0.424   9.091   8.496  1.0190  0.1701 -1.8697
 1021MOL0     H37800   0.238   9.199   8.394 -1.0181 -0.3405  2.7885
 1021MOL0     H37801  -0.078   9.095   8.461 -1.6967 -1.0938 -1.1177
 1021MOL0     H37802  -0.015   9.250   8.395  0.0361  0.8840 -1.6373
 1021MOL0     H37803  -0.261   9.233   8.355  1.1871 -0.8931  1.1837
 1021MOL0     H37804  -0.155   9.244   8.210  1.8157  0.2154  0.6172
 1021MOL0     H37805  -0.223   8.999   8.161 -1.2821 -0.5312 -0.5876
 1021MOL0     H37806  -0.365   9.089   8.209 -0.3208  3.3273  3.7724
 1021MOL0     H37807  -0.212   8.877   8.347 -0.6883 -0.9372  4.9848
 1021MOL0     H37808  -0.317   8.978   8.440  1.3468  0.2418 -0.2895
 1021MOL0     H37809  -0.500   8.917   8.294  0.8809  1.9702  0.4854
 1021MOL0     H37810  -0.432   8.770   8.358 -1.7087  0.5494 -0.1567
 1021MOL0     H37811  -0.470   8.758   8.106 -0.2461  0.5897 -0.9944
 1021MOL0     H37812  -0.343   8.869   8.085 -1.1311  0.0328  0.3353
 1021MOL0     H37813  -0.306   8.599   8.207  0.1797 -1.1674 -0.9522
 1021MOL0     H37814  -0.186   8.735   8.180  0.8871 -0.2860 -0.9923
 1021MOL0     H37815  -0.176   8.571   7.997 -0.7816  0.4797  1.4532
 1021MOL0     H37816  -0.220   8.736   7.939  1.0727 -0.8194 -2.2846
 1021MOL0     H37817   0.035   8.829   8.347  1.0309 -0.0248 -0.8424
 1021MOL0     H37818   0.215   8.720   8.456 -0.5437 -0.4196 -1.8692
 1021MOL0     H37819   0.528   8.572   8.558 -1.3004  0.4736  2.3816
 1021MOL0     H37820   0.664   8.409   8.579  0.0976 -0.4888 -0.3130
 1021MOL0     H37821   2.716   8.718   7.785 -0.4358 -3.4844 -0.1383
 1021MOL0     H37822   2.941   8.773   7.898  0.7651  0.7379  1.8293
 1021MOL0     H37823   3.181   8.899   8.048  0.6552  3.4060  0.3909
 1021MOL0     H37824   3.420   8.941   8.039  1.2152  0.9619  1.4678
 1021MOL0     H37825   3.652   8.943   8.068 -2.3321  0.0992 -1.9796
 1021MOL0     H37826   3.583   9.103   8.082 -0.0704  0.2914  1.6138
 1021MOL0     H37827   3.765   9.182   8.230 -2.5042  1.2008 -1.6335
 1021MOL0     H37828   3.830   9.111   8.077 -0.9963  5.0530  0.3820
 1021MOL0     H37829   3.873   8.894   8.221  1.5126 -0.9769  2.1654
 1021MOL0     H37830   3.834   9.001   8.351  0.5479  1.5544  0.6033
 1021MOL0     H37831   4.086   9.004   8.327  1.2949  0.1558 -0.3227
 1021MOL0     H37832   4.023   9.152   8.270  0.7348 -0.6849  3.9526
 1021MOL0     H37833   4.133   8.995   7.901  5.2156 -1.4251  0.2260
 1021MOL0     H37834   3.451   8.891   8.464 -1.5523 -1.3055  1.4438
 1021MOL0     H37835   3.213   8.806   8.466 -0.6184  0.1113 -0.0368
 1022MOL0     O37836   5.374   4.042   9.450 -0.2310 -0.4677 -0.3366
 1022MOL0     C37837   5.389   3.945   9.517 -0.2085  0.1765 -0.4086
 1022MOL0     O37838   5.289   3.866   9.567  0.4207  0.2369  0.2129
 1022MOL0     C37839   5.159   3.878   9.524 -0.4901  0.4603 -0.3143
 1022MOL0     C37840   5.064   3.848   9.616  0.2053  0.0229 -0.0594
 1022MOL0     C37841   4.932   3.865   9.579  0.1295 -0.2734 -0.4757
 1022MOL0     C37842   4.889   3.911   9.454 -0.0330 -0.5760 -0.5086
 1022MOL0     O37843   4.768   3.945   9.406  0.1807 -0.2071  0.8881
 1022MOL0     C37844   4.668   3.990   9.499 -0.0897  0.6568  0.8671
 1022MOL0     C37845   4.538   3.928   9.464  0.0825  0.0497  0.1293
 1022MOL0     C37846   4.421   3.966   9.553 -0.3231  1.0187 -0.6768
 1022MOL0     C37847   4.277   3.930   9.494  0.4623 -0.0854 -0.6717
 1022MOL0     C37848   4.161   3.987   9.576  0.2612 -0.3382  0.6149
 1022MOL0     C37849   4.025   3.955   9.528  0.2017  0.1685  0.1649
 1022MOL0     C37850   3.914   4.029   9.606  0.6966  0.4183 -1.0941
 1022MOL0     C37851   3.876   4.171   9.579 -0.9978 -0.5762  0.5111
 1022MOL0     N37852   3.762   4.205   9.666  0.1062 -0.2805 -0.0442
 1022MOL0     C37853   3.643   4.254   9.618 -0.7808 -0.7250  0.5021
 1022MOL0     C37854   3.559   4.258   9.729  0.2689  0.3648  0.5736
 1022MOL0     C37855   3.410   4.295   9.722  0.1439  0.3199  0.4712
 1022MOL0     C37856   3.384   4.443   9.764  0.1765 -0.5294  0.0627
 1022MOL0     C37857   3.240   4.495   9.738  0.2176  0.5911 -0.5141
 1022MOL0     C37858   3.125   4.404   9.791  0.2939 -0.3705 -0.2759
 1022MOL0     O37859   3.021   4.485   9.853 -0.0254  0.4544 -0.0742
 1022MOL0     C37860   2.909   4.423   9.908 -0.0454 -0.4713 -0.1360
 1022MOL0     C37861   2.803   4.509   9.953  0.7055 -0.7401  0.2902
 1022MOL0     C37862   2.685   4.469  10.006  0.2753  0.3049 -0.6282
 1022MOL0     C37863   2.582   4.571  10.044 -0.0173 -1.0606 -0.6321
 1022MOL0     C37864   2.681   4.331  10.043 -0.1916  0.7398  0.0248
 1022MOL0     C37865   2.567   4.256  10.098 -0.1825  0.5245  0.4262
 1022MOL0     O37866   2.591   4.158  10.192  0.3862  0.4412 -1.0845
 1022MOL0     C37867   2.480   4.113  10.259 -0.1611  0.3240  0.3791
 1022MOL0     C37868   2.481   4.117  10.397  0.1103 -0.3317 -0.0998
 1022MOL0     C37869   2.391   4.042  10.470  0.4163 -0.8463 -1.0156
 1022MOL0     C37870   2.290   3.963  10.411  0.0866 -0.0956 -0.6353
 1022MOL0     O37871   2.190   3.892  10.472  0.1442 -0.5136 -0.1975
 1022MOL0     C37872   2.193   3.866  10.610  0.0777  1.0946 -0.3498
 1022MOL0     C37873   2.047   3.815  10.633 -0.1543 -0.1456 -0.4520
 1022MOL0     C37874   2.018   3.686  10.545 -0.3095 -0.0698 -0.5485
 1022MOL0     C37875   1.895   3.612  10.596  0.5515  0.0879 -0.0356
 1022MOL0     C37876   1.930   3.528  10.718  0.1628  0.2262  0.3581
 1022MOL0     C37877   1.805   3.459  10.766 -1.4592 -0.6205 -0.1930
 1022MOL0     C37878   1.829   3.371  10.888  0.4609 -0.3278 -0.1325
 1022MOL0     C37879   1.707   3.316  10.951  0.3704  0.6646  0.1609
 1022MOL0    Cl37880   1.595   3.454  11.000  0.2000  0.0433 -0.2276
 1022MOL0     C37881   2.278   3.969  10.276  0.6344  0.1313  0.0909
 1022MOL0     C37882   2.379   4.028  10.201  0.0879 -0.1401 -0.2757
 1022MOL0     O37883   2.454   4.287  10.060  0.4609  0.2450  0.2603
 1022MOL0     C37884   2.786   4.241  10.013  0.9704  0.0718  0.5813
 1022MOL0     C37885   2.897   4.285   9.940  0.4484  0.3639  0.7792
 1022MOL0     N37886   3.628   4.211   9.837 -0.5889 -0.4852 -0.3799
 1022MOL0     N37887   3.750   4.189   9.804  0.3928 -0.5287 -0.1272
 1022MOL0     C37888   4.989   3.927   9.356 -0.5648 -0.2061 -0.4357
 1022MOL0     C37889   5.121   3.923   9.400  1.2260 -0.2757  0.3165
 1022MOL0     C37890   5.529   3.907   9.561  0.4080  0.0025  0.7856
 1022MOL0     C37891   5.642   3.980   9.519 -0.1629  0.0840  0.7705
 1022MOL0     C37892   5.770   3.936   9.544  0.2294 -0.3409  0.5025
 1022MOL0     C37893   5.796   3.814   9.601 -0.5037  0.2029  0.7393
 1022MOL0     O37894   5.934   3.784   9.602 -0.1639 -0.1926  0.0857
 1022MOL0     C37895   5.961   3.641   9.609 -1.0052  0.1199  1.0683
 1022MOL0     C37896   6.112   3.595   9.603 -0.6188  0.1254 -0.6521
 1022MOL0     C37897   6.188   3.603   9.739 -0.5026  1.4980 -0.1209
 1022MOL0     C37898   6.320   3.526   9.738  0.4256  0.2034 -0.4820
 1022MOL0     C37899   6.419   3.580   9.645  0.2826 -0.8924  0.3797
 1022MOL0     C37900   6.503   3.623   9.562  0.4165  0.0823 -0.2161
 1022MOL0     C37901   5.693   3.737   9.653  0.3398 -0.5899  0.8625
 1022MOL0     C37902   5.555   3.787   9.638  0.2462  0.6430 -0.4564
 1022MOL0     H37903   5.105   3.826   9.714 -2.0606  1.2457  1.2311
 1022MOL0     H37904   4.849   3.855   9.649  1.1576 -1.5248  0.6139
 1022MOL0     H37905   4.690   3.949   9.598 -0.8120  0.3257  0.8946
 1022MOL0     H37906   4.671   4.100   9.498 -0.0855  0.6535  0.5860
 1022MOL0     H37907   4.520   3.949   9.358  0.8910 -0.0470 -0.0339
 1022MOL0     H37908   4.556   3.821   9.483  1.9429  0.5496  1.4319
 1022MOL0     H37909   4.435   3.897   9.637  2.3878  1.4718 -0.6604
 1022MOL0     H37910   4.422   4.068   9.593  0.6681 -0.1506  2.5917
 1022MOL0     H37911   4.271   3.979   9.397 -1.2942 -1.0137 -1.0887
 1022MOL0     H37912   4.265   3.822   9.479  0.6703 -0.1068 -0.6843
 1022MOL0     H37913   4.166   3.952   9.680 -2.4946 -0.0813  0.9010
 1022MOL0     H37914   4.157   4.096   9.572 -1.4993 -0.1760  3.6255
 1022MOL0     H37915   4.023   3.980   9.422  2.7648 -0.3814 -0.0769
 1022MOL0     H37916   4.013   3.846   9.532  1.5467 -0.0052  0.1754
 1022MOL0     H37917   3.827   3.965   9.594  1.6306 -0.9634 -0.7193
 1022MOL0     H37918   3.938   4.025   9.713 -3.0314  2.7266  0.0207
 1022MOL0     H37919   3.852   4.164   9.472  1.6731 -0.8436 -0.1406
 1022MOL0     H37920   3.972   4.222   9.587 -1.0243 -0.2166 -1.1741
 1022MOL0     H37921   3.620   4.284   9.515  0.6696  2.0577  0.8769
 1022MOL0     H37922   3.369   4.277   9.623  2.3303  0.0927 -0.4541
 1022MOL0     H37923   3.367   4.219   9.788  2.2957 -3.4031 -2.0080
 1022MOL0     H37924   3.455   4.510   9.714 -2.0235  0.9421 -1.2706
 1022MOL0     H37925   3.402   4.454   9.872  1.0979  0.9372 -0.2157
 1022MOL0     H37926   3.221   4.516   9.633 -3.8716 -0.0633 -0.0617
 1022MOL0     H37927   3.240   4.594   9.785 -1.1955  1.3323 -1.9919
 1022MOL0     H37928   3.157   4.331   9.867  1.1706 -1.6754 -1.8157
 1022MOL0     H37929   3.086   4.343   9.709  0.1610  1.5280 -1.6886
 1022MOL0     H37930   2.812   4.613   9.923  0.5053 -1.3494 -2.1745
 1022MOL0     H37931   2.587   4.652   9.970 -0.2243 -2.0723 -1.7991
 1022MOL0     H37932   2.484   4.523  10.035 -0.2401 -0.7464  0.1101
 1022MOL0     H37933   2.591   4.600  10.149  0.6121  3.8020 -1.7985
 1022MOL0     H37934   2.563   4.165  10.451 -0.7137  0.9399  0.0874
 1022MOL0     H37935   2.407   4.060  10.576  0.3295 -0.1296 -1.1192
 1022MOL0     H37936   2.268   3.794  10.644  0.2057  1.9905  1.3955
 1022MOL0     H37937   2.209   3.957  10.669 -1.3984  1.1761 -0.0578
 1022MOL0     H37938   2.034   3.804  10.741  0.4184  3.9302  0.2161
 1022MOL0     H37939   1.978   3.896  10.607  0.9503  1.7068  1.9910
 1022MOL0     H37940   2.109   3.627  10.562 -0.0896 -0.0831 -1.7127
 1022MOL0     H37941   2.009   3.721  10.442  1.4661  2.5525  0.0833
 1022MOL0     H37942   1.824   3.688  10.629  0.9533  0.4247  0.0643
 1022MOL0     H37943   1.855   3.551  10.514  0.0377 -1.9602  1.6650
 1022MOL0     H37944   1.959   3.590  10.804 -1.2846 -2.2138  2.7688
 1022MOL0     H37945   2.005   3.453  10.692  1.1879  2.0285 -2.2493
 1022MOL0     H37946   1.730   3.536  10.784 -2.4374 -1.4947 -0.4010
 1022MOL0     H37947   1.770   3.416  10.671  0.5588  1.5594 -2.0570
 1022MOL0     H37948   1.871   3.441  10.961 -1.0545  2.6834 -1.9572
 1022MOL0     H37949   1.893   3.285  10.866 -3.2814 -3.2199 -0.6932
 1022MOL0     H37950   1.731   3.251  11.035 -0.3827 -0.2145 -0.2851
 1022MOL0     H37951   1.656   3.259  10.873  0.4062  1.1296 -0.2117
 1022MOL0     H37952   2.191   3.926  10.227 -1.0194  0.8157  2.2727
 1022MOL0     H37953   2.385   4.024  10.092  0.8824  0.9048 -0.2912
 1022MOL0     H37954   2.781   4.134  10.030  1.4434 -0.1516 -0.5880
 1022MOL0     H37955   2.981   4.223   9.910 -0.1319 -0.1042  0.0807
 1022MOL0     H37956   4.961   3.959   9.256  1.5151 -1.6748 -1.5447
 1022MOL0     H37957   5.185   3.957   9.318 -0.7651  1.2318 -0.7072
 1022MOL0     H37958   5.635   4.075   9.468 -1.5461  1.2873  3.0042
 1022MOL0     H37959   5.847   3.999   9.500  0.1431 -1.8830 -2.1045
 1022MOL0     H37960   5.924   3.599   9.703 -0.6893  0.4383  1.3415
 1022MOL0     H37961   5.910   3.590   9.527 -2.8428  1.2748  1.4376
 1022MOL0     H37962   6.165   3.661   9.535 -1.9505  1.0663 -0.8098
 1022MOL0     H37963   6.106   3.489   9.578 -1.6373  0.6537 -2.8605
 1022MOL0     H37964   6.131   3.546   9.813  0.1700  0.7009 -0.2057
 1022MOL0     H37965   6.217   3.706   9.765  0.8188  0.2769  4.0382
 1022MOL0     H37966   6.305   3.420   9.713 -0.3270  0.5272 -1.4717
 1022MOL0     H37967   6.359   3.525   9.841 -0.6011 -0.1416 -0.0836
 1022MOL0     H37968   6.573   3.640   9.482  0.6129 -0.1968 -0.1038
 1022MOL0     H37969   5.716   3.642   9.700 -0.0251 -0.4059  1.4167
 1022MOL0     H37970   5.474   3.717   9.659 -2.1517  3.7456  1.4492
 1023MOL0     O37971   3.332   5.046   5.262 -0.2316  0.0495  0.5099
 1023MOL0     C37972   3.389   4.964   5.191  0.4036 -0.4952 -0.2749
 1023MOL0     O37973   3.334   4.858   5.121 -0.0640 -1.1826  1.1841
 1023MOL0     C37974   3.201   4.848   5.092 -1.0552 -0.1766 -0.4556
 1023MOL0     C37975   3.152   4.717   5.091 -0.1816 -0.5574 -0.0390
 1023MOL0     C37976   3.019   4.696   5.065  0.0614  0.5186 -0.1471
 1023MOL0     C37977   2.932   4.800   5.050 -0.3099  0.2920  0.3703
 1023MOL0     O37978   2.794   4.777   5.015 -0.3108 -0.4407  0.6228
 1023MOL0     C37979   2.731   4.656   5.062 -0.1895 -0.8058  0.2951
 1023MOL0     C37980   2.608   4.676   5.147 -0.9192 -0.0218  0.2287
 1023MOL0     C37981   2.491   4.733   5.070 -0.1410  0.3335 -0.0691
 1023MOL0     C37982   2.359   4.693   5.140 -0.3133 -0.2292  0.3876
 1023MOL0     C37983   2.243   4.799   5.138 -0.6254  0.7376  0.3604
 1023MOL0     C37984   2.116   4.729   5.184 -0.6313  0.6167 -0.3475
 1023MOL0     C37985   1.989   4.818   5.173  0.1252 -0.5161 -0.4230
 1023MOL0     C37986   1.941   4.862   5.305 -0.4346  0.2066  0.1118
 1023MOL0     N37987   1.909   4.748   5.395  0.1573  0.3454  0.1183
 1023MOL0     C37988   1.827   4.650   5.354  0.0082  0.3812  0.7727
 1023MOL0     C37989   1.847   4.551   5.433  0.2481  0.3107 -0.5661
 1023MOL0     C37990   1.791   4.418   5.420  0.0970 -0.3086 -0.3678
 1023MOL0     C37991   1.635   4.415   5.433 -0.4172  0.9859 -0.1120
 1023MOL0     C37992   1.607   4.452   5.583 -0.0112  0.1729  1.4257
 1023MOL0     C37993   1.459   4.486   5.584 -0.2935 -0.9195 -1.0714
 1023MOL0     O37994   1.420   4.588   5.481 -0.1312 -0.8978 -0.5590
 1023MOL0     C37995   1.299   4.646   5.508 -0.3096 -1.0641 -1.1652
 1023MOL0     C37996   1.297   4.764   5.587  0.1391 -1.0398 -0.0705
 1023MOL0     C37997   1.187   4.810   5.656  0.0977 -0.1929 -0.5576
 1023MOL0     C37998   1.187   4.927   5.750  0.6586 -0.6299  0.3289
 1023MOL0     C37999   1.061   4.744   5.622 -0.0307 -0.2472  0.1233
 1023MOL0     C38000   0.921   4.788   5.660 -0.4732 -0.0868 -0.3593
 1023MOL0     O38001   0.816   4.708   5.622  0.1747  0.1773  0.3333
 1023MOL0     C38002   0.680   4.730   5.628 -0.4183 -0.3278 -0.2253
 1023MOL0     C38003   0.612   4.820   5.713  0.4488 -0.4636  0.7448
 1023MOL0     C38004   0.473   4.853   5.702 -0.4526  1.1207  0.1759
 1023MOL0     C38005   0.392   4.777   5.615  1.3745  0.2370 -0.0825
 1023MOL0     O38006   0.256   4.786   5.597 -0.1990 -0.1101  0.3095
 1023MOL0     C38007   0.181   4.795   5.717  0.1205 -0.7883  0.3490
 1023MOL0     C38008   0.038   4.802   5.684  0.1285 -0.0145 -0.9369
 1023MOL0     C38009  -0.025   4.673   5.629  0.1593  0.3047 -0.1936
 1023MOL0     C38010  -0.187   4.693   5.627 -0.6746 -0.0407  0.1735
 1023MOL0     C38011  -0.249   4.553   5.615 -0.2099 -0.1873 -0.0425
 1023MOL0     C38012  -0.227   4.489   5.481 -0.5135  0.0813  0.5970
 1023MOL0     C38013  -0.346   4.503   5.380 -0.0076 -0.0650 -0.1406
 1023MOL0     C38014  -0.463   4.409   5.388  0.7137  0.5707  0.1163
 1023MOL0    Cl38015  -0.589   4.473   5.268 -0.1145 -0.4933 -0.2413
 1023MOL0     C38016   0.455   4.680   5.535 -0.1304  0.1998 -0.0910
 1023MOL0     C38017   0.591   4.649   5.543  0.2070 -0.2555 -0.3978
 1023MOL0     O38018   0.905   4.892   5.727 -0.3425 -0.4470 -0.0127
 1023MOL0     C38019   1.060   4.640   5.521 -0.1507 -0.1754 -0.5946
 1023MOL0     C38020   1.176   4.588   5.465 -0.1601 -0.3063  0.4952
 1023MOL0     N38021   1.940   4.588   5.531 -0.8960 -0.4617 -0.2022
 1023MOL0     N38022   1.973   4.712   5.517  0.4334  0.0705  0.3386
 1023MOL0     C38023   2.979   4.926   5.056  0.5856  0.3035 -0.0977
 1023MOL0     C38024   3.111   4.958   5.075 -0.4208 -0.4752  0.5672
 1023MOL0     C38025   3.535   4.974   5.186  0.0639  0.3439 -0.1012
 1023MOL0     C38026   3.604   5.068   5.260 -0.5421 -0.6796 -0.5143
 1023MOL0     C38027   3.746   5.067   5.263  1.1128 -0.1149  1.3247
 1023MOL0     C38028   3.815   4.977   5.181  0.1634  1.2386 -0.0662
 1023MOL0     O38029   3.952   4.995   5.168  0.3328  0.5304  0.7803
 1023MOL0     C38030   4.035   4.905   5.094 -0.4652 -0.3249 -0.2304
 1023MOL0     C38031   4.101   4.805   5.190 -0.6335 -0.2751  0.1040
 1023MOL0     C38032   4.208   4.725   5.115 -0.8246  0.0122 -0.1793
 1023MOL0     C38033   4.175   4.673   4.977  1.0876  0.0912 -0.3535
 1023MOL0     C38034   4.048   4.595   4.978  0.5417 -0.9674 -0.7401
 1023MOL0     C38035   3.938   4.542   5.000 -0.5658 -0.7950  0.1789
 1023MOL0     C38036   3.745   4.873   5.123 -0.0821  0.0711  0.8478
 1023MOL0     C38037   3.606   4.878   5.117 -0.1190  1.0190  0.0569
 1023MOL0     H38038   3.211   4.627   5.108  1.0726 -0.2238 -2.1595
 1023MOL0     H38039   2.993   4.590   5.065  0.0229  0.5262  0.4726
 1023MOL0     H38040   2.717   4.590   4.977  0.9350  1.7183 -2.0079
 1023MOL0     H38041   2.803   4.597   5.119  2.0572  0.4821 -1.0586
 1023MOL0     H38042   2.590   4.576   5.186  0.3758 -0.3148  0.1384
 1023MOL0     H38043   2.631   4.741   5.232 -4.8915 -0.4998  1.8489
 1023MOL0     H38044   2.499   4.842   5.065  2.7800  0.2427  0.9196
 1023MOL0     H38045   2.487   4.696   4.967 -0.8170 -1.1072  0.4446
 1023MOL0     H38046   2.332   4.599   5.091  2.0634 -1.7282  1.7472
 1023MOL0     H38047   2.375   4.669   5.246 -0.4745  1.0968  0.7284
 1023MOL0     H38048   2.254   4.894   5.192  0.5880  0.7803  0.0650
 1023MOL0     H38049   2.225   4.826   5.033  0.5972  0.6635  0.1170
 1023MOL0     H38050   2.102   4.634   5.131 -1.2093  0.0817  0.7373
 1023MOL0     H38051   2.133   4.701   5.288 -0.7448  1.9547  0.0465
 1023MOL0     H38052   2.034   4.901   5.117  0.7997  0.3195  1.2663
 1023MOL0     H38053   1.908   4.768   5.120  1.7532 -3.0665 -0.6385
 1023MOL0     H38054   1.856   4.931   5.312 -0.6432 -0.2097  3.8712
 1023MOL0     H38055   2.028   4.914   5.348 -0.1161 -0.0527 -0.2082
 1023MOL0     H38056   1.761   4.657   5.268  1.3917  1.2453 -0.2710
 1023MOL0     H38057   1.816   4.378   5.321 -0.3728  0.0966 -0.6569
 1023MOL0     H38058   1.834   4.353   5.497 -1.7948  0.4403  1.4009
 1023MOL0     H38059   1.599   4.316   5.402 -0.8121  0.2157  2.5334
 1023MOL0     H38060   1.595   4.488   5.363 -0.1506  0.0970 -1.2320
 1023MOL0     H38061   1.666   4.538   5.617 -2.2678  2.0959  0.7821
 1023MOL0     H38062   1.614   4.366   5.651 -5.9915  0.0338  2.4041
 1023MOL0     H38063   1.442   4.526   5.685 -2.4837 -0.2961 -1.6386
 1023MOL0     H38064   1.401   4.395   5.568 -3.6550  0.9172 -0.3222
 1023MOL0     H38065   1.393   4.805   5.617  0.7928 -1.7245 -1.1712
 1023MOL0     H38066   1.286   4.939   5.794  1.3843 -0.1223 -1.4018
 1023MOL0     H38067   1.158   5.016   5.693 -1.9640 -1.1956  0.6528
 1023MOL0     H38068   1.122   4.897   5.834  2.6908 -1.7011  1.5994
 1023MOL0     H38069   0.669   4.891   5.771 -2.3822  2.5717  0.1572
 1023MOL0     H38070   0.427   4.931   5.762 -2.4813 -0.2240  0.4675
 1023MOL0     H38071   0.207   4.712   5.783  1.0815 -0.6198  0.2000
 1023MOL0     H38072   0.190   4.887   5.775  0.2256 -0.4484 -0.1941
 1023MOL0     H38073  -0.011   4.833   5.776 -0.3970 -1.4943 -0.6955
 1023MOL0     H38074   0.024   4.883   5.612 -1.2743 -0.0213 -0.7046
 1023MOL0     H38075  -0.000   4.580   5.679  1.3768  1.8256  2.2253
 1023MOL0     H38076  -0.003   4.679   5.522  0.1880  1.4531 -0.1420
 1023MOL0     H38077  -0.234   4.725   5.721  1.1388 -0.9403  1.4522
 1023MOL0     H38078  -0.217   4.752   5.539  0.0003 -2.0908 -1.5079
 1023MOL0     H38079  -0.355   4.560   5.638  0.2635  1.4043  1.9651
 1023MOL0     H38080  -0.220   4.495   5.703  2.4286  0.1441 -0.5901
 1023MOL0     H38081  -0.140   4.533   5.430 -0.8286  0.3138  0.2534
 1023MOL0     H38082  -0.197   4.384   5.488 -0.2067 -0.0845 -2.1430
 1023MOL0     H38083  -0.307   4.500   5.278 -0.2405  0.8917 -0.2692
 1023MOL0     H38084  -0.370   4.609   5.385  4.2781  1.3871 -3.9506
 1023MOL0     H38085  -0.511   4.398   5.486 -0.6884 -1.5688 -0.7457
 1023MOL0     H38086  -0.429   4.306   5.370 -0.5434  0.5246 -2.4924
 1023MOL0     H38087   0.396   4.636   5.456 -1.6053  1.6521  0.1596
 1023MOL0     H38088   0.626   4.576   5.471 -0.7487 -1.0762 -0.0520
 1023MOL0     H38089   0.968   4.616   5.470  0.0956  0.9226 -1.6045
 1023MOL0     H38090   1.187   4.510   5.390 -0.5046  1.1667 -1.1571
 1023MOL0     H38091   2.916   5.013   5.068  1.3209  1.1146 -1.8103
 1023MOL0     H38092   3.152   5.059   5.078  4.7215 -2.2529  0.7144
 1023MOL0     H38093   3.556   5.146   5.319  2.2460  0.4910  0.3485
 1023MOL0     H38094   3.800   5.146   5.315 -0.7518  1.9084  0.3223
 1023MOL0     H38095   3.973   4.856   5.019 -0.0966 -0.0683 -0.7059
 1023MOL0     H38096   4.118   4.966   5.058  1.7004 -0.4586  3.8799
 1023MOL0     H38097   4.022   4.735   5.219 -3.3423  2.6439  0.4028
 1023MOL0     H38098   4.154   4.842   5.278  0.2511 -2.7135  0.6594
 1023MOL0     H38099   4.219   4.634   5.175  0.4425  1.8106  2.4618
 1023MOL0     H38100   4.300   4.783   5.107 -1.2135  0.5519 -0.8084
 1023MOL0     H38101   4.253   4.612   4.930 -1.4446 -0.3427 -4.4614
 1023MOL0     H38102   4.157   4.757   4.909 -6.6227  0.0106  0.6421
 1023MOL0     H38103   3.841   4.504   5.028 -0.7300 -0.2772  0.3213
 1023MOL0     H38104   3.799   4.794   5.072 -1.2247 -0.5471  0.5736
 1023MOL0     H38105   3.563   4.801   5.054  1.1703  1.8178 -1.9212
 1024MOL0     O38106   8.343   6.010   0.948 -0.3701  0.5790  0.1029
 1024MOL0     C38107   8.370   5.996   1.067  0.3876  0.7564  0.6494
 1024MOL0     O38108   8.284   5.970   1.167  0.2243  0.2454  0.2095
 1024MOL0     C38109   8.159   5.941   1.135 -0.6513 -0.4128 -0.3148
 1024MOL0     C38110   8.119   5.805   1.135 -0.7021 -0.6709 -0.6206
 1024MOL0     C38111   7.999   5.772   1.077  0.3574  0.3937  0.5350
 1024MOL0     C38112   7.907   5.878   1.040 -0.8367 -0.5333 -0.4868
 1024MOL0     O38113   7.774   5.851   1.005 -0.3638  0.0230 -0.1700
 1024MOL0     C38114   7.709   5.930   0.910  0.6120 -0.1023  0.6547
 1024MOL0     C38115   7.611   6.022   0.967  0.8341  0.2009  0.4336
 1024MOL0     C38116   7.501   5.945   1.040 -0.2823  0.1179 -0.6874
 1024MOL0     C38117   7.433   6.035   1.150 -0.4376  0.5537  0.2840
 1024MOL0     C38118   7.289   5.984   1.167  0.6166  0.1888  0.5359
 1024MOL0     C38119   7.189   6.037   1.063 -0.0236  0.0120 -0.3549
 1024MOL0     C38120   7.042   5.983   1.072 -0.6637  0.5620 -0.2513
 1024MOL0     C38121   6.991   5.981   1.214 -0.5691 -0.2155 -0.6495
 1024MOL0     N38122   6.847   5.947   1.226  0.3927 -0.5309 -0.3314
 1024MOL0     C38123   6.800   5.831   1.185 -0.1516 -0.2822  0.1957
 1024MOL0     C38124   6.668   5.832   1.217 -0.4254  0.0968  0.0827
 1024MOL0     C38125   6.573   5.709   1.216  0.2063 -0.3035 -0.7515
 1024MOL0     C38126   6.571   5.613   1.343  0.2161  0.1286 -0.0958
 1024MOL0     C38127   6.480   5.496   1.305  0.5281  1.0863  0.1975
 1024MOL0     C38128   6.414   5.425   1.425 -0.2825  0.2084 -0.3406
 1024MOL0     O38129   6.335   5.531   1.482 -0.6402 -0.0669 -0.1988
 1024MOL0     C38130   6.202   5.547   1.451 -0.1432  0.7942 -0.3045
 1024MOL0     C38131   6.157   5.633   1.346 -0.0397  1.3975  0.6270
 1024MOL0     C38132   6.018   5.656   1.318  0.2762  0.0439 -0.5842
 1024MOL0     C38133   5.974   5.746   1.216 -0.8670 -0.0408  1.1343
 1024MOL0     C38134   5.922   5.588   1.393  0.4055  0.4214  0.2449
 1024MOL0     C38135   5.774   5.578   1.366 -0.1151  0.1128  0.5094
 1024MOL0     O38136   5.701   5.521   1.468 -0.6182 -0.0995 -0.2802
 1024MOL0     C38137   5.563   5.514   1.453 -0.3121  1.2340 -0.2331
 1024MOL0     C38138   5.480   5.620   1.427  0.5827 -1.4805  0.6106
 1024MOL0     C38139   5.338   5.603   1.419  0.6393  0.2737  0.1141
 1024MOL0     C38140   5.282   5.477   1.442  0.2350 -0.2212  0.1438
 1024MOL0     O38141   5.145   5.444   1.438  0.6064 -0.1937 -0.6277
 1024MOL0     C38142   5.060   5.519   1.538 -0.0785 -0.3498  0.3518
 1024MOL0     C38143   4.915   5.514   1.487  0.4864 -0.2539 -0.4978
 1024MOL0     C38144   4.861   5.376   1.471  0.2209  0.1192  0.3306
 1024MOL0     C38145   4.700   5.383   1.483  0.4671  0.2085  0.0115
 1024MOL0     C38146   4.619   5.251   1.474  0.1277 -0.2797 -0.0060
 1024MOL0     C38147   4.475   5.295   1.491 -0.0524 -0.3625 -0.2224
 1024MOL0     C38148   4.383   5.175   1.505  0.0220 -0.1277 -0.1886
 1024MOL0     C38149   4.372   5.084   1.380  0.3512  0.3193 -0.4439
 1024MOL0    Cl38150   4.303   5.178   1.236  0.2239  0.1799 -0.2096
 1024MOL0     C38151   5.363   5.370   1.465 -0.4950 -0.3855  0.1177
 1024MOL0     C38152   5.506   5.384   1.470  0.6171 -0.4513 -0.1386
 1024MOL0     O38153   5.731   5.603   1.249  0.2090  0.3312  0.1166
 1024MOL0     C38154   5.971   5.500   1.496 -0.7379  0.1306 -0.4530
 1024MOL0     C38155   6.106   5.495   1.535  0.6611 -0.0818  0.1213
 1024MOL0     N38156   6.649   5.957   1.276  0.9262 -0.7390 -0.6284
 1024MOL0     N38157   6.756   6.026   1.287  0.3894  0.2039 -0.2178
 1024MOL0     C38158   7.949   6.011   1.049 -0.4171 -0.4855  0.5444
 1024MOL0     C38159   8.081   6.042   1.091 -0.4570 -0.2068  0.4200
 1024MOL0     C38160   8.515   6.012   1.108  1.2321  0.0871 -0.2539
 1024MOL0     C38161   8.542   6.007   1.245 -0.4527  0.4302 -0.6833
 1024MOL0     C38162   8.674   6.015   1.283 -0.1354 -0.8287  0.4260
 1024MOL0     C38163   8.781   6.033   1.187  0.3937  0.0393 -1.3773
 1024MOL0     O38164   8.908   6.038   1.236 -0.0597  0.1007 -0.2529
 1024MOL0     C38165   9.016   6.090   1.148  0.3226  0.5027 -0.0427
 1024MOL0     C38166   9.137   6.081   1.238  0.6603  0.0062 -0.2752
 1024MOL0     C38167   9.129   6.182   1.355  0.6986 -0.3997 -0.1775
 1024MOL0     C38168   9.226   6.148   1.469 -0.4506  0.6234  0.4297
 1024MOL0     C38169   9.364   6.182   1.439  1.1838 -0.3796  0.2408
 1024MOL0     C38170   9.467   6.206   1.392  0.1094  0.3977 -0.1247
 1024MOL0     C38171   8.740   6.048   1.058 -0.4433  0.1600 -0.5048
 1024MOL0     C38172   8.609   6.040   1.016 -0.2930  0.7332  0.8937
 1024MOL0     H38173   8.175   5.734   1.195 -0.9047 -0.3635 -0.0602
 1024MOL0     H38174   7.973   5.667   1.078 -0.4755  0.5871  0.0268
 1024MOL0     H38175   7.774   5.990   0.846 -1.2688 -0.0118 -1.3167
 1024MOL0     H38176   7.664   5.862   0.837  2.4514 -2.2778  1.4377
 1024MOL0     H38177   7.658   6.093   1.036 -0.9474  2.8410 -0.8923
 1024MOL0     H38178   7.558   6.074   0.887  0.7466 -1.6817 -0.7777
 1024MOL0     H38179   7.436   5.897   0.966  3.1791 -2.4507 -2.3361
 1024MOL0     H38180   7.547   5.861   1.092  1.5707  0.0892 -2.2457
 1024MOL0     H38181   7.479   6.033   1.249 -0.9107  0.2277  0.5038
 1024MOL0     H38182   7.432   6.139   1.115  1.0971  0.7081  0.6497
 1024MOL0     H38183   7.279   5.876   1.177  2.8546 -0.3887 -2.1099
 1024MOL0     H38184   7.251   6.021   1.263  0.5918 -1.2294  1.0970
 1024MOL0     H38185   7.181   6.146   1.068  1.7605  0.2646 -1.9310
 1024MOL0     H38186   7.229   6.011   0.965 -3.5344  0.9046 -2.1879
 1024MOL0     H38187   6.976   6.047   1.012  0.3990  2.5127  0.5579
 1024MOL0     H38188   7.031   5.884   1.027 -1.8082  0.6326 -0.1565
 1024MOL0     H38189   6.997   6.084   1.251 -1.7572 -0.6622  0.8856
 1024MOL0     H38190   7.059   5.924   1.278 -0.6078  0.4618  0.0154
 1024MOL0     H38191   6.860   5.747   1.153  1.6422  0.2860  1.8822
 1024MOL0     H38192   6.469   5.739   1.206  0.3316  0.0506 -0.9988
 1024MOL0     H38193   6.595   5.644   1.130 -1.8380  1.2936 -2.6128
 1024MOL0     H38194   6.536   5.668   1.431  2.0133  2.1799 -0.5695
 1024MOL0     H38195   6.669   5.575   1.373 -1.1249 -2.9020  0.8248
 1024MOL0     H38196   6.548   5.420   1.268 -0.5481 -0.3773  1.0963
 1024MOL0     H38197   6.402   5.531   1.237  1.0476  2.0455  0.0761
 1024MOL0     H38198   6.485   5.384   1.498 -0.9878  1.0819  0.8906
 1024MOL0     H38199   6.359   5.342   1.381  0.6783  0.0763 -1.3318
 1024MOL0     H38200   6.237   5.673   1.285  1.3310 -1.3433  0.4769
 1024MOL0     H38201   5.906   5.825   1.249 -1.1824 -0.3902  1.3335
 1024MOL0     H38202   6.068   5.796   1.192 -0.3867 -0.7709  1.4409
 1024MOL0     H38203   5.934   5.692   1.129  0.5635 -0.1468  0.5202
 1024MOL0     H38204   5.516   5.723   1.423  0.0447 -1.3246 -0.9517
 1024MOL0     H38205   5.262   5.679   1.403  0.3369  0.4273  1.9696
 1024MOL0     H38206   5.070   5.478   1.639  0.9105 -3.2100 -0.7946
 1024MOL0     H38207   5.097   5.621   1.545 -0.6245 -0.2390  2.7779
 1024MOL0     H38208   4.856   5.565   1.564  1.2877 -0.9615  0.6100
 1024MOL0     H38209   4.908   5.573   1.395 -2.8698 -1.0038 -0.8327
 1024MOL0     H38210   4.897   5.311   1.551 -5.2319 -0.8727  2.4301
 1024MOL0     H38211   4.896   5.328   1.379 -2.4421 -3.3236  0.8664
 1024MOL0     H38212   4.678   5.429   1.580  0.1511  1.9362 -0.8399
 1024MOL0     H38213   4.652   5.447   1.409 -1.0973  0.6031  1.3282
 1024MOL0     H38214   4.649   5.179   1.551  0.7149 -0.6833 -0.5929
 1024MOL0     H38215   4.621   5.203   1.376 -1.6413  1.0139 -0.7243
 1024MOL0     H38216   4.461   5.354   1.582 -2.0215  3.0263 -2.4995
 1024MOL0     H38217   4.447   5.354   1.404  1.0553  2.4404  1.1915
 1024MOL0     H38218   4.282   5.210   1.528 -0.3082 -0.5479 -0.9564
 1024MOL0     H38219   4.415   5.110   1.588  2.3376 -2.4097 -2.6324
 1024MOL0     H38220   4.311   4.996   1.403 -0.7421  1.2963  0.4920
 1024MOL0     H38221   4.474   5.059   1.349 -0.1218  1.6229 -3.4121
 1024MOL0     H38222   5.309   5.277   1.480 -2.6960  0.3834 -2.2236
 1024MOL0     H38223   5.566   5.295   1.482  0.5518 -0.7992 -2.0515
 1024MOL0     H38224   5.901   5.446   1.560 -0.0217 -0.3234 -0.0358
 1024MOL0     H38225   6.134   5.445   1.627 -0.4748 -2.4187 -0.7063
 1024MOL0     H38226   7.883   6.095   1.034  0.3607 -0.2036 -1.6915
 1024MOL0     H38227   8.113   6.145   1.092 -1.6361  0.1632  0.9349
 1024MOL0     H38228   8.465   5.985   1.318  1.2306  1.7307  1.6006
 1024MOL0     H38229   8.704   6.021   1.387  2.1052  0.3039 -0.2116
 1024MOL0     H38230   9.037   6.016   1.070  0.6077 -0.0794  0.5764
 1024MOL0     H38231   8.996   6.184   1.095  0.8639  0.6231 -0.0385
 1024MOL0     H38232   9.226   6.111   1.183 -0.8741  1.1807 -2.2614
 1024MOL0     H38233   9.136   5.986   1.293 -4.6811  0.0636  0.2980
 1024MOL0     H38234   9.023   6.187   1.382  0.1408  0.2628 -2.3421
 1024MOL0     H38235   9.153   6.281   1.315 -0.8297 -0.0885 -0.3987
 1024MOL0     H38236   9.217   6.043   1.498  1.0705 -0.1732 -1.7179
 1024MOL0     H38237   9.201   6.212   1.554 -1.5546 -0.4509  0.9590
 1024MOL0     H38238   9.566   6.243   1.375  1.7996 -1.0601  4.7352
 1024MOL0     H38239   8.810   6.062   0.975  0.3994 -0.8961 -0.0010
 1024MOL0     H38240   8.587   6.039   0.910  2.3880  1.6006  0.2643
  11.30590  11.30590  11.30590
